Title
43188
    1CHL1    C3    1   6.163   6.696   6.434  0.3326  0.4011 -1.1717
    1CHL1    H3    2   6.256   6.745   6.397  0.4916  1.4463  0.5111
    1CHL1    O3    3   6.191   6.682   6.574 -0.2286  0.5840 -0.3797
    1CHL1   H3'    4   6.150   6.600   6.604  2.4936 -1.1999 -1.1562
    1CHL1    C4    5   6.036   6.777   6.409 -0.8878  0.0485  0.3788
    1CHL1   H4A    6   5.950   6.727   6.455 -1.9930 -0.3050 -1.9139
    1CHL1   H4B    7   6.053   6.873   6.463 -2.3613  0.2307  0.5337
    1CHL1    C5    8   6.017   6.800   6.260  0.9387  0.4236  0.1155
    1CHL1    C6    9   6.011   6.927   6.204  0.7911 -0.1737  0.2189
    1CHL1    H6   10   6.029   7.016   6.266  3.2165 -0.2408 -0.2972
    1CHL1    C7   11   5.960   6.958   6.062  0.9976 -0.3240  0.6090
    1CHL1   H7A   12   5.879   7.033   6.066 -1.7698 -2.9683 -1.5901
    1CHL1   H7B   13   6.047   6.982   5.997 -0.4866  0.1786 -1.2736
    1CHL1    C8   14   5.915   6.826   5.990  0.1134  0.4658 -0.2961
    1CHL1    H8   15   5.809   6.816   6.022  0.6184  1.5431  1.8842
    1CHL1   C14   16   5.935   6.840   5.834  0.3203 -0.1464  0.1271
    1CHL1   H14   17   6.044   6.855   5.813  0.6743 -1.8210  0.6085
    1CHL1   C15   18   5.856   6.954   5.777 -0.1375 -0.9015  0.4798
    1CHL1  H15A   19   5.757   6.969   5.826 -0.6252 -0.2452 -0.6765
    1CHL1  H15B   20   5.918   7.045   5.790 -1.5803 -0.1084  2.4783
    1CHL1   C16   21   5.838   6.913   5.628 -0.9428 -0.5460 -0.0626
    1CHL1  H16A   22   5.730   6.909   5.605 -1.0902 -0.0715  0.5482
    1CHL1  H16B   23   5.886   6.987   5.560  0.6870 -1.2098  0.3013
    1CHL1   C17   24   5.907   6.768   5.615  0.4410  0.1047  0.0844
    1CHL1   H17   25   6.015   6.785   5.594  0.7027 -0.4365  0.9362
    1CHL1   C13   26   5.893   6.710   5.761  0.2402  0.2475 -0.1473
    1CHL1   C18   27   5.747   6.671   5.794  0.7394  0.4951 -0.2392
    1CHL1  H18A   28   5.724   6.583   5.731  4.1228  0.9067 -2.3007
    1CHL1  H18B   29   5.742   6.633   5.898  0.2216 -1.3953 -0.9228
    1CHL1  H18C   30   5.662   6.735   5.764 -2.7168 -3.8466 -0.7467
    1CHL1   C12   31   6.000   6.613   5.798 -0.1992  0.0155  0.2804
    1CHL1  H12A   32   5.992   6.525   5.730 -0.8777  1.3513 -1.4396
    1CHL1  H12B   33   6.101   6.657   5.792 -0.1057  0.2260  2.6940
    1CHL1   C11   34   5.985   6.581   5.942 -0.5040  0.5816  0.1593
    1CHL1  H11A   35   5.887   6.531   5.962  0.1996 -0.7478  0.3889
    1CHL1  H11B   36   6.072   6.516   5.963 -0.0530  0.2568 -2.4029
    1CHL1    C9   37   6.006   6.704   6.037  0.3656  0.5655  0.4129
    1CHL1    H9   38   6.110   6.724   6.004  0.2169 -1.7769 -1.8225
    1CHL1   C10   39   6.004   6.672   6.188  1.1726  0.7370  0.0603
    1CHL1   C19   40   5.865   6.602   6.223 -0.7777 -0.4850  0.4145
    1CHL1  H19A   41   5.864   6.500   6.178  1.7548  0.5597 -2.3462
    1CHL1  H19B   42   5.854   6.589   6.333 -0.5457 -2.1170  0.2628
    1CHL1  H19C   43   5.785   6.667   6.183 -2.3649 -3.0956 -0.9216
    1CHL1    C1   44   6.125   6.575   6.217 -0.0334 -0.4707 -0.5500
    1CHL1   H1A   45   6.109   6.476   6.171  0.9533 -1.1060  0.4256
    1CHL1   H1B   46   6.218   6.617   6.173 -1.0272 -0.1627 -2.4333
    1CHL1    C2   47   6.152   6.557   6.376 -1.0020 -0.4166  0.5064
    1CHL1   H2A   48   6.248   6.502   6.385 -1.0159 -0.3231  1.2880
    1CHL1   H2B   49   6.064   6.508   6.422 -0.0917 -0.2963  2.4531
    1CHL1   C20   50   5.864   6.687   5.496  0.1428 -1.0404  0.2947
    1CHL1   H20   51   5.765   6.638   5.507 -0.8631  0.4476 -1.5171
    1CHL1   C21   52   5.961   6.567   5.489 -0.1620 -0.5768  0.2309
    1CHL1  H21A   53   5.922   6.479   5.546 -1.2333 -1.8072 -2.2633
    1CHL1  H21B   54   6.061   6.594   5.528 -0.1944 -0.8448  0.5099
    1CHL1  H21C   55   5.978   6.543   5.382  1.7618  1.8274 -0.1039
    1CHL1   C22   56   5.858   6.763   5.364  0.1760 -0.0729 -0.2054
    1CHL1  H22A   57   5.809   6.862   5.373 -1.0006 -0.5112 -1.4829
    1CHL1  H22B   58   5.958   6.787   5.323  0.0008  0.8956 -0.0919
    1CHL1   C23   59   5.779   6.685   5.254 -0.2715  0.5453 -0.3341
    1CHL1  H23A   60   5.801   6.577   5.270 -0.4276  0.4701 -0.6267
    1CHL1  H23B   61   5.672   6.712   5.263 -1.0942 -2.0210 -1.4583
    1CHL1   C24   62   5.812   6.731   5.121  0.2655  0.2526 -0.8748
    1CHL1  H24A   63   5.737   6.685   5.053  1.0441 -0.8806 -1.0093
    1CHL1  H24B   64   5.789   6.839   5.128 -1.5008 -0.1548  4.8989
    1CHL1   C25   65   5.953   6.711   5.063 -0.1134  0.8637 -0.2869
    1CHL1   H25   66   6.023   6.787   5.103  0.0677  0.9793 -0.8207
    1CHL1   C26   67   6.024   6.574   5.097  0.5138  1.7234 -0.4490
    1CHL1  H26A   68   6.117   6.550   5.041  1.1492 -3.2013  2.1835
    1CHL1  H26B   69   6.061   6.573   5.201  1.0683  1.7773 -0.6414
    1CHL1  H26C   70   5.952   6.491   5.076  1.9141  0.1894  0.5726
    1CHL1   C27   71   5.938   6.726   4.909  0.6779  0.1667  0.3252
    1CHL1  H27A   72   6.039   6.727   4.863  0.6416 -0.4069  0.2305
    1CHL1  H27B   73   5.881   6.638   4.875  1.8573 -1.0107  1.2769
    1CHL1  H27C   74   5.893   6.822   4.876  0.0153  0.9380  3.2090
    2CHL1    C3   75   1.853   5.883   5.790 -0.0881  0.4768  0.4413
    2CHL1    H3   76   1.808   5.793   5.836 -0.6439  0.4648 -0.1115
    2CHL1    O3   77   1.905   5.966   5.897 -0.6609  0.0115  0.0800
    2CHL1   H3'   78   1.996   5.933   5.903 -0.7427 -0.7321 -1.9420
    2CHL1    C4   79   1.960   5.853   5.688 -0.2314  0.3564  0.7102
    2CHL1   H4A   80   2.022   5.940   5.657  1.6095  0.2771  3.6978
    2CHL1   H4B   81   2.036   5.797   5.747  0.5764 -0.0878 -0.7101
    2CHL1    C5   82   1.904   5.772   5.571  0.1132 -0.3847 -0.2319
    2CHL1    C6   83   1.957   5.654   5.538  0.5293 -0.6640 -0.0042
    2CHL1    H6   84   2.036   5.596   5.589  0.2432 -1.8833 -0.8904
    2CHL1    C7   85   1.924   5.592   5.405 -0.1956  0.7352  0.2479
    2CHL1   H7A   86   2.005   5.534   5.354 -0.8716  0.5160 -0.5855
    2CHL1   H7B   87   1.857   5.510   5.439  1.8475 -1.7141 -1.2511
    2CHL1    C8   88   1.851   5.676   5.303 -0.1630 -0.2566 -0.2415
    2CHL1    H8   89   1.911   5.760   5.263  0.0087  0.7420  1.9581
    2CHL1   C14   90   1.779   5.600   5.189 -0.0936  0.2112 -0.4667
    2CHL1   H14   91   1.704   5.533   5.236 -0.3318  0.0447 -1.0767
    2CHL1   C15   92   1.855   5.499   5.096 -0.2503  0.2376 -0.3140
    2CHL1  H15A   93   1.951   5.550   5.072 -0.3479  2.1106  2.7373
    2CHL1  H15B   94   1.882   5.408   5.153  1.4131  0.3035 -0.9459
    2CHL1   C16   95   1.757   5.471   4.975  0.1577  0.4452 -0.2693
    2CHL1  H16A   96   1.821   5.476   4.884  0.5130  0.3440 -0.0285
    2CHL1  H16B   97   1.713   5.369   4.977  0.0018  0.5197  1.0788
    2CHL1   C17   98   1.647   5.575   4.995 -0.0029 -0.5458  0.5652
    2CHL1   H17   99   1.563   5.526   5.050  0.9056 -0.5828  1.9721
    2CHL1   C13  100   1.698   5.683   5.095  0.1231 -0.6600  0.5028
    2CHL1   C18  101   1.788   5.779   5.004 -0.0260  0.4258  0.0969
    2CHL1  H18A  102   1.716   5.835   4.941  0.1914  0.6083  0.0126
    2CHL1  H18B  103   1.833   5.855   5.071  0.4520  1.7262 -1.6379
    2CHL1  H18C  104   1.874   5.732   4.952  0.9502  1.2571  0.9148
    2CHL1   C12  105   1.588   5.755   5.175 -0.2101  0.3719 -0.3294
    2CHL1  H12A  106   1.513   5.800   5.106  0.3528 -3.4913 -3.8596
    2CHL1  H12B  107   1.521   5.682   5.226  1.8392 -1.9662 -0.7834
    2CHL1   C11  108   1.654   5.846   5.274 -0.0239 -0.9138 -0.0158
    2CHL1  H11A  109   1.717   5.916   5.215  2.1380 -1.9450  0.9411
    2CHL1  H11B  110   1.581   5.906   5.331 -2.1791 -0.1499 -3.2883
    2CHL1    C9  111   1.740   5.764   5.369 -0.1331  0.4275 -0.6746
    2CHL1    H9  112   1.677   5.690   5.421  1.6242  0.2344  1.2886
    2CHL1   C10  113   1.799   5.847   5.489  0.8544 -0.4491 -0.5701
    2CHL1   C19  114   1.860   5.974   5.432 -1.1413  0.1100  0.0528
    2CHL1  H19A  115   1.897   6.045   5.508  1.9607  0.2727 -1.4431
    2CHL1  H19B  116   1.945   5.938   5.369 -0.6746  1.2856 -0.0027
    2CHL1  H19C  117   1.797   6.039   5.368 -0.2309  0.3321 -0.6559
    2CHL1    C1  118   1.690   5.885   5.593  0.1715  0.3755 -0.0085
    2CHL1   H1A  119   1.611   5.946   5.544 -0.6496 -1.6908 -1.4014
    2CHL1   H1B  120   1.637   5.793   5.627  0.0500 -1.1819 -3.8367
    2CHL1    C2  121   1.735   5.961   5.720 -0.0085 -0.1813 -0.2788
    2CHL1   H2A  122   1.648   5.968   5.788 -0.0315  4.7334 -0.4518
    2CHL1   H2B  123   1.762   6.063   5.685  0.1656 -0.8710 -2.2797
    2CHL1   C20  124   1.590   5.633   4.864  0.1853 -0.0042  1.0017
    2CHL1   H20  125   1.566   5.740   4.880 -1.3359  0.2382 -2.2194
    2CHL1   C21  126   1.450   5.570   4.845 -0.8165 -0.4771 -0.4471
    2CHL1  H21A  127   1.458   5.461   4.823 -0.5969 -0.5203 -0.1591
    2CHL1  H21B  128   1.390   5.620   4.765 -1.1715  0.5550  0.4376
    2CHL1  H21C  129   1.396   5.588   4.940  0.6772  4.5605 -0.2379
    2CHL1   C22  130   1.663   5.623   4.721 -0.6685  0.4803 -0.1594
    2CHL1  H22A  131   1.768   5.654   4.741 -1.2200  0.3254  3.8602
    2CHL1  H22B  132   1.676   5.519   4.683  0.5118  0.1028  1.1522
    2CHL1   C23  133   1.606   5.716   4.615  0.5281 -0.3307  0.3859
    2CHL1  H23A  134   1.496   5.722   4.608  0.6546  2.3805 -1.0428
    2CHL1  H23B  135   1.640   5.819   4.639  0.3747  0.1283 -1.2064
    2CHL1   C24  136   1.674   5.692   4.477  0.0242 -0.4620  0.0906
    2CHL1  H24A  137   1.784   5.704   4.488 -0.1118  1.8866 -0.6652
    2CHL1  H24B  138   1.648   5.588   4.445  0.8727  0.1125 -2.7480
    2CHL1   C25  139   1.625   5.785   4.365  1.1403 -0.3835 -0.4994
    2CHL1   H25  140   1.646   5.890   4.393  1.3796 -0.7645  0.8253
    2CHL1   C26  141   1.696   5.756   4.238 -0.7134 -0.2096 -0.0147
    2CHL1  H26A  142   1.801   5.788   4.256 -0.8281  0.5453 -0.6477
    2CHL1  H26B  143   1.703   5.646   4.228  1.1403 -0.0423 -1.0560
    2CHL1  H26C  144   1.646   5.815   4.158 -0.3700 -0.0195 -0.0891
    2CHL1   C27  145   1.468   5.776   4.342 -0.9380 -0.7175 -0.7503
    2CHL1  H27A  146   1.461   5.677   4.293  1.5490 -2.0266  1.2869
    2CHL1  H27B  147   1.408   5.765   4.435  2.3507 -3.7702  1.2710
    2CHL1  H27C  148   1.430   5.854   4.272 -0.7354  0.1588  0.0824
    3CHL1    C3  149   1.349   0.390   6.080 -0.1202 -0.7772  0.6397
    3CHL1    H3  150   1.415   0.309   6.042 -1.7317 -1.6423 -0.4483
    3CHL1    O3  151   1.314   0.343   6.213 -0.6666  0.2198 -0.0090
    3CHL1   H3'  152   1.246   0.407   6.234 -1.0430  0.1326 -0.9278
    3CHL1    C4  153   1.409   0.529   6.070 -0.1849 -0.2017 -0.1933
    3CHL1   H4A  154   1.352   0.601   6.133 -0.1876 -1.2741  1.0898
    3CHL1   H4B  155   1.499   0.509   6.132 -0.7933  0.2225  0.8591
    3CHL1    C5  156   1.439   0.585   5.933 -0.0050 -0.0973  0.4513
    3CHL1    C6  157   1.562   0.632   5.897  1.0283 -0.3631 -0.3374
    3CHL1    H6  158   1.639   0.649   5.974 -1.3950  0.3111  2.1436
    3CHL1    C7  159   1.600   0.684   5.764 -0.6945  0.0869  0.1231
    3CHL1   H7A  160   1.654   0.779   5.782  0.8292 -0.6513 -0.3740
    3CHL1   H7B  161   1.667   0.610   5.714 -0.9548  0.9448 -1.5475
    3CHL1    C8  162   1.483   0.713   5.673  0.3732 -0.1879  1.1715
    3CHL1    H8  163   1.425   0.803   5.704 -0.3880 -0.7336  1.3420
    3CHL1   C14  164   1.533   0.722   5.523  0.0574 -0.1056 -0.4087
    3CHL1   H14  165   1.592   0.630   5.502 -1.8690 -2.0790  2.1370
    3CHL1   C15  166   1.619   0.840   5.477 -0.4867  0.0899 -0.6837
    3CHL1  H15A  167   1.606   0.945   5.512  0.5795 -0.0631  0.2097
    3CHL1  H15B  168   1.723   0.808   5.501 -0.3856  0.1035 -1.0909
    3CHL1   C16  169   1.611   0.843   5.323  0.0169 -0.1884 -0.0512
    3CHL1  H16A  170   1.562   0.935   5.284  0.8807  1.5355  2.6906
    3CHL1  H16B  171   1.712   0.825   5.279  0.6999  0.3064  1.2618
    3CHL1   C17  172   1.506   0.733   5.293  0.6405  1.3805  0.3020
    3CHL1   H17  173   1.561   0.637   5.283  1.1448  1.7966 -1.4189
    3CHL1   C13  174   1.427   0.716   5.420  0.0702  0.8559  0.4530
    3CHL1   C18  175   1.329   0.830   5.435 -0.0442 -0.5247 -0.7189
    3CHL1  H18A  176   1.256   0.823   5.352  0.4664  0.6039 -1.2945
    3CHL1  H18B  177   1.278   0.823   5.534  1.9600  2.5623  0.6857
    3CHL1  H18C  178   1.372   0.929   5.408  2.1739 -1.6633 -1.6312
    3CHL1   C12  179   1.354   0.581   5.442 -0.4858 -0.5151 -0.7006
    3CHL1  H12A  180   1.270   0.572   5.370 -1.3438 -0.2107  0.2380
    3CHL1  H12B  181   1.430   0.502   5.424  3.1113  1.5042  3.7042
    3CHL1   C11  182   1.290   0.566   5.577  1.0611  0.7028  0.3731
    3CHL1  H11A  183   1.208   0.637   5.600  0.9926  0.8460 -0.2998
    3CHL1  H11B  184   1.246   0.464   5.577  2.4029  0.0967  0.1391
    3CHL1    C9  185   1.391   0.587   5.686  0.1023  0.1155  0.5262
    3CHL1    H9  186   1.468   0.507   5.678 -1.9982 -1.8229 -2.8152
    3CHL1   C10  187   1.327   0.570   5.827 -0.1966 -1.0670 -0.4742
    3CHL1   C19  188   1.219   0.677   5.854 -0.4236  0.2350 -0.2966
    3CHL1  H19A  189   1.178   0.674   5.957  1.5609  1.5871  0.5911
    3CHL1  H19B  190   1.253   0.780   5.831 -0.8569  0.5759  0.5534
    3CHL1  H19C  191   1.130   0.658   5.789 -0.7386  2.6988 -0.6687
    3CHL1    C1  192   1.275   0.429   5.849 -0.1214 -0.1063  0.8486
    3CHL1   H1A  193   1.191   0.415   5.778  0.4525 -0.9135  0.3070
    3CHL1   H1B  194   1.359   0.367   5.811 -0.6770 -1.1396  1.2642
    3CHL1    C2  195   1.231   0.390   5.992 -0.0212  0.0512  0.2379
    3CHL1   H2A  196   1.198   0.284   5.979  1.3957 -0.5810  1.4491
    3CHL1   H2B  197   1.147   0.457   6.019  0.2912 -0.0811  1.6207
    3CHL1   C20  198   1.430   0.758   5.159  0.0983  0.8242  0.3479
    3CHL1   H20  199   1.369   0.850   5.173 -0.2966  0.3605  1.8947
    3CHL1   C21  200   1.330   0.644   5.116  0.3264  0.0451 -0.3308
    3CHL1  H21A  201   1.379   0.545   5.118  0.2328 -0.1603  4.4102
    3CHL1  H21B  202   1.293   0.664   5.014  0.8773  0.3784 -0.4723
    3CHL1  H21C  203   1.241   0.645   5.183 -0.0350  1.0262 -0.8104
    3CHL1   C22  204   1.524   0.771   5.039 -0.3927 -0.0817  0.0144
    3CHL1  H22A  205   1.618   0.825   5.065 -0.2165 -0.5439  0.3516
    3CHL1  H22B  206   1.554   0.666   5.015  1.9482 -0.0315  2.2688
    3CHL1   C23  207   1.462   0.850   4.918  0.1306  0.7290  0.2005
    3CHL1  H23A  208   1.363   0.818   4.879  0.6283 -0.5461 -0.0655
    3CHL1  H23B  209   1.449   0.955   4.954  1.1805  1.3067 -1.0335
    3CHL1   C24  210   1.545   0.835   4.796 -0.3791 -0.9901  1.2249
    3CHL1  H24A  211   1.636   0.896   4.814 -0.8547 -0.4418  1.8188
    3CHL1  H24B  212   1.572   0.729   4.775 -0.5942 -0.7684 -0.3398
    3CHL1   C25  213   1.472   0.887   4.671  0.3138 -0.6614 -0.1869
    3CHL1   H25  214   1.383   0.821   4.662  1.9948 -3.2699  1.1813
    3CHL1   C26  215   1.441   1.034   4.673  0.0768 -0.6248  0.4496
    3CHL1  H26A  216   1.346   1.046   4.731 -0.6676  0.4257 -0.9135
    3CHL1  H26B  217   1.517   1.104   4.713  0.0034  0.6047 -1.4250
    3CHL1  H26C  218   1.416   1.052   4.566  0.8475  0.1935  0.3971
    3CHL1   C27  219   1.554   0.844   4.543  0.0872  0.5059 -0.4854
    3CHL1  H27A  220   1.649   0.901   4.544 -0.7802  2.2414 -3.7400
    3CHL1  H27B  221   1.565   0.734   4.533 -1.7464 -0.1427  2.8409
    3CHL1  H27C  222   1.504   0.888   4.454 -0.6417  1.3219  0.3080
    4CHL1    C3  223   2.515   6.418   5.739  0.1460 -0.6260 -0.6528
    4CHL1    H3  224   2.412   6.421   5.698  0.6100  2.5757 -1.8414
    4CHL1    O3  225   2.530   6.317   5.839 -0.1153 -0.7859 -0.1335
    4CHL1   H3'  226   2.532   6.358   5.925  1.0432 -0.9739 -0.0489
    4CHL1    C4  227   2.612   6.389   5.624  0.0065  0.7515  0.2472
    4CHL1   H4A  228   2.711   6.373   5.671 -0.7259 -1.4577  1.2137
    4CHL1   H4B  229   2.574   6.292   5.584 -0.8107  1.8289 -1.7384
    4CHL1    C5  230   2.604   6.495   5.517 -0.3216  0.3898  0.7884
    4CHL1    C6  231   2.580   6.455   5.392  0.5820 -0.1086  0.3107
    4CHL1    H6  232   2.558   6.350   5.366 -1.5096  0.6521 -1.3139
    4CHL1    C7  233   2.584   6.550   5.275  0.3304  0.2961 -0.1245
    4CHL1   H7A  234   2.630   6.497   5.189  1.1470 -2.1215  1.6996
    4CHL1   H7B  235   2.481   6.577   5.243  0.3641  2.0230  1.0482
    4CHL1    C8  236   2.642   6.686   5.307  0.1036  0.2584  0.2938
    4CHL1    H8  237   2.752   6.669   5.309  0.0066 -0.4915 -0.3931
    4CHL1   C14  238   2.608   6.789   5.199  0.2267  1.0489  0.0595
    4CHL1   H14  239   2.499   6.803   5.213 -0.2255  1.5283 -3.2110
    4CHL1   C15  240   2.632   6.746   5.049  0.5197  0.3443 -0.3196
    4CHL1  H15A  241   2.722   6.682   5.042  1.2201  1.3258 -0.4430
    4CHL1  H15B  242   2.536   6.695   5.026  0.8548 -1.3352  1.6812
    4CHL1   C16  243   2.651   6.876   4.975  0.6749  0.2389  0.4862
    4CHL1  H16A  244   2.757   6.874   4.939 -0.1764  0.0760 -2.2897
    4CHL1  H16B  245   2.585   6.876   4.885 -0.4274  0.4930  1.2725
    4CHL1   C17  246   2.624   6.989   5.076 -0.0470  0.1225  0.0743
    4CHL1   H17  247   2.515   7.004   5.086  0.1841  1.0308  1.4688
    4CHL1   C13  248   2.663   6.927   5.216 -0.8005 -0.3374  0.2881
    4CHL1   C18  249   2.817   6.924   5.226 -0.4255  0.4416  0.3787
    4CHL1  H18A  250   2.866   6.897   5.130 -1.8395 -1.2285  0.0614
    4CHL1  H18B  251   2.837   7.032   5.236 -1.0881  0.3913  2.9724
    4CHL1  H18C  252   2.865   6.861   5.304 -1.3958 -1.3424 -0.3931
    4CHL1   C12  253   2.596   6.976   5.348 -0.0466  0.0752  0.0832
    4CHL1  H12A  254   2.635   7.078   5.370  0.2464 -0.0703  0.2501
    4CHL1  H12B  255   2.486   6.989   5.337 -0.5593  0.3624  4.1293
    4CHL1   C11  256   2.627   6.889   5.468 -0.4991  0.0328  0.8885
    4CHL1  H11A  257   2.735   6.906   5.488 -0.2932  0.5268 -0.5860
    4CHL1  H11B  258   2.584   6.932   5.561  1.6277  1.3241  1.3535
    4CHL1    C9  259   2.585   6.738   5.444  0.0565  0.1100  0.5583
    4CHL1    H9  260   2.475   6.746   5.429  0.2819  1.7147 -0.6176
    4CHL1   C10  261   2.623   6.641   5.562 -0.0312 -0.0058  0.0046
    4CHL1   C19  262   2.770   6.669   5.612 -0.3733 -0.1973  0.6108
    4CHL1  H19A  263   2.838   6.671   5.525  0.0909  1.7253  0.9699
    4CHL1  H19B  264   2.777   6.764   5.669  0.2111 -0.9513  1.8568
    4CHL1  H19C  265   2.800   6.588   5.682  0.5332 -0.1698  0.2573
    4CHL1    C1  266   2.528   6.667   5.676 -0.3060  0.1446  0.5661
    4CHL1   H1A  267   2.543   6.772   5.709 -1.8121  1.4587 -2.5379
    4CHL1   H1B  268   2.424   6.661   5.639 -0.1793  1.2880 -0.0114
    4CHL1    C2  269   2.537   6.564   5.794 -0.1451  0.4627  0.9269
    4CHL1   H2A  270   2.452   6.583   5.864 -0.8611 -0.1467  0.2434
    4CHL1   H2B  271   2.634   6.554   5.846  0.3293 -1.3024 -0.1884
    4CHL1   C20  272   2.670   7.125   5.025 -0.1072  0.7464 -0.0753
    4CHL1   H20  273   2.777   7.132   5.053 -0.2245 -0.4901  0.7983
    4CHL1   C21  274   2.581   7.226   5.109  0.2513 -0.0322  0.1170
    4CHL1  H21A  275   2.611   7.217   5.215 -1.1824  2.1472  0.7773
    4CHL1  H21B  276   2.472   7.209   5.096 -0.3668  2.8689  0.7777
    4CHL1  H21C  277   2.606   7.331   5.082  1.3804  0.0938  1.5793
    4CHL1   C22  278   2.649   7.144   4.874 -0.1836  0.0701  0.7418
    4CHL1  H22A  279   2.712   7.073   4.815  0.6003  1.1658  0.2239
    4CHL1  H22B  280   2.542   7.123   4.849 -0.0096 -0.1017  0.1050
    4CHL1   C23  281   2.681   7.279   4.816  0.5980 -0.3170 -0.0766
    4CHL1  H23A  282   2.620   7.363   4.855 -0.1514 -1.2147  0.7218
    4CHL1  H23B  283   2.790   7.290   4.833  0.8603 -2.8718  0.3674
    4CHL1   C24  284   2.651   7.274   4.667  0.0430 -0.0471  0.2007
    4CHL1  H24A  285   2.709   7.202   4.606 -0.2427  2.3145 -3.1783
    4CHL1  H24B  286   2.549   7.232   4.655  0.7551 -1.9354  0.4509
    4CHL1   C25  287   2.674   7.406   4.587 -0.3740  0.7941 -0.3686
    4CHL1   H25  288   2.744   7.464   4.651  0.5536 -2.0304  1.3453
    4CHL1   C26  289   2.730   7.377   4.448 -0.1271 -0.6122  0.7199
    4CHL1  H26A  290   2.705   7.459   4.378 -0.7374 -2.4509 -1.3448
    4CHL1  H26B  291   2.838   7.352   4.439 -0.0494  0.5104 -3.3232
    4CHL1  H26C  292   2.665   7.294   4.411 -0.3326 -1.1384  2.1801
    4CHL1   C27  293   2.548   7.495   4.584  0.3408 -0.1239  0.5734
    4CHL1  H27A  294   2.573   7.602   4.572 -1.2337  0.4057  1.7399
    4CHL1  H27B  295   2.471   7.456   4.513  0.3940 -0.6107  0.7826
    4CHL1  H27C  296   2.496   7.489   4.682 -0.2354  0.2517  0.2964
    5CHL1    C3  297   2.192   4.555   6.157 -0.2609  0.3445  0.7399
    5CHL1    H3  298   2.139   4.459   6.138 -0.1285  0.8242 -2.8059
    5CHL1    O3  299   2.226   4.548   6.297  0.3557  0.3413 -0.1413
    5CHL1   H3'  300   2.283   4.622   6.321  0.8313  0.1076 -0.5333
    5CHL1    C4  301   2.319   4.565   6.076  0.1076  0.6030  0.2973
    5CHL1   H4A  302   2.383   4.650   6.109  0.6472  0.6911 -0.9439
    5CHL1   H4B  303   2.377   4.474   6.101 -0.6139  0.3019  0.9223
    5CHL1    C5  304   2.292   4.572   5.930  0.7074 -0.1300 -0.2323
    5CHL1    C6  305   2.362   4.490   5.853 -1.0702  0.5441  0.5433
    5CHL1    H6  306   2.448   4.428   5.882  0.1379  1.4502 -0.9447
    5CHL1    C7  307   2.328   4.474   5.703  0.1902 -0.1480  0.2152
    5CHL1   H7A  308   2.423   4.476   5.645  1.8132  1.3842  2.6940
    5CHL1   H7B  309   2.279   4.375   5.698 -2.4850  1.0781  0.7121
    5CHL1    C8  310   2.240   4.588   5.644  0.2329  0.2273  0.3761
    5CHL1    H8  311   2.307   4.674   5.622 -0.1441  0.5166  0.3599
    5CHL1   C14  312   2.192   4.544   5.497 -0.1413 -0.2738 -0.4381
    5CHL1   H14  313   2.136   4.450   5.513  0.9091 -1.1419 -1.7425
    5CHL1   C15  314   2.304   4.516   5.393 -0.2869 -0.0341 -0.2425
    5CHL1  H15A  315   2.400   4.571   5.402  2.3403 -3.9336 -1.8292
    5CHL1  H15B  316   2.329   4.408   5.388  1.3313  0.3316 -0.4058
    5CHL1   C16  317   2.235   4.543   5.250 -0.1496  0.0841  0.1696
    5CHL1  H16A  318   2.266   4.641   5.209  2.2001 -0.6238  0.1603
    5CHL1  H16B  319   2.247   4.459   5.178 -1.1154  0.2008 -0.1470
    5CHL1   C17  320   2.083   4.574   5.290  0.4809 -0.2291  0.0641
    5CHL1   H17  321   2.037   4.474   5.303  0.4946 -0.1329  0.9304
    5CHL1   C13  322   2.098   4.640   5.429 -0.1781  0.0615 -0.3370
    5CHL1   C18  323   2.167   4.784   5.416  0.0303  0.0458  0.8985
    5CHL1  H18A  324   2.171   4.833   5.515  1.9917 -0.1527  0.9595
    5CHL1  H18B  325   2.271   4.778   5.377 -0.1818  0.9405  0.1427
    5CHL1  H18C  326   2.104   4.857   5.361 -0.2968 -0.0737  1.1161
    5CHL1   C12  327   1.975   4.648   5.523  0.3764 -0.5758 -0.6571
    5CHL1  H12A  328   1.898   4.718   5.483  1.0671  1.6720  1.6810
    5CHL1  H12B  329   1.926   4.548   5.530  0.0264 -0.4149 -0.7674
    5CHL1   C11  330   2.009   4.698   5.669  0.3260 -0.2251 -0.3326
    5CHL1  H11A  331   2.029   4.808   5.675 -0.3737 -0.1664  1.5630
    5CHL1  H11B  332   1.912   4.683   5.720 -0.3350  1.5789 -0.9626
    5CHL1    C9  333   2.125   4.625   5.739 -0.6786  0.1631  0.1008
    5CHL1    H9  334   2.081   4.525   5.759 -1.7288  0.3308 -1.1638
    5CHL1   C10  335   2.176   4.662   5.877  0.0393 -0.4959  0.4650
    5CHL1   C19  336   2.242   4.803   5.861  1.0526 -0.0395 -0.3720
    5CHL1  H19A  337   2.332   4.805   5.795  0.8738  0.3664 -0.6076
    5CHL1  H19B  338   2.164   4.876   5.830  0.1226 -1.1102 -0.6147
    5CHL1  H19C  339   2.289   4.839   5.956 -0.8258 -0.4278  0.7459
    5CHL1    C1  340   2.055   4.667   5.985 -0.1639  0.1672  0.8798
    5CHL1   H1A  341   1.996   4.758   5.963  0.9033  1.4119  2.8326
    5CHL1   H1B  342   1.991   4.583   5.952  0.1248  0.3533 -0.2274
    5CHL1    C2  343   2.099   4.673   6.129  0.0748  0.0253  0.2914
    5CHL1   H2A  344   2.007   4.670   6.192 -0.0946 -0.4685  0.0272
    5CHL1   H2B  345   2.156   4.761   6.166  1.4996 -0.5080 -0.5640
    5CHL1   C20  346   2.006   4.643   5.184 -0.1009 -0.0644  0.6874
    5CHL1   H20  347   2.043   4.747   5.169 -2.3393  0.4526 -2.3314
    5CHL1   C21  348   1.860   4.656   5.226  0.8403  0.5960 -1.0303
    5CHL1  H21A  349   1.847   4.754   5.277  2.1956  0.7828 -1.0017
    5CHL1  H21B  350   1.830   4.578   5.298 -1.5480  2.7415  0.4810
    5CHL1  H21C  351   1.789   4.658   5.141 -0.3823 -0.2434 -0.0593
    5CHL1   C22  352   2.009   4.572   5.039  0.3455 -0.1568 -0.1722
    5CHL1  H22A  353   1.971   4.468   5.035 -0.0592 -0.1661  2.0733
    5CHL1  H22B  354   1.930   4.637   4.995  0.5200  0.8568  0.9544
    5CHL1   C23  355   2.132   4.592   4.952  0.9593 -0.5036  0.9087
    5CHL1  H23A  356   2.183   4.678   4.999 -1.0575  0.6145  1.1469
    5CHL1  H23B  357   2.188   4.496   4.958  0.0405 -1.0038  1.5434
    5CHL1   C24  358   2.112   4.627   4.802  0.3187  0.1858 -0.9557
    5CHL1  H24A  359   2.035   4.553   4.771 -0.1818 -0.7599  2.1791
    5CHL1  H24B  360   2.055   4.720   4.783  0.4691  1.3729  3.3902
    5CHL1   C25  361   2.231   4.622   4.714 -0.3033  0.2584 -0.1676
    5CHL1   H25  362   2.253   4.516   4.686  1.0318  0.4255  0.1625
    5CHL1   C26  363   2.196   4.684   4.587 -0.2629  0.3535 -0.9647
    5CHL1  H26A  364   2.113   4.627   4.541 -0.0704 -1.2473  0.5363
    5CHL1  H26B  365   2.165   4.789   4.602 -1.4563 -0.3488  2.3175
    5CHL1  H26C  366   2.277   4.675   4.511  2.0877 -0.4021  1.4287
    5CHL1   C27  367   2.355   4.675   4.772  0.4520 -0.5545  0.2999
    5CHL1  H27A  368   2.421   4.703   4.687 -1.9528 -2.1152 -2.2712
    5CHL1  H27B  369   2.350   4.767   4.834  1.9663 -0.8210  0.8544
    5CHL1  H27C  370   2.410   4.598   4.830  0.7421 -0.3308  0.3242
    6CHL1    C3  371   1.237   6.769   5.766 -0.5808  0.0699 -0.6215
    6CHL1    H3  372   1.140   6.717   5.752 -1.8112  2.0442  0.2338
    6CHL1    O3  373   1.293   6.731   5.895  0.1861 -0.2280  0.5350
    6CHL1   H3'  374   1.371   6.787   5.901  1.0954 -1.4419  0.4853
    6CHL1    C4  375   1.333   6.737   5.650 -0.5353  0.3360 -0.4490
    6CHL1   H4A  376   1.430   6.786   5.669 -0.8146  1.0553 -0.8525
    6CHL1   H4B  377   1.347   6.627   5.658  0.9236  0.5913  1.0022
    6CHL1    C5  378   1.267   6.784   5.522 -0.0669 -0.0951 -0.5545
    6CHL1    C6  379   1.240   6.699   5.420 -0.1958  0.2333 -0.4094
    6CHL1    H6  380   1.265   6.593   5.435  2.9663  0.9140 -0.0837
    6CHL1    C7  381   1.177   6.744   5.294 -0.7061 -0.0271  0.6332
    6CHL1   H7A  382   1.236   6.698   5.211 -0.4693  2.4601 -0.6892
    6CHL1   H7B  383   1.073   6.710   5.276 -0.5440 -1.0290  1.5124
    6CHL1    C8  384   1.188   6.894   5.267  0.0489  0.8149 -0.2967
    6CHL1    H8  385   1.294   6.924   5.253  0.6375 -0.8731  0.3069
    6CHL1   C14  386   1.095   6.934   5.151 -0.4359  0.1610  0.3599
    6CHL1   H14  387   0.994   6.907   5.187 -0.0796 -2.3411 -0.3009
    6CHL1   C15  388   1.097   6.851   5.027  0.3843  0.2195 -0.2631
    6CHL1  H15A  389   1.195   6.805   5.001  0.7793  2.3246 -2.9085
    6CHL1  H15B  390   1.033   6.760   5.034  0.0479  0.5708  2.0339
    6CHL1   C16  391   1.045   6.945   4.911  0.6799  0.7246 -0.4155
    6CHL1  H16A  392   1.123   6.953   4.832  0.2974 -0.8347 -0.9794
    6CHL1  H16B  393   0.953   6.917   4.856  1.5599  1.0227 -2.1269
    6CHL1   C17  394   1.014   7.083   4.980 -0.2749  0.0443 -0.2365
    6CHL1   H17  395   0.909   7.078   5.017  0.6305 -0.5501  2.4508
    6CHL1   C13  396   1.099   7.084   5.111 -0.1194  1.1515  0.4351
    6CHL1   C18  397   1.238   7.132   5.070 -0.3823 -0.3895 -0.3287
    6CHL1  H18A  398   1.276   7.073   4.984  0.1013 -0.3430 -0.1536
    6CHL1  H18B  399   1.240   7.241   5.050  0.5674 -0.5165 -1.0014
    6CHL1  H18C  400   1.311   7.106   5.150 -0.5211 -0.0434 -0.0872
    6CHL1   C12  401   1.047   7.154   5.237 -0.2366  0.8533  0.7146
    6CHL1  H12A  402   1.058   7.264   5.222  2.1463  0.6051  0.2004
    6CHL1  H12B  403   0.939   7.129   5.242 -0.0824  0.3636  2.0510
    6CHL1   C11  404   1.127   7.124   5.364  0.8333 -0.2375  0.1224
    6CHL1  H11A  405   1.219   7.186   5.372  0.4549  0.0929  3.7186
    6CHL1  H11B  406   1.058   7.165   5.441 -1.8404 -1.5194 -1.4428
    6CHL1    C9  407   1.134   6.971   5.396  0.4577  0.1943  0.0133
    6CHL1    H9  408   1.034   6.931   5.427  0.2862  1.4606  1.1600
    6CHL1   C10  409   1.217   6.932   5.517 -0.9281 -0.1556 -0.5163
    6CHL1   C19  410   1.343   7.021   5.520 -1.0983  0.0465 -0.1605
    6CHL1  H19A  411   1.406   7.008   5.429  0.2653 -3.1679  1.1098
    6CHL1  H19B  412   1.324   7.130   5.524  0.6392  0.3407  2.4405
    6CHL1  H19C  413   1.419   6.998   5.597  0.9851 -0.0101 -2.1389
    6CHL1    C1  414   1.140   6.964   5.647 -0.0461  0.2002  0.9019
    6CHL1   H1A  415   1.121   7.072   5.664  1.2783  0.2838  2.0712
    6CHL1   H1B  416   1.041   6.913   5.648 -0.9513  1.7861 -0.6574
    6CHL1    C2  417   1.200   6.918   5.782 -0.1652  0.0240  0.9059
    6CHL1   H2A  418   1.140   6.949   5.870 -0.3620  2.1337  0.0954
    6CHL1   H2B  419   1.298   6.970   5.788 -0.6356  0.9516  0.7030
    6CHL1   C20  420   1.028   7.200   4.887 -1.0048  0.4570  0.4616
    6CHL1   H20  421   1.135   7.214   4.858 -1.0317 -2.5893 -1.6543
    6CHL1   C21  422   0.996   7.327   4.961 -0.0918 -1.1242 -0.2113
    6CHL1  H21A  423   0.906   7.324   5.025  0.7280  2.5018  1.3719
    6CHL1  H21B  424   0.992   7.409   4.886 -0.2677  1.0625  2.0714
    6CHL1  H21C  425   1.075   7.351   5.035 -0.4314 -0.4930 -0.0520
    6CHL1   C22  426   0.945   7.175   4.754 -0.0899  0.0822 -0.1541
    6CHL1  H22A  427   0.988   7.089   4.699  1.2096  1.2858 -1.0694
    6CHL1  H22B  428   0.839   7.156   4.782 -0.5940  2.3050 -0.4118
    6CHL1   C23  429   0.958   7.287   4.652  0.3981 -0.1109  0.1913
    6CHL1  H23A  430   0.873   7.355   4.674  1.1440  0.5419  1.1638
    6CHL1  H23B  431   1.052   7.343   4.672 -0.1250  1.7157 -2.1301
    6CHL1   C24  432   0.947   7.229   4.511 -0.0439 -0.3533  0.2945
    6CHL1  H24A  433   0.957   7.315   4.441  0.2668  0.5772  1.4442
    6CHL1  H24B  434   1.024   7.152   4.488  0.5702 -0.3051  1.9947
    6CHL1   C25  435   0.813   7.162   4.481  0.2397 -0.1889 -0.5861
    6CHL1   H25  436   0.795   7.090   4.564 -0.0702  0.5345 -0.0122
    6CHL1   C26  437   0.695   7.266   4.481 -0.3378  0.3781  0.1512
    6CHL1  H26A  438   0.706   7.331   4.570  3.2559  0.4670 -0.2077
    6CHL1  H26B  439   0.683   7.329   4.391 -1.8031  1.0345  0.7830
    6CHL1  H26C  440   0.600   7.210   4.491 -0.3085  0.6084  2.1821
    6CHL1   C27  441   0.811   7.090   4.342 -0.0022  0.6939 -0.2520
    6CHL1  H27A  442   0.827   7.157   4.255  3.2645  0.3858  0.0076
    6CHL1  H27B  443   0.894   7.016   4.346  0.5240  1.3130  0.4048
    6CHL1  H27C  444   0.717   7.033   4.326 -0.6372  1.6469 -0.0079
    7CHL1    C3  445   2.857   5.602   6.016  0.0162  0.2091  0.2374
    7CHL1    H3  446   2.922   5.511   6.024  1.8689  1.3051 -1.4170
    7CHL1    O3  447   2.860   5.664   6.140 -0.3656 -0.4790 -0.2568
    7CHL1   H3'  448   2.794   5.732   6.128  0.7941  0.6486 -0.4459
    7CHL1    C4  449   2.922   5.703   5.910  0.0769 -0.2796  0.0953
    7CHL1   H4A  450   2.868   5.799   5.923  1.1712  0.5955 -1.4599
    7CHL1   H4B  451   3.024   5.719   5.952  0.5712 -3.2297  0.2646
    7CHL1    C5  452   2.906   5.654   5.766  0.1201 -0.2947 -0.1112
    7CHL1    C6  453   3.015   5.649   5.690  0.7609 -0.1233  0.3153
    7CHL1    H6  454   3.111   5.683   5.732  0.7695 -1.2229  1.2236
    7CHL1    C7  455   3.011   5.609   5.542 -0.5062 -0.6217 -0.6264
    7CHL1   H7A  456   3.064   5.689   5.487 -1.3397  0.1261 -0.3815
    7CHL1   H7B  457   3.074   5.521   5.520  1.2620  0.0589  1.3641
    7CHL1    C8  458   2.868   5.600   5.489  0.1468  0.2001 -0.5960
    7CHL1    H8  459   2.824   5.702   5.483 -0.4487  0.2352  2.6745
    7CHL1   C14  460   2.864   5.524   5.355  0.6163 -0.8573  0.3270
    7CHL1   H14  461   2.901   5.421   5.373  0.1446 -1.0620  0.1596
    7CHL1   C15  462   2.948   5.575   5.233 -0.2660  0.1301 -0.1155
    7CHL1  H15A  463   2.936   5.684   5.221  1.7945  0.3797 -0.3302
    7CHL1  H15B  464   3.057   5.556   5.248 -0.2956  0.9847  1.3087
    7CHL1   C16  465   2.894   5.497   5.111 -0.5136  0.2955 -0.1619
    7CHL1  H16A  466   2.890   5.574   5.031  0.7904  0.9248  0.3527
    7CHL1  H16B  467   2.976   5.428   5.079  1.2121  2.3394 -0.3848
    7CHL1   C17  468   2.769   5.428   5.162  0.2500 -0.8327  0.4000
    7CHL1   H17  469   2.807   5.328   5.194  1.2062 -0.8619 -0.7387
    7CHL1   C13  470   2.728   5.496   5.294 -0.4708 -0.9056  0.5283
    7CHL1   C18  471   2.660   5.626   5.263  0.3153 -0.1355  0.3515
    7CHL1  H18A  472   2.691   5.666   5.164 -0.4315  1.7274  0.8113
    7CHL1  H18B  473   2.552   5.603   5.251 -0.0099  0.5349  1.7457
    7CHL1  H18C  474   2.659   5.700   5.346  1.4767 -0.5409  0.7414
    7CHL1   C12  475   2.639   5.427   5.401 -0.9308  0.1570 -0.3702
    7CHL1  H12A  476   2.536   5.412   5.360 -1.1798 -1.4779  0.7687
    7CHL1  H12B  477   2.677   5.323   5.414  0.1757  0.5472 -0.4039
    7CHL1   C11  478   2.633   5.509   5.533  0.3513 -0.2851  1.2854
    7CHL1  H11A  479   2.584   5.606   5.512 -0.4054 -0.9240 -0.0633
    7CHL1  H11B  480   2.568   5.448   5.599 -0.5107 -2.0113 -1.0141
    7CHL1    C9  481   2.772   5.533   5.591 -0.5992 -0.0156 -0.3446
    7CHL1    H9  482   2.821   5.434   5.598 -0.6363 -0.3299 -3.2682
    7CHL1   C10  483   2.770   5.611   5.722 -0.4360 -0.1536  0.2575
    7CHL1   C19  484   2.679   5.735   5.717 -0.3264 -0.4941  0.0360
    7CHL1  H19A  485   2.571   5.713   5.706 -0.9571  1.3625  1.8114
    7CHL1  H19B  486   2.673   5.790   5.814 -1.6393 -0.4967 -0.0244
    7CHL1  H19C  487   2.713   5.801   5.634  1.8452 -3.1097 -1.3354
    7CHL1    C1  488   2.721   5.507   5.824  0.1607 -0.3530 -0.0009
    7CHL1   H1A  489   2.619   5.471   5.800 -0.2744  0.1738  0.9926
    7CHL1   H1B  490   2.792   5.421   5.817  0.8120  0.2264 -0.7456
    7CHL1    C2  491   2.714   5.546   5.973  0.3257  0.5540  0.2923
    7CHL1   H2A  492   2.692   5.454   6.032 -0.4053  0.0936 -0.6783
    7CHL1   H2B  493   2.635   5.623   5.977 -1.9522 -1.5219 -1.7567
    7CHL1   C20  494   2.675   5.405   5.043 -0.3365 -0.6000 -0.7554
    7CHL1   H20  495   2.653   5.497   4.984  0.4735  1.0375  1.3612
    7CHL1   C21  496   2.540   5.344   5.101 -0.2770  0.0870  0.3625
    7CHL1  H21A  497   2.503   5.422   5.171  1.8138 -0.4377  2.1701
    7CHL1  H21B  498   2.554   5.251   5.159 -1.8217  1.6570  3.5081
    7CHL1  H21C  499   2.474   5.331   5.013 -1.4104 -0.1905  1.2270
    7CHL1   C22  500   2.741   5.299   4.945 -0.4795  0.0767 -0.6788
    7CHL1  H22A  501   2.834   5.347   4.907  0.2360 -0.0705  0.8134
    7CHL1  H22B  502   2.766   5.215   5.014  1.5544  1.8867  0.9217
    7CHL1   C23  503   2.650   5.257   4.827 -0.4041 -0.2397  0.3327
    7CHL1  H23A  504   2.568   5.193   4.867 -0.4300 -0.1728  0.3880
    7CHL1  H23B  505   2.601   5.354   4.808  0.0502  0.5491  2.7670
    7CHL1   C24  506   2.725   5.183   4.715  0.0174  0.2349 -0.0915
    7CHL1  H24A  507   2.660   5.189   4.625  0.9155  1.0104 -0.7065
    7CHL1  H24B  508   2.814   5.245   4.691  1.7599 -1.4606  1.6171
    7CHL1   C25  509   2.789   5.037   4.729  0.5050 -0.7425 -0.2558
    7CHL1   H25  510   2.879   5.048   4.792 -1.0686  0.3130  1.9570
    7CHL1   C26  511   2.701   4.935   4.801 -0.0027  0.4681  0.3843
    7CHL1  H26A  512   2.609   4.929   4.738  0.1538 -0.1478  0.2057
    7CHL1  H26B  513   2.756   4.839   4.797  0.8764  0.9592  0.4318
    7CHL1  H26C  514   2.672   4.959   4.905  0.0685  2.3928 -0.0032
    7CHL1   C27  515   2.817   4.974   4.588  0.2146 -0.2246 -0.0535
    7CHL1  H27A  516   2.889   5.046   4.543  0.6228 -1.0884 -0.7965
    7CHL1  H27B  517   2.860   4.874   4.611 -0.8457 -0.9169 -1.0332
    7CHL1  H27C  518   2.728   4.956   4.525  0.7983  1.0955 -1.3099
    8CHL1    C3  519   0.708   5.815   6.261 -0.0316  0.2629 -0.7558
    8CHL1    H3  520   0.727   5.706   6.246  1.4750  0.2791  0.7396
    8CHL1    O3  521   0.663   5.835   6.393  0.6104 -0.0391 -0.0927
    8CHL1   H3'  522   0.650   5.930   6.394 -0.0044 -0.1194  1.0079
    8CHL1    C4  523   0.834   5.899   6.237 -0.5528  0.1047 -0.3519
    8CHL1   H4A  524   0.820   6.006   6.265 -0.7330 -0.2919  1.1318
    8CHL1   H4B  525   0.909   5.855   6.305 -0.7309 -1.5769 -1.1999
    8CHL1    C5  526   0.882   5.884   6.095  0.3860 -0.9027 -0.2019
    8CHL1    C6  527   0.999   5.831   6.060  0.0559  0.0185  0.5534
    8CHL1    H6  528   1.063   5.796   6.142  1.5547  0.9726 -0.1737
    8CHL1    C7  529   1.046   5.816   5.920 -0.2377 -0.1078  0.4174
    8CHL1   H7A  530   1.156   5.832   5.926 -0.2006 -0.0389 -0.3954
    8CHL1   H7B  531   1.031   5.710   5.890 -1.3130 -0.0794  0.8355
    8CHL1    C8  532   0.979   5.913   5.816 -0.3708  0.3723 -0.0318
    8CHL1    H8  533   1.022   6.012   5.842  0.4865  0.0462 -0.1876
    8CHL1   C14  534   1.009   5.872   5.675 -1.1741  0.8060  0.6427
    8CHL1   H14  535   0.967   5.770   5.667  1.6104 -0.4271  0.6470
    8CHL1   C15  536   1.150   5.836   5.632  0.4601 -0.2156 -0.4877
    8CHL1  H15A  537   1.225   5.913   5.661  1.0964 -1.3750  1.1395
    8CHL1  H15B  538   1.179   5.736   5.672 -1.3655 -0.9382 -0.9042
    8CHL1   C16  539   1.140   5.825   5.477 -0.4319  0.1258  0.3604
    8CHL1  H16A  540   1.228   5.874   5.430  0.5701 -1.6558  0.2652
    8CHL1  H16B  541   1.135   5.719   5.443  0.2352 -0.1791  1.1850
    8CHL1   C17  542   1.000   5.897   5.433  0.3360  0.2736 -0.0076
    8CHL1   H17  543   0.935   5.811   5.409  1.8433 -1.1846  0.9133
    8CHL1   C13  544   0.954   5.953   5.564  0.5073  0.1839 -0.2550
    8CHL1   C18  545   1.016   6.099   5.583  0.2512 -0.0670  0.0955
    8CHL1  H18A  546   0.996   6.143   5.683  0.9186 -2.7130  1.4981
    8CHL1  H18B  547   1.126   6.108   5.572 -0.0220  2.1351 -1.5334
    8CHL1  H18C  548   0.967   6.168   5.512  0.7773  3.4526  2.8718
    8CHL1   C12  549   0.804   5.946   5.582 -0.4201  0.1075  0.3968
    8CHL1  H12A  550   0.752   6.009   5.506 -0.6882 -2.1294 -1.3753
    8CHL1  H12B  551   0.772   5.843   5.558  2.8696 -0.8398 -0.5423
    8CHL1   C11  552   0.760   5.993   5.722  0.5540  0.3344  0.5026
    8CHL1  H11A  553   0.773   6.104   5.723  0.8842  0.2965  1.0153
    8CHL1  H11B  554   0.651   5.977   5.732  0.4043  1.7525  1.5465
    8CHL1    C9  555   0.824   5.912   5.836 -0.1390  0.4260  0.1463
    8CHL1    H9  556   0.798   5.806   5.818  0.9725  0.1977 -0.1635
    8CHL1   C10  557   0.782   5.938   5.984  0.8443 -0.2139 -0.4008
    8CHL1   C19  558   0.758   6.088   5.995 -0.0562  0.4550 -0.6969
    8CHL1  H19A  559   0.675   6.122   5.930  0.4967  0.0809 -1.6183
    8CHL1  H19B  560   0.734   6.119   6.099 -0.2432 -0.5277 -0.4383
    8CHL1  H19C  561   0.854   6.135   5.963  0.5482  0.8240  1.4806
    8CHL1    C1  562   0.649   5.861   6.016  0.2724  0.1508  0.6143
    8CHL1   H1A  563   0.564   5.893   5.952  1.1865 -0.8257 -1.1641
    8CHL1   H1B  564   0.672   5.759   5.978  2.4622  1.3941 -1.6857
    8CHL1    C2  565   0.607   5.861   6.163 -0.2406 -0.2892  0.4595
    8CHL1   H2A  566   0.505   5.818   6.168 -0.1263 -0.4360  1.8638
    8CHL1   H2B  567   0.593   5.970   6.180 -1.1040 -0.3129 -0.0701
    8CHL1   C20  568   1.006   5.978   5.309  0.1004 -0.3285 -0.7140
    8CHL1   H20  569   1.075   6.062   5.331 -0.8407 -0.5382  3.9162
    8CHL1   C21  570   0.865   6.039   5.272  0.4562  0.0718 -0.5782
    8CHL1  H21A  571   0.859   6.057   5.163  0.0186  0.4422 -0.4928
    8CHL1  H21B  572   0.852   6.141   5.313 -0.4275 -0.6091  0.8892
    8CHL1  H21C  573   0.775   5.980   5.299 -1.4461  2.2730 -1.8097
    8CHL1   C22  574   1.051   5.897   5.183 -0.2476  0.6138  0.3762
    8CHL1  H22A  575   1.033   5.960   5.094 -0.8056 -1.7398 -1.2631
    8CHL1  H22B  576   1.160   5.877   5.191 -0.2297 -0.5627 -1.9128
    8CHL1   C23  577   0.976   5.758   5.155 -0.1250  0.3541 -0.0536
    8CHL1  H23A  578   1.002   5.692   5.241  2.3193  0.9164 -0.2910
    8CHL1  H23B  579   0.867   5.777   5.155 -0.0291  1.1518  2.1621
    8CHL1   C24  580   1.029   5.687   5.032  1.2746  0.3661 -0.0996
    8CHL1  H24A  581   1.020   5.755   4.945  0.9961  0.2381 -0.1733
    8CHL1  H24B  582   1.138   5.680   5.051  1.5348  3.0491 -0.2197
    8CHL1   C25  583   0.990   5.537   5.004  0.2464  0.1522 -0.0991
    8CHL1   H25  584   1.030   5.463   5.076  3.1273  1.1257 -0.5965
    8CHL1   C26  585   0.831   5.536   4.992 -0.5719 -0.0597  0.1394
    8CHL1  H26A  586   0.812   5.446   4.930  1.8505 -1.0214  0.6619
    8CHL1  H26B  587   0.780   5.524   5.090  1.8063  2.0043  1.7738
    8CHL1  H26C  588   0.803   5.631   4.942  0.4151 -0.0924 -0.5063
    8CHL1   C27  589   1.058   5.497   4.868 -0.4056  0.9723 -0.2117
    8CHL1  H27A  590   1.164   5.529   4.859  0.3871 -1.4695 -0.3629
    8CHL1  H27B  591   1.066   5.386   4.868  0.2247  1.0123 -0.4111
    8CHL1  H27C  592   1.013   5.536   4.774  3.7686  2.1856 -1.9225
    9CHL1    C3  593   0.823   0.790   6.134  0.4709  0.1616 -0.0351
    9CHL1    H3  594   0.933   0.803   6.145  0.9730 -2.0788 -1.7374
    9CHL1    O3  595   0.776   0.788   6.268  0.1742 -0.4968 -0.1241
    9CHL1   H3'  596   0.815   0.711   6.308  0.1583 -0.6508 -0.4017
    9CHL1    C4  597   0.752   0.902   6.069 -0.2438  0.6880  0.9256
    9CHL1   H4A  598   0.641   0.889   6.067 -0.1999  0.2062  1.2341
    9CHL1   H4B  599   0.769   0.994   6.129  3.0848  0.2750  0.7761
    9CHL1    C5  600   0.819   0.911   5.930 -0.4894  0.1184  0.0878
    9CHL1    C6  601   0.894   1.016   5.893 -0.2300  0.0059  0.3894
    9CHL1    H6  602   0.909   1.096   5.967 -0.5259  1.2211 -0.8249
    9CHL1    C7  603   0.964   1.027   5.763  0.1887 -0.0356  0.2472
    9CHL1   H7A  604   0.991   1.131   5.736  1.5570 -0.4687 -0.1517
    9CHL1   H7B  605   1.066   0.987   5.782  0.1512 -0.3979 -0.3088
    9CHL1    C8  606   0.898   0.941   5.647  0.5340 -0.8923 -0.1979
    9CHL1    H8  607   0.797   0.984   5.633  1.1827  0.1243 -2.1489
    9CHL1   C14  608   0.958   0.943   5.511  0.5451  1.0044 -0.4321
    9CHL1   H14  609   1.050   0.884   5.533  0.7925  1.5727  0.0928
    9CHL1   C15  610   0.994   1.071   5.443 -1.1833 -0.6663 -0.1241
    9CHL1  H15A  611   0.909   1.142   5.427 -1.1147 -0.4657  0.3876
    9CHL1  H15B  612   1.068   1.119   5.511 -2.3587  2.6644 -0.9946
    9CHL1   C16  613   1.034   1.036   5.302  0.3218 -0.0528 -0.2755
    9CHL1  H16A  614   0.995   1.113   5.233 -1.8702 -0.5242  0.3547
    9CHL1  H16B  615   1.144   1.024   5.294  0.4871 -2.2030  2.9501
    9CHL1   C17  616   0.972   0.893   5.278  0.5056 -0.6194 -0.4868
    9CHL1   H17  617   1.061   0.827   5.286  0.8244 -0.0249  1.0490
    9CHL1   C13  618   0.886   0.866   5.405 -0.3369 -0.1256  0.0168
    9CHL1   C18  619   0.746   0.932   5.381  0.0661 -0.5991 -0.4508
    9CHL1  H18A  620   0.679   0.856   5.336 -0.7181 -0.0201 -0.2810
    9CHL1  H18B  621   0.700   0.954   5.479  1.6318 -3.8007  1.1439
    9CHL1  H18C  622   0.749   1.030   5.328  1.2837  0.4576  1.4724
    9CHL1   C12  623   0.881   0.711   5.449  0.1485 -0.3990 -0.3216
    9CHL1  H12A  624   0.836   0.641   5.375 -0.5877  1.4196 -1.6891
    9CHL1  H12B  625   0.986   0.685   5.472 -0.0204  0.7977  2.1083
    9CHL1   C11  626   0.813   0.695   5.584  0.6226 -0.0442 -0.0014
    9CHL1  H11A  627   0.704   0.701   5.566  0.6039 -1.3422 -0.4670
    9CHL1  H11B  628   0.834   0.595   5.627 -0.2887 -0.6978 -1.0365
    9CHL1    C9  629   0.865   0.797   5.700 -0.5123  0.6527  0.1510
    9CHL1    H9  630   0.965   0.755   5.724  0.0542  1.8696  0.0143
    9CHL1   C10  631   0.786   0.793   5.833 -0.2953  0.2732  0.8788
    9CHL1   C19  632   0.633   0.796   5.802  0.4479  0.2183 -0.1257
    9CHL1  H19A  633   0.614   0.872   5.723 -0.6868  2.6260  2.2846
    9CHL1  H19B  634   0.598   0.697   5.766 -0.8180  1.3026 -2.0483
    9CHL1  H19C  635   0.573   0.823   5.892  1.8504 -0.3193  1.0225
    9CHL1    C1  636   0.825   0.663   5.916  0.1963  0.3111 -0.0963
    9CHL1   H1A  637   0.770   0.579   5.869  0.4741 -0.0483  0.2174
    9CHL1   H1B  638   0.933   0.642   5.901  0.7433 -1.8171  4.7888
    9CHL1    C2  639   0.790   0.656   6.065 -0.0191  0.3451  0.9482
    9CHL1   H2A  640   0.849   0.581   6.122  1.5255 -0.0497 -1.0438
    9CHL1   H2B  641   0.682   0.630   6.075  0.1577 -0.3856  1.0558
    9CHL1   C20  642   0.904   0.886   5.136  0.4849  0.3493  0.6644
    9CHL1   H20  643   0.809   0.943   5.135  1.0094  1.3448 -2.3301
    9CHL1   C21  644   0.868   0.741   5.097  0.1060 -0.9147  0.1914
    9CHL1  H21A  645   0.958   0.677   5.098  0.9983  0.2085 -1.8657
    9CHL1  H21B  646   0.817   0.740   4.998  3.5980  1.3713 -1.8259
    9CHL1  H21C  647   0.809   0.698   5.181 -2.0333 -1.2596 -1.4035
    9CHL1   C22  648   0.990   0.953   5.020  0.5086  0.1024 -0.1727
    9CHL1  H22A  649   0.967   1.062   5.029 -0.1690 -0.1204  1.0280
    9CHL1  H22B  650   1.100   0.937   5.031  0.6682  1.1499 -0.1019
    9CHL1   C23  651   0.937   0.921   4.879 -0.5853  0.2724  0.6190
    9CHL1  H23A  652   0.968   0.823   4.839 -1.0095  0.5346 -0.3735
    9CHL1  H23B  653   0.827   0.918   4.868 -0.8996 -1.4676  3.3637
    9CHL1   C24  654   0.992   1.018   4.776  0.2919 -0.1850 -0.0398
    9CHL1  H24A  655   0.970   1.126   4.791  3.3000  0.9428 -2.6149
    9CHL1  H24B  656   1.103   1.021   4.776  0.4279  0.3593 -3.9632
    9CHL1   C25  657   0.950   0.976   4.635  0.4026  0.4700  0.2040
    9CHL1   H25  658   0.851   0.928   4.654  0.4654  0.2470 -0.0344
    9CHL1   C26  659   0.926   1.095   4.540  0.3689  0.1832  0.1235
    9CHL1  H26A  660   1.019   1.155   4.529  0.9603 -0.5769  0.8175
    9CHL1  H26B  661   0.893   1.069   4.437  3.2263  2.1185 -1.4347
    9CHL1  H26C  662   0.847   1.158   4.585 -0.3319 -0.1944 -0.5502
    9CHL1   C27  663   1.034   0.873   4.570 -0.1510 -0.0466 -0.3364
    9CHL1  H27A  664   0.975   0.812   4.498  0.9066 -0.0317 -1.2407
    9CHL1  H27B  665   1.114   0.927   4.516  1.1238 -0.7659  0.7790
    9CHL1  H27C  666   1.064   0.788   4.635 -0.9404 -2.4429 -2.8713
   10CHL1    C3  667   1.612   3.828   5.820 -0.2968  0.2367  0.3669
   10CHL1    H3  668   1.701   3.763   5.835 -0.8393 -1.5253 -2.8943
   10CHL1    O3  669   1.578   3.885   5.943  0.6387 -0.0479  0.5330
   10CHL1   H3'  670   1.532   3.813   5.987  0.9947 -0.5747  0.0552
   10CHL1    C4  671   1.651   3.936   5.715 -0.3554 -0.5353  0.2682
   10CHL1   H4A  672   1.567   4.008   5.710 -0.6738 -0.8549  0.8752
   10CHL1   H4B  673   1.733   3.990   5.768 -1.6128 -1.6807  3.6853
   10CHL1    C5  674   1.680   3.884   5.576  1.2143 -0.2475 -0.1509
   10CHL1    C6  675   1.798   3.901   5.520 -0.5806 -0.3756  0.1581
   10CHL1    H6  676   1.878   3.954   5.574 -1.2573 -0.9360  1.7822
   10CHL1    C7  677   1.838   3.841   5.396  0.3188  0.5234 -0.0135
   10CHL1   H7A  678   1.877   3.917   5.325 -1.2761 -1.0614 -2.8075
   10CHL1   H7B  679   1.921   3.769   5.411  0.7719  1.2448  1.0381
   10CHL1    C8  680   1.726   3.781   5.309  0.0955  0.4548  0.2477
   10CHL1    H8  681   1.682   3.874   5.266 -0.1064 -0.3681 -1.3656
   10CHL1   C14  682   1.779   3.679   5.210 -0.2351  0.2439  0.3370
   10CHL1   H14  683   1.817   3.595   5.273 -2.1696  0.5731  2.0876
   10CHL1   C15  684   1.888   3.722   5.116 -0.5524  0.2458 -0.1088
   10CHL1  H15A  685   1.850   3.819   5.078 -1.3179 -0.4626 -1.2129
   10CHL1  H15B  686   1.990   3.734   5.159  0.1575 -3.3206 -0.4834
   10CHL1   C16  687   1.890   3.623   5.001 -0.0848  0.1783  0.0238
   10CHL1  H16A  688   1.880   3.692   4.914  2.4653  0.1200 -0.3807
   10CHL1  H16B  689   1.981   3.562   4.980  1.4212  3.1469 -2.8932
   10CHL1   C17  690   1.757   3.538   5.019  0.3153 -0.0218 -0.2920
   10CHL1   H17  691   1.785   3.449   5.080  0.3253  0.8594  1.0353
   10CHL1   C13  692   1.670   3.620   5.118  0.6191 -0.6485  0.3910
   10CHL1   C18  693   1.590   3.731   5.034  0.0129 -0.4395 -0.5663
   10CHL1  H18A  694   1.664   3.769   4.961  2.0919 -0.1993  1.5494
   10CHL1  H18B  695   1.499   3.690   4.985  0.7124  0.1142 -2.4100
   10CHL1  H18C  696   1.553   3.808   5.106  0.1410 -0.5091 -0.4259
   10CHL1   C12  697   1.567   3.552   5.207  0.3834 -0.4983 -0.3649
   10CHL1  H12A  698   1.491   3.501   5.144  1.4443  0.8296 -2.8154
   10CHL1  H12B  699   1.616   3.466   5.259  0.7302 -0.1348 -0.0854
   10CHL1   C11  700   1.512   3.642   5.317  0.7266  0.5893 -0.3326
   10CHL1  H11A  701   1.437   3.714   5.281 -0.8258  0.2823  2.0635
   10CHL1  H11B  702   1.452   3.570   5.377 -0.0589  0.8452 -0.8052
   10CHL1    C9  703   1.622   3.711   5.402  0.1739  0.0397 -0.5478
   10CHL1    H9  704   1.681   3.624   5.438  0.4018 -0.6659 -2.4681
   10CHL1   C10  705   1.572   3.791   5.523 -0.1243 -1.0599 -0.2898
   10CHL1   C19  706   1.461   3.890   5.480 -0.6387 -0.1622  0.5722
   10CHL1  H19A  707   1.370   3.831   5.456  0.9671 -1.8490 -1.8868
   10CHL1  H19B  708   1.448   3.972   5.554 -2.3811 -1.9922  2.4248
   10CHL1  H19C  709   1.485   3.949   5.389 -3.2741 -0.1985 -0.2082
   10CHL1    C1  710   1.517   3.683   5.629  0.2630 -0.5224 -0.7499
   10CHL1   H1A  711   1.423   3.636   5.592 -0.6436 -0.6906  1.6066
   10CHL1   H1B  712   1.591   3.600   5.636  0.7489 -0.2324 -2.0482
   10CHL1    C2  713   1.489   3.746   5.764  0.4412 -0.2955 -0.0918
   10CHL1   H2A  714   1.460   3.667   5.837 -2.1851  1.0029  0.4069
   10CHL1   H2B  715   1.406   3.820   5.759 -0.1702 -0.8115  1.5320
   10CHL1   C20  716   1.708   3.492   4.883 -1.0102  0.3038  0.4935
   10CHL1   H20  717   1.697   3.593   4.837 -0.6566  1.6843  3.2120
   10CHL1   C21  718   1.571   3.426   4.882  0.1008  0.3812  0.6187
   10CHL1  H21A  719   1.552   3.398   4.776 -0.2734 -2.1727  1.2896
   10CHL1  H21B  720   1.491   3.499   4.911  1.0881  2.8198 -2.2482
   10CHL1  H21C  721   1.566   3.332   4.940  0.8032 -0.9976 -1.4645
   10CHL1   C22  722   1.817   3.403   4.807 -0.4045  0.7269  0.1698
   10CHL1  H22A  723   1.789   3.396   4.700  1.3058 -2.0236 -0.2059
   10CHL1  H22B  724   1.916   3.454   4.802 -0.9569  2.0931  1.8151
   10CHL1   C23  725   1.836   3.261   4.858  0.1620  0.1795  0.0863
   10CHL1  H23A  726   1.864   3.264   4.966 -2.8293  1.3037  0.9334
   10CHL1  H23B  727   1.740   3.204   4.861  0.2128  0.1239  1.7930
   10CHL1   C24  728   1.923   3.179   4.764 -0.4167  0.1384 -0.6970
   10CHL1  H24A  729   1.871   3.181   4.665  1.9017 -0.8986 -2.0268
   10CHL1  H24B  730   2.020   3.233   4.757 -0.2618  0.2006  1.3502
   10CHL1   C25  731   1.940   3.032   4.797 -0.6755 -0.1211 -0.7789
   10CHL1   H25  732   1.846   2.984   4.830  0.7862 -1.6447  1.4489
   10CHL1   C26  733   2.005   2.958   4.682  0.3493  0.5310  0.8296
   10CHL1  H26A  734   1.956   2.994   4.589  0.0412 -2.2901 -0.2117
   10CHL1  H26B  735   2.106   2.999   4.661  1.1767 -2.2059 -1.1310
   10CHL1  H26C  736   2.008   2.847   4.689  0.4051  0.3418 -1.3570
   10CHL1   C27  737   2.023   3.010   4.918 -0.2937  0.5652 -0.4863
   10CHL1  H27A  738   2.038   2.903   4.944 -0.4066  0.7693  0.4717
   10CHL1  H27B  739   2.127   3.047   4.906  0.0564 -0.0448  0.5527
   10CHL1  H27C  740   1.981   3.049   5.014  0.2842 -3.2981  1.5253
   11CHL1    C3  741   0.774   6.536   6.145 -0.3501  0.0704  0.2006
   11CHL1    H3  742   0.708   6.448   6.129 -0.9098  0.5932 -0.4332
   11CHL1    O3  743   0.814   6.534   6.280  0.5335 -0.0579  0.2194
   11CHL1   H3'  744   0.830   6.628   6.291  0.0643  0.6513 -3.5833
   11CHL1    C4  745   0.899   6.544   6.056  0.9510  0.4011 -1.1963
   11CHL1   H4A  746   0.955   6.638   6.081  0.4483  0.4488 -0.1791
   11CHL1   H4B  747   0.964   6.458   6.086  0.5132  0.7125  0.8319
   11CHL1    C5  748   0.862   6.532   5.915  0.0997 -0.1893  0.2898
   11CHL1    C6  749   0.906   6.439   5.828 -0.1016  0.0925  0.7484
   11CHL1    H6  750   0.987   6.367   5.844 -0.8774 -1.2702 -1.1131
   11CHL1    C7  751   0.877   6.451   5.679  0.4376 -0.0110  0.2220
   11CHL1   H7A  752   0.975   6.446   5.628  0.7964 -0.5698  0.9507
   11CHL1   H7B  753   0.806   6.369   5.655  0.4730  0.3379 -1.1509
   11CHL1    C8  754   0.807   6.581   5.638  0.3895 -0.0675  0.3081
   11CHL1    H8  755   0.895   6.649   5.639  2.7010 -2.7745 -1.9325
   11CHL1   C14  756   0.746   6.566   5.501  0.2205 -0.3712  0.6816
   11CHL1   H14  757   0.667   6.488   5.508 -1.0114  0.9145  1.9469
   11CHL1   C15  758   0.835   6.510   5.387  0.3945  0.0906  0.3340
   11CHL1  H15A  759   0.935   6.557   5.385  0.1629  0.5900 -2.3817
   11CHL1  H15B  760   0.839   6.402   5.417  1.8181 -0.2831 -1.1090
   11CHL1   C16  761   0.752   6.528   5.263  0.1707  0.5061  0.5057
   11CHL1  H16A  762   0.805   6.588   5.186 -3.3708  3.1739 -0.1019
   11CHL1  H16B  763   0.728   6.431   5.214 -0.1589  1.7632 -2.0227
   11CHL1   C17  764   0.630   6.616   5.301  0.1926 -0.2738 -0.2989
   11CHL1   H17  765   0.541   6.560   5.338 -1.0998  2.3179  0.7869
   11CHL1   C13  766   0.672   6.681   5.438 -0.3590  0.5221  0.5638
   11CHL1   C18  767   0.776   6.790   5.414 -0.3052  0.1297 -0.3720
   11CHL1  H18A  768   0.720   6.885   5.397 -0.3652 -0.0430 -1.1734
   11CHL1  H18B  769   0.848   6.799   5.498  0.1785  0.4305 -0.8117
   11CHL1  H18C  770   0.832   6.773   5.320 -0.1527  0.9797 -0.4423
   11CHL1   C12  771   0.564   6.719   5.529 -0.2646 -0.6107 -0.3508
   11CHL1  H12A  772   0.504   6.805   5.491 -4.3756 -2.2492  1.7352
   11CHL1  H12B  773   0.488   6.639   5.540  1.0310 -1.6069  2.0028
   11CHL1   C11  774   0.611   6.745   5.676 -0.1917  0.1821 -0.4353
   11CHL1  H11A  775   0.669   6.840   5.674 -1.2612  0.8378 -1.4030
   11CHL1  H11B  776   0.520   6.753   5.739 -0.8802 -1.7108 -1.1351
   11CHL1    C9  777   0.704   6.630   5.733  0.5060  0.1804  0.0738
   11CHL1    H9  778   0.638   6.541   5.743 -0.9561  1.0699 -1.1489
   11CHL1   C10  779   0.761   6.648   5.877  0.1614  0.4567 -0.6450
   11CHL1   C19  780   0.832   6.786   5.882  0.3259  0.0837  0.2946
   11CHL1  H19A  781   0.892   6.800   5.789 -2.3707  2.3763 -1.2937
   11CHL1  H19B  782   0.760   6.869   5.870 -0.0776 -0.3536 -0.3952
   11CHL1  H19C  783   0.885   6.804   5.978  1.1941 -1.0690  0.0573
   11CHL1    C1  784   0.641   6.644   5.978 -0.7353 -0.1814 -0.0856
   11CHL1   H1A  785   0.581   6.733   5.948 -0.9386 -0.1819  0.3165
   11CHL1   H1B  786   0.578   6.556   5.955 -0.3770 -0.4038 -0.2206
   11CHL1    C2  787   0.676   6.651   6.126 -0.0676  0.0529  0.7959
   11CHL1   H2A  788   0.583   6.641   6.186 -0.6154 -0.7614 -0.1483
   11CHL1   H2B  789   0.722   6.751   6.130  0.1244  0.1305 -1.6483
   11CHL1   C20  790   0.584   6.713   5.190  0.0044  0.0124  0.1582
   11CHL1   H20  791   0.661   6.793   5.184 -0.3791  0.3863  0.1894
   11CHL1   C21  792   0.452   6.776   5.225 -0.3591  0.2862 -0.2823
   11CHL1  H21A  793   0.454   6.846   5.311 -0.9403  0.7674 -0.6572
   11CHL1  H21B  794   0.372   6.701   5.239 -0.4480  0.3432 -0.4860
   11CHL1  H21C  795   0.418   6.841   5.142 -3.5256 -1.4249 -0.4589
   11CHL1   C22  796   0.557   6.648   5.049 -0.2985 -0.1677  0.1064
   11CHL1  H22A  797   0.618   6.556   5.037 -1.1054 -0.6666 -0.2712
   11CHL1  H22B  798   0.453   6.608   5.044 -0.0963 -0.5426 -2.0307
   11CHL1   C23  799   0.575   6.740   4.927  0.4264 -1.1492  0.4164
   11CHL1  H23A  800   0.482   6.801   4.930  1.6056  0.6952  1.8894
   11CHL1  H23B  801   0.661   6.809   4.939  1.3603 -2.4884  1.9100
   11CHL1   C24  802   0.597   6.668   4.793 -0.0141  0.0361 -0.0428
   11CHL1  H24A  803   0.704   6.640   4.782 -0.3318 -0.7453 -1.4510
   11CHL1  H24B  804   0.530   6.581   4.775  0.8978 -0.5217 -0.8750
   11CHL1   C25  805   0.558   6.761   4.675 -0.0515 -0.0812  0.4461
   11CHL1   H25  806   0.451   6.788   4.682  0.0945  1.5134 -2.1020
   11CHL1   C26  807   0.636   6.896   4.654  0.0486 -0.0033 -0.0492
   11CHL1  H26A  808   0.646   6.948   4.751  0.6166  0.3968 -0.3200
   11CHL1  H26B  809   0.731   6.879   4.599 -1.9002 -1.8771 -3.2133
   11CHL1  H26C  810   0.572   6.959   4.588 -0.3544  0.5573  0.8532
   11CHL1   C27  811   0.574   6.682   4.545 -0.2639 -0.0690  0.1364
   11CHL1  H27A  812   0.677   6.642   4.533  0.1112  0.2651  1.9466
   11CHL1  H27B  813   0.501   6.598   4.549  0.0599 -0.5526 -2.4578
   11CHL1  H27C  814   0.543   6.739   4.455 -1.8347 -0.9387  0.0869
   12CHL1    C3  815   0.644   0.106   6.125  0.2582  0.1378  0.2257
   12CHL1    H3  816   0.698   0.022   6.076 -1.0093  0.1881 -1.3618
   12CHL1    O3  817   0.640   0.096   6.273  0.5473 -0.5500  0.5550
   12CHL1   H3'  818   0.724   0.131   6.303 -0.8066  4.6681 -0.7851
   12CHL1    C4  819   0.694   0.241   6.073  0.4087 -0.1157 -0.3116
   12CHL1   H4A  820   0.628   0.317   6.119  0.9191  0.7387 -0.9618
   12CHL1   H4B  821   0.801   0.268   6.092  0.4660  1.1000 -2.1305
   12CHL1    C5  822   0.679   0.249   5.925 -0.0493  0.2096  0.0783
   12CHL1    C6  823   0.779   0.271   5.849 -0.2493 -0.0072  0.3838
   12CHL1    H6  824   0.882   0.278   5.888  0.2644 -1.6601 -0.6098
   12CHL1    C7  825   0.771   0.294   5.697  0.0140  0.1326 -0.3022
   12CHL1   H7A  826   0.826   0.386   5.670  0.4403 -0.4687 -1.6111
   12CHL1   H7B  827   0.822   0.210   5.644 -3.1126 -0.4361 -2.7399
   12CHL1    C8  828   0.631   0.301   5.643  0.1900 -0.3270  0.1409
   12CHL1    H8  829   0.594   0.405   5.651  0.3278 -0.0893 -1.9930
   12CHL1   C14  830   0.618   0.266   5.494  0.7013 -0.1527  0.4310
   12CHL1   H14  831   0.650   0.161   5.479 -1.5232 -0.6861 -0.8997
   12CHL1   C15  832   0.720   0.337   5.399 -0.1180 -0.0343 -0.1772
   12CHL1  H15A  833   0.720   0.445   5.422 -0.7250  0.1621 -1.0065
   12CHL1  H15B  834   0.815   0.283   5.419 -0.2705 -0.3483 -0.2895
   12CHL1   C16  835   0.663   0.311   5.256  0.4735  0.0042 -1.0216
   12CHL1  H16A  836   0.664   0.409   5.204  1.3818  1.6092  1.7832
   12CHL1  H16B  837   0.718   0.232   5.202 -0.7892 -1.5226 -0.1605
   12CHL1   C17  838   0.524   0.252   5.274 -0.3546  0.3452  0.9947
   12CHL1   H17  839   0.533   0.142   5.266  0.6964  0.5444 -1.7681
   12CHL1   C13  840   0.481   0.275   5.426 -0.1999 -0.6044 -0.9642
   12CHL1   C18  841   0.425   0.425   5.445 -0.1007 -0.2203 -0.3455
   12CHL1  H18A  842   0.325   0.448   5.404  0.3997  2.1012 -0.3627
   12CHL1  H18B  843   0.424   0.442   5.555  1.1095 -3.2577  0.2593
   12CHL1  H18C  844   0.494   0.505   5.411 -0.8104  0.6387  0.1865
   12CHL1   C12  845   0.398   0.164   5.493 -0.0509 -0.1722 -0.0776
   12CHL1  H12A  846   0.293   0.149   5.459  0.2486 -0.5545 -0.8609
   12CHL1  H12B  847   0.449   0.070   5.464  0.0076  0.1321 -1.0036
   12CHL1   C11  848   0.399   0.184   5.646 -0.5936  0.6036  0.1452
   12CHL1  H11A  849   0.333   0.268   5.676  0.0163  1.4609 -0.8433
   12CHL1  H11B  850   0.360   0.093   5.697  1.1672 -1.1777 -1.4920
   12CHL1    C9  851   0.535   0.210   5.711  0.2303  0.0258 -1.0058
   12CHL1    H9  852   0.587   0.112   5.704 -0.8141 -0.4866 -2.0042
   12CHL1   C10  853   0.533   0.235   5.873 -0.4535 -0.3049 -0.7542
   12CHL1   C19  854   0.446   0.353   5.913  0.4269 -0.4666  0.3812
   12CHL1  H19A  855   0.344   0.342   5.871  1.1240  2.7444 -2.6224
   12CHL1  H19B  856   0.446   0.371   6.023 -1.8017 -2.1366  0.7134
   12CHL1  H19C  857   0.486   0.439   5.855  0.0968 -0.7492 -0.2750
   12CHL1    C1  858   0.478   0.107   5.933 -0.0013  0.2344  0.3777
   12CHL1   H1A  859   0.367   0.109   5.924 -0.0831 -0.4551  1.1112
   12CHL1   H1B  860   0.520   0.019   5.879  1.4114  1.9051 -1.4308
   12CHL1    C2  861   0.498   0.096   6.082 -0.0486  0.0605  0.3958
   12CHL1   H2A  862   0.461  -0.005   6.108 -1.2061  0.2433 -0.4991
   12CHL1   H2B  863   0.438   0.171   6.137  2.0032  1.2624  1.1130
   12CHL1   C20  864   0.424   0.284   5.156 -0.5868  0.0937 -0.0604
   12CHL1   H20  865   0.428   0.394   5.141 -1.9907 -0.0293 -1.5568
   12CHL1   C21  866   0.273   0.248   5.198 -0.4796 -0.5245  0.3870
   12CHL1  H21A  867   0.259   0.139   5.212 -0.5150 -0.4803  0.6853
   12CHL1  H21B  868   0.209   0.287   5.116  0.3817  1.4169  0.5743
   12CHL1  H21C  869   0.239   0.299   5.290  0.2982  2.5722 -0.9185
   12CHL1   C22  870   0.468   0.225   5.021 -0.3994 -0.3692  0.3769
   12CHL1  H22A  871   0.564   0.279   5.011  0.5636 -1.2349  3.8012
   12CHL1  H22B  872   0.497   0.118   5.027  1.2741  0.0366 -0.1483
   12CHL1   C23  873   0.363   0.246   4.914 -0.3193 -0.1119 -0.3258
   12CHL1  H23A  874   0.275   0.183   4.941  1.0890 -1.4188  1.4720
   12CHL1  H23B  875   0.332   0.352   4.902 -1.4289 -0.7287 -4.6404
   12CHL1   C24  876   0.406   0.194   4.771  0.2933 -0.2724 -0.2396
   12CHL1  H24A  877   0.507   0.239   4.762  0.0547  0.1787 -0.7443
   12CHL1  H24B  878   0.418   0.084   4.764 -0.6220 -0.5548  2.0415
   12CHL1   C25  879   0.311   0.231   4.647  0.0693 -0.0732 -0.7596
   12CHL1   H25  880   0.364   0.191   4.558 -0.2472  0.8022 -1.3593
   12CHL1   C26  881   0.174   0.162   4.659 -0.2117 -0.3098  0.5811
   12CHL1  H26A  882   0.113   0.199   4.744  0.2254 -0.6945  1.0676
   12CHL1  H26B  883   0.122   0.198   4.568  0.6169  0.1710  0.2826
   12CHL1  H26C  884   0.182   0.052   4.648 -0.7178 -0.1733 -1.7517
   12CHL1   C27  885   0.287   0.385   4.649 -0.2543 -0.0032 -0.0973
   12CHL1  H27A  886   0.220   0.413   4.733 -2.1723 -2.0587 -0.8253
   12CHL1  H27B  887   0.381   0.442   4.666  0.7870 -1.8707  0.6276
   12CHL1  H27C  888   0.244   0.416   4.551  1.0931 -0.3948 -0.8302
   13CHL1    C3  889   6.545   4.471   6.108  0.7796  0.9038 -0.5621
   13CHL1    H3  890   6.608   4.563   6.099 -0.0791  1.7209  1.2587
   13CHL1    O3  891   6.516   4.456   6.250 -0.2215 -0.0405  0.0754
   13CHL1   H3'  892   6.428   4.420   6.262  1.0281 -2.7460  1.9524
   13CHL1    C4  893   6.414   4.497   6.033  0.1600  0.0357 -0.7524
   13CHL1   H4A  894   6.339   4.418   6.054  0.2533  0.2108  0.3167
   13CHL1   H4B  895   6.374   4.588   6.084 -1.5984 -0.5586 -0.9843
   13CHL1    C5  896   6.439   4.523   5.888 -0.1285 -0.2360  0.1746
   13CHL1    C6  897   6.403   4.640   5.833  0.0214  0.2453  0.7421
   13CHL1    H6  898   6.356   4.717   5.895 -0.6591  0.3169  0.1465
   13CHL1    C7  899   6.422   4.680   5.689 -0.2589  0.1633  0.7361
   13CHL1   H7A  900   6.332   4.729   5.645  0.5502  0.5647 -0.5137
   13CHL1   H7B  901   6.501   4.758   5.687  0.1222 -0.2293 -0.8403
   13CHL1    C8  902   6.465   4.556   5.603  0.1795  0.1733  0.0004
   13CHL1    H8  903   6.372   4.497   5.589  0.9538 -0.7971 -1.2829
   13CHL1   C14  904   6.526   4.595   5.472  0.1482 -0.4329  0.3323
   13CHL1   H14  905   6.626   4.644   5.486  0.1068 -0.4556  0.6997
   13CHL1   C15  906   6.443   4.699   5.387 -0.0911 -0.1443 -0.3820
   13CHL1  H15A  907   6.339   4.660   5.381  0.9688 -3.6034  0.8872
   13CHL1  H15B  908   6.441   4.801   5.431  4.3903 -0.7909  1.8953
   13CHL1   C16  909   6.506   4.685   5.252  0.0663 -0.0382  0.2075
   13CHL1  H16A  910   6.420   4.652   5.189  0.1564 -0.4209  0.2803
   13CHL1  H16B  911   6.539   4.783   5.213  2.8528 -0.8031  0.4604
   13CHL1   C17  912   6.614   4.574   5.262  0.4915 -0.3432 -0.4945
   13CHL1   H17  913   6.707   4.628   5.290  0.3119 -1.1695  1.9297
   13CHL1   C13  914   6.565   4.485   5.378  0.7382 -0.0335 -0.5394
   13CHL1   C18  915   6.445   4.406   5.334  0.1744 -0.2887 -0.0337
   13CHL1  H18A  916   6.368   4.410   5.414  0.9780 -1.0248  0.7910
   13CHL1  H18B  917   6.394   4.451   5.246  1.3484  1.5158  0.1592
   13CHL1  H18C  918   6.472   4.300   5.318 -0.2385 -0.5588  1.0089
   13CHL1   C12  919   6.671   4.391   5.440  0.0733  0.1584 -0.1806
   13CHL1  H12A  920   6.674   4.303   5.373  4.0256  0.5879 -0.8104
   13CHL1  H12B  921   6.772   4.437   5.435  0.4967 -0.8269 -0.9089
   13CHL1   C11  922   6.621   4.349   5.579 -0.7528 -0.2858  0.0261
   13CHL1  H11A  923   6.551   4.263   5.566 -0.5607 -0.6724  1.3613
   13CHL1  H11B  924   6.711   4.306   5.627  1.2403  1.2726 -2.1115
   13CHL1    C9  925   6.565   4.465   5.672 -0.3550  0.0746 -0.6358
   13CHL1    H9  926   6.653   4.525   5.703  0.6840 -2.1920  1.0846
   13CHL1   C10  927   6.516   4.412   5.815 -0.1493  0.3771  0.7665
   13CHL1   C19  928   6.416   4.298   5.789  0.1223  0.1371 -0.5720
   13CHL1  H19A  929   6.333   4.334   5.723  0.1062  1.3884  0.0941
   13CHL1  H19B  930   6.458   4.204   5.749 -1.1299 -0.7718  0.1764
   13CHL1  H19C  931   6.383   4.257   5.887  0.2693  0.8539 -0.2131
   13CHL1    C1  932   6.643   4.362   5.900 -0.6633 -0.2976 -0.3758
   13CHL1   H1A  933   6.679   4.269   5.851 -1.4183 -0.1288 -1.2691
   13CHL1   H1B  934   6.722   4.440   5.893 -0.4283 -0.6371 -1.8046
   13CHL1    C2  935   6.611   4.353   6.052  0.6398  0.1688  0.0003
   13CHL1   H2A  936   6.699   4.332   6.116 -0.6077 -1.7486  1.1607
   13CHL1   H2B  937   6.542   4.267   6.062  1.1770 -0.2557  0.1330
   13CHL1   C20  938   6.649   4.506   5.135  0.3585  0.5491  0.0828
   13CHL1   H20  939   6.587   4.414   5.133 -1.3896  1.6861 -0.3820
   13CHL1   C21  940   6.802   4.467   5.139  0.1021  0.1202 -0.2392
   13CHL1  H21A  941   6.867   4.554   5.117  0.4145 -1.0633 -5.6428
   13CHL1  H21B  942   6.823   4.387   5.063  0.8398 -1.2325  1.3248
   13CHL1  H21C  943   6.821   4.430   5.242  0.4653 -1.4788 -0.8395
   13CHL1   C22  944   6.618   4.591   5.012 -0.8696  0.1989 -0.5752
   13CHL1  H22A  945   6.511   4.620   5.012 -1.0805 -0.5045 -1.7900
   13CHL1  H22B  946   6.678   4.685   5.008  1.7308 -1.3623 -0.2970
   13CHL1   C23  947   6.638   4.513   4.886 -0.4208 -0.0493 -0.7162
   13CHL1  H23A  948   6.745   4.503   4.859 -0.6507  0.1643 -1.7739
   13CHL1  H23B  949   6.600   4.410   4.896 -1.8747  0.2746 -2.4519
   13CHL1   C24  950   6.567   4.579   4.771  0.1939 -0.1431  0.5438
   13CHL1  H24A  951   6.458   4.560   4.762  0.3638 -0.6221 -0.6495
   13CHL1  H24B  952   6.584   4.688   4.782  2.4347 -0.4428  0.6456
   13CHL1   C25  953   6.634   4.535   4.635 -0.4968  0.3094  0.0634
   13CHL1   H25  954   6.743   4.540   4.660 -0.4303  1.6144 -0.4565
   13CHL1   C26  955   6.591   4.387   4.596  0.3112 -0.3836 -0.4898
   13CHL1  H26A  956   6.602   4.315   4.680 -2.1553  0.2446  0.4426
   13CHL1  H26B  957   6.480   4.391   4.589  0.2523  2.0722  0.8829
   13CHL1  H26C  958   6.646   4.352   4.506  0.2890 -0.2543 -0.5539
   13CHL1   C27  959   6.603   4.624   4.524  0.2398 -0.1935  0.2438
   13CHL1  H27A  960   6.492   4.633   4.518  0.2877  2.1246  1.5685
   13CHL1  H27B  961   6.649   4.724   4.540 -0.3029  0.2720 -0.9823
   13CHL1  H27C  962   6.643   4.586   4.427  0.0616  0.5125 -0.1110
   14CHL1    C3  963   1.667   3.237   5.869 -0.0770  0.8626 -0.5801
   14CHL1    H3  964   1.744   3.240   5.949 -0.9466  0.2346  0.3024
   14CHL1    O3  965   1.550   3.229   5.936 -0.2795  0.0468  0.1938
   14CHL1   H3'  966   1.567   3.172   6.011 -0.1304  0.3065  0.3591
   14CHL1    C4  967   1.665   3.365   5.790 -0.4518 -0.0497  0.2052
   14CHL1   H4A  968   1.575   3.364   5.724  1.4094 -1.3196 -2.5336
   14CHL1   H4B  969   1.661   3.435   5.875  0.0497  0.9209 -0.5512
   14CHL1    C5  970   1.782   3.386   5.697  0.4243  0.0533  0.6031
   14CHL1    C6  971   1.845   3.499   5.687 -0.2950 -0.5866 -0.2487
   14CHL1    H6  972   1.810   3.584   5.747 -1.4989 -0.6579 -0.8211
   14CHL1    C7  973   1.972   3.525   5.613  0.3611 -0.1350  0.9044
   14CHL1   H7A  974   1.960   3.624   5.563  0.3735  0.0105  1.1894
   14CHL1   H7B  975   2.058   3.527   5.683  1.9643 -2.1267 -0.8937
   14CHL1    C8  976   1.992   3.418   5.505  0.3312 -0.1650 -0.0361
   14CHL1    H8  977   1.919   3.432   5.422 -0.3317 -2.5451  0.0751
   14CHL1   C14  978   2.130   3.438   5.440 -0.6735 -0.2893 -0.6142
   14CHL1   H14  979   2.207   3.422   5.518  1.3150  1.4952 -2.0859
   14CHL1   C15  980   2.157   3.579   5.384 -0.1102  0.0300 -0.9928
   14CHL1  H15A  981   2.070   3.619   5.329 -0.8077  0.3274  0.2727
   14CHL1  H15B  982   2.187   3.653   5.462  0.1340 -1.0306 -0.0611
   14CHL1   C16  983   2.275   3.547   5.299  0.0978  0.6299  0.0125
   14CHL1  H16A  984   2.252   3.594   5.201 -0.0877  0.5249  0.0058
   14CHL1  H16B  985   2.371   3.591   5.334  0.1231  1.8817 -1.5101
   14CHL1   C17  986   2.292   3.390   5.276 -0.5002  0.1072  0.2527
   14CHL1   H17  987   2.366   3.363   5.354 -1.9141  0.6040  1.8250
   14CHL1   C13  988   2.156   3.335   5.325  0.3459  0.4646 -0.4114
   14CHL1   C18  989   2.055   3.332   5.216  0.1748  0.0740  0.3367
   14CHL1  H18A  990   2.068   3.429   5.165 -0.7064  1.0862  1.9567
   14CHL1  H18B  991   2.067   3.245   5.148  0.8554  0.6289 -0.2710
   14CHL1  H18C  992   1.952   3.335   5.257 -0.2461 -1.5222 -0.5183
   14CHL1   C12  993   2.165   3.201   5.405  0.7607 -0.0993 -0.0974
   14CHL1  H12A  994   2.201   3.112   5.349 -0.8749  0.0902 -1.5225
   14CHL1  H12B  995   2.243   3.214   5.483 -2.5840  0.6358  3.4095
   14CHL1   C11  996   2.034   3.169   5.475 -0.3204 -0.2954 -0.1729
   14CHL1  H11A  997   1.967   3.127   5.397 -1.0163  0.1519  0.1690
   14CHL1  H11B  998   2.056   3.087   5.548  0.3014  0.5483  0.6066
   14CHL1    C9  999   1.973   3.279   5.563  0.3736 -0.3593  0.0929
   14CHL1    H9 1000   2.041   3.277   5.651 -0.7422 -1.6410  0.9522
   14CHL1   C10 1001   1.828   3.266   5.614 -0.4725  0.7889 -0.7250
   14CHL1   C19 1002   1.722   3.250   5.505 -0.3400  0.4616  0.3598
   14CHL1  H19A 1003   1.734   3.158   5.444 -1.1631 -1.0722  2.4168
   14CHL1  H19B 1004   1.621   3.226   5.544 -0.5878  1.6965  0.5385
   14CHL1  H19C 1005   1.723   3.342   5.442 -0.0842  0.6639  0.6570
   14CHL1    C1 1006   1.817   3.132   5.701  0.0261 -0.6023  0.6505
   14CHL1   H1A 1007   1.836   3.047   5.633 -0.9723  1.1877 -2.0366
   14CHL1   H1B 1008   1.890   3.145   5.784 -0.0054 -0.9240  0.7293
   14CHL1    C2 1009   1.686   3.113   5.781 -0.8759 -0.3466  0.3805
   14CHL1   H2A 1010   1.689   3.015   5.834 -2.7137  0.0411  1.2869
   14CHL1   H2B 1011   1.601   3.102   5.710 -0.5544 -2.1234  0.2200
   14CHL1   C20 1012   2.353   3.365   5.137  0.0407 -0.9378 -0.5128
   14CHL1   H20 1013   2.283   3.393   5.056  3.0768 -1.1513 -3.4544
   14CHL1   C21 1014   2.389   3.218   5.131  0.6657 -0.0547  0.0744
   14CHL1  H21A 1015   2.472   3.193   5.201 -0.4918 -0.3043  1.3908
   14CHL1  H21B 1016   2.412   3.192   5.025  1.1220  3.1474 -0.7111
   14CHL1  H21C 1017   2.300   3.156   5.153  1.1985 -0.5939  0.7851
   14CHL1   C22 1018   2.479   3.447   5.120 -0.5615 -0.4964  0.5021
   14CHL1  H22A 1019   2.474   3.556   5.139  0.8748 -0.5670  1.3653
   14CHL1  H22B 1020   2.547   3.413   5.201  0.4713  1.6716  0.6003
   14CHL1   C23 1021   2.552   3.430   4.988  1.5104 -0.4035 -0.3736
   14CHL1  H23A 1022   2.583   3.326   4.964  3.0691  0.1644 -0.9609
   14CHL1  H23B 1023   2.479   3.451   4.907  0.0453 -2.1067  0.4436
   14CHL1   C24 1024   2.679   3.511   4.994 -0.0433 -0.0844  0.0027
   14CHL1  H24A 1025   2.653   3.618   5.007 -0.1395  0.2613 -2.5144
   14CHL1  H24B 1026   2.738   3.482   5.084 -1.6818  1.0462  1.5094
   14CHL1   C25 1027   2.764   3.494   4.869 -0.5059 -0.0466 -0.5916
   14CHL1   H25 1028   2.762   3.384   4.852 -0.3047 -0.3866  1.3014
   14CHL1   C26 1029   2.701   3.563   4.746  0.1864 -0.1630 -1.0189
   14CHL1  H26A 1030   2.709   3.673   4.747 -1.3587 -0.0247 -0.2265
   14CHL1  H26B 1031   2.753   3.533   4.652 -2.6168 -0.3692 -2.6449
   14CHL1  H26C 1032   2.593   3.536   4.739  0.3822 -1.6662  0.8814
   14CHL1   C27 1033   2.911   3.533   4.891 -0.1589  0.0774 -0.1462
   14CHL1  H27A 1034   2.952   3.477   4.978 -1.3112 -0.0919  0.3185
   14CHL1  H27B 1035   2.974   3.509   4.803  0.7865  0.9723  0.2608
   14CHL1  H27C 1036   2.925   3.640   4.918  2.1684 -0.4499  1.0072
   15CHL1    C3 1037   2.062   1.056   5.883  0.3146  0.2078  0.0098
   15CHL1    H3 1038   2.069   0.954   5.839  3.6006  0.5132 -0.4682
   15CHL1    O3 1039   2.087   1.048   6.022 -0.2491  0.2203  0.3130
   15CHL1   H3' 1040   2.172   1.084   6.049 -0.5891  0.5512  0.9681
   15CHL1    C4 1041   2.166   1.140   5.811  0.6487 -0.2005 -0.6004
   15CHL1   H4A 1042   2.162   1.239   5.862  1.2439 -1.1836  1.4728
   15CHL1   H4B 1043   2.266   1.098   5.834  0.3747  0.1875  1.4930
   15CHL1    C5 1044   2.143   1.153   5.664  0.4739 -0.4298  0.2467
   15CHL1    C6 1045   2.237   1.123   5.576  0.3504  0.3830  0.4197
   15CHL1    H6 1046   2.329   1.084   5.621  0.9909  2.1407  0.6757
   15CHL1    C7 1047   2.224   1.128   5.423  0.7036 -0.1460  0.0736
   15CHL1   H7A 1048   2.310   1.193   5.395  0.6936  0.6232  1.6655
   15CHL1   H7B 1049   2.233   1.022   5.393 -0.9894 -0.8139  1.7626
   15CHL1    C8 1050   2.086   1.186   5.377 -0.5207 -0.0461  0.4490
   15CHL1    H8 1051   2.097   1.297   5.380 -1.0264  0.0214 -0.0317
   15CHL1   C14 1052   2.052   1.158   5.234 -0.0711  0.1174  0.2752
   15CHL1   H14 1053   2.034   1.048   5.238 -1.2193  0.3034  0.7621
   15CHL1   C15 1054   2.165   1.193   5.136  0.1940  0.5205  0.1045
   15CHL1  H15A 1055   2.188   1.293   5.178 -1.0695  0.6365  0.5590
   15CHL1  H15B 1056   2.261   1.137   5.143 -0.9690 -1.9427 -2.0461
   15CHL1   C16 1057   2.097   1.183   4.993 -0.2911 -0.3654  0.5509
   15CHL1  H16A 1058   2.106   1.272   4.926  1.8336 -0.8780  0.0936
   15CHL1  H16B 1059   2.131   1.093   4.939 -0.1143  0.3232 -0.5258
   15CHL1   C17 1060   1.948   1.172   5.028  0.2070  0.4271 -0.4362
   15CHL1   H17 1061   1.926   1.064   5.041  0.1156  0.6138  1.1649
   15CHL1   C13 1062   1.923   1.226   5.176 -0.5971  0.1554  0.0825
   15CHL1   C18 1063   1.932   1.384   5.167  0.5483  0.2873  0.2407
   15CHL1  H18A 1064   1.944   1.424   5.270  0.4775  0.1872  0.2874
   15CHL1  H18B 1065   2.019   1.418   5.106 -1.1502 -0.1118 -2.5690
   15CHL1  H18C 1066   1.837   1.427   5.130  0.2856 -0.0503  0.5213
   15CHL1   C12 1067   1.812   1.184   5.262  0.4856 -0.6696  0.0688
   15CHL1  H12A 1068   1.719   1.240   5.237  0.2956 -0.6992  0.6845
   15CHL1  H12B 1069   1.792   1.075   5.249 -0.3721 -0.3934 -1.1274
   15CHL1   C11 1070   1.833   1.203   5.413 -0.4160 -0.4640 -0.5108
   15CHL1  H11A 1071   1.809   1.310   5.431 -1.7779 -0.9912  1.1087
   15CHL1  H11B 1072   1.762   1.142   5.472 -1.8356  2.5378  1.1191
   15CHL1    C9 1073   1.973   1.154   5.469  0.3169  0.2900 -0.1207
   15CHL1    H9 1074   1.956   1.044   5.467 -3.3632  0.6807  1.3850
   15CHL1   C10 1075   1.992   1.183   5.621  0.9354 -0.6658  0.8145
   15CHL1   C19 1076   1.980   1.336   5.646 -0.4326  0.6792  0.1923
   15CHL1  H19A 1077   1.990   1.353   5.756 -1.7583  0.3043  0.3897
   15CHL1  H19B 1078   2.053   1.397   5.589  0.5907 -0.6675  0.0268
   15CHL1  H19C 1079   1.878   1.368   5.614 -0.5760  0.4277  0.3899
   15CHL1    C1 1080   1.884   1.100   5.706  0.2243 -0.9551 -0.5548
   15CHL1   H1A 1081   1.785   1.138   5.674  1.2932  0.6616 -2.0877
   15CHL1   H1B 1082   1.888   0.992   5.677 -4.0432 -1.6077  0.5831
   15CHL1    C2 1083   1.921   1.101   5.857  0.0093 -0.5689 -0.0502
   15CHL1   H2A 1084   1.851   1.031   5.907 -0.0424 -1.0255 -0.7525
   15CHL1   H2B 1085   1.907   1.204   5.895 -0.5517 -1.0388  1.0638
   15CHL1   C20 1086   1.859   1.221   4.917  0.3367  0.3848 -0.3714
   15CHL1   H20 1087   1.860   1.332   4.927  1.7090  0.1948  2.6427
   15CHL1   C21 1088   1.708   1.175   4.952 -0.7902 -0.1926  0.5440
   15CHL1  H21A 1089   1.635   1.194   4.871 -0.2674 -2.0036 -0.3980
   15CHL1  H21B 1090   1.683   1.236   5.041  2.3759  0.5183  1.0720
   15CHL1  H21C 1091   1.717   1.069   4.983  2.6090 -0.3291 -0.5132
   15CHL1   C22 1092   1.894   1.178   4.772 -0.7447 -0.6168 -0.0814
   15CHL1  H22A 1093   2.000   1.208   4.754 -1.4836  0.5160 -3.0961
   15CHL1  H22B 1094   1.895   1.067   4.767 -1.2374 -0.5893 -0.9628
   15CHL1   C23 1095   1.817   1.250   4.659 -0.1392 -0.5578 -0.9212
   15CHL1  H23A 1096   1.709   1.228   4.675  0.1515 -1.3275  0.0704
   15CHL1  H23B 1097   1.831   1.360   4.663  2.0043 -0.8286  0.0386
   15CHL1   C24 1098   1.845   1.203   4.514  0.3943  0.2333  0.5514
   15CHL1  H24A 1099   1.953   1.226   4.500  0.1816 -0.0472 -2.0516
   15CHL1  H24B 1100   1.826   1.094   4.506 -0.0715  0.3931 -0.7921
   15CHL1   C25 1101   1.758   1.251   4.389 -0.5288 -0.4630  0.6498
   15CHL1   H25 1102   1.779   1.359   4.372 -0.2717 -0.7829 -1.3235
   15CHL1   C26 1103   1.781   1.164   4.265  0.2146 -0.1885 -0.4688
   15CHL1  H26A 1104   1.882   1.163   4.220 -0.0147 -2.1842 -1.0733
   15CHL1  H26B 1105   1.762   1.059   4.298  0.3687  0.2716  1.1855
   15CHL1  H26C 1106   1.705   1.181   4.186  2.2319  1.7497 -2.1133
   15CHL1   C27 1107   1.608   1.240   4.429 -0.7736  0.3873  0.2345
   15CHL1  H27A 1108   1.604   1.310   4.514  2.7706 -0.6967  1.4982
   15CHL1  H27B 1109   1.548   1.290   4.350  0.2283 -0.0686 -0.8526
   15CHL1  H27C 1110   1.582   1.135   4.455 -1.4874  0.4229 -0.3082
   16CHL1    C3 1111   6.325   5.960   6.204  0.4207 -0.0030  0.5935
   16CHL1    H3 1112   6.301   6.063   6.173 -1.6147 -0.7303 -0.4005
   16CHL1    O3 1113   6.324   5.962   6.346  0.9421  0.7504 -0.9381
   16CHL1   H3' 1114   6.325   5.870   6.374 -1.0992  0.2873 -2.1708
   16CHL1    C4 1115   6.232   5.859   6.153  0.6289 -0.2697  0.7512
   16CHL1   H4A 1116   6.249   5.766   6.212 -0.7818 -1.1588 -0.1668
   16CHL1   H4B 1117   6.130   5.895   6.181  1.2092 -0.5247  3.4485
   16CHL1    C5 1118   6.236   5.825   6.001  0.4007 -0.0379  0.2698
   16CHL1    C6 1119   6.122   5.822   5.934  0.1708 -0.7016 -0.0004
   16CHL1    H6 1120   6.026   5.842   5.984 -0.2462  0.1959 -1.1359
   16CHL1    C7 1121   6.113   5.796   5.786 -0.4729  0.8501 -0.3966
   16CHL1   H7A 1122   6.041   5.717   5.757  0.8226 -0.0705 -1.1970
   16CHL1   H7B 1123   6.086   5.890   5.734 -2.2972  2.1372  2.5686
   16CHL1    C8 1124   6.249   5.747   5.720  0.9270 -0.3444 -0.0167
   16CHL1    H8 1125   6.247   5.638   5.741  0.5501  0.0808  2.4957
   16CHL1   C14 1126   6.259   5.777   5.571  0.0400  0.2140 -0.0650
   16CHL1   H14 1127   6.260   5.888   5.558 -0.2570  0.4703  1.7223
   16CHL1   C15 1128   6.147   5.719   5.490 -0.4337  0.3938  0.3707
   16CHL1  H15A 1129   6.138   5.609   5.501  2.8191 -0.0926 -0.7168
   16CHL1  H15B 1130   6.055   5.778   5.509  0.2403  1.3365  0.7486
   16CHL1   C16 1131   6.207   5.740   5.345  0.4152  0.1428  0.0472
   16CHL1  H16A 1132   6.193   5.653   5.277  3.6479  0.5833 -1.3459
   16CHL1  H16B 1133   6.163   5.826   5.290  0.9824  1.6152  1.8207
   16CHL1   C17 1134   6.357   5.778   5.368 -0.0057 -0.1026  0.5967
   16CHL1   H17 1135   6.366   5.888   5.378 -1.4136  0.0315  0.6066
   16CHL1   C13 1136   6.386   5.729   5.507  0.2467  0.3473  0.0423
   16CHL1   C18 1137   6.405   5.573   5.507  0.0068 -0.6025 -0.0297
   16CHL1  H18A 1138   6.340   5.534   5.425 -0.4173  1.1354 -0.5684
   16CHL1  H18B 1139   6.513   5.563   5.484  0.3818  0.3727  1.1979
   16CHL1  H18C 1140   6.368   5.526   5.601 -0.6334 -0.6097 -0.2792
   16CHL1   C12 1141   6.509   5.784   5.581  0.1883 -0.7054  0.8451
   16CHL1  H12A 1142   6.607   5.745   5.546 -0.7358 -0.4694 -2.4157
   16CHL1  H12B 1143   6.501   5.894   5.567 -0.8004 -0.7621  0.8980
   16CHL1   C11 1144   6.508   5.761   5.734 -0.2577  0.4270  0.3676
   16CHL1  H11A 1145   6.513   5.650   5.742 -0.2899  0.1928 -2.0174
   16CHL1  H11B 1146   6.609   5.795   5.766  0.3393  0.1737 -1.1430
   16CHL1    C9 1147   6.372   5.812   5.793 -0.0825  0.0566  0.0319
   16CHL1    H9 1148   6.358   5.919   5.766  0.2600  0.4975  1.5441
   16CHL1   C10 1149   6.378   5.799   5.944  0.3131  0.0024 -0.4572
   16CHL1   C19 1150   6.433   5.659   5.984 -0.2251  0.1613  0.5547
   16CHL1  H19A 1151   6.541   5.652   5.959 -0.6537 -1.1277 -1.1096
   16CHL1  H19B 1152   6.438   5.642   6.094  2.8682 -1.3290  0.3035
   16CHL1  H19C 1153   6.377   5.572   5.944 -1.6808 -0.1749  3.0949
   16CHL1    C1 1154   6.472   5.911   6.003  0.2847  0.1955 -0.5012
   16CHL1   H1A 1155   6.579   5.891   5.982  0.2575  0.2338 -0.6775
   16CHL1   H1B 1156   6.438   6.005   5.955 -1.4549 -1.2406 -2.2544
   16CHL1    C2 1157   6.468   5.935   6.157 -0.0404  0.2663 -0.0707
   16CHL1   H2A 1158   6.527   6.029   6.163  2.1503 -0.6625 -3.7870
   16CHL1   H2B 1159   6.516   5.852   6.213 -0.5875 -1.1947 -1.6520
   16CHL1   C20 1160   6.461   5.746   5.256  0.0609 -0.1834 -0.0195
   16CHL1   H20 1161   6.494   5.644   5.286 -1.2732 -0.4067  0.7656
   16CHL1   C21 1162   6.573   5.846   5.249  0.8225 -0.2171 -0.1706
   16CHL1  H21A 1163   6.662   5.812   5.191  0.9183 -0.5523  0.1639
   16CHL1  H21B 1164   6.613   5.857   5.352 -0.6794  1.9273  0.2326
   16CHL1  H21C 1165   6.542   5.946   5.214  0.1215 -0.8876 -1.5595
   16CHL1   C22 1166   6.393   5.723   5.116  0.5857 -0.1201 -0.0988
   16CHL1  H22A 1167   6.321   5.640   5.134  0.2883  0.4470  1.5623
   16CHL1  H22B 1168   6.345   5.815   5.076  1.5325  0.3100 -0.2724
   16CHL1   C23 1169   6.495   5.663   5.008 -0.4075 -0.5413 -0.1931
   16CHL1  H23A 1170   6.585   5.728   5.005 -0.8121  0.0611  0.4417
   16CHL1  H23B 1171   6.527   5.562   5.043  1.6303 -0.1260 -0.7349
   16CHL1   C24 1172   6.439   5.639   4.864  0.3651 -0.1794  0.6841
   16CHL1  H24A 1173   6.364   5.557   4.860 -1.0538  1.0848  0.4145
   16CHL1  H24B 1174   6.382   5.729   4.832  1.8321  0.4759 -0.2096
   16CHL1   C25 1175   6.541   5.610   4.759  0.5786 -0.2402 -0.4079
   16CHL1   H25 1176   6.642   5.639   4.798  0.4948  0.0213 -0.3815
   16CHL1   C26 1177   6.542   5.462   4.736  0.2450  0.0542  0.6465
   16CHL1  H26A 1178   6.567   5.409   4.831  1.3742  1.8757  1.4164
   16CHL1  H26B 1179   6.440   5.426   4.710 -0.1035 -0.0584  2.0757
   16CHL1  H26C 1180   6.615   5.424   4.661 -1.1543 -1.5852  0.0301
   16CHL1   C27 1181   6.517   5.691   4.626 -0.0022 -0.1675  0.2408
   16CHL1  H27A 1182   6.509   5.800   4.646 -0.2433 -0.6296  3.1405
   16CHL1  H27B 1183   6.601   5.678   4.554 -0.8526 -0.1454 -0.7837
   16CHL1  H27C 1184   6.418   5.668   4.580  0.4109 -0.3021 -0.6067
   17CHL1    C3 1185   6.353   2.879   6.237 -0.4683 -0.0601  0.1681
   17CHL1    H3 1186   6.320   2.787   6.183 -1.6026 -0.2111  1.0862
   17CHL1    O3 1187   6.345   2.862   6.378 -0.0800 -0.2127  0.1264
   17CHL1   H3' 1188   6.389   2.946   6.392 -0.1367  0.0819 -1.2587
   17CHL1    C4 1189   6.497   2.914   6.195 -0.3010 -0.7254 -0.4457
   17CHL1   H4A 1190   6.527   3.007   6.248  1.8891 -1.9229  0.5874
   17CHL1   H4B 1191   6.564   2.830   6.226  0.7223 -1.1770 -3.5105
   17CHL1    C5 1192   6.517   2.941   6.046  0.0358 -0.0653 -0.1782
   17CHL1    C6 1193   6.596   2.860   5.973 -0.0434  0.3204 -0.1017
   17CHL1    H6 1194   6.655   2.783   6.025  0.6249  0.0339 -1.2474
   17CHL1    C7 1195   6.618   2.872   5.824 -0.5029  0.2504 -0.0705
   17CHL1   H7A 1196   6.725   2.862   5.796 -0.6911  2.4913 -1.9833
   17CHL1   H7B 1197   6.571   2.787   5.771  2.7577 -0.6287 -1.8583
   17CHL1    C8 1198   6.559   2.995   5.763 -0.8155 -0.6308  0.5219
   17CHL1    H8 1199   6.628   3.079   5.784 -2.7659  0.8160  1.3833
   17CHL1   C14 1200   6.547   2.972   5.612  0.6271 -0.3670 -0.2031
   17CHL1   H14 1201   6.472   2.893   5.594 -0.5980  0.9444 -1.0819
   17CHL1   C15 1202   6.672   2.923   5.539  0.6141 -0.0229 -0.5514
   17CHL1  H15A 1203   6.762   2.976   5.576 -0.2927  1.8339 -0.8870
   17CHL1  H15B 1204   6.680   2.815   5.564 -0.6767 -0.6145 -2.4787
   17CHL1   C16 1205   6.636   2.953   5.398 -0.1376  0.1541  0.4995
   17CHL1  H16A 1206   6.714   3.017   5.351 -0.3385 -0.7943 -1.1858
   17CHL1  H16B 1207   6.635   2.867   5.328 -1.1471  1.2737 -0.9263
   17CHL1   C17 1208   6.503   3.028   5.398  0.0456  0.0054  0.0370
   17CHL1   H17 1209   6.418   2.957   5.395 -1.2367  1.2543  2.8505
   17CHL1   C13 1210   6.489   3.094   5.541 -0.1139  0.1101  0.2286
   17CHL1   C18 1211   6.581   3.212   5.551  0.1890 -0.0605  0.4095
   17CHL1  H18A 1212   6.674   3.206   5.491 -1.2218 -2.3486 -1.6988
   17CHL1  H18B 1213   6.527   3.302   5.514  0.8194  0.0113 -0.3479
   17CHL1  H18C 1214   6.603   3.237   5.657 -0.2512 -0.7125  0.6552
   17CHL1   C12 1215   6.344   3.125   5.608 -0.5549 -0.3837  0.1061
   17CHL1  H12A 1216   6.305   3.214   5.554  3.6137  1.0623 -0.9562
   17CHL1  H12B 1217   6.289   3.031   5.587  0.0698 -0.8537  0.5293
   17CHL1   C11 1218   6.347   3.148   5.753  0.3315  0.0118 -0.0069
   17CHL1  H11A 1219   6.400   3.244   5.771  0.2878  0.2033 -0.8644
   17CHL1  H11B 1220   6.240   3.161   5.781  0.0929 -0.0843 -0.8423
   17CHL1    C9 1221   6.424   3.033   5.828 -0.2300  0.6839  0.5003
   17CHL1    H9 1222   6.356   2.951   5.798  0.1014  0.5056  0.2253
   17CHL1   C10 1223   6.420   3.041   5.982 -0.1828  0.1156 -0.6354
   17CHL1   C19 1224   6.481   3.173   6.038  0.0123 -0.4740  0.7990
   17CHL1  H19A 1225   6.430   3.260   5.991  1.2457 -0.7350 -1.1091
   17CHL1  H19B 1226   6.488   3.181   6.149  2.6199  0.3553  0.6328
   17CHL1  H19C 1227   6.589   3.182   6.012 -0.4798 -1.9350 -2.2171
   17CHL1    C1 1228   6.280   3.024   6.039  0.7156 -0.5025 -0.3765
   17CHL1   H1A 1229   6.228   3.122   6.036  1.2789 -0.1675  0.5378
   17CHL1   H1B 1230   6.221   2.946   5.986 -0.2028 -0.0974  0.0235
   17CHL1    C2 1231   6.264   2.988   6.188 -0.1765  0.7861  0.8760
   17CHL1   H2A 1232   6.158   2.964   6.210 -0.1648  0.0259  0.1556
   17CHL1   H2B 1233   6.294   3.079   6.244 -0.0746  1.9761 -1.0223
   17CHL1   C20 1234   6.473   3.122   5.280 -0.4130  0.3453 -0.1905
   17CHL1   H20 1235   6.492   3.229   5.306  0.6620  0.9267 -3.0216
   17CHL1   C21 1236   6.328   3.098   5.237 -0.0051 -0.2852 -0.3662
   17CHL1  H21A 1237   6.262   3.140   5.317  2.2187  2.9294 -0.0199
   17CHL1  H21B 1238   6.309   2.998   5.192  0.4152 -0.0507 -1.0757
   17CHL1  H21C 1239   6.288   3.159   5.152  0.0885  0.7840  0.3310
   17CHL1   C22 1240   6.562   3.114   5.145 -0.1253 -0.1213 -0.7075
   17CHL1  H22A 1241   6.663   3.153   5.170  0.3280 -1.8790  0.3329
   17CHL1  H22B 1242   6.570   3.017   5.093  2.4544  0.0909 -0.8190
   17CHL1   C23 1243   6.517   3.224   5.038  0.0901  0.8696 -0.5396
   17CHL1  H23A 1244   6.419   3.196   4.995  0.3883  1.5413 -1.7121
   17CHL1  H23B 1245   6.508   3.319   5.095 -0.3929  1.2426 -1.2302
   17CHL1   C24 1246   6.618   3.240   4.930 -0.1822  0.0599  0.0279
   17CHL1  H24A 1247   6.707   3.297   4.965 -1.2665  3.1483 -1.7959
   17CHL1  H24B 1248   6.645   3.138   4.896  0.6038 -1.3248  4.1824
   17CHL1   C25 1249   6.570   3.342   4.823 -0.4359  1.2261  0.3208
   17CHL1   H25 1250   6.540   3.438   4.870  1.0078  0.4739  2.9622
   17CHL1   C26 1251   6.690   3.365   4.717 -0.2934  0.0009 -0.2119
   17CHL1  H26A 1252   6.699   3.267   4.666  2.2944 -0.7418  1.4602
   17CHL1  H26B 1253   6.660   3.439   4.639 -2.5201 -0.1064  0.4897
   17CHL1  H26C 1254   6.789   3.383   4.765  1.7495 -3.6669 -2.5490
   17CHL1   C27 1255   6.445   3.290   4.743  0.1039  0.0937  0.4692
   17CHL1  H27A 1256   6.346   3.282   4.792  0.5625 -1.2162  1.2334
   17CHL1  H27B 1257   6.441   3.350   4.650 -2.6293 -1.0274 -0.2537
   17CHL1  H27C 1258   6.474   3.191   4.702  0.7141  0.8359 -0.9800
   18CHL1    C3 1259   6.543   6.545   6.272 -0.0858 -0.3529 -0.5332
   18CHL1    H3 1260   6.499   6.622   6.206 -1.4075  1.0754  1.8799
   18CHL1    O3 1261   6.529   6.571   6.409 -0.1383  0.8764 -0.1055
   18CHL1   H3' 1262   6.558   6.488   6.446 -2.8895 -1.3119 -2.3722
   18CHL1    C4 1263   6.493   6.404   6.237 -0.4012  1.0194  0.0352
   18CHL1   H4A 1264   6.539   6.333   6.309 -1.0495 -0.0705 -0.5919
   18CHL1   H4B 1265   6.385   6.413   6.263  0.6297  1.0695  5.3529
   18CHL1    C5 1266   6.522   6.371   6.098  0.7027  0.3122  0.9277
   18CHL1    C6 1267   6.416   6.354   6.016  0.0293 -0.4803 -0.0481
   18CHL1    H6 1268   6.316   6.363   6.060  0.2345 -1.3324  0.6148
   18CHL1    C7 1269   6.440   6.334   5.867  0.1778  0.2072 -0.6209
   18CHL1   H7A 1270   6.379   6.257   5.814  0.7340 -1.1070  0.5717
   18CHL1   H7B 1271   6.416   6.430   5.818 -2.0700  0.2848  0.4949
   18CHL1    C8 1272   6.586   6.293   5.824 -0.6001  0.0851 -0.1931
   18CHL1    H8 1273   6.622   6.197   5.865 -1.3396 -0.1854 -0.1696
   18CHL1   C14 1274   6.602   6.294   5.672  0.9720  0.2314 -0.4514
   18CHL1   H14 1275   6.587   6.402   5.649 -1.7941  0.1948  0.7988
   18CHL1   C15 1276   6.511   6.211   5.581 -0.3909 -0.3926 -0.5329
   18CHL1  H15A 1277   6.501   6.104   5.612  0.6526 -0.0811  0.9758
   18CHL1  H15B 1278   6.413   6.262   5.577  0.3669  1.3519  1.2262
   18CHL1   C16 1279   6.587   6.218   5.439 -0.4433  0.0467 -0.3784
   18CHL1  H16A 1280   6.592   6.114   5.403 -2.0993 -0.3032  0.3143
   18CHL1  H16B 1281   6.549   6.298   5.372  3.1787  2.2171 -0.1087
   18CHL1   C17 1282   6.730   6.273   5.468 -0.0835 -0.4208  0.6617
   18CHL1   H17 1283   6.722   6.379   5.437  1.0717 -0.6339 -0.4749
   18CHL1   C13 1284   6.746   6.266   5.621 -0.0759  0.2961  0.0389
   18CHL1   C18 1285   6.805   6.129   5.663  0.3514 -0.3870  0.0056
   18CHL1  H18A 1286   6.771   6.060   5.582  2.1034 -0.6711 -0.5256
   18CHL1  H18B 1287   6.914   6.140   5.648  0.3556  1.1015  0.9506
   18CHL1  H18C 1288   6.782   6.099   5.767 -0.9957  0.5000 -0.0138
   18CHL1   C12 1289   6.833   6.373   5.685 -0.1153 -0.1893  0.2439
   18CHL1  H12A 1290   6.940   6.355   5.663 -0.1343 -0.8111  0.6341
   18CHL1  H12B 1291   6.802   6.468   5.636  1.2092 -0.8530 -2.0242
   18CHL1   C11 1292   6.828   6.378   5.843  0.3727 -0.1822  0.4032
   18CHL1  H11A 1293   6.887   6.298   5.893  1.8758  0.4025 -0.3813
   18CHL1  H11B 1294   6.877   6.474   5.869 -1.7307  0.6196  1.7192
   18CHL1    C9 1295   6.681   6.394   5.892 -0.6737  0.0748 -0.0977
   18CHL1    H9 1296   6.646   6.493   5.856 -1.4522  0.7202  2.2066
   18CHL1   C10 1297   6.665   6.395   6.047 -0.5622 -0.0711 -0.4570
   18CHL1   C19 1298   6.741   6.271   6.106  0.3079 -0.3773 -0.2685
   18CHL1  H19A 1299   6.708   6.178   6.056  1.2740 -0.8278 -0.0774
   18CHL1  H19B 1300   6.851   6.279   6.098  0.6333 -2.0077  1.7218
   18CHL1  H19C 1301   6.724   6.255   6.215  0.5293 -1.5144 -0.3951
   18CHL1    C1 1302   6.740   6.523   6.106  0.0517 -0.5359 -0.2333
   18CHL1   H1A 1303   6.850   6.522   6.092  0.2621  1.3397  0.9456
   18CHL1   H1B 1304   6.694   6.613   6.059 -1.3925 -0.9131  0.3871
   18CHL1    C2 1305   6.698   6.553   6.251 -0.0651 -0.4368  0.5189
   18CHL1   H2A 1306   6.735   6.646   6.299  2.4072 -0.9601 -0.2383
   18CHL1   H2B 1307   6.749   6.477   6.314 -0.4385 -0.6753  0.5348
   18CHL1   C20 1308   6.834   6.213   5.376 -1.3445 -0.4867 -0.1878
   18CHL1   H20 1309   6.851   6.107   5.408 -0.7173 -0.5958 -0.8519
   18CHL1   C21 1310   6.975   6.286   5.394 -0.0235 -0.4206 -0.2225
   18CHL1  H21A 1311   7.020   6.275   5.495  0.7390  1.9726 -0.2530
   18CHL1  H21B 1312   6.960   6.395   5.384  1.5824  0.1150  2.2636
   18CHL1  H21C 1313   7.055   6.250   5.327  0.3167  1.0988 -0.6503
   18CHL1   C22 1314   6.804   6.208   5.226  0.1681 -0.0682 -0.3111
   18CHL1  H22A 1315   6.694   6.200   5.210 -0.1076 -0.4082  1.4896
   18CHL1  H22B 1316   6.836   6.307   5.187 -0.1006  0.6556  1.1981
   18CHL1   C23 1317   6.877   6.091   5.163  0.5137 -0.1086  0.0834
   18CHL1  H23A 1318   6.987   6.101   5.158  0.8805 -3.1115  0.0784
   18CHL1  H23B 1319   6.852   5.991   5.204  1.4901 -0.7096 -0.7344
   18CHL1   C24 1320   6.839   6.078   5.014  0.9818 -0.2729  0.1507
   18CHL1  H24A 1321   6.732   6.094   4.991  1.6029  1.7724 -1.8004
   18CHL1  H24B 1322   6.890   6.162   4.960 -0.9941  0.1116 -1.2036
   18CHL1   C25 1323   6.899   5.949   4.954 -0.3179  0.5699 -0.0713
   18CHL1   H25 1324   6.902   5.879   5.041 -0.9046 -1.0392 -1.2833
   18CHL1   C26 1325   6.818   5.895   4.836 -0.5116  0.0845 -0.8327
   18CHL1  H26A 1326   6.836   5.976   4.763  0.6826  1.5985  1.0256
   18CHL1  H26B 1327   6.867   5.797   4.813  0.9161  0.5302  0.1531
   18CHL1  H26C 1328   6.708   5.893   4.847 -0.5182 -1.3301 -0.8699
   18CHL1   C27 1329   7.039   5.978   4.901  0.2576  0.1207  0.0899
   18CHL1  H27A 1330   7.035   6.033   4.805  0.8868  0.1130  0.0593
   18CHL1  H27B 1331   7.093   6.041   4.976  0.1413  1.9792 -1.3191
   18CHL1  H27C 1332   7.091   5.880   4.893 -2.8982 -1.6428 -0.5707
   19CHL1    C3 1333   5.440   3.778   5.776  0.0241  0.1014 -0.1260
   19CHL1    H3 1334   5.339   3.794   5.731 -0.3256 -0.5280  0.4174
   19CHL1    O3 1335   5.424   3.748   5.910  0.3220  0.3026 -0.8192
   19CHL1   H3' 1336   5.424   3.652   5.913  0.7083  0.3068 -0.6281
   19CHL1    C4 1337   5.511   3.664   5.701 -0.2733 -0.2771  0.1036
   19CHL1   H4A 1338   5.594   3.639   5.771 -2.4967 -0.5232  2.8008
   19CHL1   H4B 1339   5.443   3.576   5.698 -0.7751  0.1221 -0.6358
   19CHL1    C5 1340   5.562   3.706   5.558 -0.3258 -0.4739  0.2327
   19CHL1    C6 1341   5.548   3.622   5.457  0.5005 -0.8627  0.2061
   19CHL1    H6 1342   5.502   3.525   5.480  0.8426 -0.3702  3.3846
   19CHL1    C7 1343   5.605   3.652   5.319 -0.2706  0.2175  0.0062
   19CHL1   H7A 1344   5.653   3.560   5.279  1.3114  0.7914  0.5304
   19CHL1   H7B 1345   5.523   3.676   5.248  0.4179  2.6494 -0.0643
   19CHL1    C8 1346   5.705   3.767   5.314  0.7970 -0.3889 -0.3976
   19CHL1    H8 1347   5.806   3.738   5.349  0.4343  0.1682  1.1799
   19CHL1   C14 1348   5.714   3.812   5.161  0.3142  0.2411 -1.4771
   19CHL1   H14 1349   5.609   3.843   5.138 -1.1766  0.0964  3.8771
   19CHL1   C15 1350   5.743   3.699   5.052  0.1913  1.3876  0.3222
   19CHL1  H15A 1351   5.823   3.630   5.085 -0.7122 -0.2400 -0.7781
   19CHL1  H15B 1352   5.650   3.646   5.024 -0.3172  0.7674  2.8613
   19CHL1   C16 1353   5.790   3.791   4.931 -0.2800 -0.4174 -0.1836
   19CHL1  H16A 1354   5.895   3.758   4.917 -0.3250  0.3655 -3.3404
   19CHL1  H16B 1355   5.728   3.778   4.839 -0.9323  2.4796 -0.2732
   19CHL1   C17 1356   5.794   3.934   4.991  0.6776  0.8751 -0.3030
   19CHL1   H17 1357   5.690   3.970   4.975  0.6474  1.5429  1.2469
   19CHL1   C13 1358   5.808   3.925   5.143  0.8536 -0.2910  0.2167
   19CHL1   C18 1359   5.950   3.891   5.193 -0.3155 -0.9924  0.2495
   19CHL1  H18A 1360   5.983   3.800   5.137  0.0898  0.3716 -1.8580
   19CHL1  H18B 1361   6.025   3.972   5.177  0.7523 -1.4626  2.4462
   19CHL1  H18C 1362   5.955   3.867   5.301  1.1122 -2.4017 -0.0890
   19CHL1   C12 1363   5.752   4.050   5.221  0.1054  0.5114 -0.0068
   19CHL1  H12A 1364   5.828   4.131   5.224 -0.8871  1.4134  1.4956
   19CHL1  H12B 1365   5.664   4.078   5.159 -0.4271 -2.1021 -0.5661
   19CHL1   C11 1366   5.728   4.014   5.367 -0.4891  0.0578  0.3433
   19CHL1  H11A 1367   5.826   4.002   5.418 -2.1223 -2.2228  3.2342
   19CHL1  H11B 1368   5.685   4.109   5.406 -0.0356  0.6497 -0.5461
   19CHL1    C9 1369   5.650   3.886   5.399  0.2064  0.7702 -0.3616
   19CHL1    H9 1370   5.551   3.914   5.357 -0.3506 -2.8938 -1.8478
   19CHL1   C10 1371   5.636   3.845   5.549  0.2281 -0.0256 -0.2687
   19CHL1   C19 1372   5.772   3.819   5.611 -1.2679  0.1793 -0.0749
   19CHL1  H19A 1373   5.835   3.911   5.612  2.3733 -2.1150 -0.3979
   19CHL1  H19B 1374   5.757   3.791   5.718 -0.2571 -1.9389 -0.4488
   19CHL1  H19C 1375   5.830   3.736   5.566 -0.3238  0.4529  0.5944
   19CHL1    C1 1376   5.557   3.952   5.627 -0.2583 -0.0895  0.2148
   19CHL1   H1A 1377   5.622   4.042   5.630 -0.4139  0.0066  1.1194
   19CHL1   H1B 1378   5.461   3.972   5.575 -1.4840 -1.1461  1.9684
   19CHL1    C2 1379   5.515   3.909   5.768 -0.8523  0.3383 -0.2314
   19CHL1   H2A 1380   5.459   3.993   5.814 -0.3037 -0.9422  3.0371
   19CHL1   H2B 1381   5.600   3.897   5.839 -0.1724  0.7132 -0.9549
   19CHL1   C20 1382   5.887   4.042   4.923 -0.1774  0.2775 -0.2752
   19CHL1   H20 1383   5.943   4.094   5.003 -0.3831 -1.2555  0.9000
   19CHL1   C21 1384   5.802   4.150   4.859 -0.0322 -0.0587 -0.1784
   19CHL1  H21A 1385   5.744   4.108   4.774  0.9456 -1.6948 -0.0878
   19CHL1  H21B 1386   5.863   4.238   4.830  2.2132 -0.7666  2.0668
   19CHL1  H21C 1387   5.736   4.197   4.936 -2.5916  0.8274 -2.7238
   19CHL1   C22 1388   5.990   3.986   4.822 -0.3869 -0.8552  0.0220
   19CHL1  H22A 1389   6.062   3.921   4.878  0.9962 -1.1603 -1.9852
   19CHL1  H22B 1390   5.951   3.927   4.736  1.0378 -0.8486 -0.6614
   19CHL1   C23 1391   6.076   4.098   4.752 -0.1530 -0.0671 -0.7165
   19CHL1  H23A 1392   6.013   4.169   4.694  0.1015 -0.2702 -1.2503
   19CHL1  H23B 1393   6.113   4.159   4.836  0.1503 -0.8223 -0.2940
   19CHL1   C24 1394   6.188   4.036   4.666 -0.0291 -0.2653 -0.7286
   19CHL1  H24A 1395   6.262   3.987   4.732  2.7350  3.1514 -1.0458
   19CHL1  H24B 1396   6.135   3.960   4.604 -4.1997  0.7070  1.2441
   19CHL1   C25 1397   6.258   4.141   4.576  0.3825  0.0771 -0.1000
   19CHL1   H25 1398   6.259   4.244   4.618  1.2058 -0.0958  0.3163
   19CHL1   C26 1399   6.400   4.102   4.564  0.5156 -0.4633 -0.1534
   19CHL1  H26A 1400   6.454   4.153   4.481  0.2673  1.1808  0.6595
   19CHL1  H26B 1401   6.457   4.126   4.656  0.8250 -1.6618 -0.0219
   19CHL1  H26C 1402   6.408   3.993   4.548 -0.9437 -0.6030 -0.0903
   19CHL1   C27 1403   6.196   4.153   4.435 -0.4179  0.0020  0.1470
   19CHL1  H27A 1404   6.250   4.238   4.388 -0.1775  0.6138  1.4955
   19CHL1  H27B 1405   6.199   4.054   4.384  1.6960  0.2701 -0.3305
   19CHL1  H27C 1406   6.092   4.192   4.428 -0.9819 -1.5761 -0.6861
   20CHL1    C3 1407   3.645   1.112   6.245 -0.1413  1.2101  0.0469
   20CHL1    H3 1408   3.721   1.188   6.216  1.2725 -0.1113  0.1398
   20CHL1    O3 1409   3.668   1.095   6.383  0.1765 -0.1611  0.2827
   20CHL1   H3' 1410   3.761   1.076   6.397 -0.0544 -2.2340 -0.4975
   20CHL1    C4 1411   3.507   1.153   6.200  0.6797  0.1605  0.6208
   20CHL1   H4A 1412   3.439   1.069   6.227 -1.0165  1.0256 -0.7520
   20CHL1   H4B 1413   3.465   1.238   6.258  0.4440 -0.2826  1.1084
   20CHL1    C5 1414   3.507   1.167   6.049 -0.0892  0.4513  0.4230
   20CHL1    C6 1415   3.468   1.284   5.991  0.0184 -0.1526 -0.7865
   20CHL1    H6 1416   3.431   1.367   6.054 -2.6295 -1.5783 -0.2956
   20CHL1    C7 1417   3.471   1.306   5.842 -0.0030 -0.5214  0.2483
   20CHL1   H7A 1418   3.376   1.353   5.807  1.0866 -0.1843 -2.4849
   20CHL1   H7B 1419   3.550   1.379   5.816 -1.0994  0.2211 -1.1458
   20CHL1    C8 1420   3.478   1.170   5.762  0.1293 -0.4415 -0.1012
   20CHL1    H8 1421   3.381   1.118   5.776  1.5490 -2.7750  1.7765
   20CHL1   C14 1422   3.507   1.202   5.622  0.9933 -0.0764  0.0793
   20CHL1   H14 1423   3.611   1.242   5.619  0.5013  1.3679  1.3338
   20CHL1   C15 1424   3.431   1.314   5.548 -0.2558  0.5248 -1.0844
   20CHL1  H15A 1425   3.321   1.309   5.566  0.0442 -0.6545  0.7097
   20CHL1  H15B 1426   3.470   1.414   5.575 -1.6241  0.5564  0.9339
   20CHL1   C16 1427   3.466   1.280   5.402 -0.4977 -0.3280 -0.2421
   20CHL1  H16A 1428   3.364   1.275   5.358 -0.6957 -0.5611  0.2452
   20CHL1  H16B 1429   3.512   1.365   5.346 -1.5710 -1.0422 -2.3157
   20CHL1   C17 1430   3.543   1.148   5.396  0.7618  0.1867  0.1844
   20CHL1   H17 1431   3.647   1.187   5.399  1.5749 -1.9234  0.6146
   20CHL1   C13 1432   3.516   1.080   5.526 -0.0338 -0.1278  0.0212
   20CHL1   C18 1433   3.376   1.017   5.521  0.2935 -0.2796 -0.3879
   20CHL1  H18A 1434   3.378   0.924   5.460  2.9386  0.9941 -2.4421
   20CHL1  H18B 1435   3.349   0.978   5.622  3.3507 -1.6944  0.0025
   20CHL1  H18C 1436   3.301   1.090   5.484  0.7349  0.8461  0.8489
   20CHL1   C12 1437   3.630   0.994   5.583  0.0725  0.4651 -0.0817
   20CHL1  H12A 1438   3.649   0.907   5.517  3.0299  0.7481  0.2758
   20CHL1  H12B 1439   3.726   1.050   5.578 -0.4867  1.3151 -2.0236
   20CHL1   C11 1440   3.619   0.946   5.735 -0.1758  0.5743  0.1285
   20CHL1  H11A 1441   3.528   0.882   5.736 -0.0811  0.4361  0.0134
   20CHL1  H11B 1442   3.715   0.893   5.757  0.6979  2.1518  0.2103
   20CHL1    C9 1443   3.583   1.066   5.819 -0.5346 -0.0149  0.6347
   20CHL1    H9 1444   3.676   1.128   5.822  0.8925 -1.9568 -0.9495
   20CHL1   C10 1445   3.559   1.036   5.966 -0.1270 -0.5544 -0.7325
   20CHL1   C19 1446   3.446   0.933   5.975 -0.2530 -0.0016  0.7491
   20CHL1  H19A 1447   3.481   0.834   5.940  1.7850  0.4042  1.4761
   20CHL1  H19B 1448   3.404   0.927   6.078  0.1823  0.2713  0.9480
   20CHL1  H19C 1449   3.357   0.972   5.920 -0.6539  1.2742  2.2187
   20CHL1    C1 1450   3.692   1.000   6.029 -0.2688  0.0851  0.2545
   20CHL1   H1A 1451   3.723   0.905   5.980  0.7622  0.3790  0.3145
   20CHL1   H1B 1452   3.766   1.073   5.992  0.2897 -0.6316 -0.0738
   20CHL1    C2 1453   3.693   0.982   6.180  0.0562  0.6492  1.2371
   20CHL1   H2A 1454   3.792   0.947   6.214  0.9181  0.0676 -1.5876
   20CHL1   H2B 1455   3.613   0.909   6.206 -1.0318  1.1417 -0.5353
   20CHL1   C20 1456   3.533   1.064   5.266 -0.2020  0.1542  0.3447
   20CHL1   H20 1457   3.450   0.991   5.278 -0.9041  1.2908  3.3457
   20CHL1   C21 1458   3.664   0.982   5.250 -0.0490 -0.2249  0.4978
   20CHL1  H21A 1459   3.748   1.048   5.220  3.0798 -3.5045  1.4607
   20CHL1  H21B 1460   3.650   0.912   5.165 -1.2964  1.8703 -1.1320
   20CHL1  H21C 1461   3.700   0.927   5.340  0.4503  0.5435  0.7759
   20CHL1   C22 1462   3.497   1.146   5.141 -0.6911 -0.4439  0.0504
   20CHL1  H22A 1463   3.390   1.174   5.142 -0.5251  0.2761 -0.9235
   20CHL1  H22B 1464   3.547   1.245   5.135 -1.1451 -0.2696 -0.9884
   20CHL1   C23 1465   3.506   1.067   5.010 -0.2590 -0.1936 -0.6047
   20CHL1  H23A 1466   3.614   1.058   4.987 -0.4095  1.1623 -2.0501
   20CHL1  H23B 1467   3.460   0.968   5.030  0.3233 -0.3777 -0.1589
   20CHL1   C24 1468   3.427   1.135   4.896  0.2299  0.2973 -0.1678
   20CHL1  H24A 1469   3.322   1.150   4.928  1.1560  1.0313  2.9413
   20CHL1  H24B 1470   3.475   1.235   4.883  0.4813  0.0286 -1.3842
   20CHL1   C25 1471   3.425   1.047   4.767 -0.8454 -0.5051  0.0666
   20CHL1   H25 1472   3.401   1.124   4.690  0.1125  1.9755  2.1116
   20CHL1   C26 1473   3.560   0.980   4.731  0.7319  0.4272  0.5949
   20CHL1  H26A 1474   3.646   1.050   4.741  0.4190  0.7297  1.2115
   20CHL1  H26B 1475   3.573   0.885   4.786 -0.5429 -0.0301  0.1593
   20CHL1  H26C 1476   3.552   0.952   4.623 -1.5027 -1.5853  1.2059
   20CHL1   C27 1477   3.310   0.942   4.782  0.1468  0.2147  0.5792
   20CHL1  H27A 1478   3.338   0.872   4.863 -0.2404 -1.4556 -0.6837
   20CHL1  H27B 1479   3.212   0.990   4.802  0.6076  0.5658  2.0810
   20CHL1  H27C 1480   3.313   0.884   4.687  2.8602  1.9018 -0.5002
   21CHL1    C3 1481   4.083   1.493   6.398 -0.3830 -0.4834  0.6128
   21CHL1    H3 1482   4.184   1.447   6.388 -0.8868 -1.6113  0.4848
   21CHL1    O3 1483   4.070   1.516   6.539 -0.2393  0.2741  0.4355
   21CHL1   H3' 1484   4.143   1.574   6.562 -1.3589  1.3025  1.5766
   21CHL1    C4 1485   4.062   1.621   6.317 -0.5985 -0.1961  0.1032
   21CHL1   H4A 1486   3.967   1.673   6.340  0.2479  2.1527 -1.3757
   21CHL1   H4B 1487   4.144   1.685   6.355 -0.7957 -0.7868  1.6225
   21CHL1    C5 1488   4.063   1.602   6.167  0.6067  0.3357 -0.1160
   21CHL1    C6 1489   4.139   1.673   6.088  0.4148  0.0146  0.5518
   21CHL1    H6 1490   4.212   1.746   6.124  2.1984 -0.4050 -1.9296
   21CHL1    C7 1491   4.134   1.658   5.942  0.0661 -0.6128 -0.5118
   21CHL1   H7A 1492   4.147   1.758   5.895  0.1072  0.1225  1.0054
   21CHL1   H7B 1493   4.226   1.596   5.931 -1.4158 -3.0225 -0.0518
   21CHL1    C8 1494   4.008   1.589   5.890 -0.0581 -0.0882  0.1251
   21CHL1    H8 1495   3.919   1.656   5.893 -0.2606 -0.3749  1.2011
   21CHL1   C14 1496   4.033   1.558   5.742 -0.0185 -0.5339 -0.9323
   21CHL1   H14 1497   4.121   1.490   5.745 -1.4822 -2.4844  0.2647
   21CHL1   C15 1498   4.060   1.680   5.646  0.0043 -0.7575  0.0593
   21CHL1  H15A 1499   3.987   1.762   5.662 -0.7935 -1.2227 -1.0342
   21CHL1  H15B 1500   4.156   1.733   5.657 -0.6514  0.9034 -1.5620
   21CHL1   C16 1501   4.047   1.622   5.501  0.7383  0.1248  0.0039
   21CHL1  H16A 1502   3.978   1.681   5.437  2.0354  0.8651 -0.7495
   21CHL1  H16B 1503   4.147   1.623   5.453  0.7979 -2.1503 -0.0315
   21CHL1   C17 1504   3.991   1.476   5.528 -0.2242 -0.7792  0.0018
   21CHL1   H17 1505   4.089   1.423   5.536  0.7147  1.0485  1.5066
   21CHL1   C13 1506   3.928   1.472   5.673  0.1118 -0.5813  0.3869
   21CHL1   C18 1507   3.787   1.542   5.677 -0.6321 -0.2078  0.3892
   21CHL1  H18A 1508   3.761   1.570   5.782 -1.3061 -0.6658  0.3493
   21CHL1  H18B 1509   3.796   1.635   5.617 -1.5534  0.7691  1.7041
   21CHL1  H18C 1510   3.706   1.477   5.639 -1.8409  1.6763 -0.4153
   21CHL1   C12 1511   3.916   1.336   5.747  0.2008  0.2767 -0.5061
   21CHL1  H12A 1512   3.833   1.271   5.712 -2.3242  0.1560  4.6464
   21CHL1  H12B 1513   4.011   1.279   5.738  1.1013  1.4086  1.2296
   21CHL1   C11 1514   3.890   1.358   5.898 -0.2894  0.0309 -0.3226
   21CHL1  H11A 1515   3.785   1.386   5.921  0.1935  0.4819  1.5068
   21CHL1  H11B 1516   3.900   1.259   5.946 -0.1782 -0.6277 -1.6441
   21CHL1    C9 1517   3.991   1.459   5.972  0.6825 -0.2018 -0.0105
   21CHL1    H9 1518   4.092   1.413   5.977  0.1049 -1.6329 -0.7707
   21CHL1   C10 1519   3.962   1.491   6.118  0.7332 -0.4981  0.7208
   21CHL1   C19 1520   3.820   1.548   6.132 -0.2665 -0.2412 -0.3942
   21CHL1  H19A 1521   3.745   1.481   6.086 -0.8772  0.5597 -0.5845
   21CHL1  H19B 1522   3.799   1.557   6.241  1.6651 -0.1773  0.0095
   21CHL1  H19C 1523   3.819   1.646   6.081 -0.7670  0.5120  1.0042
   21CHL1    C1 1524   3.980   1.367   6.207 -0.0598 -0.3212  0.1587
   21CHL1   H1A 1525   3.907   1.295   6.164 -0.1351  1.0306 -2.1648
   21CHL1   H1B 1526   4.078   1.324   6.175 -0.8769 -1.8521 -0.3636
   21CHL1    C2 1527   3.978   1.389   6.357 -0.3754 -0.2767 -0.2709
   21CHL1   H2A 1528   3.995   1.294   6.412 -0.8169 -0.2170 -0.0264
   21CHL1   H2B 1529   3.884   1.431   6.399 -0.4657 -0.9265  0.1833
   21CHL1   C20 1530   3.911   1.419   5.410  0.2536 -0.1700  0.1574
   21CHL1   H20 1531   3.802   1.439   5.418 -0.3526 -2.7922 -0.6331
   21CHL1   C21 1532   3.916   1.263   5.410 -0.4942 -0.1132 -0.4225
   21CHL1  H21A 1533   3.855   1.210   5.334 -0.4701 -2.2658  0.9796
   21CHL1  H21B 1534   3.890   1.224   5.511  2.8425 -2.1112 -0.1877
   21CHL1  H21C 1535   4.025   1.250   5.391 -0.7012 -1.7341 -0.6770
   21CHL1   C22 1536   3.960   1.473   5.276  0.3019 -0.1802  0.1745
   21CHL1  H22A 1537   3.930   1.580   5.271 -1.4795 -0.6862 -0.6888
   21CHL1  H22B 1538   4.070   1.468   5.264  0.1546 -1.3264 -0.9314
   21CHL1   C23 1539   3.892   1.417   5.151  0.5552 -0.0969  0.0112
   21CHL1  H23A 1540   3.913   1.311   5.125  1.7048  0.0418  0.3337
   21CHL1  H23B 1541   3.784   1.422   5.175  0.6735 -0.5748  0.6716
   21CHL1   C24 1542   3.920   1.501   5.022 -0.1243  0.4606  0.3989
   21CHL1  H24A 1543   3.890   1.608   5.032  0.3994  0.7521 -0.9301
   21CHL1  H24B 1544   4.030   1.503   5.014  0.0472  1.8227  2.2432
   21CHL1   C25 1545   3.853   1.451   4.892  0.8508  0.0188  0.4505
   21CHL1   H25 1546   3.904   1.512   4.814  0.2800  0.9371  0.7800
   21CHL1   C26 1547   3.883   1.306   4.856 -0.1255  0.4001  0.1809
   21CHL1  H26A 1548   3.991   1.278   4.860  0.6952  3.3091  1.7467
   21CHL1  H26B 1549   3.826   1.235   4.921 -0.8517 -0.2345 -1.1191
   21CHL1  H26C 1550   3.856   1.286   4.751 -0.1956  1.8907 -0.0998
   21CHL1   C27 1551   3.699   1.482   4.892 -0.0913  0.3422  0.5898
   21CHL1  H27A 1552   3.655   1.431   4.980 -0.6805 -0.2930 -0.0544
   21CHL1  H27B 1553   3.682   1.591   4.899  2.1644  0.8318 -0.6992
   21CHL1  H27C 1554   3.663   1.442   4.795 -0.8738 -0.5187  1.2208
   22CHL1    C3 1555   0.459   2.346   5.629  0.0858  0.2104  0.4782
   22CHL1    H3 1556   0.533   2.414   5.581 -0.1917 -0.5379 -1.0813
   22CHL1    O3 1557   0.483   2.332   5.768 -0.0165 -0.3537  0.5128
   22CHL1   H3' 1558   0.424   2.261   5.795 -1.2808 -0.9218 -3.1547
   22CHL1    C4 1559   0.322   2.412   5.614 -0.0404  0.5257  0.0770
   22CHL1   H4A 1560   0.251   2.349   5.671 -1.8422  1.4903 -1.0363
   22CHL1   H4B 1561   0.321   2.513   5.660 -1.0738 -0.1205  1.5471
   22CHL1    C5 1562   0.277   2.415   5.466 -0.0868 -0.0783  0.5296
   22CHL1    C6 1563   0.248   2.527   5.396 -0.2453 -0.3011 -0.0964
   22CHL1    H6 1564   0.255   2.620   5.455 -0.5004  0.1320 -0.7340
   22CHL1    C7 1565   0.191   2.529   5.260  0.0458 -0.2159  0.4123
   22CHL1   H7A 1566   0.099   2.592   5.258  0.0221 -0.2607  0.0896
   22CHL1   H7B 1567   0.269   2.572   5.195  1.9421 -0.4127  2.4474
   22CHL1    C8 1568   0.148   2.390   5.205  0.0267  0.2472 -0.2159
   22CHL1    H8 1569   0.056   2.364   5.261 -0.2846 -0.6494 -1.1096
   22CHL1   C14 1570   0.132   2.390   5.054  0.3261  0.3391  0.1370
   22CHL1   H14 1571   0.233   2.409   5.011 -0.2761 -0.3497 -1.7152
   22CHL1   C15 1572   0.041   2.502   4.992 -0.3287 -0.0825  0.2749
   22CHL1  H15A 1573  -0.056   2.512   5.045  0.4239  3.5816  1.2581
   22CHL1  H15B 1574   0.088   2.603   4.998 -1.1610  0.2718  1.0164
   22CHL1   C16 1575   0.019   2.444   4.851 -0.8367  0.4310 -0.0276
   22CHL1  H16A 1576  -0.090   2.438   4.828 -0.8926  1.8170 -0.2182
   22CHL1  H16B 1577   0.069   2.501   4.770  3.2669  1.0231  2.6591
   22CHL1   C17 1578   0.076   2.295   4.852 -0.4961 -0.0217  0.6424
   22CHL1   H17 1579   0.180   2.300   4.813 -0.9608  1.7232 -0.5253
   22CHL1   C13 1580   0.077   2.258   4.997 -0.7182 -0.0638 -0.6516
   22CHL1   C18 1581  -0.061   2.240   5.060 -0.0090  0.4617 -0.2551
   22CHL1  H18A 1582  -0.068   2.228   5.170 -1.2284  1.3465 -0.2115
   22CHL1  H18B 1583  -0.137   2.314   5.028 -0.2600 -0.6292 -2.3366
   22CHL1  H18C 1584  -0.100   2.143   5.023 -0.9350  1.2441 -1.3838
   22CHL1   C12 1585   0.185   2.153   5.034  0.0118 -0.1138  0.0175
   22CHL1  H12A 1586   0.159   2.055   4.988  1.1650 -0.7954  0.7776
   22CHL1  H12B 1587   0.279   2.172   4.977 -0.4837  1.1246 -0.4394
   22CHL1   C11 1588   0.213   2.137   5.186 -0.2933 -0.4453 -0.6992
   22CHL1  H11A 1589   0.123   2.093   5.235  0.8948 -2.3667 -0.1571
   22CHL1  H11B 1590   0.306   2.079   5.198  0.0851  0.0607 -1.1427
   22CHL1    C9 1591   0.246   2.274   5.255  0.9219 -0.4254 -0.0111
   22CHL1    H9 1592   0.339   2.312   5.207  0.7261  2.0404  1.3586
   22CHL1   C10 1593   0.264   2.275   5.405 -0.1070 -0.6549 -0.3018
   22CHL1   C19 1594   0.154   2.195   5.473 -0.1716 -0.0495 -0.5393
   22CHL1  H19A 1595   0.056   2.241   5.450 -0.9337 -0.8593  0.9871
   22CHL1  H19B 1596   0.143   2.088   5.445  0.6011 -0.1318 -0.5766
   22CHL1  H19C 1597   0.176   2.185   5.581 -1.3040  0.6768 -0.2299
   22CHL1    C1 1598   0.409   2.205   5.426 -0.2316 -0.0146 -0.2253
   22CHL1   H1A 1599   0.413   2.102   5.386  1.7656  0.5342 -1.5374
   22CHL1   H1B 1600   0.479   2.258   5.358 -1.0128  3.1144  1.2356
   22CHL1    C2 1601   0.468   2.208   5.571  0.9400  0.4544  0.4874
   22CHL1   H2A 1602   0.568   2.161   5.566 -0.4671 -2.6909 -1.5854
   22CHL1   H2B 1603   0.409   2.137   5.634  2.1402 -0.2184  0.8774
   22CHL1   C20 1604   0.019   2.193   4.753  0.1306  0.1112  0.0235
   22CHL1   H20 1605   0.074   2.097   4.766  1.5658  0.9582  0.4793
   22CHL1   C21 1606   0.059   2.226   4.603  0.2053 -0.8478 -0.3496
   22CHL1  H21A 1607  -0.006   2.314   4.586  0.2394 -0.4232  1.4479
   22CHL1  H21B 1608   0.039   2.151   4.523  0.8752  0.5152 -1.8408
   22CHL1  H21C 1609   0.165   2.259   4.598  0.3446 -1.4755 -2.2246
   22CHL1   C22 1610  -0.132   2.167   4.747 -0.0790 -0.2234 -0.0357
   22CHL1  H22A 1611  -0.182   2.203   4.839 -0.0213 -0.4277  0.0748
   22CHL1  H22B 1612  -0.175   2.234   4.669 -0.1016 -0.1595  0.0317
   22CHL1   C23 1613  -0.165   2.021   4.708  0.1447 -0.0541 -0.0234
   22CHL1  H23A 1614  -0.096   1.990   4.627 -1.4904 -1.9270 -0.7934
   22CHL1  H23B 1615  -0.144   1.958   4.797  0.1952 -1.5673 -1.0690
   22CHL1   C24 1616  -0.318   1.996   4.669 -0.3172 -0.3674  0.1726
   22CHL1  H24A 1617  -0.325   1.886   4.681  1.2680 -0.7390 -1.7834
   22CHL1  H24B 1618  -0.374   2.052   4.746  1.0327  0.2374  0.7435
   22CHL1   C25 1619  -0.357   2.043   4.527 -0.7880  0.1406  0.5277
   22CHL1   H25 1620  -0.332   2.149   4.508 -3.0411  0.2384 -2.6395
   22CHL1   C26 1621  -0.305   1.948   4.413 -0.1564 -0.0816 -0.4912
   22CHL1  H26A 1622  -0.340   1.843   4.428 -0.0614  0.0049  0.3626
   22CHL1  H26B 1623  -0.355   1.967   4.315  1.1744 -2.1034 -1.6513
   22CHL1  H26C 1624  -0.194   1.945   4.408 -0.2023 -0.3638 -1.5528
   22CHL1   C27 1625  -0.511   2.052   4.523  0.3172  0.5742 -0.0041
   22CHL1  H27A 1626  -0.564   1.968   4.572 -0.1620  0.6350 -0.4107
   22CHL1  H27B 1627  -0.544   2.143   4.578 -1.1629  0.6480 -0.9578
   22CHL1  H27C 1628  -0.544   2.080   4.421 -0.8042 -1.3322 -0.2146
   23CHL1    C3 1629   2.692   0.810   5.772 -0.5134 -1.0066  0.1684
   23CHL1    H3 1630   2.740   0.720   5.727  0.9602 -0.2386  0.1525
   23CHL1    O3 1631   2.664   0.776   5.912  0.7764  0.4241  0.0694
   23CHL1   H3' 1632   2.600   0.841   5.941  0.6882 -0.4863  2.0322
   23CHL1    C4 1633   2.787   0.932   5.778  0.0859 -0.3139  0.1836
   23CHL1   H4A 1634   2.743   1.011   5.843  0.3095 -0.7230  0.8433
   23CHL1   H4B 1635   2.878   0.904   5.836  0.9453  2.0032  0.0299
   23CHL1    C5 1636   2.825   0.969   5.641 -0.1912  0.0573 -0.0661
   23CHL1    C6 1637   2.951   0.977   5.602 -0.3882 -0.1815  0.4753
   23CHL1    H6 1638   3.020   0.958   5.685  0.0027  2.0461  0.7254
   23CHL1    C7 1639   3.005   1.018   5.470 -0.9510 -0.0078  0.1731
   23CHL1   H7A 1640   3.093   1.086   5.481  0.0930 -1.6233  2.7457
   23CHL1   H7B 1641   3.032   0.943   5.393 -2.0741  2.2691 -2.6173
   23CHL1    C8 1642   2.908   1.103   5.395  0.8457 -0.4444 -0.3824
   23CHL1    H8 1643   2.892   1.199   5.449 -1.4304 -1.3946  0.7638
   23CHL1   C14 1644   2.945   1.144   5.248 -1.0779  0.0684 -0.3752
   23CHL1   H14 1645   2.952   1.045   5.198 -1.7022 -0.3225  0.2858
   23CHL1   C15 1646   3.079   1.206   5.224 -0.3326  0.7757 -0.3118
   23CHL1  H15A 1647   3.096   1.292   5.293  2.3347 -0.8821  1.2700
   23CHL1  H15B 1648   3.167   1.140   5.241 -0.2823  0.6707 -0.9390
   23CHL1   C16 1649   3.064   1.271   5.084  0.1282 -0.1492 -0.5531
   23CHL1  H16A 1650   3.083   1.379   5.102  0.0018 -0.2819  0.4379
   23CHL1  H16B 1651   3.138   1.216   5.021 -1.7309 -1.2948 -1.8202
   23CHL1   C17 1652   2.924   1.252   5.042  0.1137 -0.2060  0.2381
   23CHL1   H17 1653   2.908   1.155   4.989 -0.6333 -0.0450  0.1509
   23CHL1   C13 1654   2.845   1.228   5.171 -0.2699  0.1112 -0.0973
   23CHL1   C18 1655   2.831   1.368   5.248 -0.1798  0.1329 -0.1132
   23CHL1  H18A 1656   2.754   1.372   5.329  2.7492 -1.8231  3.0009
   23CHL1  H18B 1657   2.927   1.400   5.293 -0.6339 -0.5610  1.4211
   23CHL1  H18C 1658   2.791   1.433   5.167 -0.8505 -1.3462 -1.0105
   23CHL1   C12 1659   2.715   1.149   5.165  0.6152 -0.7500  0.2307
   23CHL1  H12A 1660   2.647   1.220   5.114  0.4260  0.5161  2.1164
   23CHL1  H12B 1661   2.736   1.054   5.111 -2.0383 -1.1410 -0.2486
   23CHL1   C11 1662   2.658   1.106   5.307  0.3595  0.3788 -0.4528
   23CHL1  H11A 1663   2.621   1.200   5.353  2.3658  0.6950  0.6028
   23CHL1  H11B 1664   2.571   1.039   5.285 -0.0568  0.2264  1.4112
   23CHL1    C9 1665   2.765   1.025   5.396 -0.6003 -1.0075 -0.8021
   23CHL1    H9 1666   2.784   0.924   5.353  0.2415 -1.7113  1.1225
   23CHL1   C10 1667   2.712   0.999   5.540  0.0304  0.2311 -0.2355
   23CHL1   C19 1668   2.642   1.123   5.593  0.3574 -0.8056 -0.3548
   23CHL1  H19A 1669   2.618   1.117   5.702  1.1469 -2.0531 -0.2299
   23CHL1  H19B 1670   2.709   1.210   5.580 -0.0726 -0.3493  0.4279
   23CHL1  H19C 1671   2.540   1.145   5.555  0.0918  0.9539  1.2259
   23CHL1    C1 1672   2.616   0.879   5.544  0.1146  0.1635 -0.3880
   23CHL1   H1A 1673   2.530   0.901   5.477  0.6727 -1.1209 -1.5637
   23CHL1   H1B 1674   2.664   0.794   5.493  0.0864 -0.2817  0.3190
   23CHL1    C2 1675   2.565   0.845   5.684  0.3932 -0.2923  0.4103
   23CHL1   H2A 1676   2.500   0.755   5.687  0.3412 -0.2395  1.7041
   23CHL1   H2B 1677   2.506   0.930   5.726 -0.3158  0.3901 -1.8091
   23CHL1   C20 1678   2.874   1.348   4.934  0.4678  0.0414  0.2915
   23CHL1   H20 1679   2.763   1.355   4.944  0.2799 -0.0897 -1.3449
   23CHL1   C21 1680   2.880   1.276   4.799  0.5551  0.1221  0.2005
   23CHL1  H21A 1681   2.874   1.349   4.716  1.5466 -0.3591 -0.3030
   23CHL1  H21B 1682   2.797   1.202   4.803  0.8367 -0.1892  0.3744
   23CHL1  H21C 1683   2.978   1.224   4.792  0.2313 -0.6351  1.0493
   23CHL1   C22 1684   2.927   1.490   4.931  0.4875 -0.7414 -0.3294
   23CHL1  H22A 1685   2.944   1.528   5.034 -1.5901  1.5781 -0.7535
   23CHL1  H22B 1686   3.029   1.481   4.888  2.1856 -2.2309  3.5325
   23CHL1   C23 1687   2.846   1.594   4.860  0.2490 -0.0377  0.0557
   23CHL1  H23A 1688   2.836   1.560   4.755  2.7475  2.2526 -1.0717
   23CHL1  H23B 1689   2.747   1.598   4.910  0.4067 -0.1541  0.3788
   23CHL1   C24 1690   2.898   1.738   4.844  0.2707  0.8329 -0.4753
   23CHL1  H24A 1691   2.925   1.785   4.941  2.1560  0.5805 -0.8460
   23CHL1  H24B 1692   2.996   1.743   4.793  0.5329  0.9881  0.0326
   23CHL1   C25 1693   2.794   1.828   4.772  0.0887 -0.4038 -0.0919
   23CHL1   H25 1694   2.704   1.841   4.836 -0.5543 -0.8360 -0.8900
   23CHL1   C26 1695   2.860   1.969   4.759  0.1777 -0.3373 -0.6629
   23CHL1  H26A 1696   2.938   1.974   4.681  0.4483  4.2492 -0.3812
   23CHL1  H26B 1697   2.770   2.035   4.757 -0.3410 -1.0046  0.1463
   23CHL1  H26C 1698   2.914   1.992   4.854  0.0013 -1.1379 -0.3626
   23CHL1   C27 1699   2.737   1.786   4.640  0.3183  0.6917  0.5594
   23CHL1  H27A 1700   2.676   1.872   4.605 -1.3898 -0.0885  1.5097
   23CHL1  H27B 1701   2.815   1.759   4.566  2.5060 -0.3345  3.0650
   23CHL1  H27C 1702   2.681   1.690   4.651  0.9323  0.1848 -0.5682
   24CHL1    C3 1703   4.555   3.991   5.722  0.3786 -0.2851  0.1583
   24CHL1    H3 1704   4.575   4.096   5.691  1.1668 -0.3327  0.4731
   24CHL1    O3 1705   4.486   3.982   5.846 -0.1542 -0.4073  0.3088
   24CHL1   H3' 1706   4.548   3.942   5.908  0.1098  0.4641  0.6185
   24CHL1    C4 1707   4.471   3.917   5.619 -0.2560  0.2949 -0.1292
   24CHL1   H4A 1708   4.457   3.812   5.654  0.7721  0.0734 -0.3492
   24CHL1   H4B 1709   4.370   3.959   5.606 -0.8961 -1.4632 -1.2524
   24CHL1    C5 1710   4.536   3.918   5.480  0.4575 -0.5877  0.1330
   24CHL1    C6 1711   4.472   3.983   5.377 -0.3791  0.2685 -0.0073
   24CHL1    H6 1712   4.381   4.042   5.397 -0.0943  0.5478  0.4835
   24CHL1    C7 1713   4.532   3.978   5.236 -0.4950 -0.5854 -0.6731
   24CHL1   H7A 1714   4.451   3.975   5.161 -0.2604  1.6789 -1.0840
   24CHL1   H7B 1715   4.576   4.079   5.225 -0.4343 -0.2815  1.6830
   24CHL1    C8 1716   4.638   3.861   5.216  0.8776  0.2052 -0.7955
   24CHL1    H8 1717   4.588   3.763   5.208  2.1104 -0.4840 -0.3187
   24CHL1   C14 1718   4.711   3.886   5.085 -0.8564  0.0816 -0.0803
   24CHL1   H14 1719   4.768   3.981   5.096  2.7457 -1.8807 -0.5236
   24CHL1   C15 1720   4.634   3.909   4.955  0.3746 -0.0911  0.5038
   24CHL1  H15A 1721   4.555   3.832   4.946 -1.4142  1.6721  0.4524
   24CHL1  H15B 1722   4.593   4.012   4.956 -1.0054 -0.6250  0.9303
   24CHL1   C16 1723   4.732   3.881   4.845 -1.1508  0.4003  0.0470
   24CHL1  H16A 1724   4.694   3.804   4.775  2.1358 -0.6007 -0.8457
   24CHL1  H16B 1725   4.740   3.959   4.766 -3.5373  2.8978  2.0950
   24CHL1   C17 1726   4.867   3.844   4.921 -0.0515  0.2831  0.8953
   24CHL1   H17 1727   4.920   3.939   4.941  0.0326  0.3116  0.5372
   24CHL1   C13 1728   4.828   3.790   5.053 -0.9413 -0.0324  0.6691
   24CHL1   C18 1729   4.768   3.647   5.042 -0.1465 -0.2249  0.2195
   24CHL1  H18A 1730   4.721   3.614   5.137 -0.4659  0.2974  0.2456
   24CHL1  H18B 1731   4.690   3.650   4.962  0.4891  2.9275 -0.4041
   24CHL1  H18C 1732   4.850   3.573   5.035 -1.0939 -1.4464  1.4734
   24CHL1   C12 1733   4.929   3.801   5.173 -0.5532  0.0318  0.8264
   24CHL1  H12A 1734   4.990   3.710   5.153 -1.1440 -0.4796  1.2725
   24CHL1  H12B 1735   4.987   3.895   5.171 -0.4414 -0.0401 -1.1584
   24CHL1   C11 1736   4.863   3.776   5.311  0.1139  0.0951 -0.0733
   24CHL1  H11A 1737   4.823   3.673   5.303 -2.3606  0.8853  1.1283
   24CHL1  H11B 1738   4.947   3.779   5.384 -0.0902 -0.6557  0.1982
   24CHL1    C9 1739   4.736   3.864   5.329 -0.1152  0.5087 -0.0560
   24CHL1    H9 1740   4.786   3.963   5.333  1.4774 -0.3002  2.0341
   24CHL1   C10 1741   4.671   3.845   5.471 -0.5633  1.0475 -0.8960
   24CHL1   C19 1742   4.658   3.688   5.511  0.6601  0.7042 -0.4149
   24CHL1  H19A 1743   4.607   3.650   5.419  2.0287  0.8588 -1.2572
   24CHL1  H19B 1744   4.756   3.644   5.539  0.8844  2.0932  1.0832
   24CHL1  H19C 1745   4.601   3.676   5.606  1.0579 -1.0826 -0.3646
   24CHL1    C1 1746   4.752   3.909   5.585  0.4443 -0.0068  0.1729
   24CHL1   H1A 1747   4.844   3.846   5.591 -0.1631 -1.1950 -1.9467
   24CHL1   H1B 1748   4.792   4.010   5.563 -0.5154  0.5159  0.8199
   24CHL1    C2 1749   4.690   3.920   5.727 -0.0109  0.3752 -0.0414
   24CHL1   H2A 1750   4.757   3.987   5.785  0.1584  0.4379 -0.3098
   24CHL1   H2B 1751   4.692   3.820   5.776 -0.8721 -0.3091 -1.3333
   24CHL1   C20 1752   4.965   3.761   4.843 -1.2458 -0.1074 -0.4828
   24CHL1   H20 1753   5.033   3.713   4.917  0.3394  1.8633 -0.5785
   24CHL1   C21 1754   5.059   3.859   4.784 -0.3414  0.1862  0.2564
   24CHL1  H21A 1755   5.113   3.819   4.695 -0.4799 -0.7670  0.5835
   24CHL1  H21B 1756   5.129   3.898   4.860  0.5569 -1.3674  0.2633
   24CHL1  H21C 1757   5.002   3.943   4.738 -0.8035 -0.2638 -0.0065
   24CHL1   C22 1758   4.929   3.667   4.726  0.2661 -0.0736 -1.0062
   24CHL1  H22A 1759   4.853   3.594   4.762  1.1627 -0.4997  0.0957
   24CHL1  H22B 1760   4.879   3.723   4.645 -3.9062  0.5416  1.6898
   24CHL1   C23 1761   5.032   3.564   4.682 -0.8003  0.8797  0.5458
   24CHL1  H23A 1762   5.106   3.598   4.608 -0.4862  0.3592  0.6181
   24CHL1  H23B 1763   5.096   3.530   4.767 -0.1239  0.4381 -0.1347
   24CHL1   C24 1764   4.963   3.442   4.616  0.1756  0.1870 -0.4979
   24CHL1  H24A 1765   4.881   3.404   4.681 -1.2166  0.1252 -2.2111
   24CHL1  H24B 1766   4.904   3.482   4.531 -4.0885 -0.1888  1.9777
   24CHL1   C25 1767   5.061   3.328   4.583 -0.0868  0.5767  0.1897
   24CHL1   H25 1768   5.089   3.280   4.680  1.0260  0.1101 -0.3444
   24CHL1   C26 1769   4.979   3.224   4.503  0.5734 -0.0163 -0.5687
   24CHL1  H26A 1770   4.948   3.275   4.410 -1.8621 -2.0391 -0.9601
   24CHL1  H26B 1771   5.025   3.124   4.487 -0.1820 -0.6513  0.9544
   24CHL1  H26C 1772   4.879   3.204   4.546  0.1617 -0.2976 -1.6335
   24CHL1   C27 1773   5.183   3.369   4.500  0.1880  0.2942 -1.1741
   24CHL1  H27A 1774   5.232   3.274   4.469  1.0713 -0.3650  1.8797
   24CHL1  H27B 1775   5.150   3.434   4.416 -0.8124  0.4416 -0.6893
   24CHL1  H27C 1776   5.261   3.410   4.567 -1.7804  0.9610  0.8386
   25CHL1    C3 1777   3.719   0.588   5.878  0.1988  0.8337 -0.3448
   25CHL1    H3 1778   3.632   0.641   5.833 -3.9168 -1.8180  3.5768
   25CHL1    O3 1779   3.694   0.614   6.015 -0.1854  0.1217 -0.3061
   25CHL1   H3' 1780   3.775   0.584   6.057 -0.2515 -2.3243 -1.7696
   25CHL1    C4 1781   3.687   0.437   5.860  0.8085 -0.3504  0.4832
   25CHL1   H4A 1782   3.741   0.375   5.934  0.6440 -0.0742  0.8357
   25CHL1   H4B 1783   3.581   0.425   5.889  0.1360  3.1479 -0.0883
   25CHL1    C5 1784   3.714   0.379   5.724 -0.6172 -0.0795  0.1344
   25CHL1    C6 1785   3.627   0.302   5.656  0.3125 -0.3420 -0.2761
   25CHL1    H6 1786   3.528   0.282   5.701  0.0669  3.8631  1.5092
   25CHL1    C7 1787   3.652   0.237   5.522 -0.0003 -0.0996  0.4109
   25CHL1   H7A 1788   3.644   0.127   5.533 -2.8474  0.0265  0.4555
   25CHL1   H7B 1789   3.577   0.277   5.450  0.7611 -1.5172 -1.2289
   25CHL1    C8 1790   3.796   0.257   5.467  0.4209  0.0541 -0.5651
   25CHL1    H8 1791   3.866   0.182   5.511 -0.3180  0.0243  0.6327
   25CHL1   C14 1792   3.793   0.254   5.316  0.6068  0.0351  0.3580
   25CHL1   H14 1793   3.722   0.333   5.283 -2.1865 -2.4427  0.0138
   25CHL1   C15 1794   3.725   0.127   5.251 -0.0884 -0.6456 -0.0239
   25CHL1  H15A 1795   3.748   0.032   5.304 -1.7851 -0.6055  0.8528
   25CHL1  H15B 1796   3.614   0.134   5.256  0.0574  3.1271  0.5737
   25CHL1   C16 1797   3.772   0.140   5.112 -0.2403 -0.1486 -0.1407
   25CHL1  H16A 1798   3.813   0.043   5.077 -1.1965 -0.6694  0.1584
   25CHL1  H16B 1799   3.693   0.151   5.035  0.3749  1.6335 -0.5623
   25CHL1   C17 1800   3.880   0.252   5.104  1.1763 -0.0311  0.3990
   25CHL1   H17 1801   3.820   0.341   5.078  1.4482 -0.2997 -1.2954
   25CHL1   C13 1802   3.928   0.273   5.244  0.1082  0.3367 -0.4633
   25CHL1   C18 1803   4.027   0.161   5.289 -0.0630  0.0796 -0.0226
   25CHL1  H18A 1804   4.035   0.142   5.398  1.7950 -0.7572 -0.2613
   25CHL1  H18B 1805   3.994   0.064   5.246 -1.5005 -0.9596  3.1513
   25CHL1  H18C 1806   4.127   0.173   5.242 -0.8659  1.4992 -1.4401
   25CHL1   C12 1807   3.981   0.411   5.288 -0.1960  0.4306  0.0071
   25CHL1  H12A 1808   4.077   0.428   5.235 -0.0873  1.7221  0.5962
   25CHL1  H12B 1809   3.898   0.474   5.249 -1.9671 -1.2069  0.9482
   25CHL1   C11 1810   3.985   0.423   5.443  0.0344 -0.6139 -0.1571
   25CHL1  H11A 1811   4.061   0.351   5.481 -0.0009  0.7481  2.8184
   25CHL1  H11B 1812   4.019   0.526   5.468 -0.0517 -0.8424  0.9600
   25CHL1    C9 1813   3.850   0.393   5.514 -0.1140  1.2638  0.1178
   25CHL1    H9 1814   3.785   0.472   5.471 -0.3029 -0.2886 -2.7150
   25CHL1   C10 1815   3.845   0.418   5.669  0.7952  0.3300  0.6233
   25CHL1   C19 1816   3.947   0.332   5.735 -0.2267 -0.1285 -0.2089
   25CHL1  H19A 1817   3.927   0.224   5.720  1.2184 -1.0840  3.7480
   25CHL1  H19B 1818   4.050   0.359   5.703 -0.2470  0.0168 -0.1530
   25CHL1  H19C 1819   3.947   0.346   5.845 -0.4720 -0.3323 -0.1816
   25CHL1    C1 1820   3.876   0.569   5.688 -0.7664  0.5109 -0.0984
   25CHL1   H1A 1821   3.982   0.578   5.655 -0.9968  1.5941 -0.5709
   25CHL1   H1B 1822   3.823   0.647   5.630 -0.6719  0.8857  0.3175
   25CHL1    C2 1823   3.864   0.621   5.837  0.3927  0.4705 -0.3170
   25CHL1   H2A 1824   3.890   0.729   5.845 -0.1109  0.4836  1.8182
   25CHL1   H2B 1825   3.931   0.568   5.908  2.0667 -0.7095 -2.6252
   25CHL1   C20 1826   3.983   0.227   4.988 -0.4747  0.2749 -0.8705
   25CHL1   H20 1827   4.047   0.139   5.009 -0.6275  0.6424  1.5188
   25CHL1   C21 1828   4.072   0.349   4.972 -0.6135  0.1436 -0.6932
   25CHL1  H21A 1829   4.151   0.337   4.896 -1.5582 -2.3200 -1.3655
   25CHL1  H21B 1830   4.131   0.362   5.065  0.6206  3.8004 -1.8064
   25CHL1  H21C 1831   4.015   0.441   4.945  1.1891  1.1255 -1.2848
   25CHL1   C22 1832   3.921   0.188   4.845  0.1467  0.0525 -0.1264
   25CHL1  H22A 1833   3.854   0.100   4.859  2.0748 -1.0799  2.6725
   25CHL1  H22B 1834   3.846   0.264   4.814 -1.0340 -1.4575 -1.1599
   25CHL1   C23 1835   4.030   0.147   4.752 -0.3095 -0.6986  0.1661
   25CHL1  H23A 1836   4.005   0.142   4.644  1.8073 -3.0337 -0.3111
   25CHL1  H23B 1837   4.106   0.228   4.754 -1.2095  0.2135 -0.8834
   25CHL1   C24 1838   4.100   0.014   4.794  0.8963 -0.3306 -0.1886
   25CHL1  H24A 1839   4.169   0.021   4.881  1.5543 -0.7628 -0.6686
   25CHL1  H24B 1840   4.019  -0.056   4.821  0.6118 -0.5862 -1.6179
   25CHL1   C25 1841   4.188  -0.048   4.683 -0.1516 -0.0429  0.6419
   25CHL1   H25 1842   4.133  -0.041   4.587 -0.0809  0.1762  0.6171
   25CHL1   C26 1843   4.324   0.014   4.655  0.3542 -0.2790 -0.2756
   25CHL1  H26A 1844   4.322   0.112   4.602  1.7293  0.0134  0.1826
   25CHL1  H26B 1845   4.389   0.022   4.744  0.8280  2.3043 -0.7509
   25CHL1  H26C 1846   4.362  -0.048   4.571 -2.2049 -3.3892  0.6680
   25CHL1   C27 1847   4.195  -0.196   4.709 -0.3561 -0.0711 -0.0439
   25CHL1  H27A 1848   4.097  -0.236   4.742  0.8133 -1.6923  1.6613
   25CHL1  H27B 1849   4.236  -0.257   4.626 -1.6032 -0.9965 -0.0022
   25CHL1  H27C 1850   4.269  -0.215   4.790 -0.7326  1.5197  0.7330
   26CHL1    C3 1851   1.569   4.872   6.211 -0.2211  0.8055  0.5261
   26CHL1    H3 1852   1.569   4.763   6.231  1.1341  1.1016  2.3091
   26CHL1    O3 1853   1.629   4.932   6.326 -0.3452  0.8456 -0.1049
   26CHL1   H3' 1854   1.718   4.896   6.327 -0.5693  0.2572 -0.3602
   26CHL1    C4 1855   1.653   4.900   6.084 -0.2347  0.0556 -0.3228
   26CHL1   H4A 1856   1.665   5.010   6.076 -0.6755  0.2083  0.8546
   26CHL1   H4B 1857   1.758   4.864   6.091  0.6438  1.9597 -2.6002
   26CHL1    C5 1858   1.582   4.853   5.953 -0.1983  0.6852 -0.5571
   26CHL1    C6 1859   1.637   4.774   5.856  0.4689  0.1979 -0.6804
   26CHL1    H6 1860   1.741   4.739   5.867  0.4026  0.4605  1.1614
   26CHL1    C7 1861   1.566   4.737   5.729  0.1966  1.1192  0.6020
   26CHL1   H7A 1862   1.640   4.740   5.647  2.0923  1.7499  2.2488
   26CHL1   H7B 1863   1.531   4.631   5.731  2.3666  0.3621  1.8341
   26CHL1    C8 1864   1.443   4.827   5.694 -0.2386  0.0420  0.4677
   26CHL1    H8 1865   1.479   4.927   5.661 -3.2554  1.4438  1.0976
   26CHL1   C14 1866   1.370   4.757   5.577 -0.1954 -0.1522  0.2924
   26CHL1   H14 1867   1.346   4.657   5.619 -1.0337  1.0352  2.7976
   26CHL1   C15 1868   1.442   4.727   5.444 -0.3944  0.5280 -0.1552
   26CHL1  H15A 1869   1.503   4.813   5.408 -0.7421  1.1856  0.8017
   26CHL1  H15B 1870   1.518   4.648   5.465  0.5395  1.3575 -0.2986
   26CHL1   C16 1871   1.326   4.690   5.351  0.5961  0.6932  0.0242
   26CHL1  H16A 1872   1.331   4.738   5.250 -0.2455 -1.4679 -1.1068
   26CHL1  H16B 1873   1.337   4.580   5.342  0.5105  0.5824  1.1700
   26CHL1   C17 1874   1.194   4.730   5.431  0.2065 -0.0674  0.1582
   26CHL1   H17 1875   1.161   4.639   5.486  1.2203  0.4595  1.6979
   26CHL1   C13 1876   1.239   4.827   5.544 -0.4922  0.3530  0.0825
   26CHL1   C18 1877   1.245   4.971   5.482 -0.4419  0.0938 -0.0819
   26CHL1  H18A 1878   1.281   4.968   5.377 -3.9099  1.3968 -1.4786
   26CHL1  H18B 1879   1.148   5.024   5.465  0.2980  1.2799 -0.7665
   26CHL1  H18C 1880   1.307   5.033   5.550  0.2845 -1.4795  0.7243
   26CHL1   C12 1881   1.157   4.825   5.676 -0.0813 -0.4496  0.3129
   26CHL1  H12A 1882   1.060   4.879   5.665  0.0284 -0.3896 -0.3589
   26CHL1  H12B 1883   1.142   4.718   5.703  0.0658 -1.2582 -2.5615
   26CHL1   C11 1884   1.225   4.903   5.793 -0.9940  0.6746 -0.1037
   26CHL1  H11A 1885   1.234   5.009   5.760 -0.7336 -0.3520 -3.7703
   26CHL1  H11B 1886   1.165   4.892   5.885 -1.3255 -0.5498 -0.4542
   26CHL1    C9 1887   1.364   4.843   5.823 -0.5055 -0.0507  0.7051
   26CHL1    H9 1888   1.350   4.743   5.870  2.4670  0.6771  3.5458
   26CHL1   C10 1889   1.442   4.909   5.942 -0.2709 -0.7365 -0.4892
   26CHL1   C19 1890   1.444   5.065   5.919 -0.0249 -0.0434  0.5855
   26CHL1  H19A 1891   1.340   5.103   5.915 -0.1059 -0.3043 -3.2039
   26CHL1  H19B 1892   1.499   5.123   5.996  0.0088 -0.0514  0.5679
   26CHL1  H19C 1893   1.496   5.089   5.824  0.9482 -3.1427  0.2449
   26CHL1    C1 1894   1.355   4.880   6.070  0.3482 -0.0535 -0.4028
   26CHL1   H1A 1895   1.263   4.942   6.062  0.2563 -0.1637 -0.1728
   26CHL1   H1B 1896   1.325   4.774   6.077 -0.6722  0.3562  3.4867
   26CHL1    C2 1897   1.428   4.926   6.203  0.4433  0.1543  0.2588
   26CHL1   H2A 1898   1.374   4.888   6.292  0.8772 -0.7962  0.1330
   26CHL1   H2B 1899   1.432   5.036   6.208 -1.2578  0.3069 -1.1449
   26CHL1   C20 1900   1.074   4.773   5.340 -0.6420 -0.2386  0.3655
   26CHL1   H20 1901   1.111   4.861   5.283 -1.9542 -0.1062 -0.3054
   26CHL1   C21 1902   0.951   4.801   5.424 -0.7226  1.3582 -0.9439
   26CHL1  H21A 1903   0.961   4.896   5.482  0.1935  1.0076 -0.5094
   26CHL1  H21B 1904   0.928   4.726   5.503 -0.7274  0.9350 -1.3469
   26CHL1  H21C 1905   0.860   4.806   5.361 -2.5324  1.9522  1.5544
   26CHL1   C22 1906   1.035   4.659   5.239  0.3391 -0.1029 -0.2765
   26CHL1  H22A 1907   1.127   4.611   5.198  1.2245  1.5840 -0.3645
   26CHL1  H22B 1908   0.966   4.595   5.298  0.5781  1.1254  1.4088
   26CHL1   C23 1909   0.959   4.704   5.116 -0.1091 -0.1340 -0.6289
   26CHL1  H23A 1910   0.864   4.759   5.132  0.3696  0.6550 -0.4384
   26CHL1  H23B 1911   1.032   4.771   5.065 -0.9019  0.1863 -1.3543
   26CHL1   C24 1912   0.933   4.593   5.016 -0.7291 -0.3921  0.4695
   26CHL1  H24A 1913   1.027   4.539   4.992 -0.5941 -0.5856  1.3807
   26CHL1  H24B 1914   0.860   4.521   5.059  1.7777 -2.6803  1.1475
   26CHL1   C25 1915   0.891   4.657   4.878  0.0933  0.5659  0.4147
   26CHL1   H25 1916   0.814   4.734   4.902  0.2126  0.7170  0.3185
   26CHL1   C26 1917   1.011   4.714   4.804  0.0066 -0.3091  0.7206
   26CHL1  H26A 1918   1.044   4.639   4.729  1.3914  1.3029 -0.3594
   26CHL1  H26B 1919   0.994   4.805   4.743  0.3554 -0.4748  0.3773
   26CHL1  H26C 1920   1.101   4.731   4.867  2.3446 -1.3743 -2.1135
   26CHL1   C27 1921   0.834   4.537   4.800  0.6064 -0.3484  0.1391
   26CHL1  H27A 1922   0.796   4.574   4.702  0.1186  0.6850  0.7148
   26CHL1  H27B 1923   0.908   4.453   4.795  1.4343  0.3014  1.0791
   26CHL1  H27C 1924   0.751   4.481   4.847 -0.4306 -0.2748 -1.5242
   27CHL1    C3 1925   1.195   2.979   5.893 -0.2989 -0.1203 -0.3869
   27CHL1    H3 1926   1.290   2.926   5.872  1.9899  3.3876  0.2215
   27CHL1    O3 1927   1.174   2.973   6.028 -0.4962 -0.4965  0.2833
   27CHL1   H3' 1928   1.079   2.964   6.037 -0.5503 -3.4943 -1.8803
   27CHL1    C4 1929   1.212   3.121   5.842  0.3998  0.3041 -0.4923
   27CHL1   H4A 1930   1.126   3.177   5.884  1.4419 -0.2221  2.5927
   27CHL1   H4B 1931   1.307   3.160   5.883  0.2565  1.4642 -1.2166
   27CHL1    C5 1932   1.213   3.122   5.692  0.1781 -0.5086 -0.1695
   27CHL1    C6 1933   1.313   3.178   5.630 -0.4391 -0.0218 -0.0257
   27CHL1    H6 1934   1.393   3.220   5.693 -0.8356  0.1658  0.3624
   27CHL1    C7 1935   1.326   3.203   5.481  0.2115 -0.5516 -0.3599
   27CHL1   H7A 1936   1.361   3.306   5.460  0.9224 -0.4677  1.1249
   27CHL1   H7B 1937   1.388   3.125   5.434  1.6196  1.8055 -2.7009
   27CHL1    C8 1938   1.178   3.206   5.427 -0.6320 -0.2264  0.1522
   27CHL1    H8 1939   1.125   3.293   5.471 -0.7668  0.0953 -0.6298
   27CHL1   C14 1940   1.178   3.217   5.269  0.4184  0.0528 -0.3463
   27CHL1   H14 1941   1.240   3.129   5.242  1.0309 -0.2455  1.7864
   27CHL1   C15 1942   1.256   3.332   5.212  0.0201  0.3347  0.4378
   27CHL1  H15A 1943   1.268   3.424   5.273  1.6922  0.7454 -0.4518
   27CHL1  H15B 1944   1.360   3.302   5.191  0.2228  0.8750  0.6494
   27CHL1   C16 1945   1.198   3.354   5.075  0.4682  0.2631  0.7606
   27CHL1  H16A 1946   1.146   3.452   5.077 -0.9564 -0.4019 -0.7552
   27CHL1  H16B 1947   1.270   3.348   4.991  1.6327 -1.1338  1.8142
   27CHL1   C17 1948   1.078   3.244   5.059  0.5625  0.0708 -0.1986
   27CHL1   H17 1949   1.135   3.158   5.017 -0.6303 -0.5633 -0.5634
   27CHL1   C13 1950   1.042   3.199   5.200 -0.1879 -0.4416  0.0215
   27CHL1   C18 1951   0.943   3.302   5.258 -0.0001 -0.0207  0.4238
   27CHL1  H18A 1952   0.985   3.405   5.255  0.1063 -0.0751 -0.0676
   27CHL1  H18B 1953   0.850   3.305   5.197 -0.4915 -0.8967  1.1087
   27CHL1  H18C 1954   0.921   3.291   5.366 -0.9306 -0.1980  0.2180
   27CHL1   C12 1955   1.007   3.053   5.219  0.4195  0.5410 -0.0773
   27CHL1  H12A 1956   0.906   3.033   5.177  0.5699 -1.9305  0.6063
   27CHL1  H12B 1957   1.077   2.991   5.161  0.3485 -1.9260  2.2712
   27CHL1   C11 1958   0.998   3.022   5.369 -0.4962 -0.5337 -0.4569
   27CHL1  H11A 1959   0.901   3.062   5.408 -0.4450  0.1341 -0.9942
   27CHL1  H11B 1960   0.987   2.912   5.374  1.2719 -0.8716 -2.6082
   27CHL1    C9 1961   1.114   3.072   5.462  0.0730  0.9734  0.0560
   27CHL1    H9 1962   1.198   3.001   5.443 -0.2379  0.1565  1.5110
   27CHL1   C10 1963   1.098   3.055   5.612  1.0906 -0.2851  0.3695
   27CHL1   C19 1964   0.970   3.142   5.652  0.3836  0.5762  0.1206
   27CHL1  H19A 1965   0.965   3.162   5.761 -1.9391  1.9498 -0.1663
   27CHL1  H19B 1966   0.968   3.244   5.607 -0.1349  0.7125  0.4445
   27CHL1  H19C 1967   0.876   3.090   5.624  0.7964 -1.2883  1.9481
   27CHL1    C1 1968   1.099   2.913   5.668 -0.5604 -1.4317 -0.3024
   27CHL1   H1A 1969   1.019   2.851   5.622 -0.2660 -1.9702 -0.0999
   27CHL1   H1B 1970   1.196   2.869   5.635  2.0815  2.1301  1.9637
   27CHL1    C2 1971   1.083   2.902   5.815 -0.8977 -0.3057 -0.1884
   27CHL1   H2A 1972   1.087   2.801   5.862  0.2165 -0.2188 -0.0748
   27CHL1   H2B 1973   0.986   2.951   5.838 -1.6832 -1.0841 -1.6758
   27CHL1   C20 1974   0.971   3.277   4.951 -0.7104  0.3611  0.0273
   27CHL1   H20 1975   0.918   3.369   4.984 -1.2669  0.5178 -1.2084
   27CHL1   C21 1976   0.862   3.176   4.918 -0.1020 -0.6151 -0.1984
   27CHL1  H21A 1977   0.807   3.156   5.013  1.4356  1.6385  1.2778
   27CHL1  H21B 1978   0.906   3.079   4.887 -0.1768  0.4343 -4.0516
   27CHL1  H21C 1979   0.791   3.223   4.846 -1.2193 -2.2838 -0.2290
   27CHL1   C22 1980   1.032   3.332   4.825 -0.5885  1.1351 -0.2440
   27CHL1  H22A 1981   0.948   3.383   4.773 -1.9866 -1.5443 -0.8051
   27CHL1  H22B 1982   1.099   3.419   4.836  0.6253  0.1617  0.3079
   27CHL1   C23 1983   1.112   3.229   4.741 -0.3966 -0.1873  0.0421
   27CHL1  H23A 1984   1.198   3.195   4.803 -0.0821  0.9351  0.2472
   27CHL1  H23B 1985   1.047   3.139   4.733 -2.0801  1.0326 -0.7600
   27CHL1   C24 1986   1.157   3.292   4.607  0.4732 -0.3564  0.8571
   27CHL1  H24A 1987   1.067   3.326   4.552  1.1504 -1.0678 -0.7524
   27CHL1  H24B 1988   1.211   3.385   4.633 -0.7273  0.1061  1.7837
   27CHL1   C25 1989   1.235   3.202   4.507 -0.0842 -0.3723 -0.9486
   27CHL1   H25 1990   1.308   3.154   4.577  0.0693  1.0566 -0.0816
   27CHL1   C26 1991   1.165   3.081   4.450  0.4039  0.5160 -0.4628
   27CHL1  H26A 1992   1.093   3.119   4.374  1.0115  1.1602 -0.7246
   27CHL1  H26B 1993   1.242   3.013   4.408 -0.0058  0.2162 -0.7361
   27CHL1  H26C 1994   1.113   3.026   4.531  0.0102  0.1484 -0.9582
   27CHL1   C27 1995   1.311   3.285   4.400  0.1178 -0.9322 -0.0283
   27CHL1  H27A 1996   1.386   3.353   4.447 -0.5983 -0.1397 -0.0192
   27CHL1  H27B 1997   1.352   3.208   4.331 -0.1551 -0.2371 -0.9834
   27CHL1  H27C 1998   1.243   3.350   4.341  0.8280  0.0238  0.1880
   28CHL1    C3 1999   6.573   0.104   6.071  0.3365  0.2025 -0.3072
   28CHL1    H3 2000   6.629   0.172   6.004  0.4032  0.5954  0.1421
   28CHL1    O3 2001   6.579   0.162   6.198 -0.6375  0.1912 -0.7104
   28CHL1   H3' 2002   6.556   0.255   6.191 -2.3377 -0.2397 -1.2978
   28CHL1    C4 2003   6.426   0.088   6.033  0.5975  0.1315  0.4932
   28CHL1   H4A 2004   6.381   0.016   6.104  1.6754  0.2760  1.3605
   28CHL1   H4B 2005   6.380   0.188   6.048 -0.4956 -0.0413 -1.3830
   28CHL1    C5 2006   6.409   0.039   5.884 -0.1802  0.3675  0.1116
   28CHL1    C6 2007   6.340   0.108   5.788  0.1336 -0.4365  0.3444
   28CHL1    H6 2008   6.288   0.198   5.825 -0.1165 -0.7280  0.7060
   28CHL1    C7 2009   6.326   0.069   5.646  0.3317  0.6168  0.2473
   28CHL1   H7A 2010   6.218   0.067   5.620 -0.0932  0.8182  1.8965
   28CHL1   H7B 2011   6.373   0.143   5.579 -0.4688  0.2197 -0.7841
   28CHL1    C8 2012   6.380  -0.082   5.628 -0.2114  0.3465  0.6375
   28CHL1    H8 2013   6.295  -0.151   5.649  0.3329 -0.7554 -0.6388
   28CHL1   C14 2014   6.402  -0.106   5.483 -0.9213  0.0395 -0.0809
   28CHL1   H14 2015   6.490  -0.042   5.462 -0.2595 -0.0694  2.0782
   28CHL1   C15 2016   6.296  -0.061   5.384 -0.1781  0.5974 -0.3041
   28CHL1  H15A 2017   6.197  -0.104   5.411  0.6584 -0.0779  1.9354
   28CHL1  H15B 2018   6.290   0.050   5.377  1.3580  0.8873  1.7967
   28CHL1   C16 2019   6.347  -0.118   5.250  0.1659  0.1029  0.5206
   28CHL1  H16A 2020   6.261  -0.168   5.201 -0.0900  0.5252  0.5295
   28CHL1  H16B 2021   6.376  -0.039   5.177 -0.1866  0.1341  0.4123
   28CHL1   C17 2022   6.466  -0.209   5.277 -0.4200 -0.1176  0.7858
   28CHL1   H17 2023   6.558  -0.147   5.269  0.0948 -0.7465  1.5699
   28CHL1   C13 2024   6.447  -0.239   5.430  0.1278  0.3678 -0.0466
   28CHL1   C18 2025   6.346  -0.351   5.461 -0.1913  0.1225  0.1061
   28CHL1  H18A 2026   6.253  -0.334   5.403 -1.1286 -0.6382  1.3417
   28CHL1  H18B 2027   6.382  -0.453   5.433  0.2921 -0.2455  1.9294
   28CHL1  H18C 2028   6.326  -0.335   5.569 -1.1154  0.8957 -0.1656
   28CHL1   C12 2029   6.575  -0.265   5.512 -0.1062 -0.6195 -0.1758
   28CHL1  H12A 2030   6.620  -0.366   5.501  0.3363 -0.2573 -2.1649
   28CHL1  H12B 2031   6.657  -0.195   5.485  0.2667 -1.2136 -0.6106
   28CHL1   C11 2032   6.565  -0.243   5.666 -0.1443 -0.4201 -0.3610
   28CHL1  H11A 2033   6.499  -0.323   5.707 -0.3536  0.3870  0.9540
   28CHL1  H11B 2034   6.666  -0.260   5.709 -1.2540 -2.2152  1.8160
   28CHL1    C9 2035   6.507  -0.111   5.705  0.1492 -0.4904  0.4577
   28CHL1    H9 2036   6.588  -0.043   5.671 -2.1349  1.7223 -0.8941
   28CHL1   C10 2037   6.499  -0.086   5.856  0.8673 -0.1955  0.0288
   28CHL1   C19 2038   6.417  -0.201   5.926  0.3359  0.0605  0.5682
   28CHL1  H19A 2039   6.325  -0.221   5.866  1.7375 -2.0600 -0.9943
   28CHL1  H19B 2040   6.469  -0.299   5.924 -1.2185 -0.7983 -1.1332
   28CHL1  H19C 2041   6.395  -0.187   6.034 -0.0067  0.3506  0.4625
   28CHL1    C1 2042   6.643  -0.082   5.914 -0.1340  0.5226 -0.6445
   28CHL1   H1A 2043   6.701  -0.175   5.898 -0.7445  0.1817 -0.8994
   28CHL1   H1B 2044   6.687  -0.005   5.846 -1.5941  1.3637 -0.6701
   28CHL1    C2 2045   6.649  -0.027   6.061 -0.3953  0.6319  0.5690
   28CHL1   H2A 2046   6.754  -0.000   6.086 -0.8978  1.7322  1.6092
   28CHL1   H2B 2047   6.603  -0.096   6.135 -0.3509 -2.2243 -1.8938
   28CHL1   C20 2048   6.474  -0.317   5.176 -0.5238  0.2458  0.7056
   28CHL1   H20 2049   6.389  -0.388   5.188 -1.8814  1.8240  0.7136
   28CHL1   C21 2050   6.612  -0.385   5.192 -0.8358 -0.4841  0.1824
   28CHL1  H21A 2051   6.637  -0.398   5.300 -1.2599  0.0026  0.3498
   28CHL1  H21B 2052   6.694  -0.323   5.151  0.0773 -2.5693 -1.2483
   28CHL1  H21C 2053   6.618  -0.488   5.151  1.7520 -0.0937 -0.5861
   28CHL1   C22 2054   6.472  -0.266   5.035 -0.2980 -0.6445  0.2026
   28CHL1  H22A 2055   6.368  -0.235   5.010  0.4832 -0.6203 -3.7523
   28CHL1  H22B 2056   6.537  -0.176   5.032 -0.8272 -0.2567  0.1486
   28CHL1   C23 2057   6.510  -0.359   4.917  0.1238  0.3157  0.2560
   28CHL1  H23A 2058   6.601  -0.417   4.944  1.0643  2.8804  3.1954
   28CHL1  H23B 2059   6.447  -0.450   4.914 -0.0432  0.4177  0.6346
   28CHL1   C24 2060   6.525  -0.276   4.787 -0.4305 -0.1445  0.2782
   28CHL1  H24A 2061   6.601  -0.200   4.815 -0.8428  0.8346 -1.1283
   28CHL1  H24B 2062   6.560  -0.352   4.715 -1.1572 -1.8287  1.6368
   28CHL1   C25 2063   6.407  -0.203   4.722  0.7046  0.2429  0.2051
   28CHL1   H25 2064   6.356  -0.131   4.788  1.0592  1.5847 -0.9355
   28CHL1   C26 2065   6.456  -0.120   4.607 -0.1200  0.2368  0.7347
   28CHL1  H26A 2066   6.527  -0.177   4.543  0.0322 -0.2867  1.3634
   28CHL1  H26B 2067   6.365  -0.079   4.558 -0.1339  1.3507  1.6418
   28CHL1  H26C 2068   6.512  -0.032   4.645  1.0641 -0.3843  0.4564
   28CHL1   C27 2069   6.303  -0.313   4.687 -0.0591 -0.9342 -0.1082
   28CHL1  H27A 2070   6.234  -0.275   4.608  1.2505  0.4858 -0.6298
   28CHL1  H27B 2071   6.371  -0.387   4.641  0.5032 -0.7275  0.3762
   28CHL1  H27C 2072   6.243  -0.352   4.772 -0.6093  1.0353  0.4703
   29CHL1    C3 2073   2.321   5.196   2.876  0.1233  0.5888 -0.2196
   29CHL1    H3 2074   2.227   5.137   2.878 -0.2693  0.6650 -4.8033
   29CHL1    O3 2075   2.367   5.181   2.746 -0.2640 -0.5682 -0.0067
   29CHL1   H3' 2076   2.460   5.197   2.762 -0.5419 -1.7475  3.5455
   29CHL1    C4 2077   2.307   5.346   2.904  0.0959  0.4625  0.3412
   29CHL1   H4A 2078   2.411   5.384   2.900 -0.4333  2.0505  0.9984
   29CHL1   H4B 2079   2.249   5.414   2.839 -0.8410 -1.5426 -1.0184
   29CHL1    C5 2080   2.257   5.374   3.044 -0.5117  0.0862 -0.1493
   29CHL1    C6 2081   2.137   5.433   3.076 -0.1200  0.1774  0.4555
   29CHL1    H6 2082   2.072   5.453   2.989 -0.0439 -0.2166  0.3052
   29CHL1    C7 2083   2.106   5.478   3.211  0.7268  0.5299 -0.1146
   29CHL1   H7A 2084   2.084   5.587   3.203  0.1741  0.4343  0.0791
   29CHL1   H7B 2085   2.015   5.429   3.252  2.9495 -2.8474  1.2279
   29CHL1    C8 2086   2.220   5.457   3.316  0.1903  0.1275  0.2253
   29CHL1    H8 2087   2.288   5.544   3.325 -0.7421  0.7379  1.9642
   29CHL1   C14 2088   2.147   5.432   3.450  0.7234  0.7011 -0.3464
   29CHL1   H14 2089   2.091   5.337   3.446  1.4282  0.3180 -1.6087
   29CHL1   C15 2090   2.036   5.526   3.497 -0.0372  0.7667  0.1089
   29CHL1  H15A 2091   2.064   5.633   3.482  0.0003  0.7045 -0.2708
   29CHL1  H15B 2092   1.939   5.495   3.453  0.9448 -1.1829 -0.7772
   29CHL1   C16 2093   2.022   5.494   3.642  0.1556  0.0227 -0.8946
   29CHL1  H16A 2094   2.035   5.583   3.707  1.2398 -0.6145 -0.2186
   29CHL1  H16B 2095   1.920   5.454   3.661  1.3083 -2.5392  0.5632
   29CHL1   C17 2096   2.138   5.401   3.675 -0.3574  0.2777 -1.0641
   29CHL1   H17 2097   2.113   5.294   3.663 -1.4329  0.3215  0.5788
   29CHL1   C13 2098   2.243   5.408   3.568 -0.0566  1.2456  0.3781
   29CHL1   C18 2099   2.342   5.529   3.589  0.0184 -0.3234  0.1996
   29CHL1  H18A 2100   2.387   5.559   3.492 -1.4642  0.7332 -0.2123
   29CHL1  H18B 2101   2.287   5.618   3.627 -2.8041 -0.8734 -2.1920
   29CHL1  H18C 2102   2.421   5.493   3.657 -1.8796 -0.5576  2.3808
   29CHL1   C12 2103   2.322   5.278   3.542  0.0299  0.1008 -0.2671
   29CHL1  H12A 2104   2.403   5.258   3.615  0.8284 -0.8166 -1.3636
   29CHL1  H12B 2105   2.258   5.187   3.548 -0.8138  0.7452  1.3869
   29CHL1   C11 2106   2.393   5.290   3.404  1.0626 -0.6761  0.4553
   29CHL1  H11A 2107   2.472   5.363   3.432 -0.4578  0.3849  2.2310
   29CHL1  H11B 2108   2.444   5.194   3.381  2.6537  0.1525  0.4453
   29CHL1    C9 2109   2.295   5.334   3.286  0.3681 -0.0242 -0.2666
   29CHL1    H9 2110   2.231   5.243   3.279  0.5760 -0.3703  1.6890
   29CHL1   C10 2111   2.357   5.325   3.144  0.2547 -0.3662 -0.2576
   29CHL1   C19 2112   2.476   5.412   3.147 -0.2329 -0.4053  0.1457
   29CHL1  H19A 2113   2.453   5.520   3.141  1.6448  0.1154  1.2382
   29CHL1  H19B 2114   2.548   5.405   3.231 -1.6781  3.1839  1.8949
   29CHL1  H19C 2115   2.537   5.398   3.055 -1.2002 -0.6538 -0.4662
   29CHL1    C1 2116   2.407   5.181   3.111 -0.1428 -0.0278  0.4889
   29CHL1   H1A 2117   2.495   5.159   3.175 -0.1742  0.1232  0.5830
   29CHL1   H1B 2118   2.321   5.119   3.145 -2.2191  1.3656 -1.8591
   29CHL1    C2 2119   2.434   5.141   2.967 -0.1372 -0.3649  0.2118
   29CHL1   H2A 2120   2.445   5.032   2.953 -0.8349 -0.3042 -0.9212
   29CHL1   H2B 2121   2.528   5.190   2.935 -1.5171  2.9792  0.8226
   29CHL1   C20 2122   2.183   5.418   3.824 -0.7091  0.0256  0.2847
   29CHL1   H20 2123   2.246   5.508   3.840  0.3818 -0.9088  1.5223
   29CHL1   C21 2124   2.263   5.289   3.863  0.1096 -1.2641  0.0005
   29CHL1  H21A 2125   2.360   5.289   3.807 -1.0123  1.4392 -2.1870
   29CHL1  H21B 2126   2.204   5.201   3.829 -0.9825 -0.0518 -1.3664
   29CHL1  H21C 2127   2.290   5.285   3.970 -0.0884 -2.0421  0.0255
   29CHL1   C22 2128   2.068   5.426   3.923  0.3052  0.3884 -0.6700
   29CHL1  H22A 2129   2.006   5.515   3.898 -1.6704 -0.7071  0.1164
   29CHL1  H22B 2130   2.003   5.339   3.899 -1.0352  0.9796  0.6231
   29CHL1   C23 2131   2.103   5.432   4.077 -0.5229  0.3018  0.0020
   29CHL1  H23A 2132   2.207   5.403   4.100 -0.4013 -0.1870 -1.1079
   29CHL1  H23B 2133   2.099   5.539   4.108  0.8042  0.0425  1.1738
   29CHL1   C24 2134   2.016   5.334   4.155 -0.2419 -0.3293 -0.2223
   29CHL1  H24A 2135   1.909   5.347   4.126 -0.3765 -3.2224 -1.3505
   29CHL1  H24B 2136   2.034   5.229   4.124 -0.6044 -0.5001  0.1270
   29CHL1   C25 2137   2.023   5.366   4.310 -0.3054  0.1317  0.3231
   29CHL1   H25 2138   2.131   5.389   4.326  0.3329 -1.8669 -0.7778
   29CHL1   C26 2139   1.940   5.489   4.350  0.1289 -0.1046  0.8218
   29CHL1  H26A 2140   1.978   5.570   4.285  1.3553 -1.2759  0.0301
   29CHL1  H26B 2141   1.836   5.465   4.320 -0.3873  1.8406  0.9662
   29CHL1  H26C 2142   1.952   5.522   4.455 -0.6111  2.7562  0.0754
   29CHL1   C27 2143   1.988   5.243   4.400  0.7425  0.0148  0.6750
   29CHL1  H27A 2144   2.040   5.155   4.356  1.1136  1.1905 -1.3758
   29CHL1  H27B 2145   2.014   5.263   4.506  0.8824 -0.6016  0.7614
   29CHL1  H27C 2146   1.882   5.223   4.374  0.8605 -0.4468  0.5409
   30CHL1    C3 2147   2.243   3.758   3.177 -0.4329  0.3076 -0.2241
   30CHL1    H3 2148   2.293   3.857   3.164 -0.1226  0.1297 -0.3879
   30CHL1    O3 2149   2.213   3.701   3.049  0.0603 -0.0891 -0.0252
   30CHL1   H3' 2150   2.302   3.693   3.014  1.1926 -0.1501  2.6720
   30CHL1    C4 2151   2.336   3.657   3.260  0.5397  0.0011 -0.1843
   30CHL1   H4A 2152   2.303   3.553   3.241 -0.9766  0.3374  0.4283
   30CHL1   H4B 2153   2.432   3.663   3.204  0.4384  1.5332 -0.2355
   30CHL1    C5 2154   2.348   3.693   3.407 -0.7547 -0.0527  0.2137
   30CHL1    C6 2155   2.466   3.712   3.466 -0.0744 -0.0903 -0.8285
   30CHL1    H6 2156   2.562   3.697   3.415  0.7766  0.8194  0.4507
   30CHL1    C7 2157   2.484   3.755   3.608  0.0871 -0.0667 -0.4439
   30CHL1   H7A 2158   2.572   3.706   3.654  0.6861  1.1339 -0.2571
   30CHL1   H7B 2159   2.511   3.863   3.615 -0.6674  0.0151  2.2045
   30CHL1    C8 2160   2.358   3.727   3.691  0.0503 -0.0192  0.4026
   30CHL1    H8 2161   2.354   3.618   3.715  0.5517 -0.2863 -0.6694
   30CHL1   C14 2162   2.367   3.813   3.820  0.4872 -0.5368  0.5112
   30CHL1   H14 2163   2.378   3.918   3.786 -0.4146 -0.2780  0.9786
   30CHL1   C15 2164   2.494   3.793   3.906  0.1564 -0.3790  0.4368
   30CHL1  H15A 2165   2.525   3.687   3.906  1.2636 -0.1488  3.2025
   30CHL1  H15B 2166   2.582   3.850   3.869  1.1416 -1.1021  1.6059
   30CHL1   C16 2167   2.448   3.841   4.041 -0.1055  0.0126 -0.3246
   30CHL1  H16A 2168   2.471   3.762   4.116  0.4906  0.1998 -0.3032
   30CHL1  H16B 2169   2.492   3.932   4.087 -1.8800  0.5383  0.4116
   30CHL1   C17 2170   2.305   3.884   4.030 -0.1811  0.1860 -0.3789
   30CHL1   H17 2171   2.305   3.990   3.995 -0.5523 -0.0069 -0.9792
   30CHL1   C13 2172   2.245   3.813   3.912 -0.1610 -0.2540 -0.0772
   30CHL1   C18 2173   2.218   3.663   3.947 -0.1269  0.1798 -0.0365
   30CHL1  H18A 2174   2.129   3.656   4.012 -0.5895 -0.8887 -0.7692
   30CHL1  H18B 2175   2.199   3.598   3.859  0.6443 -1.0856  0.6989
   30CHL1  H18C 2176   2.309   3.622   3.996 -0.5769 -1.1121 -0.2540
   30CHL1   C12 2177   2.131   3.880   3.840  0.3493  0.1448  0.1211
   30CHL1  H12A 2178   2.039   3.899   3.900  0.2240 -0.8036  0.2356
   30CHL1  H12B 2179   2.158   3.983   3.809  0.6920  0.1281  0.3593
   30CHL1   C11 2180   2.099   3.818   3.700  0.5934 -0.3410  0.0981
   30CHL1  H11A 2181   2.060   3.717   3.724  0.1963 -0.2443 -0.1440
   30CHL1  H11B 2182   2.013   3.863   3.647  0.6297  0.7518  0.9379
   30CHL1    C9 2183   2.231   3.791   3.615  0.1828 -0.2790  0.1622
   30CHL1    H9 2184   2.262   3.896   3.592 -0.6573  0.1856  1.0712
   30CHL1   C10 2185   2.212   3.723   3.477  0.5314  0.3101  0.4527
   30CHL1   C19 2186   2.142   3.592   3.498  1.0055  0.3242 -0.1015
   30CHL1  H19A 2187   2.212   3.523   3.550  0.8674  0.5506  0.3947
   30CHL1  H19B 2188   2.052   3.598   3.563  1.4168 -0.4387  0.5605
   30CHL1  H19C 2189   2.104   3.541   3.407  2.7191  0.2734 -0.8238
   30CHL1    C1 2190   2.115   3.816   3.394  0.0171  0.1685  0.6584
   30CHL1   H1A 2191   2.012   3.802   3.434  0.5634 -0.8932  1.7923
   30CHL1   H1B 2192   2.135   3.924   3.411 -0.9835  0.5904 -0.6947
   30CHL1    C2 2193   2.102   3.781   3.239 -0.1388 -0.4701 -0.3794
   30CHL1   H2A 2194   2.057   3.869   3.187 -2.3151 -0.9565  0.5809
   30CHL1   H2B 2195   2.045   3.687   3.227  3.3784 -2.9666  0.8700
   30CHL1   C20 2196   2.208   3.881   4.150 -0.6414 -0.0844 -0.1697
   30CHL1   H20 2197   2.106   3.852   4.117 -0.7420  0.5761 -0.4593
   30CHL1   C21 2198   2.213   4.026   4.208  0.0702 -0.0763  0.7648
   30CHL1  H21A 2199   2.173   4.105   4.141 -0.4771 -0.8889  0.1141
   30CHL1  H21B 2200   2.314   4.057   4.242  0.8613 -1.4047 -0.2810
   30CHL1  H21C 2201   2.151   4.024   4.300  0.6334 -1.6369  1.1426
   30CHL1   C22 2202   2.235   3.773   4.257  0.3663 -0.4263 -0.0760
   30CHL1  H22A 2203   2.259   3.676   4.208  0.1251  0.7754 -2.7031
   30CHL1  H22B 2204   2.327   3.813   4.304 -0.4676  2.3114 -0.6258
   30CHL1   C23 2205   2.115   3.744   4.349 -0.6982  0.1831  0.5785
   30CHL1  H23A 2206   2.016   3.788   4.323 -2.5181 -1.5053  3.9530
   30CHL1  H23B 2207   2.096   3.634   4.349  0.7654 -0.1056  1.5322
   30CHL1   C24 2208   2.144   3.804   4.480 -0.3447 -0.2754  0.2595
   30CHL1  H24A 2209   2.249   3.817   4.513 -0.3675  1.8819 -0.3772
   30CHL1  H24B 2210   2.110   3.909   4.489  0.6942  0.0229  0.9669
   30CHL1   C25 2211   2.074   3.724   4.592 -0.5724 -0.1463 -0.4063
   30CHL1   H25 2212   2.098   3.616   4.586 -0.1827 -0.1623  1.1583
   30CHL1   C26 2213   2.133   3.772   4.734  0.3311  0.8424  0.2518
   30CHL1  H26A 2214   2.240   3.741   4.737 -0.1260 -0.8218  0.2859
   30CHL1  H26B 2215   2.118   3.881   4.742 -1.2659  0.9495 -2.6154
   30CHL1  H26C 2216   2.076   3.714   4.810  0.3051 -2.8846 -2.2968
   30CHL1   C27 2217   1.924   3.744   4.591 -0.9567  0.1799 -0.6254
   30CHL1  H27A 2218   1.890   3.847   4.614 -0.4337 -0.1362  1.8572
   30CHL1  H27B 2219   1.887   3.729   4.487  0.0258 -1.1661 -0.8028
   30CHL1  H27C 2220   1.874   3.665   4.651 -0.9460  1.7752  1.6016
   31CHL1    C3 2221   5.219   6.666   3.032  0.5729  0.6274  0.0533
   31CHL1    H3 2222   5.233   6.557   3.050 -1.6539  0.3513  0.4166
   31CHL1    O3 2223   5.177   6.681   2.898 -0.0982  0.1334  0.1128
   31CHL1   H3' 2224   5.157   6.775   2.893  1.6301  0.4737 -1.1208
   31CHL1    C4 2225   5.102   6.718   3.122  0.3163  0.4489 -0.9515
   31CHL1   H4A 2226   5.094   6.828   3.108 -1.1202  0.6178  0.7803
   31CHL1   H4B 2227   5.011   6.659   3.099 -1.1863  1.1343  2.5967
   31CHL1    C5 2228   5.139   6.697   3.268  0.0044  0.3176 -0.3610
   31CHL1    C6 2229   5.065   6.615   3.342 -0.2822  0.6340  0.0569
   31CHL1    H6 2230   4.972   6.574   3.300 -0.5784  1.5741 -0.2196
   31CHL1    C7 2231   5.086   6.587   3.492  0.1520  0.5081 -0.8714
   31CHL1   H7A 2232   4.990   6.599   3.547  0.2458  1.4687 -0.8911
   31CHL1   H7B 2233   5.123   6.482   3.492  1.1575  0.8445  0.3456
   31CHL1    C8 2234   5.191   6.687   3.556  0.5339 -0.0612  0.2122
   31CHL1    H8 2235   5.145   6.785   3.578 -1.6094 -0.8657 -0.3852
   31CHL1   C14 2236   5.250   6.623   3.681 -0.5989 -0.2638 -0.6719
   31CHL1   H14 2237   5.301   6.531   3.645 -0.8545 -1.6998  2.3642
   31CHL1   C15 2238   5.149   6.561   3.778 -0.2262  0.2845 -0.5132
   31CHL1  H15A 2239   5.094   6.651   3.815  1.4819  0.6938  1.2220
   31CHL1  H15B 2240   5.079   6.480   3.748  0.0984 -1.1205  2.1461
   31CHL1   C16 2241   5.243   6.532   3.903  0.6366  0.5947  0.3350
   31CHL1  H16A 2242   5.194   6.576   3.992 -0.3792  3.5956 -1.5373
   31CHL1  H16B 2243   5.262   6.424   3.916 -2.4160 -0.2467 -1.0982
   31CHL1   C17 2244   5.379   6.613   3.880 -0.1628  0.3461 -0.2573
   31CHL1   H17 2245   5.450   6.548   3.825 -1.1984 -0.5835 -0.5477
   31CHL1   C13 2246   5.350   6.706   3.762 -0.2775 -0.9191  0.8155
   31CHL1   C18 2247   5.277   6.835   3.807 -0.2276 -0.5163 -0.1029
   31CHL1  H18A 2248   5.219   6.891   3.731 -2.1173 -0.6980  1.1232
   31CHL1  H18B 2249   5.205   6.811   3.888 -0.5728 -0.5327 -0.4122
   31CHL1  H18C 2250   5.353   6.909   3.841  2.6185 -2.0781 -2.5720
   31CHL1   C12 2251   5.467   6.739   3.658 -0.3684  0.8810 -0.1073
   31CHL1  H12A 2252   5.542   6.809   3.700  3.8908 -1.3407 -3.2436
   31CHL1  H12B 2253   5.527   6.649   3.633  2.1205  2.3942  0.0829
   31CHL1   C11 2254   5.414   6.792   3.527 -0.3815 -0.3988  0.3804
   31CHL1  H11A 2255   5.366   6.891   3.540  3.1757  1.4443  0.5291
   31CHL1  H11B 2256   5.503   6.808   3.464 -1.0171  2.0481  0.0262
   31CHL1    C9 2257   5.311   6.711   3.460  0.4100  0.6437 -0.2491
   31CHL1    H9 2258   5.355   6.610   3.445  1.7870  1.2163 -0.2018
   31CHL1   C10 2259   5.269   6.763   3.318  1.2332  0.2199 -0.7072
   31CHL1   C19 2260   5.252   6.914   3.320 -0.1920 -0.3392 -0.4176
   31CHL1  H19A 2261   5.192   6.947   3.408  2.1329 -0.4746  1.3099
   31CHL1  H19B 2262   5.351   6.963   3.333  0.5693 -1.6846 -1.0303
   31CHL1  H19C 2263   5.210   6.955   3.226 -1.0270  1.6895  0.7747
   31CHL1    C1 2264   5.375   6.721   3.211 -0.0590 -0.3285  0.3969
   31CHL1   H1A 2265   5.473   6.765   3.240  1.7090 -3.2865 -0.6014
   31CHL1   H1B 2266   5.392   6.613   3.231 -0.1830 -0.4632 -0.1967
   31CHL1    C2 2267   5.339   6.746   3.064  0.0778 -1.3292 -0.3186
   31CHL1   H2A 2268   5.420   6.725   2.991  0.5406  0.9210 -0.5400
   31CHL1   H2B 2269   5.329   6.856   3.048 -1.3560 -1.3365  0.3896
   31CHL1   C20 2270   5.441   6.665   4.010  0.3559 -0.7196 -0.3842
   31CHL1   H20 2271   5.375   6.749   4.041 -1.8078 -1.7673 -1.8801
   31CHL1   C21 2272   5.579   6.726   3.982 -0.8040 -0.0753 -0.2289
   31CHL1  H21A 2273   5.616   6.781   4.071  0.2323  0.3937 -0.9363
   31CHL1  H21B 2274   5.581   6.803   3.902  0.1775  1.4301  1.1903
   31CHL1  H21C 2275   5.653   6.655   3.939 -0.1386  2.1551 -3.0531
   31CHL1   C22 2276   5.453   6.564   4.123 -0.0667 -0.6511 -0.5489
   31CHL1  H22A 2277   5.367   6.494   4.125 -0.9818  0.4729  0.4583
   31CHL1  H22B 2278   5.542   6.502   4.097  0.3112  0.3209 -1.6314
   31CHL1   C23 2279   5.484   6.629   4.256 -0.2650  0.2492 -0.2524
   31CHL1  H23A 2280   5.580   6.684   4.256 -1.3111  2.1303 -0.4048
   31CHL1  H23B 2281   5.408   6.710   4.261  0.3408  0.7501  2.2111
   31CHL1   C24 2282   5.478   6.530   4.374 -0.4341 -0.3631  0.6277
   31CHL1  H24A 2283   5.370   6.519   4.397 -0.7547  1.2550  0.0306
   31CHL1  H24B 2284   5.522   6.435   4.336 -1.8433 -1.0406  0.6239
   31CHL1   C25 2285   5.566   6.586   4.492  0.2731  0.3855  0.8319
   31CHL1   H25 2286   5.667   6.617   4.459 -1.1662  3.1540 -1.4824
   31CHL1   C26 2287   5.497   6.707   4.551 -0.3666 -0.5083 -0.0452
   31CHL1  H26A 2288   5.561   6.759   4.626 -1.4692  1.5319 -0.4506
   31CHL1  H26B 2289   5.492   6.784   4.472  1.5319 -0.0488  0.2223
   31CHL1  H26C 2290   5.403   6.669   4.596  0.2623 -1.2025  0.7200
   31CHL1   C27 2291   5.584   6.477   4.600 -0.1623  0.9218  0.5737
   31CHL1  H27A 2292   5.486   6.454   4.646 -1.1845  1.3934 -1.2737
   31CHL1  H27B 2293   5.622   6.382   4.555 -0.0483  0.0415  2.4246
   31CHL1  H27C 2294   5.658   6.508   4.677  1.3826 -0.9140 -0.0736
   32CHL1    C3 2295   2.332   4.136   2.774  0.4435  0.1530  0.1333
   32CHL1    H3 2296   2.248   4.064   2.782 -0.0764  0.9166  2.1241
   32CHL1    O3 2297   2.392   4.130   2.642  0.1000  0.1510  0.3598
   32CHL1   H3' 2298   2.444   4.049   2.639  1.6002  1.0881 -1.5478
   32CHL1    C4 2299   2.280   4.275   2.808 -0.2217  0.6801 -0.3241
   32CHL1   H4A 2300   2.370   4.340   2.797  1.8860 -2.1105 -0.6870
   32CHL1   H4B 2301   2.208   4.316   2.734  0.8296  1.0731 -1.1695
   32CHL1    C5 2302   2.235   4.294   2.952  0.6277 -0.0685 -1.1392
   32CHL1    C6 2303   2.112   4.336   2.989  0.0290  0.1632  0.5456
   32CHL1    H6 2304   2.038   4.362   2.913  1.9507  1.7095 -0.9073
   32CHL1    C7 2305   2.065   4.347   3.132 -0.0378 -0.6345 -0.6543
   32CHL1   H7A 2306   2.020   4.445   3.157  1.1448 -0.6181  1.6624
   32CHL1   H7B 2307   1.996   4.264   3.159 -0.5575  0.0051  0.0397
   32CHL1    C8 2308   2.183   4.338   3.237  0.3767  0.7389  0.0267
   32CHL1    H8 2309   2.242   4.432   3.236 -0.5040  1.3016  0.2109
   32CHL1   C14 2310   2.126   4.318   3.380  0.0916  0.3769  0.3987
   32CHL1   H14 2311   2.071   4.222   3.375  3.3978 -1.6940  0.9880
   32CHL1   C15 2312   2.033   4.422   3.435 -0.0268  0.5909 -0.5737
   32CHL1  H15A 2313   2.065   4.525   3.409  0.6109 -0.2063 -3.2900
   32CHL1  H15B 2314   1.931   4.412   3.391  0.4776  0.2569 -1.7033
   32CHL1   C16 2315   2.033   4.384   3.584 -0.0012 -0.0923  0.3069
   32CHL1  H16A 2316   2.032   4.483   3.634 -4.4260 -0.1138  0.6635
   32CHL1  H16B 2317   1.951   4.325   3.631  0.2935 -1.1584 -0.4670
   32CHL1   C17 2318   2.166   4.300   3.611 -0.6977  0.4376  0.0192
   32CHL1   H17 2319   2.128   4.196   3.616  1.0228 -0.1812  1.6552
   32CHL1   C13 2320   2.242   4.311   3.483 -0.1626  0.3704  0.3620
   32CHL1   C18 2321   2.326   4.439   3.488 -1.0513  0.6336 -0.2575
   32CHL1  H18A 2322   2.364   4.449   3.384 -2.3125 -2.6109 -1.1680
   32CHL1  H18B 2323   2.264   4.531   3.495 -1.5180  0.3955 -1.0547
   32CHL1  H18C 2324   2.409   4.432   3.562 -0.4593  0.2637 -0.9391
   32CHL1   C12 2325   2.333   4.191   3.446  0.7669  0.3820 -0.3169
   32CHL1  H12A 2326   2.418   4.181   3.516  0.4115 -0.3837  0.0176
   32CHL1  H12B 2327   2.269   4.101   3.442  0.0643  0.8896 -0.8958
   32CHL1   C11 2328   2.391   4.201   3.306  0.3026  0.1510  0.1549
   32CHL1  H11A 2329   2.461   4.287   3.308  1.2391 -0.5675 -0.9549
   32CHL1  H11B 2330   2.449   4.111   3.275 -0.8284 -0.3097 -0.7181
   32CHL1    C9 2331   2.282   4.226   3.201 -0.0127 -0.4660 -0.3168
   32CHL1    H9 2332   2.219   4.135   3.199 -0.1048 -0.4046 -0.2659
   32CHL1   C10 2333   2.334   4.237   3.057  0.7327 -0.6330 -0.4181
   32CHL1   C19 2334   2.455   4.345   3.065  0.9717  0.4763 -0.2189
   32CHL1  H19A 2335   2.538   4.291   3.116 -0.0401 -1.0179 -0.1216
   32CHL1  H19B 2336   2.492   4.387   2.969 -0.0168  1.8452 -0.0412
   32CHL1  H19C 2337   2.422   4.426   3.134 -0.5281 -0.7529  0.5504
   32CHL1    C1 2338   2.377   4.095   3.017 -0.2446  0.1014  0.3521
   32CHL1   H1A 2339   2.461   4.059   3.080 -0.4571 -1.2336 -0.0966
   32CHL1   H1B 2340   2.298   4.017   3.017  0.4624 -0.6550 -0.9410
   32CHL1    C2 2341   2.435   4.092   2.873 -0.4513 -0.8951 -0.1269
   32CHL1   H2A 2342   2.458   3.985   2.852  1.3710 -0.8506  1.3420
   32CHL1   H2B 2343   2.520   4.162   2.861 -0.8418 -0.8156 -3.0534
   32CHL1   C20 2344   2.220   4.341   3.746  0.1924  0.3476  0.4341
   32CHL1   H20 2345   2.266   4.442   3.753  3.8483 -1.1871  0.6722
   32CHL1   C21 2346   2.344   4.249   3.779  0.3395 -0.2122  0.4721
   32CHL1  H21A 2347   2.322   4.140   3.785  1.7890 -0.5215  0.5559
   32CHL1  H21B 2348   2.396   4.290   3.868 -1.9259  3.2046  0.3974
   32CHL1  H21C 2349   2.427   4.273   3.710  1.4941 -0.4766  1.7324
   32CHL1   C22 2350   2.116   4.340   3.860  0.3572 -1.1345  0.2075
   32CHL1  H22A 2351   2.047   4.425   3.842  1.6974  0.8180  3.3638
   32CHL1  H22B 2352   2.053   4.248   3.858 -0.5833 -0.4918 -1.9117
   32CHL1   C23 2353   2.175   4.364   4.003  0.4607  0.6577  0.1893
   32CHL1  H23A 2354   2.236   4.274   4.025 -1.8788 -1.5895 -1.9503
   32CHL1  H23B 2355   2.231   4.460   4.012 -1.0539  1.6013 -0.0268
   32CHL1   C24 2356   2.063   4.377   4.115  0.5346 -0.8096  0.4930
   32CHL1  H24A 2357   1.979   4.428   4.063  1.7330  1.0459  0.3079
   32CHL1  H24B 2358   2.030   4.273   4.138  4.1874 -1.9850  1.0487
   32CHL1   C25 2359   2.102   4.436   4.256  0.7445 -0.4423 -0.0889
   32CHL1   H25 2360   2.141   4.539   4.238 -1.6569  0.4046 -0.8623
   32CHL1   C26 2361   1.984   4.453   4.344  0.2738 -0.7143  0.0156
   32CHL1  H26A 2362   1.929   4.548   4.328  2.4249  1.0102  2.2187
   32CHL1  H26B 2363   1.915   4.366   4.337 -0.9504  0.2910 -0.8521
   32CHL1  H26C 2364   2.018   4.455   4.449  0.0606  0.3674  0.0754
   32CHL1   C27 2365   2.204   4.344   4.327 -0.2132  0.4578  0.4833
   32CHL1  H27A 2366   2.235   4.381   4.427  0.6388 -1.5784  1.0306
   32CHL1  H27B 2367   2.159   4.244   4.349 -2.3173  0.5656 -2.6860
   32CHL1  H27C 2368   2.285   4.326   4.253  2.0254  2.0613  2.4019
   33CHL1    C3 2369   0.269   6.273   2.962 -0.3696  0.6415  0.6701
   33CHL1    H3 2370   0.331   6.365   2.974  1.0409  0.1681 -2.0589
   33CHL1    O3 2371   0.231   6.269   2.823 -0.3052 -0.6175  0.3815
   33CHL1   H3' 2372   0.293   6.209   2.782 -0.3253  0.2361 -0.9578
   33CHL1    C4 2373   0.338   6.136   2.992 -0.0578 -0.1962 -0.7075
   33CHL1   H4A 2374   0.275   6.050   2.963 -0.4422 -0.5037  0.9359
   33CHL1   H4B 2375   0.432   6.141   2.934 -1.1221  1.1066 -2.4157
   33CHL1    C5 2376   0.362   6.122   3.142  0.5525  0.7128  0.0563
   33CHL1    C6 2377   0.479   6.102   3.194  0.0536  0.2009  0.3150
   33CHL1    H6 2378   0.563   6.108   3.123  0.6077  0.1418  0.9576
   33CHL1    C7 2379   0.512   6.089   3.335 -0.0877 -0.3230  0.4087
   33CHL1   H7A 2380   0.583   6.003   3.343  0.2543  0.0903  2.3842
   33CHL1   H7B 2381   0.556   6.186   3.365  0.8760 -1.2280  2.1080
   33CHL1    C8 2382   0.382   6.061   3.415  0.5920  0.3228  0.2937
   33CHL1    H8 2383   0.357   5.956   3.389 -0.8061  0.6287  0.3164
   33CHL1   C14 2384   0.411   6.069   3.568 -1.4370  0.5156  0.1219
   33CHL1   H14 2385   0.452   6.170   3.589 -1.6043  0.6061  0.0228
   33CHL1   C15 2386   0.517   5.965   3.624 -0.0998 -0.4635  0.4931
   33CHL1  H15A 2387   0.481   5.871   3.576 -2.7537 -0.2833  1.9277
   33CHL1  H15B 2388   0.621   5.992   3.597  0.0626 -1.8207 -0.3367
   33CHL1   C16 2389   0.485   5.960   3.771 -0.0299 -0.0809  0.4476
   33CHL1  H16A 2390   0.489   5.858   3.814  0.2749  0.9122  2.9694
   33CHL1  H16B 2391   0.566   6.026   3.809  0.2971 -0.8930  1.1877
   33CHL1   C17 2392   0.354   6.041   3.785 -0.1719  0.9172 -0.6650
   33CHL1   H17 2393   0.384   6.146   3.806  1.9092  0.1966  0.1892
   33CHL1   C13 2394   0.287   6.046   3.653  0.0011  0.4191 -0.6983
   33CHL1   C18 2395   0.209   5.913   3.618  0.4234 -0.6645  0.3869
   33CHL1  H18A 2396   0.163   5.912   3.517 -0.5724 -0.7098  0.8338
   33CHL1  H18B 2397   0.286   5.833   3.612 -0.5644 -1.8086  2.1637
   33CHL1  H18C 2398   0.129   5.880   3.687 -0.3096 -0.1341 -0.1958
   33CHL1   C12 2399   0.182   6.158   3.619 -0.7910  0.2299  0.3945
   33CHL1  H12A 2400   0.084   6.146   3.672 -1.6375 -0.8491 -1.3188
   33CHL1  H12B 2401   0.231   6.255   3.638  0.5771  0.2118 -2.6358
   33CHL1   C11 2402   0.145   6.158   3.468  0.7052  0.4723  0.2305
   33CHL1  H11A 2403   0.085   6.067   3.446  0.4321  0.1767  2.0715
   33CHL1  H11B 2404   0.075   6.241   3.444  2.1652  0.8612 -3.2254
   33CHL1    C9 2405   0.269   6.163   3.370  0.1884  1.0383 -0.4166
   33CHL1    H9 2406   0.313   6.265   3.385 -0.2218  1.1124  0.3277
   33CHL1   C10 2407   0.237   6.140   3.227  0.8044 -0.0674  0.2083
   33CHL1   C19 2408   0.142   6.019   3.198  0.1077  0.6728 -0.0550
   33CHL1  H19A 2409   0.129   6.008   3.088  1.2175  0.5786 -0.1898
   33CHL1  H19B 2410   0.182   5.923   3.238 -1.1076  1.0960  2.4167
   33CHL1  H19C 2411   0.040   6.022   3.242 -0.3714 -0.5121 -1.0175
   33CHL1    C1 2412   0.154   6.271   3.185 -0.6857  0.2187  0.7643
   33CHL1   H1A 2413   0.056   6.269   3.237 -1.1508 -0.4527 -0.1113
   33CHL1   H1B 2414   0.198   6.367   3.221 -0.8715  1.6584 -2.4382
   33CHL1    C2 2415   0.136   6.287   3.038  0.2378  0.7154  0.3966
   33CHL1   H2A 2416   0.082   6.380   3.009 -0.3063  0.8521  1.7941
   33CHL1   H2B 2417   0.082   6.198   3.001  0.5615  0.5780  0.2522
   33CHL1   C20 2418   0.269   6.008   3.908  0.1066 -0.1289 -0.6657
   33CHL1   H20 2419   0.163   6.039   3.894 -0.0278  1.4208  2.8226
   33CHL1   C21 2420   0.322   6.095   4.027  0.5504  0.0139 -0.4565
   33CHL1  H21A 2421   0.421   6.070   4.069  0.9416  1.6149 -0.3787
   33CHL1  H21B 2422   0.253   6.084   4.114 -0.6078  3.1856 -0.8490
   33CHL1  H21C 2423   0.319   6.205   4.019  3.0747  0.2898  1.2799
   33CHL1   C22 2424   0.256   5.859   3.937  0.2251 -0.0171 -0.1785
   33CHL1  H22A 2425   0.221   5.806   3.846 -2.6582 -1.4451  1.6271
   33CHL1  H22B 2426   0.354   5.819   3.972  0.7131  1.2436 -0.0488
   33CHL1   C23 2427   0.150   5.832   4.046 -0.2459  1.0513  0.2039
   33CHL1  H23A 2428   0.200   5.863   4.140  1.5644  1.8354 -0.9722
   33CHL1  H23B 2429   0.048   5.871   4.025 -0.2252  0.9784 -0.0263
   33CHL1   C24 2430   0.126   5.678   4.067 -0.1960 -0.0055  0.0600
   33CHL1  H24A 2431   0.081   5.639   3.973 -0.4274  0.9736 -0.2463
   33CHL1  H24B 2432   0.225   5.631   4.083 -0.9635 -1.0425  2.0591
   33CHL1   C25 2433   0.041   5.647   4.191  0.5302  0.0520 -0.3058
   33CHL1   H25 2434   0.075   5.713   4.273  0.9002  0.2142 -0.5863
   33CHL1   C26 2435  -0.115   5.667   4.167 -0.6105  0.0540 -1.0552
   33CHL1  H26A 2436  -0.172   5.626   4.253 -1.0839 -2.2711 -2.4082
   33CHL1  H26B 2437  -0.135   5.776   4.158  0.5709  0.3096 -0.7346
   33CHL1  H26C 2438  -0.160   5.602   4.090 -4.7713 -0.2313  1.3111
   33CHL1   C27 2439   0.061   5.497   4.232  0.8613  0.1837 -0.5944
   33CHL1  H27A 2440   0.013   5.463   4.326  1.8063 -3.0390 -1.1394
   33CHL1  H27B 2441   0.029   5.439   4.142  1.1333  2.1669 -2.0359
   33CHL1  H27C 2442   0.166   5.469   4.256  0.0767 -0.6727  2.3407
   34CHL1    C3 2443   3.834   5.527   3.008  0.5838 -0.5368 -0.6034
   34CHL1    H3 2444   3.871   5.632   3.010 -0.7502  0.0367  2.9869
   34CHL1    O3 2445   3.820   5.478   2.872  0.1709 -0.5376  0.6209
   34CHL1   H3' 2446   3.796   5.387   2.890 -1.7367 -0.1024  0.5539
   34CHL1    C4 2447   3.925   5.437   3.094 -0.0765  0.4093  0.1992
   34CHL1   H4A 2448   3.904   5.328   3.094 -0.3816  0.4398  1.5248
   34CHL1   H4B 2449   4.025   5.435   3.047  0.0204 -0.7949  0.4274
   34CHL1    C5 2450   3.924   5.467   3.244 -0.7327 -0.2595 -0.3371
   34CHL1    C6 2451   4.041   5.486   3.311  0.4598  0.2980  0.2906
   34CHL1    H6 2452   4.135   5.471   3.257  0.1328 -0.8516  0.0084
   34CHL1    C7 2453   4.054   5.511   3.455 -0.7771 -0.1437 -0.4467
   34CHL1   H7A 2454   4.130   5.445   3.501 -1.0188 -0.5244 -0.5883
   34CHL1   H7B 2455   4.075   5.620   3.460 -2.5834  0.3576 -2.2436
   34CHL1    C8 2456   3.916   5.486   3.522 -1.3038  0.5393  0.1465
   34CHL1    H8 2457   3.893   5.377   3.532 -4.4942  1.2480  2.0157
   34CHL1   C14 2458   3.928   5.542   3.662 -0.4815  0.3378 -0.7410
   34CHL1   H14 2459   3.948   5.649   3.642  1.7227 -0.3138 -2.3768
   34CHL1   C15 2460   4.040   5.491   3.754  0.0562  0.5629  0.2751
   34CHL1  H15A 2461   4.050   5.381   3.741 -0.9726  0.3832  0.8823
   34CHL1  H15B 2462   4.138   5.540   3.732 -0.2603 -0.0733 -2.9386
   34CHL1   C16 2463   3.995   5.524   3.897  0.2915 -0.2109 -0.2649
   34CHL1  H16A 2464   3.990   5.450   3.979 -0.7298  0.7104  0.5406
   34CHL1  H16B 2465   4.075   5.590   3.937  0.6515 -1.8661  1.9076
   34CHL1   C17 2466   3.858   5.589   3.874 -0.0634  0.3400 -0.5233
   34CHL1   H17 2467   3.878   5.695   3.846 -1.8979  1.0196  0.5498
   34CHL1   C13 2468   3.802   5.533   3.746 -0.2322  0.1296  0.7924
   34CHL1   C18 2469   3.760   5.386   3.768  0.1033  0.3120  0.5572
   34CHL1  H18A 2470   3.737   5.334   3.672 -3.3722 -0.0241  1.4275
   34CHL1  H18B 2471   3.845   5.328   3.809  0.3114  0.3892  0.2385
   34CHL1  H18C 2472   3.662   5.377   3.821 -0.3616 -0.7348 -0.4286
   34CHL1   C12 2473   3.697   5.620   3.668  0.2174  0.1782  0.2343
   34CHL1  H12A 2474   3.594   5.631   3.709 -0.3131  0.5513 -1.1182
   34CHL1  H12B 2475   3.731   5.726   3.669 -0.6699  0.4650  1.0546
   34CHL1   C11 2476   3.667   5.561   3.528 -0.0038  0.0919  0.4889
   34CHL1  H11A 2477   3.620   5.462   3.545 -0.5087  0.1450 -0.4999
   34CHL1  H11B 2478   3.594   5.620   3.468 -1.7289 -1.2451  1.2011
   34CHL1    C9 2479   3.802   5.547   3.454 -0.3980 -0.3533 -0.1272
   34CHL1    H9 2480   3.833   5.651   3.431 -0.5106 -0.4479 -0.7365
   34CHL1   C10 2481   3.778   5.497   3.307 -0.2833  0.9927 -0.7504
   34CHL1   C19 2482   3.710   5.359   3.318  0.4781  0.6786  0.1601
   34CHL1  H19A 2483   3.606   5.358   3.356  0.1850  0.6515 -0.6208
   34CHL1  H19B 2484   3.696   5.310   3.219  0.0794  2.1755 -0.5551
   34CHL1  H19C 2485   3.769   5.289   3.381  0.2367  0.6620  0.3720
   34CHL1    C1 2486   3.696   5.587   3.215 -0.7419 -0.9251 -0.0631
   34CHL1   H1A 2487   3.592   5.608   3.246 -0.3984  1.2775 -0.2243
   34CHL1   H1B 2488   3.750   5.684   3.222 -2.0040 -0.2550  0.6595
   34CHL1    C2 2489   3.690   5.536   3.068  0.3279 -0.0674  0.2082
   34CHL1   H2A 2490   3.627   5.612   3.015  1.0294  0.9876  0.8573
   34CHL1   H2B 2491   3.635   5.441   3.050 -1.3804  1.1755 -1.7371
   34CHL1   C20 2492   3.772   5.600   4.004  0.1970  0.2618  0.4942
   34CHL1   H20 2493   3.742   5.495   4.023  1.2725  0.0563  1.1446
   34CHL1   C21 2494   3.656   5.701   3.999 -0.3099  1.0303 -0.6784
   34CHL1  H21A 2495   3.593   5.692   3.908 -1.1334  0.3489 -0.0520
   34CHL1  H21B 2496   3.685   5.806   4.022 -2.0835  0.8600  2.9606
   34CHL1  H21C 2497   3.591   5.665   4.081 -0.4016 -0.1997 -1.2621
   34CHL1   C22 2498   3.854   5.638   4.130  0.7047  0.5795  0.4205
   34CHL1  H22A 2499   3.963   5.623   4.120  0.5208 -0.1948 -0.5806
   34CHL1  H22B 2500   3.846   5.742   4.168 -3.2457  0.4107  0.5100
   34CHL1   C23 2501   3.804   5.556   4.252  0.2338 -0.5672  0.7727
   34CHL1  H23A 2502   3.853   5.584   4.349 -0.0891 -0.6568  0.9628
   34CHL1  H23B 2503   3.694   5.569   4.253  0.3516  0.6688 -0.3489
   34CHL1   C24 2504   3.848   5.411   4.245  0.4237 -0.5251 -0.7790
   34CHL1  H24A 2505   3.790   5.361   4.165  0.6387 -1.4250 -0.3806
   34CHL1  H24B 2506   3.956   5.424   4.221  0.6174  2.3013  1.1101
   34CHL1   C25 2507   3.820   5.323   4.368 -0.2634 -0.2795  0.0681
   34CHL1   H25 2508   3.845   5.376   4.462 -2.0711 -1.5116  1.3079
   34CHL1   C26 2509   3.666   5.291   4.381 -0.0613 -0.1042  0.9247
   34CHL1  H26A 2510   3.613   5.388   4.386 -1.4355 -0.8078  0.3196
   34CHL1  H26B 2511   3.618   5.236   4.298 -2.7653  1.9847  0.9591
   34CHL1  H26C 2512   3.645   5.234   4.474 -0.4693  0.3596  1.1248
   34CHL1   C27 2513   3.894   5.194   4.366  0.1001  0.7970 -0.3076
   34CHL1  H27A 2514   3.890   5.156   4.262  0.8067 -0.5194  0.1239
   34CHL1  H27B 2515   4.001   5.221   4.374  0.7281 -1.4996 -0.3652
   34CHL1  H27C 2516   3.865   5.126   4.448  1.1939 -0.4995 -0.9634
   35CHL1    C3 2517   3.124   1.710   2.924  0.0934 -0.2284 -0.8497
   35CHL1    H3 2518   3.155   1.816   2.908  0.7163 -0.4360 -1.0588
   35CHL1    O3 2519   3.171   1.633   2.811  0.2219 -0.0296  0.4860
   35CHL1   H3' 2520   3.097   1.579   2.782 -0.0999  0.3140  0.6562
   35CHL1    C4 2521   3.202   1.665   3.049  0.0647 -0.7894  0.6122
   35CHL1   H4A 2522   3.176   1.557   3.051  2.4634 -1.5371 -1.8022
   35CHL1   H4B 2523   3.311   1.675   3.030 -0.2790  1.5604 -0.5094
   35CHL1    C5 2524   3.152   1.751   3.165 -0.3050 -0.9296  0.2270
   35CHL1    C6 2525   3.234   1.829   3.239  1.4946 -0.9692  0.5691
   35CHL1    H6 2526   3.342   1.827   3.216  1.7067  0.7766  1.2399
   35CHL1    C7 2527   3.184   1.912   3.355  0.5247 -0.5980 -0.2333
   35CHL1   H7A 2528   3.256   1.901   3.440 -1.2535 -0.6745  1.3178
   35CHL1   H7B 2529   3.174   2.016   3.319  1.6309 -0.2630  0.3713
   35CHL1    C8 2530   3.038   1.875   3.405  0.0668 -0.2352 -0.2931
   35CHL1    H8 2531   3.061   1.772   3.440  1.6015  0.0833 -0.3010
   35CHL1   C14 2532   2.980   1.963   3.508  0.3716 -0.1714  0.3074
   35CHL1   H14 2533   2.968   2.063   3.460  0.6066 -0.6097 -0.7003
   35CHL1   C15 2534   3.057   2.001   3.632  0.0551 -0.0578 -0.0075
   35CHL1  H15A 2535   3.106   1.913   3.677  0.7417 -0.8591 -2.1784
   35CHL1  H15B 2536   3.139   2.075   3.622 -1.5540  1.9740  0.9175
   35CHL1   C16 2537   2.954   2.065   3.731  0.0091  0.2548  0.0058
   35CHL1  H16A 2538   2.959   2.022   3.834 -2.0011 -0.0762  0.0124
   35CHL1  H16B 2539   2.967   2.174   3.750  0.1325  0.0428  1.2336
   35CHL1   C17 2540   2.814   2.030   3.680  0.3863 -0.5328  0.0682
   35CHL1   H17 2541   2.780   2.118   3.620  0.5197  1.3347  2.5452
   35CHL1   C13 2542   2.838   1.923   3.566  0.4282 -0.5120  0.1053
   35CHL1   C18 2543   2.850   1.780   3.630  0.1734  0.1362 -0.5697
   35CHL1  H18A 2544   2.913   1.799   3.719 -0.0005  1.3654 -0.6788
   35CHL1  H18B 2545   2.756   1.728   3.659  0.5456 -0.1985  0.0536
   35CHL1  H18C 2546   2.897   1.712   3.556 -1.8307 -1.8115 -0.1466
   35CHL1   C12 2547   2.751   1.933   3.444 -0.1158 -0.2534  0.0412
   35CHL1  H12A 2548   2.649   1.904   3.478  0.7587 -0.6281  2.4978
   35CHL1  H12B 2549   2.747   2.037   3.406  1.9087  0.7543  2.3536
   35CHL1   C11 2550   2.803   1.841   3.333  0.3725  1.0645 -0.0689
   35CHL1  H11A 2551   2.776   1.739   3.369 -0.9772  1.2493 -0.4936
   35CHL1  H11B 2552   2.741   1.862   3.243 -0.7085  0.6752  0.5687
   35CHL1    C9 2553   2.950   1.855   3.288 -0.3723 -0.1801 -0.2536
   35CHL1    H9 2554   2.956   1.952   3.234 -0.3868 -0.3633 -0.5857
   35CHL1   C10 2555   2.997   1.751   3.184  0.4971 -0.0519  0.1343
   35CHL1   C19 2556   2.944   1.609   3.220 -0.4262 -0.4203 -0.1861
   35CHL1  H19A 2557   2.975   1.577   3.321 -0.0407  1.8576  0.4657
   35CHL1  H19B 2558   2.834   1.595   3.220 -0.6140  0.9554  0.6194
   35CHL1  H19C 2559   2.992   1.532   3.156 -1.1657 -0.4566 -0.7129
   35CHL1    C1 2560   2.924   1.785   3.048 -0.4017 -0.5725 -0.3433
   35CHL1   H1A 2561   2.815   1.764   3.060  0.1932 -2.9997  1.6953
   35CHL1   H1B 2562   2.931   1.895   3.031 -0.5093 -0.3419  0.9364
   35CHL1    C2 2563   2.972   1.699   2.937  0.2654  0.6031  0.2538
   35CHL1   H2A 2564   2.926   1.737   2.844  2.3919 -0.5544 -1.3726
   35CHL1   H2B 2565   2.946   1.591   2.942 -0.1937  0.7299  0.6928
   35CHL1   C20 2566   2.704   1.981   3.786 -0.5201  0.4104 -0.4094
   35CHL1   H20 2567   2.747   1.890   3.831  3.1827  1.9921 -0.3475
   35CHL1   C21 2568   2.567   1.961   3.720 -0.2356  0.8090 -0.7071
   35CHL1  H21A 2569   2.486   1.968   3.796 -1.1178 -0.9336 -1.4564
   35CHL1  H21B 2570   2.550   1.862   3.673 -3.0613 -0.9059  3.3221
   35CHL1  H21C 2571   2.549   2.043   3.648 -0.8016  2.0412  0.7736
   35CHL1   C22 2572   2.694   2.088   3.905 -0.0449 -0.1295  0.2877
   35CHL1  H22A 2573   2.796   2.113   3.942  0.8618 -1.0208 -1.5100
   35CHL1  H22B 2574   2.660   2.181   3.854 -0.0073 -0.6220 -0.6467
   35CHL1   C23 2575   2.600   2.054   4.016  0.5218 -0.6643 -0.3302
   35CHL1  H23A 2576   2.494   2.063   3.982  0.2044  1.4290  0.9864
   35CHL1  H23B 2577   2.617   1.947   4.037 -1.0977 -0.8911  0.0147
   35CHL1   C24 2578   2.616   2.134   4.152  0.5203  0.0890  0.4538
   35CHL1  H24A 2579   2.724   2.146   4.173  1.0174  1.2420 -2.2232
   35CHL1  H24B 2580   2.582   2.238   4.133 -0.6125 -0.5242 -1.1476
   35CHL1   C25 2581   2.535   2.066   4.270 -0.1975 -0.8682  0.2973
   35CHL1   H25 2582   2.598   1.975   4.279  1.4788  0.3678  1.8633
   35CHL1   C26 2583   2.566   2.147   4.398 -0.1569  0.2650 -0.3777
   35CHL1  H26A 2584   2.533   2.089   4.487  0.2649 -0.1937 -0.5184
   35CHL1  H26B 2585   2.676   2.158   4.407 -0.2585  0.7183  0.3676
   35CHL1  H26C 2586   2.520   2.247   4.414  1.7341  1.1018  0.1031
   35CHL1   C27 2587   2.380   2.048   4.248 -0.0324  0.1567 -0.1745
   35CHL1  H27A 2588   2.328   2.008   4.337 -0.9133 -1.8441 -1.5047
   35CHL1  H27B 2589   2.343   2.148   4.214  0.7833  0.0018 -1.5919
   35CHL1  H27C 2590   2.364   1.981   4.161 -0.1583 -0.1040  0.0475
   36CHL1    C3 2591   5.167   0.785   3.204  0.2515 -0.3452  0.0662
   36CHL1    H3 2592   5.272   0.822   3.203 -0.3452  1.5119  1.4250
   36CHL1    O3 2593   5.144   0.746   3.070 -0.0511 -0.1436  0.3049
   36CHL1   H3' 2594   5.082   0.674   3.061 -0.9586  0.6145  0.3003
   36CHL1    C4 2595   5.166   0.655   3.282  0.6722  0.4927 -0.4618
   36CHL1   H4A 2596   5.071   0.597   3.290 -0.2819  2.1395  0.8119
   36CHL1   H4B 2597   5.235   0.587   3.229  0.6481  1.5659 -1.9484
   36CHL1    C5 2598   5.196   0.687   3.419 -0.2029 -0.0330 -0.1108
   36CHL1    C6 2599   5.308   0.635   3.480 -0.5931  0.4593 -0.0914
   36CHL1    H6 2600   5.371   0.564   3.425 -0.1964  0.8131 -0.1028
   36CHL1    C7 2601   5.358   0.660   3.621  0.2554 -0.3138  0.7574
   36CHL1   H7A 2602   5.402   0.571   3.671  2.1596  1.2909  2.0872
   36CHL1   H7B 2603   5.432   0.743   3.613  0.9117 -1.0467 -2.2997
   36CHL1    C8 2604   5.237   0.726   3.700 -0.0813  0.5907 -0.0189
   36CHL1    H8 2605   5.160   0.646   3.712 -1.5266  1.5239 -2.2198
   36CHL1   C14 2606   5.294   0.775   3.836  0.5232 -0.6541  0.2742
   36CHL1   H14 2607   5.360   0.862   3.817 -1.5129  1.0972  0.8868
   36CHL1   C15 2608   5.381   0.680   3.924 -0.0437 -0.3187 -1.4657
   36CHL1  H15A 2609   5.341   0.577   3.932 -1.1054  0.1498 -0.5111
   36CHL1  H15B 2610   5.484   0.680   3.883  0.4308 -2.1233 -0.3848
   36CHL1   C16 2611   5.379   0.745   4.063 -0.0762 -0.5027 -0.5210
   36CHL1  H16A 2612   5.347   0.664   4.131  0.3706 -0.3381 -0.1112
   36CHL1  H16B 2613   5.473   0.788   4.104 -0.9968  1.4782 -0.3471
   36CHL1   C17 2614   5.276   0.866   4.058  0.2223 -0.4808 -0.3942
   36CHL1   H17 2615   5.343   0.954   4.048  0.8645 -0.8705  0.3463
   36CHL1   C13 2616   5.185   0.835   3.932  0.1428 -0.1781 -0.4327
   36CHL1   C18 2617   5.079   0.726   3.973 -0.3557  0.5781 -0.0061
   36CHL1  H18A 2618   5.028   0.699   3.878  1.9523 -0.3955 -1.0466
   36CHL1  H18B 2619   5.125   0.636   4.018 -1.5690 -0.9568 -1.7083
   36CHL1  H18C 2620   5.002   0.770   4.040  0.2922 -1.5283  2.2700
   36CHL1   C12 2621   5.111   0.951   3.865 -1.0741 -0.0215 -0.5826
   36CHL1  H12A 2622   5.017   0.982   3.916 -1.0426  0.9883 -1.1119
   36CHL1  H12B 2623   5.200   1.015   3.847 -0.7010 -0.1321  0.7239
   36CHL1   C11 2624   5.057   0.906   3.723  0.1805  0.3830  0.4280
   36CHL1  H11A 2625   4.970   0.839   3.739 -0.3151  0.6507 -0.9604
   36CHL1  H11B 2626   5.023   1.001   3.676  0.8698  0.7634  0.6794
   36CHL1    C9 2627   5.158   0.832   3.629  0.6456  0.1604 -0.6064
   36CHL1    H9 2628   5.234   0.909   3.605 -0.2149  0.8297 -1.2719
   36CHL1   C10 2629   5.107   0.792   3.487  0.2217 -0.1043 -0.6304
   36CHL1   C19 2630   4.966   0.723   3.497 -0.2423 -0.6058 -0.5304
   36CHL1  H19A 2631   4.967   0.638   3.569 -0.5094 -0.3167 -0.1829
   36CHL1  H19B 2632   4.897   0.794   3.547  1.7530  1.2310 -0.2231
   36CHL1  H19C 2633   4.924   0.687   3.401 -0.6115 -0.7588 -0.3162
   36CHL1    C1 2634   5.104   0.929   3.406  1.0551  0.8912 -0.2784
   36CHL1   H1A 2635   5.017   0.991   3.435 -2.7137 -3.4571 -1.1833
   36CHL1   H1B 2636   5.204   0.978   3.404  1.6145 -0.2195 -2.0092
   36CHL1    C2 2637   5.071   0.894   3.258  0.5208 -0.3207 -0.8202
   36CHL1   H2A 2638   5.092   0.975   3.186  0.7848 -0.5618 -1.0180
   36CHL1   H2B 2639   4.967   0.863   3.236  0.9517 -1.4355 -1.3533
   36CHL1   C20 2640   5.208   0.900   4.192  0.3309 -0.6593  0.7192
   36CHL1   H20 2641   5.125   0.831   4.216 -1.1048  1.5461  2.6065
   36CHL1   C21 2642   5.145   1.040   4.188 -0.4421 -0.2592  0.2395
   36CHL1  H21A 2643   5.086   1.050   4.095  0.0797 -1.0637 -0.2005
   36CHL1  H21B 2644   5.229   1.112   4.189  1.4532 -2.3046  2.5714
   36CHL1  H21C 2645   5.076   1.049   4.274 -0.1581  0.6386  0.3822
   36CHL1   C22 2646   5.316   0.899   4.310 -0.4247  0.1464 -0.9402
   36CHL1  H22A 2647   5.340   0.791   4.322 -1.4452 -0.2431 -2.2390
   36CHL1  H22B 2648   5.402   0.958   4.272  1.8489 -2.1833  0.2826
   36CHL1   C23 2649   5.259   0.941   4.450  0.4817 -0.1873  0.1547
   36CHL1  H23A 2650   5.224   1.046   4.459  1.8275  0.3348 -0.4127
   36CHL1  H23B 2651   5.170   0.881   4.479 -1.0313  2.3059  0.9663
   36CHL1   C24 2652   5.366   0.911   4.554 -0.2519 -0.2313  0.6866
   36CHL1  H24A 2653   5.407   0.807   4.555  4.5116  1.3708 -1.6350
   36CHL1  H24B 2654   5.453   0.973   4.524 -2.4919  2.3117 -1.0010
   36CHL1   C25 2655   5.331   0.935   4.695 -0.3178 -0.4952  0.7307
   36CHL1   H25 2656   5.248   1.009   4.688 -1.4828 -1.8262 -0.2256
   36CHL1   C26 2657   5.276   0.817   4.768  0.2105 -0.1892 -0.6837
   36CHL1  H26A 2658   5.355   0.747   4.804  0.7445  0.6081 -0.2845
   36CHL1  H26B 2659   5.227   0.859   4.859  2.3796 -1.5685  1.2458
   36CHL1  H26C 2660   5.203   0.752   4.715 -0.0442 -0.7071  0.2746
   36CHL1   C27 2661   5.451   0.992   4.772 -0.6476 -0.4744 -0.2489
   36CHL1  H27A 2662   5.416   0.997   4.877 -0.6919 -2.2253 -0.1570
   36CHL1  H27B 2663   5.545   0.934   4.765 -0.2759  0.2821 -2.4714
   36CHL1  H27C 2664   5.477   1.097   4.743 -0.6348 -0.3150  0.3287
   37CHL1    C3 2665   1.403   3.279   2.821  0.1463  0.3525  0.0217
   37CHL1    H3 2666   1.504   3.247   2.854 -0.5563 -0.6665  1.3043
   37CHL1    O3 2667   1.418   3.295   2.679  0.1579  0.4203 -0.3273
   37CHL1   H3' 2668   1.336   3.327   2.640 -0.5696 -0.9068  0.0378
   37CHL1    C4 2669   1.303   3.175   2.854 -0.0072 -0.6771 -0.7111
   37CHL1   H4A 2670   1.201   3.210   2.827  0.6416  1.6631 -0.3431
   37CHL1   H4B 2671   1.322   3.083   2.795 -0.1266  0.2864 -2.3092
   37CHL1    C5 2672   1.291   3.147   3.001 -0.9165  0.5648 -0.3869
   37CHL1    C6 2673   1.292   3.015   3.043 -0.6191 -0.8583  0.2984
   37CHL1    H6 2674   1.286   2.941   2.962 -2.1597 -1.0935  0.6077
   37CHL1    C7 2675   1.277   2.975   3.192 -0.2669  0.3459 -0.1451
   37CHL1   H7A 2676   1.187   2.910   3.206 -0.2921 -0.3561 -2.9099
   37CHL1   H7B 2677   1.363   2.912   3.222 -0.2747 -0.4617 -1.6874
   37CHL1    C8 2678   1.265   3.092   3.290  0.2073 -0.1697 -0.1326
   37CHL1    H8 2679   1.157   3.111   3.305  0.1914 -1.9313  2.6049
   37CHL1   C14 2680   1.314   3.066   3.435 -0.4183  0.7889  0.1594
   37CHL1   H14 2681   1.424   3.056   3.425 -0.5195  0.3432 -0.5890
   37CHL1   C15 2682   1.277   2.943   3.507  0.2550  0.3056 -0.6508
   37CHL1  H15A 2683   1.167   2.932   3.519  0.1112  1.4477 -0.8262
   37CHL1  H15B 2684   1.315   2.850   3.461 -0.3820 -0.0632 -0.4459
   37CHL1   C16 2685   1.329   2.959   3.652  0.9330  0.1947  0.3750
   37CHL1  H16A 2686   1.253   2.935   3.731 -0.8856  3.5829 -0.1370
   37CHL1  H16B 2687   1.422   2.911   3.688  1.8460  0.6482 -1.3005
   37CHL1   C17 2688   1.367   3.108   3.658  0.7612 -0.7009 -0.6430
   37CHL1   H17 2689   1.477   3.116   3.641  1.2007  0.6736  2.2675
   37CHL1   C13 2690   1.303   3.184   3.543  0.5450  0.6133  0.0111
   37CHL1   C18 2691   1.154   3.221   3.569  0.1430  0.7231 -0.0818
   37CHL1  H18A 2692   1.114   3.258   3.472  1.3034  1.9419 -0.1344
   37CHL1  H18B 2693   1.095   3.135   3.608 -1.6324  2.3845  1.0622
   37CHL1  H18C 2694   1.146   3.295   3.651 -1.5569  1.3625 -0.7910
   37CHL1   C12 2695   1.377   3.303   3.488  0.5528  0.0500 -0.0533
   37CHL1  H12A 2696   1.363   3.384   3.562 -0.8723 -1.3347  1.2502
   37CHL1  H12B 2697   1.483   3.277   3.467  0.0357 -0.9402 -1.6322
   37CHL1   C11 2698   1.333   3.342   3.337  0.3495  0.3051  0.3024
   37CHL1  H11A 2699   1.234   3.391   3.339 -0.9414 -2.1193 -0.2781
   37CHL1  H11B 2700   1.407   3.419   3.306  0.5832 -0.0964 -0.1464
   37CHL1    C9 2701   1.330   3.222   3.238 -0.1684  0.5359  0.7692
   37CHL1    H9 2702   1.436   3.191   3.221 -0.2259 -0.6812  2.3206
   37CHL1   C10 2703   1.276   3.271   3.098 -0.0900  0.1043 -0.0694
   37CHL1   C19 2704   1.131   3.320   3.101  0.1970  0.6088 -0.2141
   37CHL1  H19A 2705   1.120   3.420   3.148 -0.1462 -0.0643  1.1900
   37CHL1  H19B 2706   1.103   3.327   2.994 -1.1438  2.4930  0.2083
   37CHL1  H19C 2707   1.064   3.246   3.150  2.1908 -1.4274 -0.3907
   37CHL1    C1 2708   1.364   3.392   3.038 -0.6534 -0.6325 -0.1443
   37CHL1   H1A 2709   1.332   3.488   3.083 -0.0812  0.2748 -1.5970
   37CHL1   H1B 2710   1.463   3.373   3.083 -1.3122  1.5332  2.4525
   37CHL1    C2 2711   1.363   3.414   2.886  0.2565 -0.2892 -0.3584
   37CHL1   H2A 2712   1.445   3.484   2.859  2.0940 -2.0475  0.3662
   37CHL1   H2B 2713   1.264   3.447   2.849  0.5085 -1.7465 -2.5542
   37CHL1   C20 2714   1.353   3.182   3.793 -0.3532 -0.3897 -0.0245
   37CHL1   H20 2715   1.314   3.286   3.782  1.3499  0.5153  1.8162
   37CHL1   C21 2716   1.498   3.200   3.849 -0.4251  0.0984  0.2108
   37CHL1  H21A 2717   1.544   3.106   3.887  1.7329  0.7722 -0.5637
   37CHL1  H21B 2718   1.506   3.271   3.935  4.3284  1.2294 -0.8865
   37CHL1  H21C 2719   1.574   3.234   3.776 -2.0207  1.7318 -0.7509
   37CHL1   C22 2720   1.253   3.120   3.899 -0.4103 -0.4924  0.1601
   37CHL1  H22A 2721   1.152   3.085   3.870  0.1877 -2.6860  0.4778
   37CHL1  H22B 2722   1.292   3.030   3.953  1.4170 -0.2804 -0.7303
   37CHL1   C23 2723   1.207   3.229   4.007 -0.1363 -0.9801 -0.0391
   37CHL1  H23A 2724   1.174   3.175   4.099  2.4060 -0.0030  1.5435
   37CHL1  H23B 2725   1.300   3.288   4.017 -0.7595  0.0256 -0.0922
   37CHL1   C24 2726   1.087   3.316   3.966  0.4853 -0.0802 -0.4400
   37CHL1  H24A 2727   1.111   3.381   3.878 -2.1135  1.7566  0.0841
   37CHL1  H24B 2728   1.000   3.253   3.938  0.1745 -0.3805  1.1070
   37CHL1   C25 2729   1.041   3.405   4.085  0.2817 -0.6767  0.4070
   37CHL1   H25 2730   1.135   3.445   4.130 -0.0054 -0.2693  0.6391
   37CHL1   C26 2731   0.955   3.513   4.028  0.0011 -0.6894  0.3461
   37CHL1  H26A 2732   0.925   3.588   4.103 -1.9453  1.6036 -2.4878
   37CHL1  H26B 2733   1.003   3.578   3.951 -0.5095  1.0036  1.4118
   37CHL1  H26C 2734   0.869   3.474   3.969  0.8723 -1.0871 -0.6997
   37CHL1   C27 2735   0.966   3.329   4.188 -0.0877 -0.3037 -0.0849
   37CHL1  H27A 2736   1.009   3.228   4.207 -1.6015 -1.1734 -1.0820
   37CHL1  H27B 2737   0.968   3.386   4.283  2.3193  2.8937 -1.8463
   37CHL1  H27C 2738   0.863   3.317   4.149 -0.1462  0.7467 -0.2807
   38CHL1    C3 2739   2.620   1.431   2.813  0.7205  0.9923  0.4157
   38CHL1    H3 2740   2.726   1.403   2.831 -0.0587 -2.1030  0.7649
   38CHL1    O3 2741   2.596   1.447   2.672 -0.0664  0.0890  0.3352
   38CHL1   H3' 2742   2.669   1.495   2.631 -2.0156  1.2696 -1.9860
   38CHL1    C4 2743   2.531   1.319   2.863 -0.0871  0.9188  0.2856
   38CHL1   H4A 2744   2.429   1.338   2.825 -0.2687 -1.1411 -0.3770
   38CHL1   H4B 2745   2.561   1.227   2.809 -1.1029  1.0353 -0.4986
   38CHL1    C5 2746   2.526   1.309   3.020 -0.6631 -0.2695  0.2940
   38CHL1    C6 2747   2.540   1.192   3.083 -0.0370 -0.8620 -0.1711
   38CHL1    H6 2748   2.547   1.095   3.031  0.2950 -0.7801 -0.2805
   38CHL1    C7 2749   2.529   1.173   3.232 -0.5301  0.5114 -0.3909
   38CHL1   H7A 2750   2.452   1.097   3.258 -0.1504  0.0434 -0.6313
   38CHL1   H7B 2751   2.623   1.132   3.275  0.0166  2.0231 -0.0786
   38CHL1    C8 2752   2.503   1.306   3.306  0.8141  0.6343 -0.0097
   38CHL1    H8 2753   2.392   1.307   3.308  0.8128  1.9392  1.4610
   38CHL1   C14 2754   2.559   1.293   3.449  0.6578 -0.6972 -0.0305
   38CHL1   H14 2755   2.670   1.296   3.447  0.7728 -2.0044  1.7310
   38CHL1   C15 2756   2.527   1.170   3.533 -0.6557  0.6407 -0.2675
   38CHL1  H15A 2757   2.419   1.143   3.539 -0.3446 -0.8997 -1.0293
   38CHL1  H15B 2758   2.570   1.069   3.514 -0.4889  0.3600  1.4204
   38CHL1   C16 2759   2.574   1.217   3.673  0.2809  0.8473 -0.9052
   38CHL1  H16A 2760   2.512   1.162   3.746 -0.8917 -0.2708 -2.6719
   38CHL1  H16B 2761   2.681   1.189   3.688  0.0764 -0.7012 -2.0828
   38CHL1   C17 2762   2.568   1.366   3.679 -0.7585  0.7481 -0.0427
   38CHL1   H17 2763   2.674   1.402   3.674  0.0188 -0.8831  2.6046
   38CHL1   C13 2764   2.517   1.407   3.537  1.0721  0.1496 -0.8921
   38CHL1   C18 2765   2.362   1.426   3.555 -0.2245  0.1906 -0.5863
   38CHL1  H18A 2766   2.313   1.347   3.615  0.5584 -0.6694 -1.0504
   38CHL1  H18B 2767   2.356   1.526   3.604 -0.2879  0.5659 -1.3413
   38CHL1  H18C 2768   2.308   1.431   3.459 -0.3200  0.2660 -0.5290
   38CHL1   C12 2769   2.578   1.532   3.475  0.7647  1.0243  0.3406
   38CHL1  H12A 2770   2.546   1.622   3.532  1.6210  0.1122  2.3581
   38CHL1  H12B 2771   2.687   1.518   3.487  0.4244 -0.7309  1.8146
   38CHL1   C11 2772   2.539   1.552   3.329  0.6940  0.4736 -0.5085
   38CHL1  H11A 2773   2.430   1.573   3.332 -0.1383 -3.2311  2.1834
   38CHL1  H11B 2774   2.598   1.639   3.293 -1.0145  0.9057 -2.4209
   38CHL1    C9 2775   2.562   1.428   3.241  0.4648 -0.6018 -0.1413
   38CHL1    H9 2776   2.672   1.412   3.240  0.5340 -0.1052 -0.4735
   38CHL1   C10 2777   2.518   1.440   3.094 -0.1306 -0.5988  0.1193
   38CHL1   C19 2778   2.369   1.491   3.086  0.1177  0.1883 -0.8856
   38CHL1  H19A 2779   2.319   1.492   2.987  0.0806  0.5909 -0.8644
   38CHL1  H19B 2780   2.311   1.418   3.147  0.3874 -0.3107 -1.2192
   38CHL1  H19C 2781   2.360   1.588   3.140  0.0136 -0.1928 -0.2053
   38CHL1    C1 2782   2.604   1.555   3.031 -0.7069  0.9420 -0.3402
   38CHL1   H1A 2783   2.576   1.652   3.079  0.0459  1.0562 -0.1023
   38CHL1   H1B 2784   2.712   1.549   3.057 -1.1038  2.1712  1.9647
   38CHL1    C2 2785   2.591   1.563   2.880 -0.0330 -0.3347  0.8759
   38CHL1   H2A 2786   2.671   1.628   2.840 -0.3127 -0.8892 -0.6750
   38CHL1   H2B 2787   2.497   1.616   2.854  0.4656  0.6421  1.0204
   38CHL1   C20 2788   2.531   1.430   3.819  0.4554 -0.5732  0.4176
   38CHL1   H20 2789   2.422   1.420   3.836  0.4167  1.4392  1.6660
   38CHL1   C21 2790   2.566   1.583   3.823 -0.2770  0.0430 -0.6436
   38CHL1  H21A 2791   2.533   1.629   3.727 -1.1077  0.3214 -0.2361
   38CHL1  H21B 2792   2.676   1.583   3.834 -0.1860  0.5619 -1.4636
   38CHL1  H21C 2793   2.524   1.631   3.914 -2.2837 -0.0714 -1.4523
   38CHL1   C22 2794   2.599   1.362   3.938 -0.2361  0.2960 -0.0882
   38CHL1  H22A 2795   2.560   1.259   3.951 -2.3647  0.8554 -1.4383
   38CHL1  H22B 2796   2.707   1.352   3.917 -0.4465 -1.6749 -0.4553
   38CHL1   C23 2797   2.585   1.431   4.077 -0.2703 -0.3991  0.4636
   38CHL1  H23A 2798   2.649   1.522   4.078  3.1343 -2.5377 -1.9167
   38CHL1  H23B 2799   2.481   1.461   4.100 -0.7405 -2.2144  0.8543
   38CHL1   C24 2800   2.645   1.344   4.186  0.3059 -0.6595 -0.2095
   38CHL1  H24A 2801   2.606   1.240   4.190 -1.1286 -0.1479 -0.2443
   38CHL1  H24B 2802   2.755   1.341   4.168 -0.0234 -1.1754 -2.4094
   38CHL1   C25 2803   2.601   1.402   4.327 -0.0416 -0.3771  0.4024
   38CHL1   H25 2804   2.492   1.420   4.317 -0.1824 -1.2765  0.3246
   38CHL1   C26 2805   2.624   1.303   4.438  0.0940  0.6494 -0.0619
   38CHL1  H26A 2806   2.729   1.267   4.449 -0.3767 -0.9462 -0.4811
   38CHL1  H26B 2807   2.593   1.324   4.543  3.2804 -0.0643  1.1475
   38CHL1  H26C 2808   2.546   1.226   4.420 -1.6285  2.1086  0.8066
   38CHL1   C27 2809   2.676   1.535   4.352 -0.0310  0.4466  0.4266
   38CHL1  H27A 2810   2.786   1.526   4.338  0.1647  1.4123  1.2315
   38CHL1  H27B 2811   2.631   1.609   4.283 -0.1756  0.0507  0.0906
   38CHL1  H27C 2812   2.662   1.565   4.458  0.3171  0.0725  0.5821
   39CHL1    C3 2813   2.317   5.658   2.660 -0.1858  0.8491 -0.1979
   39CHL1    H3 2814   2.268   5.570   2.707  0.7097  0.4086 -0.0746
   39CHL1    O3 2815   2.312   5.633   2.516  0.0108 -0.1666 -0.3739
   39CHL1   H3' 2816   2.280   5.544   2.501  0.8559 -0.2736 -1.7173
   39CHL1    C4 2817   2.251   5.795   2.682 -0.0227 -0.1042 -0.0054
   39CHL1   H4A 2818   2.305   5.867   2.617 -2.6514  0.4635 -1.6777
   39CHL1   H4B 2819   2.147   5.789   2.644 -0.5872 -0.5933  1.5051
   39CHL1    C5 2820   2.241   5.831   2.825 -0.1559 -0.4777 -0.4068
   39CHL1    C6 2821   2.117   5.847   2.881 -0.3874 -0.0411 -0.2578
   39CHL1    H6 2822   2.019   5.843   2.830 -0.8276 -1.0285  0.6234
   39CHL1    C7 2823   2.105   5.875   3.028  0.1324  0.1814 -1.5378
   39CHL1   H7A 2824   2.034   5.958   3.050  0.0741 -0.4451  0.9588
   39CHL1   H7B 2825   2.062   5.789   3.083  0.4235  1.5444  0.9644
   39CHL1    C8 2826   2.237   5.916   3.099 -0.1538 -0.3534  0.7064
   39CHL1    H8 2827   2.252   6.022   3.070  1.3636  0.1623  3.0138
   39CHL1   C14 2828   2.223   5.905   3.247  0.5491 -0.7471  0.9338
   39CHL1   H14 2829   2.207   5.796   3.264 -0.4488 -1.0130 -1.3377
   39CHL1   C15 2830   2.104   5.964   3.314  0.1242  0.5443  0.2233
   39CHL1  H15A 2831   2.099   6.066   3.270  0.1610  0.7848  0.7683
   39CHL1  H15B 2832   2.011   5.905   3.297 -0.5741  1.5420  0.4704
   39CHL1   C16 2833   2.143   5.974   3.463 -0.1777  0.3020 -0.2837
   39CHL1  H16A 2834   2.137   6.081   3.495 -0.8495  0.0035  0.6191
   39CHL1  H16B 2835   2.087   5.902   3.526  0.2632  0.7539  0.6346
   39CHL1   C17 2836   2.286   5.929   3.475 -0.7338  0.6143  0.2100
   39CHL1   H17 2837   2.286   5.820   3.495  2.5575  0.5903  0.7186
   39CHL1   C13 2838   2.345   5.950   3.332  0.0199  0.5622 -0.7441
   39CHL1   C18 2839   2.382   6.102   3.327  0.2509 -0.1019  0.3426
   39CHL1  H18A 2840   2.384   6.135   3.221  0.6819 -0.3142  0.2825
   39CHL1  H18B 2841   2.296   6.160   3.367 -1.1320 -2.0288  0.3439
   39CHL1  H18C 2842   2.478   6.133   3.372  0.8370 -0.0033 -0.9511
   39CHL1   C12 2843   2.456   5.858   3.279 -0.0473 -0.4729  0.2757
   39CHL1  H12A 2844   2.556   5.883   3.320 -0.0051  0.0982 -0.1661
   39CHL1  H12B 2845   2.429   5.753   3.302  0.6061 -0.3148  1.8929
   39CHL1   C11 2846   2.482   5.868   3.129  0.0481  0.2139 -0.0257
   39CHL1  H11A 2847   2.521   5.969   3.105 -0.1124  0.3428  0.2506
   39CHL1  H11B 2848   2.561   5.794   3.102 -0.5753 -0.5263  0.1309
   39CHL1    C9 2849   2.358   5.836   3.045  0.5738 -0.5921 -1.0760
   39CHL1    H9 2850   2.337   5.730   3.070 -3.6252  0.1066 -0.9054
   39CHL1   C10 2851   2.384   5.835   2.893  0.9487 -0.1443 -0.6228
   39CHL1   C19 2852   2.460   5.952   2.841 -0.3064 -0.1896 -0.0572
   39CHL1  H19A 2853   2.477   5.949   2.731  0.2224 -4.0757 -0.0055
   39CHL1  H19B 2854   2.412   6.049   2.868  0.6355 -0.5316  3.2959
   39CHL1  H19C 2855   2.564   5.946   2.879 -1.3624 -2.8055  2.9159
   39CHL1    C1 2856   2.459   5.704   2.860  0.5234 -0.4241 -0.5443
   39CHL1   H1A 2857   2.558   5.726   2.905  0.0388 -1.8441  1.3594
   39CHL1   H1B 2858   2.413   5.616   2.909 -1.3080 -0.0262 -1.4787
   39CHL1    C2 2859   2.463   5.672   2.713 -0.0282 -0.5067  0.1540
   39CHL1   H2A 2860   2.519   5.579   2.691  3.6826  1.7608 -0.8699
   39CHL1   H2B 2861   2.521   5.752   2.662  0.6823 -0.9337  0.2717
   39CHL1   C20 2862   2.366   5.983   3.586 -0.3992  0.0441 -0.5880
   39CHL1   H20 2863   2.380   6.092   3.569  0.0710  0.0408 -0.2237
   39CHL1   C21 2864   2.505   5.923   3.602  0.1138 -0.4352  0.1128
   39CHL1  H21A 2865   2.510   5.813   3.585  0.5832 -0.7573  2.0620
   39CHL1  H21B 2866   2.548   5.952   3.700 -1.0716  4.7308 -0.6369
   39CHL1  H21C 2867   2.579   5.964   3.531  1.0102  0.4084  1.4987
   39CHL1   C22 2868   2.286   5.975   3.724 -0.3412  0.5606 -0.6968
   39CHL1  H22A 2869   2.348   6.044   3.785 -2.5967  2.1275 -0.0367
   39CHL1  H22B 2870   2.181   6.008   3.711 -0.6164 -0.2250 -0.5652
   39CHL1   C23 2871   2.287   5.833   3.791  0.0687 -0.2179  0.5482
   39CHL1  H23A 2872   2.212   5.770   3.738  1.4347 -0.9361 -0.6202
   39CHL1  H23B 2873   2.378   5.772   3.771  0.6454  0.7609  0.1056
   39CHL1   C24 2874   2.245   5.834   3.944  0.0746 -0.0533  0.3131
   39CHL1  H24A 2875   2.232   5.732   3.987  0.7836 -0.9041 -1.4048
   39CHL1  H24B 2876   2.327   5.895   3.986  0.2516  0.9645 -1.4615
   39CHL1   C25 2877   2.105   5.899   3.967 -0.0943  0.4250 -0.0192
   39CHL1   H25 2878   2.085   5.986   3.901  1.2067 -0.2913 -1.4090
   39CHL1   C26 2879   1.996   5.797   3.955 -0.1998 -0.8426 -0.2208
   39CHL1  H26A 2880   2.004   5.746   3.857 -2.3133  0.9005 -1.3900
   39CHL1  H26B 2881   2.010   5.719   4.033  3.6751  0.3547  0.5129
   39CHL1  H26C 2882   1.897   5.846   3.963 -0.1434 -0.6582 -0.6188
   39CHL1   C27 2883   2.113   5.955   4.108  0.2789 -0.4176  0.1086
   39CHL1  H27A 2884   2.209   6.011   4.112 -1.0115  2.1376 -1.8125
   39CHL1  H27B 2885   2.024   6.017   4.131  1.1569  0.3717  1.5433
   39CHL1  H27C 2886   2.109   5.871   4.181 -1.0986  0.5674  1.2107
   40CHL1    C3 2887   1.641   3.043   2.665  0.2371  0.8134  0.1284
   40CHL1    H3 2888   1.543   3.070   2.709 -0.2076  0.4896 -0.6479
   40CHL1    O3 2889   1.644   3.089   2.532 -0.0162  0.3267  0.1964
   40CHL1   H3' 2890   1.711   3.039   2.486 -1.6600 -0.6916 -1.2078
   40CHL1    C4 2891   1.747   3.109   2.745 -0.5186 -0.7447 -0.6019
   40CHL1   H4A 2892   1.846   3.095   2.697  0.5605 -1.0439  1.5772
   40CHL1   H4B 2893   1.736   3.219   2.745  0.2885 -0.6560 -0.6869
   40CHL1    C5 2894   1.746   3.063   2.893  1.0717  0.1900  0.9208
   40CHL1    C6 2895   1.739   3.152   2.991  0.5720 -0.0817  0.6928
   40CHL1    H6 2896   1.725   3.257   2.962 -1.6864 -0.8918 -1.4788
   40CHL1    C7 2897   1.728   3.116   3.134 -0.6166  0.2483 -0.0648
   40CHL1   H7A 2898   1.781   3.193   3.194  0.8006  0.3822 -1.4183
   40CHL1   H7B 2899   1.623   3.105   3.168  0.0396  1.9636  2.8755
   40CHL1    C8 2900   1.777   2.973   3.174 -0.0966 -0.6643 -0.3389
   40CHL1    H8 2901   1.887   2.974   3.163 -0.0147 -3.7791 -0.5448
   40CHL1   C14 2902   1.736   2.934   3.317  0.3462  0.2328 -0.1438
   40CHL1   H14 2903   1.625   2.927   3.312  0.3456  0.6478 -0.8043
   40CHL1   C15 2904   1.764   3.016   3.441 -0.0123  0.1202  0.0747
   40CHL1  H15A 2905   1.863   3.065   3.444  0.2092 -0.1747 -1.6643
   40CHL1  H15B 2906   1.686   3.094   3.451  0.9362  1.2882 -1.3068
   40CHL1   C16 2907   1.753   2.920   3.558  0.1246 -0.2620  0.3274
   40CHL1  H16A 2908   1.853   2.918   3.608  0.5729 -2.7667 -0.5443
   40CHL1  H16B 2909   1.680   2.971   3.624  0.1542  0.0167  0.1470
   40CHL1   C17 2910   1.708   2.783   3.499  0.5540  0.7733 -1.3227
   40CHL1   H17 2911   1.597   2.786   3.500  0.4729 -0.9520  0.3079
   40CHL1   C13 2912   1.767   2.787   3.354 -0.1558  0.0760  0.1046
   40CHL1   C18 2913   1.918   2.768   3.366  0.3772  0.4121 -0.0887
   40CHL1  H18A 2914   1.961   2.842   3.438 -0.6889  1.3645 -0.4063
   40CHL1  H18B 2915   1.936   2.661   3.391 -2.7010  0.2406  1.9569
   40CHL1  H18C 2916   1.974   2.796   3.275  1.0874 -1.1423 -0.1677
   40CHL1   C12 2917   1.707   2.689   3.248 -0.1848 -0.1740  0.2402
   40CHL1  H12A 2918   1.731   2.581   3.255 -2.9509 -0.9190 -0.3458
   40CHL1  H12B 2919   1.597   2.708   3.257 -0.0542  0.2030  1.1909
   40CHL1   C11 2920   1.736   2.730   3.101 -0.5988  0.4868  0.4395
   40CHL1  H11A 2921   1.846   2.718   3.096 -0.7041 -0.2018 -0.4723
   40CHL1  H11B 2922   1.681   2.673   3.024 -2.1035 -0.4406  2.1235
   40CHL1    C9 2923   1.718   2.879   3.069  0.4598  0.1436 -0.5807
   40CHL1    H9 2924   1.609   2.892   3.084  0.3153 -2.9733  2.0552
   40CHL1   C10 2925   1.750   2.911   2.921  0.3533  0.1668 -0.0414
   40CHL1   C19 2926   1.894   2.858   2.893  0.1034 -0.2077  1.2774
   40CHL1  H19A 2927   1.899   2.748   2.877  0.6965  0.0943 -0.8389
   40CHL1  H19B 2928   1.921   2.897   2.793 -1.5959  0.5484  1.0628
   40CHL1  H19C 2929   1.973   2.887   2.965 -0.6468 -0.3446  2.1818
   40CHL1    C1 2930   1.647   2.832   2.822 -0.4520  0.3222 -0.0112
   40CHL1   H1A 2931   1.660   2.722   2.808 -3.0083 -0.0227 -0.3038
   40CHL1   H1B 2932   1.546   2.866   2.854 -1.3333 -2.8898  1.0654
   40CHL1    C2 2933   1.663   2.890   2.674 -0.0245 -0.1307  0.3433
   40CHL1   H2A 2934   1.587   2.847   2.604 -0.0635  1.6042 -0.7540
   40CHL1   H2B 2935   1.767   2.878   2.637  0.0192  0.1158  0.3830
   40CHL1   C20 2936   1.740   2.676   3.607  0.4533  0.3543  0.4298
   40CHL1   H20 2937   1.844   2.706   3.634 -0.1765  1.2830  1.9728
   40CHL1   C21 2938   1.727   2.538   3.539  0.4460  0.5673  0.4289
   40CHL1  H21A 2939   1.626   2.518   3.497  0.0572 -1.3604  2.1554
   40CHL1  H21B 2940   1.755   2.454   3.605  0.1404  0.7316  0.7684
   40CHL1  H21C 2941   1.795   2.526   3.452 -0.5319 -1.8760 -0.0841
   40CHL1   C22 2942   1.651   2.686   3.727 -1.0111 -0.4008 -0.0821
   40CHL1  H22A 2943   1.557   2.738   3.702 -2.2626 -1.6752  1.6795
   40CHL1  H22B 2944   1.625   2.584   3.762 -0.1640 -0.4085  0.5733
   40CHL1   C23 2945   1.720   2.758   3.842 -0.2020 -0.4744 -0.1222
   40CHL1  H23A 2946   1.815   2.704   3.859 -0.1015 -0.9226 -1.9685
   40CHL1  H23B 2947   1.755   2.859   3.811 -0.6128 -0.0223  0.8357
   40CHL1   C24 2948   1.639   2.766   3.966  0.5384  0.9150  1.0932
   40CHL1  H24A 2949   1.542   2.814   3.942  0.0806 -1.7464 -3.4080
   40CHL1  H24B 2950   1.629   2.661   4.001  0.6748  0.2721 -0.6918
   40CHL1   C25 2951   1.712   2.830   4.084  0.5709  0.1737  0.0755
   40CHL1   H25 2952   1.813   2.782   4.084  1.3398  1.6293 -2.1569
   40CHL1   C26 2953   1.732   2.979   4.064  0.4173 -0.6337 -0.9013
   40CHL1  H26A 2954   1.779   2.996   3.965  1.7661 -3.8083 -0.9388
   40CHL1  H26B 2955   1.633   3.028   4.073 -0.3284 -2.3607  1.3235
   40CHL1  H26C 2956   1.799   3.029   4.137 -0.9574 -0.3385  0.1889
   40CHL1   C27 2957   1.636   2.799   4.217  0.3123  0.3688 -0.2407
   40CHL1  H27A 2958   1.611   2.692   4.228  1.9713 -0.1581 -1.2376
   40CHL1  H27B 2959   1.703   2.825   4.301  2.1985 -0.5167 -1.4119
   40CHL1  H27C 2960   1.539   2.853   4.209 -2.1677 -3.8985 -3.0865
   41CHL1    C3 2961   4.182   1.124   2.936 -0.1686 -0.0485 -0.2634
   41CHL1    H3 2962   4.145   1.224   2.904 -2.3409 -0.3146  1.2065
   41CHL1    O3 2963   4.200   1.041   2.818  0.1387  0.7069 -0.0302
   41CHL1   H3' 2964   4.244   0.966   2.858  0.6190  2.1403  2.3473
   41CHL1    C4 2965   4.311   1.146   3.017 -0.2013  0.0556  0.6733
   41CHL1   H4A 2966   4.366   1.052   2.995 -0.4278  0.1658 -0.4003
   41CHL1   H4B 2967   4.370   1.219   2.959 -0.8472  0.5252  0.5958
   41CHL1    C5 2968   4.281   1.183   3.162 -0.0686  0.0511  0.3755
   41CHL1    C6 2969   4.350   1.278   3.213  0.1119 -0.3025  0.1657
   41CHL1    H6 2970   4.423   1.334   3.153 -0.0151  0.3243  0.5728
   41CHL1    C7 2971   4.325   1.324   3.352  0.7699 -0.0133  0.0511
   41CHL1   H7A 2972   4.423   1.335   3.404  0.9527 -2.3191  0.3058
   41CHL1   H7B 2973   4.270   1.421   3.355 -1.7684 -1.3693  0.1618
   41CHL1    C8 2974   4.251   1.227   3.446  0.3265 -0.3813 -0.5198
   41CHL1    H8 2975   4.324   1.145   3.464  0.9738  0.6525  2.0818
   41CHL1   C14 2976   4.208   1.298   3.572 -0.4113 -0.7522 -0.1718
   41CHL1   H14 2977   4.128   1.367   3.537 -0.4645 -0.3713  0.6805
   41CHL1   C15 2978   4.312   1.386   3.653 -0.2307  0.4917  0.5239
   41CHL1  H15A 2979   4.415   1.349   3.634 -1.0334 -1.8689  0.4979
   41CHL1  H15B 2980   4.302   1.488   3.610  1.3596  0.3854 -0.1660
   41CHL1   C16 2981   4.263   1.383   3.790 -0.2641  0.1671 -0.4078
   41CHL1  H16A 2982   4.344   1.328   3.843 -1.2096 -1.0396 -0.1691
   41CHL1  H16B 2983   4.261   1.487   3.830  0.7328 -0.0263  0.1771
   41CHL1   C17 2984   4.130   1.313   3.791  0.3908 -0.3175  0.2492
   41CHL1   H17 2985   4.056   1.389   3.759  1.3215  0.4493 -0.1208
   41CHL1   C13 2986   4.144   1.212   3.672 -0.5287  0.5305  0.1190
   41CHL1   C18 2987   4.244   1.096   3.708 -0.8636 -0.5281 -0.5958
   41CHL1  H18A 2988   4.217   1.044   3.803  0.3007  1.1208  0.7023
   41CHL1  H18B 2989   4.252   1.017   3.631  0.4482 -1.5148  0.4910
   41CHL1  H18C 2990   4.347   1.134   3.726 -1.0032  0.7366 -2.2422
   41CHL1   C12 2991   4.020   1.155   3.606  0.2577  0.2094  0.3234
   41CHL1  H12A 2992   3.963   1.089   3.675 -1.3489  1.8096  0.5908
   41CHL1  H12B 2993   3.956   1.246   3.604  0.8212  0.5991 -0.3695
   41CHL1   C11 2994   4.039   1.086   3.473 -0.9205  0.5718 -0.8441
   41CHL1  H11A 2995   4.093   0.990   3.491  0.8262  1.7736  0.6963
   41CHL1  H11B 2996   3.940   1.073   3.425 -1.4675  1.2938  0.0791
   41CHL1    C9 2997   4.132   1.165   3.375  0.1111 -0.0632 -0.3251
   41CHL1    H9 2998   4.067   1.250   3.346  1.9719  1.2140 -0.9645
   41CHL1   C10 2999   4.166   1.106   3.232 -0.3666  0.0685 -0.5107
   41CHL1   C19 3000   4.198   0.956   3.258  0.7119  0.5245  0.3859
   41CHL1  H19A 3001   4.104   0.908   3.291  1.0871  0.0519  0.7890
   41CHL1  H19B 3002   4.239   0.910   3.166  1.7645  2.5220 -0.2131
   41CHL1  H19C 3003   4.265   0.945   3.346 -0.2335 -2.2624  0.8648
   41CHL1    C1 3004   4.042   1.119   3.142  0.5792  0.8093  0.3081
   41CHL1   H1A 3005   3.963   1.058   3.193 -0.3330 -0.6620 -2.6529
   41CHL1   H1B 3006   4.002   1.222   3.134 -0.2642  0.4681 -0.0008
   41CHL1    C2 3007   4.063   1.061   3.005  0.2537  0.5610  0.0823
   41CHL1   H2A 3008   3.970   1.080   2.947  0.5672 -0.7937 -0.9203
   41CHL1   H2B 3009   4.071   0.952   3.026  2.7437  0.6699  0.0641
   41CHL1   C20 3010   4.087   1.259   3.934  0.1930  0.4895 -0.2398
   41CHL1   H20 3011   4.140   1.163   3.951 -0.3664  0.2190 -0.0142
   41CHL1   C21 3012   3.939   1.225   3.924 -0.3503 -0.2976 -0.1003
   41CHL1  H21A 3013   3.899   1.187   4.021  3.1876 -1.3652  1.1369
   41CHL1  H21B 3014   3.926   1.140   3.854 -0.5540 -0.6182  0.3155
   41CHL1  H21C 3015   3.880   1.306   3.878 -1.0441 -1.2386 -0.9009
   41CHL1   C22 3016   4.119   1.355   4.048 -0.2804 -0.0163 -0.3154
   41CHL1  H22A 3017   4.228   1.378   4.038 -0.3363 -0.2940 -1.8016
   41CHL1  H22B 3018   4.063   1.450   4.031 -3.0075 -1.6460 -1.0262
   41CHL1   C23 3019   4.060   1.312   4.177 -0.4510 -0.2992 -0.0656
   41CHL1  H23A 3020   3.951   1.333   4.183 -0.7995 -1.5574 -1.4080
   41CHL1  H23B 3021   4.075   1.205   4.205 -2.3858  0.2027  3.5257
   41CHL1   C24 3022   4.121   1.388   4.295 -0.4412  0.6217  0.1621
   41CHL1  H24A 3023   4.231   1.380   4.283 -0.4114 -2.4981  1.3840
   41CHL1  H24B 3024   4.086   1.492   4.281 -2.6659  0.1505  1.5816
   41CHL1   C25 3025   4.058   1.342   4.433  0.0271 -0.6424 -0.3669
   41CHL1   H25 3026   3.947   1.344   4.429 -0.0137 -1.6793 -0.0415
   41CHL1   C26 3027   4.110   1.201   4.474 -0.3015  0.4907  0.1510
   41CHL1  H26A 3028   4.221   1.202   4.467  0.0520  0.4551  3.7191
   41CHL1  H26B 3029   4.083   1.181   4.580 -0.7604 -1.1032 -0.2423
   41CHL1  H26C 3030   4.084   1.114   4.410  1.1496 -0.6958  1.1093
   41CHL1   C27 3031   4.106   1.434   4.550 -0.1769  0.1820 -0.6348
   41CHL1  H27A 3032   4.096   1.538   4.513  3.6347 -0.2638 -3.5598
   41CHL1  H27B 3033   4.053   1.410   4.644  1.1381 -2.2231 -0.4282
   41CHL1  H27C 3034   4.215   1.418   4.565  0.2736  2.2943 -1.2563
   42CHL1    C3 3035   0.923   2.243   2.693  0.0819 -0.6820  0.1243
   42CHL1    H3 3036   0.961   2.142   2.719  0.4344  0.0232  2.7144
   42CHL1    O3 3037   0.958   2.265   2.563 -0.4244 -0.9938 -0.2690
   42CHL1   H3' 3038   0.953   2.359   2.542  1.1398 -1.1105 -1.3290
   42CHL1    C4 3039   0.773   2.243   2.716 -0.0661  0.1052  0.2748
   42CHL1   H4A 3040   0.733   2.341   2.685  0.2871 -0.1927 -1.2022
   42CHL1   H4B 3041   0.724   2.170   2.648  1.4591  0.1535 -0.9236
   42CHL1    C5 3042   0.741   2.225   2.866  0.2164  0.1444  0.0447
   42CHL1    C6 3043   0.662   2.122   2.897  0.6283 -0.1076 -0.6821
   42CHL1    H6 3044   0.625   2.055   2.818 -1.9830 -0.1027  0.4505
   42CHL1    C7 3045   0.620   2.086   3.038 -0.2840 -0.3638 -0.2663
   42CHL1   H7A 3046   0.511   2.063   3.047 -0.2813  0.2326  1.9944
   42CHL1   H7B 3047   0.679   2.001   3.078 -2.2086 -0.9120  1.6543
   42CHL1    C8 3048   0.658   2.204   3.133 -0.3134 -0.3220 -0.2453
   42CHL1    H8 3049   0.581   2.284   3.127  0.0301  0.1936  1.6483
   42CHL1   C14 3050   0.657   2.143   3.273 -0.8279  0.0989 -0.3541
   42CHL1   H14 3051   0.730   2.060   3.264  1.3842  1.7798  0.9393
   42CHL1   C15 3052   0.523   2.084   3.320 -0.1289 -0.0200 -0.7830
   42CHL1  H15A 3053   0.437   2.143   3.282  0.2237  2.5399  1.9932
   42CHL1  H15B 3054   0.507   1.981   3.283  1.9141 -0.5172 -0.4098
   42CHL1   C16 3055   0.530   2.093   3.471  0.3556  0.2719 -0.6328
   42CHL1  H16A 3056   0.447   2.153   3.515  0.3025  0.7396 -1.3440
   42CHL1  H16B 3057   0.530   1.996   3.525 -0.4751  0.8013  0.3453
   42CHL1   C17 3058   0.662   2.161   3.505 -0.3484 -0.2009 -1.1861
   42CHL1   H17 3059   0.742   2.084   3.515 -1.1176 -0.8446  0.4488
   42CHL1   C13 3060   0.693   2.243   3.378  0.1675  0.0246 -0.5013
   42CHL1   C18 3061   0.594   2.367   3.377 -0.3929 -0.2934 -0.3554
   42CHL1  H18A 3062   0.641   2.450   3.434  0.5498  0.0674 -1.6275
   42CHL1  H18B 3063   0.576   2.411   3.277  1.7295  0.0189 -0.6310
   42CHL1  H18C 3064   0.490   2.354   3.416 -0.2221  0.8762  0.5762
   42CHL1   C12 3065   0.843   2.282   3.348 -0.0932  0.0211  0.3506
   42CHL1  H12A 3066   0.875   2.352   3.428 -1.0336  0.4087  0.3958
   42CHL1  H12B 3067   0.909   2.193   3.357  0.5771  0.0784 -2.8010
   42CHL1   C11 3068   0.852   2.347   3.209 -1.2446 -0.1461  0.1296
   42CHL1  H11A 3069   0.795   2.443   3.214 -0.0756  0.6538 -1.2439
   42CHL1  H11B 3070   0.956   2.382   3.192 -1.3533  0.2238  0.2023
   42CHL1    C9 3071   0.801   2.254   3.105 -0.0506  0.2894 -0.1979
   42CHL1    H9 3072   0.861   2.161   3.107  2.2094  1.7094  1.4440
   42CHL1   C10 3073   0.810   2.318   2.963  0.3267 -0.4493  0.0114
   42CHL1   C19 3074   0.751   2.465   2.949  0.3941 -0.0906  0.4602
   42CHL1  H19A 3075   0.640   2.463   2.959  0.0183  0.6354 -2.5016
   42CHL1  H19B 3076   0.793   2.544   3.014  1.0586 -0.3138  0.3169
   42CHL1  H19C 3077   0.772   2.490   2.843  1.9259  1.5372  1.1044
   42CHL1    C1 3078   0.968   2.334   2.924 -0.0148  0.8519 -0.6451
   42CHL1   H1A 3079   1.008   2.428   2.968  1.5187  0.6717 -1.5697
   42CHL1   H1B 3080   1.021   2.250   2.974 -1.3221  0.9147  0.9017
   42CHL1    C2 3081   0.995   2.349   2.776  0.4065  0.0609  0.1224
   42CHL1   H2A 3082   1.101   2.355   2.742  0.0249 -1.7891 -1.5628
   42CHL1   H2B 3083   0.937   2.438   2.746  0.2321 -0.0728  0.0599
   42CHL1   C20 3084   0.665   2.216   3.652  0.3353 -0.2727  0.3283
   42CHL1   H20 3085   0.587   2.292   3.669  0.0990 -0.3621 -0.3408
   42CHL1   C21 3086   0.800   2.273   3.681 -0.3024  0.3697 -0.3581
   42CHL1  H21A 3087   0.838   2.356   3.619  0.4639 -0.0654 -0.4861
   42CHL1  H21B 3088   0.876   2.194   3.661 -1.8942 -1.9512  2.0228
   42CHL1  H21C 3089   0.804   2.310   3.786 -1.2763  3.3371 -1.2905
   42CHL1   C22 3090   0.651   2.093   3.745  0.8094 -0.2008 -0.8851
   42CHL1  H22A 3091   0.549   2.054   3.729  0.7456  0.5860 -2.6854
   42CHL1  H22B 3092   0.726   2.011   3.743 -2.0083 -2.9749  0.0843
   42CHL1   C23 3093   0.654   2.135   3.897  0.1730 -0.2837  0.0708
   42CHL1  H23A 3094   0.758   2.159   3.929  1.1525 -1.6081 -1.8824
   42CHL1  H23B 3095   0.592   2.227   3.899 -2.8321 -2.1199 -1.2660
   42CHL1   C24 3096   0.592   2.032   3.989 -0.0468 -0.3100 -0.2216
   42CHL1  H24A 3097   0.491   1.996   3.959  0.2182 -0.5169 -0.8943
   42CHL1  H24B 3098   0.660   1.944   3.998 -0.5107 -0.6924 -0.3856
   42CHL1   C25 3099   0.591   2.083   4.131 -0.3983  0.1343  0.0230
   42CHL1   H25 3100   0.685   2.141   4.136 -0.2372  0.4203 -3.5190
   42CHL1   C26 3101   0.477   2.182   4.175 -0.2741 -0.6460  0.7161
   42CHL1  H26A 3102   0.517   2.234   4.264  0.9209  0.8748 -0.6515
   42CHL1  H26B 3103   0.449   2.262   4.103 -1.8007  0.2600  2.2414
   42CHL1  H26C 3104   0.386   2.120   4.194 -0.1480 -1.6885 -1.6893
   42CHL1   C27 3105   0.587   1.969   4.235 -0.1463 -0.6425  0.0851
   42CHL1  H27A 3106   0.680   1.911   4.216 -0.0211  0.0861 -1.6698
   42CHL1  H27B 3107   0.614   2.011   4.335 -1.1083  0.4192 -0.0887
   42CHL1  H27C 3108   0.492   1.913   4.225 -1.0753  0.9300 -0.1824
   43CHL1    C3 3109   3.613   0.084   3.035  0.2300 -0.3957 -0.3235
   43CHL1    H3 3110   3.698   0.016   3.057  0.1764  0.0210  1.3519
   43CHL1    O3 3111   3.579   0.065   2.900  0.1323  0.4920 -0.2110
   43CHL1   H3' 3112   3.629   0.128   2.848  0.6343  1.2380  1.1301
   43CHL1    C4 3113   3.492   0.038   3.121  0.2260  0.2697 -0.1641
   43CHL1   H4A 3114   3.405   0.097   3.086 -0.0514 -2.0386 -3.9113
   43CHL1   H4B 3115   3.459  -0.065   3.096  0.2026  0.2502 -0.0539
   43CHL1    C5 3116   3.537   0.042   3.267  0.9195  0.1874  0.8300
   43CHL1    C6 3117   3.550  -0.066   3.337 -0.0361 -0.1452 -0.4041
   43CHL1    H6 3118   3.523  -0.164   3.294  0.4179 -0.3691 -0.1857
   43CHL1    C7 3119   3.580  -0.064   3.486  0.3597 -0.3634  0.3970
   43CHL1   H7A 3120   3.510  -0.129   3.544 -0.1862 -0.6714 -0.5861
   43CHL1   H7B 3121   3.682  -0.108   3.491 -0.1879 -2.4912 -3.2707
   43CHL1    C8 3122   3.562   0.080   3.531  1.1894  0.5707 -0.6882
   43CHL1    H8 3123   3.452   0.097   3.530  0.5928 -2.4818  0.6923
   43CHL1   C14 3124   3.604   0.085   3.680  0.4362  0.2567  1.0594
   43CHL1   H14 3125   3.710   0.052   3.671  0.0723 -0.4330 -1.6268
   43CHL1   C15 3126   3.537  -0.014   3.777 -0.7063  0.5631 -0.4359
   43CHL1  H15A 3127   3.428  -0.025   3.760 -0.5355 -0.2649 -1.0553
   43CHL1  H15B 3128   3.574  -0.118   3.762  1.8399  1.0543  1.6803
   43CHL1   C16 3129   3.573   0.040   3.914  0.5355  0.1677  0.1408
   43CHL1  H16A 3130   3.474   0.051   3.965 -0.6973  3.3713 -2.5826
   43CHL1  H16B 3131   3.645  -0.015   3.979 -0.3904 -1.4261 -0.1262
   43CHL1   C17 3132   3.626   0.186   3.895 -0.1374 -0.6892  0.2310
   43CHL1   H17 3133   3.735   0.167   3.880 -0.2230  0.4977 -2.6992
   43CHL1   C13 3134   3.588   0.221   3.748  0.7868  0.1482 -0.2714
   43CHL1   C18 3135   3.441   0.277   3.746  0.8385  0.6354 -0.2676
   43CHL1  H18A 3136   3.368   0.204   3.787  1.1465  0.7152  0.4332
   43CHL1  H18B 3137   3.433   0.377   3.793 -1.7714  1.3362 -1.9635
   43CHL1  H18C 3138   3.412   0.297   3.640 -1.9324  1.7247  0.5996
   43CHL1   C12 3139   3.679   0.320   3.673  0.4346  0.4355  0.1119
   43CHL1  H12A 3140   3.659   0.423   3.710 -3.2811  0.4998 -1.6013
   43CHL1  H12B 3141   3.787   0.294   3.685 -0.3586 -2.8097  1.2602
   43CHL1   C11 3142   3.649   0.321   3.519  1.2497 -0.2092 -0.5689
   43CHL1  H11A 3143   3.553   0.375   3.508  0.7875 -0.3082  2.2095
   43CHL1  H11B 3144   3.734   0.377   3.475  1.2892  0.3037  0.1470
   43CHL1    C9 3145   3.640   0.185   3.453 -0.3459  0.2309  0.8746
   43CHL1    H9 3146   3.747   0.158   3.449 -0.2282  0.7477  0.2385
   43CHL1   C10 3147   3.580   0.190   3.305  0.1436  0.1700 -0.5425
   43CHL1   C19 3148   3.441   0.273   3.298 -0.5433  0.1820 -0.0488
   43CHL1  H19A 3149   3.366   0.224   3.364 -0.8274  0.0148 -0.4889
   43CHL1  H19B 3150   3.457   0.374   3.341 -1.9778  0.2452  0.3685
   43CHL1  H19C 3151   3.400   0.282   3.195 -0.2785 -1.0101 -0.2723
   43CHL1    C1 3152   3.692   0.244   3.220 -0.2960  0.5469  0.7482
   43CHL1   H1A 3153   3.719   0.350   3.242 -0.5703  1.3305 -2.1637
   43CHL1   H1B 3154   3.791   0.193   3.229  0.8113  2.2873 -0.6486
   43CHL1    C2 3155   3.658   0.231   3.065 -0.3838  0.5518 -0.7789
   43CHL1   H2A 3156   3.733   0.261   2.989 -1.4946  2.7008 -1.1428
   43CHL1   H2B 3157   3.578   0.302   3.032 -0.0048  0.5560 -1.7248
   43CHL1   C20 3158   3.601   0.282   4.015 -0.0738  0.0482  0.1722
   43CHL1   H20 3159   3.492   0.301   4.029  0.3460  4.0107 -0.6801
   43CHL1   C21 3160   3.671   0.419   3.989  0.8926  0.2243 -0.1074
   43CHL1  H21A 3161   3.779   0.429   3.965  0.5488  1.5594 -1.2261
   43CHL1  H21B 3162   3.661   0.470   4.087 -0.5316  1.5189 -0.8676
   43CHL1  H21C 3163   3.604   0.470   3.916  0.0988 -0.8775 -0.1825
   43CHL1   C22 3164   3.659   0.220   4.147  0.3974 -0.3168  0.5945
   43CHL1  H22A 3165   3.602   0.126   4.161  0.1552 -0.5608 -1.6566
   43CHL1  H22B 3166   3.762   0.179   4.138  1.5938  2.5184  0.3421
   43CHL1   C23 3167   3.647   0.303   4.279 -0.7535 -0.6062 -0.7021
   43CHL1  H23A 3168   3.723   0.383   4.285 -1.0559 -0.3194 -0.6484
   43CHL1  H23B 3169   3.548   0.354   4.276  0.1590  1.2655 -0.3632
   43CHL1   C24 3170   3.660   0.218   4.397  0.0252  0.3032 -0.1777
   43CHL1  H24A 3171   3.600   0.126   4.384  1.0075 -0.2064 -1.2226
   43CHL1  H24B 3172   3.766   0.182   4.398  0.7159  2.0484 -2.3352
   43CHL1   C25 3173   3.626   0.279   4.531 -0.1551  0.5612 -0.1860
   43CHL1   H25 3174   3.522   0.318   4.529 -0.6180 -0.6877 -1.9752
   43CHL1   C26 3175   3.617   0.188   4.657  0.1837 -0.0423 -0.6761
   43CHL1  H26A 3176   3.611   0.257   4.744 -0.5750  0.6615 -1.2731
   43CHL1  H26B 3177   3.528   0.123   4.655  0.5886 -0.6214 -3.1784
   43CHL1  H26C 3178   3.703   0.124   4.686  0.2294  0.3721  0.1485
   43CHL1   C27 3179   3.728   0.388   4.564 -0.2437 -0.5763  0.4128
   43CHL1  H27A 3180   3.706   0.440   4.660 -1.5876  1.1652 -0.7680
   43CHL1  H27B 3181   3.824   0.333   4.563  0.0065 -0.1482 -1.0996
   43CHL1  H27C 3182   3.722   0.463   4.482 -0.3681 -0.3173  0.6567
   44CHL1    C3 3183   0.082   0.781   3.106 -1.1307  0.6227  0.2049
   44CHL1    H3 3184   0.160   0.855   3.134  1.5588 -0.2325 -4.0488
   44CHL1    O3 3185   0.110   0.754   2.970  0.5289  0.1738 -0.0863
   44CHL1   H3' 3186   0.091   0.837   2.926 -0.8911  1.3722  2.4991
   44CHL1    C4 3187   0.106   0.651   3.185  0.0360 -0.3505 -0.0257
   44CHL1   H4A 3188   0.041   0.565   3.159  0.1876  0.1142 -2.1397
   44CHL1   H4B 3189   0.207   0.617   3.154  0.5250  2.3987 -1.8176
   44CHL1    C5 3190   0.091   0.686   3.333  0.6818  0.1231  0.1254
   44CHL1    C6 3191   0.198   0.673   3.425  0.0483 -0.8622 -0.2180
   44CHL1    H6 3192   0.298   0.640   3.393  0.3623  0.8430 -1.1155
   44CHL1    C7 3193   0.178   0.693   3.574 -0.4626  0.3330  0.3510
   44CHL1   H7A 3194   0.227   0.614   3.635 -1.7184 -1.4789 -0.8803
   44CHL1   H7B 3195   0.228   0.787   3.606  0.9321 -0.7228  1.4284
   44CHL1    C8 3196   0.027   0.724   3.617  0.5835  0.3796  0.9479
   44CHL1    H8 3197  -0.036   0.633   3.610  0.4177  0.4046  1.9529
   44CHL1   C14 3198   0.018   0.775   3.758  0.4316  0.2964  0.7330
   44CHL1   H14 3199   0.074   0.871   3.763 -2.1455  1.8403  1.5979
   44CHL1   C15 3200   0.074   0.684   3.862 -0.6765 -0.1111 -0.2070
   44CHL1  H15A 3201   0.038   0.579   3.853 -1.9219 -0.1037  3.3008
   44CHL1  H15B 3202   0.185   0.688   3.868 -0.7819  0.9993  1.6279
   44CHL1   C16 3203   0.007   0.721   3.993 -0.6635 -0.6203  0.3077
   44CHL1  H16A 3204  -0.037   0.628   4.034  0.1724 -2.7791 -3.2090
   44CHL1  H16B 3205   0.087   0.746   4.066  0.4421  0.1185 -1.0875
   44CHL1   C17 3206  -0.103   0.824   3.950  0.0106 -0.4252 -0.3538
   44CHL1   H17 3207  -0.066   0.929   3.961 -0.4830  0.0318 -2.5027
   44CHL1   C13 3208  -0.130   0.804   3.801 -0.4109 -0.2788  0.7246
   44CHL1   C18 3209  -0.222   0.676   3.775  0.2587 -0.5808  0.1547
   44CHL1  H18A 3210  -0.234   0.652   3.667 -0.2053  0.1349  0.0434
   44CHL1  H18B 3211  -0.178   0.585   3.820 -0.3754 -0.7076  0.5172
   44CHL1  H18C 3212  -0.326   0.699   3.806 -0.1376 -0.6353 -1.0649
   44CHL1   C12 3213  -0.179   0.918   3.711  0.4471 -0.6068  0.1111
   44CHL1  H12A 3214  -0.278   0.954   3.747 -0.1157 -1.1327 -0.8798
   44CHL1  H12B 3215  -0.105   1.000   3.725  0.6553 -0.9314  1.0092
   44CHL1   C11 3216  -0.176   0.875   3.564 -0.2908 -0.0376 -0.4457
   44CHL1  H11A 3217  -0.265   0.814   3.536 -0.1332  0.5671 -2.3976
   44CHL1  H11B 3218  -0.201   0.959   3.495 -1.1458  1.3910  1.4768
   44CHL1    C9 3219  -0.039   0.825   3.516  0.6369  0.6779 -0.3608
   44CHL1    H9 3220   0.044   0.900   3.521  3.1896 -2.0759  2.9817
   44CHL1   C10 3221  -0.042   0.759   3.375  0.7814 -0.8029  0.2423
   44CHL1   C19 3222  -0.151   0.658   3.352 -0.1486 -0.1913 -0.0981
   44CHL1  H19A 3223  -0.248   0.712   3.354  0.6339  1.3574 -1.2025
   44CHL1  H19B 3224  -0.148   0.612   3.251 -0.7571 -0.0096 -0.2001
   44CHL1  H19C 3225  -0.152   0.583   3.433 -0.7546  1.6314  1.6795
   44CHL1    C1 3226  -0.069   0.874   3.275 -0.0393 -0.6157 -0.3604
   44CHL1   H1A 3227  -0.176   0.902   3.289  0.6036  1.5748  0.4958
   44CHL1   H1B 3228  -0.011   0.968   3.286 -0.9118  0.0101 -0.9443
   44CHL1    C2 3229  -0.056   0.842   3.126 -0.1423  0.3696  0.3279
   44CHL1   H2A 3230  -0.058   0.930   3.059  1.3857  0.1953  0.0098
   44CHL1   H2B 3231  -0.125   0.762   3.092  0.3480 -0.0190  0.2240
   44CHL1   C20 3232  -0.228   0.815   4.044 -0.5021  0.3646  0.4188
   44CHL1   H20 3233  -0.287   0.726   4.014  2.0725 -1.4198  0.2921
   44CHL1   C21 3234  -0.314   0.940   4.026  0.5955 -0.6008  0.1768
   44CHL1  H21A 3235  -0.390   0.958   4.104  1.3413  2.2461  0.3864
   44CHL1  H21B 3236  -0.371   0.936   3.931 -1.3608  1.5913  1.1636
   44CHL1  H21C 3237  -0.246   1.028   4.032  0.6659 -0.6420 -0.0110
   44CHL1   C22 3238  -0.173   0.802   4.191 -0.1463  0.0119 -0.1349
   44CHL1  H22A 3239  -0.262   0.798   4.256 -1.3510 -1.3830 -1.7832
   44CHL1  H22B 3240  -0.126   0.705   4.218 -0.8835 -0.1104  0.7398
   44CHL1   C23 3241  -0.085   0.913   4.247 -0.3623 -0.3474 -0.0546
   44CHL1  H23A 3242   0.001   0.908   4.176 -1.9368 -1.8730 -1.9455
   44CHL1  H23B 3243  -0.142   1.006   4.230 -1.6355 -0.9314  0.9301
   44CHL1   C24 3244  -0.036   0.882   4.394 -0.5833  0.1607  1.3064
   44CHL1  H24A 3245  -0.123   0.901   4.461 -0.4654  0.2782  1.4252
   44CHL1  H24B 3246  -0.019   0.772   4.391 -0.3335  0.2067 -1.8799
   44CHL1   C25 3247   0.083   0.968   4.438  0.1648  0.1151 -0.2137
   44CHL1   H25 3248   0.172   0.933   4.381  0.5371 -0.6164  0.8046
   44CHL1   C26 3249   0.067   1.119   4.424  0.1007  0.6190 -0.0882
   44CHL1  H26A 3250   0.164   1.170   4.437  0.3038  0.4873 -1.0176
   44CHL1  H26B 3251   0.028   1.152   4.325  0.3083  1.8782  0.2348
   44CHL1  H26C 3252  -0.003   1.168   4.495  1.0743 -0.6380  1.8033
   44CHL1   C27 3253   0.121   0.924   4.584  0.3761 -0.6694 -0.5531
   44CHL1  H27A 3254   0.208   0.981   4.621 -0.1887  0.0443 -0.3059
   44CHL1  H27B 3255   0.043   0.955   4.656  1.8939  0.4556  0.6445
   44CHL1  H27C 3256   0.127   0.813   4.597  2.8527 -0.3771  1.5831
   45CHL1    C3 3257   0.535   0.310   2.951 -0.6467  0.1056  0.1401
   45CHL1    H3 3258   0.603   0.385   2.998  0.7410  0.9757 -2.9821
   45CHL1    O3 3259   0.591   0.289   2.819 -0.0261 -0.3651 -0.0790
   45CHL1   H3' 3260   0.532   0.224   2.780 -0.1601 -0.7213  0.7002
   45CHL1    C4 3261   0.543   0.176   3.024 -0.2827  0.4509 -0.3064
   45CHL1   H4A 3262   0.513   0.096   2.954 -2.7465  0.6048  0.4927
   45CHL1   H4B 3263   0.649   0.147   3.044 -1.4739 -2.9079  1.8912
   45CHL1    C5 3264   0.466   0.170   3.154 -0.2496  0.4774 -0.2814
   45CHL1    C6 3265   0.529   0.134   3.265 -0.5441 -0.9618  0.2773
   45CHL1    H6 3266   0.637   0.115   3.260 -0.1201  1.3824 -2.0657
   45CHL1    C7 3267   0.468   0.127   3.406  0.1292  0.1405 -0.1348
   45CHL1   H7A 3268   0.496   0.033   3.458 -0.6888  0.1889  0.4080
   45CHL1   H7B 3269   0.511   0.205   3.473 -0.2549  0.0932  0.1716
   45CHL1    C8 3270   0.318   0.135   3.405  0.7801  0.0640 -0.7498
   45CHL1    H8 3271   0.280   0.037   3.369  1.6612 -0.3005 -0.7125
   45CHL1   C14 3272   0.256   0.169   3.544  1.1896 -0.1519 -0.1331
   45CHL1   H14 3273   0.281   0.275   3.567 -1.1958 -0.0635  2.5377
   45CHL1   C15 3274   0.302   0.099   3.672 -0.0462  0.4590  0.1540
   45CHL1  H15A 3275   0.314  -0.009   3.650 -0.7074  0.2576  0.7452
   45CHL1  H15B 3276   0.407   0.129   3.689  0.6879 -1.3190 -0.9184
   45CHL1   C16 3277   0.189   0.124   3.772 -0.5508  0.0248 -0.0148
   45CHL1  H16A 3278   0.148   0.026   3.806  2.2516 -1.0926  0.3701
   45CHL1  H16B 3279   0.227   0.182   3.859 -1.5777  3.2907 -1.5781
   45CHL1   C17 3280   0.080   0.211   3.700  0.5413  0.3440 -0.5744
   45CHL1   H17 3281   0.110   0.314   3.726  0.0533  0.0650  1.2228
   45CHL1   C13 3282   0.102   0.171   3.549  0.2083 -0.1168 -0.0309
   45CHL1   C18 3283   0.041   0.028   3.522  0.1509  0.2338  0.0575
   45CHL1  H18A 3284   0.070  -0.003   3.420  1.3327 -0.6728  0.6365
   45CHL1  H18B 3285   0.088  -0.042   3.595  1.0465  1.4401  0.6816
   45CHL1  H18C 3286  -0.069   0.032   3.530 -0.1048 -1.2437 -1.9840
   45CHL1   C12 3287   0.052   0.279   3.445  0.4866 -0.1045  0.2868
   45CHL1  H12A 3288  -0.059   0.288   3.443  0.5698  1.4359  0.9591
   45CHL1  H12B 3289   0.080   0.377   3.491  1.9111 -0.6455  0.6381
   45CHL1   C11 3290   0.106   0.258   3.307 -0.3201 -0.2882 -0.2439
   45CHL1  H11A 3291   0.064   0.163   3.268  1.2684 -1.9126  1.7180
   45CHL1  H11B 3292   0.069   0.346   3.250 -0.6236  0.4493  1.0614
   45CHL1    C9 3293   0.265   0.244   3.302  0.2802 -0.1496 -0.6250
   45CHL1    H9 3294   0.309   0.341   3.334 -0.9154  0.1201  0.2626
   45CHL1   C10 3295   0.318   0.219   3.155 -0.0936 -0.7585 -0.8661
   45CHL1   C19 3296   0.230   0.117   3.072 -0.2468  0.2444 -0.0068
   45CHL1  H19A 3297   0.207   0.024   3.129 -1.4898 -0.7318 -1.9746
   45CHL1  H19B 3298   0.130   0.161   3.052 -0.3742 -0.4344 -0.9618
   45CHL1  H19C 3299   0.272   0.097   2.971 -0.0235  0.6612  0.0003
   45CHL1    C1 3300   0.323   0.354   3.072 -0.2741 -0.2141 -0.0800
   45CHL1   H1A 3301   0.219   0.392   3.068  0.3869  1.5236 -2.5091
   45CHL1   H1B 3302   0.372   0.436   3.128  0.0653 -0.3082 -0.2407
   45CHL1    C2 3303   0.391   0.345   2.939  0.4748 -0.1605 -0.3094
   45CHL1   H2A 3304   0.380   0.447   2.896  2.0395 -0.0205 -0.4245
   45CHL1   H2B 3305   0.336   0.271   2.877 -0.6994  1.2454 -0.9905
   45CHL1   C20 3306  -0.067   0.200   3.766 -0.7249  0.2959 -0.1446
   45CHL1   H20 3307  -0.119   0.108   3.731 -0.0619  0.0281 -0.4586
   45CHL1   C21 3308  -0.154   0.314   3.710  0.2561 -0.3499  0.0216
   45CHL1  H21A 3309  -0.180   0.288   3.605  1.0817  1.0985 -0.5693
   45CHL1  H21B 3310  -0.088   0.403   3.706  1.3044 -1.0615  0.7401
   45CHL1  H21C 3311  -0.249   0.328   3.765 -0.2110 -0.1836 -0.8112
   45CHL1   C22 3312  -0.066   0.201   3.922 -0.4544  0.3242 -0.4622
   45CHL1  H22A 3313  -0.170   0.185   3.958 -0.5874 -0.0197 -0.9933
   45CHL1  H22B 3314  -0.005   0.114   3.955 -2.0602 -0.3680  0.8158
   45CHL1   C23 3315   0.007   0.324   3.987  0.6914 -0.0131  0.0350
   45CHL1  H23A 3316   0.105   0.340   3.938 -0.4276  1.9064 -1.7391
   45CHL1  H23B 3317  -0.059   0.410   3.963  0.2561 -1.1996 -3.6291
   45CHL1   C24 3318   0.045   0.298   4.134 -1.1944 -0.3861 -0.3356
   45CHL1  H24A 3319   0.120   0.216   4.134  2.3499  2.6485 -0.0734
   45CHL1  H24B 3320   0.098   0.386   4.176  0.8913 -1.7520  0.0459
   45CHL1   C25 3321  -0.074   0.273   4.225 -0.4266 -0.3456  0.7083
   45CHL1   H25 3322  -0.130   0.186   4.185  3.1860 -3.0536  0.9696
   45CHL1   C26 3323  -0.036   0.223   4.363 -0.5491 -0.1051 -0.4693
   45CHL1  H26A 3324  -0.121   0.208   4.433  0.0009 -0.7870  0.0646
   45CHL1  H26B 3325   0.027   0.131   4.355 -1.0273 -0.2765 -3.4122
   45CHL1  H26C 3326   0.029   0.302   4.405 -1.3058  0.5695 -0.5649
   45CHL1   C27 3327  -0.149   0.405   4.240 -0.1670 -0.3427  0.4630
   45CHL1  H27A 3328  -0.097   0.475   4.308 -0.5343 -0.9827  1.4301
   45CHL1  H27B 3329  -0.180   0.448   4.143 -1.8211 -1.8758  0.2584
   45CHL1  H27C 3330  -0.248   0.384   4.287 -0.9295  1.0041 -0.4599
   46CHL1    C3 3331   5.732   6.625   3.083  0.0848 -0.8067 -0.1094
   46CHL1    H3 3332   5.638   6.679   3.106 -0.0191 -1.0853  0.1296
   46CHL1    O3 3333   5.757   6.643   2.945 -0.2065  0.0165  0.5715
   46CHL1   H3' 3334   5.846   6.614   2.922  0.2092  2.1034 -0.6933
   46CHL1    C4 3335   5.847   6.685   3.168 -0.0658  0.0504  0.6462
   46CHL1   H4A 3336   5.947   6.661   3.127 -0.7763 -1.2630 -0.4051
   46CHL1   H4B 3337   5.843   6.796   3.168 -2.9445  0.0476  2.2015
   46CHL1    C5 3338   5.842   6.643   3.314 -0.0420 -0.3594  0.3464
   46CHL1    C6 3339   5.854   6.740   3.412  0.3306  0.1637  0.3403
   46CHL1    H6 3340   5.868   6.846   3.385  3.3253 -0.1180  0.4878
   46CHL1    C7 3341   5.834   6.706   3.559 -0.1416 -0.0235  0.2272
   46CHL1   H7A 3342   5.898   6.768   3.626 -0.6845  2.9891 -1.8321
   46CHL1   H7B 3343   5.730   6.737   3.584 -0.2823 -0.5823  0.3654
   46CHL1    C8 3344   5.877   6.555   3.583  0.1422 -0.8639  0.5885
   46CHL1    H8 3345   5.984   6.531   3.567  0.6437 -1.9018  4.5870
   46CHL1   C14 3346   5.851   6.517   3.727  0.6648 -0.0896 -0.0532
   46CHL1   H14 3347   5.743   6.535   3.747  0.1416 -0.0028 -2.6584
   46CHL1   C15 3348   5.926   6.591   3.834 -0.6378 -0.0157 -0.4727
   46CHL1  H15A 3349   6.029   6.600   3.794 -1.3912 -0.6320 -2.7345
   46CHL1  H15B 3350   5.882   6.684   3.876  0.9767  0.2424  0.7594
   46CHL1   C16 3351   5.918   6.489   3.957 -0.0581 -0.4443  0.9995
   46CHL1  H16A 3352   6.023   6.459   3.977 -0.7877 -3.8660  0.4689
   46CHL1  H16B 3353   5.855   6.536   4.036 -0.1334 -0.4099  0.9198
   46CHL1   C17 3354   5.842   6.368   3.907 -0.2911  1.4768  0.4635
   46CHL1   H17 3355   5.733   6.386   3.908 -0.7931 -1.0056 -1.1095
   46CHL1   C13 3356   5.877   6.362   3.756  1.0447 -0.0884 -0.3810
   46CHL1   C18 3357   6.020   6.321   3.726  0.4218  0.1489  0.6092
   46CHL1  H18A 3358   6.046   6.333   3.619 -2.2569 -0.2338 -0.1574
   46CHL1  H18B 3359   6.099   6.373   3.784  1.4002 -0.3579 -0.2315
   46CHL1  H18C 3360   6.024   6.211   3.742 -0.5438 -0.5603 -3.0491
   46CHL1   C12 3361   5.772   6.282   3.670 -0.0464  0.4998  0.0752
   46CHL1  H12A 3362   5.780   6.174   3.696  0.5568  0.9772  2.0570
   46CHL1  H12B 3363   5.674   6.319   3.706 -1.4432 -0.5395 -2.4352
   46CHL1   C11 3364   5.785   6.311   3.522  0.0113  0.5470  0.3586
   46CHL1  H11A 3365   5.876   6.256   3.488 -0.5987 -1.4637  1.7601
   46CHL1  H11B 3366   5.696   6.272   3.469  0.9810 -2.1302  0.5421
   46CHL1    C9 3367   5.793   6.465   3.489 -0.2633 -0.3289 -0.0300
   46CHL1    H9 3368   5.689   6.497   3.509 -0.1056  0.6870 -0.7813
   46CHL1   C10 3369   5.815   6.497   3.341  0.5160  0.3163  0.3353
   46CHL1   C19 3370   5.933   6.410   3.290 -0.1467 -0.9920 -0.0708
   46CHL1  H19A 3371   6.023   6.444   3.345  0.1935  2.7109 -2.5581
   46CHL1  H19B 3372   5.918   6.301   3.306 -1.9042 -1.0224 -1.6660
   46CHL1  H19C 3373   5.940   6.413   3.179 -0.0076 -0.4433 -0.0527
   46CHL1    C1 3374   5.679   6.459   3.267  0.4077  0.0389 -0.0784
   46CHL1   H1A 3375   5.666   6.351   3.293 -0.1420 -0.1236 -0.9805
   46CHL1   H1B 3376   5.603   6.523   3.317  2.3685  3.3182 -1.0643
   46CHL1    C2 3377   5.689   6.482   3.122 -0.6080 -0.4133 -0.2938
   46CHL1   H2A 3378   5.583   6.466   3.093 -1.4703 -0.1345  2.4545
   46CHL1   H2B 3379   5.758   6.410   3.074 -0.7390 -1.0909  0.5202
   46CHL1   C20 3380   5.869   6.239   3.988  0.6795  0.0346 -0.3376
   46CHL1   H20 3381   5.870   6.153   3.917 -3.1776 -0.4279 -0.0052
   46CHL1   C21 3382   5.741   6.214   4.077  0.7012  0.3526 -0.0586
   46CHL1  H21A 3383   5.648   6.225   4.018 -0.2185 -0.0233  1.2877
   46CHL1  H21B 3384   5.731   6.282   4.165 -0.1777  0.7919 -0.4850
   46CHL1  H21C 3385   5.738   6.108   4.110 -1.0666  0.0065 -1.2020
   46CHL1   C22 3386   6.001   6.221   4.060 -0.3689 -0.0065 -0.4485
   46CHL1  H22A 3387   6.077   6.212   3.979  1.0337 -0.6842  0.9019
   46CHL1  H22B 3388   6.017   6.313   4.120  1.9049  0.9654 -2.3786
   46CHL1   C23 3389   6.026   6.098   4.151 -0.0390 -1.0731 -0.0096
   46CHL1  H23A 3390   5.938   6.071   4.212 -0.1608  1.0975  0.8441
   46CHL1  H23B 3391   6.044   6.015   4.079  0.5926 -0.7290 -0.2595
   46CHL1   C24 3392   6.147   6.111   4.248  0.5091 -0.2872  0.4843
   46CHL1  H24A 3393   6.223   6.147   4.175 -0.2287 -2.3262 -1.3979
   46CHL1  H24B 3394   6.134   6.187   4.328  1.3858  0.8574 -0.4113
   46CHL1   C25 3395   6.211   5.975   4.292  0.3278 -0.2223 -0.4294
   46CHL1   H25 3396   6.222   5.915   4.199  2.2925 -0.2246 -0.2336
   46CHL1   C26 3397   6.348   6.015   4.358  0.4693  0.2703  0.3292
   46CHL1  H26A 3398   6.321   6.063   4.455 -2.4655 -2.0585  0.8196
   46CHL1  H26B 3399   6.402   5.919   4.376  1.0502  0.3109 -1.0817
   46CHL1  H26C 3400   6.408   6.071   4.284 -2.1767  0.5103 -1.7725
   46CHL1   C27 3401   6.127   5.907   4.402  0.8362  0.0318  0.2870
   46CHL1  H27A 3402   6.020   5.900   4.373  0.5065  3.1289  0.4904
   46CHL1  H27B 3403   6.168   5.807   4.431  2.2974  0.5506  0.0852
   46CHL1  H27C 3404   6.130   5.968   4.494 -2.8374  0.8464  0.0048
   47CHL1    C3 3405   3.486   0.706   2.880 -0.2005  0.1691 -0.2165
   47CHL1    H3 3406   3.395   0.643   2.887  0.8727 -1.3978  0.1488
   47CHL1    O3 3407   3.509   0.697   2.745 -0.2244  0.1009 -0.2330
   47CHL1   H3' 3408   3.600   0.725   2.736 -0.9749  2.2729 -1.8809
   47CHL1    C4 3409   3.466   0.854   2.928  1.2586 -0.0850 -0.5338
   47CHL1   H4A 3410   3.554   0.912   2.893  1.8742 -0.1956  0.7837
   47CHL1   H4B 3411   3.377   0.901   2.881  0.9987  0.7265  0.7389
   47CHL1    C5 3412   3.449   0.854   3.082 -0.3536 -0.5755  0.3781
   47CHL1    C6 3413   3.340   0.907   3.135  0.4677 -0.2745 -0.2564
   47CHL1    H6 3414   3.263   0.940   3.064  0.7020 -1.2268 -0.9718
   47CHL1    C7 3415   3.314   0.906   3.285 -0.1643 -0.2697  0.5000
   47CHL1   H7A 3416   3.266   0.999   3.323 -1.0187 -0.2915 -0.5104
   47CHL1   H7B 3417   3.267   0.807   3.305  0.5013 -1.0588 -1.5666
   47CHL1    C8 3418   3.451   0.902   3.362  0.9794  0.3695 -0.0891
   47CHL1    H8 3419   3.512   0.992   3.339 -0.1737  1.1677 -0.1040
   47CHL1   C14 3420   3.429   0.888   3.514 -1.1343  0.6300  0.5864
   47CHL1   H14 3421   3.374   0.793   3.531 -0.2211  0.4427  2.7612
   47CHL1   C15 3422   3.338   0.998   3.571 -0.2620 -0.1708 -0.7759
   47CHL1  H15A 3423   3.355   1.104   3.541  0.0766  0.6764  2.0761
   47CHL1  H15B 3424   3.233   0.981   3.538 -0.1572 -0.2079 -1.1013
   47CHL1   C16 3425   3.376   0.997   3.716 -1.0976  0.5977 -0.4147
   47CHL1  H16A 3426   3.432   1.088   3.747  0.4245 -0.9358  1.6491
   47CHL1  H16B 3427   3.293   0.970   3.785  0.2900 -1.9618  0.4234
   47CHL1   C17 3428   3.483   0.877   3.735  0.3468  0.1680 -0.2910
   47CHL1   H17 3429   3.412   0.792   3.746  0.5236  0.1885  1.1988
   47CHL1   C13 3430   3.554   0.867   3.590 -0.0494  0.0643  0.0895
   47CHL1   C18 3431   3.653   0.984   3.587 -0.5912 -0.6817 -0.2441
   47CHL1  H18A 3432   3.606   1.080   3.618  2.1050  0.5830  0.1653
   47CHL1  H18B 3433   3.746   0.960   3.642 -1.6707  0.1256  2.0812
   47CHL1  H18C 3434   3.696   0.991   3.485  1.4794 -2.0385  0.4812
   47CHL1   C12 3435   3.622   0.736   3.554 -0.3105  0.9587 -0.0454
   47CHL1  H12A 3436   3.720   0.706   3.595 -0.3270  1.1677  0.1474
   47CHL1  H12B 3437   3.543   0.662   3.581 -0.0847  0.9655  0.6369
   47CHL1   C11 3438   3.644   0.735   3.406  0.0836  0.2531  0.6206
   47CHL1  H11A 3439   3.736   0.794   3.388 -0.6564  1.9572  2.1806
   47CHL1  H11B 3440   3.665   0.629   3.378 -1.5683  0.7352 -3.1299
   47CHL1    C9 3441   3.531   0.783   3.314  0.5946  0.5523  0.7366
   47CHL1    H9 3442   3.457   0.701   3.312 -0.8203  1.7868  1.1738
   47CHL1   C10 3443   3.568   0.796   3.161 -0.2615 -0.5808  0.2839
   47CHL1   C19 3444   3.701   0.877   3.143 -0.0957 -0.3903  0.3727
   47CHL1  H19A 3445   3.792   0.814   3.148 -0.2616 -0.7129 -0.5839
   47CHL1  H19B 3446   3.703   0.916   3.039 -0.5839  1.8460  1.1326
   47CHL1  H19C 3447   3.697   0.966   3.211 -0.0710  1.2287 -1.6452
   47CHL1    C1 3448   3.593   0.655   3.104  0.2320  0.1555 -0.5699
   47CHL1   H1A 3449   3.677   0.605   3.157  0.1215 -0.0702 -0.6061
   47CHL1   H1B 3450   3.512   0.588   3.140  1.1133 -0.2086  0.8184
   47CHL1    C2 3451   3.603   0.645   2.956 -0.2833 -0.2569 -0.1644
   47CHL1   H2A 3452   3.607   0.542   2.914 -2.4864  0.3136 -2.0224
   47CHL1   H2B 3453   3.703   0.684   2.928 -0.3601  0.2242  0.2065
   47CHL1   C20 3454   3.565   0.897   3.862 -0.6427  1.1513 -0.1323
   47CHL1   H20 3455   3.620   0.993   3.869 -0.0064  0.7340  0.9087
   47CHL1   C21 3456   3.669   0.780   3.858  0.0686  0.1829 -0.3260
   47CHL1  H21A 3457   3.616   0.683   3.852 -0.1661  0.4180 -4.8165
   47CHL1  H21B 3458   3.726   0.783   3.954 -0.6350 -0.8120  0.1339
   47CHL1  H21C 3459   3.745   0.793   3.778  0.3169 -2.3226 -0.5867
   47CHL1   C22 3460   3.474   0.888   3.998  0.6110  0.2414  0.4809
   47CHL1  H22A 3461   3.542   0.922   4.079 -1.2335  3.2323  0.9330
   47CHL1  H22B 3462   3.384   0.952   3.996 -0.6662 -1.5104 -0.8452
   47CHL1   C23 3463   3.421   0.750   4.041  0.2730 -0.1348 -0.0801
   47CHL1  H23A 3464   3.340   0.722   3.970 -0.1758 -0.8824  0.7054
   47CHL1  H23B 3465   3.496   0.668   4.033 -2.0898 -2.2539 -2.6350
   47CHL1   C24 3466   3.354   0.751   4.177 -0.4306 -0.1308 -0.1086
   47CHL1  H24A 3467   3.283   0.835   4.189 -1.6560 -0.9298 -1.4299
   47CHL1  H24B 3468   3.289   0.663   4.197 -0.4051 -0.2593 -0.5638
   47CHL1   C25 3469   3.454   0.751   4.294 -0.5026  0.0383  0.2332
   47CHL1   H25 3470   3.534   0.826   4.276 -1.4028  1.1105  0.6101
   47CHL1   C26 3471   3.391   0.785   4.430  0.6589 -0.6921 -0.5521
   47CHL1  H26A 3472   3.470   0.786   4.508 -1.1503  0.6379  1.3848
   47CHL1  H26B 3473   3.349   0.888   4.436 -0.4716 -1.2086  1.2229
   47CHL1  H26C 3474   3.313   0.714   4.464 -0.2943  0.9659  0.9187
   47CHL1   C27 3475   3.530   0.620   4.314 -0.2886 -0.0760  0.2425
   47CHL1  H27A 3476   3.605   0.609   4.232  1.0790 -0.2916  1.4798
   47CHL1  H27B 3477   3.597   0.621   4.402 -1.8127 -1.9644  1.4955
   47CHL1  H27C 3478   3.449   0.547   4.331  0.5716 -0.9847  0.4842
   48CHL1    C3 3479   4.951   2.443   2.975  0.0411 -0.4007  0.4171
   48CHL1    H3 3480   4.935   2.545   2.934 -1.4812 -0.7739  0.0242
   48CHL1    O3 3481   4.915   2.349   2.873  0.5418 -0.3065 -0.0004
   48CHL1   H3' 3482   4.991   2.347   2.814  1.7723 -0.2718  1.5296
   48CHL1    C4 3483   5.107   2.423   3.005  0.0810  0.6818  0.6912
   48CHL1   H4A 3484   5.123   2.314   2.995 -3.1585  0.2031 -0.6029
   48CHL1   H4B 3485   5.156   2.464   2.915  0.9709  1.9996  1.7354
   48CHL1    C5 3486   5.154   2.487   3.136 -0.1522 -0.8148  0.3233
   48CHL1    C6 3487   5.266   2.570   3.144 -0.2472  0.2076 -0.0586
   48CHL1    H6 3488   5.335   2.585   3.060 -0.0160  1.1040  0.2789
   48CHL1    C7 3489   5.306   2.631   3.272  0.2739  0.2317  0.4906
   48CHL1   H7A 3490   5.417   2.630   3.274  0.3627 -2.3471 -1.0367
   48CHL1   H7B 3491   5.266   2.734   3.281  0.8736  0.5946 -0.7115
   48CHL1    C8 3492   5.250   2.555   3.395 -0.8123 -0.0882  0.6355
   48CHL1    H8 3493   5.294   2.453   3.402 -0.1981  0.2535  2.0050
   48CHL1   C14 3494   5.274   2.634   3.525 -0.5134 -0.1481 -0.4222
   48CHL1   H14 3495   5.220   2.731   3.528  2.2218  1.5566 -1.8731
   48CHL1   C15 3496   5.425   2.678   3.554  0.1479  0.0780  0.2848
   48CHL1  H15A 3497   5.506   2.608   3.525  1.1221  0.8139  1.1447
   48CHL1  H15B 3498   5.445   2.774   3.503  0.0520 -0.6836 -1.2282
   48CHL1   C16 3499   5.429   2.682   3.706 -0.2262 -0.5774 -0.5682
   48CHL1  H16A 3500   5.508   2.608   3.729  1.0856  0.9325  0.0076
   48CHL1  H16B 3501   5.455   2.785   3.740  0.9969 -1.4311  1.2449
   48CHL1   C17 3502   5.286   2.631   3.756 -0.2683 -0.2444 -0.6164
   48CHL1   H17 3503   5.226   2.725   3.768  1.8250  0.8941  1.8574
   48CHL1   C13 3504   5.225   2.551   3.650  0.4838  0.3661  0.1030
   48CHL1   C18 3505   5.279   2.408   3.647 -0.3751 -0.4712 -0.1514
   48CHL1  H18A 3506   5.251   2.359   3.742  0.9426  2.1127  1.6764
   48CHL1  H18B 3507   5.246   2.348   3.560 -0.8156  0.8525 -0.9270
   48CHL1  H18C 3508   5.390   2.415   3.640 -0.5753  1.9359 -2.4125
   48CHL1   C12 3509   5.070   2.557   3.639  0.5708 -0.1062  0.1099
   48CHL1  H12A 3510   5.010   2.508   3.718 -1.1526 -0.1240 -1.1397
   48CHL1  H12B 3511   5.030   2.661   3.637  0.1279 -0.2794 -0.5721
   48CHL1   C11 3512   5.036   2.484   3.508 -0.6979 -0.1317  1.3077
   48CHL1  H11A 3513   5.041   2.375   3.528 -0.4544 -0.7447 -1.6435
   48CHL1  H11B 3514   4.926   2.503   3.505 -0.6917 -0.1771  0.6679
   48CHL1    C9 3515   5.101   2.539   3.384  0.4159  0.1412 -0.2479
   48CHL1    H9 3516   5.067   2.644   3.376 -0.5264  0.0568  1.8734
   48CHL1   C10 3517   5.056   2.466   3.257 -0.9595  0.5470  1.4022
   48CHL1   C19 3518   5.057   2.311   3.282 -0.4058 -0.7324 -0.1165
   48CHL1  H19A 3519   5.079   2.253   3.190 -1.0109 -0.6451 -0.3156
   48CHL1  H19B 3520   5.156   2.293   3.330  0.3817  1.3728 -0.7985
   48CHL1  H19C 3521   4.968   2.279   3.340 -1.2056 -1.6915 -1.8183
   48CHL1    C1 3522   4.921   2.517   3.208  0.0229 -0.0947  0.1421
   48CHL1   H1A 3523   4.854   2.518   3.296  2.6779 -1.1939  2.2880
   48CHL1   H1B 3524   4.945   2.623   3.183 -0.6772  0.1971  0.6825
   48CHL1    C2 3525   4.860   2.433   3.095  0.3237 -0.5199 -0.4321
   48CHL1   H2A 3526   4.761   2.477   3.075  1.1663  2.1537  0.8260
   48CHL1   H2B 3527   4.861   2.326   3.126  0.5353 -1.3379 -3.0312
   48CHL1   C20 3528   5.301   2.583   3.904  0.0721  0.4390  0.3413
   48CHL1   H20 3529   5.355   2.486   3.899 -0.2911  0.2793 -1.4681
   48CHL1   C21 3530   5.160   2.583   3.967  0.1935  0.0379  0.2839
   48CHL1  H21A 3531   5.108   2.681   3.965 -0.9079 -0.5373  0.3781
   48CHL1  H21B 3532   5.160   2.560   4.075 -0.7051  2.0005  0.7562
   48CHL1  H21C 3533   5.088   2.516   3.916  0.4634 -0.1195  0.1017
   48CHL1   C22 3534   5.398   2.672   3.995  0.4772 -0.2914  1.0260
   48CHL1  H22A 3535   5.403   2.623   4.095 -1.0603  0.7634  1.6503
   48CHL1  H22B 3536   5.503   2.676   3.957  0.2430 -0.2041  0.3839
   48CHL1   C23 3537   5.338   2.816   4.009 -0.1999  0.0944 -0.1083
   48CHL1  H23A 3538   5.296   2.850   3.912  3.6752  3.3926 -0.8668
   48CHL1  H23B 3539   5.262   2.811   4.091  0.7642 -1.2880  0.7537
   48CHL1   C24 3540   5.446   2.922   4.045 -0.2413  0.4290  0.3830
   48CHL1  H24A 3541   5.499   2.889   4.137  0.6562  1.6794  0.3361
   48CHL1  H24B 3542   5.533   2.930   3.976  0.9828 -1.4997  1.6235
   48CHL1   C25 3543   5.390   3.060   4.091  0.1509  0.1828 -0.5757
   48CHL1   H25 3544   5.321   3.035   4.175  1.8609  0.9065  1.1261
   48CHL1   C26 3545   5.500   3.143   4.162 -0.7328 -0.1313  0.3718
   48CHL1  H26A 3546   5.536   3.085   4.250  0.2616  1.7729  1.2663
   48CHL1  H26B 3547   5.586   3.166   4.096 -0.1041 -1.0633  0.8443
   48CHL1  H26C 3548   5.463   3.241   4.198  0.3533 -0.1040  1.4577
   48CHL1   C27 3549   5.314   3.146   3.987  0.4748 -0.1412  0.2222
   48CHL1  H27A 3550   5.249   3.087   3.919 -0.3099 -0.8266  1.5272
   48CHL1  H27B 3551   5.247   3.226   4.026 -0.3127 -1.6601  2.1952
   48CHL1  H27C 3552   5.395   3.186   3.922 -0.5196  2.6122  0.5826
   49CHL1    C3 3553   1.210   1.626   2.487 -0.2364 -0.4648 -0.3362
   49CHL1    H3 3554   1.259   1.530   2.515 -0.7485 -0.6659 -0.1323
   49CHL1    O3 3555   1.255   1.656   2.355  0.2195  0.0578 -0.5654
   49CHL1   H3' 3556   1.249   1.580   2.297  1.5741 -0.7655  0.3351
   49CHL1    C4 3557   1.055   1.621   2.495 -0.2715 -0.7344  0.0154
   49CHL1   H4A 3558   1.025   1.720   2.454  0.5275  0.1813  1.5324
   49CHL1   H4B 3559   1.025   1.539   2.426  1.3027 -0.4723 -1.0427
   49CHL1    C5 3560   1.006   1.593   2.633 -0.3228  0.1001 -0.4973
   49CHL1    C6 3561   0.933   1.489   2.678 -0.1746 -0.3829  0.0508
   49CHL1    H6 3562   0.904   1.412   2.605  1.1156 -0.2913 -0.5962
   49CHL1    C7 3563   0.888   1.468   2.820 -0.3292 -0.6715 -0.1889
   49CHL1   H7A 3564   0.779   1.450   2.818 -0.6000  0.7826  0.0729
   49CHL1   H7B 3565   0.950   1.392   2.873  1.1127  1.7304  1.8124
   49CHL1    C8 3566   0.901   1.600   2.910  0.6743  0.7171 -0.4736
   49CHL1    H8 3567   0.818   1.670   2.887 -0.7390 -0.0581  1.9452
   49CHL1   C14 3568   0.882   1.559   3.056  0.3720  0.5548 -0.4440
   49CHL1   H14 3569   0.964   1.484   3.067 -0.6192 -0.2544  2.0815
   49CHL1   C15 3570   0.761   1.470   3.093  0.0321 -0.1869 -0.0822
   49CHL1  H15A 3571   0.669   1.530   3.077 -0.3438 -0.1506  1.9337
   49CHL1  H15B 3572   0.760   1.367   3.053 -0.4833  0.3079 -1.3930
   49CHL1   C16 3573   0.769   1.470   3.253  0.0567  0.5182  1.3030
   49CHL1  H16A 3574   0.676   1.503   3.304 -2.8229 -0.1846 -2.9916
   49CHL1  H16B 3575   0.800   1.369   3.285 -1.1624  0.0590  1.0844
   49CHL1   C17 3576   0.889   1.560   3.289 -0.3115 -0.4520  0.2316
   49CHL1   H17 3577   0.981   1.498   3.295 -0.6845 -0.9288  1.7463
   49CHL1   C13 3578   0.907   1.653   3.166 -0.4586 -0.1007  0.1887
   49CHL1   C18 3579   0.796   1.760   3.149 -0.9289  0.0943 -0.1994
   49CHL1  H18A 3580   0.693   1.729   3.177 -1.0715  0.6451 -0.0958
   49CHL1  H18B 3581   0.818   1.844   3.219 -0.6613  0.7761 -1.0848
   49CHL1  H18C 3582   0.798   1.798   3.045  1.2855  0.1661 -0.1871
   49CHL1   C12 3583   1.046   1.714   3.144 -0.4380 -0.3283 -0.0551
   49CHL1  H12A 3584   1.076   1.794   3.216  1.6471 -1.3526  0.2874
   49CHL1  H12B 3585   1.124   1.635   3.152  0.7905  0.7410 -0.9344
   49CHL1   C11 3586   1.063   1.770   3.001 -0.2481  0.0232  0.4559
   49CHL1  H11A 3587   0.994   1.858   2.995 -3.3586 -2.2877 -0.7039
   49CHL1  H11B 3588   1.161   1.819   2.982 -1.2034  1.4166 -1.1588
   49CHL1    C9 3589   1.029   1.667   2.882  0.4530  0.5018 -0.6840
   49CHL1    H9 3590   1.098   1.581   2.899 -1.8443 -2.2158 -3.8130
   49CHL1   C10 3591   1.058   1.705   2.736 -0.0199 -0.0436  0.0700
   49CHL1   C19 3592   0.978   1.830   2.705  1.0292 -0.5053 -0.4878
   49CHL1  H19A 3593   0.971   1.906   2.785 -0.3492 -2.0441  0.9287
   49CHL1  H19B 3594   1.026   1.877   2.616 -1.2205  2.6196 -0.2512
   49CHL1  H19C 3595   0.873   1.803   2.677  1.4828 -2.6062 -0.3356
   49CHL1    C1 3596   1.205   1.725   2.726 -0.0213 -0.0557  0.0387
   49CHL1   H1A 3597   1.245   1.807   2.788 -0.2685 -1.1983  1.7903
   49CHL1   H1B 3598   1.259   1.637   2.769  0.7624  0.0473 -0.7120
   49CHL1    C2 3599   1.262   1.733   2.585  0.0869  0.1273 -0.0659
   49CHL1   H2A 3600   1.373   1.718   2.586 -0.0255 -0.8488 -0.5068
   49CHL1   H2B 3601   1.249   1.837   2.550  0.3537  0.1165 -0.2016
   49CHL1   C20 3602   0.868   1.623   3.429 -0.4545  0.2135  0.0575
   49CHL1   H20 3603   0.777   1.687   3.423 -0.9416 -0.3821  0.8167
   49CHL1   C21 3604   0.986   1.720   3.449  0.7230 -0.1790 -0.8745
   49CHL1  H21A 3605   0.995   1.741   3.558 -0.6549  2.4369 -1.1918
   49CHL1  H21B 3606   0.957   1.816   3.401  3.3880  1.7024  0.9786
   49CHL1  H21C 3607   1.081   1.682   3.406  0.1187  0.0306 -2.4908
   49CHL1   C22 3608   0.843   1.518   3.545 -0.4487  0.0715 -0.2453
   49CHL1  H22A 3609   0.781   1.427   3.533  2.0124 -2.3161  3.0475
   49CHL1  H22B 3610   0.944   1.471   3.555 -0.3439  0.4969  0.9357
   49CHL1   C23 3611   0.785   1.568   3.679 -0.6033 -0.1486 -0.0542
   49CHL1  H23A 3612   0.856   1.641   3.723  0.7890 -1.9551  0.7945
   49CHL1  H23B 3613   0.694   1.624   3.646 -0.3571 -0.8367 -2.0744
   49CHL1   C24 3614   0.739   1.459   3.769 -0.2175 -0.2983 -0.4136
   49CHL1  H24A 3615   0.669   1.510   3.840  0.2688  1.1754 -0.9610
   49CHL1  H24B 3616   0.677   1.378   3.724  0.7168 -0.2649 -1.7925
   49CHL1   C25 3617   0.848   1.400   3.853  0.3761  0.6089 -0.0396
   49CHL1   H25 3618   0.925   1.358   3.785 -1.2970 -1.8144 -0.5929
   49CHL1   C26 3619   0.903   1.496   3.953  0.1034  0.4941  0.3144
   49CHL1  H26A 3620   0.925   1.601   3.927  1.9746  0.6767  2.3094
   49CHL1  H26B 3621   0.823   1.490   4.030 -1.2564  1.6080 -0.9610
   49CHL1  H26C 3622   1.001   1.460   3.992  0.8143  1.0683 -0.9081
   49CHL1   C27 3623   0.785   1.279   3.924 -0.4978  0.2156 -0.1756
   49CHL1  H27A 3624   0.751   1.213   3.841  0.9985 -0.3011 -0.4181
   49CHL1  H27B 3625   0.861   1.233   3.991 -1.5307  0.6807  1.3655
   49CHL1  H27C 3626   0.690   1.303   3.976 -2.5286 -3.0840 -1.9942
   50CHL1    C3 3627   6.099   1.222   3.123 -0.3087 -0.1793  0.2353
   50CHL1    H3 3628   6.099   1.330   3.150 -1.7183 -0.3335  0.9206
   50CHL1    O3 3629   6.095   1.219   2.980 -0.2702  0.4097  0.0076
   50CHL1   H3' 3630   6.102   1.126   2.955 -0.6320  0.2248  0.5659
   50CHL1    C4 3631   6.208   1.137   3.178  0.6680  0.0848  0.2251
   50CHL1   H4A 3632   6.184   1.034   3.146 -0.6457  0.7062 -0.8740
   50CHL1   H4B 3633   6.301   1.162   3.122 -0.4825 -0.0806 -1.8224
   50CHL1    C5 3634   6.227   1.144   3.329 -0.1474 -0.6680  0.3043
   50CHL1    C6 3635   6.346   1.179   3.375 -0.3062  0.2295 -0.0761
   50CHL1    H6 3636   6.432   1.190   3.307  0.7366 -1.5045  0.8959
   50CHL1    C7 3637   6.377   1.202   3.518  0.2048 -0.5115 -0.0605
   50CHL1   H7A 3638   6.481   1.166   3.531  0.8208  1.3554  0.5689
   50CHL1   H7B 3639   6.381   1.313   3.528  1.7840 -0.3987 -1.6089
   50CHL1    C8 3640   6.274   1.149   3.619  0.5548  0.2093  0.2974
   50CHL1    H8 3641   6.289   1.039   3.629 -0.1162  0.0678 -0.1594
   50CHL1   C14 3642   6.287   1.212   3.757 -0.3420  0.2413  0.6784
   50CHL1   H14 3643   6.253   1.316   3.739  1.2704  1.6151  4.6276
   50CHL1   C15 3644   6.428   1.235   3.815 -0.1719 -0.5534  0.0314
   50CHL1  H15A 3645   6.478   1.135   3.813  1.1000  0.0433  0.7232
   50CHL1  H15B 3646   6.487   1.312   3.761  0.6632 -0.8527  0.4859
   50CHL1   C16 3647   6.394   1.274   3.964 -0.3249  0.4936  0.6451
   50CHL1  H16A 3648   6.439   1.205   4.038  1.6639 -0.4938 -1.3933
   50CHL1  H16B 3649   6.427   1.377   3.989  0.8281  0.6014 -1.1841
   50CHL1   C17 3650   6.237   1.263   3.977  0.0834  0.3865  0.3022
   50CHL1   H17 3651   6.183   1.357   3.952 -2.9438 -0.9038  1.4398
   50CHL1   C13 3652   6.192   1.166   3.868  0.0905 -0.0321  0.1985
   50CHL1   C18 3653   6.220   1.023   3.907 -0.5402  0.1195  0.0343
   50CHL1  H18A 3654   6.221   0.961   3.815  1.2744  0.5561 -0.2642
   50CHL1  H18B 3655   6.318   1.023   3.958 -0.7695 -0.6637  0.5074
   50CHL1  H18C 3656   6.138   0.993   3.976  0.0028  2.0653  1.5916
   50CHL1   C12 3657   6.048   1.175   3.812  0.0179  0.0964 -0.1666
   50CHL1  H12A 3658   5.980   1.125   3.885  1.9554  0.2869  1.8843
   50CHL1  H12B 3659   6.017   1.281   3.794  0.2922 -0.1316 -2.1978
   50CHL1   C11 3660   6.035   1.109   3.672  0.2849 -0.3231 -0.9577
   50CHL1  H11A 3661   6.053   0.999   3.678  2.3677 -0.2186 -3.6067
   50CHL1  H11B 3662   5.930   1.115   3.639  0.4710 -0.9324 -1.6972
   50CHL1    C9 3663   6.127   1.172   3.567  0.3484 -0.2170 -0.2580
   50CHL1    H9 3664   6.105   1.280   3.576  0.0730 -0.1264 -1.6639
   50CHL1   C10 3665   6.109   1.118   3.423  0.3250 -0.5120  0.4356
   50CHL1   C19 3666   6.084   0.959   3.420 -1.1881 -0.2955  0.3086
   50CHL1  H19A 3667   5.980   0.943   3.456 -0.8380  2.0577  2.6589
   50CHL1  H19B 3668   6.099   0.924   3.315 -0.7084  2.5372 -0.6450
   50CHL1  H19C 3669   6.153   0.891   3.474 -1.4354 -0.4153  0.4743
   50CHL1    C1 3670   5.997   1.189   3.349  0.3794  0.3604 -0.3669
   50CHL1   H1A 3671   5.909   1.155   3.409  1.0213 -0.1953  0.2741
   50CHL1   H1B 3672   6.003   1.299   3.361  0.2558  0.2630  0.6829
   50CHL1    C2 3673   5.976   1.164   3.199  0.2270  0.1440 -0.0753
   50CHL1   H2A 3674   5.874   1.205   3.179  0.6593  1.3441  0.1215
   50CHL1   H2B 3675   5.978   1.053   3.197  2.0058  0.1315  0.6002
   50CHL1   C20 3676   6.195   1.234   4.125  0.6158 -0.0107 -0.2041
   50CHL1   H20 3677   6.219   1.128   4.149 -1.1820 -0.4886 -0.3889
   50CHL1   C21 3678   6.040   1.262   4.136  0.3674  0.3916  0.3279
   50CHL1  H21A 3679   6.007   1.280   4.241  0.3827 -2.3879  0.8689
   50CHL1  H21B 3680   5.984   1.171   4.107  2.1078 -0.9824  1.1115
   50CHL1  H21C 3681   6.013   1.352   4.077  1.8716 -0.1053 -1.1809
   50CHL1   C22 3682   6.268   1.326   4.228  0.0573 -0.1926  0.5265
   50CHL1  H22A 3683   6.239   1.292   4.330  1.2623 -1.0542  0.6083
   50CHL1  H22B 3684   6.378   1.313   4.219  0.1709  0.6557  0.5753
   50CHL1   C23 3685   6.220   1.480   4.231 -0.4244  0.9661 -0.2914
   50CHL1  H23A 3686   6.248   1.534   4.139  1.7384  0.4570  0.0071
   50CHL1  H23B 3687   6.112   1.492   4.249 -0.1585  2.7498  0.2595
   50CHL1   C24 3688   6.289   1.559   4.348  0.1417  0.1934 -0.4326
   50CHL1  H24A 3689   6.244   1.521   4.442 -0.2458  1.6179 -0.0171
   50CHL1  H24B 3690   6.399   1.540   4.349  0.0311 -0.4840  0.3635
   50CHL1   C25 3691   6.262   1.712   4.355 -0.0169 -0.1769 -0.1451
   50CHL1   H25 3692   6.298   1.747   4.454  0.2835  0.8480 -0.6085
   50CHL1   C26 3693   6.352   1.799   4.260 -0.7944 -0.3846  0.0258
   50CHL1  H26A 3694   6.299   1.803   4.162 -0.6680 -1.1001 -0.0805
   50CHL1  H26B 3695   6.344   1.899   4.307  0.0698 -0.1743 -0.2551
   50CHL1  H26C 3696   6.457   1.764   4.251 -0.6155  0.6148 -2.7439
   50CHL1   C27 3697   6.117   1.743   4.344  0.5133 -0.0926  0.5181
   50CHL1  H27A 3698   6.083   1.721   4.241  1.2602 -0.6228  0.3751
   50CHL1  H27B 3699   6.048   1.697   4.419  0.8288  1.3821  1.7455
   50CHL1  H27C 3700   6.099   1.850   4.365  0.7150  0.1271 -0.4039
   51CHL1    C3 3701   1.939   1.951   2.600  0.3747 -0.3606  0.2737
   51CHL1    H3 3702   1.961   2.047   2.651  1.3937 -1.1535  1.3735
   51CHL1    O3 3703   2.001   1.962   2.472  0.7652  0.1137 -0.4714
   51CHL1   H3' 3704   2.067   1.893   2.481  1.1664  0.6937  1.7169
   51CHL1    C4 3705   2.002   1.836   2.672 -0.0650 -0.1446 -0.2252
   51CHL1   H4A 3706   1.981   1.749   2.606  0.6790  0.3452 -1.1452
   51CHL1   H4B 3707   2.112   1.853   2.671 -0.1812  0.8214  1.1441
   51CHL1    C5 3708   1.939   1.820   2.812 -0.1927 -0.3729 -0.3756
   51CHL1    C6 3709   2.019   1.835   2.922  0.0191 -0.6793 -0.2975
   51CHL1    H6 3710   2.126   1.863   2.925  0.1059 -0.9681  2.5475
   51CHL1    C7 3711   1.967   1.805   3.062 -0.0781 -0.3683 -0.2176
   51CHL1   H7A 3712   2.034   1.725   3.100  0.1302  0.1294  0.4881
   51CHL1   H7B 3713   1.985   1.887   3.135 -2.0557  1.8207 -2.0532
   51CHL1    C8 3714   1.825   1.738   3.068 -0.1358 -0.8288  0.8225
   51CHL1    H8 3715   1.840   1.631   3.041  1.4583 -0.4023 -0.1132
   51CHL1   C14 3716   1.759   1.746   3.208 -0.0251 -0.1075 -0.1346
   51CHL1   H14 3717   1.741   1.855   3.220  3.7287  0.6109  0.2136
   51CHL1   C15 3718   1.850   1.714   3.327 -0.2513 -0.1136 -0.6263
   51CHL1  H15A 3719   1.898   1.614   3.318  0.6100  0.1904  0.4962
   51CHL1  H15B 3720   1.934   1.781   3.351  1.5918 -1.9718 -1.5624
   51CHL1   C16 3721   1.752   1.703   3.450  0.4145 -0.5563 -0.2924
   51CHL1  H16A 3722   1.761   1.612   3.513  0.2474  0.0107  0.5575
   51CHL1  H16B 3723   1.772   1.796   3.507 -2.8037 -0.7905  1.4579
   51CHL1   C17 3724   1.609   1.717   3.377  0.8083  0.3772 -0.2971
   51CHL1   H17 3725   1.589   1.826   3.377  0.3570  0.2996  0.6260
   51CHL1   C13 3726   1.624   1.681   3.221  0.1895  0.3856 -0.7913
   51CHL1   C18 3727   1.627   1.523   3.206  0.6294 -0.1176  0.0891
   51CHL1  H18A 3728   1.692   1.480   3.285  1.8077 -4.8469 -3.0612
   51CHL1  H18B 3729   1.522   1.490   3.222  0.9564 -0.3349  2.0454
   51CHL1  H18C 3730   1.668   1.492   3.108  0.2797  1.0604 -0.4512
   51CHL1   C12 3731   1.531   1.745   3.118  0.1570 -0.3760 -0.1430
   51CHL1  H12A 3732   1.438   1.685   3.115  2.0027 -3.4024 -0.6196
   51CHL1  H12B 3733   1.520   1.850   3.152 -0.3936 -0.7368  0.8446
   51CHL1   C11 3734   1.588   1.747   2.977  0.2684  0.3216 -0.0198
   51CHL1  H11A 3735   1.591   1.641   2.944  0.0780  0.4091 -0.3206
   51CHL1  H11B 3736   1.515   1.792   2.907 -0.6157 -0.3063  0.4818
   51CHL1    C9 3737   1.730   1.804   2.964  0.0748 -0.1820 -0.0891
   51CHL1    H9 3738   1.729   1.912   2.987 -0.7796  0.0030 -0.9260
   51CHL1   C10 3739   1.792   1.795   2.817  0.9887 -0.4528  0.7492
   51CHL1   C19 3740   1.760   1.664   2.744 -0.1155 -0.0474 -0.3295
   51CHL1  H19A 3741   1.806   1.574   2.792 -1.1258 -0.2340  0.3274
   51CHL1  H19B 3742   1.653   1.638   2.731  0.3528 -1.6342 -1.3169
   51CHL1  H19C 3743   1.801   1.665   2.641 -0.1186 -0.8079 -0.3459
   51CHL1    C1 3744   1.734   1.919   2.726  0.1410 -0.0926  0.1528
   51CHL1   H1A 3745   1.623   1.907   2.728 -0.0151  1.0676 -0.6912
   51CHL1   H1B 3746   1.741   2.016   2.778  1.8283  0.1391 -0.4399
   51CHL1    C2 3747   1.789   1.926   2.587  0.1399  0.0001  0.2338
   51CHL1   H2A 3748   1.745   2.008   2.528  2.0567  1.0910  0.2287
   51CHL1   H2B 3749   1.778   1.833   2.526  0.1901 -0.4066  0.8297
   51CHL1   C20 3750   1.498   1.652   3.454  0.6690  0.7190  0.0389
   51CHL1   H20 3751   1.509   1.542   3.471 -2.9156  0.2581  0.2312
   51CHL1   C21 3752   1.368   1.681   3.381  0.3266 -0.3229  0.0618
   51CHL1  H21A 3753   1.280   1.648   3.441  0.2638  0.0398  0.1731
   51CHL1  H21B 3754   1.360   1.628   3.283 -2.1199  0.5644 -0.2889
   51CHL1  H21C 3755   1.367   1.791   3.363  2.8001  0.0011  1.5035
   51CHL1   C22 3756   1.483   1.699   3.605  0.0022 -0.4546  0.3590
   51CHL1  H22A 3757   1.580   1.734   3.645 -0.0403  2.5744 -1.7965
   51CHL1  H22B 3758   1.418   1.790   3.612  0.0574 -0.5481  3.3756
   51CHL1   C23 3759   1.414   1.607   3.700 -0.6488 -0.4588 -0.6427
   51CHL1  H23A 3760   1.326   1.566   3.647 -1.1114  0.8836 -0.9421
   51CHL1  H23B 3761   1.483   1.522   3.722 -1.8822 -1.1705  0.6171
   51CHL1   C24 3762   1.377   1.676   3.826  0.8551 -0.4701  0.7639
   51CHL1  H24A 3763   1.460   1.732   3.876 -0.1976  0.1542  1.8777
   51CHL1  H24B 3764   1.315   1.764   3.801  2.4972  1.1222  1.9606
   51CHL1   C25 3765   1.305   1.590   3.930 -0.1157 -0.7327 -0.3397
   51CHL1   H25 3766   1.249   1.515   3.870  2.8839 -1.1271 -2.8973
   51CHL1   C26 3767   1.414   1.513   4.002  0.4245 -0.3731 -0.4301
   51CHL1  H26A 3768   1.487   1.459   3.938 -2.5019 -1.3444 -3.1840
   51CHL1  H26B 3769   1.469   1.580   4.072  0.8854  0.6768 -1.7640
   51CHL1  H26C 3770   1.365   1.430   4.057  1.1209 -0.9151 -0.6033
   51CHL1   C27 3771   1.225   1.675   4.032  0.8345 -0.1244  1.0215
   51CHL1  H27A 3772   1.296   1.743   4.085 -0.7737  0.2552  2.7926
   51CHL1  H27B 3773   1.146   1.736   3.983  0.9516 -0.9637 -0.2747
   51CHL1  H27C 3774   1.180   1.622   4.118 -0.9295 -1.7660 -0.8123
   52CHL1    C3 3775   1.673   5.206   3.029  0.1849  0.4727  0.7300
   52CHL1    H3 3776   1.759   5.275   3.016 -0.8753  1.3697 -2.9336
   52CHL1    O3 3777   1.643   5.165   2.892  0.1766 -0.6054  0.1317
   52CHL1   H3' 3778   1.615   5.246   2.850  0.4175 -0.4560  0.2589
   52CHL1    C4 3779   1.712   5.083   3.112 -0.7394  0.0918  0.0600
   52CHL1   H4A 3780   1.638   5.001   3.099 -1.1243  0.1551  1.6150
   52CHL1   H4B 3781   1.804   5.044   3.063 -1.6120  0.7087 -2.1643
   52CHL1    C5 3782   1.729   5.104   3.262  0.6025  0.4768 -1.0976
   52CHL1    C6 3783   1.837   5.067   3.330 -0.7025  0.3271  0.5680
   52CHL1    H6 3784   1.919   5.023   3.272 -0.2701 -1.0774  2.1597
   52CHL1    C7 3785   1.859   5.077   3.478 -0.4325 -0.3678 -0.1871
   52CHL1   H7A 3786   1.894   4.976   3.509  1.0877  0.0969 -0.3019
   52CHL1   H7B 3787   1.942   5.148   3.500 -0.6189 -0.2160  0.0216
   52CHL1    C8 3788   1.728   5.120   3.552  0.1066  0.1176 -0.2842
   52CHL1    H8 3789   1.659   5.033   3.545 -0.4652  0.6090 -0.9511
   52CHL1   C14 3790   1.749   5.163   3.697  0.1772 -0.2389  0.2351
   52CHL1   H14 3791   1.826   5.242   3.684 -0.3080  0.7608  2.7479
   52CHL1   C15 3792   1.822   5.062   3.785  0.0438  0.3616 -0.5198
   52CHL1  H15A 3793   1.787   4.959   3.765 -0.1155  0.0468  1.2184
   52CHL1  H15B 3794   1.932   5.077   3.778 -0.0736  1.3272 -0.4187
   52CHL1   C16 3795   1.777   5.113   3.929 -0.0749  0.3059  0.0300
   52CHL1  H16A 3796   1.723   5.030   3.981  1.8834 -0.8330  0.3385
   52CHL1  H16B 3797   1.859   5.139   3.999 -0.5262  1.6843  0.0717
   52CHL1   C17 3798   1.684   5.241   3.904 -0.6317  0.7931 -0.7846
   52CHL1   H17 3799   1.769   5.313   3.902 -1.6234  2.0385 -0.0979
   52CHL1   C13 3800   1.629   5.210   3.768  0.1815 -0.4565 -0.3350
   52CHL1   C18 3801   1.524   5.100   3.781 -0.0616 -0.2491  0.7204
   52CHL1  H18A 3802   1.422   5.141   3.765 -0.4486 -1.9873 -1.7043
   52CHL1  H18B 3803   1.539   5.024   3.702  1.3917  1.3173 -0.5846
   52CHL1  H18C 3804   1.511   5.049   3.879 -0.5780 -0.9249  0.3087
   52CHL1   C12 3805   1.580   5.334   3.697 -0.0059 -0.5096  0.2191
   52CHL1  H12A 3806   1.502   5.387   3.756  1.6578 -1.1637  3.2018
   52CHL1  H12B 3807   1.664   5.407   3.703  1.3724 -2.1537  2.2039
   52CHL1   C11 3808   1.539   5.293   3.556  0.1514 -0.2025  0.5070
   52CHL1  H11A 3809   1.458   5.217   3.554  0.8787 -0.9908  0.5980
   52CHL1  H11B 3810   1.502   5.380   3.498 -0.0349  0.3759  1.4718
   52CHL1    C9 3811   1.656   5.224   3.467  1.1929 -0.8520 -0.1291
   52CHL1    H9 3812   1.728   5.306   3.449 -2.2794  1.9750 -2.4878
   52CHL1   C10 3813   1.618   5.184   3.325 -0.1405 -0.0805 -0.3510
   52CHL1   C19 3814   1.501   5.085   3.330 -0.8473  0.2433 -0.3275
   52CHL1  H19A 3815   1.407   5.137   3.358 -0.6156  1.9207 -2.3506
   52CHL1  H19B 3816   1.483   5.039   3.230  0.1759 -2.6243  0.6874
   52CHL1  H19C 3817   1.526   4.995   3.391 -0.3022  1.6679  1.6264
   52CHL1    C1 3818   1.570   5.303   3.240 -0.4430 -0.4806  0.0138
   52CHL1   H1A 3819   1.485   5.350   3.294  1.4477  0.8968  1.9562
   52CHL1   H1B 3820   1.645   5.384   3.246 -1.3561  0.3075  1.2154
   52CHL1    C2 3821   1.548   5.272   3.086  0.0582  0.0351 -0.9204
   52CHL1   H2A 3822   1.544   5.373   3.040 -2.9706  0.7254  0.5679
   52CHL1   H2B 3823   1.460   5.208   3.065 -0.7987  1.0198 -0.4287
   52CHL1   C20 3824   1.594   5.284   4.013  0.4791 -0.3295  0.1446
   52CHL1   H20 3825   1.491   5.255   3.985  0.3963 -0.5562  0.6700
   52CHL1   C21 3826   1.606   5.437   4.036 -0.5992 -0.7853 -0.3252
   52CHL1  H21A 3827   1.701   5.459   4.090 -0.7959  1.7810 -0.8930
   52CHL1  H21B 3828   1.523   5.477   4.098 -1.4772  0.5012 -2.2312
   52CHL1  H21C 3829   1.588   5.494   3.942 -1.0494 -1.3193 -0.5671
   52CHL1   C22 3830   1.615   5.214   4.155 -0.7464  0.4950 -0.6658
   52CHL1  H22A 3831   1.596   5.105   4.145  1.5593  0.1142 -1.7017
   52CHL1  H22B 3832   1.725   5.227   4.169  0.2906 -5.6239 -0.5934
   52CHL1   C23 3833   1.534   5.275   4.275 -0.1333 -0.3161  0.6921
   52CHL1  H23A 3834   1.548   5.382   4.303 -1.5640 -0.6660  2.9801
   52CHL1  H23B 3835   1.426   5.267   4.250  0.2829  0.1418 -1.4541
   52CHL1   C24 3836   1.560   5.200   4.407 -0.9828 -0.5804 -0.4646
   52CHL1  H24A 3837   1.520   5.097   4.415 -0.0424 -0.9155  0.0638
   52CHL1  H24B 3838   1.669   5.186   4.423 -1.2759 -1.9365  0.6178
   52CHL1   C25 3839   1.502   5.271   4.527 -0.1120  0.2611  0.1138
   52CHL1   H25 3840   1.529   5.379   4.525 -3.0126  1.0824  0.8013
   52CHL1   C26 3841   1.343   5.281   4.526  0.3312 -0.1636 -0.0350
   52CHL1  H26A 3842   1.322   5.339   4.618  4.4658  0.1244  0.9562
   52CHL1  H26B 3843   1.315   5.343   4.439 -1.5761 -0.3861  0.3726
   52CHL1  H26C 3844   1.285   5.187   4.522  0.6172 -0.3373 -0.1732
   52CHL1   C27 3845   1.556   5.210   4.655 -0.1147 -0.1892  0.2135
   52CHL1  H27A 3846   1.503   5.115   4.677  1.3808 -1.4926 -1.5152
   52CHL1  H27B 3847   1.661   5.177   4.640  0.5160  2.2916 -1.4339
   52CHL1  H27C 3848   1.561   5.289   4.733  1.1468  0.6145 -0.6481
   53CHL1    C3 3849   4.920   6.237   3.028  0.0373  0.0951 -0.2647
   53CHL1    H3 3850   5.026   6.270   3.030 -0.5380  2.0439  0.3608
   53CHL1    O3 3851   4.879   6.227   2.897  0.6043  0.0459  0.1477
   53CHL1   H3' 3852   4.788   6.198   2.905  0.6400 -0.9621 -2.2307
   53CHL1    C4 3853   4.910   6.094   3.089  0.4746 -0.7262  0.6178
   53CHL1   H4A 3854   4.809   6.051   3.071  0.4129 -2.1151  3.7132
   53CHL1   H4B 3855   4.982   6.038   3.026  1.2184  1.5192 -0.6255
   53CHL1    C5 3856   4.934   6.080   3.239  0.1835 -1.2968  0.1315
   53CHL1    C6 3857   5.030   6.000   3.292 -0.4265  0.9971  0.4135
   53CHL1    H6 3858   5.093   5.939   3.225  0.1074 -0.8545  2.4960
   53CHL1    C7 3859   5.038   5.985   3.441  0.0972 -0.0468 -1.1897
   53CHL1   H7A 3860   5.030   5.877   3.465 -0.0375  0.4676  1.3027
   53CHL1   H7B 3861   5.132   6.033   3.478 -0.8827  1.4360 -0.5167
   53CHL1    C8 3862   4.916   6.048   3.519 -0.0173  0.7709  0.3882
   53CHL1    H8 3863   4.833   5.979   3.493 -1.3638  1.1555  3.3338
   53CHL1   C14 3864   4.930   6.046   3.674 -0.0434  0.5302 -0.4236
   53CHL1   H14 3865   5.013   6.116   3.697  0.8598 -0.6599  0.0162
   53CHL1   C15 3866   4.971   5.922   3.747  0.4518  0.9349 -0.2508
   53CHL1  H15A 3867   4.922   5.835   3.697 -1.0573  2.3963 -1.4070
   53CHL1  H15B 3868   5.080   5.909   3.757  0.8431  3.4392 -0.7100
   53CHL1   C16 3869   4.912   5.942   3.892  0.3076 -0.2875  0.1439
   53CHL1  H16A 3870   4.831   5.868   3.907 -1.2887  1.7732  2.3687
   53CHL1  H16B 3871   4.985   5.933   3.975 -0.1757 -1.0692  0.4929
   53CHL1   C17 3872   4.840   6.083   3.889  0.0810 -0.6323  0.4356
   53CHL1   H17 3873   4.924   6.155   3.902  1.3762 -2.0192  0.0640
   53CHL1   C13 3874   4.805   6.113   3.742 -0.2085 -0.1672 -0.7809
   53CHL1   C18 3875   4.678   6.031   3.704 -0.6086 -0.4618 -0.4293
   53CHL1  H18A 3876   4.591   6.066   3.764  1.0093  1.1756  1.0582
   53CHL1  H18B 3877   4.652   6.043   3.597  0.9688  1.1157 -0.6760
   53CHL1  H18C 3878   4.683   5.924   3.733 -0.9298 -0.8084 -1.6033
   53CHL1   C12 3879   4.792   6.263   3.702 -0.2963  0.2953  0.0127
   53CHL1  H12A 3880   4.696   6.289   3.752 -1.0717 -1.0500 -0.7196
   53CHL1  H12B 3881   4.872   6.325   3.746  0.7327 -0.5853 -0.5705
   53CHL1   C11 3882   4.799   6.283   3.550  0.5605 -0.6084  0.3901
   53CHL1  H11A 3883   4.692   6.271   3.525  0.4115  0.5565  0.3942
   53CHL1  H11B 3884   4.828   6.390   3.541  0.9772 -0.6709  0.8936
   53CHL1    C9 3885   4.886   6.188   3.469  0.0174 -0.0524 -0.3712
   53CHL1    H9 3886   4.981   6.246   3.473 -1.2082  2.0099  0.7287
   53CHL1   C10 3887   4.848   6.184   3.322  0.1763 -0.1406  0.2812
   53CHL1   C19 3888   4.702   6.143   3.308 -0.6112 -0.3726  0.5362
   53CHL1  H19A 3889   4.660   6.126   3.206 -2.3487 -0.5021  1.2482
   53CHL1  H19B 3890   4.689   6.052   3.370  0.3637 -1.4051 -0.7025
   53CHL1  H19C 3891   4.639   6.228   3.338 -0.6462  0.0862 -0.7580
   53CHL1    C1 3892   4.867   6.329   3.260  0.1951  0.0201 -0.1406
   53CHL1   H1A 3893   4.810   6.404   3.319  0.3678  0.5345 -0.6210
   53CHL1   H1B 3894   4.971   6.358   3.285  0.1079  0.2564 -0.0490
   53CHL1    C2 3895   4.835   6.337   3.107 -0.1108  0.6013  0.3248
   53CHL1   H2A 3896   4.858   6.434   3.058 -1.9110  2.3903  2.7940
   53CHL1   H2B 3897   4.726   6.316   3.099 -0.3937  1.3363  1.9610
   53CHL1   C20 3898   4.729   6.087   3.999  0.5783 -0.1288  0.0134
   53CHL1   H20 3899   4.650   6.011   3.976 -0.6843  1.5092 -1.2933
   53CHL1   C21 3900   4.666   6.234   3.998 -0.2680  0.2053  0.1449
   53CHL1  H21A 3901   4.602   6.252   4.087 -0.3749 -0.6135  0.2448
   53CHL1  H21B 3902   4.598   6.233   3.910  1.2047  0.7205 -1.0468
   53CHL1  H21C 3903   4.754   6.299   3.979  0.4405 -1.3733 -2.6260
   53CHL1   C22 3904   4.783   6.059   4.143  0.1043  0.0330  0.1775
   53CHL1  H22A 3905   4.698   6.037   4.212  2.1784 -0.8433  2.6426
   53CHL1  H22B 3906   4.843   5.965   4.140  0.6100  0.3655 -0.1611
   53CHL1   C23 3907   4.875   6.169   4.204 -0.0372  0.7402 -0.1598
   53CHL1  H23A 3908   4.942   6.210   4.126 -0.2153  0.6397 -0.3680
   53CHL1  H23B 3909   4.823   6.262   4.235  1.7089  1.3873  0.9324
   53CHL1   C24 3910   4.958   6.109   4.323  0.5941  0.0602  0.4595
   53CHL1  H24A 3911   4.882   6.085   4.400  0.6153 -0.4631  0.3169
   53CHL1  H24B 3912   5.006   6.021   4.276  0.9618  0.7355 -0.4645
   53CHL1   C25 3913   5.057   6.204   4.393  0.4390  0.0692 -0.6863
   53CHL1   H25 3914   4.995   6.291   4.423  2.0866  0.7423  0.9807
   53CHL1   C26 3915   5.114   6.151   4.527  0.9501 -0.7431  0.4686
   53CHL1  H26A 3916   5.187   6.224   4.568 -2.3282  2.5529  0.9306
   53CHL1  H26B 3917   5.029   6.139   4.598 -0.8900 -0.8283 -1.6284
   53CHL1  H26C 3918   5.168   6.056   4.507  3.2347  0.5994 -0.0724
   53CHL1   C27 3919   5.172   6.247   4.300 -0.4135  0.1465  0.0617
   53CHL1  H27A 3920   5.249   6.309   4.350 -1.9456  2.2876 -0.0755
   53CHL1  H27B 3921   5.233   6.160   4.271  1.3459  0.7223  1.7651
   53CHL1  H27C 3922   5.140   6.308   4.213 -0.4142 -0.3940 -0.3161
   54CHL1    C3 3923   2.185   2.549   3.183 -0.6580 -0.6514  0.3788
   54CHL1    H3 3924   2.089   2.602   3.166  0.1492  1.0293  0.8219
   54CHL1    O3 3925   2.236   2.544   3.052  0.2597  0.3389  0.2206
   54CHL1   H3' 3926   2.330   2.540   3.072  0.4220  1.4466 -0.2517
   54CHL1    C4 3927   2.274   2.621   3.287 -0.4374 -0.4831 -0.6458
   54CHL1   H4A 3928   2.375   2.575   3.279  0.6206  1.4433  0.8451
   54CHL1   H4B 3929   2.281   2.730   3.265  0.3898 -0.0406  1.5807
   54CHL1    C5 3930   2.224   2.597   3.434 -0.3733  0.0185  0.0941
   54CHL1    C6 3931   2.217   2.708   3.519  0.4149 -0.5017 -0.9798
   54CHL1    H6 3932   2.248   2.807   3.483 -0.3090  0.0939 -0.0275
   54CHL1    C7 3933   2.173   2.710   3.662 -0.0231 -0.1980 -1.0981
   54CHL1   H7A 3934   2.235   2.766   3.735  0.2983 -2.1497  0.1993
   54CHL1   H7B 3935   2.074   2.757   3.679  0.0672 -0.1333 -0.7340
   54CHL1    C8 3936   2.169   2.563   3.714  0.4185  0.3308  0.3265
   54CHL1    H8 3937   2.275   2.536   3.732 -0.1190 -0.4044  2.6968
   54CHL1   C14 3938   2.099   2.559   3.852 -0.1354 -0.0565  0.0909
   54CHL1   H14 3939   1.992   2.572   3.825 -0.3640  1.4559  1.5359
   54CHL1   C15 3940   2.134   2.668   3.960 -0.2304 -0.7618 -0.2088
   54CHL1  H15A 3941   2.244   2.675   3.975 -0.2474  0.1055 -0.4629
   54CHL1  H15B 3942   2.088   2.767   3.943 -2.3110 -1.6004  0.1754
   54CHL1   C16 3943   2.078   2.598   4.095  0.9532 -0.5726  0.0577
   54CHL1  H16A 3944   2.156   2.595   4.174 -0.3983 -0.1644  1.4585
   54CHL1  H16B 3945   1.996   2.657   4.141  2.3632  2.0838 -0.6302
   54CHL1   C17 3946   2.035   2.452   4.058 -0.2361 -0.4293 -0.6167
   54CHL1   H17 3947   1.929   2.461   4.026 -0.4181 -0.2874  0.0125
   54CHL1   C13 3948   2.099   2.422   3.921 -0.1070 -0.2978  0.2490
   54CHL1   C18 3949   2.240   2.368   3.953  0.2361  0.0690  0.1875
   54CHL1  H18A 3950   2.305   2.343   3.867  0.7017 -1.4533  0.9519
   54CHL1  H18B 3951   2.281   2.439   4.028 -1.4330  1.3122 -0.0080
   54CHL1  H18C 3952   2.230   2.266   3.996 -2.1984 -0.5927 -1.7330
   54CHL1   C12 3953   2.022   2.326   3.819  0.4058  0.0069 -0.5997
   54CHL1  H12A 3954   2.010   2.219   3.849  0.2793  0.3419  0.5791
   54CHL1  H12B 3955   1.919   2.367   3.821 -0.1726 -1.4021  0.4786
   54CHL1   C11 3956   2.082   2.325   3.679  0.7204  0.0196 -0.6196
   54CHL1  H11A 3957   2.172   2.262   3.690 -0.7476 -2.1477 -0.2843
   54CHL1  H11B 3958   2.024   2.264   3.606 -1.6989  0.2022  1.0450
   54CHL1    C9 3959   2.103   2.464   3.618 -0.3922  0.1717  0.0282
   54CHL1    H9 3960   2.000   2.503   3.598  0.5408  3.2060  0.6115
   54CHL1   C10 3961   2.178   2.456   3.481  0.0672  0.9004  0.0497
   54CHL1   C19 3962   2.306   2.369   3.500  0.2026 -0.5464 -0.0638
   54CHL1  H19A 3963   2.280   2.263   3.522  1.0079 -1.0263 -1.3157
   54CHL1  H19B 3964   2.364   2.379   3.406 -1.4892  1.2798 -0.9791
   54CHL1  H19C 3965   2.359   2.399   3.593 -1.3472 -0.8040  0.9441
   54CHL1    C1 3966   2.089   2.399   3.367 -0.6599 -0.3602  0.4131
   54CHL1   H1A 3967   2.056   2.295   3.389 -0.3139 -0.0873  2.4536
   54CHL1   H1B 3968   1.997   2.461   3.358 -1.6749 -1.9196 -0.3097
   54CHL1    C2 3969   2.153   2.403   3.229 -0.2109  1.2083  0.3521
   54CHL1   H2A 3970   2.096   2.360   3.144 -0.0339 -1.2064  1.3945
   54CHL1   H2B 3971   2.244   2.342   3.241 -0.9848 -0.4766 -1.6593
   54CHL1   C20 3972   2.030   2.346   4.170  0.3510  0.3999 -0.8334
   54CHL1   H20 3973   2.131   2.305   4.194 -0.9270 -1.2504  2.4008
   54CHL1   C21 3974   1.938   2.230   4.125 -0.1614  0.1718  0.0070
   54CHL1  H21A 3975   1.835   2.256   4.094 -0.3367  0.8799  1.1132
   54CHL1  H21B 3976   1.923   2.157   4.207  1.6941 -0.8190 -0.4885
   54CHL1  H21C 3977   1.985   2.175   4.041 -0.0413  2.8182 -1.7902
   54CHL1   C22 3978   1.985   2.409   4.308  0.2801  0.5266 -0.8445
   54CHL1  H22A 3979   2.072   2.470   4.340  1.5010 -1.5988  0.0828
   54CHL1  H22B 3980   1.890   2.468   4.300 -0.8293 -0.8351  1.3425
   54CHL1   C23 3981   1.960   2.315   4.431  0.0560  0.1200  0.1346
   54CHL1  H23A 3982   1.936   2.378   4.519 -0.0417  0.8775 -0.4284
   54CHL1  H23B 3983   1.883   2.235   4.417  0.1874 -0.1819  1.0466
   54CHL1   C24 3984   2.094   2.238   4.464  0.5882  0.7662  0.4013
   54CHL1  H24A 3985   2.119   2.161   4.388  1.7102  1.6330 -0.1391
   54CHL1  H24B 3986   2.177   2.312   4.451  1.8379 -0.7655 -0.7381
   54CHL1   C25 3987   2.109   2.171   4.601  0.4575  0.6076  0.8112
   54CHL1   H25 3988   2.106   2.251   4.679  0.9310  2.0993 -0.6463
   54CHL1   C26 3989   1.987   2.087   4.636 -0.0126  0.0528  0.5273
   54CHL1  H26A 3990   2.002   2.056   4.742  1.0433 -1.5726 -0.0397
   54CHL1  H26B 3991   1.891   2.141   4.625  1.4813  2.4286 -2.1355
   54CHL1  H26C 3992   1.989   1.991   4.580  0.6196 -0.3732  1.2536
   54CHL1   C27 3993   2.233   2.094   4.620 -1.2725  0.8694 -0.2044
   54CHL1  H27A 3994   2.246   2.009   4.550  1.2180  0.2976  0.8207
   54CHL1  H27B 3995   2.321   2.161   4.607 -1.0037  0.5538 -0.0234
   54CHL1  H27C 3996   2.244   2.062   4.725  0.7707 -1.4339 -1.0053
   55CHL1    C3 3997   5.063   1.566   2.942  0.1909  0.3818  0.0630
   55CHL1    H3 3998   5.078   1.673   2.966 -1.2371  0.7933 -0.7801
   55CHL1    O3 3999   5.041   1.572   2.800 -0.1223  0.1002 -0.2687
   55CHL1   H3' 4000   5.008   1.487   2.768  0.2691  0.3549 -1.3757
   55CHL1    C4 4001   5.181   1.480   2.976  0.0928 -0.2404  0.3873
   55CHL1   H4A 4002   5.168   1.376   2.940  0.7366  0.4637 -2.0703
   55CHL1   H4B 4003   5.271   1.521   2.925 -0.1339 -0.6495 -0.3474
   55CHL1    C5 4004   5.191   1.493   3.130 -0.2275  0.3303 -0.0581
   55CHL1    C6 4005   5.307   1.542   3.179  0.1523 -0.3075 -1.2578
   55CHL1    H6 4006   5.385   1.585   3.114 -0.4630 -0.1497 -1.9014
   55CHL1    C7 4007   5.341   1.544   3.324  0.7881 -0.3509  0.0762
   55CHL1   H7A 4008   5.439   1.499   3.350  1.8193  1.5780 -0.3204
   55CHL1   H7B 4009   5.340   1.652   3.351 -2.1307 -0.1453 -0.5369
   55CHL1    C8 4010   5.236   1.479   3.416 -0.1694  0.0620 -0.4901
   55CHL1    H8 4011   5.259   1.370   3.413 -0.5449 -0.3460  3.8998
   55CHL1   C14 4012   5.245   1.533   3.555  0.0700  0.3819 -0.1818
   55CHL1   H14 4013   5.210   1.638   3.562  0.3301  0.5363 -1.0361
   55CHL1   C15 4014   5.383   1.551   3.619  0.2360  0.2377 -0.2646
   55CHL1  H15A 4015   5.439   1.461   3.584  1.4118 -0.6537  3.4305
   55CHL1  H15B 4016   5.443   1.638   3.584  2.5508 -1.3649 -0.5685
   55CHL1   C16 4017   5.359   1.551   3.769  0.4663  0.0469 -0.0135
   55CHL1  H16A 4018   5.418   1.471   3.818  0.9749 -0.3872 -1.2752
   55CHL1  H16B 4019   5.385   1.654   3.802  1.3532 -0.6644  1.5961
   55CHL1   C17 4020   5.205   1.523   3.790 -0.1174 -0.6026  0.4747
   55CHL1   H17 4021   5.156   1.623   3.798 -0.9292 -0.7456 -1.8636
   55CHL1   C13 4022   5.163   1.455   3.658  0.3471  0.2086 -0.0576
   55CHL1   C18 4023   5.216   1.314   3.663  0.1246 -0.0178  0.2824
   55CHL1  H18A 4024   5.154   1.253   3.732  0.6096  0.1456  0.8754
   55CHL1  H18B 4025   5.201   1.260   3.567 -0.4415 -1.0218  0.9165
   55CHL1  H18C 4026   5.320   1.321   3.702 -0.4120 -1.4904  2.1514
   55CHL1   C12 4027   5.024   1.483   3.614 -0.1043  0.2589 -0.2197
   55CHL1  H12A 4028   4.942   1.444   3.679 -0.9761  0.3874 -1.2156
   55CHL1  H12B 4029   5.004   1.592   3.618 -0.3761  0.1868  0.7528
   55CHL1   C11 4030   4.985   1.450   3.468 -0.3545  1.1749 -0.4074
   55CHL1  H11A 4031   4.989   1.339   3.475 -2.0771  1.0859 -0.5620
   55CHL1  H11B 4032   4.885   1.479   3.430 -0.0925 -1.6092 -3.6920
   55CHL1    C9 4033   5.091   1.501   3.365 -0.1624  0.2697  0.4649
   55CHL1    H9 4034   5.071   1.610   3.360 -0.9299  0.3383  3.3930
   55CHL1   C10 4035   5.069   1.449   3.215  0.2830 -0.2457  0.4240
   55CHL1   C19 4036   5.062   1.298   3.217  0.4397  0.1010 -0.0005
   55CHL1  H19A 4037   5.139   1.258   3.287  1.6167  2.3479  0.0697
   55CHL1  H19B 4038   4.958   1.270   3.242  0.6073 -0.7613 -0.2302
   55CHL1  H19C 4039   5.078   1.254   3.116  0.5941 -3.7135  1.4997
   55CHL1    C1 4040   4.935   1.511   3.154 -0.6729  0.0265  0.5108
   55CHL1   H1A 4041   4.843   1.466   3.197 -0.8875 -0.2405 -0.2123
   55CHL1   H1B 4042   4.925   1.616   3.188  0.0261  0.1593  0.3232
   55CHL1    C2 4043   4.933   1.509   3.001  0.5335 -0.7355 -0.3810
   55CHL1   H2A 4044   4.843   1.565   2.969  1.6242  1.6532  0.5265
   55CHL1   H2B 4045   4.925   1.403   2.968  0.3479 -2.4239  4.3949
   55CHL1   C20 4046   5.181   1.451   3.918 -0.2538 -0.2109 -0.8107
   55CHL1   H20 4047   5.220   1.347   3.922 -3.5859 -1.5870  1.6775
   55CHL1   C21 4048   5.027   1.444   3.938  0.0933  0.2971 -0.5584
   55CHL1  H21A 4049   5.008   1.405   4.041 -0.3109  1.5246 -0.1511
   55CHL1  H21B 4050   4.978   1.363   3.879  0.3755 -0.1204 -0.2300
   55CHL1  H21C 4051   4.979   1.544   3.935 -0.3914  0.1308  0.8354
   55CHL1   C22 4052   5.251   1.534   4.027 -0.3113  0.2625  0.2032
   55CHL1  H22A 4053   5.360   1.512   4.024 -0.1424  0.1224  3.4725
   55CHL1  H22B 4054   5.239   1.642   4.003  0.7625  0.0639 -1.3587
   55CHL1   C23 4055   5.204   1.500   4.164 -0.0426  0.5671 -0.8584
   55CHL1  H23A 4056   5.103   1.541   4.186  0.5125  2.0800 -0.9969
   55CHL1  H23B 4057   5.194   1.390   4.171  1.5804  0.5129  1.8802
   55CHL1   C24 4058   5.295   1.538   4.277  0.1608  0.0698 -0.1736
   55CHL1  H24A 4059   5.395   1.510   4.237 -0.7976 -1.3463 -1.7366
   55CHL1  H24B 4060   5.293   1.648   4.291 -0.5442 -0.0826  1.0741
   55CHL1   C25 4061   5.266   1.474   4.415  0.3735  0.2687 -0.6493
   55CHL1   H25 4062   5.159   1.497   4.436  0.4050 -0.6971  0.7054
   55CHL1   C26 4063   5.273   1.316   4.407  0.2882 -0.8153 -0.8531
   55CHL1  H26A 4064   5.258   1.275   4.509 -0.3569  1.9135  0.2427
   55CHL1  H26B 4065   5.194   1.281   4.337  1.9300 -0.1702 -3.1526
   55CHL1  H26C 4066   5.373   1.288   4.368  1.4969  0.8884  0.8196
   55CHL1   C27 4067   5.340   1.538   4.533  0.3023  0.7739 -0.4582
   55CHL1  H27A 4068   5.448   1.513   4.532 -0.1246 -1.5779  1.1225
   55CHL1  H27B 4069   5.334   1.649   4.530 -1.6696  0.7739  0.8974
   55CHL1  H27C 4070   5.306   1.494   4.630 -1.1214  2.0765 -0.3295
   56CHL1    C3 4071   6.118   2.509   2.739 -0.6267 -0.0064  0.7616
   56CHL1    H3 4072   6.007   2.507   2.747 -0.7877 -1.2286 -1.2286
   56CHL1    O3 4073   6.145   2.508   2.598 -0.0881 -0.1601  0.5500
   56CHL1   H3' 4074   6.235   2.475   2.589  0.1436  0.8818 -1.4539
   56CHL1    C4 4075   6.167   2.645   2.789 -0.0900  0.5256 -0.6978
   56CHL1   H4A 4076   6.273   2.648   2.757  0.1069  1.9681  0.0263
   56CHL1   H4B 4077   6.116   2.727   2.734 -0.7812 -0.1509 -1.0834
   56CHL1    C5 4078   6.153   2.653   2.940 -0.0966  0.0336 -0.3940
   56CHL1    C6 4079   6.099   2.764   2.999 -0.3522 -0.0197  0.2019
   56CHL1    H6 4080   6.041   2.843   2.949 -0.6605  0.2079  0.9168
   56CHL1    C7 4081   6.086   2.780   3.146 -0.6095 -0.0255  0.4334
   56CHL1   H7A 4082   6.094   2.886   3.178  0.7903  0.6196 -1.8092
   56CHL1   H7B 4083   5.982   2.753   3.174 -0.1193 -0.9008  1.4835
   56CHL1    C8 4084   6.180   2.690   3.225 -0.2669  0.0503 -0.5119
   56CHL1    H8 4085   6.286   2.716   3.203 -0.3171  0.0054 -0.8071
   56CHL1   C14 4086   6.160   2.704   3.376  0.6018  0.1382 -0.7659
   56CHL1   H14 4087   6.052   2.688   3.395  0.9291 -0.1436  0.9648
   56CHL1   C15 4088   6.184   2.848   3.443  0.3793 -0.2114  1.0056
   56CHL1  H15A 4089   6.275   2.900   3.406 -0.8444  2.0875  1.0723
   56CHL1  H15B 4090   6.099   2.918   3.433 -0.0927 -1.0968 -2.4280
   56CHL1   C16 4091   6.206   2.807   3.594 -0.9751  0.1405 -0.3240
   56CHL1  H16A 4092   6.307   2.841   3.626 -0.2802 -1.5742 -0.6031
   56CHL1  H16B 4093   6.121   2.863   3.639 -1.6044  1.4130 -2.8639
   56CHL1   C17 4094   6.205   2.655   3.606 -0.1862 -0.2737  0.3949
   56CHL1   H17 4095   6.100   2.620   3.619  0.0374 -1.2133 -0.2546
   56CHL1   C13 4096   6.241   2.608   3.460 -0.6275 -0.1084 -0.3319
   56CHL1   C18 4097   6.393   2.626   3.442 -0.1263  0.6227  0.2619
   56CHL1  H18A 4098   6.420   2.593   3.339  0.2894  1.1119  0.2119
   56CHL1  H18B 4099   6.431   2.730   3.445 -1.0608  0.9508  1.2876
   56CHL1  H18C 4100   6.447   2.560   3.513 -0.1576 -0.5913 -0.8161
   56CHL1   C12 4101   6.196   2.463   3.425  0.5773  0.2357  0.4706
   56CHL1  H12A 4102   6.248   2.384   3.483 -1.3372 -0.8740  0.7377
   56CHL1  H12B 4103   6.088   2.451   3.447  0.5678 -0.1639  0.2132
   56CHL1   C11 4104   6.220   2.435   3.269  0.7443 -0.4530 -0.1627
   56CHL1  H11A 4105   6.329   2.430   3.249  0.5795 -2.1876 -0.7283
   56CHL1  H11B 4106   6.170   2.338   3.248 -4.2874  2.1274 -1.6190
   56CHL1    C9 4107   6.153   2.547   3.174 -0.7751  0.6036 -0.6658
   56CHL1    H9 4108   6.043   2.535   3.181 -0.5708 -0.1145  2.5095
   56CHL1   C10 4109   6.205   2.539   3.028 -0.1081 -1.3081  0.2146
   56CHL1   C19 4110   6.363   2.543   3.007  0.4103 -0.1766  0.3054
   56CHL1  H19A 4111   6.394   2.535   2.901  0.3822 -0.1547  0.2955
   56CHL1  H19B 4112   6.398   2.639   3.049 -0.0353 -0.6128  1.7607
   56CHL1  H19C 4113   6.398   2.452   3.061 -0.5671 -1.1125 -0.5881
   56CHL1    C1 4114   6.155   2.404   2.961 -0.1187  0.4337  0.1613
   56CHL1   H1A 4115   6.213   2.325   3.014 -1.9537 -0.9136  0.2320
   56CHL1   H1B 4116   6.045   2.394   2.967 -0.1237 -0.5412 -1.1630
   56CHL1    C2 4117   6.188   2.397   2.807  0.1300 -0.4867  0.4569
   56CHL1   H2A 4118   6.147   2.301   2.770 -1.2263  0.4053 -0.4576
   56CHL1   H2B 4119   6.297   2.396   2.783  0.2768  0.9729  0.9165
   56CHL1   C20 4120   6.292   2.605   3.723 -0.3939  0.1228  0.3502
   56CHL1   H20 4121   6.401   2.607   3.703 -0.1670  1.3854  1.4974
   56CHL1   C21 4122   6.252   2.459   3.739 -0.4545 -0.9050  0.0022
   56CHL1  H21A 4123   6.313   2.413   3.658  2.9875  0.0971  1.8650
   56CHL1  H21B 4124   6.146   2.446   3.708  0.6374 -3.3328 -3.3797
   56CHL1  H21C 4125   6.263   2.412   3.839  3.8372 -0.1253  0.0955
   56CHL1   C22 4126   6.266   2.688   3.848  0.2164  0.2957  0.2292
   56CHL1  H22A 4127   6.293   2.795   3.836  2.3363  0.0143  1.8606
   56CHL1  H22B 4128   6.161   2.679   3.882 -0.3589  1.7395 -1.0045
   56CHL1   C23 4129   6.371   2.651   3.953 -1.0790 -0.6760  0.2304
   56CHL1  H23A 4130   6.362   2.543   3.977  0.5025 -1.1545 -1.1721
   56CHL1  H23B 4131   6.467   2.662   3.899 -1.0550  0.6796  0.5167
   56CHL1   C24 4132   6.362   2.746   4.070  0.1618 -0.3899 -0.1181
   56CHL1  H24A 4133   6.410   2.837   4.029  0.1986 -2.5061 -5.7060
   56CHL1  H24B 4134   6.260   2.771   4.105  0.8116  0.7490  1.0573
   56CHL1   C25 4135   6.453   2.715   4.188 -0.2566 -0.4883  0.6402
   56CHL1   H25 4136   6.414   2.623   4.238 -0.5224 -1.5064 -1.3182
   56CHL1   C26 4137   6.602   2.686   4.148 -0.3694 -0.0846 -0.6678
   56CHL1  H26A 4138   6.652   2.659   4.243 -1.7698  1.7998  0.6925
   56CHL1  H26B 4139   6.617   2.602   4.078  2.2383  0.9606 -1.4913
   56CHL1  H26C 4140   6.636   2.783   4.104 -1.0390  0.8072  0.7014
   56CHL1   C27 4141   6.457   2.833   4.287 -0.2581 -0.0834  0.0167
   56CHL1  H27A 4142   6.533   2.838   4.368  1.7220 -1.1935 -1.6567
   56CHL1  H27B 4143   6.467   2.933   4.240  3.4659 -0.1810  0.2461
   56CHL1  H27C 4144   6.356   2.829   4.332 -1.2313 -2.3526 -2.1026
   57SAPC     N 4145   1.148   6.593   6.528  0.6168  0.6586 -0.8286
   57SAPC   C12 4146   1.156   6.516   6.390  0.2532  0.1861 -0.0184
   57SAPC  H12A 4147   1.071   6.549   6.332 -1.2882 -0.8893  1.5065
   57SAPC  H12B 4148   1.136   6.411   6.406  0.0831  0.2236  0.0190
   57SAPC   C13 4149   1.009   6.598   6.565  0.3291  0.8053 -0.3709
   57SAPC  H13A 4150   0.986   6.627   6.667  0.1527 -1.9907  0.4626
   57SAPC  H13B 4151   0.951   6.670   6.510 -1.6067  0.2120  0.7746
   57SAPC  H13C 4152   0.968   6.498   6.562  3.0508 -0.4611  1.1371
   57SAPC   C14 4153   1.231   6.529   6.638 -0.2667 -0.0764  0.0959
   57SAPC  H14A 4154   1.332   6.527   6.599  0.3928  1.9176  1.5184
   57SAPC  H14B 4155   1.226   6.587   6.729 -1.6452 -1.3740  0.8720
   57SAPC  H14C 4156   1.195   6.432   6.668 -2.0727  0.2163 -0.9940
   57SAPC   C15 4157   1.193   6.729   6.508 -1.0186 -1.0598  0.1921
   57SAPC  H15A 4158   1.128   6.787   6.445 -2.1859  0.6869  2.8497
   57SAPC  H15B 4159   1.198   6.779   6.603  2.9808  0.1100 -0.4349
   57SAPC  H15C 4160   1.295   6.731   6.471  0.0892 -0.6922  3.0255
   57SAPC   C11 4161   1.281   6.532   6.309 -0.0720  0.6646  0.3016
   57SAPC  H11A 4162   1.298   6.637   6.278  0.9419  0.5264  0.3279
   57SAPC  H11B 4163   1.258   6.465   6.223  0.3488 -0.7839  1.2895
   57SAPC     P 4164   1.527   6.539   6.421 -0.0568  0.1321 -0.2452
   57SAPC   O13 4165   1.506   6.684   6.431 -0.5567 -0.2298 -0.2478
   57SAPC   O14 4166   1.567   6.462   6.546  0.1912  0.0547  0.2327
   57SAPC   O12 4167   1.399   6.473   6.362  0.4703  0.4683  0.0914
   57SAPC   O11 4168   1.635   6.498   6.312 -0.2803 -0.5663 -0.1787
   57SAPC    C1 4169   1.612   6.394   6.216  0.4014 -0.3621 -0.9140
   57SAPC    HA 4170   1.657   6.298   6.250 -0.3915 -1.0801 -1.8281
   57SAPC    HB 4171   1.505   6.373   6.193  0.2464  1.2589 -1.8438
   57SAPC    C2 4172   1.673   6.433   6.084 -0.0379 -0.7958  0.3640
   57SAPC    HS 4173   1.670   6.344   6.018 -0.4941 -2.4576  2.4879
   57SAPC   O21 4174   1.812   6.471   6.090 -0.4306 -0.3252 -0.5496
   57SAPC   C21 4175   1.898   6.383   6.128 -0.2188  0.3916  0.3014
   57SAPC   O22 4176   1.874   6.259   6.140 -0.2281 -0.6720  0.2032
   57SAPC   C22 4177   2.043   6.437   6.132  0.2622 -0.4728  0.0440
   57SAPC   H2R 4178   2.046   6.520   6.206 -1.1195  0.0847 -0.4779
   57SAPC   H2S 4179   2.101   6.354   6.175  0.2294  0.0471  1.1164
   57SAPC    C3 4180   1.600   6.556   6.031  0.6204  0.4500 -0.2315
   57SAPC    HX 4181   1.628   6.648   6.087  1.4217  0.8237 -1.2164
   57SAPC    HY 4182   1.492   6.557   6.057  0.9834 -0.7320  1.4542
   57SAPC   O31 4183   1.626   6.566   5.884 -0.2615 -0.2317 -0.5723
   57SAPC   C31 4184   1.700   6.664   5.846  0.7226  0.0942 -0.5525
   57SAPC   O32 4185   1.735   6.757   5.920  0.6421  0.5048 -0.2106
   57SAPC   C32 4186   1.720   6.659   5.695 -0.7567 -0.5118  0.0437
   57SAPC   H2X 4187   1.627   6.631   5.643 -1.7498  1.0895  0.9010
   57SAPC   H2Y 4188   1.801   6.585   5.675 -0.3843 -0.5217  1.4765
   57SAPC   C23 4189   2.099   6.494   6.002  0.0615  0.3019  0.5130
   57SAPC   H3R 4190   2.187   6.559   6.022  0.2419 -0.8436  4.1278
   57SAPC   H3S 4191   2.017   6.543   5.945  0.0867  1.0124  1.0858
   57SAPC   C24 4192   2.142   6.379   5.907 -0.2194 -0.2100 -0.1256
   57SAPC   H4R 4193   2.219   6.318   5.959 -2.3945 -2.9336  0.1246
   57SAPC   H4S 4194   2.193   6.426   5.821  1.7432  0.5799  1.3767
   57SAPC   C25 4195   2.035   6.291   5.856 -0.4431  0.0965  0.1193
   57SAPC   H5R 4196   2.002   6.214   5.928  0.6901 -2.7016 -2.1231
   57SAPC   C26 4197   1.977   6.292   5.736  0.4875  0.2075 -0.2938
   57SAPC   H6R 4198   1.889   6.229   5.715  0.4484 -0.9327  2.7334
   57SAPC   C27 4199   2.019   6.387   5.626 -0.1205  0.1077  0.3206
   57SAPC   H7R 4200   2.129   6.376   5.620 -0.0989 -0.1285  1.0402
   57SAPC   H7S 4201   2.005   6.491   5.661 -0.4604 -0.0505  0.6721
   57SAPC   C28 4202   1.956   6.362   5.488  0.4712 -0.3394  0.1562
   57SAPC   H8R 4203   1.854   6.404   5.475  0.7557  0.2043 -0.4147
   57SAPC   C29 4204   2.008   6.287   5.387  0.0772 -0.5524  0.4055
   57SAPC   H9R 4205   1.956   6.274   5.291  0.1187 -2.4440  0.5961
   57SAPC  C210 4206   2.135   6.213   5.398  0.4646 -0.1378 -0.1027
   57SAPC  H10R 4207   2.108   6.112   5.359 -1.1756 -0.3788  1.5200
   57SAPC  H10S 4208   2.170   6.208   5.503 -0.0803  0.1792  0.0983
   57SAPC  C211 4209   2.245   6.282   5.325 -0.0135 -0.2536 -0.0703
   57SAPC  H11R 4210   2.300   6.358   5.382  2.7075 -1.3635 -1.0185
   57SAPC  C212 4211   2.292   6.252   5.200 -0.3529 -0.5045  0.1825
   57SAPC  H12R 4212   2.372   6.312   5.154  0.4004 -0.7006  1.2017
   57SAPC  C213 4213   2.248   6.144   5.110 -0.7520  0.3378  0.2270
   57SAPC  H13R 4214   2.169   6.082   5.158 -2.5953  1.4624 -1.2071
   57SAPC  H13S 4215   2.338   6.081   5.095 -0.4413  0.6435  0.7707
   57SAPC  C214 4216   2.205   6.189   4.971  0.5417  0.6187  0.1395
   57SAPC  H14R 4217   2.272   6.252   4.911  0.7682 -1.0931 -1.5157
   57SAPC  C215 4218   2.096   6.162   4.895  0.4188  0.5408 -0.7603
   57SAPC  H15R 4219   2.082   6.204   4.795  0.9831 -1.6463 -1.8214
   57SAPC  C216 4220   1.972   6.086   4.953  0.7405 -0.2357  0.2595
   57SAPC  H16R 4221   1.970   6.092   5.064  0.1868  0.4815  0.2216
   57SAPC  H16S 4222   1.971   5.982   4.915 -2.0015 -0.3064  0.3167
   57SAPC  C217 4223   1.844   6.154   4.900  0.3376 -0.5584 -0.2040
   57SAPC  H17R 4224   1.844   6.265   4.911 -1.6466 -0.2904 -2.1158
   57SAPC  H17S 4225   1.757   6.116   4.958  1.2922 -1.9811  0.3578
   57SAPC  C218 4226   1.804   6.119   4.754  0.7336 -0.5062  0.3238
   57SAPC  H18R 4227   1.807   6.010   4.733  2.7521 -0.5930  0.8539
   57SAPC  H18S 4228   1.888   6.162   4.696 -0.0573 -2.5942 -2.6274
   57SAPC  C219 4229   1.659   6.185   4.725 -0.4570  0.6086 -0.3466
   57SAPC  H19R 4230   1.663   6.280   4.783 -0.9531  1.4161 -1.5775
   57SAPC  H19S 4231   1.582   6.123   4.775 -0.0147 -0.3620 -0.8588
   57SAPC  C220 4232   1.623   6.234   4.590 -0.2352  0.7323  0.8548
   57SAPC  H20R 4233   1.540   6.308   4.589 -0.9666 -0.0721  0.4898
   57SAPC  H20S 4234   1.578   6.151   4.531  0.1507  0.2139  1.2821
   57SAPC  H20T 4235   1.709   6.286   4.544  0.5729 -2.3701 -1.5058
   57SAPC   C33 4236   1.765   6.796   5.637  0.0973  0.3630  0.1310
   57SAPC   H3X 4237   1.846   6.832   5.703 -0.9886 -1.3914  2.5942
   57SAPC   H3Y 4238   1.695   6.882   5.640  0.3221  0.5665 -0.3276
   57SAPC   C34 4239   1.802   6.802   5.489 -0.4892  0.7719 -1.0689
   57SAPC   H4X 4240   1.866   6.715   5.463 -1.9371 -0.7431  0.2259
   57SAPC   H4Y 4241   1.865   6.891   5.467 -0.5597  1.8063  2.3512
   57SAPC   C35 4242   1.680   6.806   5.397  0.1056  0.3873  0.7539
   57SAPC   H5X 4243   1.626   6.903   5.391 -1.0890 -0.3178 -0.1935
   57SAPC   H5Y 4244   1.610   6.727   5.430  1.9554 -2.2522 -1.2579
   57SAPC   C36 4245   1.719   6.777   5.252 -0.9009  0.0345 -0.0453
   57SAPC   H6X 4246   1.782   6.685   5.257 -1.0028 -0.0143  0.4724
   57SAPC   H6Y 4247   1.794   6.852   5.221 -0.8935  0.1765  0.3054
   57SAPC   C37 4248   1.605   6.779   5.155  0.3313 -0.1995  0.2261
   57SAPC   H7X 4249   1.541   6.869   5.166  0.1880 -0.2817  0.0677
   57SAPC   H7Y 4250   1.539   6.694   5.183 -1.1696  0.7745 -0.2779
   57SAPC   C38 4251   1.654   6.763   5.018  0.0128 -0.2426  0.5622
   57SAPC   H8X 4252   1.710   6.669   5.005 -2.2070 -1.4325 -1.2997
   57SAPC   H8Y 4253   1.715   6.851   4.988  1.9661 -2.1556 -1.4760
   57SAPC   C39 4254   1.528   6.752   4.926  0.0871  0.2145 -0.4568
   57SAPC   H9X 4255   1.444   6.809   4.971 -1.0022  0.0364 -2.1794
   57SAPC   H9Y 4256   1.492   6.647   4.929  0.6433  0.0383  1.1954
   57SAPC  C310 4257   1.541   6.810   4.781  0.3949 -0.1685  0.9355
   57SAPC  H10X 4258   1.621   6.757   4.727  1.3358  1.0824  1.0766
   57SAPC  H10Y 4259   1.570   6.917   4.788  0.5639 -0.1786  0.3826
   57SAPC  C311 4260   1.413   6.789   4.702  0.0664 -0.8119  0.0980
   57SAPC  H11X 4261   1.425   6.846   4.607  1.0558 -0.7403  0.2560
   57SAPC  H11Y 4262   1.328   6.829   4.762  0.9849  0.5285  0.5484
   57SAPC  C312 4263   1.384   6.645   4.653 -0.1264 -0.1430  0.1857
   57SAPC  H12X 4264   1.471   6.582   4.680  1.1646  1.2567 -0.5746
   57SAPC  H12Y 4265   1.381   6.630   4.543  2.2698  1.2999 -0.1448
   57SAPC  C313 4266   1.268   6.577   4.732 -0.7529  0.0630  0.2226
   57SAPC  H13X 4267   1.173   6.634   4.724 -0.1809  0.9916 -0.1213
   57SAPC  H13Y 4268   1.290   6.578   4.841 -0.0496 -0.0100  0.0905
   57SAPC  C314 4269   1.239   6.439   4.679  0.0071 -0.2931  0.1732
   57SAPC  H14X 4270   1.335   6.386   4.661 -0.7234 -2.1392  1.4410
   57SAPC  H14Y 4271   1.191   6.459   4.580 -1.1429  1.7170  1.0732
   57SAPC  C315 4272   1.151   6.356   4.770 -0.6079  0.4931 -0.5697
   57SAPC  H15X 4273   1.207   6.335   4.863  0.7204 -0.0274 -1.4607
   57SAPC  H15Y 4274   1.119   6.262   4.720 -2.2209  0.2184  0.8676
   57SAPC  C316 4275   1.022   6.424   4.813  0.9918  0.1038  0.5193
   57SAPC  H16X 4276   0.961   6.438   4.721  0.6857 -2.8724  0.1515
   57SAPC  H16Y 4277   1.045   6.518   4.866  1.0315 -0.0278  0.7397
   57SAPC  C317 4278   0.934   6.343   4.904  0.2175 -0.1544 -0.1893
   57SAPC  H17X 4279   0.905   6.250   4.851  0.9634 -0.0913 -0.7304
   57SAPC  H17Y 4280   0.841   6.404   4.908  1.0143  1.2272 -1.5811
   57SAPC  C318 4281   0.990   6.301   5.040 -0.0429  0.7386  0.0369
   57SAPC  H18X 4282   1.064   6.220   5.022  0.7307  1.1483  1.2843
   57SAPC  H18Y 4283   0.909   6.268   5.109 -0.7663  1.5932 -0.3918
   57SAPC  H18Z 4284   1.043   6.384   5.090  1.8380 -0.9294  0.9609
   58SAPC     N 4285   6.740   6.499   6.985  0.1865 -0.1520 -0.3579
   58SAPC   C12 4286   6.667   6.384   6.913 -0.6100  0.0857 -1.0592
   58SAPC  H12A 4287   6.603   6.435   6.843 -0.3517  0.3327 -1.1156
   58SAPC  H12B 4288   6.618   6.328   6.991 -0.5521  0.7665 -0.5242
   58SAPC   C13 4289   6.840   6.571   6.891  1.0663 -0.1067  0.5678
   58SAPC  H13A 4290   6.909   6.636   6.941  0.6948  0.5617  0.2257
   58SAPC  H13B 4291   6.885   6.498   6.825 -2.1741 -0.3877 -1.6164
   58SAPC  H13C 4292   6.786   6.633   6.821  0.0951  0.0466  1.4183
   58SAPC   C14 4293   6.648   6.608   7.026  0.2579 -0.1059 -0.0531
   58SAPC  H14A 4294   6.566   6.572   7.086 -1.5586  1.5296 -1.4219
   58SAPC  H14B 4295   6.699   6.680   7.088 -0.7575 -0.6498  1.4828
   58SAPC  H14C 4296   6.606   6.658   6.940  0.1649 -0.3975 -0.1815
   58SAPC   C15 4297   6.816   6.433   7.104  0.9162  0.7117 -0.7294
   58SAPC  H15A 4298   6.870   6.505   7.165 -0.3779 -0.3824  1.8423
   58SAPC  H15B 4299   6.749   6.382   7.170  0.4865  0.8665 -1.0381
   58SAPC  H15C 4300   6.887   6.359   7.069 -1.1082 -1.2143 -0.9410
   58SAPC   C11 4301   6.757   6.278   6.837 -0.2958 -0.7180  0.0102
   58SAPC  H11A 4302   6.692   6.193   6.810 -2.3725  1.1813 -1.2426
   58SAPC  H11B 4303   6.830   6.242   6.913  0.1264  1.7365  0.8924
   58SAPC     P 4304   6.780   6.339   6.587  0.1870  0.6517  0.0857
   58SAPC   O13 4305   6.640   6.380   6.564 -0.3639  0.9570 -0.2572
   58SAPC   O14 4306   6.890   6.407   6.513  0.1434  0.8434  0.7388
   58SAPC   O12 4307   6.831   6.342   6.740 -0.1022  0.7727 -0.4838
   58SAPC   O11 4308   6.786   6.183   6.559  0.0008 -0.1167  0.3146
   58SAPC    C1 4309   6.890   6.093   6.576  0.1740  0.5062  0.0837
   58SAPC    HA 4310   6.991   6.139   6.578  2.1420 -3.3786  1.0582
   58SAPC    HB 4311   6.873   6.031   6.667  0.6825 -0.8675 -0.7228
   58SAPC    C2 4312   6.901   6.002   6.449 -0.3103 -0.4004 -0.1271
   58SAPC    HS 4313   6.967   5.920   6.483  1.0989  1.2921  1.3859
   58SAPC   O21 4314   6.945   6.078   6.337  0.0363  0.8366  0.2505
   58SAPC   C21 4315   7.036   6.009   6.269  0.4568 -0.1165  0.6102
   58SAPC   O22 4316   7.088   5.900   6.302 -0.5921  0.3249  0.2108
   58SAPC   C22 4317   7.067   6.100   6.146  0.8399 -0.4402 -0.2660
   58SAPC   H2R 4318   6.981   6.103   6.076  1.4914 -2.0724 -1.1978
   58SAPC   H2S 4319   7.093   6.204   6.176  0.1692  0.7898 -3.4740
   58SAPC    C3 4320   6.758   5.948   6.416  0.5106  0.1213  0.0423
   58SAPC    HX 4321   6.691   6.036   6.405  0.7562  0.2633 -0.3706
   58SAPC    HY 4322   6.723   5.900   6.509 -1.9613  2.4147  0.4120
   58SAPC   O31 4323   6.744   5.870   6.299  0.1984  0.5669  0.0519
   58SAPC   C31 4324   6.766   5.743   6.317 -0.1312 -0.2812  0.3689
   58SAPC   O32 4325   6.766   5.688   6.417  0.2780 -0.0169 -0.4871
   58SAPC   C32 4326   6.790   5.680   6.171 -0.4330  0.1560 -0.2228
   58SAPC   H2X 4327   6.692   5.640   6.137  0.0245 -3.0998  1.7941
   58SAPC   H2Y 4328   6.850   5.588   6.190  1.0331  1.1057 -0.1061
   58SAPC   C23 4329   7.192   6.040   6.073  0.1119 -0.3644 -0.3001
   58SAPC   H3R 4330   7.183   5.930   6.073  0.1913 -0.3705 -0.2414
   58SAPC   H3S 4331   7.290   6.075   6.113 -0.5390  1.3128 -0.1017
   58SAPC   C24 4332   7.194   6.084   5.929 -0.7658 -0.0797  0.8193
   58SAPC   H4R 4333   7.095   6.064   5.882 -0.5270 -0.2976  0.3995
   58SAPC   H4S 4334   7.273   6.022   5.882 -1.1761 -0.5703  0.7707
   58SAPC   C25 4335   7.226   6.232   5.904 -0.2021 -0.2729 -0.0778
   58SAPC   H5R 4336   7.198   6.298   5.987  1.0379  0.2980 -0.0847
   58SAPC   C26 4337   7.281   6.297   5.799  0.4153 -0.1648  0.7840
   58SAPC   H6R 4338   7.308   6.402   5.813 -0.0260  0.1903 -0.8147
   58SAPC   C27 4339   7.325   6.223   5.679  0.0913 -0.9800 -0.3384
   58SAPC   H7R 4340   7.239   6.212   5.610 -0.4718  3.5333 -0.6590
   58SAPC   H7S 4341   7.358   6.120   5.707  0.5562 -0.3561  1.5236
   58SAPC   C28 4342   7.433   6.283   5.595  0.2421  0.1921  0.4172
   58SAPC   H8R 4343   7.508   6.344   5.648  0.5282  1.2601 -1.1427
   58SAPC   C29 4344   7.447   6.276   5.459  0.2668  0.7676 -0.0924
   58SAPC   H9R 4345   7.543   6.314   5.421  1.5028 -0.9939  1.0997
   58SAPC  C210 4346   7.359   6.217   5.352 -0.0803  0.3376 -0.0787
   58SAPC  H10R 4347   7.259   6.214   5.401 -0.0846 -0.4247 -0.1325
   58SAPC  H10S 4348   7.377   6.111   5.326 -1.4240  0.2172 -0.5609
   58SAPC  C211 4349   7.353   6.295   5.221 -0.5304  0.0484  1.1752
   58SAPC  H11R 4350   7.300   6.390   5.238  0.6808  0.7870  0.9173
   58SAPC  C212 4351   7.381   6.259   5.100  0.1919 -0.1603 -0.5580
   58SAPC  H12R 4352   7.355   6.321   5.013  0.2142 -0.7551 -1.0024
   58SAPC  C213 4353   7.440   6.126   5.060  0.0847 -0.5973 -0.3146
   58SAPC  H13R 4354   7.364   6.064   5.008  1.3945 -1.8623 -0.7867
   58SAPC  H13S 4355   7.476   6.066   5.146  1.5988  2.8978  1.7241
   58SAPC  C214 4356   7.556   6.138   4.962 -0.2523  0.8762 -0.6334
   58SAPC  H14R 4357   7.653   6.130   5.011 -1.9766 -1.4527  2.7980
   58SAPC  C215 4358   7.538   6.157   4.834 -0.3246 -0.0959  0.1569
   58SAPC  H15R 4359   7.622   6.191   4.773 -0.2116  1.1126  0.9570
   58SAPC  C216 4360   7.399   6.161   4.771 -0.3162  0.4152 -0.2562
   58SAPC  H16R 4361   7.335   6.240   4.818  0.7250 -0.0493  2.0796
   58SAPC  H16S 4362   7.343   6.067   4.790  0.2282  0.1916  0.2837
   58SAPC  C217 4363   7.392   6.172   4.614 -0.0129 -0.9621  0.2059
   58SAPC  H17R 4364   7.287   6.148   4.586 -0.1534 -1.9167  1.4549
   58SAPC  H17S 4365   7.465   6.098   4.573  1.3002  0.6574 -0.5052
   58SAPC  C218 4366   7.442   6.310   4.567 -0.4993  0.2145  0.1237
   58SAPC  H18R 4367   7.553   6.314   4.569 -0.5240  0.8709  1.8352
   58SAPC  H18S 4368   7.393   6.390   4.627  0.0469  0.5091  0.1856
   58SAPC  C219 4369   7.395   6.329   4.422 -0.1363  0.4159 -0.1846
   58SAPC  H19R 4370   7.391   6.438   4.398 -1.5161  0.6716  1.1069
   58SAPC  H19S 4371   7.293   6.286   4.414  0.5740 -1.0197 -2.2396
   58SAPC  C220 4372   7.486   6.273   4.315  0.0356 -0.7061  0.1523
   58SAPC  H20R 4373   7.451   6.297   4.213  1.5020  0.9483 -0.0148
   58SAPC  H20S 4374   7.499   6.163   4.322  0.7614 -0.5607  1.3618
   58SAPC  H20T 4375   7.589   6.315   4.325 -0.7751  0.8279  3.6187
   58SAPC   C33 4376   6.855   5.776   6.072 -0.8831  0.2208 -0.0008
   58SAPC   H3X 4377   6.951   5.823   6.101 -1.3715  0.6501  0.9510
   58SAPC   H3Y 4378   6.788   5.861   6.049 -1.2221 -0.2194 -0.6764
   58SAPC   C34 4379   6.877   5.710   5.936 -0.1946 -0.7159  0.0312
   58SAPC   H4X 4380   6.777   5.680   5.898 -0.0885 -1.4267  0.2936
   58SAPC   H4Y 4381   6.932   5.615   5.950  0.5322 -0.1170  1.4514
   58SAPC   C35 4382   6.938   5.802   5.826  0.2929  0.5071 -0.4473
   58SAPC   H5X 4383   7.046   5.815   5.848  0.5214 -1.6217 -0.1548
   58SAPC   H5Y 4384   6.888   5.902   5.831  0.2650  0.4707  0.0577
   58SAPC   C36 4385   6.930   5.747   5.680 -0.1772  0.6322 -0.1538
   58SAPC   H6X 4386   6.829   5.738   5.635  0.4867  0.2112 -1.6225
   58SAPC   H6Y 4387   6.962   5.641   5.692 -0.7070  0.3127 -1.3789
   58SAPC   C37 4388   7.029   5.817   5.585  0.0809 -0.2596 -0.1925
   58SAPC   H7X 4389   7.135   5.785   5.595  0.2059  0.4211  0.8496
   58SAPC   H7Y 4390   7.031   5.924   5.613  1.3556 -0.4235  0.4552
   58SAPC   C38 4391   6.980   5.787   5.443  0.0927  0.3366  0.4080
   58SAPC   H8X 4392   6.871   5.809   5.445 -0.0700 -0.4218 -0.0535
   58SAPC   H8Y 4393   6.986   5.678   5.424  0.5354  0.4814 -0.3150
   58SAPC   C39 4394   7.056   5.847   5.321  0.4882  0.6357 -0.3047
   58SAPC   H9X 4395   7.077   5.955   5.336  1.0897  0.4758  0.0184
   58SAPC   H9Y 4396   6.991   5.846   5.231  2.1626  2.3423 -1.5791
   58SAPC  C310 4397   7.185   5.769   5.298  0.6295 -0.4584 -0.2997
   58SAPC  H10X 4398   7.160   5.661   5.303  0.4973 -0.4642 -1.0557
   58SAPC  H10Y 4399   7.261   5.785   5.377  1.4678 -2.0180 -0.7648
   58SAPC  C311 4400   7.258   5.804   5.173  0.5198 -0.4767 -0.4504
   58SAPC  H11X 4401   7.289   5.910   5.179 -0.2295 -0.3126  1.3441
   58SAPC  H11Y 4402   7.194   5.793   5.083  0.7027 -0.0641 -0.6313
   58SAPC  C312 4403   7.381   5.722   5.140 -0.1940 -0.0042  0.7014
   58SAPC  H12X 4404   7.353   5.618   5.168 -2.6886  0.5251  0.3757
   58SAPC  H12Y 4405   7.450   5.760   5.219 -1.7426  0.3242  1.9370
   58SAPC  C313 4406   7.433   5.746   4.999 -0.2927  0.1206  0.3879
   58SAPC  H13X 4407   7.534   5.699   5.001  0.4334  1.4056 -1.9858
   58SAPC  H13Y 4408   7.457   5.851   4.972  0.8360  0.2956  1.9391
   58SAPC  C314 4409   7.350   5.690   4.879 -0.0979 -0.5092  0.0256
   58SAPC  H14X 4410   7.252   5.739   4.861 -0.4444 -1.7352 -1.5838
   58SAPC  H14Y 4411   7.318   5.589   4.912 -2.4770 -0.2862 -1.3710
   58SAPC  C315 4412   7.426   5.693   4.742  0.3606  0.3805 -0.4734
   58SAPC  H15X 4413   7.416   5.590   4.703 -0.4625 -0.2820  1.3793
   58SAPC  H15Y 4414   7.534   5.713   4.757  0.2337  0.4195  0.4489
   58SAPC  C316 4415   7.361   5.787   4.641 -0.0259 -0.7615 -0.4622
   58SAPC  H16X 4416   7.411   5.885   4.651  2.4027 -1.4963 -3.7993
   58SAPC  H16Y 4417   7.254   5.798   4.669  0.4380 -2.4676  2.4537
   58SAPC  C317 4418   7.383   5.745   4.492  0.6970 -0.1894 -0.3473
   58SAPC  H17X 4419   7.312   5.661   4.472  1.6754 -1.0141 -0.4553
   58SAPC  H17Y 4420   7.486   5.706   4.477  0.1157 -2.5785  1.2574
   58SAPC  C318 4421   7.348   5.860   4.396  0.0474  0.1739  0.8140
   58SAPC  H18X 4422   7.402   5.953   4.425 -0.3692  0.6163  0.2137
   58SAPC  H18Y 4423   7.240   5.882   4.385  0.3612  0.8619 -1.4381
   58SAPC  H18Z 4424   7.378   5.848   4.289 -1.2622  0.6456  0.3729
   59SAPC     N 4425   5.134   3.669   6.552 -0.2774  0.5599 -0.7949
   59SAPC   C12 4426   5.057   3.593   6.442  0.0692 -0.3512  0.3157
   59SAPC  H12A 4427   5.047   3.662   6.359 -0.1704  0.4557  1.0079
   59SAPC  H12B 4428   4.960   3.568   6.482  0.0509 -1.6856 -0.5007
   59SAPC   C13 4429   5.045   3.778   6.605  0.3543  0.3231 -0.2257
   59SAPC  H13A 4430   4.946   3.741   6.625 -0.5774  2.1728 -1.2176
   59SAPC  H13B 4431   5.086   3.821   6.695  0.6348 -1.3610  0.4837
   59SAPC  H13C 4432   5.034   3.858   6.533 -1.8486  0.4342  0.1722
   59SAPC   C14 4433   5.166   3.575   6.665 -0.0670 -0.1906  0.2363
   59SAPC  H14A 4434   5.207   3.480   6.634 -1.7880 -0.8804 -0.0763
   59SAPC  H14B 4435   5.222   3.617   6.747  1.5355  2.3345 -1.9694
   59SAPC  H14C 4436   5.068   3.559   6.708 -0.0601 -3.9213 -0.7492
   59SAPC   C15 4437   5.262   3.723   6.488 -1.1070  0.0408 -0.3429
   59SAPC  H15A 4438   5.250   3.780   6.396 -1.5535 -2.0579 -1.6643
   59SAPC  H15B 4439   5.321   3.779   6.559 -0.1962 -0.4851 -0.6679
   59SAPC  H15C 4440   5.335   3.646   6.468 -0.4600 -0.7993  4.3196
   59SAPC   C11 4441   5.112   3.455   6.392  0.4402  0.2768 -0.0916
   59SAPC  H11A 4442   5.214   3.481   6.356  0.0759  1.0361 -0.5934
   59SAPC  H11B 4443   5.056   3.421   6.303  0.2972 -1.0280  0.4727
   59SAPC     P 4444   4.977   3.278   6.513  0.4494 -0.2490  0.0004
   59SAPC   O13 4445   5.004   3.173   6.615  1.0223  0.1723  1.4519
   59SAPC   O14 4446   4.866   3.374   6.526  0.1688 -0.8482 -0.5280
   59SAPC   O12 4447   5.118   3.356   6.492  0.1808  0.1403 -0.4760
   59SAPC   O11 4448   4.958   3.210   6.367  0.7743  0.2724  0.0710
   59SAPC    C1 4449   5.066   3.141   6.308  0.7199 -0.1917  0.2345
   59SAPC    HA 4450   5.159   3.200   6.319  0.7287  0.1588 -1.4677
   59SAPC    HB 4451   5.069   3.047   6.367 -2.0835 -0.1488  0.5828
   59SAPC    C2 4452   5.047   3.117   6.159 -0.8223  0.5454 -0.0779
   59SAPC    HS 4453   5.130   3.051   6.125  0.5911  1.9253  0.5441
   59SAPC   O21 4454   5.029   3.247   6.095  0.1283  0.1813 -0.3412
   59SAPC   C21 4455   5.138   3.313   6.076  0.3740 -0.1867  0.5059
   59SAPC   O22 4456   5.247   3.273   6.100 -0.2072 -0.7140 -0.2835
   59SAPC   C22 4457   5.109   3.452   6.030 -0.1552 -0.1511 -0.4704
   59SAPC   H2R 4458   5.018   3.494   6.079  1.2070  0.5621  1.5825
   59SAPC   H2S 4459   5.187   3.524   6.061  1.4718 -1.4422 -1.4261
   59SAPC    C3 4460   4.911   3.043   6.139 -0.3758 -0.1070  0.1369
   59SAPC    HX 4461   4.829   3.112   6.167 -0.7454 -0.7567  0.7042
   59SAPC    HY 4462   4.903   2.966   6.219  1.0520 -0.3173  0.1051
   59SAPC   O31 4463   4.893   2.976   6.008 -0.3682  0.0943 -0.0614
   59SAPC   C31 4464   4.861   3.065   5.908 -0.7657  0.0071  0.7091
   59SAPC   O32 4465   4.835   3.183   5.927 -1.1760 -0.2848 -0.3971
   59SAPC   C32 4466   4.878   2.996   5.769 -0.3639 -0.2489  0.2648
   59SAPC   H2X 4467   4.793   3.024   5.703  0.7334  0.1313 -1.0227
   59SAPC   H2Y 4468   4.887   2.885   5.777  0.8803 -0.2910 -1.3821
   59SAPC   C23 4469   5.078   3.448   5.876 -0.6366  0.0494  1.2911
   59SAPC   H3R 4470   5.003   3.368   5.861 -0.3217 -0.1282  0.5969
   59SAPC   H3S 4471   5.173   3.419   5.826 -1.0625  1.1683 -0.2456
   59SAPC   C24 4472   5.048   3.586   5.816 -0.2379 -0.1966 -0.3734
   59SAPC   H4R 4473   5.139   3.650   5.816 -0.5218  0.2268 -1.5698
   59SAPC   H4S 4474   4.982   3.637   5.889  0.8296 -0.3568  0.7541
   59SAPC   C25 4475   4.970   3.575   5.691  0.3153  0.4998 -0.3356
   59SAPC   H5R 4476   4.863   3.552   5.705  0.2816  0.7500 -0.1678
   59SAPC   C26 4477   5.029   3.569   5.572  0.2840 -0.0246  0.3326
   59SAPC   H6R 4478   4.978   3.547   5.477  3.0360 -2.1066 -0.8289
   59SAPC   C27 4479   5.171   3.591   5.543  0.4747  0.0913  0.1453
   59SAPC   H7R 4480   5.223   3.497   5.569 -1.5371 -0.8668  0.9117
   59SAPC   H7S 4481   5.214   3.668   5.610  0.8209 -0.0048  0.0332
   59SAPC   C28 4482   5.200   3.640   5.401 -0.4274 -1.3457  0.1747
   59SAPC   H8R 4483   5.209   3.749   5.387  0.4083 -1.5653 -1.1845
   59SAPC   C29 4484   5.209   3.579   5.277  0.2416  0.3568  0.1354
   59SAPC   H9R 4485   5.214   3.645   5.189 -0.2849  2.5682  1.6723
   59SAPC  C210 4486   5.200   3.430   5.255 -0.4238  0.3539 -0.1540
   59SAPC  H10R 4487   5.160   3.374   5.343 -0.1569 -0.1937 -0.3778
   59SAPC  H10S 4488   5.301   3.394   5.227 -0.7158 -0.1944 -0.5153
   59SAPC  C211 4489   5.100   3.412   5.146  0.8615  0.1294 -0.1258
   59SAPC  H11R 4490   5.005   3.465   5.163  1.1362  0.9657 -1.0772
   59SAPC  C212 4491   5.124   3.351   5.031 -0.6055 -0.1582  0.3502
   59SAPC  H12R 4492   5.047   3.335   4.955  0.7621 -0.9501 -0.9329
   59SAPC  C213 4493   5.253   3.291   4.991  0.1535 -0.5925  0.3323
   59SAPC  H13R 4494   5.243   3.222   4.904  1.8652 -2.1240  1.2895
   59SAPC  H13S 4495   5.277   3.232   5.082  0.6758  2.8064  2.5440
   59SAPC  C214 4496   5.371   3.382   4.958 -1.2548 -0.5076 -0.3550
   59SAPC  H14R 4497   5.358   3.488   4.984 -0.0775  0.3492 -2.9097
   59SAPC  C215 4498   5.482   3.349   4.889 -0.3838  0.2514 -0.6626
   59SAPC  H15R 4499   5.553   3.433   4.885 -4.6182  4.1494 -2.7181
   59SAPC  C216 4500   5.522   3.214   4.834 -0.7849  0.3689 -0.4213
   59SAPC  H16R 4501   5.444   3.138   4.855  0.7609 -1.1545  0.0270
   59SAPC  H16S 4502   5.621   3.177   4.866 -1.7954  0.0465  2.7251
   59SAPC  C217 4503   5.522   3.230   4.680 -0.0388  0.5461  0.1418
   59SAPC  H17R 4504   5.427   3.268   4.636  0.2353 -0.1675 -1.1291
   59SAPC  H17S 4505   5.534   3.127   4.638  0.7165  1.1720 -1.2443
   59SAPC  C218 4506   5.639   3.304   4.616  0.0786  0.1862 -0.4488
   59SAPC  H18R 4507   5.740   3.265   4.641  0.4008  0.8422 -0.7012
   59SAPC  H18S 4508   5.626   3.409   4.649 -0.4292 -0.4631  1.6078
   59SAPC  C219 4509   5.612   3.298   4.472  0.4759 -0.1824 -0.2288
   59SAPC  H19R 4510   5.519   3.349   4.442 -0.1702 -2.4864 -2.4969
   59SAPC  H19S 4511   5.578   3.196   4.444 -3.4851  1.0790 -0.6819
   59SAPC  C220 4512   5.729   3.350   4.393  0.8471  0.1291  0.2595
   59SAPC  H20R 4513   5.821   3.290   4.412  0.0077 -1.4451 -0.4417
   59SAPC  H20S 4514   5.748   3.454   4.426 -0.2501  0.7524 -0.9959
   59SAPC  H20T 4515   5.701   3.340   4.286 -1.7934  0.0531  0.9063
   59SAPC   C33 4516   5.004   3.044   5.692 -0.5522 -0.0760  0.2293
   59SAPC   H3X 4517   5.099   3.030   5.748  0.5170  1.4555 -1.1258
   59SAPC   H3Y 4518   4.996   3.152   5.671 -0.0926 -0.0632  0.1044
   59SAPC   C34 4519   5.023   2.980   5.555 -0.1463 -0.6861  0.6288
   59SAPC   H4X 4520   4.934   2.988   5.489 -0.4514 -3.9112  0.4970
   59SAPC   H4Y 4521   5.028   2.874   5.587  1.1509 -0.3949  1.4877
   59SAPC   C35 4522   5.155   3.006   5.475 -0.3782  0.3035 -0.6499
   59SAPC   H5X 4523   5.232   2.999   5.554 -0.7445  0.2593 -0.2909
   59SAPC   H5Y 4524   5.144   3.113   5.444 -0.8560  0.8671  1.3421
   59SAPC   C36 4525   5.172   2.916   5.352  0.5288 -0.1247  1.0891
   59SAPC   H6X 4526   5.091   2.929   5.277  1.0656  0.8037  0.6581
   59SAPC   H6Y 4527   5.160   2.815   5.397  0.3600 -0.4733  0.2742
   59SAPC   C37 4528   5.305   2.916   5.278 -0.0365 -0.0485  0.1175
   59SAPC   H7X 4529   5.383   2.879   5.348  0.5923  1.1767  0.0813
   59SAPC   H7Y 4530   5.324   3.024   5.258 -0.3073  0.1265  0.7908
   59SAPC   C38 4531   5.313   2.825   5.151  0.0813 -0.3444  0.1122
   59SAPC   H8X 4532   5.221   2.844   5.092 -1.2832 -0.9236  1.9500
   59SAPC   H8Y 4533   5.295   2.724   5.193 -0.2798 -0.4737 -0.3460
   59SAPC   C39 4534   5.433   2.846   5.057 -0.3892  0.5614  0.9754
   59SAPC   H9X 4535   5.530   2.822   5.106 -0.3836  2.8015  2.1736
   59SAPC   H9Y 4536   5.449   2.946   5.013 -1.9205  0.4736  0.1557
   59SAPC  C310 4537   5.412   2.755   4.933 -0.2398 -0.4141 -0.0470
   59SAPC  H10X 4538   5.319   2.780   4.876  0.3799 -1.0116 -1.3680
   59SAPC  H10Y 4539   5.394   2.651   4.969 -2.2386  0.0095  0.3321
   59SAPC  C311 4540   5.533   2.749   4.835  0.7864 -0.2535 -0.2719
   59SAPC  H11X 4541   5.625   2.727   4.893  0.9840 -3.9580 -1.7277
   59SAPC  H11Y 4542   5.544   2.851   4.793  1.4087 -0.3677 -0.3944
   59SAPC  C312 4543   5.504   2.647   4.728 -0.1807  0.0329 -0.7445
   59SAPC  H12X 4544   5.419   2.682   4.665 -1.1825 -0.6941  0.1622
   59SAPC  H12Y 4545   5.479   2.548   4.770  0.3543  1.2359  2.7076
   59SAPC  C313 4546   5.622   2.632   4.625 -0.6919  0.4824 -0.1489
   59SAPC  H13X 4547   5.600   2.558   4.545 -0.0062 -2.1321  1.9186
   59SAPC  H13Y 4548   5.702   2.591   4.689 -1.0185  0.9837  0.5940
   59SAPC  C314 4549   5.669   2.759   4.554  0.1007 -0.7186 -0.3135
   59SAPC  H14X 4550   5.616   2.848   4.593  1.4520  1.0641 -2.2759
   59SAPC  H14Y 4551   5.633   2.749   4.449  1.0771  0.6426 -0.8213
   59SAPC  C315 4552   5.824   2.783   4.551  0.2696 -0.1802  0.0151
   59SAPC  H15X 4553   5.880   2.690   4.527  1.9332  0.5413  0.9981
   59SAPC  H15Y 4554   5.856   2.814   4.652 -3.5680  3.6530  0.3103
   59SAPC  C316 4555   5.853   2.897   4.452  0.2593 -0.1251 -0.1653
   59SAPC  H16X 4556   5.770   2.969   4.466  0.0475 -0.5377  0.8328
   59SAPC  H16Y 4557   5.838   2.868   4.345 -1.5385  1.6509 -0.4467
   59SAPC  C317 4558   5.983   2.978   4.485  0.4598 -0.3485  0.2787
   59SAPC  H17X 4559   5.991   2.985   4.596  1.5899 -0.3635  0.2150
   59SAPC  H17Y 4560   5.984   3.085   4.456  0.8559 -0.6974 -1.0477
   59SAPC  C318 4561   6.105   2.903   4.438 -0.3614  0.3726  0.3116
   59SAPC  H18X 4562   6.108   2.890   4.328 -2.2889 -1.1833  0.4007
   59SAPC  H18Y 4563   6.084   2.803   4.482 -2.2762  0.1441 -1.0168
   59SAPC  H18Z 4564   6.206   2.947   4.456  0.5104 -0.3943 -2.2630
   60SAPC     N 4565   6.236   1.755   6.860  0.7539  0.0368  0.1836
   60SAPC   C12 4566   6.117   1.793   6.765  0.4779  0.2067 -0.2292
   60SAPC  H12A 4567   6.055   1.862   6.819 -1.6079 -1.1973 -0.7323
   60SAPC  H12B 4568   6.064   1.702   6.743 -1.1382  1.3600 -1.3236
   60SAPC   C13 4569   6.351   1.703   6.780  0.5332  0.1314 -0.2321
   60SAPC  H13A 4570   6.379   1.781   6.711 -0.0215 -0.3747 -1.0459
   60SAPC  H13B 4571   6.435   1.697   6.847  0.5307 -4.8595 -0.2880
   60SAPC  H13C 4572   6.335   1.614   6.721  2.1037  0.2589 -0.8990
   60SAPC   C14 4573   6.275   1.876   6.934  0.7977 -0.0600 -0.5866
   60SAPC  H14A 4574   6.178   1.913   6.966  0.3261 -1.2907 -0.5594
   60SAPC  H14B 4575   6.328   1.859   7.027 -0.0080 -1.8100 -0.4192
   60SAPC  H14C 4576   6.320   1.943   6.862  0.5147  0.8489  0.0530
   60SAPC   C15 4577   6.186   1.648   6.950 -0.1314 -0.7071  0.4584
   60SAPC  H15A 4578   6.115   1.684   7.022 -0.1464  0.5245 -0.1375
   60SAPC  H15B 4579   6.124   1.577   6.898 -1.9953  0.6618  0.7265
   60SAPC  H15C 4580   6.273   1.602   6.994  1.4147  1.8887  0.3357
   60SAPC   C11 4581   6.147   1.849   6.619  0.5659  0.2821  0.2013
   60SAPC  H11A 4582   6.050   1.853   6.565  0.3259  1.4095  0.6639
   60SAPC  H11B 4583   6.215   1.780   6.566 -1.1597 -1.5918  0.3139
   60SAPC     P 4584   6.100   2.100   6.654 -0.2986 -0.1170  0.1204
   60SAPC   O13 4585   6.025   2.062   6.772  0.1863  0.0908 -0.6475
   60SAPC   O14 4586   6.172   2.229   6.663 -0.5709 -0.1290  0.2976
   60SAPC   O12 4587   6.201   1.978   6.631 -0.0386  0.2110  0.5596
   60SAPC   O11 4588   6.009   2.118   6.525 -0.1667  0.2883  0.2489
   60SAPC    C1 4589   6.057   2.174   6.394  0.7538  0.3140 -0.3668
   60SAPC    HA 4590   6.168   2.169   6.387  0.8363 -1.1770  1.3838
   60SAPC    HB 4591   6.015   2.117   6.308  3.0456  0.8049 -1.9139
   60SAPC    C2 4592   6.010   2.317   6.365 -1.2995 -0.0220  0.5971
   60SAPC    HS 4593   6.058   2.373   6.448 -1.0136  1.4155 -0.4992
   60SAPC   O21 4594   5.871   2.345   6.380 -0.1526  0.2451  0.5551
   60SAPC   C21 4595   5.844   2.473   6.403  0.5588 -0.3364  0.3576
   60SAPC   O22 4596   5.931   2.559   6.413  1.0711 -0.1035  0.6710
   60SAPC   C22 4597   5.694   2.511   6.403  0.0311  0.1917  0.3601
   60SAPC   H2R 4598   5.632   2.446   6.467 -1.4279 -0.1298 -1.2958
   60SAPC   H2S 4599   5.680   2.616   6.438 -0.0944 -0.0262  0.9686
   60SAPC    C3 4600   6.068   2.376   6.231  0.6664  0.6590 -0.1649
   60SAPC    HX 4601   6.166   2.326   6.222  0.5585 -0.1228  2.2435
   60SAPC    HY 4602   6.073   2.486   6.244 -1.6783  0.8058  0.0318
   60SAPC   O31 4603   5.989   2.333   6.113 -0.5011  0.2339  0.6408
   60SAPC   C31 4604   5.956   2.432   6.030 -0.6430 -0.0559  0.1345
   60SAPC   O32 4605   5.972   2.553   6.049  0.3252 -0.0844 -0.0130
   60SAPC   C32 4606   5.895   2.366   5.905  0.0727 -0.4664  0.0798
   60SAPC   H2X 4607   5.786   2.346   5.917 -0.2264  1.5557  1.4182
   60SAPC   H2Y 4608   5.938   2.264   5.900 -3.5110 -2.1989  0.8791
   60SAPC   C23 4609   5.632   2.505   6.259  0.0163  0.1044  0.2048
   60SAPC   H3R 4610   5.705   2.535   6.180  0.9210 -1.6786  0.2935
   60SAPC   H3S 4611   5.545   2.574   6.258 -1.5659 -1.7844  0.5833
   60SAPC   C24 4612   5.592   2.362   6.204  0.0062 -0.4181 -0.9048
   60SAPC   H4R 4613   5.667   2.290   6.244 -0.7023 -0.8752 -0.3750
   60SAPC   H4S 4614   5.587   2.365   6.093 -0.1875 -0.1847 -0.8906
   60SAPC   C25 4615   5.464   2.318   6.265  0.3480 -0.8465 -0.2632
   60SAPC   H5R 4616   5.467   2.288   6.371  0.0762 -1.4831 -0.4295
   60SAPC   C26 4617   5.348   2.281   6.205 -0.5188 -0.9012  0.1422
   60SAPC   H6R 4618   5.266   2.249   6.271 -0.6677  1.8369  1.4590
   60SAPC   C27 4619   5.316   2.275   6.060 -1.1192 -0.1418 -0.4458
   60SAPC   H7R 4620   5.355   2.373   6.026 -0.2264  0.2951  1.7195
   60SAPC   H7S 4621   5.205   2.270   6.052 -1.0776 -0.8655 -0.6546
   60SAPC   C28 4622   5.385   2.168   5.995 -0.1694 -0.0084  0.3439
   60SAPC   H8R 4623   5.491   2.155   6.021 -0.0618 -0.4726 -0.3056
   60SAPC   C29 4624   5.341   2.086   5.900 -0.3082 -0.3050  0.0815
   60SAPC   H9R 4625   5.405   2.000   5.875 -0.6824 -0.9900  1.4024
   60SAPC  C210 4626   5.204   2.077   5.849 -0.0391 -0.2886  0.1542
   60SAPC  H10R 4627   5.138   2.079   5.939 -1.4248 -0.7123 -0.8188
   60SAPC  H10S 4628   5.186   1.975   5.809 -0.7355 -0.5870  1.1712
   60SAPC  C211 4629   5.173   2.194   5.755  0.2642 -0.2120  0.0915
   60SAPC  H11R 4630   5.244   2.279   5.758  0.5286 -0.4126 -0.4548
   60SAPC  C212 4631   5.072   2.194   5.659 -0.4862 -0.3359  0.1863
   60SAPC  H12R 4632   5.055   2.282   5.594  0.3978  1.4353  2.2226
   60SAPC  C213 4633   4.979   2.075   5.634 -0.2815 -0.6808  0.1303
   60SAPC  H13R 4634   4.874   2.098   5.660 -0.5651 -2.6643  0.8916
   60SAPC  H13S 4635   5.006   1.975   5.674 -0.1853 -0.7572 -0.1204
   60SAPC  C214 4636   4.995   2.050   5.485  0.3816  0.3416 -0.4262
   60SAPC  H14R 4637   5.073   1.975   5.464  0.7770  0.2698  1.1382
   60SAPC  C215 4638   4.922   2.102   5.390  0.5083  0.2225  0.4601
   60SAPC  H15R 4639   4.948   2.073   5.287  0.6997  2.7066 -0.2353
   60SAPC  C216 4640   4.811   2.201   5.397 -0.3623 -0.5796  0.6017
   60SAPC  H16R 4641   4.812   2.250   5.496 -0.6716  1.3869 -0.3125
   60SAPC  H16S 4642   4.716   2.148   5.373 -0.6820  0.4173 -0.4640
   60SAPC  C217 4643   4.827   2.314   5.298  0.0395  0.1126  0.3955
   60SAPC  H17R 4644   4.931   2.352   5.291  1.4477 -3.2127  1.3417
   60SAPC  H17S 4645   4.760   2.397   5.329  0.6003  0.8029 -0.2052
   60SAPC  C218 4646   4.769   2.287   5.153 -0.5483 -0.0352 -0.2587
   60SAPC  H18R 4647   4.672   2.235   5.165 -0.8870 -0.6080 -4.2685
   60SAPC  H18S 4648   4.840   2.214   5.110 -3.2043 -2.4226 -0.8453
   60SAPC  C219 4649   4.732   2.417   5.077  0.6068  0.1415  0.9712
   60SAPC  H19R 4650   4.644   2.463   5.126 -0.1266 -0.9746  0.7248
   60SAPC  H19S 4651   4.692   2.378   4.980  0.6284  1.4849  0.3977
   60SAPC  C220 4652   4.848   2.517   5.052 -0.3249 -0.0486  0.2259
   60SAPC  H20R 4653   4.818   2.605   4.991 -1.5905 -0.4937  0.1894
   60SAPC  H20S 4654   4.934   2.468   5.002  1.7507  1.6217  1.9105
   60SAPC  H20T 4655   4.880   2.544   5.155 -4.7113  0.0932  1.7418
   60SAPC   C33 4656   5.912   2.460   5.786 -0.0306  0.0765 -0.4644
   60SAPC   H3X 4657   6.016   2.463   5.746 -0.1595 -0.3337 -0.8345
   60SAPC   H3Y 4658   5.890   2.568   5.796  1.8356  0.5762 -1.3749
   60SAPC   C34 4659   5.817   2.422   5.672 -0.3803 -0.6329 -0.4324
   60SAPC   H4X 4660   5.723   2.388   5.721 -0.1467  0.8674  1.1525
   60SAPC   H4Y 4661   5.862   2.334   5.621  0.9212 -0.6514  0.6988
   60SAPC   C35 4662   5.792   2.536   5.573  0.0486  0.0487  0.1641
   60SAPC   H5X 4663   5.894   2.572   5.546  0.2312 -1.1791 -0.9251
   60SAPC   H5Y 4664   5.735   2.619   5.619 -0.6905 -0.3338 -0.0415
   60SAPC   C36 4665   5.733   2.498   5.437 -0.1754  0.4922  0.2680
   60SAPC   H6X 4666   5.650   2.424   5.439  1.4196 -1.3566  2.2919
   60SAPC   H6Y 4667   5.799   2.435   5.374 -2.5972  0.1993 -2.1641
   60SAPC   C37 4668   5.705   2.622   5.348 -0.5748  0.4164  0.2132
   60SAPC   H7X 4669   5.639   2.697   5.398 -0.2356 -0.0524  1.3772
   60SAPC   H7Y 4670   5.651   2.579   5.260  1.7738  0.2797 -1.2446
   60SAPC   C38 4671   5.825   2.703   5.297 -0.0282  0.0210 -0.1403
   60SAPC   H8X 4672   5.898   2.735   5.375 -1.0733  1.0444  0.4386
   60SAPC   H8Y 4673   5.777   2.800   5.273 -2.6018 -0.7230  1.5803
   60SAPC   C39 4674   5.901   2.641   5.176  1.0204 -0.3662 -0.2354
   60SAPC   H9X 4675   5.823   2.619   5.099  1.4511 -0.9762 -0.5121
   60SAPC   H9Y 4676   5.959   2.549   5.199  1.0235 -0.3398 -0.1397
   60SAPC  C310 4677   5.997   2.739   5.120 -0.2341 -0.5259  0.9661
   60SAPC  H10X 4678   6.056   2.779   5.206  0.5482  1.0846 -0.2675
   60SAPC  H10Y 4679   5.943   2.827   5.079  1.0829  0.4727  1.3280
   60SAPC  C311 4680   6.088   2.673   5.017  0.4753 -0.1094  0.0445
   60SAPC  H11X 4681   6.027   2.593   4.969 -1.6337  0.9277  0.8238
   60SAPC  H11Y 4682   6.167   2.619   5.073 -0.1405 -0.0319  1.0170
   60SAPC  C312 4683   6.128   2.765   4.902  0.4036 -0.7222  0.2441
   60SAPC  H12X 4684   6.166   2.863   4.938  1.1995  0.8888 -4.3483
   60SAPC  H12Y 4685   6.042   2.786   4.835  0.9826  0.3437 -0.1929
   60SAPC  C313 4686   6.252   2.711   4.830 -0.2063  0.3362  0.2148
   60SAPC  H13X 4687   6.321   2.672   4.908  2.0870  0.9815 -1.3700
   60SAPC  H13Y 4688   6.301   2.789   4.767 -1.4868  2.5839  1.8475
   60SAPC  C314 4689   6.187   2.611   4.734  0.4084  0.3421  0.3349
   60SAPC  H14X 4690   6.132   2.676   4.663  0.6710 -1.6298 -1.8076
   60SAPC  H14Y 4691   6.119   2.534   4.776 -2.4899  1.4734 -1.9915
   60SAPC  C315 4692   6.290   2.541   4.640 -0.0998 -0.0248  0.6031
   60SAPC  H15X 4693   6.343   2.471   4.708  1.0001 -0.4604 -0.6713
   60SAPC  H15Y 4694   6.369   2.614   4.615  0.2671  0.1379  2.1271
   60SAPC  C316 4695   6.225   2.488   4.516  0.0996  0.5227  0.2104
   60SAPC  H16X 4696   6.168   2.571   4.469  2.6710  2.0256 -0.4556
   60SAPC  H16Y 4697   6.160   2.404   4.547  2.3358 -1.4176 -0.0001
   60SAPC  C317 4698   6.329   2.424   4.424 -0.4309 -0.0424  0.6709
   60SAPC  H17X 4699   6.388   2.349   4.481  1.4875 -0.9068 -2.2025
   60SAPC  H17Y 4700   6.407   2.499   4.400 -1.4725  0.7017 -0.5375
   60SAPC  C318 4701   6.278   2.361   4.295 -0.9602 -0.2218 -0.0364
   60SAPC  H18X 4702   6.359   2.358   4.219  0.3846  2.2739  1.1680
   60SAPC  H18Y 4703   6.210   2.427   4.237 -0.9935  0.0411  0.3003
   60SAPC  H18Z 4704   6.225   2.267   4.320 -0.6635 -0.6215 -0.8580
   61SAPC     N 4705   3.752   4.124   7.134  0.3572 -0.4618  0.5592
   61SAPC   C12 4706   3.628   4.198   7.081  0.3607 -0.0159  1.1522
   61SAPC  H12A 4707   3.656   4.291   7.034 -0.7309 -0.1403  0.2186
   61SAPC  H12B 4708   3.561   4.231   7.159 -2.0355  0.3846 -0.9634
   61SAPC   C13 4709   3.835   4.087   7.017 -0.2700  0.3935  0.4286
   61SAPC  H13A 4710   3.863   4.174   6.960  0.6774 -0.2338 -0.0872
   61SAPC  H13B 4711   3.927   4.045   7.056  0.2799  0.4104 -0.8095
   61SAPC  H13C 4712   3.797   4.000   6.966  0.9343  0.4096 -0.5490
   61SAPC   C14 4713   3.830   4.213   7.225 -0.4060  0.2039 -0.0730
   61SAPC  H14A 4714   3.855   4.307   7.178  1.5048 -1.4217 -2.5103
   61SAPC  H14B 4715   3.764   4.234   7.308 -0.5590 -0.7844  0.0692
   61SAPC  H14C 4716   3.913   4.149   7.250 -1.6766 -1.4884 -0.0109
   61SAPC   C15 4717   3.707   4.000   7.213 -0.0291  0.2117  0.1860
   61SAPC  H15A 4718   3.647   3.929   7.158 -1.7725  2.0920 -0.4680
   61SAPC  H15B 4719   3.794   3.953   7.256 -0.2260 -0.0288  0.3150
   61SAPC  H15C 4720   3.648   4.035   7.296 -1.5541  0.2746 -0.8921
   61SAPC   C11 4721   3.544   4.139   6.958 -0.7825 -0.0336  0.4718
   61SAPC  H11A 4722   3.455   4.204   6.948  1.0323  2.4449 -0.4481
   61SAPC  H11B 4723   3.519   4.035   6.987 -2.4599  0.4321  0.7846
   61SAPC     P 4724   3.627   4.287   6.754  0.2238  0.0829 -0.2646
   61SAPC   O13 4725   3.501   4.311   6.687  0.3406  0.2626 -0.2004
   61SAPC   O14 4726   3.677   4.385   6.856  0.1687  0.6808 -0.4407
   61SAPC   O12 4727   3.627   4.151   6.834 -0.0542 -0.5573  0.3144
   61SAPC   O11 4728   3.742   4.265   6.647  0.3979  0.4613 -0.0306
   61SAPC    C1 4729   3.783   4.135   6.602 -0.2843 -0.2663 -0.4075
   61SAPC    HA 4730   3.878   4.104   6.651  1.9342  2.1863 -2.7795
   61SAPC    HB 4731   3.706   4.057   6.617  1.1891 -1.4658  1.4572
   61SAPC    C2 4732   3.804   4.129   6.452  0.6125 -0.2601  0.2178
   61SAPC    HS 4733   3.882   4.205   6.430  0.2535 -0.0437 -0.3219
   61SAPC   O21 4734   3.681   4.152   6.383 -0.3956 -0.4860  0.1572
   61SAPC   C21 4735   3.642   4.287   6.370  0.9580  0.2791  0.2430
   61SAPC   O22 4736   3.711   4.384   6.388  0.5987 -0.2613  0.7911
   61SAPC   C22 4737   3.500   4.286   6.313  0.4149  0.3797 -0.1477
   61SAPC   H2R 4738   3.509   4.217   6.227  1.1950 -0.4483  0.5857
   61SAPC   H2S 4739   3.428   4.244   6.386 -0.3004 -0.0761 -1.0900
   61SAPC    C3 4740   3.858   3.998   6.412  0.4830 -0.6706  0.2825
   61SAPC    HX 4741   3.781   3.921   6.433 -0.8903  0.6561  0.2917
   61SAPC    HY 4742   3.947   3.980   6.477 -0.4165  1.9715  2.3899
   61SAPC   O31 4743   3.912   3.987   6.275  0.3962  0.4244  0.0229
   61SAPC   C31 4744   3.822   3.937   6.194  0.1732 -0.3525  0.3615
   61SAPC   O32 4745   3.722   3.870   6.219  0.1582 -0.7440  0.2639
   61SAPC   C32 4746   3.885   3.956   6.059 -0.0753  0.0151 -0.1964
   61SAPC   H2X 4747   3.936   3.861   6.033  0.2977  0.2177 -0.2157
   61SAPC   H2Y 4748   3.968   4.030   6.062  0.4363 -0.4591 -1.5669
   61SAPC   C23 4749   3.457   4.419   6.251  0.1693  0.6200 -0.0257
   61SAPC   H3R 4750   3.535   4.453   6.180  1.2719 -0.6371  0.5355
   61SAPC   H3S 4751   3.458   4.491   6.336 -1.4845  1.0701 -0.3519
   61SAPC   C24 4752   3.315   4.435   6.203 -0.0780 -0.2269  0.2391
   61SAPC   H4R 4753   3.292   4.542   6.185  0.2265 -0.4670 -1.8087
   61SAPC   H4S 4754   3.240   4.410   6.281 -0.6467 -0.0349 -0.2417
   61SAPC   C25 4755   3.276   4.363   6.081  0.2182 -0.2439  0.5502
   61SAPC   H5R 4756   3.236   4.264   6.110 -0.7266  0.3516  1.3291
   61SAPC   C26 4757   3.267   4.390   5.951  0.6784  0.0021 -0.1911
   61SAPC   H6R 4758   3.219   4.317   5.884 -2.7254 -0.3555  2.3523
   61SAPC   C27 4759   3.303   4.519   5.889 -0.2855  0.3099  0.2018
   61SAPC   H7R 4760   3.355   4.579   5.967  0.0757  0.6160 -0.2690
   61SAPC   H7S 4761   3.205   4.571   5.879  0.2202  1.6990  2.0278
   61SAPC   C28 4762   3.383   4.506   5.758 -0.1292 -0.7600  0.0476
   61SAPC   H8R 4763   3.490   4.508   5.784 -0.7033 -1.3527  2.6999
   61SAPC   C29 4764   3.353   4.495   5.626 -0.8745 -0.6008 -0.2806
   61SAPC   H9R 4765   3.428   4.494   5.546  0.0213 -0.5603  0.5442
   61SAPC  C210 4766   3.215   4.453   5.588  0.4188 -0.3955 -0.3330
   61SAPC  H10R 4767   3.137   4.445   5.666  2.0051  0.7312  1.4460
   61SAPC  H10S 4768   3.226   4.348   5.553  3.0775 -0.7574  1.2819
   61SAPC  C211 4769   3.155   4.538   5.485  0.0432  0.2498 -0.0398
   61SAPC  H11R 4770   3.101   4.626   5.523  0.6197  0.1010  1.1754
   61SAPC  C212 4771   3.162   4.533   5.347 -1.0034  0.3974 -0.0134
   61SAPC  H12R 4772   3.109   4.611   5.290 -1.0494 -0.6440 -1.4636
   61SAPC  C213 4773   3.258   4.442   5.277 -0.0631  0.5877 -0.0166
   61SAPC  H13R 4774   3.332   4.393   5.343  1.4594 -1.8822 -3.2876
   61SAPC  H13S 4775   3.321   4.513   5.219  1.0732 -0.1494  0.2978
   61SAPC  C214 4776   3.199   4.329   5.192  0.1112 -0.4033  0.7347
   61SAPC  H14R 4777   3.157   4.244   5.248 -1.5683 -0.3752 -0.3987
   61SAPC  C215 4778   3.186   4.328   5.060  0.0206  0.0462  0.6775
   61SAPC  H15R 4779   3.147   4.240   5.007  0.8948  0.1479 -0.1710
   61SAPC  C216 4780   3.232   4.438   4.968  0.1394 -0.4642  0.2948
   61SAPC  H16R 4781   3.331   4.409   4.927 -0.0269 -0.8384  0.1525
   61SAPC  H16S 4782   3.261   4.532   5.020 -0.5751  0.3852 -0.7915
   61SAPC  C217 4783   3.120   4.472   4.854 -0.0784 -0.2126 -0.2269
   61SAPC  H17R 4784   3.033   4.506   4.914  1.3918  1.0062  1.2849
   61SAPC  H17S 4785   3.095   4.377   4.802  0.3494  0.1818 -1.1777
   61SAPC  C218 4786   3.166   4.585   4.761 -0.1922 -0.1187  0.3940
   61SAPC  H18R 4787   3.252   4.559   4.695 -1.4852 -0.2172 -1.3516
   61SAPC  H18S 4788   3.220   4.655   4.828 -0.3079  2.2643 -1.8287
   61SAPC  C219 4789   3.055   4.638   4.679  0.3247 -0.4227 -0.0836
   61SAPC  H19R 4790   2.970   4.675   4.741  0.6326  0.7187 -0.3248
   61SAPC  H19S 4791   3.028   4.559   4.606  0.8001  1.3465 -2.3027
   61SAPC  C220 4792   3.097   4.753   4.582 -0.1318 -0.2632 -0.0558
   61SAPC  H20R 4793   3.145   4.836   4.638  2.0895 -0.0786 -2.0950
   61SAPC  H20S 4794   3.015   4.795   4.519 -0.5910 -1.6239 -0.3844
   61SAPC  H20T 4795   3.179   4.715   4.519 -0.1595  0.6016 -0.6374
   61SAPC   C33 4796   3.780   3.977   5.948 -0.0825 -0.1209  0.2599
   61SAPC   H3X 4797   3.771   4.088   5.943 -0.0130  0.0301  2.5050
   61SAPC   H3Y 4798   3.676   3.944   5.971 -1.4764  2.9603 -0.9816
   61SAPC   C34 4799   3.808   3.912   5.810 -1.4025  0.3796  1.2572
   61SAPC   H4X 4800   3.714   3.884   5.757 -1.6540  1.3273  1.1751
   61SAPC   H4Y 4801   3.869   3.823   5.835  1.0631  2.1129  1.8038
   61SAPC   C35 4802   3.896   4.011   5.717  0.7578  0.3348 -0.3560
   61SAPC   H5X 4803   3.976   4.059   5.777  0.8651 -0.4580  0.1449
   61SAPC   H5Y 4804   3.823   4.090   5.690 -0.4094 -0.7689 -0.5054
   61SAPC   C36 4805   3.955   3.960   5.583 -0.2229  0.1045  0.1838
   61SAPC   H6X 4806   3.873   3.893   5.550  1.1925 -1.1694 -0.8872
   61SAPC   H6Y 4807   4.050   3.904   5.600  0.3231  1.1502  0.6918
   61SAPC   C37 4808   3.979   4.085   5.499  0.1323 -0.0981 -0.0573
   61SAPC   H7X 4809   4.060   4.144   5.547  0.4619 -1.4361  1.1158
   61SAPC   H7Y 4810   3.881   4.135   5.513 -0.3825 -1.6107  2.6700
   61SAPC   C38 4811   4.022   4.049   5.359 -0.1091  0.2458  0.2913
   61SAPC   H8X 4812   3.977   3.955   5.322 -2.6596  1.2404  0.6699
   61SAPC   H8Y 4813   4.132   4.037   5.346 -0.4667 -0.8350 -2.4770
   61SAPC   C39 4814   3.983   4.148   5.248  0.2021 -0.7438 -0.4022
   61SAPC   H9X 4815   4.037   4.241   5.275  0.8919 -1.8370  2.2897
   61SAPC   H9Y 4816   3.874   4.167   5.247 -0.5279 -3.3827  4.2915
   61SAPC  C310 4817   4.032   4.104   5.103  0.3309  0.5172 -0.3868
   61SAPC  H10X 4818   3.974   4.173   5.039  1.0315  0.1163 -1.4868
   61SAPC  H10Y 4819   3.990   4.001   5.105  1.1868  0.1199 -1.5151
   61SAPC  C311 4820   4.174   4.115   5.055 -0.2902  0.6572  0.6691
   61SAPC  H11X 4821   4.237   4.041   5.109  0.4918  0.0882 -0.9669
   61SAPC  H11Y 4822   4.214   4.214   5.087 -0.2004  0.7023  0.4161
   61SAPC  C312 4823   4.196   4.101   4.905 -0.4969 -0.4029  0.1141
   61SAPC  H12X 4824   4.296   4.139   4.876 -0.5346 -1.7353 -2.0153
   61SAPC  H12Y 4825   4.112   4.164   4.867  0.8775  1.3791 -0.0979
   61SAPC  C313 4826   4.190   3.964   4.854  0.1305  0.0735 -0.0610
   61SAPC  H13X 4827   4.092   3.922   4.886 -0.9555  2.6481  0.2418
   61SAPC  H13Y 4828   4.265   3.897   4.901 -0.2969  0.3280  1.0303
   61SAPC  C314 4829   4.195   3.959   4.706 -0.0173 -0.7845 -0.2222
   61SAPC  H14X 4830   4.287   4.011   4.672 -1.7440  2.2451 -0.5222
   61SAPC  H14Y 4831   4.109   4.013   4.662  1.6521  1.1523 -1.2668
   61SAPC  C315 4832   4.188   3.815   4.647  0.4207 -0.2314 -0.2840
   61SAPC  H15X 4833   4.084   3.777   4.663  1.5165 -4.8856 -2.4560
   61SAPC  H15Y 4834   4.254   3.745   4.703 -1.3298  0.7890  3.3951
   61SAPC  C316 4835   4.221   3.811   4.495  0.1128 -0.5641  0.0409
   61SAPC  H16X 4836   4.192   3.909   4.452  2.2562  0.0180 -0.1632
   61SAPC  H16Y 4837   4.164   3.730   4.445 -0.3116  0.4890 -1.2450
   61SAPC  C317 4838   4.376   3.806   4.485  0.3567 -0.3655  0.0879
   61SAPC  H17X 4839   4.403   3.716   4.545 -3.2238  0.0048  2.5775
   61SAPC  H17Y 4840   4.418   3.899   4.530 -1.2486  0.3793  0.1111
   61SAPC  C318 4841   4.427   3.800   4.343  0.5273 -0.3591 -0.3505
   61SAPC  H18X 4842   4.536   3.785   4.328  0.7851 -0.9199  1.7702
   61SAPC  H18Y 4843   4.403   3.897   4.295 -1.2874 -1.4627 -1.7927
   61SAPC  H18Z 4844   4.380   3.717   4.286 -1.1312  0.6998 -0.5943
   62SAPC     N 4845   6.913   2.427   6.459  0.0832  0.6588 -0.0668
   62SAPC   C12 4846   6.844   2.330   6.557 -0.0031  0.6472 -0.9047
   62SAPC  H12A 4847   6.752   2.373   6.594 -1.7660 -2.3128 -1.5740
   62SAPC  H12B 4848   6.910   2.300   6.637 -0.6047 -0.5644 -0.8460
   62SAPC   C13 4849   7.029   2.362   6.388  0.4456 -0.4641 -0.1925
   62SAPC  H13A 4850   7.013   2.255   6.383 -0.1782 -0.3179 -1.5922
   62SAPC  H13B 4851   7.071   2.411   6.302  3.9707 -2.4400  0.1769
   62SAPC  H13C 4852   7.104   2.378   6.464 -1.0967  4.4903  0.6304
   62SAPC   C14 4853   6.824   2.466   6.344  0.6376  0.7734  0.0823
   62SAPC  H14A 4854   6.876   2.538   6.282 -1.3769  1.7075 -0.6028
   62SAPC  H14B 4855   6.802   2.380   6.282  3.3570  0.0682 -0.0619
   62SAPC  H14C 4856   6.734   2.514   6.378 -1.4156 -0.8373 -2.6024
   62SAPC   C15 4857   6.957   2.555   6.514 -0.3545  0.1591 -0.4493
   62SAPC  H15A 4858   6.876   2.606   6.563  1.1974  1.8456  0.4805
   62SAPC  H15B 4859   7.027   2.537   6.594  0.8740 -0.9226 -1.7047
   62SAPC  H15C 4860   7.002   2.620   6.441 -0.2366 -1.3326 -1.7660
   62SAPC   C11 4861   6.810   2.193   6.499 -0.0068  0.0822  0.0296
   62SAPC  H11A 4862   6.752   2.199   6.405 -0.1526 -0.3166  0.0910
   62SAPC  H11B 4863   6.750   2.137   6.574 -1.3330 -0.7686 -1.6013
   62SAPC     P 4864   6.998   2.023   6.578  0.9307 -0.0209 -0.7601
   62SAPC   O13 4865   7.042   2.107   6.694  0.2794 -0.1374 -0.5104
   62SAPC   O14 4866   6.904   1.910   6.605 -0.3527 -0.4252 -0.1233
   62SAPC   O12 4867   6.935   2.122   6.481  0.1852 -0.3009  0.2424
   62SAPC   O11 4868   7.126   1.963   6.511 -0.3462  0.0519 -0.4312
   62SAPC    C1 4869   7.202   2.024   6.402 -0.0184  0.2171  0.6351
   62SAPC    HA 4870   7.168   2.129   6.388  0.3128  0.0610 -1.9805
   62SAPC    HB 4871   7.308   2.037   6.431  0.1280  1.3108 -0.3053
   62SAPC    C2 4872   7.182   1.943   6.274  0.9466 -0.0143 -0.1016
   62SAPC    HS 4873   7.213   2.003   6.186 -0.7661  0.9463 -0.0881
   62SAPC   O21 4874   7.045   1.903   6.259 -0.3777 -0.5102  0.5882
   62SAPC   C21 4875   6.964   2.002   6.211 -0.3598 -0.8330 -0.2191
   62SAPC   O22 4876   7.010   2.116   6.206 -0.8951  0.0134  0.5076
   62SAPC   C22 4877   6.817   1.957   6.202  0.2566  0.1051  0.3881
   62SAPC   H2R 4878   6.815   1.848   6.185  2.4321  0.4021 -2.6461
   62SAPC   H2S 4879   6.779   1.968   6.305 -0.4609  0.3734  0.1042
   62SAPC    C3 4880   7.260   1.804   6.263 -0.4072  0.2360  0.2836
   62SAPC    HX 4881   7.204   1.734   6.328  1.7921 -0.9318  1.0164
   62SAPC    HY 4882   7.355   1.821   6.319 -0.3440  0.5444  0.0845
   62SAPC   O31 4883   7.287   1.753   6.129  0.4654 -0.3042  0.6847
   62SAPC   C31 4884   7.389   1.813   6.072 -0.1391  0.7309 -0.7191
   62SAPC   O32 4885   7.438   1.916   6.105 -0.4186  0.0429  0.5569
   62SAPC   C32 4886   7.463   1.710   5.988 -0.5370 -0.1547 -0.5830
   62SAPC   H2X 4887   7.482   1.628   6.061  0.1121  2.5610  2.5747
   62SAPC   H2Y 4888   7.560   1.753   5.952 -1.0889  1.2898 -0.4187
   62SAPC   C23 4889   6.719   2.047   6.118  0.0992  0.9125 -0.1655
   62SAPC   H3R 4890   6.735   2.049   6.008  0.3175 -0.3951 -0.1690
   62SAPC   H3S 4891   6.731   2.154   6.147 -2.1236  2.1338 -3.1874
   62SAPC   C24 4892   6.568   2.007   6.141 -0.1299 -0.2706  0.5670
   62SAPC   H4R 4893   6.558   1.897   6.129  2.8874 -0.5725 -0.0166
   62SAPC   H4S 4894   6.509   2.056   6.060  1.4360  1.4204  0.3788
   62SAPC   C25 4895   6.523   2.043   6.278  0.3607 -0.0920 -0.6064
   62SAPC   H5R 4896   6.541   1.973   6.361 -1.7330  0.6061  0.5201
   62SAPC   C26 4897   6.483   2.174   6.304 -0.1306  1.2128 -0.4197
   62SAPC   H6R 4898   6.461   2.200   6.409 -0.0317 -2.1195  0.5470
   62SAPC   C27 4899   6.490   2.281   6.201  0.7876  0.7155  0.3863
   62SAPC   H7R 4900   6.390   2.275   6.152  0.0560  0.5923  1.8327
   62SAPC   H7S 4901   6.563   2.253   6.122  1.9061  1.3191  1.1727
   62SAPC   C28 4902   6.502   2.425   6.234 -0.3894 -0.2692  0.6651
   62SAPC   H8R 4903   6.520   2.437   6.342  0.0079 -0.2929  0.6035
   62SAPC   C29 4904   6.480   2.526   6.146  0.0009 -0.4620  0.8782
   62SAPC   H9R 4905   6.501   2.628   6.180 -1.2734 -0.1753  0.8333
   62SAPC  C210 4906   6.453   2.508   5.999 -0.2000 -0.2994 -0.2065
   62SAPC  H10R 4907   6.457   2.399   5.976 -1.8045 -0.6293  0.8787
   62SAPC  H10S 4908   6.536   2.555   5.943  0.5661 -0.3439  0.8573
   62SAPC  C211 4909   6.315   2.544   5.947 -0.0285 -0.2741 -0.2616
   62SAPC  H11R 4910   6.248   2.572   6.030  2.0513 -0.2765  1.5014
   62SAPC  C212 4911   6.263   2.561   5.822 -0.4946  0.3089 -0.0621
   62SAPC  H12R 4912   6.159   2.592   5.806 -0.6661  0.5977  1.4156
   62SAPC  C213 4913   6.342   2.538   5.690  0.1531  0.4509 -0.3933
   62SAPC  H13R 4914   6.394   2.441   5.681 -1.5887 -0.5745  0.0047
   62SAPC  H13S 4915   6.403   2.630   5.678 -0.0268  0.8506  1.4292
   62SAPC  C214 4916   6.258   2.535   5.563 -0.8154 -0.4791 -0.3910
   62SAPC  H14R 4917   6.247   2.439   5.510  0.0524 -0.7041 -0.1743
   62SAPC  C215 4918   6.180   2.635   5.516 -0.0120 -0.2115 -0.0828
   62SAPC  H15R 4919   6.118   2.612   5.429 -1.8431  1.2818  0.7533
   62SAPC  C216 4920   6.167   2.775   5.568 -0.2998  0.6429 -0.0118
   62SAPC  H16R 4921   6.188   2.842   5.481 -0.6177 -0.1994 -0.7588
   62SAPC  H16S 4922   6.242   2.802   5.645 -0.2773  0.6803 -0.0466
   62SAPC  C217 4923   6.041   2.812   5.634  0.7307 -0.2376  0.3759
   62SAPC  H17R 4924   6.029   2.746   5.722 -0.6067 -1.0212 -0.3553
   62SAPC  H17S 4925   5.947   2.796   5.577  0.3399  0.6563  0.7363
   62SAPC  C218 4926   6.030   2.963   5.674  0.5160  0.6112  0.2621
   62SAPC  H18R 4927   6.033   3.026   5.583  0.8674  0.2669  0.0317
   62SAPC  H18S 4928   6.115   2.964   5.746  0.1863 -0.8343  0.7054
   62SAPC  C219 4929   5.906   2.998   5.752  0.1586  0.2537 -0.0882
   62SAPC  H19R 4930   5.816   2.961   5.699 -0.3123  1.6952 -0.3283
   62SAPC  H19S 4931   5.892   3.108   5.759  0.1570  0.2496 -0.0254
   62SAPC  C220 4932   5.911   2.946   5.900 -0.2288 -0.0624  0.2161
   62SAPC  H20R 4933   5.892   2.837   5.912  0.3438 -0.4123 -1.6438
   62SAPC  H20S 4934   5.831   2.998   5.957  1.0487  0.7814  1.2916
   62SAPC  H20T 4935   6.009   2.977   5.942 -1.1874  0.8725  1.8642
   62SAPC   C33 4936   7.370   1.644   5.882 -0.5756 -0.0786 -0.6466
   62SAPC   H3X 4937   7.274   1.626   5.934  0.9926  1.4525  3.1780
   62SAPC   H3Y 4938   7.406   1.545   5.846 -1.6217 -1.5092  2.0000
   62SAPC   C34 4939   7.347   1.739   5.763  0.0485 -0.1873  0.8025
   62SAPC   H4X 4940   7.326   1.843   5.797  1.5242  0.1310  0.7748
   62SAPC   H4Y 4941   7.268   1.687   5.704  2.3419 -3.0104 -0.0390
   62SAPC   C35 4942   7.471   1.757   5.669  1.2688 -0.2255 -0.4627
   62SAPC   H5X 4943   7.531   1.664   5.660  0.2142 -1.2549  1.9771
   62SAPC   H5Y 4944   7.538   1.830   5.719  0.0699  0.2807  0.4805
   62SAPC   C36 4945   7.432   1.807   5.535  0.5476 -0.2670  0.3176
   62SAPC   H6X 4946   7.511   1.859   5.477 -1.0663  1.7116 -0.2002
   62SAPC   H6Y 4947   7.341   1.869   5.546 -1.3567 -2.6506 -0.8599
   62SAPC   C37 4948   7.375   1.691   5.447 -0.4244  0.4025  0.4040
   62SAPC   H7X 4949   7.312   1.617   5.501 -0.6569 -0.7776 -1.4114
   62SAPC   H7Y 4950   7.456   1.635   5.394  0.8828  3.0305 -0.5597
   62SAPC   C38 4951   7.297   1.762   5.333  0.6276  0.0266 -0.1973
   62SAPC   H8X 4952   7.355   1.851   5.302  1.1096  0.1195  0.9143
   62SAPC   H8Y 4953   7.209   1.820   5.367  1.3390  1.7127 -1.1299
   62SAPC   C39 4954   7.251   1.660   5.225 -0.7293 -0.7432 -0.0314
   62SAPC   H9X 4955   7.211   1.575   5.284 -0.5351 -1.5615 -1.0500
   62SAPC   H9Y 4956   7.342   1.619   5.176 -1.2311 -1.3600 -0.4745
   62SAPC  C310 4957   7.156   1.714   5.120 -0.3325  0.2064 -0.0342
   62SAPC  H10X 4958   7.087   1.796   5.151 -1.9430 -1.2966  0.5016
   62SAPC  H10Y 4959   7.090   1.632   5.086 -0.8489  1.2395 -1.6805
   62SAPC  C311 4960   7.224   1.749   4.989 -0.8240 -0.3213  0.2865
   62SAPC  H11X 4961   7.301   1.671   4.970 -0.4761  0.3968 -1.3945
   62SAPC  H11Y 4962   7.268   1.849   5.008 -1.6008  0.6627 -2.5169
   62SAPC  C312 4963   7.130   1.757   4.869 -0.2786  0.9509  0.8824
   62SAPC  H12X 4964   7.038   1.818   4.870 -2.1911 -1.6704 -0.5691
   62SAPC  H12Y 4965   7.099   1.652   4.848  1.1937  1.0398 -2.2643
   62SAPC  C313 4966   7.196   1.802   4.739 -0.7670  0.4726  0.5503
   62SAPC  H13X 4967   7.275   1.724   4.733  0.1497  1.0185  3.6632
   62SAPC  H13Y 4968   7.253   1.896   4.755  1.6684 -0.9648  0.9550
   62SAPC  C314 4969   7.098   1.795   4.622 -0.8314 -0.3924  0.2865
   62SAPC  H14X 4970   7.001   1.847   4.640 -0.6356  0.3196 -0.6339
   62SAPC  H14Y 4971   7.068   1.691   4.598 -2.2525  0.6384 -2.8239
   62SAPC  C315 4972   7.163   1.863   4.498 -0.5045  0.5059 -0.6359
   62SAPC  H15X 4973   7.264   1.819   4.484 -0.9172 -0.0869 -1.9359
   62SAPC  H15Y 4974   7.170   1.974   4.502  0.1615  0.6601 -3.5113
   62SAPC  C316 4975   7.085   1.828   4.369 -0.1924  0.1900  0.7268
   62SAPC  H16X 4976   6.976   1.812   4.378  0.4116 -4.2512  2.9265
   62SAPC  H16Y 4977   7.128   1.729   4.342  0.7819  0.9253 -0.5368
   62SAPC  C317 4978   7.116   1.922   4.253 -1.2323  0.6085 -0.3296
   62SAPC  H17X 4979   7.227   1.933   4.259 -1.5805  5.9651  0.9748
   62SAPC  H17Y 4980   7.068   2.021   4.262 -0.3600  1.0690 -0.6714
   62SAPC  C318 4981   7.077   1.863   4.119  0.1646  0.3204 -0.0460
   62SAPC  H18X 4982   6.967   1.848   4.114  0.1251  0.3712  0.6244
   62SAPC  H18Y 4983   7.109   1.756   4.115  1.0834  0.5865 -0.0196
   62SAPC  H18Z 4984   7.115   1.929   4.039  1.2181  2.0132  1.7823
   63SAPC     N 4985   1.005   3.207   6.444 -0.4147  0.3319  0.2122
   63SAPC   C12 4986   1.123   3.242   6.354 -0.1409  0.3082 -0.5564
   63SAPC  H12A 4987   1.160   3.149   6.313  2.3465  1.2784 -0.7116
   63SAPC  H12B 4988   1.202   3.283   6.415 -1.0701  0.0818  0.8471
   63SAPC   C13 4989   0.890   3.158   6.354  0.4572  0.3081  0.3891
   63SAPC  H13A 4990   0.805   3.120   6.409  0.1268  1.9850  1.1199
   63SAPC  H13B 4991   0.856   3.236   6.287  1.8556  0.3001 -0.3611
   63SAPC  H13C 4992   0.916   3.084   6.280 -1.0252 -0.4832  0.6157
   63SAPC   C14 4993   1.043   3.095   6.531  0.1135  0.3860  0.3574
   63SAPC  H14A 4994   0.969   3.059   6.601  0.8503 -1.3052  0.3160
   63SAPC  H14B 4995   1.072   3.014   6.465  0.7196  0.9499 -0.0752
   63SAPC  H14C 4996   1.129   3.120   6.591  0.9453  0.4717 -0.8545
   63SAPC   C15 4997   0.968   3.326   6.522  0.5898 -0.1932 -0.3392
   63SAPC  H15A 4998   0.948   3.412   6.459  1.7476  1.2193  1.1349
   63SAPC  H15B 4999   0.887   3.322   6.594 -0.9680  4.4574 -1.4780
   63SAPC  H15C 5000   1.055   3.359   6.576 -0.0171  0.7659  0.0789
   63SAPC   C11 5001   1.109   3.340   6.234 -0.7850 -0.2861  0.4417
   63SAPC  H11A 5002   1.026   3.301   6.171 -0.2894  0.9127 -0.9981
   63SAPC  H11B 5003   1.202   3.335   6.173 -0.8958 -0.4187  0.2843
   63SAPC     P 5004   1.187   3.567   6.335 -0.0431  0.2429  0.2623
   63SAPC   O13 5005   1.143   3.627   6.460  0.2891  0.3643 -0.0337
   63SAPC   O14 5006   1.314   3.494   6.342  0.0230  0.0113  0.1945
   63SAPC   O12 5007   1.077   3.465   6.280 -0.2012  0.5688 -0.2520
   63SAPC   O11 5008   1.202   3.672   6.217  0.5083  0.5844 -0.0602
   63SAPC    C1 5009   1.089   3.748   6.166  0.2359 -0.3241 -0.3154
   63SAPC    HA 5010   1.006   3.767   6.237 -2.0988 -1.7390 -2.5078
   63SAPC    HB 5011   1.132   3.837   6.115  0.4314 -1.4446 -2.2119
   63SAPC    C2 5012   1.022   3.674   6.046 -0.4657 -0.1898  0.4262
   63SAPC    HS 5013   0.982   3.578   6.085  0.0035 -0.1929  0.8986
   63SAPC   O21 5014   1.113   3.654   5.933 -0.4962 -0.1565  0.0886
   63SAPC   C21 5015   1.086   3.555   5.848 -0.5135  0.1235  0.1949
   63SAPC   O22 5016   1.013   3.459   5.868  0.4301 -0.1850  0.1032
   63SAPC   C22 5017   1.182   3.567   5.728  0.2652  0.5519 -0.0085
   63SAPC   H2R 5018   1.217   3.672   5.728  0.5971  0.4840 -2.1681
   63SAPC   H2S 5019   1.255   3.483   5.736  0.7050  0.9351  0.0350
   63SAPC    C3 5020   0.891   3.752   5.988 -0.0319 -1.0729  0.0230
   63SAPC    HX 5021   0.928   3.854   5.963 -2.5875 -0.0919  0.0166
   63SAPC    HY 5022   0.818   3.769   6.070 -0.6499  0.0362 -0.7256
   63SAPC   O31 5023   0.835   3.688   5.870 -0.2047  0.1002  0.2491
   63SAPC   C31 5024   0.761   3.583   5.877 -0.3268 -0.0567  0.1499
   63SAPC   O32 5025   0.730   3.524   5.979  0.0633  0.3387  0.2950
   63SAPC   C32 5026   0.713   3.550   5.737  0.5156 -0.2968  0.4107
   63SAPC   H2X 5027   0.710   3.439   5.724 -1.5416 -0.0256 -2.4198
   63SAPC   H2Y 5028   0.787   3.588   5.664  1.0171 -1.0096  0.5355
   63SAPC   C23 5029   1.111   3.560   5.584  0.1954  0.8516 -0.4372
   63SAPC   H3R 5030   1.047   3.469   5.584 -1.5593  1.9423  2.4453
   63SAPC   H3S 5031   1.186   3.554   5.502 -0.9541 -0.1226 -1.4518
   63SAPC   C24 5032   1.036   3.686   5.545 -0.0234  0.1842  0.5799
   63SAPC   H4R 5033   1.105   3.771   5.527 -1.4405  1.2513 -0.0333
   63SAPC   H4S 5034   0.970   3.721   5.627  0.8749  0.8697  1.0289
   63SAPC   C25 5035   0.939   3.667   5.429 -0.5298  0.2653 -0.3660
   63SAPC   H5R 5036   0.849   3.621   5.472 -1.2514 -0.3669 -2.4648
   63SAPC   C26 5037   0.967   3.687   5.301 -0.2224 -0.2840  0.2452
   63SAPC   H6R 5038   0.893   3.667   5.221  0.4696  0.5101 -0.6167
   63SAPC   C27 5039   1.097   3.740   5.243 -0.3764 -0.1071  0.1821
   63SAPC   H7R 5040   1.090   3.717   5.134  2.9310  0.4077 -0.2557
   63SAPC   H7S 5041   1.187   3.681   5.271 -0.6990 -0.1665  1.1038
   63SAPC   C28 5042   1.137   3.887   5.275  0.6397  1.4315  0.0596
   63SAPC   H8R 5043   1.187   3.894   5.373  1.6341  0.1790 -0.3247
   63SAPC   C29 5044   1.146   3.985   5.186  0.7032  0.8099 -0.3168
   63SAPC   H9R 5045   1.185   4.078   5.228 -0.7069  2.0296 -1.5937
   63SAPC  C210 5046   1.115   3.992   5.039 -0.1235 -0.8807 -0.1721
   63SAPC  H10R 5047   1.044   4.072   5.010 -0.1101 -0.6530  0.4070
   63SAPC  H10S 5048   1.052   3.902   5.022 -0.9932 -0.1802 -0.7534
   63SAPC  C211 5049   1.244   3.989   4.960 -0.2686 -0.2051 -0.2460
   63SAPC  H11R 5050   1.306   3.900   4.981 -1.8864 -1.8214 -1.9325
   63SAPC  C212 5051   1.280   4.079   4.871 -0.1657  0.0619 -0.3637
   63SAPC  H12R 5052   1.380   4.070   4.825  0.3728  0.1922  0.7449
   63SAPC  C213 5053   1.208   4.196   4.823  0.8515 -0.3752 -0.0945
   63SAPC  H13R 5054   1.265   4.291   4.821  0.7547 -0.3170 -0.1412
   63SAPC  H13S 5055   1.116   4.217   4.883 -0.6879 -2.7599 -1.4490
   63SAPC  C214 5056   1.160   4.175   4.685  0.2378 -0.5055  0.5591
   63SAPC  H14R 5057   1.058   4.134   4.681 -1.0103  2.3462  0.6002
   63SAPC  C215 5058   1.229   4.204   4.572  0.0744 -0.3750 -0.2079
   63SAPC  H15R 5059   1.175   4.196   4.476  0.4503 -0.4856 -0.4149
   63SAPC  C216 5060   1.362   4.274   4.564 -0.5031 -0.0907  0.4103
   63SAPC  H16R 5061   1.434   4.201   4.520 -1.1053 -0.1265 -0.5398
   63SAPC  H16S 5062   1.406   4.296   4.664  0.0782  2.2819 -0.3006
   63SAPC  C217 5063   1.364   4.409   4.499 -0.4683 -0.3536 -0.0187
   63SAPC  H17R 5064   1.390   4.466   4.590 -1.0099 -0.5942  0.2912
   63SAPC  H17S 5065   1.272   4.450   4.452 -0.7228  0.4681  1.1439
   63SAPC  C218 5066   1.487   4.416   4.410  0.2507  0.0618  0.0801
   63SAPC  H18R 5067   1.555   4.339   4.453 -1.8448 -0.9553  1.7504
   63SAPC  H18S 5068   1.542   4.511   4.426  0.8522 -0.4130  0.9206
   63SAPC  C219 5069   1.470   4.393   4.254 -0.2387 -0.3854  0.1334
   63SAPC  H19R 5070   1.385   4.458   4.227  0.7114  0.7527 -0.1930
   63SAPC  H19S 5071   1.452   4.285   4.238  0.7023 -0.1801 -2.9036
   63SAPC  C220 5072   1.603   4.419   4.178  0.1333 -0.0184 -0.6591
   63SAPC  H20R 5073   1.572   4.427   4.071  0.6075 -2.3311 -1.0313
   63SAPC  H20S 5074   1.681   4.340   4.180 -1.0926 -1.2886 -1.5113
   63SAPC  H20T 5075   1.647   4.513   4.218 -0.4462  0.3715 -0.9133
   63SAPC   C33 5076   0.574   3.614   5.701  0.1971 -0.1734 -0.3675
   63SAPC   H3X 5077   0.570   3.716   5.743  0.9222  0.1246 -0.9901
   63SAPC   H3Y 5078   0.501   3.544   5.747 -0.8799  0.4504 -1.0917
   63SAPC   C34 5079   0.557   3.618   5.551 -0.1494  0.2299 -0.2591
   63SAPC   H4X 5080   0.449   3.595   5.536 -0.3904 -0.1098  1.7424
   63SAPC   H4Y 5081   0.622   3.539   5.509  0.3992  0.9284 -0.7673
   63SAPC   C35 5082   0.595   3.752   5.485  0.3445  0.6906  0.3507
   63SAPC   H5X 5083   0.677   3.811   5.532  0.5236  0.2354  0.6152
   63SAPC   H5Y 5084   0.504   3.814   5.499  0.3354  0.8956 -0.5903
   63SAPC   C36 5085   0.631   3.754   5.334  0.4727  1.5147 -1.1090
   63SAPC   H6X 5086   0.693   3.667   5.302  1.3892  1.4505  0.6673
   63SAPC   H6Y 5087   0.703   3.838   5.333  0.7581  1.4222  1.8726
   63SAPC   C37 5088   0.510   3.757   5.242 -0.4517 -0.0157  0.0647
   63SAPC   H7X 5089   0.453   3.850   5.259  2.4440  2.4182 -2.4704
   63SAPC   H7Y 5090   0.450   3.670   5.278  2.4361 -2.2302 -0.0305
   63SAPC   C38 5091   0.541   3.763   5.100  0.2345  0.4654  0.0373
   63SAPC   H8X 5092   0.587   3.663   5.083 -0.1926  0.4926 -1.4522
   63SAPC   H8Y 5093   0.622   3.833   5.073  2.2192 -0.7769  2.3930
   63SAPC   C39 5094   0.416   3.760   5.016 -0.3054  0.2710  0.3053
   63SAPC   H9X 5095   0.361   3.857   5.019  0.0924  0.5297 -0.3938
   63SAPC   H9Y 5096   0.349   3.678   5.050 -0.0378  0.4981  1.3954
   63SAPC  C310 5097   0.449   3.761   4.869 -0.4964 -0.1042 -0.2278
   63SAPC  H10X 5098   0.522   3.679   4.849 -2.0448 -1.6231  0.1458
   63SAPC  H10Y 5099   0.512   3.850   4.843 -1.9156  1.3138  1.0085
   63SAPC  C311 5100   0.331   3.754   4.771 -0.4323  0.8147 -0.8122
   63SAPC  H11X 5101   0.256   3.835   4.786 -0.9992  0.0881  0.4930
   63SAPC  H11Y 5102   0.281   3.655   4.779  0.6700  0.2053 -1.2734
   63SAPC  C312 5103   0.385   3.752   4.630  0.7028  0.1246  0.1984
   63SAPC  H12X 5104   0.449   3.667   4.599  1.7328  0.5873  1.0361
   63SAPC  H12Y 5105   0.449   3.839   4.604 -0.1726  0.1461 -2.1975
   63SAPC  C313 5106   0.268   3.761   4.521 -0.5618  0.0211  0.1287
   63SAPC  H13X 5107   0.189   3.694   4.560 -0.2363  0.0126  0.7788
   63SAPC  H13Y 5108   0.299   3.720   4.423  1.0829  1.2462  0.0987
   63SAPC  C314 5109   0.198   3.896   4.507 -0.0935  0.3451  0.3739
   63SAPC  H14X 5110   0.281   3.964   4.476 -0.1849  0.5452  0.5663
   63SAPC  H14Y 5111   0.162   3.930   4.606  1.6448 -3.0617  2.3847
   63SAPC  C315 5112   0.081   3.900   4.407  0.1165 -0.2467 -0.7556
   63SAPC  H15X 5113   0.022   3.992   4.426 -3.3520 -2.1064 -1.7073
   63SAPC  H15Y 5114   0.018   3.812   4.431  1.1776 -1.0723 -0.9158
   63SAPC  C316 5115   0.124   3.918   4.262 -0.2232  0.0375  0.1130
   63SAPC  H16X 5116   0.034   3.908   4.198  0.0385  0.6263 -0.3537
   63SAPC  H16Y 5117   0.190   3.838   4.222 -0.3672  0.5979 -1.2958
   63SAPC  C317 5118   0.173   4.057   4.224  0.7272 -0.3331 -0.7274
   63SAPC  H17X 5119   0.266   4.071   4.283 -0.8654  1.0365  1.5886
   63SAPC  H17Y 5120   0.102   4.133   4.263  0.2330 -1.3013  0.3237
   63SAPC  C318 5121   0.196   4.082   4.073  0.1970  0.0341  0.3768
   63SAPC  H18X 5122   0.109   4.043   4.018 -0.7669  2.8814 -0.2859
   63SAPC  H18Y 5123   0.287   4.024   4.045 -1.2529 -1.9363 -0.3989
   63SAPC  H18Z 5124   0.214   4.190   4.054 -1.2610  0.6691  2.3501
   64SAPC     N 5125   5.893   3.481   6.642  0.1999 -0.2677 -0.1714
   64SAPC   C12 5126   5.912   3.547   6.500 -0.5225 -0.2352 -0.2890
   64SAPC  H12A 5127   5.816   3.595   6.484 -1.4268 -2.0522 -0.6426
   64SAPC  H12B 5128   5.906   3.472   6.422 -5.0504  0.0511 -0.5181
   64SAPC   C13 5129   6.040   3.464   6.686 -0.4640 -0.2641 -0.7904
   64SAPC  H13A 5130   6.080   3.562   6.708 -1.7552 -0.1978  1.6278
   64SAPC  H13B 5131   6.050   3.403   6.775  1.1451 -0.1087 -0.8342
   64SAPC  H13C 5132   6.093   3.413   6.607  0.7434  0.1081 -0.2420
   64SAPC   C14 5133   5.818   3.576   6.728  0.2402 -0.0731 -1.0079
   64SAPC  H14A 5134   5.713   3.585   6.701  0.0349  3.0412  0.4347
   64SAPC  H14B 5135   5.819   3.539   6.829 -3.9616 -0.1310 -0.8182
   64SAPC  H14C 5136   5.859   3.675   6.730 -0.5509  0.3013 -2.1200
   64SAPC   C15 5137   5.812   3.358   6.630  0.0942  1.2714  0.0007
   64SAPC  H15A 5138   5.708   3.387   6.640 -0.5376 -1.0776  0.8787
   64SAPC  H15B 5139   5.827   3.300   6.541 -1.1076 -0.9808  1.1742
   64SAPC  H15C 5140   5.836   3.294   6.714  3.3532  1.4852 -0.6193
   64SAPC   C11 5141   6.025   3.649   6.474  0.3590 -0.4277 -0.6157
   64SAPC  H11A 5142   6.033   3.671   6.365 -1.6783  2.7292 -0.2413
   64SAPC  H11B 5143   6.122   3.597   6.487 -0.8349 -2.2001  2.1436
   64SAPC     P 5144   5.931   3.890   6.527  0.2340  0.6260 -0.2096
   64SAPC   O13 5145   5.786   3.859   6.531 -0.1085  0.7540 -0.2732
   64SAPC   O14 5146   5.986   3.988   6.618 -0.0715  0.5712 -0.4426
   64SAPC   O12 5147   6.015   3.758   6.558 -0.2851  0.2568 -0.1671
   64SAPC   O11 5148   5.964   3.928   6.379  0.3997 -0.2784 -0.1566
   64SAPC    C1 5149   6.077   4.011   6.351 -0.5335 -0.2049  0.1200
   64SAPC    HA 5150   6.075   4.111   6.401  2.0355  1.3594 -2.5829
   64SAPC    HB 5151   6.169   3.959   6.385  0.8670  2.6283  0.9675
   64SAPC    C2 5152   6.079   4.035   6.196  0.3452  0.1447 -0.4096
   64SAPC    HS 5153   6.153   4.117   6.181  1.1134 -0.8774 -2.7574
   64SAPC   O21 5154   5.950   4.069   6.154  0.3968 -0.2684  0.0438
   64SAPC   C21 5155   5.923   4.203   6.163  0.1284 -0.0827 -0.1701
   64SAPC   O22 5156   5.979   4.283   6.238 -0.5271  0.5623 -0.0397
   64SAPC   C22 5157   5.794   4.234   6.082 -0.3650  0.8126  0.1050
   64SAPC   H2R 5158   5.709   4.164   6.096  0.2076  0.2976  1.1832
   64SAPC   H2S 5159   5.751   4.331   6.114 -1.7409  0.8849 -1.8256
   64SAPC    C3 5160   6.132   3.907   6.128  0.3081 -0.3853 -0.9922
   64SAPC    HX 5161   6.080   3.812   6.154  1.3371 -0.7022  0.0104
   64SAPC    HY 5162   6.225   3.894   6.187 -0.9327  0.0910  1.1873
   64SAPC   O31 5163   6.157   3.925   5.991 -0.3147  0.6165 -0.0022
   64SAPC   C31 5164   6.057   3.886   5.917  0.0313 -0.6001  0.1046
   64SAPC   O32 5165   5.946   3.854   5.960 -0.2039  0.2764  0.0604
   64SAPC   C32 5166   6.086   3.879   5.767 -0.3321 -0.5001 -0.0717
   64SAPC   H2X 5167   6.009   3.807   5.732 -2.3181  1.1612  0.7049
   64SAPC   H2Y 5168   6.191   3.845   5.752  0.0535  0.2429  0.8560
   64SAPC   C23 5169   5.814   4.253   5.931  0.6929 -0.1327  0.0537
   64SAPC   H3R 5170   5.865   4.164   5.888 -0.1921  0.0046 -1.3215
   64SAPC   H3S 5171   5.885   4.333   5.903  1.9849 -1.3908 -0.3667
   64SAPC   C24 5172   5.683   4.255   5.861  0.1521  0.1271 -0.0920
   64SAPC   H4R 5173   5.635   4.161   5.895  2.7913 -1.2114  0.1680
   64SAPC   H4S 5174   5.702   4.240   5.752  0.1507  1.9827 -0.3953
   64SAPC   C25 5175   5.603   4.384   5.873  0.0674  0.1085  0.0435
   64SAPC   H5R 5176   5.623   4.444   5.963  1.4673 -1.8550  1.1185
   64SAPC   C26 5177   5.516   4.430   5.781 -0.1135 -0.5902 -0.1765
   64SAPC   H6R 5178   5.460   4.523   5.799 -0.8728 -0.6446 -2.0743
   64SAPC   C27 5179   5.475   4.356   5.656 -0.1070 -0.4394 -0.8204
   64SAPC   H7R 5180   5.385   4.405   5.612  0.0735 -0.1285 -0.8430
   64SAPC   H7S 5181   5.441   4.255   5.688  0.0030  0.2203  1.5140
   64SAPC   C28 5182   5.564   4.335   5.542  0.0517 -0.5948  0.0937
   64SAPC   H8R 5183   5.637   4.253   5.555  0.6613  0.0131  0.6272
   64SAPC   C29 5184   5.584   4.407   5.430 -0.2656  0.4789 -0.5636
   64SAPC   H9R 5185   5.661   4.380   5.357  1.3316 -2.2718  1.9310
   64SAPC  C210 5186   5.507   4.534   5.394 -0.3399  0.0581  0.4189
   64SAPC  H10R 5187   5.511   4.599   5.483  2.6697 -1.0310  1.2010
   64SAPC  H10S 5188   5.401   4.505   5.374 -0.4758  0.1738  0.9638
   64SAPC  C211 5189   5.564   4.619   5.286  0.4273  0.1385 -0.2042
   64SAPC  H11R 5190   5.647   4.678   5.328  1.8692 -1.6558 -0.4270
   64SAPC  C212 5191   5.530   4.646   5.158 -0.3030  0.5273  0.2219
   64SAPC  H12R 5192   5.600   4.714   5.108 -0.3542  0.8808  0.6258
   64SAPC  C213 5193   5.418   4.595   5.072  0.1959 -0.3503 -0.4343
   64SAPC  H13R 5194   5.340   4.551   5.138  0.1264 -1.2810 -1.1269
   64SAPC  H13S 5195   5.449   4.510   5.009 -1.2900 -0.6983 -0.7343
   64SAPC  C214 5196   5.368   4.711   4.993  0.5512 -0.0064 -0.3593
   64SAPC  H14R 5197   5.307   4.782   5.051  0.9593  0.1816 -0.1566
   64SAPC  C215 5198   5.405   4.731   4.864  0.1190 -0.6192  0.4848
   64SAPC  H15R 5199   5.364   4.825   4.823  1.0021 -0.7702 -0.8085
   64SAPC  C216 5200   5.475   4.627   4.780  0.8147 -0.7098 -0.0503
   64SAPC  H16R 5201   5.426   4.528   4.789  0.9857 -0.6663  1.7035
   64SAPC  H16S 5202   5.584   4.624   4.800  0.7636 -0.1496  0.3360
   64SAPC  C217 5203   5.465   4.666   4.624 -0.1167  0.3817 -1.2752
   64SAPC  H17R 5204   5.500   4.769   4.603  0.5210 -0.3390 -4.1822
   64SAPC  H17S 5205   5.360   4.640   4.599 -1.1265 -0.4282  3.0572
   64SAPC  C218 5206   5.568   4.578   4.552 -0.2677  0.1594  0.4893
   64SAPC  H18R 5207   5.539   4.569   4.445  1.1012  2.1452 -0.1128
   64SAPC  H18S 5208   5.588   4.476   4.593  0.1460 -1.1912 -2.7648
   64SAPC  C219 5209   5.710   4.637   4.545 -0.5099 -0.2501  0.5432
   64SAPC  H19R 5210   5.746   4.601   4.644 -0.1430 -1.6174 -0.0656
   64SAPC  H19S 5211   5.706   4.745   4.521 -0.4586 -0.8356 -2.4155
   64SAPC  C220 5212   5.800   4.565   4.447 -0.0186 -0.0042  0.0423
   64SAPC  H20R 5213   5.805   4.456   4.469  2.3422  0.0060 -0.1468
   64SAPC  H20S 5214   5.907   4.595   4.442  0.0896 -0.4243 -0.2519
   64SAPC  H20T 5215   5.760   4.571   4.344 -0.4593  2.0326  0.2934
   64SAPC   C33 5216   6.081   4.012   5.693  0.4229 -0.6812 -0.4387
   64SAPC   H3X 5217   6.134   4.093   5.747  2.1924 -1.5596 -0.7722
   64SAPC   H3Y 5218   5.975   4.043   5.680  0.3340 -1.4389 -1.7017
   64SAPC   C34 5219   6.140   4.009   5.555 -0.0962  0.1530 -0.2375
   64SAPC   H4X 5220   6.077   3.942   5.492 -1.0944 -0.2766  1.1587
   64SAPC   H4Y 5221   6.240   3.963   5.570  0.0661  0.3363 -0.7532
   64SAPC   C35 5222   6.151   4.144   5.493  0.4248 -0.2147 -0.0650
   64SAPC   H5X 5223   6.203   4.130   5.396 -2.6737 -0.8588 -1.7826
   64SAPC   H5Y 5224   6.212   4.216   5.550 -0.4377  0.5629 -0.0948
   64SAPC   C36 5225   6.024   4.221   5.464  0.6329 -0.2010  0.0060
   64SAPC   H6X 5226   5.973   4.215   5.563  1.8599 -0.4593  0.6396
   64SAPC   H6Y 5227   5.953   4.174   5.392  0.0029  0.1752  0.3702
   64SAPC   C37 5228   6.042   4.370   5.447 -0.3884  0.3622  0.2497
   64SAPC   H7X 5229   6.126   4.398   5.514  0.9292 -0.6864 -0.9060
   64SAPC   H7Y 5230   5.945   4.419   5.469 -1.1198 -0.4525 -1.0448
   64SAPC   C38 5231   6.090   4.419   5.308  0.2951  0.7213  0.4587
   64SAPC   H8X 5232   6.172   4.356   5.268 -0.3571 -0.5856  1.1090
   64SAPC   H8Y 5233   6.135   4.516   5.336 -0.5382  0.8572  1.3814
   64SAPC   C39 5234   5.979   4.433   5.204 -0.6048 -0.0632 -0.0128
   64SAPC   H9X 5235   5.885   4.470   5.251  0.6548 -0.1338  2.7784
   64SAPC   H9Y 5236   5.951   4.329   5.175 -2.0769  0.1887  0.3973
   64SAPC  C310 5237   6.015   4.523   5.088 -0.0048  0.0156  0.3724
   64SAPC  H10X 5238   6.026   4.630   5.118  0.0686  0.3394 -0.7700
   64SAPC  H10Y 5239   5.942   4.516   5.005  0.5475  0.3584 -0.1465
   64SAPC  C311 5240   6.142   4.482   5.014 -0.0906  0.0479 -0.1136
   64SAPC  H11X 5241   6.133   4.373   4.999 -0.9839  0.4102 -2.6055
   64SAPC  H11Y 5242   6.234   4.502   5.073  0.8042 -0.8864 -1.1549
   64SAPC  C312 5243   6.165   4.538   4.876 -0.3286 -0.0375 -0.2921
   64SAPC  H12X 5244   6.092   4.485   4.812 -0.7220  1.7098 -1.3723
   64SAPC  H12Y 5245   6.269   4.515   4.845 -0.3510 -2.7600  1.3779
   64SAPC  C313 5246   6.157   4.694   4.873 -0.0745  0.1004 -0.2606
   64SAPC  H13X 5247   6.206   4.743   4.961 -1.3930  1.0563 -0.0257
   64SAPC  H13Y 5248   6.052   4.729   4.867 -0.7614 -1.5170  1.2999
   64SAPC  C314 5249   6.222   4.752   4.754  0.1009  0.1065  0.8616
   64SAPC  H14X 5250   6.333   4.749   4.755  0.1006 -0.7907  2.6148
   64SAPC  H14Y 5251   6.196   4.860   4.750  0.1093  0.0866  0.0847
   64SAPC  C315 5252   6.174   4.685   4.624  0.1947  0.0046 -0.0850
   64SAPC  H15X 5253   6.064   4.666   4.623  0.0427  0.7495  0.9141
   64SAPC  H15Y 5254   6.226   4.587   4.617  1.4124  0.7167 -1.3036
   64SAPC  C316 5255   6.229   4.760   4.495 -0.4822  0.1586 -0.4174
   64SAPC  H16X 5256   6.332   4.793   4.522 -0.0535 -1.2512 -0.2222
   64SAPC  H16Y 5257   6.159   4.845   4.485  0.8082  1.6455  2.1460
   64SAPC  C317 5258   6.236   4.673   4.368  0.0913  0.5105  0.9565
   64SAPC  H17X 5259   6.142   4.615   4.364  1.1333 -1.3369  1.9492
   64SAPC  H17Y 5260   6.310   4.591   4.381 -1.7161 -1.4216 -0.4045
   64SAPC  C318 5261   6.266   4.757   4.240  0.5021 -0.2734  0.2123
   64SAPC  H18X 5262   6.361   4.810   4.261 -0.6389  0.9777  2.6009
   64SAPC  H18Y 5263   6.178   4.821   4.218 -1.3056 -2.8636 -0.5580
   64SAPC  H18Z 5264   6.274   4.679   4.161 -1.2852  2.0182 -2.4096
   65SAPC     N 5265   4.009   2.584   2.531 -0.1552  0.1541  0.3707
   65SAPC   C12 5266   3.968   2.505   2.654 -0.2078  0.2504  0.2392
   65SAPC  H12A 5267   3.926   2.414   2.615 -0.7490  0.4012  0.4599
   65SAPC  H12B 5268   3.887   2.561   2.698  0.9391  2.9515 -0.8006
   65SAPC   C13 5269   4.074   2.500   2.417 -0.5128  0.3425 -0.4034
   65SAPC  H13A 5270   4.098   2.570   2.339  0.1866  1.9937  1.2197
   65SAPC  H13B 5271   4.165   2.449   2.445  0.0222  0.3917 -1.9492
   65SAPC  H13C 5272   4.005   2.430   2.371 -1.3715  2.1101 -1.9700
   65SAPC   C14 5273   3.884   2.651   2.480 -0.3286 -0.0721  0.1885
   65SAPC  H14A 5274   3.791   2.598   2.492 -0.3340 -0.3502 -0.9301
   65SAPC  H14B 5275   3.873   2.741   2.538  1.1849 -0.1486  0.6506
   65SAPC  H14C 5276   3.894   2.653   2.372 -0.5484  1.2736  0.1812
   65SAPC   C15 5277   4.114   2.692   2.562  0.3033 -0.3355 -0.1901
   65SAPC  H15A 5278   4.062   2.760   2.627 -0.1987  0.0943 -1.0304
   65SAPC  H15B 5279   4.203   2.646   2.603  1.5378  1.7595 -0.4063
   65SAPC  H15C 5280   4.159   2.743   2.478 -0.5666  1.6121  0.4687
   65SAPC   C11 5281   4.076   2.462   2.757  0.8565 -0.3453 -0.0474
   65SAPC  H11A 5282   4.025   2.433   2.851 -0.4986  0.4310 -0.5123
   65SAPC  H11B 5283   4.140   2.551   2.775  0.7992 -0.0793 -1.0691
   65SAPC     P 5284   4.137   2.217   2.714  0.3547 -0.4061 -0.0605
   65SAPC   O13 5285   4.046   2.193   2.600 -1.1599  0.2954  0.2033
   65SAPC   O14 5286   4.266   2.142   2.723 -0.5642  0.0118  0.3088
   65SAPC   O12 5287   4.166   2.364   2.712 -0.1548 -0.7449 -0.0591
   65SAPC   O11 5288   4.050   2.199   2.845 -0.3445 -0.3614  0.0573
   65SAPC    C1 5289   4.084   2.099   2.946  0.3148 -0.2929 -0.1378
   65SAPC    HA 5290   3.987   2.051   2.972 -1.3701  1.8335 -2.0494
   65SAPC    HB 5291   4.159   2.023   2.914 -1.6768 -2.0027 -1.0655
   65SAPC    C2 5292   4.150   2.163   3.071 -0.5561  0.3680  0.3062
   65SAPC    HS 5293   4.137   2.090   3.154  3.3004  0.3260  1.0412
   65SAPC   O21 5294   4.097   2.289   3.106 -0.6688  0.1319  0.3124
   65SAPC   C21 5295   3.976   2.291   3.135  0.0701 -0.3612  0.5609
   65SAPC   O22 5296   3.899   2.197   3.148 -0.3609  0.1777 -0.0768
   65SAPC   C22 5297   3.934   2.437   3.157  0.3722  0.6575 -0.0636
   65SAPC   H2R 5298   4.024   2.497   3.131 -0.1726  1.5637  0.0887
   65SAPC   H2S 5299   3.848   2.449   3.089 -0.6515 -0.6502  0.9518
   65SAPC    C3 5300   4.302   2.168   3.062 -0.3595 -0.1278  0.5513
   65SAPC    HX 5301   4.332   2.256   3.002  0.0623 -0.1544  0.7199
   65SAPC    HY 5302   4.335   2.072   3.017 -0.6464  0.0622 -0.0672
   65SAPC   O31 5303   4.349   2.181   3.195 -0.0961 -0.2386  0.7044
   65SAPC   C31 5304   4.477   2.163   3.210  0.7605  0.3406 -0.6031
   65SAPC   O32 5305   4.557   2.133   3.127 -0.0387 -0.1463 -0.1689
   65SAPC   C32 5306   4.508   2.176   3.362 -0.9793  0.9036  0.2626
   65SAPC   H2X 5307   4.462   2.092   3.418  1.6456 -0.6790  0.2065
   65SAPC   H2Y 5308   4.458   2.267   3.402 -2.5724  0.1607  0.0311
   65SAPC   C23 5309   3.888   2.474   3.300  0.6907  0.2442 -0.5178
   65SAPC   H3R 5310   3.808   2.411   3.342  1.8917 -1.6004 -0.8755
   65SAPC   H3S 5311   3.836   2.571   3.285 -0.7255 -0.3237  0.4984
   65SAPC   C24 5312   4.004   2.490   3.398  0.0422 -0.2622  0.6408
   65SAPC   H4R 5313   4.067   2.576   3.369  0.4699 -0.7232  0.1694
   65SAPC   H4S 5314   4.067   2.399   3.385  1.2428  0.7628 -1.2117
   65SAPC   C25 5315   3.958   2.515   3.538  0.6926  0.2709 -1.0766
   65SAPC   H5R 5316   3.900   2.605   3.563  0.8500 -0.3656  1.8954
   65SAPC   C26 5317   3.970   2.423   3.636 -0.1231 -0.7224  0.6457
   65SAPC   H6R 5318   3.935   2.457   3.735 -1.9478 -1.2068  0.1997
   65SAPC   C27 5319   4.033   2.285   3.632 -0.0729 -0.1316 -0.1072
   65SAPC   H7R 5320   3.996   2.225   3.547 -0.6999  0.3993 -0.2196
   65SAPC   H7S 5321   3.991   2.232   3.720  0.4311 -1.5421 -0.6953
   65SAPC   C28 5322   4.181   2.303   3.637 -0.0151  0.5793 -0.1439
   65SAPC   H8R 5323   4.245   2.290   3.549  0.8822 -0.9603  0.6958
   65SAPC   C29 5324   4.254   2.309   3.749  0.1040  0.4004  0.1761
   65SAPC   H9R 5325   4.363   2.299   3.741  0.3132  2.5884 -0.2990
   65SAPC  C210 5326   4.203   2.314   3.893 -0.6976  0.4276 -0.7909
   65SAPC  H10R 5327   4.272   2.250   3.951 -1.4106 -0.7053 -1.1660
   65SAPC  H10S 5328   4.109   2.258   3.913  0.1702 -0.9520 -0.4353
   65SAPC  C211 5329   4.191   2.445   3.970 -0.1016  0.2302  0.3563
   65SAPC  H11R 5330   4.154   2.532   3.914 -0.7196  1.6593  2.8708
   65SAPC  C212 5331   4.221   2.468   4.096 -0.3231 -0.6588 -0.0417
   65SAPC  H12R 5332   4.195   2.566   4.140 -0.6577 -0.3571 -0.9080
   65SAPC  C213 5333   4.295   2.375   4.190  0.3219 -0.4447  0.0009
   65SAPC  H13R 5334   4.404   2.397   4.190 -0.1334  2.1457  0.7753
   65SAPC  H13S 5335   4.261   2.271   4.169 -2.7000  0.3755  0.3143
   65SAPC  C214 5336   4.255   2.385   4.331 -0.1492  0.2953  0.0396
   65SAPC  H14R 5337   4.176   2.459   4.350 -0.5695 -0.4759  1.5070
   65SAPC  C215 5338   4.293   2.305   4.431 -0.7795  0.5750  0.2204
   65SAPC  H15R 5339   4.253   2.322   4.532  0.3361 -1.7410  1.1048
   65SAPC  C216 5340   4.400   2.198   4.413 -0.5887  0.0324 -0.6326
   65SAPC  H16R 5341   4.466   2.215   4.325  0.8541 -0.0181  0.4151
   65SAPC  H16S 5342   4.347   2.101   4.418 -1.1822  0.3214 -1.1480
   65SAPC  C217 5343   4.495   2.194   4.534  0.2792  0.3428 -0.6058
   65SAPC  H17R 5344   4.541   2.294   4.548 -4.1411  2.4349  0.7406
   65SAPC  H17S 5345   4.582   2.129   4.511  0.3583 -0.4149  1.5626
   65SAPC  C218 5346   4.426   2.142   4.662  0.5275 -0.0374 -0.2571
   65SAPC  H18R 5347   4.426   2.034   4.633  3.0299 -0.1863  0.1017
   65SAPC  H18S 5348   4.319   2.170   4.673 -0.2659 -1.7388 -2.5584
   65SAPC  C219 5349   4.514   2.173   4.785  0.2423  0.1858  0.3734
   65SAPC  H19R 5350   4.506   2.284   4.789 -0.3858  0.1448  0.3852
   65SAPC  H19S 5351   4.617   2.138   4.765  0.5326  0.4658  1.3244
   65SAPC  C220 5352   4.448   2.113   4.909  0.1819 -0.1473  0.0635
   65SAPC  H20R 5353   4.337   2.110   4.922 -0.0128  3.0940 -0.0365
   65SAPC  H20S 5354   4.492   2.172   4.992  0.1177  0.9159 -0.6313
   65SAPC  H20T 5355   4.480   2.007   4.914  2.7289  0.6350  2.0692
   65SAPC   C33 5356   4.658   2.171   3.402 -0.5810  0.2118  0.1447
   65SAPC   H3X 5357   4.712   2.238   3.332  0.4121 -0.0591  0.6366
   65SAPC   H3Y 5358   4.696   2.068   3.386  0.9073  0.3938  2.1332
   65SAPC   C34 5359   4.674   2.229   3.542  0.3020 -0.4187 -0.6873
   65SAPC   H4X 5360   4.639   2.335   3.542  0.0579 -0.4817  0.5583
   65SAPC   H4Y 5361   4.782   2.224   3.567 -0.1644 -0.4291  1.5360
   65SAPC   C35 5362   4.615   2.147   3.654  0.7255  0.3166  0.2619
   65SAPC   H5X 5363   4.674   2.055   3.668 -0.0119  0.1514  2.6551
   65SAPC   H5Y 5364   4.511   2.113   3.639  0.3028  0.8611  1.8084
   65SAPC   C36 5365   4.616   2.226   3.786  0.2931  1.0308 -0.3444
   65SAPC   H6X 5366   4.550   2.315   3.784  0.4869  1.1660 -0.8030
   65SAPC   H6Y 5367   4.719   2.266   3.795  0.7429 -0.3878  1.9284
   65SAPC   C37 5368   4.601   2.138   3.913 -0.0162 -0.0856 -0.0636
   65SAPC   H7X 5369   4.687   2.068   3.904  0.4512  0.3933  0.6067
   65SAPC   H7Y 5370   4.508   2.079   3.906 -0.1503 -0.4675  3.1707
   65SAPC   C38 5371   4.608   2.212   4.048  0.2749  0.1151 -0.0823
   65SAPC   H8X 5372   4.560   2.142   4.119 -0.1876 -0.8928 -1.3651
   65SAPC   H8Y 5373   4.554   2.308   4.032 -0.9207 -0.9460 -3.0695
   65SAPC   C39 5374   4.750   2.252   4.089  0.2458  0.5337  1.0198
   65SAPC   H9X 5375   4.791   2.329   4.020 -1.1100 -0.1629 -0.6447
   65SAPC   H9Y 5376   4.811   2.160   4.073  4.7024  3.3553 -0.0792
   65SAPC  C310 5377   4.758   2.280   4.241 -0.0865 -0.7843  0.2794
   65SAPC  H10X 5378   4.710   2.193   4.292 -2.2764  1.0578  1.5747
   65SAPC  H10Y 5379   4.686   2.361   4.266 -0.1083 -0.1286 -1.7878
   65SAPC  C311 5380   4.890   2.322   4.293 -0.4537  0.0140 -0.2230
   65SAPC  H11X 5381   4.936   2.399   4.227  1.1306 -0.5941  0.1326
   65SAPC  H11Y 5382   4.968   2.243   4.287  0.9141  1.2845  0.1933
   65SAPC  C312 5383   4.886   2.359   4.443  0.8647 -0.5166  0.0388
   65SAPC  H12X 5384   4.831   2.280   4.498  0.7714  0.6641  1.6834
   65SAPC  H12Y 5385   4.814   2.442   4.457  0.9573 -0.7433  2.1698
   65SAPC  C313 5386   5.014   2.372   4.522  0.1261 -0.1625  0.1257
   65SAPC  H13X 5387   5.066   2.274   4.536  0.0789 -0.0133  1.4403
   65SAPC  H13Y 5388   4.980   2.402   4.623  1.6803 -0.1072  0.6553
   65SAPC  C314 5389   5.122   2.465   4.473 -0.3108  0.5522  0.4361
   65SAPC  H14X 5390   5.168   2.430   4.378 -0.5785 -0.6907  0.7471
   65SAPC  H14Y 5391   5.208   2.463   4.542 -0.3772 -1.5758  0.5010
   65SAPC  C315 5392   5.084   2.616   4.474 -1.0819 -0.1547 -0.0793
   65SAPC  H15X 5393   5.077   2.630   4.584 -1.0503  0.3907 -0.1418
   65SAPC  H15Y 5394   4.984   2.635   4.431 -1.1477  0.2673  0.2516
   65SAPC  C316 5395   5.193   2.712   4.430  0.1701  0.0779  0.5700
   65SAPC  H16X 5396   5.176   2.727   4.321  2.3701 -2.0579 -0.1628
   65SAPC  H16Y 5397   5.283   2.647   4.439 -0.0836 -0.1753  1.3151
   65SAPC  C317 5398   5.201   2.846   4.511 -0.4333  0.3526 -0.2612
   65SAPC  H17X 5399   5.193   2.823   4.619  0.7581  0.1167 -0.2067
   65SAPC  H17Y 5400   5.114   2.909   4.483 -0.5986  0.9492  1.4797
   65SAPC  C318 5401   5.322   2.934   4.477 -0.0641  0.1723  0.2351
   65SAPC  H18X 5402   5.319   3.025   4.540 -2.0964 -1.5246  2.8320
   65SAPC  H18Y 5403   5.323   2.964   4.370  2.2806 -1.8807 -0.4234
   65SAPC  H18Z 5404   5.413   2.875   4.500 -0.0682 -0.3425 -0.9867
   66SAPC     N 5405   1.044   5.128   1.828  0.5791  0.2174 -0.5694
   66SAPC   C12 5406   1.024   5.239   1.921 -0.1014  0.7330  0.0624
   66SAPC  H12A 5407   0.948   5.302   1.877  2.0821  1.7239 -2.5802
   66SAPC  H12B 5408   1.115   5.298   1.921 -0.4310  1.3047 -1.8459
   66SAPC   C13 5409   1.132   5.017   1.886  0.6646 -0.5534  0.7280
   66SAPC  H13A 5410   1.140   4.932   1.819 -0.2791 -0.4258  0.4414
   66SAPC  H13B 5411   1.232   5.056   1.901  0.2398  1.5317 -1.3841
   66SAPC  H13C 5412   1.085   4.984   1.977 -2.4276  1.3918 -0.0193
   66SAPC   C14 5413   0.918   5.065   1.790  0.4022 -0.3137 -0.5006
   66SAPC  H14A 5414   0.864   5.026   1.875  2.1614 -0.3285  0.6575
   66SAPC  H14B 5415   0.847   5.137   1.752 -0.9362  0.0706  2.4820
   66SAPC  H14C 5416   0.928   4.993   1.709 -1.1329 -1.1651  0.0135
   66SAPC   C15 5417   1.103   5.169   1.691 -0.6034  0.1941  0.1811
   66SAPC  H15A 5418   1.036   5.241   1.647  2.1642  2.2231 -0.9379
   66SAPC  H15B 5419   1.199   5.217   1.688  0.7853 -2.1546  2.2908
   66SAPC  H15C 5420   1.106   5.083   1.625  0.0960 -0.3973  0.9637
   66SAPC   C11 5421   0.987   5.206   2.064 -0.6179  0.0719  0.4223
   66SAPC  H11A 5422   0.908   5.128   2.066 -1.3010  0.7438  2.5878
   66SAPC  H11B 5423   0.947   5.299   2.110  0.5209  1.4655 -1.2439
   66SAPC     P 5424   1.102   5.072   2.254 -0.2415  0.0251  0.1203
   66SAPC   O13 5425   1.068   4.940   2.211  0.0578  0.3098  0.3898
   66SAPC   O14 5426   1.228   5.082   2.340 -0.1153 -0.0339  0.3121
   66SAPC   O12 5427   1.108   5.175   2.127 -0.4208  0.2970  0.1293
   66SAPC   O11 5428   0.978   5.126   2.335 -0.3150 -0.3917 -0.0198
   66SAPC    C1 5429   0.992   5.255   2.401 -0.1995  0.4828  0.5279
   66SAPC    HA 5430   1.045   5.326   2.333 -1.5598  0.1762 -0.9334
   66SAPC    HB 5431   0.886   5.288   2.411 -0.6399 -0.8000  0.3956
   66SAPC    C2 5432   1.049   5.258   2.548 -0.5142  0.3665  0.1414
   66SAPC    HS 5433   1.140   5.196   2.537 -0.7345  0.4857 -3.7694
   66SAPC   O21 5434   0.953   5.212   2.638 -0.1769 -0.0349 -0.4987
   66SAPC   C21 5435   0.978   5.089   2.679  0.1733  0.1298 -0.4295
   66SAPC   O22 5436   1.065   5.014   2.636  0.3154 -0.0413 -0.0248
   66SAPC   C22 5437   0.893   5.055   2.801  0.1273  0.3612 -0.5425
   66SAPC   H2R 5438   0.845   5.146   2.843  0.7552  0.9167 -1.0242
   66SAPC   H2S 5439   0.806   4.994   2.767 -0.7460  0.8708  0.6684
   66SAPC    C3 5440   1.082   5.405   2.591 -0.3376  0.6060 -0.0384
   66SAPC    HX 5441   0.988   5.465   2.601  0.4326  2.6020 -3.2036
   66SAPC    HY 5442   1.133   5.443   2.500 -0.6330  0.1006 -0.4164
   66SAPC   O31 5443   1.174   5.410   2.705  0.3631 -0.3064 -0.1191
   66SAPC   C31 5444   1.129   5.478   2.808 -0.1257 -1.7556 -0.2653
   66SAPC   O32 5445   1.018   5.532   2.819  0.1386  0.0212 -0.1157
   66SAPC   C32 5446   1.223   5.463   2.926 -0.0238  0.6019  0.3778
   66SAPC   H2X 5447   1.326   5.494   2.901 -0.3335  1.5739  0.2479
   66SAPC   H2Y 5448   1.216   5.353   2.938 -2.4444  0.7565  0.9693
   66SAPC   C23 5449   0.974   4.969   2.913 -0.2845  0.2551  0.5614
   66SAPC   H3R 5450   1.008   4.871   2.873 -0.1127  1.0402 -1.2974
   66SAPC   H3S 5451   0.906   4.947   2.998 -0.5111  0.0383  0.3239
   66SAPC   C24 5452   1.091   5.053   2.963 -0.1656  0.1391 -0.5866
   66SAPC   H4R 5453   1.146   5.098   2.878  1.2991  2.4166  1.4141
   66SAPC   H4S 5454   1.173   4.994   3.010 -0.6389 -0.4296 -0.4636
   66SAPC   C25 5455   1.050   5.149   3.068  0.3603  0.2766 -0.4006
   66SAPC   H5R 5456   1.033   5.250   3.027  0.4725  0.7345  0.6285
   66SAPC   C26 5457   1.056   5.126   3.199  0.2898 -0.1174 -0.0352
   66SAPC   H6R 5458   1.013   5.203   3.265 -1.7402  0.9295 -2.4126
   66SAPC   C27 5459   1.093   5.003   3.269  0.1210  0.2864 -0.2605
   66SAPC   H7R 5460   1.199   5.015   3.300 -0.5832  0.5179  2.3731
   66SAPC   H7S 5461   1.094   4.914   3.203  1.1505  0.8953 -1.0962
   66SAPC   C28 5462   0.991   4.964   3.376 -0.1496  0.1208 -0.0602
   66SAPC   H8R 5463   0.887   4.973   3.344  0.7597  0.7837 -3.1398
   66SAPC   C29 5464   1.021   4.924   3.505 -0.6790  0.9668  0.1928
   66SAPC   H9R 5465   0.941   4.886   3.569  0.7000  0.6863  1.8221
   66SAPC  C210 5466   1.162   4.923   3.559 -0.0829 -0.3758 -0.6165
   66SAPC  H10R 5467   1.217   5.011   3.521 -0.3655  1.2547  2.4034
   66SAPC  H10S 5468   1.220   4.833   3.529 -0.2603 -1.1227  1.1592
   66SAPC  C211 5469   1.157   4.934   3.708  0.4264  0.5491 -0.1644
   66SAPC  H11R 5470   1.155   5.036   3.748  2.6778 -0.1082  1.8137
   66SAPC  C212 5471   1.153   4.826   3.794  0.1162 -0.4688  0.1458
   66SAPC  H12R 5472   1.137   4.853   3.900  0.7743  1.5043 -0.2051
   66SAPC  C213 5473   1.164   4.677   3.765  0.0224  0.7857 -0.4797
   66SAPC  H13R 5474   1.239   4.638   3.837  0.7902  0.4405 -1.4471
   66SAPC  H13S 5475   1.202   4.650   3.665  0.4943  1.1900 -0.4175
   66SAPC  C214 5476   1.027   4.612   3.781 -0.4889  0.3003 -1.0091
   66SAPC  H14R 5477   0.983   4.593   3.682 -0.6134  2.1681 -1.3462
   66SAPC  C215 5478   0.968   4.563   3.887 -0.6307 -0.0854  0.1656
   66SAPC  H15R 5479   0.864   4.530   3.874 -0.0570 -1.5777 -1.0121
   66SAPC  C216 5480   1.018   4.570   4.026  0.2053 -0.2658 -0.3946
   66SAPC  H16R 5481   1.129   4.568   4.015  0.3008  1.2550  0.1181
   66SAPC  H16S 5482   0.986   4.481   4.085  0.5249 -0.2476 -0.1909
   66SAPC  C217 5483   0.947   4.692   4.092 -0.2487  0.5620  0.6253
   66SAPC  H17R 5484   0.838   4.671   4.088 -0.6834  2.7402 -1.3866
   66SAPC  H17S 5485   0.971   4.789   4.044 -0.0402 -0.0841 -0.6183
   66SAPC  C218 5486   0.958   4.708   4.240 -0.3542 -0.3056  0.3708
   66SAPC  H18R 5487   1.064   4.728   4.267 -0.1262 -1.4550  0.3421
   66SAPC  H18S 5488   0.937   4.613   4.292 -0.6061 -0.0206  0.7939
   66SAPC  C219 5489   0.864   4.819   4.290 -0.3563  0.0808 -0.3373
   66SAPC  H19R 5490   0.761   4.825   4.249 -1.0563  1.1474  1.4587
   66SAPC  H19S 5491   0.913   4.915   4.264 -0.4752 -0.2701 -1.9450
   66SAPC  C220 5492   0.853   4.811   4.451 -0.5228  0.4321  0.4723
   66SAPC  H20R 5493   0.952   4.811   4.501 -0.5927 -1.7969  0.7159
   66SAPC  H20S 5494   0.798   4.719   4.481 -2.1357  0.3316 -2.4200
   66SAPC  H20T 5495   0.792   4.897   4.486 -0.0013  0.3043  1.7541
   66SAPC   C33 5496   1.181   5.539   3.057  0.0531 -0.8240  0.7412
   66SAPC   H3X 5497   1.079   5.505   3.088  0.4897 -0.7492  2.3884
   66SAPC   H3Y 5498   1.167   5.647   3.034 -0.1334 -0.8169  0.8737
   66SAPC   C34 5499   1.271   5.535   3.184  0.0045 -0.0855  0.4032
   66SAPC   H4X 5500   1.375   5.554   3.149 -0.2422 -0.0763 -0.3270
   66SAPC   H4Y 5501   1.266   5.435   3.232 -3.3792  1.0455  2.7643
   66SAPC   C35 5502   1.237   5.643   3.290 -0.3720  0.3293  0.1256
   66SAPC   H5X 5503   1.178   5.721   3.237 -1.9875  0.2505  1.7383
   66SAPC   H5Y 5504   1.326   5.686   3.340 -0.2833 -0.7387  0.9309
   66SAPC   C36 5505   1.142   5.582   3.403  0.2533 -0.0021  0.0271
   66SAPC   H6X 5506   1.064   5.521   3.352 -1.7668  0.9005  1.8419
   66SAPC   H6Y 5507   1.087   5.666   3.451 -1.4847  0.3108 -2.3107
   66SAPC   C37 5508   1.216   5.512   3.512  0.3011  0.1217  0.3133
   66SAPC   H7X 5509   1.278   5.589   3.563  1.3867  0.1785 -1.0269
   66SAPC   H7Y 5510   1.287   5.440   3.465  0.3003  1.4294 -1.7662
   66SAPC   C38 5511   1.124   5.447   3.620 -0.0208 -0.3116 -0.4707
   66SAPC   H8X 5512   1.046   5.376   3.583 -0.9184  0.1731  0.4528
   66SAPC   H8Y 5513   1.072   5.534   3.665  2.2990  0.2064  1.4061
   66SAPC   C39 5514   1.202   5.389   3.736 -0.2677  0.0831  0.1598
   66SAPC   H9X 5515   1.286   5.458   3.762 -0.4542  0.3479  0.0659
   66SAPC   H9Y 5516   1.239   5.288   3.709  1.6383  0.1366  2.2404
   66SAPC  C310 5517   1.120   5.350   3.859 -0.0208  0.0701 -0.9416
   66SAPC  H10X 5518   1.026   5.294   3.842 -0.6305  1.0967 -1.0817
   66SAPC  H10Y 5519   1.083   5.443   3.907 -2.0269 -1.1768  0.0745
   66SAPC  C311 5520   1.211   5.281   3.978  0.0683  0.3825  1.1355
   66SAPC  H11X 5521   1.260   5.369   4.026 -0.8987 -0.0107  2.9616
   66SAPC  H11Y 5522   1.282   5.207   3.937 -0.2167 -0.0582  1.4189
   66SAPC  C312 5523   1.127   5.213   4.082  0.3924 -0.0592 -0.2563
   66SAPC  H12X 5524   1.200   5.171   4.155 -0.3582 -2.0909 -0.6061
   66SAPC  H12Y 5525   1.074   5.126   4.038 -0.4969  0.2341  0.2255
   66SAPC  C313 5526   1.024   5.302   4.155 -0.2031 -0.0672 -0.1145
   66SAPC  H13X 5527   0.972   5.372   4.086 -1.0710 -0.6572 -0.0760
   66SAPC  H13Y 5528   1.068   5.374   4.227  1.4478 -0.2547 -0.8858
   66SAPC  C314 5529   0.919   5.221   4.222  0.0117  0.3950 -0.1263
   66SAPC  H14X 5530   0.959   5.145   4.293 -0.3721 -1.1596 -1.5176
   66SAPC  H14Y 5531   0.877   5.166   4.136  2.3282 -1.6018 -0.1068
   66SAPC  C315 5532   0.813   5.298   4.294  0.8225 -0.0818  0.3497
   66SAPC  H15X 5533   0.744   5.348   4.223 -0.3165  0.2757  1.6581
   66SAPC  H15Y 5534   0.857   5.387   4.344 -1.5432  2.4714 -1.7700
   66SAPC  C316 5535   0.736   5.233   4.408  0.9149  0.1755 -0.2321
   66SAPC  H16X 5536   0.807   5.203   4.488 -0.6320  0.9516  1.5049
   66SAPC  H16Y 5537   0.701   5.131   4.379 -1.7074  0.4154  1.7102
   66SAPC  C317 5538   0.614   5.311   4.466 -0.5452  0.5027  0.5318
   66SAPC  H17X 5539   0.557   5.260   4.547 -0.2632 -2.0131 -0.7795
   66SAPC  H17Y 5540   0.536   5.312   4.387  0.1202 -0.0800 -0.1451
   66SAPC  C318 5541   0.646   5.451   4.514 -0.0884  0.2900 -0.4804
   66SAPC  H18X 5542   0.680   5.529   4.443  1.1519  1.1546  1.0179
   66SAPC  H18Y 5543   0.705   5.464   4.607  0.0099 -3.8557  0.2306
   66SAPC  H18Z 5544   0.553   5.496   4.553  0.8536  0.0815  2.1889
   67SAPC     N 5545   1.765   5.204   2.027 -0.1291  0.9156 -0.0487
   67SAPC   C12 5546   1.859   5.290   2.114  0.1309  0.7271  0.4032
   67SAPC  H12A 5547   1.886   5.374   2.051  2.2578 -1.4942 -1.8892
   67SAPC  H12B 5548   1.951   5.234   2.119  0.3428  0.5472 -3.1450
   67SAPC   C13 5549   1.630   5.273   2.016  0.5273 -0.4741 -0.5271
   67SAPC  H13A 5550   1.545   5.209   1.997 -0.6108  0.3380  1.5441
   67SAPC  H13B 5551   1.616   5.326   2.109 -2.8293 -1.5515 -0.2851
   67SAPC  H13C 5552   1.634   5.357   1.948 -0.9878 -0.3106 -0.4505
   67SAPC   C14 5553   1.825   5.172   1.900  0.1455  0.2417 -0.0358
   67SAPC  H14A 5554   1.834   5.257   1.834  0.4438 -0.8096 -1.4019
   67SAPC  H14B 5555   1.916   5.115   1.915  1.0142  0.9982 -2.0258
   67SAPC  H14C 5556   1.761   5.111   1.839  0.6236 -0.0641 -0.2375
   67SAPC   C15 5557   1.735   5.073   2.097  0.5398 -0.2464  0.0990
   67SAPC  H15A 5558   1.816   5.010   2.130 -0.1458 -0.9689  0.4526
   67SAPC  H15B 5559   1.679   5.087   2.189 -2.1875 -4.5563 -0.5962
   67SAPC  H15C 5560   1.669   5.016   2.032 -0.8509  1.7632 -0.3513
   67SAPC   C11 5561   1.816   5.323   2.257 -0.8203 -0.1447  0.2294
   67SAPC  H11A 5562   1.911   5.345   2.309  0.1240 -2.5843 -0.2958
   67SAPC  H11B 5563   1.783   5.232   2.312 -0.8307  0.6775  1.6202
   67SAPC     P 5564   1.743   5.570   2.218  0.2659 -0.0151  0.1472
   67SAPC   O13 5565   1.886   5.581   2.177  0.1137  0.0382  0.1499
   67SAPC   O14 5566   1.646   5.611   2.110 -0.6412  0.6564 -0.9409
   67SAPC   O12 5567   1.712   5.424   2.266 -0.4085  0.8044 -0.0135
   67SAPC   O11 5568   1.711   5.653   2.347  0.3913 -0.0895  0.1472
   67SAPC    C1 5569   1.795   5.632   2.456 -0.1429  0.5793  0.2378
   67SAPC    HA 5570   1.800   5.525   2.488  0.6808  1.2781  2.7187
   67SAPC    HB 5571   1.900   5.662   2.436 -0.2162 -0.4044 -1.9475
   67SAPC    C2 5572   1.752   5.707   2.589 -0.3531  0.5283  0.4785
   67SAPC    HS 5573   1.646   5.674   2.587 -0.6237  1.3932 -0.2478
   67SAPC   O21 5574   1.775   5.853   2.571  0.2018  0.0058  0.2079
   67SAPC   C21 5575   1.688   5.920   2.643  0.5084 -0.0375  0.8588
   67SAPC   O22 5576   1.606   5.878   2.719 -0.3055 -0.5120  0.0828
   67SAPC   C22 5577   1.724   6.071   2.632  0.4935 -0.1666  0.5671
   67SAPC   H2R 5578   1.829   6.069   2.595 -0.3303 -1.6131 -1.8868
   67SAPC   H2S 5579   1.666   6.113   2.547  0.8391 -1.2926 -0.2467
   67SAPC    C3 5580   1.844   5.649   2.700  0.0894 -0.3161 -0.3577
   67SAPC    HX 5581   1.948   5.656   2.662 -1.0076  1.7107 -3.3403
   67SAPC    HY 5582   1.819   5.541   2.699  1.2416 -0.6522  1.7156
   67SAPC   O31 5583   1.819   5.706   2.827 -0.7739  0.1910 -0.4780
   67SAPC   C31 5584   1.736   5.655   2.912 -0.4741  0.2881 -0.8669
   67SAPC   O32 5585   1.681   5.545   2.909  0.0356  0.0954  0.3236
   67SAPC   C32 5586   1.715   5.761   3.022 -0.0100  0.1075 -0.8243
   67SAPC   H2X 5587   1.621   5.815   2.999  0.6393  1.9502  0.5199
   67SAPC   H2Y 5588   1.797   5.836   3.012 -1.2257  1.2583 -2.6607
   67SAPC   C23 5589   1.685   6.134   2.770 -0.2694 -0.2505 -0.7346
   67SAPC   H3R 5590   1.714   6.067   2.854 -1.3208 -0.3100 -0.3914
   67SAPC   H3S 5591   1.574   6.146   2.774 -0.2242 -0.0681  1.4962
   67SAPC   C24 5592   1.755   6.271   2.792 -0.3733 -0.0384 -0.2253
   67SAPC   H4R 5593   1.680   6.337   2.839  0.8045  3.3788 -2.6803
   67SAPC   H4S 5594   1.750   6.314   2.690  0.3293  0.9558  0.1482
   67SAPC   C25 5595   1.899   6.266   2.850 -0.2996 -0.3431 -0.0469
   67SAPC   H5R 5596   1.984   6.249   2.782  0.0092 -1.5078  0.6033
   67SAPC   C26 5597   1.943   6.306   2.974  0.0074  0.2508  0.7342
   67SAPC   H6R 5598   2.053   6.312   2.976  0.0122  1.2530 -0.6551
   67SAPC   C27 5599   1.864   6.356   3.087 -0.3417  0.3816 -0.7527
   67SAPC   H7R 5600   1.770   6.406   3.055 -0.5605  0.7198  0.3673
   67SAPC   H7S 5601   1.920   6.434   3.142 -0.9574 -0.2994  0.9102
   67SAPC   C28 5602   1.819   6.251   3.188  0.0726  0.7663 -0.1064
   67SAPC   H8R 5603   1.829   6.142   3.176  0.3471  0.5405  1.8247
   67SAPC   C29 5604   1.774   6.278   3.314 -0.5033 -0.5934  0.1232
   67SAPC   H9R 5605   1.732   6.197   3.374 -1.9595  0.8912  1.1939
   67SAPC  C210 5606   1.760   6.417   3.373 -0.4437 -0.4626  1.2550
   67SAPC  H10R 5607   1.710   6.483   3.298  0.6677 -2.0605 -0.9983
   67SAPC  H10S 5608   1.859   6.464   3.390 -0.6292  1.1681 -1.5258
   67SAPC  C211 5609   1.683   6.418   3.508  0.6545 -0.3380  0.6411
   67SAPC  H11R 5610   1.576   6.403   3.493  0.2125  2.1824  0.7991
   67SAPC  C212 5611   1.729   6.431   3.630 -0.1811  0.3192  0.1947
   67SAPC  H12R 5612   1.661   6.425   3.716  0.7401  0.2830  0.9436
   67SAPC  C213 5613   1.871   6.446   3.676 -1.1917 -0.0468  0.2547
   67SAPC  H13R 5614   1.869   6.507   3.770  2.1918  0.3207  0.2392
   67SAPC  H13S 5615   1.925   6.505   3.598 -0.5305 -2.0360 -0.8557
   67SAPC  C214 5616   1.934   6.313   3.703 -0.2005 -0.6402  0.3081
   67SAPC  H14R 5617   1.917   6.236   3.626 -3.2903  0.4747 -0.2349
   67SAPC  C215 5618   2.010   6.285   3.809 -0.3321 -0.3099 -0.3747
   67SAPC  H15R 5619   2.073   6.196   3.796  1.8506  1.2546 -1.0068
   67SAPC  C216 5620   2.031   6.387   3.915  0.1693 -0.1708  0.3602
   67SAPC  H16R 5621   1.942   6.399   3.981 -0.8125  2.0860 -1.2083
   67SAPC  H16S 5622   2.037   6.485   3.862 -1.1478 -0.9174 -1.2697
   67SAPC  C217 5623   2.163   6.368   3.987 -0.5219  0.0271  0.0926
   67SAPC  H17R 5624   2.162   6.266   4.033 -2.9152  0.3215  0.8660
   67SAPC  H17S 5625   2.150   6.440   4.071  0.7679 -0.9375  1.1599
   67SAPC  C218 5626   2.304   6.375   3.919 -0.3051 -0.5275  0.0912
   67SAPC  H18R 5627   2.326   6.484   3.921  0.2705 -0.6488  1.3948
   67SAPC  H18S 5628   2.298   6.337   3.815 -0.7723 -0.0441 -0.0631
   67SAPC  C219 5629   2.421   6.308   3.983 -0.1930  0.3118 -0.4797
   67SAPC  H19R 5630   2.514   6.330   3.926  0.0824  0.7216  0.1127
   67SAPC  H19S 5631   2.408   6.198   3.982  0.3856  0.2396 -0.6818
   67SAPC  C220 5632   2.437   6.357   4.123 -0.4690  0.3794  0.0746
   67SAPC  H20R 5633   2.454   6.467   4.115  0.4674  0.2326 -0.0614
   67SAPC  H20S 5634   2.524   6.313   4.176 -0.8724 -0.9725 -0.3607
   67SAPC  H20T 5635   2.350   6.333   4.188 -1.0044 -0.8887 -1.0812
   67SAPC   C33 5636   1.714   5.690   3.161 -0.5860 -0.5408 -0.0261
   67SAPC   H3X 5637   1.812   5.652   3.196 -0.9466 -1.0668  0.4174
   67SAPC   H3Y 5638   1.644   5.604   3.159 -1.5294  0.1630  1.2463
   67SAPC   C34 5639   1.667   5.785   3.277 -0.5290 -0.2267 -0.0897
   67SAPC   H4X 5640   1.557   5.782   3.286 -0.4299 -2.6282  0.9920
   67SAPC   H4Y 5641   1.706   5.886   3.252  0.0706 -0.4843 -0.2144
   67SAPC   C35 5642   1.743   5.748   3.408 -0.0469 -0.0735 -0.1573
   67SAPC   H5X 5643   1.851   5.748   3.382 -0.4883  1.8479 -2.3441
   67SAPC   H5Y 5644   1.697   5.651   3.437 -2.0660  0.5183 -1.1594
   67SAPC   C36 5645   1.725   5.852   3.512 -0.1104  0.3532 -1.0468
   67SAPC   H6X 5646   1.617   5.874   3.525  0.0325 -0.3234  2.0108
   67SAPC   H6Y 5647   1.764   5.949   3.475  0.9031  0.3972  0.0835
   67SAPC   C37 5648   1.784   5.822   3.648 -0.1329  0.4709 -0.3864
   67SAPC   H7X 5649   1.797   5.916   3.706 -1.2230 -0.7573  1.9673
   67SAPC   H7Y 5650   1.886   5.779   3.633 -0.4567 -0.5226  0.1317
   67SAPC   C38 5651   1.693   5.732   3.732  0.4010 -0.2550 -0.0005
   67SAPC   H8X 5652   1.757   5.682   3.808 -1.5287 -2.9979 -0.0079
   67SAPC   H8Y 5653   1.661   5.648   3.666  1.8272  0.5837 -1.8547
   67SAPC   C39 5654   1.577   5.814   3.782 -0.2049  0.3863  0.2940
   67SAPC   H9X 5655   1.509   5.847   3.701 -0.3866  1.3780  0.8380
   67SAPC   H9Y 5656   1.612   5.904   3.836 -0.0115  0.2282  0.4331
   67SAPC  C310 5657   1.482   5.739   3.885 -0.1891  0.3472 -0.7352
   67SAPC  H10X 5658   1.552   5.730   3.970 -1.1647  0.7065  0.1180
   67SAPC  H10Y 5659   1.465   5.647   3.823  0.4625 -0.0582 -0.3255
   67SAPC  C311 5660   1.366   5.821   3.927  0.3446 -0.0301 -0.2872
   67SAPC  H11X 5661   1.302   5.860   3.845 -0.2879  0.3266  0.3778
   67SAPC  H11Y 5662   1.399   5.913   3.978 -2.6549  1.1745 -0.3239
   67SAPC  C312 5663   1.273   5.738   4.027  0.0282 -0.0949  0.2289
   67SAPC  H12X 5664   1.330   5.675   4.098  0.7874 -0.9095 -1.0672
   67SAPC  H12Y 5665   1.207   5.668   3.972  1.6879 -2.2703  0.8373
   67SAPC  C313 5666   1.177   5.834   4.095  0.1704  0.3381 -0.6368
   67SAPC  H13X 5667   1.102   5.885   4.030  1.4759  1.4347 -1.3288
   67SAPC  H13Y 5668   1.233   5.922   4.132 -1.6082  1.4481 -0.4792
   67SAPC  C314 5669   1.105   5.770   4.215 -1.2282 -0.0506 -0.3594
   67SAPC  H14X 5670   1.185   5.733   4.284 -1.4809  0.0288 -0.0200
   67SAPC  H14Y 5671   1.047   5.683   4.178  1.1824 -1.2389 -1.6221
   67SAPC  C315 5672   0.993   5.842   4.297  0.1340  0.0735  0.3759
   67SAPC  H15X 5673   0.898   5.804   4.252  0.5864 -0.2056 -0.3705
   67SAPC  H15Y 5674   1.002   5.952   4.292  2.1566 -0.0068  1.3450
   67SAPC  C316 5675   1.004   5.801   4.446 -0.5077 -0.2969  0.2603
   67SAPC  H16X 5676   1.109   5.824   4.470  0.5526 -4.2562  0.1124
   67SAPC  H16Y 5677   1.001   5.690   4.457  1.4072 -0.4456 -0.3449
   67SAPC  C317 5678   0.900   5.859   4.539 -0.4487  0.2153 -0.0490
   67SAPC  H17X 5679   0.808   5.798   4.529  0.4348 -1.6614  2.3676
   67SAPC  H17Y 5680   0.873   5.964   4.513  1.0937  0.5359 -0.4420
   67SAPC  C318 5681   0.949   5.846   4.687  0.1062 -0.5917 -0.2192
   67SAPC  H18X 5682   0.873   5.884   4.759  1.6815 -2.1528  2.4286
   67SAPC  H18Y 5683   1.038   5.910   4.704  0.9658 -1.7675 -0.1878
   67SAPC  H18Z 5684   0.967   5.740   4.714 -2.1931 -0.3365  2.8584
   68SAPC     N 5685   0.736   4.822   2.377  0.1254 -0.1022  0.6555
   68SAPC   C12 5686   0.717   4.962   2.308  0.4039 -0.4306 -0.0127
   68SAPC  H12A 5687   0.796   5.031   2.332 -1.5740  1.4353  1.5250
   68SAPC  H12B 5688   0.638   5.020   2.352  2.1099  0.8843  1.4778
   68SAPC   C13 5689   0.856   4.758   2.319 -0.5615 -0.3189 -0.0355
   68SAPC  H13A 5690   0.856   4.755   2.211  0.6205  0.6199 -0.0752
   68SAPC  H13B 5691   0.943   4.821   2.328 -0.6353 -0.1361 -0.5550
   68SAPC  H13C 5692   0.879   4.659   2.356  0.7923  0.3437  1.0206
   68SAPC   C14 5693   0.764   4.840   2.519  0.2980  0.0854  0.0727
   68SAPC  H14A 5694   0.799   4.743   2.552 -1.4005 -0.2691  0.9287
   68SAPC  H14B 5695   0.840   4.916   2.529 -0.1610  0.6660 -0.7205
   68SAPC  H14C 5696   0.681   4.867   2.582  0.4189 -0.1084  0.3178
   68SAPC   C15 5697   0.611   4.746   2.359  0.5662 -0.1308  0.0166
   68SAPC  H15A 5698   0.612   4.649   2.406  1.5101 -1.4870 -2.6178
   68SAPC  H15B 5699   0.533   4.816   2.388  0.5261  0.5303 -1.5803
   68SAPC  H15C 5700   0.578   4.724   2.259  0.8223 -3.6534  0.5899
   68SAPC   C11 5701   0.699   4.965   2.152 -0.4832  0.2460  0.4992
   68SAPC  H11A 5702   0.765   4.884   2.115 -0.0141 -0.0376  1.9065
   68SAPC  H11B 5703   0.731   5.065   2.116  1.5801 -0.4408  0.2837
   68SAPC     P 5704   0.453   5.030   2.136  0.1915  0.3310 -0.3278
   68SAPC   O13 5705   0.395   5.100   2.018 -0.2398 -0.0331  0.0075
   68SAPC   O14 5706   0.351   4.957   2.217 -0.0411  0.1061 -0.1193
   68SAPC   O12 5707   0.568   4.932   2.108 -0.6222  0.6408 -0.3537
   68SAPC   O11 5708   0.516   5.136   2.233 -0.2829  0.0487 -0.7390
   68SAPC    C1 5709   0.479   5.268   2.237  0.6945  0.0509 -0.3648
   68SAPC    HA 5710   0.563   5.323   2.188  1.0238 -1.3226 -1.3858
   68SAPC    HB 5711   0.385   5.302   2.189 -0.5494  0.8401  2.4298
   68SAPC    C2 5712   0.492   5.306   2.390 -0.6482  0.7475  0.4932
   68SAPC    HS 5713   0.595   5.278   2.421 -0.2503  0.3979 -1.0609
   68SAPC   O21 5714   0.395   5.241   2.478 -0.6592 -0.9527 -0.0002
   68SAPC   C21 5715   0.437   5.131   2.536 -0.3255 -0.0104  0.3573
   68SAPC   O22 5716   0.548   5.086   2.531 -0.5289  0.3175 -0.1790
   68SAPC   C22 5717   0.323   5.069   2.623  0.3819  0.1084  0.3659
   68SAPC   H2R 5718   0.365   5.062   2.726 -1.0743  1.0272  1.0617
   68SAPC   H2S 5719   0.236   5.136   2.614 -0.1489 -0.4501  1.1646
   68SAPC    C3 5720   0.496   5.457   2.434  0.1264  0.3257 -0.2923
   68SAPC    HX 5721   0.396   5.496   2.408 -0.7982 -0.3677  1.9977
   68SAPC    HY 5722   0.570   5.511   2.371 -1.2011  0.9339 -1.3604
   68SAPC   O31 5723   0.517   5.474   2.574  0.0688  0.4180 -0.3027
   68SAPC   C31 5724   0.644   5.465   2.620 -0.6229  0.0165  0.5973
   68SAPC   O32 5725   0.741   5.437   2.547  0.4107  0.4819 -0.5381
   68SAPC   C32 5726   0.646   5.473   2.773  0.6634  0.2849  0.3874
   68SAPC   H2X 5727   0.599   5.572   2.790 -0.9650 -0.4964  0.5551
   68SAPC   H2Y 5728   0.753   5.491   2.797  0.7085 -0.9133  1.1853
   68SAPC   C23 5729   0.279   4.926   2.579  0.3685  0.5248 -0.2794
   68SAPC   H3R 5730   0.287   4.912   2.469 -2.3829 -2.9091 -0.2275
   68SAPC   H3S 5731   0.170   4.910   2.594  0.0458  0.8043 -2.1320
   68SAPC   C24 5732   0.347   4.807   2.654 -0.1024 -0.0397  0.9131
   68SAPC   H4R 5733   0.455   4.814   2.631 -0.6479  0.4493 -1.8074
   68SAPC   H4S 5734   0.318   4.711   2.606  0.3539  0.6850 -0.8714
   68SAPC   C25 5735   0.318   4.801   2.801  0.1586 -0.1463 -0.2511
   68SAPC   H5R 5736   0.213   4.777   2.821  0.1757 -2.1576 -2.1872
   68SAPC   C26 5737   0.403   4.842   2.893  0.4311 -1.1509 -0.4180
   68SAPC   H6R 5738   0.370   4.850   2.997  0.5292 -1.0289 -0.3953
   68SAPC   C27 5739   0.545   4.897   2.864  0.1342  0.1349 -0.8681
   68SAPC   H7R 5740   0.537   4.954   2.769 -0.5073  1.2982 -0.1371
   68SAPC   H7S 5741   0.609   4.807   2.850 -0.9037 -0.6961 -0.4471
   68SAPC   C28 5742   0.607   4.987   2.971  0.4210  0.3741 -0.8533
   68SAPC   H8R 5743   0.641   5.085   2.933  1.5569  0.8058  1.1120
   68SAPC   C29 5744   0.616   4.955   3.102 -0.1105 -0.0677 -0.2647
   68SAPC   H9R 5745   0.658   5.022   3.178 -0.0591  0.8120 -1.0590
   68SAPC  C210 5746   0.590   4.817   3.153 -0.5823  0.2746  0.4254
   68SAPC  H10R 5747   0.596   4.740   3.073 -2.4708  2.2993 -1.8306
   68SAPC  H10S 5748   0.486   4.817   3.192 -2.1583 -0.7199 -3.3055
   68SAPC  C211 5749   0.698   4.767   3.251 -0.7132  0.0567 -0.5308
   68SAPC  H11R 5750   0.795   4.786   3.204 -0.8265 -3.1647 -2.3222
   68SAPC  C212 5751   0.683   4.720   3.374 -0.3242 -0.7362  0.5994
   68SAPC  H12R 5752   0.776   4.687   3.423 -0.6562 -1.8921  0.4849
   68SAPC  C213 5753   0.557   4.688   3.440 -0.3976  0.3870  0.5098
   68SAPC  H13R 5754   0.480   4.763   3.413 -0.5771  0.1693  0.4152
   68SAPC  H13S 5755   0.580   4.711   3.547  1.2390 -0.5846  0.4044
   68SAPC  C214 5756   0.517   4.545   3.446 -0.1140  0.1843  0.5653
   68SAPC  H14R 5757   0.586   4.485   3.385 -0.3272  0.8134 -0.3197
   68SAPC  C215 5758   0.411   4.492   3.497  0.0471 -0.4728  0.1909
   68SAPC  H15R 5759   0.392   4.386   3.479 -3.0410  0.0423 -0.1620
   68SAPC  C216 5760   0.294   4.571   3.564 -0.2479 -0.1285  0.2130
   68SAPC  H16R 5761   0.327   4.673   3.592 -1.6651  0.9513 -1.8563
   68SAPC  H16S 5762   0.268   4.518   3.659 -2.4350  0.0926 -0.2124
   68SAPC  C217 5763   0.173   4.586   3.473  0.1682  0.4715  0.8847
   68SAPC  H17R 5764   0.083   4.612   3.534 -1.2540 -0.7252 -0.5917
   68SAPC  H17S 5765   0.147   4.488   3.427 -1.3556  1.3877 -0.3308
   68SAPC  C218 5766   0.202   4.695   3.379  0.1825  0.2505  0.1524
   68SAPC  H18R 5767   0.293   4.671   3.321  1.1531  3.0166  0.4015
   68SAPC  H18S 5768   0.219   4.790   3.434  0.7485  0.1472  0.1629
   68SAPC  C219 5769   0.086   4.722   3.281  0.3012  0.6722 -0.5998
   68SAPC  H19R 5770  -0.005   4.759   3.332 -0.3096  1.4709 -2.2150
   68SAPC  H19S 5771   0.052   4.629   3.230 -0.4171  0.5814  0.0258
   68SAPC  C220 5772   0.116   4.835   3.181 -0.5088  0.5280 -0.5991
   68SAPC  H20R 5773   0.027   4.861   3.119 -0.6668  1.0126 -0.1773
   68SAPC  H20S 5774   0.197   4.810   3.110  0.3759 -0.5745  0.7584
   68SAPC  H20T 5775   0.128   4.935   3.227 -0.9774  0.3134  0.0032
   68SAPC   C33 5776   0.585   5.357   2.849 -0.7948  0.1402  0.1479
   68SAPC   H3X 5777   0.650   5.268   2.832 -0.9010 -0.2948  1.7819
   68SAPC   H3Y 5778   0.483   5.340   2.809 -0.1300 -1.9558 -0.8164
   68SAPC   C34 5779   0.601   5.354   2.999  0.0328 -0.3405  0.2688
   68SAPC   H4X 5780   0.572   5.254   3.037 -2.2708  0.6516  1.3151
   68SAPC   H4Y 5781   0.520   5.424   3.029 -0.2457  0.4791 -2.2196
   68SAPC   C35 5782   0.741   5.397   3.049  0.3780  0.3017  0.1839
   68SAPC   H5X 5783   0.784   5.485   2.997 -0.4928  1.2179  0.9645
   68SAPC   H5Y 5784   0.810   5.315   3.019  0.5397  0.1707  0.8768
   68SAPC   C36 5785   0.753   5.397   3.199 -0.1346 -0.2828 -0.0337
   68SAPC   H6X 5786   0.684   5.474   3.240  0.1944  0.6468 -1.1734
   68SAPC   H6Y 5787   0.854   5.430   3.231  0.3250  0.3824 -2.0285
   68SAPC   C37 5788   0.720   5.266   3.270  0.0832 -0.3118 -0.4776
   68SAPC   H7X 5789   0.791   5.192   3.226  0.8914  0.5857 -0.7000
   68SAPC   H7Y 5790   0.620   5.228   3.240 -0.5013  0.2080  0.7621
   68SAPC   C38 5791   0.734   5.275   3.417 -0.2753 -0.3657 -0.0316
   68SAPC   H8X 5792   0.679   5.367   3.448 -0.2985 -0.4297  0.1178
   68SAPC   H8Y 5793   0.843   5.285   3.441 -1.0752  0.7745  4.0813
   68SAPC   C39 5794   0.675   5.162   3.503  0.4512  0.0087  0.0691
   68SAPC   H9X 5795   0.735   5.073   3.475 -0.2881  0.0774 -1.9082
   68SAPC   H9Y 5796   0.574   5.147   3.460 -0.0421  1.5569  0.6188
   68SAPC  C310 5797   0.692   5.169   3.659 -0.5409  0.1881 -0.1731
   68SAPC  H10X 5798   0.633   5.256   3.696 -0.6658  0.9463 -2.0265
   68SAPC  H10Y 5799   0.800   5.181   3.685 -0.9102  0.0554  1.4856
   68SAPC  C311 5800   0.640   5.040   3.724  0.2089  0.1423 -0.2909
   68SAPC  H11X 5801   0.660   4.942   3.675 -0.2937  0.5352 -1.3180
   68SAPC  H11Y 5802   0.529   5.046   3.719  0.0296 -1.7899  0.5401
   68SAPC  C312 5803   0.680   5.006   3.871  0.1230 -0.4401  0.4711
   68SAPC  H12X 5804   0.618   5.072   3.935  1.1211 -0.7027  1.7469
   68SAPC  H12Y 5805   0.788   5.025   3.854  0.0404 -0.3298  0.0330
   68SAPC  C313 5806   0.677   4.856   3.914  1.1461  0.3772 -0.0988
   68SAPC  H13X 5807   0.683   4.865   4.024 -1.3592 -1.0112  0.2230
   68SAPC  H13Y 5808   0.758   4.794   3.869  0.8197  0.4692 -0.8317
   68SAPC  C314 5809   0.533   4.794   3.882 -0.4167  0.4502 -0.0795
   68SAPC  H14X 5810   0.519   4.789   3.772  0.6983  1.9039 -0.3076
   68SAPC  H14Y 5811   0.460   4.866   3.926 -0.8437 -0.3884  0.6207
   68SAPC  C315 5812   0.504   4.650   3.932 -0.1693 -0.4751 -0.2953
   68SAPC  H15X 5813   0.571   4.572   3.889  2.0712  0.2422  1.6928
   68SAPC  H15Y 5814   0.399   4.631   3.903 -1.0070  2.9914  0.0922
   68SAPC  C316 5815   0.521   4.636   4.087 -1.0144  0.6066  0.5875
   68SAPC  H16X 5816   0.441   4.692   4.139 -3.2767 -2.9901  1.3075
   68SAPC  H16Y 5817   0.621   4.674   4.120  0.0772  0.2996 -2.1306
   68SAPC  C317 5818   0.505   4.490   4.144  0.1494 -0.3454 -0.2002
   68SAPC  H17X 5819   0.534   4.493   4.251 -2.3984 -0.0702  0.5684
   68SAPC  H17Y 5820   0.576   4.423   4.091 -0.2636 -0.9973  0.0625
   68SAPC  C318 5821   0.362   4.432   4.136 -0.0030 -0.4319 -0.7498
   68SAPC  H18X 5822   0.321   4.436   4.033 -1.3838 -1.1980 -0.2518
   68SAPC  H18Y 5823   0.286   4.484   4.198  0.1609 -2.1643  0.9947
   68SAPC  H18Z 5824   0.366   4.326   4.169  1.7783 -0.2676 -0.3327
   69SAPC     N 5825   4.335   0.581   2.116  0.6490 -0.5683  0.1694
   69SAPC   C12 5826   4.456   0.567   2.209  0.3591  0.2990  0.0133
   69SAPC  H12A 5827   4.476   0.671   2.233 -2.8666  0.9260  0.4760
   69SAPC  H12B 5828   4.532   0.521   2.148  0.3391  1.1537 -0.6796
   69SAPC   C13 5829   4.372   0.660   1.992 -0.0656 -0.6444 -0.2792
   69SAPC  H13A 5830   4.388   0.761   2.027  0.1786 -0.9717  0.5738
   69SAPC  H13B 5831   4.465   0.624   1.949 -0.0292  1.2572 -1.9300
   69SAPC  H13C 5832   4.295   0.671   1.917 -0.0818  1.0718 -0.0415
   69SAPC   C14 5833   4.291   0.448   2.072  0.2503 -0.1769  0.1619
   69SAPC  H14A 5834   4.256   0.387   2.154 -0.3204 -0.2418 -0.1237
   69SAPC  H14B 5835   4.211   0.456   2.000 -0.1125 -1.9134  0.3328
   69SAPC  H14C 5836   4.371   0.395   2.023  0.0057 -0.8637  0.4947
   69SAPC   C15 5837   4.212   0.644   2.179 -0.4016  0.8982 -0.6778
   69SAPC  H15A 5838   4.124   0.629   2.117  0.2223  0.3285 -1.4487
   69SAPC  H15B 5839   4.193   0.600   2.275 -1.2871  0.6190 -0.9735
   69SAPC  H15C 5840   4.211   0.752   2.191  0.5419  0.8649 -0.1768
   69SAPC   C11 5841   4.432   0.487   2.339 -0.4016 -0.2168 -0.6396
   69SAPC  H11A 5842   4.514   0.486   2.413 -0.6644 -0.7092 -0.3480
   69SAPC  H11B 5843   4.407   0.381   2.316 -1.3211 -1.1534  3.7737
   69SAPC     P 5844   4.339   0.668   2.506  0.1767  0.1738  0.4778
   69SAPC   O13 5845   4.420   0.762   2.431 -0.6665  0.5142  0.6589
   69SAPC   O14 5846   4.204   0.713   2.548  0.1862  0.0062  0.1114
   69SAPC   O12 5847   4.321   0.536   2.414  0.3647 -1.1224 -0.1702
   69SAPC   O11 5848   4.420   0.618   2.628 -0.3526  0.5286 -0.0246
   69SAPC    C1 5849   4.409   0.483   2.673  0.1010  0.1579 -0.4968
   69SAPC    HA 5850   4.409   0.409   2.590 -2.9065  0.6841 -1.1131
   69SAPC    HB 5851   4.497   0.456   2.734 -1.1493 -0.6793  0.9894
   69SAPC    C2 5852   4.278   0.456   2.744 -0.0184  1.0458 -0.1527
   69SAPC    HS 5853   4.197   0.495   2.679  0.0658 -0.6122 -1.3229
   69SAPC   O21 5854   4.285   0.515   2.875 -0.0561  1.0905 -0.4876
   69SAPC   C21 5855   4.167   0.526   2.943  0.7068 -0.0649  0.6880
   69SAPC   O22 5856   4.063   0.488   2.898  0.1248  0.5145  0.5756
   69SAPC   C22 5857   4.195   0.596   3.073  0.2459  0.4505  0.5760
   69SAPC   H2R 5858   4.275   0.532   3.117  0.7931  0.2676 -0.6552
   69SAPC   H2S 5859   4.237   0.697   3.054 -1.5405  1.2777  0.8476
   69SAPC    C3 5860   4.258   0.302   2.762  0.1829  0.1250  0.2743
   69SAPC    HX 5861   4.250   0.259   2.660  0.1622  0.7887 -0.0115
   69SAPC    HY 5862   4.159   0.288   2.809  0.2563  2.1878  1.2043
   69SAPC   O31 5863   4.374   0.252   2.842  0.2758 -0.6158  0.4016
   69SAPC   C31 5864   4.357   0.236   2.976 -0.6419  0.2401 -0.0596
   69SAPC   O32 5865   4.252   0.250   3.031 -0.4834  0.0575 -0.4503
   69SAPC   C32 5866   4.497   0.208   3.043 -0.5715 -0.2228  1.1382
   69SAPC   H2X 5867   4.546   0.306   3.060  1.4071 -0.6611 -1.4264
   69SAPC   H2Y 5868   4.558   0.154   2.967 -0.5429  0.9405  0.3043
   69SAPC   C23 5869   4.068   0.599   3.159 -0.1626 -0.1264  0.1582
   69SAPC   H3R 5870   3.984   0.616   3.088  0.6047 -3.5935 -1.8143
   69SAPC   H3S 5871   4.080   0.692   3.218  1.2101  1.1619 -1.9929
   69SAPC   C24 5872   4.039   0.474   3.251 -0.5815 -0.1167 -0.0596
   69SAPC   H4R 5873   4.038   0.389   3.179 -1.6783 -1.0209  0.9744
   69SAPC   H4S 5874   3.935   0.483   3.291 -0.8868 -1.2241 -0.5701
   69SAPC   C25 5875   4.143   0.468   3.369 -0.0434  0.5526 -0.5790
   69SAPC   H5R 5876   4.240   0.418   3.352 -0.6822 -1.0402  0.1696
   69SAPC   C26 5877   4.129   0.539   3.485 -0.1067  0.2104  0.1974
   69SAPC   H6R 5878   4.210   0.522   3.556  0.8050  2.0405 -0.3518
   69SAPC   C27 5879   4.018   0.630   3.528 -0.2983 -0.0894  0.1169
   69SAPC   H7R 5880   3.922   0.617   3.474 -1.5032 -0.9361  2.3252
   69SAPC   H7S 5881   4.044   0.737   3.509 -0.6984  0.0881  0.5420
   69SAPC   C28 5882   3.976   0.602   3.668 -0.6441 -0.1066 -0.6261
   69SAPC   H8R 5883   3.914   0.512   3.682  1.2921 -1.4980 -0.4964
   69SAPC   C29 5884   4.017   0.669   3.777 -0.8037  0.0000  0.6660
   69SAPC   H9R 5885   3.994   0.627   3.876 -0.3426 -0.2413  0.6763
   69SAPC  C210 5886   4.117   0.783   3.780  0.2766  0.2418  0.7873
   69SAPC  H10R 5887   4.065   0.869   3.827  0.4492  0.3051  0.8647
   69SAPC  H10S 5888   4.154   0.812   3.680 -1.2156 -0.1342  0.0943
   69SAPC  C211 5889   4.229   0.735   3.868 -0.0217  0.5488 -0.1985
   69SAPC  H11R 5890   4.282   0.655   3.815  1.4911  2.9407 -2.5272
   69SAPC  C212 5891   4.286   0.791   3.978 -1.5049  0.6339  1.4438
   69SAPC  H12R 5892   4.370   0.740   4.027 -1.5642  0.2268  1.1323
   69SAPC  C213 5893   4.244   0.911   4.057 -0.1145  0.7967  0.1483
   69SAPC  H13R 5894   4.149   0.943   4.009 -1.4054 -3.8157 -0.9624
   69SAPC  H13S 5895   4.318   0.991   4.038  1.1213 -1.0874 -4.7026
   69SAPC  C214 5896   4.240   0.878   4.204  0.1412  0.0886 -0.6013
   69SAPC  H14R 5897   4.337   0.888   4.256  0.2766  0.3473 -0.8990
   69SAPC  C215 5898   4.125   0.840   4.269 -0.0232 -0.2079  0.4702
   69SAPC  H15R 5899   4.121   0.835   4.379 -0.9404  0.8634  0.5086
   69SAPC  C216 5900   3.991   0.822   4.207 -0.0566  0.0411 -0.6384
   69SAPC  H16R 5901   3.949   0.730   4.254 -0.1092 -0.0095 -0.7836
   69SAPC  H16S 5902   3.995   0.810   4.096  1.8514  2.2406 -0.8684
   69SAPC  C217 5903   3.892   0.933   4.236 -0.3021  0.8211  0.9475
   69SAPC  H17R 5904   3.801   0.915   4.174  0.5989 -0.4435 -0.0569
   69SAPC  H17S 5905   3.936   1.025   4.192  1.0730  0.3648  1.3192
   69SAPC  C218 5906   3.846   0.961   4.378  0.1085 -0.3209 -0.0787
   69SAPC  H18R 5907   3.932   0.957   4.447  1.7419  0.8967 -1.9214
   69SAPC  H18S 5908   3.772   0.883   4.405 -2.2135  1.6258 -0.4708
   69SAPC  C219 5909   3.775   1.098   4.383  0.0266  0.1338 -0.1798
   69SAPC  H19R 5910   3.832   1.169   4.320  0.0913  0.4659  0.2539
   69SAPC  H19S 5911   3.792   1.134   4.486 -2.1032  1.6171 -0.2837
   69SAPC  C220 5912   3.626   1.094   4.333  0.1167 -0.5222  0.4657
   69SAPC  H20R 5913   3.573   1.021   4.398 -0.5712  0.7204  1.3538
   69SAPC  H20S 5914   3.606   1.076   4.225 -0.7782  2.0251  0.1215
   69SAPC  H20T 5915   3.590   1.195   4.363  0.8307 -0.5468  1.4351
   69SAPC   C33 5916   4.494   0.135   3.176 -0.3704 -0.3256  0.0337
   69SAPC   H3X 5917   4.588   0.084   3.207 -1.0894 -0.4135  2.2848
   69SAPC   H3Y 5918   4.426   0.047   3.171  0.6590 -1.1339 -0.1269
   69SAPC   C34 5919   4.454   0.222   3.293  0.3535  0.0761  0.2319
   69SAPC   H4X 5920   4.347   0.249   3.283  0.2290 -0.3142  0.4926
   69SAPC   H4Y 5921   4.506   0.319   3.275  0.3947 -0.4705 -3.1890
   69SAPC   C35 5922   4.481   0.166   3.425  0.2419  0.4860 -0.0396
   69SAPC   H5X 5923   4.577   0.109   3.420  1.0323  1.5031  2.2005
   69SAPC   H5Y 5924   4.410   0.086   3.456  0.3338  1.2122  2.2275
   69SAPC   C36 5925   4.483   0.265   3.539 -0.0782  0.0704 -0.3637
   69SAPC   H6X 5926   4.385   0.317   3.537 -1.3413 -2.2129 -0.3007
   69SAPC   H6Y 5927   4.553   0.351   3.533 -0.7680  0.6684  0.0623
   69SAPC   C37 5928   4.503   0.198   3.677 -0.6038  0.2864  0.3166
   69SAPC   H7X 5929   4.606   0.156   3.672 -0.0639  1.6872 -2.0319
   69SAPC   H7Y 5930   4.429   0.118   3.695 -0.7845  0.4165  0.1446
   69SAPC   C38 5931   4.505   0.300   3.790  0.0970 -0.1049 -0.2105
   69SAPC   H8X 5932   4.415   0.364   3.799  2.1921  2.9070  1.1385
   69SAPC   H8Y 5933   4.582   0.377   3.768 -0.7027  1.0641  0.9382
   69SAPC   C39 5934   4.533   0.252   3.932 -0.0911 -0.1090  0.2523
   69SAPC   H9X 5935   4.606   0.169   3.926 -0.9579 -0.7845 -2.2781
   69SAPC   H9Y 5936   4.443   0.207   3.979 -0.0422  1.5772  2.0890
   69SAPC  C310 5937   4.562   0.368   4.024 -0.0132  0.1894 -0.0252
   69SAPC  H10X 5938   4.482   0.445   4.020 -2.5879 -2.2401  1.3808
   69SAPC  H10Y 5939   4.662   0.415   4.011  0.9171 -1.7582 -0.2862
   69SAPC  C311 5940   4.555   0.317   4.171  0.7602 -0.2693  0.3543
   69SAPC  H11X 5941   4.452   0.290   4.204  0.5494 -1.6871 -1.3200
   69SAPC  H11Y 5942   4.593   0.399   4.235 -0.0117  0.5305 -0.1815
   69SAPC  C312 5943   4.644   0.197   4.201  0.9868  0.3323  0.5869
   69SAPC  H12X 5944   4.745   0.220   4.161  1.2174 -2.2959 -0.5289
   69SAPC  H12Y 5945   4.612   0.096   4.170  1.0755  0.3937  0.2865
   69SAPC  C313 5946   4.645   0.191   4.357 -0.6158 -0.2813 -0.2249
   69SAPC  H13X 5947   4.553   0.147   4.401 -0.1802 -0.2907  0.7162
   69SAPC  H13Y 5948   4.651   0.292   4.403 -0.6670 -1.4210  2.5351
   69SAPC  C314 5949   4.769   0.111   4.416 -0.7481 -0.3387 -0.4061
   69SAPC  H14X 5950   4.857   0.141   4.354 -0.5774  0.0175  0.0011
   69SAPC  H14Y 5951   4.737   0.007   4.394 -0.0163 -0.8804  0.9763
   69SAPC  C315 5952   4.804   0.140   4.566 -0.4050 -0.1778  0.1665
   69SAPC  H15X 5953   4.712   0.113   4.622 -1.1089  0.1594 -0.7935
   69SAPC  H15Y 5954   4.820   0.249   4.583  0.4317  0.2601 -2.8417
   69SAPC  C316 5955   4.924   0.053   4.608 -0.7553 -0.3487  0.8815
   69SAPC  H16X 5956   5.011   0.106   4.563 -2.2743  0.7151 -0.9180
   69SAPC  H16Y 5957   4.914  -0.051   4.570 -1.0517 -0.0579  0.1540
   69SAPC  C317 5958   4.948   0.038   4.766  0.1261  0.3579  0.5664
   69SAPC  H17X 5959   4.848   0.056   4.811 -1.1430 -2.9760 -0.5891
   69SAPC  H17Y 5960   5.017   0.120   4.797  1.7630 -1.5891  2.4224
   69SAPC  C318 5961   5.005  -0.102   4.802 -0.6530 -0.3127  0.2325
   69SAPC  H18X 5962   5.105  -0.115   4.755 -1.3609 -0.1720 -1.3974
   69SAPC  H18Y 5963   4.944  -0.181   4.752  0.1197 -1.0836  0.4731
   69SAPC  H18Z 5964   5.005  -0.130   4.909 -0.6812  1.5348  0.7379
   70SAPC     N 5965   2.275   5.661   2.136 -0.6377 -0.4979 -0.2278
   70SAPC   C12 5966   2.408   5.668   2.192  0.0004  0.0782 -0.3123
   70SAPC  H12A 5967   2.414   5.602   2.277  0.5276  2.0257  1.2238
   70SAPC  H12B 5968   2.421   5.760   2.246 -0.0089 -1.0998  1.8179
   70SAPC   C13 5969   2.263   5.752   2.018 -0.4348 -0.7366  0.2697
   70SAPC  H13A 5970   2.170   5.740   1.965 -0.0063  0.9116 -0.9494
   70SAPC  H13B 5971   2.273   5.857   2.042 -0.2277 -0.6066 -0.3792
   70SAPC  H13C 5972   2.341   5.734   1.945  2.7756 -0.2615  3.3260
   70SAPC   C14 5973   2.237   5.521   2.095 -0.2600 -0.1230  0.1195
   70SAPC  H14A 5974   2.237   5.455   2.181 -0.2389  0.9198  0.9464
   70SAPC  H14B 5975   2.149   5.520   2.033  0.4204 -0.7400 -0.8564
   70SAPC  H14C 5976   2.308   5.477   2.027 -1.5359  0.4319 -1.6203
   70SAPC   C15 5977   2.178   5.703   2.243  0.5968 -0.1467  0.1120
   70SAPC  H15A 5978   2.181   5.809   2.262 -0.6707 -0.4996  2.5720
   70SAPC  H15B 5979   2.079   5.670   2.213  0.1993  1.1868 -0.1102
   70SAPC  H15C 5980   2.192   5.653   2.337 -0.5487  1.0189  0.9274
   70SAPC   C11 5981   2.536   5.656   2.108 -0.1744 -0.0635  0.1014
   70SAPC  H11A 5982   2.612   5.688   2.182 -0.9459 -1.8816  1.7959
   70SAPC  H11B 5983   2.541   5.722   2.019  1.8295 -3.2740 -2.3915
   70SAPC     P 5984   2.635   5.424   2.137 -0.3881 -0.1522 -0.5291
   70SAPC   O13 5985   2.565   5.299   2.140  0.4359  0.6643 -0.2255
   70SAPC   O14 5986   2.778   5.421   2.095 -0.1784 -0.1295  0.9564
   70SAPC   O12 5987   2.558   5.527   2.054 -0.2436 -0.1019  0.3061
   70SAPC   O11 5988   2.640   5.482   2.283  0.2536  0.2553  0.0882
   70SAPC    C1 5989   2.542   5.445   2.382 -0.4053  0.2905 -0.0446
   70SAPC    HA 5990   2.527   5.537   2.443 -1.8635  0.3265 -0.4110
   70SAPC    HB 5991   2.440   5.423   2.344  0.1446 -0.4056 -1.1784
   70SAPC    C2 5992   2.581   5.338   2.487 -0.8003  0.7715  0.7287
   70SAPC    HS 5993   2.494   5.335   2.556 -0.4118  1.7645  1.2709
   70SAPC   O21 5994   2.701   5.388   2.549  0.2922 -0.2104 -0.1811
   70SAPC   C21 5995   2.715   5.351   2.674 -0.4739  0.0217  0.1148
   70SAPC   O22 5996   2.633   5.290   2.738 -0.1500  0.5559 -0.4041
   70SAPC   C22 5997   2.860   5.406   2.720  0.6185  0.1679  0.4525
   70SAPC   H2R 5998   2.931   5.336   2.672  1.8479  1.6757  0.0023
   70SAPC   H2S 5999   2.871   5.507   2.674  1.0182  0.1552  0.5200
   70SAPC    C3 6000   2.618   5.190   2.437  0.4986 -0.8552  0.4254
   70SAPC    HX 6001   2.718   5.195   2.389 -0.1657  0.0553 -0.9008
   70SAPC    HY 6002   2.547   5.158   2.358 -0.1394  0.1226  0.5887
   70SAPC   O31 6003   2.625   5.094   2.547 -0.0790 -0.1245  0.1465
   70SAPC   C31 6004   2.740   5.047   2.583 -0.0954 -0.2705  0.3926
   70SAPC   O32 6005   2.843   5.075   2.523 -0.2004 -0.2013  0.3412
   70SAPC   C32 6006   2.727   4.971   2.712 -0.5814  0.4523  0.1623
   70SAPC   H2X 6007   2.686   4.871   2.688 -2.7966  1.4580 -0.5142
   70SAPC   H2Y 6008   2.642   5.012   2.771 -1.9570  0.4855 -1.7258
   70SAPC   C23 6009   2.882   5.435   2.872 -0.5409 -0.6629 -0.0140
   70SAPC   H3R 6010   2.799   5.501   2.903 -0.5516 -0.2865 -0.8341
   70SAPC   H3S 6011   2.982   5.482   2.879 -1.4100  0.9740  3.7539
   70SAPC   C24 6012   2.885   5.314   2.964 -0.5304 -0.4247  0.8044
   70SAPC   H4R 6013   2.955   5.240   2.919 -0.4113  0.0914  0.1161
   70SAPC   H4S 6014   2.781   5.277   2.975 -0.6857 -0.8863 -1.6697
   70SAPC   C25 6015   2.938   5.350   3.104  0.3816  0.9223  0.1964
   70SAPC   H5R 6016   3.014   5.429   3.112  1.5428  0.0506 -1.6501
   70SAPC   C26 6017   2.905   5.291   3.222 -0.1788 -0.7822  0.2750
   70SAPC   H6R 6018   2.929   5.337   3.319 -0.9225  0.5087 -0.1393
   70SAPC   C27 6019   2.812   5.170   3.235 -0.3173 -0.4630 -0.5835
   70SAPC   H7R 6020   2.751   5.151   3.144  0.9330  2.9431 -2.3146
   70SAPC   H7S 6021   2.739   5.197   3.314 -2.0156 -1.9216 -1.5694
   70SAPC   C28 6022   2.904   5.052   3.277  0.1156  0.2839  0.5129
   70SAPC   H8R 6023   2.968   5.022   3.192  0.0176  0.5567  0.3408
   70SAPC   C29 6024   2.919   4.975   3.386  0.5494  0.7237 -0.1538
   70SAPC   H9R 6025   2.992   4.892   3.395 -0.3793  0.0377  1.6303
   70SAPC  C210 6026   2.845   4.990   3.521 -0.5576 -0.8550  0.5844
   70SAPC  H10R 6027   2.891   5.064   3.590  0.3912  0.0479 -0.9724
   70SAPC  H10S 6028   2.861   4.898   3.581 -0.4687 -1.3916 -0.2450
   70SAPC  C211 6029   2.697   5.003   3.520 -1.0294 -0.7845  0.6402
   70SAPC  H11R 6030   2.649   4.977   3.425 -1.1782  0.4236  0.3677
   70SAPC  C212 6031   2.617   5.044   3.617  1.0122  0.2708 -0.0764
   70SAPC  H12R 6032   2.508   5.035   3.605  0.9817 -0.7822  0.7990
   70SAPC  C213 6033   2.653   5.089   3.752 -0.4691  1.0314 -0.6881
   70SAPC  H13R 6034   2.599   5.178   3.790  0.0981  0.9020  0.4770
   70SAPC  H13S 6035   2.757   5.127   3.748 -0.2466  0.3730 -1.4505
   70SAPC  C214 6036   2.641   4.988   3.865  0.7402 -0.4692 -0.5731
   70SAPC  H14R 6037   2.669   4.886   3.836  2.3874 -0.3039  0.3230
   70SAPC  C215 6038   2.594   5.015   3.991 -0.1302  0.3762 -0.0398
   70SAPC  H15R 6039   2.599   4.931   4.062  0.0549  1.0462  0.7595
   70SAPC  C216 6040   2.553   5.148   4.048 -0.2179  0.0552 -0.1177
   70SAPC  H16R 6041   2.443   5.149   4.063 -0.4087 -0.0705 -1.4039
   70SAPC  H16S 6042   2.570   5.231   3.977 -3.2745  1.1358  0.2759
   70SAPC  C217 6043   2.624   5.177   4.185  0.0731  0.0351 -0.2678
   70SAPC  H17R 6044   2.616   5.283   4.218  1.9765 -0.4702  2.1494
   70SAPC  H17S 6045   2.733   5.178   4.161  0.1550 -0.3043  0.0892
   70SAPC  C218 6046   2.600   5.086   4.305  0.2299 -0.1087  0.8854
   70SAPC  H18R 6047   2.678   5.106   4.381  1.2616  1.2827 -0.4964
   70SAPC  H18S 6048   2.631   4.982   4.280  0.5136  0.4496 -1.2480
   70SAPC  C219 6049   2.466   5.096   4.376 -0.2732  0.1766  0.6345
   70SAPC  H19R 6050   2.476   5.044   4.473 -0.9885  0.3327  0.7954
   70SAPC  H19S 6051   2.399   5.034   4.312  0.6741  0.1534 -0.3638
   70SAPC  C220 6052   2.400   5.233   4.382 -0.8320 -0.6280 -0.5297
   70SAPC  H20R 6053   2.459   5.317   4.424  1.0931 -1.2721 -1.8056
   70SAPC  H20S 6054   2.312   5.231   4.450 -0.0835  1.6836  0.6055
   70SAPC  H20T 6055   2.367   5.260   4.279 -1.9940 -0.2711 -0.0795
   70SAPC   C33 6056   2.876   4.960   2.790  0.2191 -0.3890  0.4335
   70SAPC   H3X 6057   2.920   5.062   2.781  1.4143 -0.9006  0.3118
   70SAPC   H3Y 6058   2.923   4.889   2.718 -0.8446  0.0700 -0.7569
   70SAPC   C34 6059   2.867   4.915   2.935 -0.0395 -0.1249 -0.2658
   70SAPC   H4X 6060   2.796   4.984   2.986 -0.0034  0.1768 -0.6238
   70SAPC   H4Y 6061   2.971   4.934   2.968 -0.2407  0.5522 -0.0094
   70SAPC   C35 6062   2.817   4.772   2.961  0.6144 -1.0307  0.0672
   70SAPC   H5X 6063   2.868   4.689   2.907 -1.4128 -0.8289 -2.2846
   70SAPC   H5Y 6064   2.716   4.769   2.915  0.2491  1.8171  0.5009
   70SAPC   C36 6065   2.804   4.743   3.108  0.9278  0.6350  0.6687
   70SAPC   H6X 6066   2.745   4.830   3.143 -1.3705 -0.9558  0.9302
   70SAPC   H6Y 6067   2.901   4.726   3.160  0.3152 -1.8615  1.1335
   70SAPC   C37 6068   2.702   4.624   3.127  0.4940  0.4154  0.7086
   70SAPC   H7X 6069   2.610   4.637   3.066  1.7535 -0.0708 -1.4315
   70SAPC   H7Y 6070   2.753   4.533   3.087  1.4883  0.6073  1.4972
   70SAPC   C38 6071   2.662   4.609   3.281  0.5874 -0.5783  0.1076
   70SAPC   H8X 6072   2.575   4.542   3.294 -1.2609  1.4391 -1.1283
   70SAPC   H8Y 6073   2.624   4.710   3.307 -1.3407 -0.8198 -1.4634
   70SAPC   C39 6074   2.775   4.560   3.369  0.2620  0.1256 -0.1864
   70SAPC   H9X 6075   2.845   4.640   3.402 -0.6832  1.1002 -0.5090
   70SAPC   H9Y 6076   2.825   4.483   3.307  1.6278 -0.4376  1.5432
   70SAPC  C310 6077   2.714   4.497   3.496 -0.2516  0.8126 -0.3144
   70SAPC  H10X 6078   2.794   4.439   3.546  1.5246  0.9664 -2.8187
   70SAPC  H10Y 6079   2.633   4.428   3.463  0.8226  0.4663 -2.3408
   70SAPC  C311 6080   2.659   4.593   3.605 -0.3680  0.3147  0.1197
   70SAPC  H11X 6081   2.567   4.639   3.565 -0.3142  1.5251  1.3124
   70SAPC  H11Y 6082   2.737   4.672   3.613 -0.8822  0.7007  1.7185
   70SAPC  C312 6083   2.630   4.523   3.735 -0.6524 -0.2175 -0.1336
   70SAPC  H12X 6084   2.719   4.466   3.768  1.1971  1.5795 -1.7626
   70SAPC  H12Y 6085   2.556   4.442   3.718 -0.8054 -0.4765  1.5750
   70SAPC  C313 6086   2.584   4.612   3.850  0.0967  0.2789  0.5783
   70SAPC  H13X 6087   2.495   4.672   3.823 -1.3081 -1.8714  0.2096
   70SAPC  H13Y 6088   2.661   4.687   3.878 -0.0150  0.6049  0.0313
   70SAPC  C314 6089   2.552   4.539   3.984  0.1709 -0.1284  0.8040
   70SAPC  H14X 6090   2.642   4.481   4.013 -0.3841 -1.6898 -0.4349
   70SAPC  H14Y 6091   2.467   4.469   3.969  0.0097  0.5686 -2.1315
   70SAPC  C315 6092   2.546   4.636   4.097  0.2964 -0.1146 -0.4064
   70SAPC  H15X 6093   2.465   4.707   4.071  1.9928  2.8976  1.9029
   70SAPC  H15Y 6094   2.637   4.699   4.108 -0.4217  1.2274 -1.9110
   70SAPC  C316 6095   2.520   4.555   4.227 -0.0824 -0.4305  0.1743
   70SAPC  H16X 6096   2.578   4.461   4.221  1.2769  0.2252  2.1532
   70SAPC  H16Y 6097   2.418   4.511   4.213 -0.1118 -0.2741 -0.1086
   70SAPC  C317 6098   2.526   4.624   4.360 -0.3068  0.2539 -0.5048
   70SAPC  H17X 6099   2.488   4.553   4.436 -0.9895 -0.9749 -1.9399
   70SAPC  H17Y 6100   2.464   4.716   4.363  0.7049  0.9244  0.5867
   70SAPC  C318 6101   2.660   4.678   4.405 -0.3363  0.4442 -0.2606
   70SAPC  H18X 6102   2.638   4.722   4.505  1.1307  0.4964  0.0526
   70SAPC  H18Y 6103   2.695   4.748   4.326  1.9901 -1.8385 -1.4018
   70SAPC  H18Z 6104   2.729   4.591   4.412 -0.2179  0.4994 -0.7578
   71SAPC     N 6105   6.634   3.182   2.160  0.9905 -0.2473  0.1816
   71SAPC   C12 6106   6.565   3.315   2.173 -0.0753 -0.3992  0.0230
   71SAPC  H12A 6107   6.480   3.303   2.239 -0.2717 -0.4942 -0.2453
   71SAPC  H12B 6108   6.521   3.351   2.081  0.2431 -0.7019 -0.2476
   71SAPC   C13 6109   6.556   3.093   2.079 -0.6687 -0.0062  0.0377
   71SAPC  H13A 6110   6.546   3.142   1.983 -2.8622  1.0042  0.7218
   71SAPC  H13B 6111   6.604   2.997   2.065 -1.7552 -0.6895  0.8718
   71SAPC  H13C 6112   6.460   3.077   2.125 -0.2943 -0.4095  0.6933
   71SAPC   C14 6113   6.781   3.190   2.109  0.1912 -0.9271 -0.0249
   71SAPC  H14A 6114   6.818   3.094   2.077 -0.9834 -0.8212 -1.8695
   71SAPC  H14B 6115   6.784   3.257   2.024 -0.3184 -0.9857 -0.0959
   71SAPC  H14C 6116   6.850   3.232   2.180  1.2316 -0.5792 -1.2034
   71SAPC   C15 6117   6.630   3.123   2.303  0.2883  0.6400  0.0514
   71SAPC  H15A 6118   6.651   3.017   2.298 -2.8871 -0.1591  1.1203
   71SAPC  H15B 6119   6.696   3.166   2.377 -1.0694  1.0819  1.0460
   71SAPC  H15C 6120   6.530   3.128   2.343 -1.3031 -2.8351 -2.9320
   71SAPC   C11 6121   6.652   3.424   2.233  0.0179 -0.3366 -0.0997
   71SAPC  H11A 6122   6.726   3.371   2.297 -0.7929 -2.2175 -0.6595
   71SAPC  H11B 6123   6.581   3.485   2.293  0.1317  0.2383 -0.5336
   71SAPC     P 6124   6.853   3.567   2.144  0.1043 -0.1233  0.0961
   71SAPC   O13 6125   6.951   3.455   2.119 -0.2324  0.2313 -0.1637
   71SAPC   O14 6126   6.864   3.687   2.058 -0.9387 -0.1313  0.2390
   71SAPC   O12 6127   6.708   3.513   2.128 -0.2041  0.5228 -0.0590
   71SAPC   O11 6128   6.860   3.615   2.294  0.2166 -0.0221  0.2362
   71SAPC    C1 6129   6.799   3.737   2.322  0.2724 -0.5026 -0.7262
   71SAPC    HA 6130   6.859   3.820   2.279 -0.6781  0.1382 -0.8588
   71SAPC    HB 6131   6.695   3.733   2.282  0.1025 -0.3597 -0.2963
   71SAPC    C2 6132   6.793   3.746   2.475 -0.4971  0.6287 -0.4390
   71SAPC    HS 6133   6.757   3.848   2.497 -2.7269 -0.2072  0.0124
   71SAPC   O21 6134   6.920   3.723   2.532 -0.4624  0.4097 -0.1346
   71SAPC   C21 6135   7.006   3.819   2.538 -1.3162 -0.5681  0.0381
   71SAPC   O22 6136   6.985   3.928   2.489 -0.0191 -0.0897  0.2929
   71SAPC   C22 6137   7.129   3.784   2.618  0.0835 -0.1809  1.0168
   71SAPC   H2R 6138   7.133   3.675   2.637  2.3119 -0.4828 -0.6925
   71SAPC   H2S 6139   7.216   3.799   2.550  0.1175 -2.6868  0.4119
   71SAPC    C3 6140   6.694   3.639   2.538 -0.0094 -0.5058  0.5148
   71SAPC    HX 6141   6.753   3.546   2.552  0.6337  0.1398  2.4152
   71SAPC    HY 6142   6.614   3.622   2.463  0.2620  0.0126  0.0959
   71SAPC   O31 6143   6.634   3.685   2.662 -0.3313 -0.0512 -0.4192
   71SAPC   C31 6144   6.603   3.586   2.747 -0.0146 -0.4491 -0.0729
   71SAPC   O32 6145   6.622   3.471   2.735 -0.5232 -0.1644  0.1861
   71SAPC   C32 6146   6.523   3.640   2.875  0.2296  0.2199 -0.2696
   71SAPC   H2X 6147   6.420   3.598   2.869 -0.5244  2.0697 -0.8799
   71SAPC   H2Y 6148   6.521   3.751   2.884 -0.9375  0.2869 -1.0936
   71SAPC   C23 6149   7.135   3.874   2.743  0.6792  0.0608 -1.1171
   71SAPC   H3R 6150   7.136   3.982   2.718  0.8496  0.6831  1.3722
   71SAPC   H3S 6151   7.227   3.846   2.799  0.0630  0.3652  0.0816
   71SAPC   C24 6152   7.017   3.842   2.843  0.1795 -0.0189 -0.1248
   71SAPC   H4R 6153   6.923   3.857   2.786 -0.2486 -3.5474 -0.5662
   71SAPC   H4S 6154   7.034   3.921   2.920  0.2081 -0.4590  0.3283
   71SAPC   C25 6155   6.999   3.702   2.895  0.8690  0.1436 -0.5232
   71SAPC   H5R 6156   7.039   3.623   2.829  0.2526 -0.6575  0.0493
   71SAPC   C26 6157   6.970   3.675   3.024 -0.3900 -0.8146  0.0758
   71SAPC   H6R 6158   6.968   3.569   3.051  2.3844 -0.2914  3.0026
   71SAPC   C27 6159   6.956   3.773   3.139 -0.1283  0.7143  0.5517
   71SAPC   H7R 6160   7.049   3.835   3.143  1.2099 -1.1076 -0.5926
   71SAPC   H7S 6161   6.964   3.708   3.229 -1.5304 -1.1554 -0.6012
   71SAPC   C28 6162   6.834   3.851   3.149 -0.1741 -0.4196 -0.1358
   71SAPC   H8R 6163   6.756   3.845   3.071  0.7256  1.4317 -1.2349
   71SAPC   C29 6164   6.809   3.932   3.257  0.2857 -0.2755  0.3205
   71SAPC   H9R 6165   6.723   4.000   3.257  0.6407  0.2118 -1.0209
   71SAPC  C210 6166   6.910   3.958   3.375  0.1303  0.1011  0.0344
   71SAPC  H10R 6167   7.014   3.932   3.346 -0.6590 -2.9000 -0.4291
   71SAPC  H10S 6168   6.877   3.886   3.453 -1.5340  1.6184  0.8064
   71SAPC  C211 6169   6.913   4.100   3.435 -0.6667  0.1439  0.6276
   71SAPC  H11R 6170   7.008   4.147   3.404  0.4757 -2.2441  0.2982
   71SAPC  C212 6171   6.822   4.164   3.512 -1.0560  0.0531 -0.2064
   71SAPC  H12R 6172   6.836   4.272   3.529 -1.4123  0.1838 -0.7125
   71SAPC  C213 6173   6.696   4.100   3.562  0.5929  0.1222  0.2059
   71SAPC  H13R 6174   6.702   3.989   3.569  0.0474 -0.0136 -1.1342
   71SAPC  H13S 6175   6.617   4.136   3.493 -1.5164  0.3744  2.5932
   71SAPC  C214 6176   6.672   4.155   3.704  0.0403  0.0933  0.1235
   71SAPC  H14R 6177   6.744   4.118   3.779 -0.0585  0.2531  0.2981
   71SAPC  C215 6178   6.579   4.233   3.750  0.5144 -0.3745  0.1504
   71SAPC  H15R 6179   6.577   4.259   3.857  0.3228 -0.6872  0.2236
   71SAPC  C216 6180   6.460   4.287   3.679  0.5892  0.5700 -0.2325
   71SAPC  H16R 6181   6.391   4.202   3.658  0.5376  0.7163 -0.6709
   71SAPC  H16S 6182   6.483   4.331   3.579  0.2865  1.0646 -0.0863
   71SAPC  C217 6183   6.376   4.380   3.761  0.4061  0.2792 -0.4545
   71SAPC  H17R 6184   6.300   4.418   3.690  2.0186 -0.4566 -2.6499
   71SAPC  H17S 6185   6.443   4.462   3.794  1.5342 -0.9935  0.5237
   71SAPC  C218 6186   6.308   4.310   3.879  0.2261 -1.3204 -0.1519
   71SAPC  H18R 6187   6.392   4.258   3.929  2.7966  1.5368 -1.2197
   71SAPC  H18S 6188   6.223   4.243   3.853  0.3161 -1.8714  0.9183
   71SAPC  C219 6189   6.256   4.416   3.976 -0.2824  0.5058 -0.0217
   71SAPC  H19R 6190   6.168   4.457   3.922 -0.6592  0.5868  0.6374
   71SAPC  H19S 6191   6.325   4.503   3.990  0.6214 -0.1781 -0.1744
   71SAPC  C220 6192   6.209   4.359   4.105 -0.6603 -0.0775 -0.0849
   71SAPC  H20R 6193   6.161   4.443   4.158  0.4531 -0.1124  1.0385
   71SAPC  H20S 6194   6.288   4.312   4.167 -0.0882 -0.6692 -1.2186
   71SAPC  H20T 6195   6.133   4.279   4.090  0.4159 -1.7713  2.7503
   71SAPC   C33 6196   6.577   3.573   3.007 -0.2392 -0.1642 -0.4117
   71SAPC   H3X 6197   6.681   3.612   3.017  0.1453 -1.6176  2.1209
   71SAPC   H3Y 6198   6.566   3.465   2.988 -0.8263 -0.2363  0.2870
   71SAPC   C34 6199   6.501   3.618   3.136  0.1469  0.3547 -0.2081
   71SAPC   H4X 6200   6.398   3.575   3.133 -0.2155  1.2315 -2.7753
   71SAPC   H4Y 6201   6.495   3.727   3.118 -0.9627  0.0823 -1.7653
   71SAPC   C35 6202   6.578   3.589   3.264  0.0652  0.1755  0.0734
   71SAPC   H5X 6203   6.681   3.625   3.243  0.2918  1.4203  2.9546
   71SAPC   H5Y 6204   6.575   3.480   3.284 -1.2065  0.4715  1.6905
   71SAPC   C36 6205   6.508   3.659   3.386 -0.1096  0.6889  0.4259
   71SAPC   H6X 6206   6.429   3.593   3.428 -0.9881 -0.1783 -2.3756
   71SAPC   H6Y 6207   6.463   3.755   3.352 -0.8859  0.1427 -0.1275
   71SAPC   C37 6208   6.617   3.681   3.493 -0.0365 -0.7326 -0.6506
   71SAPC   H7X 6209   6.704   3.741   3.457  0.2176 -0.1237  0.9035
   71SAPC   H7Y 6210   6.652   3.580   3.520 -2.0881 -1.3263 -0.0825
   71SAPC   C38 6211   6.537   3.730   3.618 -0.5264  0.7433 -0.8916
   71SAPC   H8X 6212   6.441   3.674   3.623 -1.7298  2.4604 -3.0834
   71SAPC   H8Y 6213   6.502   3.832   3.594 -1.4863  0.9981  1.3473
   71SAPC   C39 6214   6.641   3.734   3.735 -0.1270  0.2184 -0.3748
   71SAPC   H9X 6215   6.741   3.766   3.698 -0.2999 -0.2239 -1.2420
   71SAPC   H9Y 6216   6.645   3.629   3.773  0.3911  0.7102  1.0062
   71SAPC  C310 6217   6.599   3.817   3.855  0.1306  0.1823 -0.2763
   71SAPC  H10X 6218   6.505   3.774   3.895  0.5732 -2.9431 -2.2987
   71SAPC  H10Y 6219   6.598   3.920   3.813  1.8405  0.3397  0.0106
   71SAPC  C311 6220   6.692   3.816   3.976  0.4574  0.1600 -0.2995
   71SAPC  H11X 6221   6.773   3.891   3.966 -0.6150  1.1854 -1.7858
   71SAPC  H11Y 6222   6.723   3.711   3.994 -2.1206 -0.3201  2.1454
   71SAPC  C312 6223   6.617   3.845   4.110  0.3955  0.0492  0.7079
   71SAPC  H12X 6224   6.679   3.823   4.199 -0.4286  1.1324  1.5780
   71SAPC  H12Y 6225   6.533   3.771   4.110  1.0152 -0.7759 -2.0898
   71SAPC  C313 6226   6.556   3.991   4.120  0.3084  0.4175  1.0353
   71SAPC  H13X 6227   6.469   3.991   4.189 -0.7070  0.5780 -0.2324
   71SAPC  H13Y 6228   6.519   4.008   4.017 -0.7620  0.2767  1.3852
   71SAPC  C314 6229   6.657   4.099   4.142 -0.1967  0.3188 -0.0392
   71SAPC  H14X 6230   6.731   4.113   4.060  1.6391 -0.0301  1.4792
   71SAPC  H14Y 6231   6.717   4.061   4.227 -0.5566 -0.7098 -0.2351
   71SAPC  C315 6232   6.600   4.237   4.174 -0.1662 -0.1012 -0.6337
   71SAPC  H15X 6233   6.537   4.241   4.266  0.9033  2.1992  0.0806
   71SAPC  H15Y 6234   6.535   4.268   4.089 -2.3556 -1.5678  0.3933
   71SAPC  C316 6235   6.711   4.335   4.194  0.3502 -0.0564  0.4781
   71SAPC  H16X 6236   6.791   4.319   4.119 -1.7418 -1.5783 -1.5574
   71SAPC  H16Y 6237   6.737   4.308   4.299  0.1974 -3.1088 -0.1769
   71SAPC  C317 6238   6.663   4.478   4.184 -0.6522 -0.1650  0.4811
   71SAPC  H17X 6239   6.742   4.552   4.210 -0.2731  0.3647 -1.9372
   71SAPC  H17Y 6240   6.569   4.499   4.239 -1.1265  3.4041 -1.3816
   71SAPC  C318 6241   6.632   4.518   4.039 -0.2658  0.0616  0.5407
   71SAPC  H18X 6242   6.615   4.627   4.031  0.9082  0.2284  0.0530
   71SAPC  H18Y 6243   6.539   4.472   3.999  1.1424 -2.7754  0.2818
   71SAPC  H18Z 6244   6.720   4.490   3.977  0.0865  1.6546  0.2931
   72SAPC     N 6245   6.415   1.443   1.716 -0.1824  0.4348  0.8852
   72SAPC   C12 6246   6.390   1.345   1.835  0.1782  0.7117  0.1439
   72SAPC  H12A 6247   6.467   1.269   1.828  0.7968  1.3382 -0.0224
   72SAPC  H12B 6248   6.289   1.309   1.826 -0.4597  2.4902 -0.0602
   72SAPC   C13 6249   6.300   1.532   1.703 -0.2567 -0.2661 -0.1921
   72SAPC  H13A 6250   6.216   1.466   1.689  0.4034 -0.8408 -1.5784
   72SAPC  H13B 6251   6.285   1.597   1.789  2.1954  0.2174 -0.0549
   72SAPC  H13C 6252   6.305   1.607   1.625  0.2008  0.9937  0.9932
   72SAPC   C14 6253   6.530   1.529   1.740 -0.5896 -0.7812 -0.7151
   72SAPC  H14A 6254   6.514   1.574   1.837 -0.0529 -0.8289 -0.6010
   72SAPC  H14B 6255   6.620   1.474   1.761  0.3067  0.7978 -0.2401
   72SAPC  H14C 6256   6.532   1.607   1.665  0.8315 -0.1937 -0.0900
   72SAPC   C15 6257   6.434   1.378   1.582  0.0445  0.4819 -0.3151
   72SAPC  H15A 6258   6.348   1.317   1.555  0.5960  0.0412 -1.1226
   72SAPC  H15B 6259   6.446   1.442   1.496 -1.5487 -1.4292 -2.0791
   72SAPC  H15C 6260   6.527   1.324   1.577  0.6510  1.5325 -0.6469
   72SAPC   C11 6261   6.413   1.394   1.976 -0.9834 -0.3753  0.0048
   72SAPC  H11A 6262   6.522   1.404   1.998 -1.2626  0.2820  1.1227
   72SAPC  H11B 6263   6.380   1.320   2.052  0.2578  0.1033  1.0500
   72SAPC     P 6264   6.396   1.624   2.115 -0.3936 -0.2843 -0.0388
   72SAPC   O13 6265   6.355   1.573   2.247  0.0949  0.4053 -0.6481
   72SAPC   O14 6266   6.537   1.661   2.100 -0.1156  0.5271 -0.2640
   72SAPC   O12 6267   6.355   1.524   2.005 -0.1591  0.2819  0.0077
   72SAPC   O11 6268   6.307   1.746   2.067  0.1766  0.5258  0.3668
   72SAPC    C1 6269   6.249   1.827   2.177 -0.0060  0.4999  0.5896
   72SAPC    HA 6270   6.160   1.875   2.133 -0.3424 -1.4063 -0.9430
   72SAPC    HB 6271   6.205   1.772   2.263 -1.2452 -0.0168 -0.3564
   72SAPC    C2 6272   6.340   1.949   2.222  0.2014  0.3151 -0.2970
   72SAPC    HS 6273   6.384   1.974   2.123  0.9597 -1.2355 -0.3919
   72SAPC   O21 6274   6.445   1.889   2.311 -0.5120 -0.0632  0.5492
   72SAPC   C21 6275   6.533   1.983   2.353 -0.4538  0.5001  0.1491
   72SAPC   O22 6276   6.544   2.096   2.310  0.3699 -0.1299  0.2017
   72SAPC   C22 6277   6.618   1.908   2.453 -0.4248  0.0861  0.5152
   72SAPC   H2R 6278   6.572   1.815   2.492 -0.5499  1.0381  2.7482
   72SAPC   H2S 6279   6.720   1.895   2.412 -1.2472 -2.8410 -0.8754
   72SAPC    C3 6280   6.255   2.068   2.268  0.5776 -0.0360  0.3151
   72SAPC    HX 6281   6.188   2.091   2.183  1.1120  0.6408  0.0653
   72SAPC    HY 6282   6.306   2.166   2.279 -0.1176  0.3467  0.1798
   72SAPC   O31 6283   6.174   2.026   2.380 -0.1599  0.1028 -0.0478
   72SAPC   C31 6284   6.221   2.054   2.502 -1.0200 -0.4109 -0.2751
   72SAPC   O32 6285   6.313   2.131   2.533  0.0030  0.5173  0.1789
   72SAPC   C32 6286   6.149   1.948   2.588 -0.5096  0.2676 -0.1815
   72SAPC   H2X 6287   6.203   1.850   2.586 -2.3119 -1.0361  3.9431
   72SAPC   H2Y 6288   6.043   1.926   2.564  0.3673 -3.5796 -1.3643
   72SAPC   C23 6289   6.633   1.995   2.579  0.0168  0.4576 -0.2792
   72SAPC   H3R 6290   6.533   2.015   2.624 -0.7150 -3.0661 -0.0745
   72SAPC   H3S 6291   6.681   2.088   2.543 -0.0610  2.6459  4.4668
   72SAPC   C24 6292   6.731   1.950   2.688 -0.3433 -0.5982  0.5277
   72SAPC   H4R 6293   6.823   1.929   2.629 -0.1942 -0.3541  0.6698
   72SAPC   H4S 6294   6.702   1.851   2.727  2.1352 -1.0987  1.3050
   72SAPC   C25 6295   6.762   2.049   2.795  0.8941  0.4007 -0.2884
   72SAPC   H5R 6296   6.834   2.126   2.762  0.9254  2.0185  3.0987
   72SAPC   C26 6297   6.716   2.066   2.923  0.6612 -0.1384  0.4770
   72SAPC   H6R 6298   6.749   2.148   2.989  0.8842  0.6557 -0.5928
   72SAPC   C27 6299   6.614   1.980   2.988  0.3987  0.1091 -0.5290
   72SAPC   H7R 6300   6.657   1.949   3.086 -0.2194  0.4966 -0.1356
   72SAPC   H7S 6301   6.606   1.880   2.939 -2.9412  0.5828 -1.1953
   72SAPC   C28 6302   6.482   2.060   2.997 -0.0751  0.1762  0.4651
   72SAPC   H8R 6303   6.437   2.098   2.904  0.0920  0.7374  0.6126
   72SAPC   C29 6304   6.415   2.097   3.107  0.4557  0.1810 -0.0448
   72SAPC   H9R 6305   6.326   2.161   3.106  0.6932  0.5497  0.9060
   72SAPC  C210 6306   6.452   2.061   3.249  0.0211 -0.0437 -0.4993
   72SAPC  H10R 6307   6.485   1.956   3.265 -1.4729 -0.6149 -1.0499
   72SAPC  H10S 6308   6.357   2.060   3.307 -0.0818 -0.1112 -0.6706
   72SAPC  C211 6309   6.555   2.156   3.301 -0.2833 -0.2423 -0.4951
   72SAPC  H11R 6310   6.568   2.250   3.246  0.8551  0.0560  0.2577
   72SAPC  C212 6311   6.634   2.127   3.409 -0.3244 -0.4015 -0.0467
   72SAPC  H12R 6312   6.713   2.198   3.438  0.6718 -1.5137  0.0276
   72SAPC  C213 6313   6.626   1.999   3.492  0.8665 -0.1600 -0.0755
   72SAPC  H13R 6314   6.537   1.936   3.472  0.7824  0.0196 -0.2819
   72SAPC  H13S 6315   6.619   2.024   3.600  2.4407 -1.6411  0.4232
   72SAPC  C214 6316   6.745   1.914   3.464 -0.3276  0.9691 -0.3895
   72SAPC  H14R 6317   6.751   1.898   3.355 -0.6343 -0.0345 -0.2748
   72SAPC  C215 6318   6.834   1.863   3.549 -0.3466 -0.0178 -0.1348
   72SAPC  H15R 6319   6.915   1.802   3.506  0.7176  0.5497  0.9887
   72SAPC  C216 6320   6.833   1.879   3.706 -0.7996 -0.5098  0.2708
   72SAPC  H16R 6321   6.806   1.785   3.759  1.0305 -0.1679  1.9497
   72SAPC  H16S 6322   6.759   1.957   3.733  0.2768  0.7118 -0.2123
   72SAPC  C217 6323   6.967   1.905   3.781 -0.0753 -0.3712  0.1483
   72SAPC  H17R 6324   7.040   1.824   3.760 -0.9325 -1.9406  2.7913
   72SAPC  H17S 6325   6.954   1.906   3.891 -0.5067 -1.8157  0.1359
   72SAPC  C218 6326   7.030   2.039   3.734 -0.3723  0.9214  0.0213
   72SAPC  H18R 6327   6.971   2.118   3.785  2.1549  0.8710  3.2867
   72SAPC  H18S 6328   7.034   2.045   3.623  1.2520  1.1442  0.0719
   72SAPC  C219 6329   7.178   2.061   3.767  0.0208  1.0640 -0.2733
   72SAPC  H19R 6330   7.230   2.005   3.687 -1.0379 -1.2638  0.5778
   72SAPC  H19S 6331   7.215   2.016   3.862  2.4477 -1.0595 -2.0994
   72SAPC  C220 6332   7.225   2.207   3.770  0.6157 -0.3925  0.0929
   72SAPC  H20R 6333   7.164   2.257   3.848  1.2092  1.7405 -0.7111
   72SAPC  H20S 6334   7.221   2.255   3.670 -2.2367 -1.6736 -0.4834
   72SAPC  H20T 6335   7.332   2.209   3.801  0.8012 -1.1622 -0.4564
   72SAPC   C33 6336   6.149   1.991   2.739  0.3002  0.1452 -1.1480
   72SAPC   H3X 6337   6.077   2.076   2.746 -0.9859 -0.8207 -2.1215
   72SAPC   H3Y 6338   6.253   2.012   2.771  0.4970 -0.9597 -1.0375
   72SAPC   C34 6339   6.094   1.880   2.829 -0.2353  0.4923 -0.3320
   72SAPC   H4X 6340   6.160   1.791   2.823  0.3945  0.8966  0.2515
   72SAPC   H4Y 6341   5.996   1.856   2.784 -1.1944 -0.9541  2.3121
   72SAPC   C35 6342   6.082   1.909   2.978 -0.1504 -0.0396 -0.2652
   72SAPC   H5X 6343   6.179   1.940   3.024  0.1802  1.6304 -1.9381
   72SAPC   H5Y 6344   6.049   1.815   3.027  0.5670 -0.3804 -0.4221
   72SAPC   C36 6345   5.996   2.039   3.017 -0.2182  0.5044 -0.0971
   72SAPC   H6X 6346   5.893   2.019   2.981 -0.2572  0.2684  0.1458
   72SAPC   H6Y 6347   6.029   2.134   2.970 -0.1429 -0.0663 -1.2224
   72SAPC   C37 6348   5.991   2.057   3.168 -0.1331 -1.0349 -1.1415
   72SAPC   H7X 6349   5.942   2.155   3.184 -0.9798 -1.5926 -0.1982
   72SAPC   H7Y 6350   6.096   2.068   3.204 -1.0706 -0.8945  1.8073
   72SAPC   C38 6351   5.918   1.949   3.258  0.1756 -0.3134 -0.1855
   72SAPC   H8X 6352   5.983   1.860   3.273 -0.9893 -1.0436  0.6755
   72SAPC   H8Y 6353   5.822   1.920   3.209 -0.6501  1.0879  0.5431
   72SAPC   C39 6354   5.890   2.006   3.398  0.3008 -0.4402 -0.7000
   72SAPC   H9X 6355   5.847   1.927   3.464 -0.7613 -0.0450 -0.9051
   72SAPC   H9Y 6356   5.815   2.087   3.388 -1.0412 -1.5949 -0.3741
   72SAPC  C310 6357   6.023   2.043   3.466  0.1880 -0.0701  0.2049
   72SAPC  H10X 6358   6.065   2.135   3.421 -0.3469  0.5633  0.9638
   72SAPC  H10Y 6359   6.099   1.962   3.457 -0.9687 -0.9786 -1.9529
   72SAPC  C311 6360   5.987   2.079   3.612  0.3425  0.4727 -0.1881
   72SAPC  H11X 6361   5.921   1.999   3.650  0.3416  1.1820  1.4124
   72SAPC  H11Y 6362   5.921   2.168   3.600  1.2412  1.0963 -0.6655
   72SAPC  C312 6363   6.107   2.082   3.704  0.3908 -0.0223 -0.7403
   72SAPC  H12X 6364   6.156   2.181   3.699  2.7141 -1.0554 -0.0748
   72SAPC  H12Y 6365   6.190   2.010   3.686  0.7692  0.0518  0.5688
   72SAPC  C313 6366   6.059   2.077   3.856 -0.1302  0.3802  0.3786
   72SAPC  H13X 6367   6.019   1.973   3.856  1.5409 -0.3412  2.3677
   72SAPC  H13Y 6368   5.978   2.151   3.868  0.2081  1.2030 -1.8105
   72SAPC  C314 6369   6.173   2.099   3.960 -0.1020 -0.0747  0.5099
   72SAPC  H14X 6370   6.183   2.208   3.977  2.9098  0.2766 -2.4870
   72SAPC  H14Y 6371   6.274   2.060   3.934 -0.1176 -0.5524  1.1487
   72SAPC  C315 6372   6.137   2.061   4.104  0.2205 -0.3262 -0.1500
   72SAPC  H15X 6373   6.223   2.096   4.165  1.3275 -0.4797 -1.5626
   72SAPC  H15Y 6374   6.132   1.950   4.117  1.8021 -0.6847 -2.1005
   72SAPC  C316 6375   6.010   2.132   4.153 -0.3892 -0.0663  0.1133
   72SAPC  H16X 6376   5.922   2.088   4.102 -1.1929 -0.6905  1.9527
   72SAPC  H16Y 6377   6.018   2.240   4.130 -1.6302  0.2821  1.1919
   72SAPC  C317 6378   5.985   2.117   4.302 -0.1807 -0.7118 -0.1783
   72SAPC  H17X 6379   6.066   2.154   4.368 -0.3255  0.4741 -0.6439
   72SAPC  H17Y 6380   5.950   2.014   4.325 -0.9202 -0.6219 -0.8540
   72SAPC  C318 6381   5.874   2.209   4.347  0.3767 -0.0832  0.6888
   72SAPC  H18X 6382   5.889   2.319   4.335  1.0440 -0.2470 -0.0567
   72SAPC  H18Y 6383   5.848   2.205   4.455 -0.8242  0.1909  0.4313
   72SAPC  H18Z 6384   5.775   2.176   4.308 -1.1240  3.0158  1.5195
   73SLPC     N 6385   2.676   6.165   6.632  0.6588  0.3756 -0.0161
   73SLPC   C13 6386   2.803   6.089   6.627 -0.7449  0.0422 -0.7292
   73SLPC  H13A 6387   2.795   6.002   6.564  1.3231 -1.6954  1.2564
   73SLPC  H13B 6388   2.876   6.156   6.584  1.4653 -2.0494 -0.4706
   73SLPC  H13C 6389   2.846   6.065   6.723  2.0680 -1.6991 -2.2770
   73SLPC   C14 6390   2.702   6.288   6.714  0.2216 -0.3469  0.2339
   73SLPC  H14A 6391   2.608   6.337   6.737 -0.3977  0.0702 -2.7901
   73SLPC  H14B 6392   2.750   6.265   6.808 -2.6409 -0.0716  1.9060
   73SLPC  H14C 6393   2.764   6.361   6.665 -0.8553  1.5774  1.6233
   73SLPC   C15 6394   2.587   6.076   6.705  0.5748 -0.0838 -0.6643
   73SLPC  H15A 6395   2.487   6.110   6.724  0.7645  0.2182 -0.1564
   73SLPC  H15B 6396   2.559   5.987   6.652  0.3208 -0.8742  0.7331
   73SLPC  H15C 6397   2.639   6.047   6.796  1.2855  0.1724 -0.9755
   73SLPC   C12 6398   2.631   6.211   6.488 -0.0119  0.3561  0.5852
   73SLPC  H12A 6399   2.545   6.277   6.486 -0.2287  0.0607 -0.7394
   73SLPC  H12B 6400   2.604   6.130   6.422  0.6999 -0.8843  1.7667
   73SLPC   C11 6401   2.730   6.293   6.398 -0.5382  0.5725  0.7091
   73SLPC  H11A 6402   2.683   6.303   6.297  1.0746 -0.3196 -0.1610
   73SLPC  H11B 6403   2.824   6.237   6.379 -0.1031  2.3628 -3.4196
   73SLPC     P 6404   2.661   6.541   6.417  0.7989 -0.8362 -0.5483
   73SLPC   O13 6405   2.525   6.499   6.467  0.3459  0.5682 -0.4326
   73SLPC   O14 6406   2.716   6.658   6.498  0.1463  0.0895  0.0357
   73SLPC   O12 6407   2.755   6.422   6.448  0.5327  0.0708 -0.3360
   73SLPC   O11 6408   2.660   6.566   6.269  0.2514 -0.6324  0.2784
   73SLPC    C1 6409   2.722   6.677   6.210  0.2118 -0.2201 -0.1383
   73SLPC    HA 6410   2.823   6.703   6.249  0.1104 -2.6517  2.0346
   73SLPC    HB 6411   2.725   6.634   6.108 -0.0601 -0.9077  0.1367
   73SLPC    C2 6412   2.637   6.805   6.206 -0.3699  0.1293  0.0124
   73SLPC    HS 6413   2.620   6.832   6.313  0.6738  1.9934 -0.2473
   73SLPC   O21 6414   2.513   6.783   6.133 -0.5126  0.2890  0.0357
   73SLPC   C21 6415   2.407   6.869   6.158 -0.7907  0.2088 -0.0249
   73SLPC   O22 6416   2.422   6.974   6.214 -0.5818  0.1443  0.7894
   73SLPC   C22 6417   2.282   6.812   6.098  0.0875 -0.0325  0.1436
   73SLPC   H2R 6418   2.313   6.730   6.030 -2.1826 -1.9605  1.3288
   73SLPC   H2S 6419   2.224   6.783   6.188 -0.9106  1.8600  0.1682
   73SLPC    C3 6420   2.712   6.931   6.153  0.6794  0.0444  0.1199
   73SLPC    HX 6421   2.811   6.944   6.201  1.6209  0.6103 -1.8567
   73SLPC    HY 6422   2.655   7.023   6.178  0.7713  0.5044 -1.2831
   73SLPC   O31 6423   2.729   6.924   6.013  0.3962  0.5738 -0.9474
   73SLPC   C31 6424   2.782   7.033   5.965  0.0650 -0.9569  0.6955
   73SLPC   O32 6425   2.819   7.131   6.031 -0.4638  0.5814 -0.4318
   73SLPC   C32 6426   2.795   7.032   5.811  0.6262 -0.4856 -0.4417
   73SLPC   H2X 6427   2.694   7.043   5.766 -0.7441  2.3695  2.8688
   73SLPC   H2Y 6428   2.857   6.943   5.789  0.4772  0.1184 -4.0088
   73SLPC   C23 6429   2.194   6.919   6.023 -0.3839  0.5319  0.2910
   73SLPC   H3R 6430   2.197   7.016   6.077 -0.1732  1.6610 -1.6467
   73SLPC   H3S 6431   2.088   6.887   6.029 -0.7753  1.6930 -0.1091
   73SLPC   C24 6432   2.239   6.944   5.879 -0.2578 -0.0229 -0.0475
   73SLPC   H4R 6433   2.349   6.949   5.865 -0.0664 -0.6509  1.0839
   73SLPC   H4S 6434   2.201   7.047   5.863  0.0884  0.6896  3.0270
   73SLPC   C25 6435   2.189   6.848   5.783 -0.1804 -0.1612  0.6372
   73SLPC   H5R 6436   2.081   6.835   5.806 -0.1340 -0.9923  0.4020
   73SLPC   H5S 6437   2.244   6.757   5.813  0.5425  0.6928  2.0601
   73SLPC   C26 6438   2.204   6.866   5.632 -0.0086  0.4309 -0.7752
   73SLPC   H6R 6439   2.313   6.880   5.615  0.2297 -0.1871  0.1513
   73SLPC   H6S 6440   2.155   6.958   5.596 -0.9618  0.4284  0.4441
   73SLPC   C27 6441   2.162   6.742   5.545  0.0211  0.2592 -1.0846
   73SLPC   H7R 6442   2.055   6.716   5.560  0.9688 -2.8314  1.4577
   73SLPC   H7S 6443   2.223   6.656   5.580 -0.4741 -0.4405 -1.9097
   73SLPC   C28 6444   2.175   6.763   5.399  0.0732  0.8716 -0.2740
   73SLPC   H8R 6445   2.282   6.777   5.374  0.9937  1.6296  3.4952
   73SLPC   H8S 6446   2.118   6.854   5.370 -1.0280  0.1813 -0.3425
   73SLPC   C29 6447   2.128   6.646   5.329  1.0957 -0.3735 -0.7076
   73SLPC   H9R 6448   2.144   6.558   5.393 -0.4043  0.6774  1.1915
   73SLPC  C210 6449   2.076   6.650   5.204 -0.1559 -0.1339 -0.5029
   73SLPC  H10R 6450   2.072   6.558   5.144 -1.6673 -0.3267 -0.1366
   73SLPC  C211 6451   2.075   6.775   5.119  0.2108 -0.5817 -0.0832
   73SLPC  H11R 6452   2.046   6.865   5.176 -0.0976 -1.3686  1.0445
   73SLPC  H11S 6453   1.996   6.770   5.041 -1.1727 -0.1415  1.2397
   73SLPC  C212 6454   2.206   6.796   5.046 -0.7232 -0.0147 -0.1756
   73SLPC  H12R 6455   2.291   6.784   5.114 -1.8480 -0.7063  1.1722
   73SLPC  C213 6456   2.237   6.812   4.916  0.0730  0.1745  0.2717
   73SLPC  H13R 6457   2.344   6.824   4.897 -0.2471  2.1049 -0.5961
   73SLPC  C214 6458   2.142   6.831   4.803 -0.0943 -0.9134  0.0059
   73SLPC  H14R 6459   2.195   6.876   4.717 -1.1049  0.5812  0.1460
   73SLPC  H14S 6460   2.065   6.901   4.840  0.7800 -0.3422  0.8002
   73SLPC  C215 6461   2.075   6.698   4.770  0.2280 -0.0243 -0.5942
   73SLPC  H15R 6462   2.011   6.659   4.852  1.4814 -0.2196  0.3147
   73SLPC  H15S 6463   2.160   6.629   4.750 -0.7848 -1.2285 -0.8175
   73SLPC  C216 6464   1.981   6.711   4.649  0.1594 -0.4289  0.8587
   73SLPC  H16R 6465   2.050   6.743   4.569 -2.1320  0.6517 -0.7619
   73SLPC  H16S 6466   1.904   6.787   4.673 -1.5132 -2.0202  0.7840
   73SLPC  C217 6467   1.899   6.584   4.623  0.2924 -0.2302  0.5215
   73SLPC  H17R 6468   1.825   6.562   4.703 -0.6663  0.5031 -0.1311
   73SLPC  H17S 6469   1.975   6.504   4.615 -0.2188 -0.7271  0.5738
   73SLPC  C218 6470   1.830   6.594   4.485  0.0076 -0.2303  0.0222
   73SLPC  H18R 6471   1.769   6.683   4.458  0.1757 -0.4230 -1.0443
   73SLPC  H18S 6472   1.765   6.507   4.462  0.7846 -1.0217  0.7134
   73SLPC  H18T 6473   1.914   6.599   4.412  0.7945 -0.0373  0.9187
   73SLPC   C33 6474   2.866   7.157   5.738  0.2743 -0.7569  0.0887
   73SLPC   H3X 6475   2.976   7.141   5.743  0.5415  0.3488 -1.5795
   73SLPC   H3Y 6476   2.845   7.247   5.800 -0.9750 -1.9945  1.5584
   73SLPC   C34 6477   2.840   7.191   5.592  0.3256 -1.0558 -0.1866
   73SLPC   H4X 6478   2.733   7.214   5.576 -0.1759  0.1373  3.8617
   73SLPC   H4Y 6479   2.867   7.108   5.523  0.3902 -1.4651  0.3243
   73SLPC   C35 6480   2.928   7.308   5.546 -0.0193 -1.1419  0.0587
   73SLPC   H5X 6481   3.037   7.291   5.538  0.1709 -0.2426  0.6521
   73SLPC   H5Y 6482   2.911   7.393   5.615 -0.8122 -1.6857  0.5499
   73SLPC   C36 6483   2.891   7.344   5.399 -0.2577  0.4500 -0.0679
   73SLPC   H6X 6484   2.781   7.362   5.402 -0.4905 -0.8304  3.5368
   73SLPC   H6Y 6485   2.913   7.256   5.335 -1.4246  0.6149 -0.7255
   73SLPC   C37 6486   2.955   7.473   5.350 -0.3902 -0.1723  0.6605
   73SLPC   H7X 6487   3.045   7.445   5.291 -0.7626  1.3711 -0.7316
   73SLPC   H7Y 6488   2.989   7.531   5.439 -1.1474  0.2664  0.6710
   73SLPC   C38 6489   2.863   7.549   5.255 -0.8616 -0.0058  0.2531
   73SLPC   H8X 6490   2.792   7.598   5.326  0.8153  0.1993  1.8643
   73SLPC   H8Y 6491   2.798   7.482   5.195 -1.0809  0.6317 -0.2429
   73SLPC   C39 6492   2.942   7.645   5.160 -0.3204  0.1500  0.1288
   73SLPC   H9X 6493   3.030   7.689   5.210  0.2742 -1.8853  0.9856
   73SLPC   H9Y 6494   2.880   7.735   5.141  0.0700  0.2262 -0.8290
   73SLPC  C310 6495   2.973   7.577   5.026  0.2008 -0.0138 -0.2709
   73SLPC  H10X 6496   2.876   7.530   4.998  0.1250  0.5866 -1.0732
   73SLPC  H10Y 6497   3.049   7.496   5.029 -0.0407 -0.3091 -1.5345
   73SLPC  C311 6498   3.001   7.669   4.908  0.9786  0.0003  0.4254
   73SLPC  H11X 6499   3.108   7.697   4.918  1.3671 -0.5608 -1.6815
   73SLPC  H11Y 6500   2.927   7.751   4.914 -0.8953 -1.7291  2.8998
   73SLPC  C312 6501   2.980   7.599   4.771 -0.1075  0.6388 -0.5586
   73SLPC  H12X 6502   2.932   7.499   4.776  2.6629 -0.8949 -2.0522
   73SLPC  H12Y 6503   3.080   7.593   4.724  1.0282  1.2109  1.6462
   73SLPC  C313 6504   2.875   7.672   4.688 -0.5964 -0.1512  0.4347
   73SLPC  H13X 6505   2.779   7.662   4.744 -1.0466 -1.7032 -0.5498
   73SLPC  H13Y 6506   2.855   7.617   4.593 -5.6020 -0.5779  1.4473
   73SLPC  C314 6507   2.913   7.816   4.648 -0.2945  0.5446  0.8421
   73SLPC  H14X 6508   2.987   7.810   4.566 -0.0294 -1.0078  1.1718
   73SLPC  H14Y 6509   2.965   7.856   4.737  1.2736  1.2392 -0.3404
   73SLPC  C315 6510   2.787   7.899   4.603 -0.1583  0.3476 -0.0836
   73SLPC  H15X 6511   2.822   8.004   4.607 -1.0386  0.7770 -2.4525
   73SLPC  H15Y 6512   2.721   7.881   4.691  0.3096  1.0064  0.4164
   73SLPC  C316 6513   2.721   7.855   4.475 -0.3047 -0.1080  0.3354
   73SLPC  H16X 6514   2.630   7.914   4.452 -0.3098  0.3746  1.5538
   73SLPC  H16Y 6515   2.704   7.746   4.486  1.1516 -0.2565  1.3828
   73SLPC  C317 6516   2.811   7.871   4.350 -0.1474  0.1805  0.2364
   73SLPC  H17X 6517   2.910   7.821   4.355 -0.5388 -0.8009 -1.3343
   73SLPC  H17Y 6518   2.848   7.976   4.341  3.2608 -0.8987  0.4166
   73SLPC  C318 6519   2.737   7.808   4.224  0.2569 -0.6629 -0.2687
   73SLPC  H18X 6520   2.683   7.889   4.172 -1.2181 -1.6811 -0.3936
   73SLPC  H18Y 6521   2.657   7.737   4.256 -1.9624  1.2747 -1.2370
   73SLPC  H18Z 6522   2.806   7.756   4.154  1.1155 -1.4941  1.1396
   74SLPC     N 6523   6.061   0.063   6.837 -0.4117 -0.5017 -0.5882
   74SLPC   C13 6524   6.142   0.036   6.968  0.2287 -0.3590 -0.0173
   74SLPC  H13A 6525   6.073   0.045   7.050  1.5069  1.9392  0.8868
   74SLPC  H13B 6526   6.196  -0.058   6.974  1.0508  0.1974  3.8354
   74SLPC  H13C 6527   6.211   0.114   6.995 -0.9166 -0.0908  2.3630
   74SLPC   C14 6528   6.157   0.057   6.725  0.0079 -0.3496  0.1039
   74SLPC  H14A 6529   6.181  -0.045   6.698  2.6095  0.2582 -0.1787
   74SLPC  H14B 6530   6.118   0.108   6.639 -1.5792 -0.9058  0.4734
   74SLPC  H14C 6531   6.250   0.096   6.765  0.3796 -3.9030  3.2927
   74SLPC   C15 6532   5.998   0.198   6.844 -0.7956 -0.3951 -0.2406
   74SLPC  H15A 6533   5.945   0.213   6.936 -0.1693 -2.1773  0.4475
   74SLPC  H15B 6534   6.061   0.284   6.829 -1.0595 -0.1956 -0.2204
   74SLPC  H15C 6535   5.937   0.209   6.755 -0.2098  1.6199 -0.4434
   74SLPC   C12 6536   5.944  -0.037   6.818 -0.8189  0.8229 -0.2931
   74SLPC  H12A 6537   5.885  -0.026   6.908 -1.5786 -0.7991 -0.5600
   74SLPC  H12B 6538   5.981  -0.137   6.803 -0.3970  0.8849  0.2953
   74SLPC   C11 6539   5.840  -0.005   6.710  0.0202 -0.4907  0.0989
   74SLPC  H11A 6540   5.781  -0.094   6.681 -0.9447  0.4394 -0.8833
   74SLPC  H11B 6541   5.904   0.029   6.626  0.6376 -2.2831 -0.1922
   74SLPC     P 6542   5.670   0.180   6.648  0.1018 -0.3016  0.3433
   74SLPC   O13 6543   5.539   0.203   6.708 -0.2770 -0.0493  0.4386
   74SLPC   O14 6544   5.749   0.292   6.601 -0.5215 -0.6026 -0.9882
   74SLPC   O12 6545   5.754   0.100   6.756  0.3601  0.2161 -0.1727
   74SLPC   O11 6546   5.649   0.074   6.533 -0.7664  0.3945  0.1022
   74SLPC    C1 6547   5.700   0.107   6.401 -0.4144  0.0743 -0.6097
   74SLPC    HA 6548   5.805   0.145   6.407 -0.8732  1.1430  2.4834
   74SLPC    HB 6549   5.722   0.014   6.345  2.5743  1.0223 -1.2261
   74SLPC    C2 6550   5.616   0.192   6.303 -0.2695 -0.1701  0.5161
   74SLPC    HS 6551   5.663   0.191   6.203 -0.1701  1.2381  0.5178
   74SLPC   O21 6552   5.595   0.330   6.348  0.1014  0.1689  0.3823
   74SLPC   C21 6553   5.713   0.392   6.332  0.4294 -0.8340 -0.8094
   74SLPC   O22 6554   5.811   0.343   6.283 -0.4951  0.1171 -0.2724
   74SLPC   C22 6555   5.692   0.542   6.371 -0.2725 -0.6792  0.3109
   74SLPC   H2R 6556   5.585   0.553   6.402  0.4847  1.2764  2.5916
   74SLPC   H2S 6557   5.752   0.562   6.462 -3.0055  1.4253  1.8511
   74SLPC    C3 6558   5.469   0.149   6.303  0.3899  0.2495 -0.8110
   74SLPC    HX 6559   5.413   0.226   6.246 -0.3540 -1.6190 -2.7403
   74SLPC    HY 6560   5.435   0.165   6.407 -0.7016 -1.1638 -0.9249
   74SLPC   O31 6561   5.428   0.017   6.256  0.4249  0.0984  0.3409
   74SLPC   C31 6562   5.443  -0.003   6.124  0.3214  0.0633  0.1705
   74SLPC   O32 6563   5.499   0.065   6.044  0.4300  0.7143  0.0441
   74SLPC   C32 6564   5.354  -0.118   6.090 -0.6125  0.0258  0.8369
   74SLPC   H2X 6565   5.252  -0.078   6.071 -0.3513 -0.0447 -0.8754
   74SLPC   H2Y 6566   5.355  -0.184   6.180  0.0771 -1.8812 -0.5118
   74SLPC   C23 6567   5.717   0.627   6.249  0.4583  0.2292  0.2024
   74SLPC   H3R 6568   5.653   0.597   6.163  0.7388 -0.2536  0.1577
   74SLPC   H3S 6569   5.818   0.611   6.207 -0.2229  1.8748 -2.3004
   74SLPC   C24 6570   5.689   0.775   6.265  0.0777  0.4979 -0.3221
   74SLPC   H4R 6571   5.729   0.814   6.361 -2.0155  0.4177  0.6282
   74SLPC   H4S 6572   5.579   0.787   6.263 -0.0814 -0.8144 -0.5122
   74SLPC   C25 6573   5.753   0.870   6.159 -0.1482 -0.0006 -0.2991
   74SLPC   H5R 6574   5.858   0.837   6.143  0.2864  0.6309  1.0284
   74SLPC   H5S 6575   5.766   0.974   6.197  2.2497 -0.0316 -0.8581
   74SLPC   C26 6576   5.677   0.864   6.022 -0.0006 -0.9026  0.0264
   74SLPC   H6R 6577   5.588   0.919   6.060  2.0668  0.9014  2.6168
   74SLPC   H6S 6578   5.653   0.757   6.007  0.9111 -1.2989  1.2405
   74SLPC   C27 6579   5.737   0.939   5.901  0.0225 -0.1997  0.6225
   74SLPC   H7R 6580   5.833   0.887   5.879  1.3694  1.6221  1.9122
   74SLPC   H7S 6581   5.755   1.044   5.932  0.0185 -0.9560  3.5446
   74SLPC   C28 6582   5.645   0.928   5.780  0.4092 -0.2094  0.2153
   74SLPC   H8R 6583   5.620   0.824   5.752 -1.0149 -0.2468  1.4456
   74SLPC   H8S 6584   5.710   0.952   5.694  1.3688  0.2248  1.0471
   74SLPC   C29 6585   5.535   1.026   5.783  0.9859  0.3904 -0.2455
   74SLPC   H9R 6586   5.489   1.050   5.880  3.0514  2.8246  0.2391
   74SLPC  C210 6587   5.493   1.110   5.681  0.0858  1.2674  0.3817
   74SLPC  H10R 6588   5.406   1.173   5.704  0.2540  0.6895  2.9123
   74SLPC  C211 6589   5.538   1.128   5.539 -0.5396  0.4631  0.2190
   74SLPC  H11R 6590   5.485   1.056   5.473  0.6448  0.5192 -0.8366
   74SLPC  H11S 6591   5.643   1.094   5.527 -1.5958 -2.5957 -1.6032
   74SLPC  C212 6592   5.512   1.268   5.487  0.3896 -0.0815  0.4287
   74SLPC  H12R 6593   5.476   1.339   5.562 -1.1811 -0.8272  0.4107
   74SLPC  C213 6594   5.541   1.319   5.369  0.1967  0.2980 -0.4213
   74SLPC  H13R 6595   5.513   1.422   5.341  1.5694  0.6014 -0.7319
   74SLPC  C214 6596   5.613   1.237   5.263 -0.8302 -0.2273  0.1845
   74SLPC  H14R 6597   5.540   1.209   5.184 -1.0392  0.3996  0.1446
   74SLPC  H14S 6598   5.654   1.144   5.306  1.0956  0.5839  0.1935
   74SLPC  C215 6599   5.741   1.306   5.208  1.1692 -0.3564  0.2804
   74SLPC  H15R 6600   5.800   1.346   5.293  0.0374  0.2198  0.8114
   74SLPC  H15S 6601   5.713   1.386   5.136  1.3707 -0.0245  0.5707
   74SLPC  C216 6602   5.830   1.204   5.128 -0.0570  0.0133 -0.6646
   74SLPC  H16R 6603   5.871   1.124   5.194  3.7027  0.1472 -2.5465
   74SLPC  H16S 6604   5.915   1.264   5.091 -0.1336  1.6889  1.6496
   74SLPC  C217 6605   5.749   1.143   5.017 -0.5125 -0.2692  0.4959
   74SLPC  H17R 6606   5.726   1.214   4.936  1.7818  0.2002  0.1675
   74SLPC  H17S 6607   5.660   1.096   5.064  0.0672  0.3436  2.3190
   74SLPC  C218 6608   5.835   1.037   4.946  0.2204 -0.2793 -0.1583
   74SLPC  H18R 6609   5.920   1.078   4.888  0.1455  1.4230  0.8767
   74SLPC  H18S 6610   5.762   0.972   4.893  1.6594 -0.3590 -2.1758
   74SLPC  H18T 6611   5.879   0.966   5.020  1.5383 -0.3471 -0.9607
   74SLPC   C33 6612   5.390  -0.214   5.965 -0.0772  0.0095 -0.2520
   74SLPC   H3X 6613   5.309  -0.288   5.947  2.6387 -2.4500 -4.0991
   74SLPC   H3Y 6614   5.485  -0.267   5.986  0.6298  1.7901  1.2967
   74SLPC   C34 6615   5.407  -0.144   5.827  0.4675 -0.4350  1.1279
   74SLPC   H4X 6616   5.513  -0.110   5.825 -0.1187  1.9245 -3.2996
   74SLPC   H4Y 6617   5.346  -0.054   5.805  0.5352 -0.2345  1.7587
   74SLPC   C35 6618   5.374  -0.237   5.699  0.2260 -0.1314 -0.3279
   74SLPC   H5X 6619   5.265  -0.248   5.711  0.0843  1.2592 -0.2135
   74SLPC   H5Y 6620   5.411  -0.341   5.718 -1.6840 -1.1476 -1.8006
   74SLPC   C36 6621   5.414  -0.165   5.574 -0.1993  0.5926  0.6250
   74SLPC   H6X 6622   5.525  -0.174   5.569 -0.3369 -0.7643 -0.4571
   74SLPC   H6Y 6623   5.389  -0.057   5.587 -0.3942  0.4443  1.5402
   74SLPC   C37 6624   5.374  -0.230   5.444  0.1394 -0.7277 -0.6990
   74SLPC   H7X 6625   5.266  -0.256   5.452 -0.5714  1.1822 -2.9803
   74SLPC   H7Y 6626   5.439  -0.318   5.425  0.8549 -0.0061 -1.7117
   74SLPC   C38 6627   5.390  -0.124   5.329  0.1643 -0.0268  0.2430
   74SLPC   H8X 6628   5.490  -0.076   5.327  0.7173 -1.1928 -1.3929
   74SLPC   H8Y 6629   5.317  -0.040   5.340  1.4337  1.0391  0.8545
   74SLPC   C39 6630   5.361  -0.193   5.194  0.3894 -0.3478 -0.5374
   74SLPC   H9X 6631   5.295  -0.281   5.210 -0.0511  0.2689  1.3081
   74SLPC   H9Y 6632   5.457  -0.227   5.150  1.0934 -0.2037  0.8201
   74SLPC  C310 6633   5.279  -0.105   5.091 -0.1516 -0.5071  0.8932
   74SLPC  H10X 6634   5.189  -0.065   5.142  0.5598  1.4722  0.6848
   74SLPC  H10Y 6635   5.249  -0.160   4.999  1.3452 -0.3419  0.2732
   74SLPC  C311 6636   5.360   0.018   5.046  0.6404 -0.4818 -0.0829
   74SLPC  H11X 6637   5.395   0.077   5.132 -1.1046 -0.1671  0.4469
   74SLPC  H11Y 6638   5.286   0.081   4.994 -1.0415 -1.5692  0.9016
   74SLPC  C312 6639   5.469  -0.019   4.950  0.5312  0.3625  1.0107
   74SLPC  H12X 6640   5.408  -0.070   4.873  1.4646 -1.2775  1.3052
   74SLPC  H12Y 6641   5.543  -0.090   4.992  0.3656 -2.1178 -2.5212
   74SLPC  C313 6642   5.538   0.096   4.881  0.4117  0.0246 -0.6983
   74SLPC  H13X 6643   5.583   0.164   4.957  0.3627 -0.7502  0.0422
   74SLPC  H13Y 6644   5.468   0.165   4.831  3.0588  2.7046 -0.9849
   74SLPC  C314 6645   5.637   0.048   4.775 -0.0363 -0.5523 -0.0796
   74SLPC  H14X 6646   5.592   0.001   4.685  2.8282 -2.5084 -0.6096
   74SLPC  H14Y 6647   5.699  -0.028   4.826 -2.2668 -1.9708  0.6564
   74SLPC  C315 6648   5.723   0.165   4.722  0.0946 -0.1212 -1.4619
   74SLPC  H15X 6649   5.809   0.119   4.669  1.0996  0.9820 -0.8259
   74SLPC  H15Y 6650   5.774   0.225   4.800  1.7951  1.1688 -3.4424
   74SLPC  C316 6651   5.636   0.264   4.643 -0.1777 -0.9225 -0.0048
   74SLPC  H16X 6652   5.578   0.336   4.704 -2.5504  0.2314 -3.3136
   74SLPC  H16Y 6653   5.556   0.200   4.601 -1.5569 -0.0067  1.1139
   74SLPC  C317 6654   5.698   0.353   4.541  0.4569 -0.9041 -0.0766
   74SLPC  H17X 6655   5.735   0.299   4.451  0.4816  1.8171 -1.8223
   74SLPC  H17Y 6656   5.785   0.399   4.592  0.1411 -1.1471  0.6962
   74SLPC  C318 6657   5.626   0.475   4.481  0.1832  0.5077  0.0152
   74SLPC  H18X 6658   5.570   0.522   4.564 -0.4438 -1.1898  0.6084
   74SLPC  H18Y 6659   5.555   0.437   4.405  0.7168  2.1763 -1.3885
   74SLPC  H18Z 6660   5.695   0.543   4.426  0.6139  1.9761  2.2546
   75SLPC     N 6661   1.030   0.905   7.075  0.0666  0.4773 -0.2159
   75SLPC   C13 6662   1.041   0.764   7.027 -0.0246  0.1983  0.0391
   75SLPC  H13A 6663   1.146   0.747   7.007 -0.5056  0.0479 -2.6519
   75SLPC  H13B 6664   0.999   0.688   7.091 -1.9572  1.5957  0.5395
   75SLPC  H13C 6665   0.990   0.750   6.933  2.3187 -0.2400 -1.2452
   75SLPC   C14 6666   1.104   0.917   7.205 -0.0866 -0.0478 -0.9025
   75SLPC  H14A 6667   1.211   0.914   7.197 -0.0799 -0.6295 -0.6692
   75SLPC  H14B 6668   1.080   1.020   7.228 -1.8687 -0.7174  0.5575
   75SLPC  H14C 6669   1.075   0.851   7.286  2.8198  1.8881  1.9636
   75SLPC   C15 6670   0.884   0.930   7.100  0.4392 -0.1507  0.2093
   75SLPC  H15A 6671   0.843   0.869   7.180 -0.4201  0.2180  0.0584
   75SLPC  H15B 6672   0.857   1.034   7.104 -0.8667 -0.2449 -3.0627
   75SLPC  H15C 6673   0.835   0.895   7.011 -0.8660 -1.7325  1.4766
   75SLPC   C12 6674   1.093   0.998   6.977  0.2329 -0.3441 -0.1525
   75SLPC  H12A 6675   1.200   0.997   6.964  0.2074  0.9847 -0.6223
   75SLPC  H12B 6676   1.064   1.099   7.004  1.8300  0.6518 -1.8871
   75SLPC   C11 6677   1.035   0.995   6.837 -0.1589 -0.1394 -0.0579
   75SLPC  H11A 6678   1.071   1.089   6.790 -0.7698  1.2395  2.0979
   75SLPC  H11B 6679   0.924   1.001   6.835 -0.1282  1.1164 -3.2727
   75SLPC     P 6680   1.215   0.857   6.704 -0.0873 -0.5028 -0.6904
   75SLPC   O13 6681   1.325   0.921   6.788  0.6629  0.3419  0.6461
   75SLPC   O14 6682   1.238   0.715   6.655 -0.0442 -0.4533 -0.5219
   75SLPC   O12 6683   1.073   0.872   6.775  0.2007  0.1436  0.0628
   75SLPC   O11 6684   1.202   0.951   6.579 -0.6010 -0.3143  0.1649
   75SLPC    C1 6685   1.089   0.918   6.492 -0.5009 -0.3707  0.3187
   75SLPC    HA 6686   1.102   0.816   6.449 -0.9160  0.7610 -2.7910
   75SLPC    HB 6687   0.992   0.925   6.546 -1.3020 -1.3501 -0.9257
   75SLPC    C2 6688   1.089   1.012   6.369  0.4508 -0.6973 -0.3137
   75SLPC    HS 6689   1.006   0.988   6.299 -0.1409  0.6136 -0.0939
   75SLPC   O21 6690   1.214   1.006   6.298 -0.1366  0.0187  0.5295
   75SLPC   C21 6691   1.253   0.887   6.245  0.0940 -0.4855 -0.1088
   75SLPC   O22 6692   1.183   0.790   6.225  0.0819  0.3379  0.4074
   75SLPC   C22 6693   1.400   0.893   6.200  0.5074 -0.4855 -0.4202
   75SLPC   H2R 6694   1.465   0.869   6.287  0.4605  0.8428  0.0000
   75SLPC   H2S 6695   1.423   0.798   6.147 -2.7729 -0.2723 -2.4696
   75SLPC    C3 6696   1.070   1.153   6.411 -0.2850  0.3014 -0.1986
   75SLPC    HX 6697   1.151   1.183   6.481  0.3796  0.0544 -0.8454
   75SLPC    HY 6698   0.973   1.162   6.464 -0.4837 -1.0177 -0.3014
   75SLPC   O31 6699   1.068   1.246   6.300 -0.4185  0.7500 -0.4899
   75SLPC   C31 6700   1.181   1.315   6.284 -0.1793  0.1212 -0.1060
   75SLPC   O32 6701   1.286   1.310   6.349 -0.2464  0.1283  0.2845
   75SLPC   C32 6702   1.173   1.394   6.155  0.4714  0.2834  0.6895
   75SLPC   H2X 6703   1.083   1.458   6.162  1.2046  1.3166  0.8446
   75SLPC   H2Y 6704   1.146   1.324   6.072 -0.9060  0.9849  0.5117
   75SLPC   C23 6705   1.443   1.021   6.130  0.0326  0.2022 -1.0168
   75SLPC   H3R 6706   1.554   1.020   6.133  0.0200 -2.2741  0.5126
   75SLPC   H3S 6707   1.415   1.111   6.189 -0.0096  1.2031 -2.4839
   75SLPC   C24 6708   1.406   1.034   5.985  0.5770  0.1069  0.9601
   75SLPC   H4R 6709   1.297   1.047   5.967  0.6985  0.0905  0.1997
   75SLPC   H4S 6710   1.427   0.941   5.929  0.1379  1.0329 -0.8102
   75SLPC   C25 6711   1.486   1.138   5.902  1.1859  1.0210 -0.2644
   75SLPC   H5R 6712   1.596   1.125   5.912  1.3506  2.5109  0.1804
   75SLPC   H5S 6713   1.455   1.236   5.946 -0.7541  0.6956 -0.8004
   75SLPC   C26 6714   1.445   1.136   5.758  0.4102 -0.5731 -0.5801
   75SLPC   H6R 6715   1.336   1.118   5.757  0.1841  0.7652 -0.9676
   75SLPC   H6S 6716   1.486   1.049   5.701  2.0057 -0.6277  0.5731
   75SLPC   C27 6717   1.490   1.264   5.689 -0.5904 -0.0088 -0.3792
   75SLPC   H7R 6718   1.595   1.270   5.722 -0.7151 -0.1565  0.0572
   75SLPC   H7S 6719   1.450   1.356   5.737  1.4669  0.2110  1.0179
   75SLPC   C28 6720   1.480   1.257   5.535  0.3758  0.4207 -0.1195
   75SLPC   H8R 6721   1.522   1.161   5.499  0.3975 -0.5713  2.3935
   75SLPC   H8S 6722   1.545   1.336   5.491  0.4155  0.2152 -0.4311
   75SLPC   C29 6723   1.338   1.271   5.493  0.8489  0.3376  0.7571
   75SLPC   H9R 6724   1.260   1.247   5.567  1.3424 -0.7886  0.9330
   75SLPC  C210 6725   1.279   1.299   5.371 -0.7448  0.2325 -0.4921
   75SLPC  H10R 6726   1.170   1.310   5.378 -1.3501 -3.6154 -1.6861
   75SLPC  C211 6727   1.349   1.351   5.247  0.4722 -0.4411 -0.1385
   75SLPC  H11R 6728   1.455   1.376   5.270  0.5761  1.6435 -2.4986
   75SLPC  H11S 6729   1.296   1.446   5.228 -0.8644 -1.1440 -0.0959
   75SLPC  C212 6730   1.345   1.256   5.133 -0.5368 -0.5222 -0.4701
   75SLPC  H12R 6731   1.399   1.160   5.141  0.1049 -0.6258 -4.0381
   75SLPC  C213 6732   1.300   1.293   5.006 -0.2579  0.1240  0.7960
   75SLPC  H13R 6733   1.305   1.219   4.925  1.9263 -0.3879  1.3274
   75SLPC  C214 6734   1.246   1.427   4.965  0.0191  0.0246  0.2220
   75SLPC  H14R 6735   1.272   1.496   5.047  0.7381 -2.4526  2.2152
   75SLPC  H14S 6736   1.138   1.410   4.941 -0.2332 -1.0299  1.9294
   75SLPC  C215 6737   1.317   1.477   4.837 -0.2153 -0.1866  0.0144
   75SLPC  H15R 6738   1.429   1.477   4.836 -0.2164 -0.7068 -0.5884
   75SLPC  H15S 6739   1.290   1.583   4.823 -0.8821 -0.4429 -0.6698
   75SLPC  C216 6740   1.281   1.404   4.705 -0.7101  0.1147  0.1044
   75SLPC  H16R 6741   1.173   1.427   4.691 -0.5159  1.0769  0.0663
   75SLPC  H16S 6742   1.308   1.297   4.717  0.6739  0.5377  0.9550
   75SLPC  C217 6743   1.335   1.476   4.579  0.6964  0.3375 -0.0874
   75SLPC  H17R 6744   1.445   1.464   4.578  0.6547 -0.3973 -3.0802
   75SLPC  H17S 6745   1.294   1.577   4.598 -1.0704 -0.3493 -0.0057
   75SLPC  C218 6746   1.272   1.429   4.451 -0.2632  0.2431  0.0645
   75SLPC  H18R 6747   1.310   1.330   4.417  0.4405  0.9841 -1.4337
   75SLPC  H18S 6748   1.311   1.492   4.368  2.0165  1.2729  1.8148
   75SLPC  H18T 6749   1.161   1.433   4.459 -0.2193  0.3048  0.6643
   75SLPC   C33 6750   1.308   1.468   6.123  0.3242 -0.4595 -0.9746
   75SLPC   H3X 6751   1.386   1.408   6.072  2.2335  1.1868 -0.1332
   75SLPC   H3Y 6752   1.346   1.507   6.220 -0.9489 -0.3424 -0.5073
   75SLPC   C34 6753   1.280   1.585   6.030  0.3872  0.7872 -1.1149
   75SLPC   H4X 6754   1.371   1.648   6.015  0.4992  1.4533  1.7321
   75SLPC   H4Y 6755   1.201   1.648   6.075 -0.2142 -1.8680  1.8676
   75SLPC   C35 6756   1.228   1.539   5.893 -0.0820 -0.4667  0.8396
   75SLPC   H5X 6757   1.118   1.523   5.894 -0.2883  0.4754 -1.5123
   75SLPC   H5Y 6758   1.288   1.452   5.858 -0.3205  0.3411 -1.7525
   75SLPC   C36 6759   1.255   1.651   5.794  0.1977  0.0436  0.2399
   75SLPC   H6X 6760   1.366   1.660   5.790  0.0698  2.4249  0.5135
   75SLPC   H6Y 6761   1.212   1.749   5.822 -0.8082  0.3561 -2.1339
   75SLPC   C37 6762   1.192   1.621   5.656 -0.2228 -0.0065 -0.3505
   75SLPC   H7X 6763   1.086   1.591   5.667 -0.9488  2.7876  1.3134
   75SLPC   H7Y 6764   1.249   1.532   5.623 -0.8029  0.3689 -2.5626
   75SLPC   C38 6765   1.218   1.731   5.567 -0.0334 -0.5933  0.7232
   75SLPC   H8X 6766   1.322   1.770   5.557 -0.8398  1.0539 -3.8887
   75SLPC   H8Y 6767   1.144   1.810   5.595  0.7567 -0.0421  1.3041
   75SLPC   C39 6768   1.190   1.693   5.414  0.0305  0.2143 -0.5655
   75SLPC   H9X 6769   1.098   1.632   5.412  1.3550 -1.9046  0.0522
   75SLPC   H9Y 6770   1.267   1.623   5.374  1.9380  2.3430 -0.8522
   75SLPC  C310 6771   1.182   1.813   5.315  0.9431 -0.2276 -0.3845
   75SLPC  H10X 6772   1.277   1.871   5.308  0.1742  0.8890 -3.5174
   75SLPC  H10Y 6773   1.109   1.883   5.360  1.7164 -0.2086  0.8899
   75SLPC  C311 6774   1.142   1.771   5.180  0.0380  0.3599 -0.1383
   75SLPC  H11X 6775   1.052   1.706   5.172 -0.5003  0.9832  0.7961
   75SLPC  H11Y 6776   1.227   1.716   5.133 -0.6595 -0.6397 -0.2646
   75SLPC  C312 6777   1.111   1.886   5.095 -0.2101 -0.1401  0.3861
   75SLPC  H12X 6778   1.168   1.980   5.107 -1.2600  0.6373 -0.5141
   75SLPC  H12Y 6779   1.002   1.908   5.101 -0.5105 -1.7510  1.5325
   75SLPC  C313 6780   1.142   1.844   4.946  0.5760  0.0460 -0.5368
   75SLPC  H13X 6781   1.069   1.762   4.933 -1.2089  1.6065 -0.7678
   75SLPC  H13Y 6782   1.248   1.810   4.945  0.1430 -1.4436  0.7971
   75SLPC  C314 6783   1.114   1.958   4.850  0.5420  0.3423  0.3933
   75SLPC  H14X 6784   1.170   2.050   4.876  2.5522 -0.5841 -0.4395
   75SLPC  H14Y 6785   1.004   1.976   4.847  0.5569  0.3131 -0.5057
   75SLPC  C315 6786   1.161   1.919   4.712 -0.3444  0.3402  0.1045
   75SLPC  H15X 6787   1.271   1.906   4.710 -0.5026 -1.0632 -0.9353
   75SLPC  H15Y 6788   1.143   2.003   4.642 -1.0774  2.2861  2.5037
   75SLPC  C316 6789   1.121   1.786   4.645 -0.7910 -0.3268 -0.5381
   75SLPC  H16X 6790   1.159   1.702   4.707 -1.7303 -0.2927  0.1102
   75SLPC  H16Y 6791   1.153   1.775   4.540 -0.5398 -4.5881 -0.1946
   75SLPC  C317 6792   0.964   1.768   4.633 -0.2087 -0.3605  0.1471
   75SLPC  H17X 6793   0.917   1.866   4.611  0.8182  0.1905  0.3847
   75SLPC  H17Y 6794   0.928   1.735   4.732 -0.5262  1.2319  0.5848
   75SLPC  C318 6795   0.921   1.665   4.528 -0.8497  0.0725  0.7317
   75SLPC  H18X 6796   0.971   1.574   4.568  0.1061  0.2787  0.0450
   75SLPC  H18Y 6797   0.966   1.682   4.428 -1.1326  0.1213  0.6133
   75SLPC  H18Z 6798   0.811   1.655   4.514 -0.4878 -2.4411 -1.1093
   76SLPC     N 6799   4.070   3.203   6.959  0.1446  0.2348  0.1636
   76SLPC   C13 6800   4.108   3.232   7.101 -0.0560 -0.1958 -0.5799
   76SLPC  H13A 6801   4.071   3.328   7.135  0.2540 -0.8940  1.9366
   76SLPC  H13B 6802   4.064   3.151   7.156  0.3598  0.1822  0.3367
   76SLPC  H13C 6803   4.215   3.237   7.119  0.0859  3.0827 -1.5257
   76SLPC   C14 6804   4.146   3.083   6.918  0.2181  0.5303  0.0438
   76SLPC  H14A 6805   4.135   3.006   6.993  0.3648 -0.9274 -1.3888
   76SLPC  H14B 6806   4.120   3.038   6.823  0.1034  0.2878  0.1904
   76SLPC  H14C 6807   4.253   3.095   6.912  0.6203 -2.2107  0.4548
   76SLPC   C15 6808   4.109   3.318   6.868 -0.6261 -0.5189 -0.1540
   76SLPC  H15A 6809   4.216   3.330   6.862 -0.1837 -3.2058  0.6348
   76SLPC  H15B 6810   4.066   3.301   6.771  0.9138 -2.2734 -0.5927
   76SLPC  H15C 6811   4.076   3.413   6.908 -0.1560 -1.1122  1.7883
   76SLPC   C12 6812   3.919   3.189   6.934 -0.4473  0.2450  0.5362
   76SLPC  H12A 6813   3.893   3.130   6.848 -0.6915  1.1159 -0.0073
   76SLPC  H12B 6814   3.874   3.282   6.901 -0.8028 -1.0008 -2.9053
   76SLPC   C11 6815   3.829   3.138   7.037  0.4908 -0.0966 -0.2794
   76SLPC  H11A 6816   3.726   3.129   6.995 -0.4283  0.0813  1.8028
   76SLPC  H11B 6817   3.836   3.202   7.127  4.0380  0.4846 -0.8637
   76SLPC     P 6818   3.791   2.871   7.036 -0.0628  0.1117 -0.2514
   76SLPC   O13 6819   3.852   2.763   7.120 -0.9498 -0.4694  0.2540
   76SLPC   O14 6820   3.645   2.901   7.055 -0.1825  0.0123 -0.8095
   76SLPC   O12 6821   3.872   3.007   7.060  0.1826  0.1774  0.9299
   76SLPC   O11 6822   3.821   2.842   6.886 -1.0429  0.4404  0.0022
   76SLPC    C1 6823   3.727   2.754   6.817 -0.1002 -0.5653 -0.1267
   76SLPC    HA 6824   3.761   2.653   6.849 -2.0674 -0.6155  2.1679
   76SLPC    HB 6825   3.623   2.771   6.852 -0.0621  0.0944 -0.3398
   76SLPC    C2 6826   3.732   2.770   6.657  0.2803  0.0704  0.7211
   76SLPC    HS 6827   3.662   2.691   6.620  0.6489  0.4882 -0.9272
   76SLPC   O21 6828   3.865   2.750   6.607  0.0272  0.3522  0.0085
   76SLPC   C21 6829   3.901   2.627   6.581  0.0329  0.5289 -0.4559
   76SLPC   O22 6830   3.831   2.529   6.615 -0.6447 -0.0596  0.4131
   76SLPC   C22 6831   4.033   2.614   6.500 -0.0068 -0.1503  1.1784
   76SLPC   H2R 6832   4.100   2.696   6.532 -1.4604  1.1864  0.9015
   76SLPC   H2S 6833   4.070   2.510   6.512  0.6346  0.0162  0.6991
   76SLPC    C3 6834   3.700   2.916   6.613  0.3665  0.3005 -0.1998
   76SLPC    HX 6835   3.775   2.991   6.646 -1.8249  2.3079  0.5273
   76SLPC    HY 6836   3.606   2.930   6.671 -1.7888 -1.9903 -2.8196
   76SLPC   O31 6837   3.670   2.912   6.470  0.2185  0.3613  0.7554
   76SLPC   C31 6838   3.558   2.982   6.442 -0.3836  0.2237  0.1658
   76SLPC   O32 6839   3.515   3.071   6.512 -0.7633 -0.5850 -0.4431
   76SLPC   C32 6840   3.493   2.921   6.315  0.0261 -0.6817 -0.1832
   76SLPC   H2X 6841   3.404   2.981   6.287  1.1664 -0.1575 -3.0461
   76SLPC   H2Y 6842   3.450   2.821   6.339  0.4850 -0.5488  1.2951
   76SLPC   C23 6843   3.994   2.641   6.349  0.5320 -0.0198 -0.7797
   76SLPC   H3R 6844   3.969   2.749   6.349 -0.4486 -0.2369 -0.7664
   76SLPC   H3S 6845   3.895   2.594   6.327 -0.8390  1.5775  1.5250
   76SLPC   C24 6846   4.071   2.588   6.228 -0.0914 -0.0982 -0.1268
   76SLPC   H4R 6847   4.076   2.478   6.242  1.1974 -0.1639 -0.9411
   76SLPC   H4S 6848   4.165   2.642   6.203  0.2661 -1.2925 -1.4256
   76SLPC   C25 6849   3.983   2.608   6.104  0.1348 -0.6805 -0.2256
   76SLPC   H5R 6850   3.950   2.714   6.099  3.9480  0.8366  2.0734
   76SLPC   H5S 6851   3.892   2.546   6.107  0.3123 -0.9821 -0.8773
   76SLPC   C26 6852   4.075   2.599   5.975  0.6079  0.2349 -0.4363
   76SLPC   H6R 6853   4.129   2.502   5.985  1.4574  0.4977 -2.0330
   76SLPC   H6S 6854   4.150   2.681   5.965  0.0370  0.7460 -0.5694
   76SLPC   C27 6855   4.004   2.585   5.838  0.4467 -0.4115  0.3942
   76SLPC   H7R 6856   3.951   2.681   5.819 -0.6436 -1.3856 -1.9211
   76SLPC   H7S 6857   3.931   2.501   5.846  0.6199 -0.6116 -0.0932
   76SLPC   C28 6858   4.095   2.562   5.718 -0.0454  0.8000  0.0309
   76SLPC   H8R 6859   4.174   2.639   5.730  1.0317 -0.4088  1.1624
   76SLPC   H8S 6860   4.030   2.586   5.632  1.0313  0.7671 -0.8230
   76SLPC   C29 6861   4.165   2.426   5.706 -0.3810 -0.2895  0.5591
   76SLPC   H9R 6862   4.203   2.384   5.800 -2.0153  2.1463  2.4318
   76SLPC  C210 6863   4.167   2.327   5.610  1.0642 -0.3347 -0.6425
   76SLPC  H10R 6864   4.221   2.234   5.632 -1.6220 -1.4201  2.0425
   76SLPC  C211 6865   4.099   2.338   5.477 -0.8958  0.2598  0.2988
   76SLPC  H11R 6866   3.988   2.338   5.475 -0.9915  2.9466  1.4264
   76SLPC  H11S 6867   4.130   2.243   5.430  1.3791  0.6297  0.9227
   76SLPC  C212 6868   4.144   2.451   5.384  0.2899  0.8823 -0.1062
   76SLPC  H12R 6869   4.150   2.549   5.435 -0.8932  0.6524  0.4952
   76SLPC  C213 6870   4.166   2.442   5.245 -0.3838  0.0244 -0.2481
   76SLPC  H13R 6871   4.183   2.543   5.205  1.5782  0.1905  0.8747
   76SLPC  C214 6872   4.159   2.316   5.159 -0.0165 -0.6024  0.2416
   76SLPC  H14R 6873   4.144   2.224   5.220 -0.2796 -3.3721 -3.6200
   76SLPC  H14S 6874   4.263   2.305   5.121  0.7901  1.8854  1.5212
   76SLPC  C215 6875   4.054   2.292   5.046 -0.0839 -0.2613 -0.0986
   76SLPC  H15R 6876   3.952   2.289   5.089 -0.7707 -1.1143 -1.7099
   76SLPC  H15S 6877   4.071   2.202   4.983 -1.9981 -1.2336  0.6953
   76SLPC  C216 6878   4.055   2.413   4.950  0.0722  0.1538 -0.9731
   76SLPC  H16R 6879   4.068   2.502   5.014 -0.0282 -0.8229  0.4444
   76SLPC  H16S 6880   3.951   2.414   4.910 -1.2377  1.9814  2.1261
   76SLPC  C217 6881   4.162   2.411   4.839 -0.6837  0.3239 -0.5142
   76SLPC  H17R 6882   4.154   2.309   4.795 -1.2758  0.2299 -0.1919
   76SLPC  H17S 6883   4.260   2.411   4.892 -0.7020  0.1960 -0.4799
   76SLPC  C218 6884   4.154   2.533   4.751  0.8370 -0.3680  0.3750
   76SLPC  H18R 6885   4.196   2.529   4.648 -0.3194 -1.1295 -0.0902
   76SLPC  H18S 6886   4.199   2.622   4.800  0.4103 -0.3588  0.7518
   76SLPC  H18T 6887   4.046   2.557   4.739  1.0578  0.1322 -0.8009
   76SLPC   C33 6888   3.596   2.922   6.195 -0.5392 -0.0408  0.3564
   76SLPC   H3X 6889   3.690   2.877   6.233  0.3096  1.1490 -0.2595
   76SLPC   H3Y 6890   3.617   3.025   6.159  0.5787 -0.3638  0.0705
   76SLPC   C34 6891   3.555   2.836   6.080 -0.0733 -0.9328  0.0619
   76SLPC   H4X 6892   3.615   2.870   5.993 -0.1394 -2.0192 -0.4247
   76SLPC   H4Y 6893   3.449   2.859   6.054  1.2294  2.8233 -2.8669
   76SLPC   C35 6894   3.575   2.690   6.105  0.4503  0.6951  0.4734
   76SLPC   H5X 6895   3.519   2.653   6.193  0.4608 -2.5432 -0.7453
   76SLPC   H5Y 6896   3.681   2.668   6.126  0.6945  1.2173 -0.1546
   76SLPC   C36 6897   3.524   2.602   5.991 -0.4194  0.2684  0.6370
   76SLPC   H6X 6898   3.419   2.625   5.961  0.7092  2.7477 -1.8670
   76SLPC   H6Y 6899   3.517   2.501   6.037 -3.2152 -1.0042 -2.1654
   76SLPC   C37 6900   3.633   2.592   5.877  0.7105  0.1144 -0.1446
   76SLPC   H7X 6901   3.726   2.546   5.919  0.4827 -1.6909 -1.4873
   76SLPC   H7Y 6902   3.657   2.693   5.838 -0.9452  0.3804 -0.5464
   76SLPC   C38 6903   3.581   2.505   5.760 -0.3364 -0.4530 -1.0230
   76SLPC   H8X 6904   3.476   2.525   5.729 -0.7293  0.2502  0.6377
   76SLPC   H8Y 6905   3.597   2.397   5.780 -1.9693 -0.5672 -0.0984
   76SLPC   C39 6906   3.661   2.532   5.633  0.4638  0.4523  0.1430
   76SLPC   H9X 6907   3.769   2.540   5.660  0.9459 -1.2991 -1.1175
   76SLPC   H9Y 6908   3.631   2.634   5.600  1.1492 -0.0111 -2.1098
   76SLPC  C310 6909   3.651   2.423   5.519  0.3264  0.3579 -0.5134
   76SLPC  H10X 6910   3.545   2.394   5.500  0.0938  0.6521  0.3070
   76SLPC  H10Y 6911   3.711   2.336   5.553 -0.1519 -1.0539 -3.0318
   76SLPC  C311 6912   3.702   2.472   5.388  0.0403 -0.3287 -0.0464
   76SLPC  H11X 6913   3.806   2.511   5.391 -0.7511  1.8996  0.1829
   76SLPC  H11Y 6914   3.644   2.557   5.345 -2.4295 -1.4537  0.8790
   76SLPC  C312 6915   3.689   2.366   5.268 -0.7590 -0.0896  0.1309
   76SLPC  H12X 6916   3.601   2.301   5.280  0.1971 -2.0920 -2.6600
   76SLPC  H12Y 6917   3.776   2.301   5.291 -1.3239 -0.1166  2.3705
   76SLPC  C313 6918   3.693   2.417   5.120 -0.0435 -0.0265  0.4225
   76SLPC  H13X 6919   3.709   2.332   5.049  1.6130 -1.3026  2.2142
   76SLPC  H13Y 6920   3.774   2.490   5.101 -1.5108  1.4496 -0.3293
   76SLPC  C314 6921   3.564   2.496   5.082 -0.0153 -0.0608  0.5018
   76SLPC  H14X 6922   3.563   2.594   5.133  0.6561  0.6790 -0.8513
   76SLPC  H14Y 6923   3.475   2.442   5.121  1.5311 -1.7665  1.8560
   76SLPC  C315 6924   3.537   2.518   4.930 -0.0434  0.1166  0.9462
   76SLPC  H15X 6925   3.429   2.539   4.915 -0.5846 -1.8042  1.8145
   76SLPC  H15Y 6926   3.561   2.431   4.865  2.1146  0.2162  1.5279
   76SLPC  C316 6927   3.620   2.624   4.866 -0.8611  0.2787 -0.0881
   76SLPC  H16X 6928   3.625   2.611   4.756  0.8816  0.8289 -0.0889
   76SLPC  H16Y 6929   3.725   2.620   4.900 -0.7251 -1.3752 -0.6297
   76SLPC  C317 6930   3.570   2.766   4.897 -0.2223 -0.5840 -0.2182
   76SLPC  H17X 6931   3.590   2.792   5.003 -2.1873  1.0864 -0.2139
   76SLPC  H17Y 6932   3.461   2.766   4.879  0.0192  0.4990 -1.9304
   76SLPC  C318 6933   3.639   2.879   4.812  0.4565  0.4120 -0.4946
   76SLPC  H18X 6934   3.626   2.844   4.707 -0.0158 -0.2732 -0.2156
   76SLPC  H18Y 6935   3.744   2.876   4.849  0.0666 -1.3893  0.5807
   76SLPC  H18Z 6936   3.591   2.974   4.842 -4.1095 -1.7573 -0.1130
   77SLPC     N 6937   2.730   1.389   6.732 -0.0313  0.1558  0.1620
   77SLPC   C13 6938   2.693   1.391   6.874 -0.2366 -0.7408 -0.2732
   77SLPC  H13A 6939   2.657   1.489   6.902  0.7583  0.4992 -2.9942
   77SLPC  H13B 6940   2.612   1.327   6.905 -0.8102  0.5712  1.0634
   77SLPC  H13C 6941   2.779   1.372   6.936  0.8132  2.9000 -0.3684
   77SLPC   C14 6942   2.608   1.416   6.652  0.0991  0.8610 -0.2683
   77SLPC  H14A 6943   2.519   1.356   6.666  0.1452  0.4639 -1.5359
   77SLPC  H14B 6944   2.577   1.519   6.659 -0.4032  0.6150  1.6413
   77SLPC  H14C 6945   2.636   1.392   6.550 -0.8306  2.0645 -0.8267
   77SLPC   C15 6946   2.781   1.255   6.694 -0.2777 -0.3375 -0.2336
   77SLPC  H15A 6947   2.713   1.173   6.707 -1.7950  1.1349  1.6185
   77SLPC  H15B 6948   2.803   1.266   6.589  0.5638 -1.8338 -0.2340
   77SLPC  H15C 6949   2.869   1.218   6.743  1.4717  0.7395 -2.3626
   77SLPC   C12 6950   2.835   1.489   6.690 -0.6238  0.4204 -0.2674
   77SLPC  H12A 6951   2.926   1.463   6.743 -1.1240  0.1017  0.4556
   77SLPC  H12B 6952   2.808   1.580   6.743 -0.9271 -0.3193  0.8896
   77SLPC   C11 6953   2.864   1.517   6.544  0.0386 -0.8689 -0.6373
   77SLPC  H11A 6954   2.897   1.421   6.498 -0.2521 -1.5339  0.5179
   77SLPC  H11B 6955   2.961   1.572   6.539  1.1943 -2.9156 -2.2527
   77SLPC     P 6956   2.705   1.725   6.488  0.4890 -0.1663  0.0493
   77SLPC   O13 6957   2.561   1.720   6.509  0.2278 -0.1635  0.2455
   77SLPC   O14 6958   2.790   1.779   6.597 -0.0923  0.2132  0.2501
   77SLPC   O12 6959   2.759   1.576   6.469 -0.2522  0.0725  0.2995
   77SLPC   O11 6960   2.749   1.794   6.356 -0.3754 -0.1997 -0.1937
   77SLPC    C1 6961   2.879   1.790   6.295 -0.0796  0.2100 -0.0888
   77SLPC    HA 6962   2.919   1.892   6.309  0.0101  0.3082 -1.0138
   77SLPC    HB 6963   2.941   1.710   6.340 -0.4676  0.2832  0.5952
   77SLPC    C2 6964   2.882   1.776   6.134  0.2640 -0.8429 -0.5307
   77SLPC    HS 6965   2.982   1.765   6.088 -0.4197 -0.0323 -2.3059
   77SLPC   O21 6966   2.810   1.881   6.074  0.1379  0.1272  0.0122
   77SLPC   C21 6967   2.858   1.993   6.064  0.1331 -0.8268 -0.0307
   77SLPC   O22 6968   2.974   2.026   6.097  0.1545 -0.1713  0.0536
   77SLPC   C22 6969   2.753   2.081   5.995 -0.1136  0.1647 -0.0642
   77SLPC   H2R 6970   2.699   2.023   5.917  0.0156  1.5858 -1.2616
   77SLPC   H2S 6971   2.671   2.102   6.067  0.0690  0.5358  0.0394
   77SLPC    C3 6972   2.804   1.645   6.106  0.4067 -0.5345 -0.0397
   77SLPC    HX 6973   2.706   1.655   6.158  0.7136  1.2039  0.2786
   77SLPC    HY 6974   2.865   1.563   6.149  1.4139  0.0120 -0.3923
   77SLPC   O31 6975   2.773   1.625   5.965  0.6127 -0.0254  0.4876
   77SLPC   C31 6976   2.688   1.523   5.941 -0.0667  0.3102 -0.5718
   77SLPC   O32 6977   2.649   1.449   6.032  0.6368  0.5476  0.5090
   77SLPC   C32 6978   2.644   1.510   5.800 -0.0484 -0.1452  0.7825
   77SLPC   H2X 6979   2.726   1.459   5.744  0.1062  0.4041  0.5019
   77SLPC   H2Y 6980   2.630   1.608   5.750 -0.7626 -0.0136  1.2266
   77SLPC   C23 6981   2.806   2.210   5.925  0.4237  0.1174 -0.4755
   77SLPC   H3R 6982   2.873   2.177   5.843  0.3841 -1.4147  0.0709
   77SLPC   H3S 6983   2.862   2.265   6.003  2.7113 -1.3096 -1.0381
   77SLPC   C24 6984   2.688   2.292   5.866 -0.4710 -0.9327 -0.8227
   77SLPC   H4R 6985   2.731   2.388   5.829 -0.7893 -0.7398 -0.6960
   77SLPC   H4S 6986   2.630   2.333   5.951  0.9777  2.7142 -1.3768
   77SLPC   C25 6987   2.589   2.238   5.761  0.3838  0.0668  0.1226
   77SLPC   H5R 6988   2.489   2.262   5.803  0.0233 -3.2182  1.4063
   77SLPC   H5S 6989   2.583   2.128   5.760 -0.2227  0.0714 -2.0640
   77SLPC   C26 6990   2.621   2.303   5.620  0.0785  0.3927  0.7974
   77SLPC   H6R 6991   2.619   2.412   5.642 -1.2959  0.6783 -0.5627
   77SLPC   H6S 6992   2.534   2.274   5.557  1.5259  1.2113 -1.7227
   77SLPC   C27 6993   2.754   2.254   5.558  0.1413  0.0063 -0.0228
   77SLPC   H7R 6994   2.764   2.145   5.572  2.0010  0.0856 -0.4977
   77SLPC   H7S 6995   2.836   2.304   5.615 -0.3007 -0.4655  1.0565
   77SLPC   C28 6996   2.767   2.286   5.413 -0.2713 -0.1330 -0.6296
   77SLPC   H8R 6997   2.759   2.394   5.390  0.2632 -0.1722 -1.0188
   77SLPC   H8S 6998   2.687   2.236   5.354  0.2574 -2.6825  0.6735
   77SLPC   C29 6999   2.889   2.228   5.348  0.0927  0.0971  0.0329
   77SLPC   H9R 7000   2.924   2.139   5.403 -1.7663  0.0981  1.3280
   77SLPC  C210 7001   2.938   2.258   5.234  0.0840  0.3449 -0.7971
   77SLPC  H10R 7002   3.022   2.193   5.204  0.6756  0.6840  0.0680
   77SLPC  C211 7003   2.901   2.364   5.136  1.0041  0.1078 -0.3895
   77SLPC  H11R 7004   2.975   2.447   5.130  1.4267 -0.1171  1.2650
   77SLPC  H11S 7005   2.801   2.409   5.156  1.2196  1.4738 -2.1453
   77SLPC  C212 7006   2.892   2.314   4.995  0.1445  0.2797  0.2140
   77SLPC  H12R 7007   2.901   2.204   4.998  0.2400  0.3004  1.6968
   77SLPC  C213 7008   2.866   2.376   4.882  0.5724  0.2488  0.0932
   77SLPC  H13R 7009   2.852   2.326   4.785 -2.1423  1.4019 -0.2205
   77SLPC  C214 7010   2.829   2.522   4.873 -0.9503  0.0566  0.0873
   77SLPC  H14R 7011   2.803   2.548   4.978  2.5226 -3.5474  2.1167
   77SLPC  H14S 7012   2.735   2.539   4.816 -0.2716  1.7048 -0.6052
   77SLPC  C215 7013   2.934   2.628   4.821  0.1918 -0.2328 -0.0225
   77SLPC  H15R 7014   3.032   2.622   4.874 -1.2190  0.2761  2.8292
   77SLPC  H15S 7015   2.902   2.732   4.841 -0.3614 -0.1900 -1.0888
   77SLPC  C216 7016   2.956   2.620   4.669 -0.1320 -0.6018  0.7598
   77SLPC  H16R 7017   2.873   2.638   4.598  1.7295 -0.0803 -1.3746
   77SLPC  H16S 7018   2.984   2.518   4.636 -0.6705 -0.6265  0.3774
   77SLPC  C217 7019   3.072   2.703   4.620 -0.3534  0.9851 -0.0127
   77SLPC  H17R 7020   3.083   2.696   4.510 -0.6495  1.2290 -0.0583
   77SLPC  H17S 7021   3.170   2.660   4.652 -1.2869 -4.5263 -3.2951
   77SLPC  C218 7022   3.054   2.854   4.639 -0.2257 -0.6900  0.3994
   77SLPC  H18R 7023   2.960   2.892   4.593  1.1124 -0.9578 -2.7913
   77SLPC  H18S 7024   3.125   2.918   4.584 -1.1579  1.5124  1.6458
   77SLPC  H18T 7025   3.066   2.877   4.747  2.9435 -0.4600  0.0830
   77SLPC   C33 7026   2.509   1.425   5.791 -0.3757 -0.4132 -0.2853
   77SLPC   H3X 7027   2.442   1.448   5.877  1.0123 -0.7728  0.9527
   77SLPC   H3Y 7028   2.536   1.317   5.794  0.7981 -0.1259  0.4983
   77SLPC   C34 7029   2.426   1.466   5.668 -0.3836  0.6344  0.4153
   77SLPC   H4X 7030   2.377   1.566   5.672 -2.0909 -0.1046 -0.8079
   77SLPC   H4Y 7031   2.342   1.394   5.664  0.5330 -0.4404  0.2457
   77SLPC   C35 7032   2.483   1.455   5.528 -0.5375 -0.1505  0.6811
   77SLPC   H5X 7033   2.505   1.348   5.507 -0.0627 -0.1714  1.2893
   77SLPC   H5Y 7034   2.580   1.508   5.533  0.1124 -1.3000  0.7468
   77SLPC   C36 7035   2.405   1.514   5.410  0.5811  0.0622  0.5948
   77SLPC   H6X 7036   2.378   1.615   5.445 -1.0167 -0.1382  0.0499
   77SLPC   H6Y 7037   2.314   1.452   5.392  0.3466  1.1752 -2.8087
   77SLPC   C37 7038   2.479   1.501   5.282  0.7003 -0.0702  0.4992
   77SLPC   H7X 7039   2.494   1.392   5.265  0.3340 -0.0099 -0.2567
   77SLPC   H7Y 7040   2.585   1.532   5.294  1.1307 -1.5001  0.5393
   77SLPC   C38 7041   2.408   1.573   5.167  0.0403 -0.3022  0.3669
   77SLPC   H8X 7042   2.408   1.683   5.185  2.8378 -0.3753  1.4035
   77SLPC   H8Y 7043   2.300   1.547   5.162 -0.2235  0.8278 -0.0993
   77SLPC   C39 7044   2.457   1.547   5.027  0.9131 -0.3583 -0.3672
   77SLPC   H9X 7045   2.566   1.568   5.031  0.5864  1.7192 -1.0169
   77SLPC   H9Y 7046   2.415   1.628   4.963  0.6304  0.7011  1.0950
   77SLPC  C310 7047   2.420   1.406   4.981 -0.1099 -0.0575  0.0059
   77SLPC  H10X 7048   2.310   1.408   4.969  0.0529  2.3254 -1.9424
   77SLPC  H10Y 7049   2.452   1.329   5.054  2.1168  0.2999 -0.5244
   77SLPC  C311 7050   2.485   1.369   4.845  0.0989  0.0839  0.1428
   77SLPC  H11X 7051   2.595   1.357   4.857  0.0530 -0.0190  0.4619
   77SLPC  H11Y 7052   2.469   1.451   4.771  2.9261 -0.1771 -0.8933
   77SLPC  C312 7053   2.443   1.233   4.797  0.3619 -0.0757 -0.3983
   77SLPC  H12X 7054   2.493   1.216   4.699  2.2159  1.8690  0.1450
   77SLPC  H12Y 7055   2.332   1.230   4.792  0.2131  1.0668  1.2256
   77SLPC  C313 7056   2.503   1.116   4.885 -0.0314 -0.4485  0.0894
   77SLPC  H13X 7057   2.469   1.133   4.989 -1.0497 -0.3433 -0.2452
   77SLPC  H13Y 7058   2.614   1.115   4.887  0.0228 -1.6367 -1.4432
   77SLPC  C314 7059   2.450   0.985   4.830 -0.2771  0.8180  0.0814
   77SLPC  H14X 7060   2.497   0.951   4.736 -0.1092 -1.3657  0.8947
   77SLPC  H14Y 7061   2.341   1.008   4.825 -0.8032 -1.4149  0.2725
   77SLPC  C315 7062   2.475   0.863   4.925  0.6194  0.4307 -1.0123
   77SLPC  H15X 7063   2.578   0.865   4.968 -1.0277 -1.5232  3.6671
   77SLPC  H15Y 7064   2.462   0.773   4.862 -0.5904  1.6945 -2.6528
   77SLPC  C316 7065   2.385   0.879   5.047 -0.8849 -0.0294 -0.0187
   77SLPC  H16X 7066   2.282   0.908   5.017 -0.5297  1.3405  0.0457
   77SLPC  H16Y 7067   2.414   0.970   5.103 -0.3735 -0.5531  0.5802
   77SLPC  C317 7068   2.388   0.752   5.139  0.0930 -0.3566  0.4999
   77SLPC  H17X 7069   2.351   0.675   5.067 -0.1145  0.5727 -0.4052
   77SLPC  H17Y 7070   2.321   0.775   5.225 -0.3362 -2.6489  0.8590
   77SLPC  C318 7071   2.522   0.702   5.209 -0.1618 -0.5800  0.5171
   77SLPC  H18X 7072   2.499   0.616   5.275 -0.8185 -1.4403 -0.7952
   77SLPC  H18Y 7073   2.577   0.789   5.253 -0.9599  0.1533  0.1072
   77SLPC  H18Z 7074   2.589   0.662   5.131 -0.4347  1.5821 -0.9227
   78SLPC     N 7075   0.595   4.110   7.237  0.1184 -0.5993 -0.5565
   78SLPC   C13 7076   0.582   4.090   7.388  0.1840  0.1450  0.4646
   78SLPC  H13A 7077   0.487   4.123   7.430  0.3749  0.0902  0.9502
   78SLPC  H13B 7078   0.571   3.984   7.403  0.9693 -0.0704 -0.4095
   78SLPC  H13C 7079   0.666   4.139   7.435  0.6382  0.0993 -0.2984
   78SLPC   C14 7080   0.477   4.055   7.169  0.6154 -0.2138 -0.1981
   78SLPC  H14A 7081   0.505   3.954   7.145  0.9039 -0.4551  1.0934
   78SLPC  H14B 7082   0.385   4.065   7.225  1.6027  2.0895  1.1247
   78SLPC  H14C 7083   0.463   4.095   7.070 -0.7748  0.0231  0.0666
   78SLPC   C15 7084   0.717   4.042   7.181  0.1424 -0.3644 -0.3792
   78SLPC  H15A 7085   0.807   4.064   7.237  0.5423 -0.6110 -0.9127
   78SLPC  H15B 7086   0.710   3.934   7.181 -0.5441 -0.3532  1.0199
   78SLPC  H15C 7087   0.732   4.078   7.081  2.8674  2.9583  1.0371
   78SLPC   C12 7088   0.600   4.259   7.215 -1.1337 -0.0939  0.5241
   78SLPC  H12A 7089   0.656   4.315   7.288  0.3170  2.5417 -2.3588
   78SLPC  H12B 7090   0.500   4.296   7.225 -0.5728  2.0180 -0.9582
   78SLPC   C11 7091   0.648   4.291   7.076  0.7657 -0.2748 -0.0015
   78SLPC  H11A 7092   0.747   4.246   7.055  1.0029 -0.3153  1.1126
   78SLPC  H11B 7093   0.666   4.401   7.079  0.9304 -0.3062  1.8931
   78SLPC     P 7094   0.439   4.339   6.919  0.3881  0.6706  0.1203
   78SLPC   O13 7095   0.329   4.257   6.866 -0.5440 -0.1594  0.0683
   78SLPC   O14 7096   0.411   4.444   7.010 -0.4699  0.3256 -0.6399
   78SLPC   O12 7097   0.549   4.244   6.979 -0.8639 -0.0317  0.4020
   78SLPC   O11 7098   0.507   4.402   6.793 -0.1549  0.3489  0.1206
   78SLPC    C1 7099   0.595   4.328   6.706 -0.1841  0.0496 -0.4499
   78SLPC    HA 7100   0.700   4.352   6.733 -0.3717 -0.0582  0.4265
   78SLPC    HB 7101   0.581   4.218   6.695  2.3397 -0.2902 -0.6965
   78SLPC    C2 7102   0.599   4.382   6.564 -0.2512 -0.2097  0.2932
   78SLPC    HS 7103   0.583   4.492   6.569 -0.0581 -0.0750 -1.4383
   78SLPC   O21 7104   0.494   4.317   6.492 -0.3761  0.1796 -0.1326
   78SLPC   C21 7105   0.378   4.389   6.473  0.1327 -0.6692 -0.4893
   78SLPC   O22 7106   0.346   4.488   6.535  0.6290  0.0409 -0.1107
   78SLPC   C22 7107   0.294   4.334   6.355  0.0556 -0.0797 -0.2722
   78SLPC   H2R 7108   0.334   4.235   6.325 -1.2773 -0.6904 -0.1287
   78SLPC   H2S 7109   0.189   4.330   6.392  0.7079 -0.6393  1.6491
   78SLPC    C3 7110   0.727   4.343   6.488 -0.9084  0.2988  0.1337
   78SLPC    HX 7111   0.735   4.234   6.465 -3.0406  0.1232  0.0195
   78SLPC    HY 7112   0.811   4.357   6.559 -0.5394 -2.8144  0.4708
   78SLPC   O31 7113   0.746   4.434   6.376  0.1409  0.4148  0.1230
   78SLPC   C31 7114   0.787   4.379   6.258 -0.1392  0.2061 -0.6843
   78SLPC   O32 7115   0.841   4.269   6.249 -0.4280 -0.1213  0.1233
   78SLPC   C32 7116   0.724   4.463   6.151 -0.3949 -0.5958  1.0232
   78SLPC   H2X 7117   0.669   4.551   6.188  1.5446  0.5973  1.2231
   78SLPC   H2Y 7118   0.638   4.405   6.111 -0.8908 -0.3171  1.6841
   78SLPC   C23 7119   0.300   4.428   6.233  0.1632  0.3755 -0.1600
   78SLPC   H3R 7120   0.405   4.463   6.230 -0.3230  1.8560 -0.8943
   78SLPC   H3S 7121   0.235   4.515   6.259 -0.9685 -0.8132  1.2088
   78SLPC   C24 7122   0.272   4.345   6.113  0.4239 -0.1363  0.2698
   78SLPC   H4R 7123   0.313   4.242   6.120  0.6903 -0.5863 -4.3610
   78SLPC   H4S 7124   0.314   4.391   6.021  0.5861  1.4222  1.0834
   78SLPC   C25 7125   0.126   4.322   6.078  0.6070  0.0680 -0.7909
   78SLPC   H5R 7126   0.089   4.422   6.050 -2.9926 -0.6283  0.9239
   78SLPC   H5S 7127   0.076   4.278   6.167  0.9532  1.3705  0.0726
   78SLPC   C26 7128   0.099   4.233   5.958  0.1147  0.3080  0.7849
   78SLPC   H6R 7129   0.155   4.281   5.874 -1.0205  0.1088 -0.1165
   78SLPC   H6S 7130  -0.008   4.245   5.932 -0.0900 -1.3769  0.7237
   78SLPC   C27 7131   0.144   4.090   5.974  0.6475  0.3969  1.1274
   78SLPC   H7R 7132   0.139   4.067   6.082 -0.1004  0.2866  1.0728
   78SLPC   H7S 7133   0.254   4.079   5.964  0.8931  0.9135  2.9505
   78SLPC   C28 7134   0.059   3.985   5.892  0.0727 -0.5937  0.0436
   78SLPC   H8R 7135   0.093   4.005   5.788  0.7638  1.9327  0.6712
   78SLPC   H8S 7136  -0.047   4.012   5.908  0.3138 -0.5911  1.8669
   78SLPC   C29 7137   0.081   3.835   5.918 -0.3409  0.4971 -0.5881
   78SLPC   H9R 7138   0.034   3.782   6.003 -1.7430 -2.1794 -2.8454
   78SLPC  C210 7139   0.151   3.753   5.833  0.1637 -0.4289  0.1384
   78SLPC  H10R 7140   0.164   3.648   5.864  2.4487  0.1957  1.4775
   78SLPC  C211 7141   0.235   3.796   5.718 -0.3460 -0.6008 -0.1506
   78SLPC  H11R 7142   0.327   3.733   5.712  0.4773  0.4007  1.4180
   78SLPC  H11S 7143   0.287   3.892   5.737 -1.0970  0.0394 -1.2274
   78SLPC  C212 7144   0.172   3.795   5.585  0.2792  0.8850 -0.2416
   78SLPC  H12R 7145   0.116   3.884   5.555 -1.8156 -0.7224 -1.3969
   78SLPC  C213 7146   0.152   3.685   5.504  0.0538 -0.1936 -0.0642
   78SLPC  H13R 7147   0.095   3.697   5.410  0.7327  1.9058 -0.2585
   78SLPC  C214 7148   0.192   3.540   5.524  0.0507 -0.2889 -0.2559
   78SLPC  H14R 7149   0.251   3.524   5.617  1.4235 -1.3096 -1.2511
   78SLPC  H14S 7150   0.246   3.510   5.432  0.3921  0.7874 -0.4223
   78SLPC  C215 7151   0.076   3.446   5.533  0.0526  0.5291  0.4800
   78SLPC  H15R 7152   0.004   3.485   5.608  0.9346  1.7017  0.7421
   78SLPC  H15S 7153   0.107   3.344   5.565  0.1348 -0.2387 -1.8393
   78SLPC  C216 7154   0.011   3.418   5.396  0.1298 -0.8010  0.6564
   78SLPC  H16R 7155   0.004   3.308   5.381  1.0604 -0.4767 -2.8247
   78SLPC  H16S 7156   0.078   3.444   5.312  0.5758  1.3342  1.6169
   78SLPC  C217 7157  -0.116   3.503   5.373  0.8666  0.1469 -0.1021
   78SLPC  H17R 7158  -0.103   3.613   5.383 -3.9422  0.9109 -0.0267
   78SLPC  H17S 7159  -0.193   3.497   5.452  0.5698  0.5449 -0.3552
   78SLPC  C218 7160  -0.190   3.480   5.242 -0.0762 -0.3642  0.0867
   78SLPC  H18R 7161  -0.124   3.469   5.153  0.0716 -0.6183  0.2269
   78SLPC  H18S 7162  -0.268   3.557   5.223 -0.4505 -0.5663  0.8016
   78SLPC  H18T 7163  -0.241   3.382   5.236  1.1625 -1.0633  0.7655
   78SLPC   C33 7164   0.840   4.488   6.051  0.5516 -0.0383 -0.4818
   78SLPC   H3X 7165   0.871   4.390   6.011 -1.7658 -0.6234 -1.0190
   78SLPC   H3Y 7166   0.924   4.537   6.106 -0.2784  0.4835  0.3634
   78SLPC   C34 7167   0.804   4.577   5.932  0.6731 -0.7599 -0.2776
   78SLPC   H4X 7168   0.897   4.626   5.895  0.5779  0.1632  0.6291
   78SLPC   H4Y 7169   0.731   4.653   5.968  0.1653 -1.1107 -0.5576
   78SLPC   C35 7170   0.747   4.490   5.821 -0.8704  0.3557  0.5102
   78SLPC   H5X 7171   0.656   4.431   5.848  0.3388 -1.4373  0.8567
   78SLPC   H5Y 7172   0.820   4.416   5.783  0.0830  1.7483 -0.4707
   78SLPC   C36 7173   0.724   4.572   5.695  0.0142 -0.4543  0.6111
   78SLPC   H6X 7174   0.819   4.614   5.656 -1.9833  1.8489 -2.1897
   78SLPC   H6Y 7175   0.655   4.655   5.723 -1.1460 -0.9996 -0.5278
   78SLPC   C37 7176   0.652   4.501   5.576 -0.1081 -0.6718  0.5492
   78SLPC   H7X 7177   0.548   4.479   5.609 -0.6059  0.9169  0.1362
   78SLPC   H7Y 7178   0.707   4.408   5.552  1.5429  0.3747  0.0951
   78SLPC   C38 7179   0.647   4.583   5.450 -0.0612  0.1439 -0.0474
   78SLPC   H8X 7180   0.750   4.586   5.409 -0.3393 -0.7672 -0.8637
   78SLPC   H8Y 7181   0.609   4.685   5.470 -0.0584  0.2899 -0.7468
   78SLPC   C39 7182   0.561   4.530   5.339 -0.0542  0.4022  0.1830
   78SLPC   H9X 7183   0.457   4.519   5.376 -0.0969  1.1992  0.3222
   78SLPC   H9Y 7184   0.598   4.432   5.301 -1.3142 -0.1072  0.2192
   78SLPC  C310 7185   0.558   4.622   5.222 -0.4571 -0.1890  0.7354
   78SLPC  H10X 7186   0.654   4.625   5.167 -2.1669  0.3075 -2.4500
   78SLPC  H10Y 7187   0.552   4.730   5.247 -0.6658  0.1882 -0.8525
   78SLPC  C311 7188   0.448   4.580   5.119  0.1575  0.3840 -0.3746
   78SLPC  H11X 7189   0.350   4.595   5.168  0.4300 -0.1296  0.3469
   78SLPC  H11Y 7190   0.466   4.473   5.096 -0.7363  0.4327 -1.3643
   78SLPC  C312 7191   0.455   4.653   4.988  0.2362 -0.3341  0.9275
   78SLPC  H12X 7192   0.562   4.659   4.956  0.0799  0.7828  0.5768
   78SLPC  H12Y 7193   0.419   4.758   4.998  0.2828 -0.2558  0.3538
   78SLPC  C313 7194   0.391   4.581   4.866 -0.2575  0.5895 -0.2672
   78SLPC  H13X 7195   0.281   4.576   4.880 -0.2096  2.3261  1.2874
   78SLPC  H13Y 7196   0.437   4.481   4.881  0.2987  0.9755  0.7208
   78SLPC  C314 7197   0.438   4.623   4.730  0.1534  0.1646  0.8260
   78SLPC  H14X 7198   0.549   4.617   4.723  0.1503 -2.3656  1.6174
   78SLPC  H14Y 7199   0.410   4.729   4.717  1.4218  0.1974 -2.8332
   78SLPC  C315 7200   0.375   4.543   4.612 -0.6142  0.2465  0.0914
   78SLPC  H15X 7201   0.386   4.435   4.633 -0.0221  0.3494  0.3215
   78SLPC  H15Y 7202   0.421   4.582   4.518  0.8779 -0.5870  0.4411
   78SLPC  C316 7203   0.224   4.568   4.592  0.1049  0.1326 -0.4549
   78SLPC  H16X 7204   0.213   4.677   4.612 -0.4379 -0.4482  3.0724
   78SLPC  H16Y 7205   0.167   4.510   4.667 -0.8307  1.4156 -0.1306
   78SLPC  C317 7206   0.174   4.532   4.450 -0.4236 -0.1118 -0.7326
   78SLPC  H17X 7207   0.231   4.441   4.421  1.0573  0.1888  1.0033
   78SLPC  H17Y 7208   0.197   4.618   4.384 -0.8978  0.6527  0.0756
   78SLPC  C318 7209   0.023   4.510   4.446 -0.0890  0.2044 -0.0555
   78SLPC  H18X 7210  -0.013   4.426   4.510  1.9891 -0.0608  0.8402
   78SLPC  H18Y 7211   0.001   4.478   4.342 -0.1058  2.3674 -0.7644
   78SLPC  H18Z 7212  -0.032   4.601   4.480  0.0129 -0.8309  3.2860
   79SLPC     N 7213   4.362   1.983   6.992 -0.9478  0.1142 -0.0629
   79SLPC   C13 7214   4.377   1.890   7.106 -0.8268 -0.2078 -0.3024
   79SLPC  H13A 7215   4.480   1.894   7.137 -1.3192 -0.9537  1.5801
   79SLPC  H13B 7216   4.320   1.912   7.195 -0.1177 -2.0767  0.6765
   79SLPC  H13C 7217   4.354   1.786   7.084 -1.3433 -0.3406  0.7956
   79SLPC   C14 7218   4.420   2.109   7.056 -0.3285 -0.5480  0.7132
   79SLPC  H14A 7219   4.504   2.097   7.122 -1.0268  0.3892  1.8030
   79SLPC  H14B 7220   4.443   2.175   6.974 -2.8341  1.0157  1.1594
   79SLPC  H14C 7221   4.340   2.158   7.109 -0.9263 -0.2844 -0.3836
   79SLPC   C15 7222   4.222   2.011   6.958 -0.0018 -0.1172  0.0309
   79SLPC  H15A 7223   4.165   1.920   6.950  0.3532 -0.2418 -1.1448
   79SLPC  H15B 7224   4.173   2.065   7.038  1.0252  0.0782  0.5385
   79SLPC  H15C 7225   4.223   2.071   6.868  0.7703  1.3296  0.9534
   79SLPC   C12 7226   4.439   1.922   6.875  0.0042  0.7458 -0.5186
   79SLPC  H12A 7227   4.400   1.823   6.859 -0.9462  0.3440  3.2286
   79SLPC  H12B 7228   4.538   1.894   6.910 -1.4277 -1.3366  2.2986
   79SLPC   C11 7229   4.445   2.010   6.748 -0.1358  0.1464  0.1631
   79SLPC  H11A 7230   4.340   2.017   6.710  0.6488  1.8856 -1.9203
   79SLPC  H11B 7231   4.497   1.960   6.663  0.1006  0.2590  0.2409
   79SLPC     P 7232   4.651   2.182   6.765 -0.6582  0.2288 -0.5864
   79SLPC   O13 7233   4.648   2.326   6.804  0.0097  0.4156 -0.0599
   79SLPC   O14 7234   4.746   2.101   6.850 -0.1841 -0.4697 -0.1255
   79SLPC   O12 7235   4.501   2.141   6.786 -0.3982 -0.0221 -0.7462
   79SLPC   O11 7236   4.673   2.156   6.612 -0.2774  0.7258 -0.1746
   79SLPC    C1 7237   4.606   2.229   6.509 -0.0319 -0.2774 -0.0732
   79SLPC    HA 7238   4.537   2.310   6.538  0.7047  0.4859 -0.4048
   79SLPC    HB 7239   4.684   2.271   6.442  0.3829 -0.5802  0.2171
   79SLPC    C2 7240   4.513   2.128   6.424  0.0133  0.1838 -0.5518
   79SLPC    HS 7241   4.438   2.103   6.502  1.7618  1.7410  1.7444
   79SLPC   O21 7242   4.595   2.011   6.410 -0.4269 -0.9703  0.0414
   79SLPC   C21 7243   4.528   1.901   6.388 -1.0415 -0.2308  0.6009
   79SLPC   O22 7244   4.413   1.880   6.423  0.0055 -0.2084  0.3398
   79SLPC   C22 7245   4.618   1.798   6.322  0.0552  0.7116 -0.2546
   79SLPC   H2R 7246   4.723   1.836   6.317  0.5893 -0.8256 -1.3165
   79SLPC   H2S 7247   4.594   1.710   6.385 -0.7262 -1.0044 -2.7818
   79SLPC    C3 7248   4.453   2.189   6.292 -0.0886 -0.0231  0.2220
   79SLPC    HX 7249   4.543   2.216   6.231  0.4903 -0.9772  0.6282
   79SLPC    HY 7250   4.403   2.282   6.324 -0.1331  0.3024 -0.7454
   79SLPC   O31 7251   4.364   2.099   6.219 -0.2410 -0.5418 -0.0861
   79SLPC   C31 7252   4.236   2.119   6.232 -0.9712 -0.8114  0.3282
   79SLPC   O32 7253   4.181   2.209   6.295  0.0330  0.0075 -0.3792
   79SLPC   C32 7254   4.164   2.005   6.164  0.3394 -0.4766  0.6739
   79SLPC   H2X 7255   4.136   1.930   6.242 -0.5853  0.6884  1.4902
   79SLPC   H2Y 7256   4.235   1.957   6.094 -0.9702 -0.6550 -0.5777
   79SLPC   C23 7257   4.569   1.749   6.186 -0.2535 -0.3693 -0.7811
   79SLPC   H3R 7258   4.461   1.734   6.204  0.3524 -0.2344  4.3246
   79SLPC   H3S 7259   4.595   1.652   6.138  2.1165  0.9712 -2.3992
   79SLPC   C24 7260   4.585   1.856   6.077 -0.7039 -0.6477 -0.0177
   79SLPC   H4R 7261   4.689   1.866   6.039  0.1090 -0.1278  2.2180
   79SLPC   H4S 7262   4.564   1.960   6.109  0.3118 -0.2084 -0.7362
   79SLPC   C25 7263   4.487   1.831   5.964 -0.0751 -0.0134  0.0483
   79SLPC   H5R 7264   4.381   1.822   5.997 -1.1780  0.1785 -3.0780
   79SLPC   H5S 7265   4.516   1.734   5.919 -0.4264  0.4763 -1.2833
   79SLPC   C26 7266   4.498   1.944   5.856 -0.5650 -0.5970  0.3281
   79SLPC   H6R 7267   4.604   1.954   5.825 -1.7691  1.1389 -3.8130
   79SLPC   H6S 7268   4.472   2.040   5.905 -0.0987 -0.7963  0.9856
   79SLPC   C27 7269   4.409   1.924   5.742 -0.0647 -0.0464 -0.4425
   79SLPC   H7R 7270   4.306   1.921   5.783 -0.4858 -0.6115 -1.5159
   79SLPC   H7S 7271   4.448   1.828   5.701 -1.6357 -0.6726 -0.5133
   79SLPC   C28 7272   4.408   2.041   5.640  0.7387 -0.0970  0.1330
   79SLPC   H8R 7273   4.424   2.137   5.693 -1.0723 -0.4138  1.3503
   79SLPC   H8S 7274   4.312   2.035   5.584 -0.5532  1.9757  1.9946
   79SLPC   C29 7275   4.522   2.015   5.547 -0.3708  0.7149 -0.3866
   79SLPC   H9R 7276   4.616   2.065   5.576 -0.9518  2.4049 -1.2441
   79SLPC  C210 7277   4.530   1.938   5.430 -0.2922  0.0322 -0.1360
   79SLPC  H10R 7278   4.622   1.935   5.371  0.3637 -1.7423  0.8978
   79SLPC  C211 7279   4.415   1.860   5.363  0.7953 -0.3733  0.1797
   79SLPC  H11R 7280   4.360   1.812   5.447  0.5977  1.3094  1.0541
   79SLPC  H11S 7281   4.453   1.778   5.297 -2.2701 -2.5098  0.8517
   79SLPC  C212 7282   4.315   1.957   5.296  0.3585  0.3827 -0.8918
   79SLPC  H12R 7283   4.316   2.060   5.333 -0.5380  0.6399 -1.5395
   79SLPC  C213 7284   4.214   1.916   5.219  0.9083 -0.5302  0.2699
   79SLPC  H13R 7285   4.146   1.987   5.168 -1.4482 -2.8651 -0.0711
   79SLPC  C214 7286   4.195   1.773   5.168 -0.3682  0.5123  0.0616
   79SLPC  H14R 7287   4.087   1.750   5.154 -0.1567 -0.0881 -0.6161
   79SLPC  H14S 7288   4.245   1.697   5.231  1.6836  1.3533 -0.4863
   79SLPC  C215 7289   4.262   1.744   5.029 -0.0560 -0.4714 -0.3250
   79SLPC  H15R 7290   4.259   1.634   5.016  2.1749 -0.5125 -0.9424
   79SLPC  H15S 7291   4.365   1.785   5.026 -0.3656  0.3008 -1.0659
   79SLPC  C216 7292   4.177   1.804   4.916  0.0585  0.1705 -0.9200
   79SLPC  H16R 7293   4.170   1.913   4.936  1.8112  0.1740 -0.0814
   79SLPC  H16S 7294   4.074   1.762   4.912 -0.2826  1.0424 -1.8508
   79SLPC  C217 7295   4.243   1.792   4.782 -0.0833  0.4294 -0.7656
   79SLPC  H17R 7296   4.270   1.685   4.766  0.6740  0.4500  0.2325
   79SLPC  H17S 7297   4.334   1.855   4.777 -1.6120  2.8611  0.0007
   79SLPC  C218 7298   4.142   1.849   4.679 -0.4767  0.4469 -0.0610
   79SLPC  H18R 7299   4.054   1.781   4.684  1.6127 -2.3739  1.1829
   79SLPC  H18S 7300   4.181   1.837   4.576 -0.6330  1.2536 -0.2208
   79SLPC  H18T 7301   4.129   1.955   4.709  2.0218  0.5108  1.0813
   79SLPC   C33 7302   4.034   2.055   6.088 -0.2193  0.1152 -0.1802
   79SLPC   H3X 7303   3.967   2.109   6.157  0.5417  0.7883  0.0431
   79SLPC   H3Y 7304   3.980   1.965   6.052 -0.0814 -0.1133  0.1776
   79SLPC   C34 7305   4.066   2.144   5.973 -0.6194  0.7218  0.0190
   79SLPC   H4X 7306   4.125   2.094   5.893 -1.1641  0.5088 -0.2525
   79SLPC   H4Y 7307   4.117   2.230   6.022  1.5367 -0.5345  0.1185
   79SLPC   C35 7308   3.945   2.196   5.906  0.2028 -0.0033 -0.0005
   79SLPC   H5X 7309   3.965   2.280   5.837  0.2200 -0.4645 -0.5618
   79SLPC   H5Y 7310   3.884   2.241   5.987  0.6664 -0.4595  0.6153
   79SLPC   C36 7311   3.856   2.097   5.827  0.8686 -0.2194  0.4897
   79SLPC   H6X 7312   3.749   2.127   5.833  1.6119  2.6492  0.7546
   79SLPC   H6Y 7313   3.869   1.995   5.868  0.6470 -1.3301 -2.0379
   79SLPC   C37 7314   3.909   2.093   5.680 -0.3156  0.1436 -0.6121
   79SLPC   H7X 7315   4.018   2.072   5.675 -0.1788  0.7401 -0.3102
   79SLPC   H7Y 7316   3.905   2.199   5.646 -0.6506  0.7519  1.2098
   79SLPC   C38 7317   3.819   1.999   5.595 -0.3308  0.0599  0.0631
   79SLPC   H8X 7318   3.727   2.061   5.605  1.5462  3.5726 -2.1963
   79SLPC   H8Y 7319   3.808   1.899   5.640  0.4659  0.2832  0.7853
   79SLPC   C39 7320   3.880   1.999   5.453 -0.0776  0.1225 -0.5218
   79SLPC   H9X 7321   3.966   1.929   5.453 -1.6267 -1.8573 -0.5874
   79SLPC   H9Y 7322   3.910   2.104   5.436  0.5343  0.0083 -0.1748
   79SLPC  C310 7323   3.774   1.955   5.350  0.1119 -0.5955 -0.5406
   79SLPC  H10X 7324   3.696   2.033   5.365  0.1028 -0.9472  1.5632
   79SLPC  H10Y 7325   3.734   1.854   5.373 -0.1895 -0.3483  0.0618
   79SLPC  C311 7326   3.813   1.950   5.207 -0.2927 -0.2169  0.6515
   79SLPC  H11X 7327   3.904   1.894   5.175 -0.2055  1.7823 -3.0557
   79SLPC  H11Y 7328   3.830   2.050   5.164  1.7657 -2.1209 -3.5783
   79SLPC  C312 7329   3.694   1.898   5.123 -0.1999 -0.4954  0.8879
   79SLPC  H12X 7330   3.607   1.965   5.141 -0.3447  0.5549 -2.9516
   79SLPC  H12Y 7331   3.659   1.798   5.156 -0.8104 -0.5751  0.0055
   79SLPC  C313 7332   3.710   1.901   4.967 -0.1992 -1.0739  0.3278
   79SLPC  H13X 7333   3.620   1.867   4.911 -1.1059 -0.3854  1.3207
   79SLPC  H13Y 7334   3.793   1.828   4.956  1.3759  0.7604 -0.6330
   79SLPC  C314 7335   3.775   2.023   4.913  0.4736 -0.3452  0.1940
   79SLPC  H14X 7336   3.873   2.038   4.964  1.2722 -0.7299 -1.1688
   79SLPC  H14Y 7337   3.723   2.117   4.939 -2.4153 -0.9803 -2.5869
   79SLPC  C315 7338   3.815   2.019   4.765  0.8301 -0.0766 -0.2405
   79SLPC  H15X 7339   3.864   1.920   4.748  1.1946  0.0414  0.1320
   79SLPC  H15Y 7340   3.895   2.094   4.753  0.9867 -0.2919 -0.5593
   79SLPC  C316 7341   3.694   2.047   4.665  0.1389  0.3092  0.2031
   79SLPC  H16X 7342   3.620   1.965   4.662 -0.2377  0.6226  0.8622
   79SLPC  H16Y 7343   3.736   2.047   4.562  0.2132  2.2073  0.1971
   79SLPC  C317 7344   3.632   2.195   4.681 -0.2790  0.1524 -0.0615
   79SLPC  H17X 7345   3.561   2.183   4.766  0.0736 -1.0238  0.0745
   79SLPC  H17Y 7346   3.569   2.222   4.594 -0.9008 -2.4879 -0.4955
   79SLPC  C318 7347   3.729   2.312   4.712  0.2214  0.4707 -0.5885
   79SLPC  H18X 7348   3.671   2.406   4.723 -0.5179 -0.0682  0.2651
   79SLPC  H18Y 7349   3.806   2.332   4.634  0.1681  0.4249 -0.6523
   79SLPC  H18Z 7350   3.777   2.295   4.812 -0.1352 -0.3953 -0.5581
   80SLPC     N 7351   6.859   4.259   7.027  0.1833  0.3522  0.0466
   80SLPC   C13 7352   6.992   4.324   7.038 -0.4395  0.3731  0.4156
   80SLPC  H13A 7353   7.045   4.273   7.118  0.1865  0.7679  0.2599
   80SLPC  H13B 7354   7.049   4.319   6.946 -0.9072 -2.0669  0.1767
   80SLPC  H13C 7355   6.989   4.427   7.071  0.1904  0.3667  0.5115
   80SLPC   C14 7356   6.806   4.258   7.165 -0.2337  0.6988 -0.5857
   80SLPC  H14A 7357   6.869   4.209   7.239 -2.1122  0.4963  0.9702
   80SLPC  H14B 7358   6.787   4.358   7.200 -1.3290  0.1294  0.5622
   80SLPC  H14C 7359   6.715   4.200   7.165 -0.0478  0.4017 -0.2552
   80SLPC   C15 7360   6.875   4.123   6.966 -0.2083  0.4538 -0.4181
   80SLPC  H15A 7361   6.912   4.133   6.865  3.0940  0.8723  0.6927
   80SLPC  H15B 7362   6.941   4.052   7.014  0.6470  1.7292  0.3709
   80SLPC  H15C 7363   6.774   4.088   6.951 -0.0188 -0.1125 -0.3944
   80SLPC   C12 7364   6.758   4.346   6.949 -0.1558 -0.3275 -0.5600
   80SLPC  H12A 7365   6.726   4.426   7.014  1.2305  0.0849 -0.3514
   80SLPC  H12B 7366   6.670   4.285   6.940  0.0490 -0.5935 -0.7924
   80SLPC   C11 7367   6.794   4.401   6.812 -0.0133  1.5314 -0.0874
   80SLPC  H11A 7368   6.700   4.447   6.773 -1.0226 -0.5179 -0.2449
   80SLPC  H11B 7369   6.824   4.322   6.740  1.2391  0.8102  1.1882
   80SLPC     P 7370   6.877   4.637   6.874 -0.2951 -0.0084  0.2254
   80SLPC   O13 7371   6.732   4.660   6.916 -0.2484  0.6023  1.2412
   80SLPC   O14 7372   6.985   4.667   6.975  0.0098  0.5325 -0.2378
   80SLPC   O12 7373   6.905   4.486   6.826 -0.3325 -0.0258  0.7166
   80SLPC   O11 7374   6.898   4.723   6.748  0.2102  0.0571  0.4519
   80SLPC    C1 7375   7.027   4.712   6.685 -0.2151  0.0245 -0.2789
   80SLPC    HA 7376   7.095   4.785   6.732 -1.3556  1.4952 -0.8416
   80SLPC    HB 7377   7.076   4.612   6.686 -0.1360  0.0678  0.9615
   80SLPC    C2 7378   7.022   4.770   6.543  0.1798  0.2016 -0.2083
   80SLPC    HS 7379   7.127   4.784   6.509  0.0920  1.5403  0.0325
   80SLPC   O21 7380   6.949   4.890   6.529 -0.2176 -0.1556  0.2143
   80SLPC   C21 7381   7.023   4.996   6.554 -0.2732 -0.0604  0.5403
   80SLPC   O22 7382   7.142   5.003   6.588 -0.0021  0.0300 -0.3705
   80SLPC   C22 7383   6.950   5.124   6.527 -0.3545  0.1950 -0.4023
   80SLPC   H2R 7384   6.855   5.105   6.472 -1.9036 -2.8038  2.8882
   80SLPC   H2S 7385   6.925   5.167   6.626 -0.0510  2.1217 -1.1057
   80SLPC    C3 7386   6.959   4.660   6.449 -0.0109 -0.3167 -0.7706
   80SLPC    HX 7387   6.865   4.629   6.501  0.2674  1.9061  1.2580
   80SLPC    HY 7388   7.016   4.567   6.470  0.8740  0.8502  2.7019
   80SLPC   O31 7389   6.960   4.695   6.308  0.4144 -0.2287  0.0919
   80SLPC   C31 7390   6.850   4.713   6.253 -0.0539  0.3858 -0.5290
   80SLPC   O32 7391   6.736   4.723   6.306  0.0556 -0.1137  0.0658
   80SLPC   C32 7392   6.870   4.733   6.102 -0.3211 -0.2276 -0.3690
   80SLPC   H2X 7393   6.834   4.641   6.050 -0.6518  1.0670 -2.5454
   80SLPC   H2Y 7394   6.978   4.743   6.079 -0.0227 -1.1312  0.5448
   80SLPC   C23 7395   7.051   5.227   6.464 -0.3229 -0.0424  0.4101
   80SLPC   H3R 7396   7.084   5.181   6.368  0.7388  1.5314 -0.0059
   80SLPC   H3S 7397   7.136   5.236   6.535  0.3180 -1.3260 -0.1650
   80SLPC   C24 7398   6.989   5.367   6.437  0.6231 -0.6502  0.0573
   80SLPC   H4R 7399   6.956   5.407   6.535 -0.2090 -0.8786 -0.1201
   80SLPC   H4S 7400   6.896   5.364   6.376 -0.0181  0.8248  0.9289
   80SLPC   C25 7401   7.094   5.468   6.394 -0.4818 -0.5390  0.2842
   80SLPC   H5R 7402   7.160   5.481   6.482 -0.7003 -0.5939  0.4569
   80SLPC   H5S 7403   7.053   5.571   6.382 -0.6843 -0.7753 -1.3159
   80SLPC   C26 7404   7.173   5.423   6.270 -0.4326 -0.1119 -0.2214
   80SLPC   H6R 7405   7.100   5.387   6.195 -0.9817  2.2879 -0.9468
   80SLPC   H6S 7406   7.239   5.336   6.289 -1.3429 -1.3072 -2.2226
   80SLPC   C27 7407   7.248   5.535   6.210 -0.0155  0.4003 -0.6256
   80SLPC   H7R 7408   7.327   5.583   6.271 -0.7370  1.1157 -0.2331
   80SLPC   H7S 7409   7.184   5.625   6.201  0.5178  1.2257  2.7326
   80SLPC   C28 7410   7.308   5.495   6.078  0.0691 -0.2112  0.4625
   80SLPC   H8R 7411   7.348   5.392   6.095  0.0874 -0.0968  1.1620
   80SLPC   H8S 7412   7.400   5.555   6.061  0.9560 -1.3992  0.8959
   80SLPC   C29 7413   7.214   5.500   5.963  0.5043  0.0971  0.1801
   80SLPC   H9R 7414   7.111   5.475   5.993  1.8750 -2.9617  2.8214
   80SLPC  C210 7415   7.243   5.518   5.834 -0.4257  0.4818 -0.1026
   80SLPC  H10R 7416   7.157   5.520   5.766 -1.4820  1.2329  1.2025
   80SLPC  C211 7417   7.373   5.565   5.778  0.2254 -0.2811  0.1017
   80SLPC  H11R 7418   7.453   5.498   5.814 -1.8182 -2.0337  1.5899
   80SLPC  H11S 7419   7.392   5.670   5.809  0.2061 -0.6622  1.4626
   80SLPC  C212 7420   7.370   5.580   5.623 -0.2514  0.5297 -0.5265
   80SLPC  H12R 7421   7.275   5.593   5.571  0.4703  0.9409 -1.7721
   80SLPC  C213 7422   7.485   5.574   5.543 -0.1144  0.3554 -0.4536
   80SLPC  H13R 7423   7.474   5.599   5.437  1.9843 -0.2145 -0.8380
   80SLPC  C214 7424   7.625   5.550   5.586 -0.4524 -0.1197  0.1129
   80SLPC  H14R 7425   7.642   5.565   5.695 -0.8343 -1.3922  0.3614
   80SLPC  H14S 7426   7.685   5.627   5.532  0.2719 -0.6119  0.2094
   80SLPC  C215 7427   7.684   5.412   5.536  0.5268 -0.2122 -0.1169
   80SLPC  H15R 7428   7.646   5.325   5.594  0.8247 -0.4226 -0.2341
   80SLPC  H15S 7429   7.792   5.416   5.564  0.2473  1.0121  0.8639
   80SLPC  C216 7430   7.672   5.387   5.384  0.5307  0.0825  0.3699
   80SLPC  H16R 7431   7.663   5.478   5.321  2.4285  0.8584  1.1565
   80SLPC  H16S 7432   7.576   5.332   5.381  1.8383 -2.2822 -1.4062
   80SLPC  C217 7433   7.792   5.314   5.317 -0.0926  0.9648  0.2260
   80SLPC  H17R 7434   7.880   5.381   5.328 -0.1580  0.8592  1.5500
   80SLPC  H17S 7435   7.783   5.302   5.207  1.0790  0.8243  0.1350
   80SLPC  C218 7436   7.820   5.175   5.378  0.2203  0.0441 -0.7243
   80SLPC  H18R 7437   7.895   5.120   5.318  0.3884 -0.6798  0.1215
   80SLPC  H18S 7438   7.738   5.101   5.363  0.4321 -0.9285  2.1948
   80SLPC  H18T 7439   7.847   5.174   5.486  0.8852 -0.9299 -0.8883
   80SLPC   C33 7440   6.799   4.858   6.034 -0.1806  0.2877 -0.3923
   80SLPC   H3X 7441   6.834   4.962   6.054 -0.4276  0.3398 -0.2216
   80SLPC   H3Y 7442   6.689   4.853   6.054 -0.1139  0.4902  0.0472
   80SLPC   C34 7443   6.822   4.854   5.883 -0.3338  0.0721 -0.2777
   80SLPC   H4X 7444   6.818   4.748   5.852 -0.2359 -0.0882  0.2483
   80SLPC   H4Y 7445   6.928   4.879   5.860  0.0597  0.4439  1.7153
   80SLPC   C35 7446   6.724   4.928   5.796  0.0510  0.0196 -0.2838
   80SLPC   H5X 7447   6.708   5.035   5.820  0.0433  0.0352 -0.3559
   80SLPC   H5Y 7448   6.622   4.885   5.799  0.2928 -0.5132  0.7407
   80SLPC   C36 7449   6.764   4.924   5.646  0.0227  0.5861  1.1747
   80SLPC   H6X 7450   6.749   4.818   5.616 -2.6927  0.7527  1.7134
   80SLPC   H6Y 7451   6.872   4.940   5.624  0.0371 -1.0105 -0.0948
   80SLPC   C37 7452   6.691   5.025   5.562  0.4829  0.3150 -0.5838
   80SLPC   H7X 7453   6.710   5.129   5.594 -2.8016  1.2363 -1.3161
   80SLPC   H7Y 7454   6.582   5.006   5.564  0.3648  1.0587  0.5500
   80SLPC   C38 7455   6.736   5.011   5.414  0.1591 -0.3233  0.9099
   80SLPC   H8X 7456   6.751   4.904   5.387 -0.0291 -0.6276  1.9645
   80SLPC   H8Y 7457   6.831   5.067   5.418 -1.5927  3.0701 -1.0723
   80SLPC   C39 7458   6.633   5.061   5.315  0.8625 -0.1005 -0.4556
   80SLPC   H9X 7459   6.611   5.167   5.337  1.3282  0.9166 -4.2992
   80SLPC   H9Y 7460   6.536   5.008   5.334  0.4410  1.5464  2.7846
   80SLPC  C310 7461   6.672   5.060   5.169 -0.7078  0.2774  0.4467
   80SLPC  H10X 7462   6.686   4.953   5.142 -0.5450  0.9285 -2.3664
   80SLPC  H10Y 7463   6.755   5.125   5.134 -1.4301 -0.1893 -2.3702
   80SLPC  C311 7464   6.556   5.086   5.070 -0.1263  0.2345 -0.1593
   80SLPC  H11X 7465   6.576   5.186   5.026 -0.2240 -0.4235 -1.7735
   80SLPC  H11Y 7466   6.457   5.077   5.119  0.5140  0.6364  1.2635
   80SLPC  C312 7467   6.565   4.994   4.956 -0.5925  0.4883  0.9745
   80SLPC  H12X 7468   6.550   4.887   4.983 -1.3619  0.5250  0.7094
   80SLPC  H12Y 7469   6.672   4.997   4.926 -0.4350 -0.9537  1.3047
   80SLPC  C313 7470   6.482   5.042   4.835 -0.0599  0.2845 -0.3129
   80SLPC  H13X 7471   6.457   5.150   4.833 -2.0530 -0.1380 -2.2495
   80SLPC  H13Y 7472   6.386   4.985   4.831 -0.3567  0.8904 -2.5074
   80SLPC  C314 7473   6.544   5.025   4.695 -0.0075  0.2089  0.2399
   80SLPC  H14X 7474   6.540   4.917   4.670  0.3197  0.0982  0.6514
   80SLPC  H14Y 7475   6.651   5.053   4.701 -0.0318  0.5859 -0.9728
   80SLPC  C315 7476   6.467   5.093   4.584 -0.5362  0.0068  0.7420
   80SLPC  H15X 7477   6.479   5.204   4.590 -0.8327  0.0909 -0.1956
   80SLPC  H15Y 7478   6.359   5.070   4.596 -0.5252 -1.4116 -1.3826
   80SLPC  C316 7479   6.508   5.061   4.445 -0.4281  1.0341  0.5056
   80SLPC  H16X 7480   6.444   5.116   4.373 -2.8475 -0.7367  1.1836
   80SLPC  H16Y 7481   6.498   4.952   4.426  0.9743  0.9328  0.1765
   80SLPC  C317 7482   6.652   5.110   4.418  1.3313 -0.2882  0.3039
   80SLPC  H17X 7483   6.733   5.042   4.451  2.3324  0.8100  0.1551
   80SLPC  H17Y 7484   6.670   5.206   4.470 -1.3027  0.4914 -0.0899
   80SLPC  C318 7485   6.676   5.141   4.265  0.1094 -0.1646 -0.6171
   80SLPC  H18X 7486   6.781   5.177   4.253  0.5286 -0.5058  1.5836
   80SLPC  H18Y 7487   6.599   5.210   4.225  2.8749  3.0566 -0.8897
   80SLPC  H18Z 7488   6.665   5.049   4.204 -0.1887 -0.9266  0.5552
   81SLPC     N 7489   3.553   6.285   2.214  0.4870  0.0725  0.4051
   81SLPC   C13 7490   3.650   6.203   2.288  0.8638 -0.0051  0.1357
   81SLPC  H13A 7491   3.690   6.125   2.225  0.3235  0.8467 -1.3147
   81SLPC  H13B 7492   3.731   6.258   2.332  2.4377 -0.8484 -1.5435
   81SLPC  H13C 7493   3.601   6.149   2.367  0.8996  2.7626  2.1964
   81SLPC   C14 7494   3.449   6.190   2.176 -0.3778 -0.3120 -0.3224
   81SLPC  H14A 7495   3.500   6.111   2.122 -0.4533  0.6721 -1.8836
   81SLPC  H14B 7496   3.407   6.149   2.266 -1.4539 -0.4572 -0.8718
   81SLPC  H14C 7497   3.370   6.241   2.122 -0.4743  0.2402  0.3366
   81SLPC   C15 7498   3.623   6.321   2.084  0.7503  0.5689 -0.1556
   81SLPC  H15A 7499   3.663   6.227   2.050 -1.2821 -1.0140  1.5869
   81SLPC  H15B 7500   3.546   6.369   2.026 -1.7380 -1.3174  1.3828
   81SLPC  H15C 7501   3.704   6.391   2.102  0.3847  0.6515  1.2925
   81SLPC   C12 7502   3.500   6.398   2.300 -0.2670  0.0145  0.2393
   81SLPC  H12A 7503   3.580   6.445   2.356 -0.2321 -0.0961  0.2844
   81SLPC  H12B 7504   3.423   6.358   2.365 -0.1126  0.9953  1.0465
   81SLPC   C11 7505   3.434   6.514   2.224  0.0060 -0.4630 -1.4500
   81SLPC  H11A 7506   3.522   6.565   2.181  0.2333 -1.0679 -1.7097
   81SLPC  H11B 7507   3.395   6.597   2.287  0.8466 -0.0414 -1.4720
   81SLPC     P 7508   3.191   6.455   2.124  0.1086 -0.4964 -0.2432
   81SLPC   O13 7509   3.132   6.562   2.036  0.1530 -0.4529 -0.1869
   81SLPC   O14 7510   3.155   6.320   2.085  0.0170 -0.2519 -0.2248
   81SLPC   O12 7511   3.346   6.472   2.114  0.1449 -0.3900 -0.0369
   81SLPC   O11 7512   3.158   6.469   2.274  0.1790 -0.0884 -0.6812
   81SLPC    C1 7513   3.100   6.584   2.332 -0.2537  0.0655 -0.1771
   81SLPC    HA 7514   3.119   6.679   2.277 -1.9453 -0.0380 -0.9990
   81SLPC    HB 7515   2.990   6.573   2.344 -0.2428  0.1188 -0.0154
   81SLPC    C2 7516   3.152   6.604   2.478  0.3275 -1.1528 -0.1236
   81SLPC    HS 7517   3.257   6.639   2.476 -0.6117  2.1429  1.2917
   81SLPC   O21 7518   3.127   6.486   2.556 -0.0254  0.3390 -0.3364
   81SLPC   C21 7519   3.235   6.422   2.589  0.5225  0.6993 -0.7586
   81SLPC   O22 7520   3.350   6.436   2.552 -0.0247  0.0487 -0.0670
   81SLPC   C22 7521   3.190   6.309   2.686 -0.0204  0.3579 -0.1033
   81SLPC   H2R 7522   3.108   6.351   2.747  0.6862  3.8545 -1.3640
   81SLPC   H2S 7523   3.165   6.220   2.624  1.2929 -0.4993  0.5473
   81SLPC    C3 7524   3.073   6.726   2.554  0.1167 -0.1552  0.1738
   81SLPC    HX 7525   2.973   6.687   2.580  0.4354  0.1056  1.9114
   81SLPC    HY 7526   3.077   6.819   2.494 -2.7226  0.0807  0.2502
   81SLPC   O31 7527   3.146   6.744   2.674 -0.1447  0.3062 -0.2617
   81SLPC   C31 7528   3.071   6.785   2.776  0.4770 -0.5744  0.3915
   81SLPC   O32 7529   2.952   6.814   2.767 -0.7516 -0.0909 -0.2976
   81SLPC   C32 7530   3.152   6.819   2.900  0.4231  0.4935 -0.2700
   81SLPC   H2X 7531   3.138   6.926   2.929 -2.2145 -0.4100  2.3746
   81SLPC   H2Y 7532   3.256   6.806   2.862  0.7249 -1.8115  1.1509
   81SLPC   C23 7533   3.298   6.270   2.791 -0.1779 -0.7148  1.1139
   81SLPC   H3R 7534   3.317   6.361   2.851 -0.8782  0.6996 -0.7148
   81SLPC   H3S 7535   3.397   6.231   2.759 -1.0207 -1.5022 -0.7317
   81SLPC   C24 7536   3.234   6.179   2.902  0.2247  0.1281  0.2353
   81SLPC   H4R 7537   3.193   6.087   2.856  2.7767 -0.1651 -1.6849
   81SLPC   H4S 7538   3.155   6.241   2.949 -1.4120 -1.4760 -0.2902
   81SLPC   C25 7539   3.342   6.127   2.998 -0.3243  0.2124  0.3342
   81SLPC   H5R 7540   3.430   6.193   3.005 -0.5319  0.6990 -1.1724
   81SLPC   H5S 7541   3.373   6.028   2.958  0.9405  1.1874 -1.2461
   81SLPC   C26 7542   3.277   6.098   3.138  0.4293 -0.1151 -0.3988
   81SLPC   H6R 7543   3.191   6.037   3.101  1.1226 -0.0166 -2.2702
   81SLPC   H6S 7544   3.235   6.189   3.186  1.2478  0.5027 -0.8302
   81SLPC   C27 7545   3.369   6.007   3.218 -0.6240 -1.1296 -0.0607
   81SLPC   H7R 7546   3.401   5.914   3.165 -0.5736  0.8432 -3.8514
   81SLPC   H7S 7547   3.311   5.975   3.307 -0.6716  0.7411  0.6148
   81SLPC   C28 7548   3.488   6.091   3.276 -0.5436  0.4725 -0.8041
   81SLPC   H8R 7549   3.558   6.119   3.194 -1.6983 -0.2540 -2.0911
   81SLPC   H8S 7550   3.521   6.002   3.334 -1.2668 -0.1541 -1.3400
   81SLPC   C29 7551   3.448   6.201   3.363  0.5009  0.1948 -0.2764
   81SLPC   H9R 7552   3.426   6.289   3.300  2.0891  1.3729  0.7222
   81SLPC  C210 7553   3.419   6.207   3.496  0.3551  1.0956  0.0523
   81SLPC  H10R 7554   3.392   6.303   3.544  1.2830  0.9394  0.9254
   81SLPC  C211 7555   3.425   6.101   3.596  0.7669  0.4807 -0.8995
   81SLPC  H11R 7556   3.472   6.135   3.691 -1.0055 -1.2927  0.6826
   81SLPC  H11S 7557   3.483   6.011   3.567 -0.5334 -0.4387 -0.7129
   81SLPC  C212 7558   3.279   6.062   3.631 -1.1878 -0.3038 -0.5904
   81SLPC  H12R 7559   3.211   6.010   3.561 -0.5550  0.9016 -2.1739
   81SLPC  C213 7560   3.221   6.091   3.750 -0.4359 -0.1839 -0.0581
   81SLPC  H13R 7561   3.119   6.051   3.762 -1.6581  2.9802  1.1276
   81SLPC  C214 7562   3.283   6.167   3.861  0.5740  0.3727 -0.3494
   81SLPC  H14R 7563   3.201   6.213   3.919 -0.2269 -1.4324  0.0282
   81SLPC  H14S 7564   3.360   6.243   3.834 -1.8696  2.3097 -2.2242
   81SLPC  C215 7565   3.361   6.076   3.959  0.3935  0.6729  0.2242
   81SLPC  H15R 7566   3.449   6.039   3.903  0.6150 -2.2713  2.2182
   81SLPC  H15S 7567   3.313   5.978   3.983  2.4164 -0.1912  0.9962
   81SLPC  C216 7568   3.403   6.149   4.085  0.8775 -0.7015 -0.1906
   81SLPC  H16R 7569   3.302   6.188   4.113 -0.0717 -1.9173 -1.7530
   81SLPC  H16S 7570   3.459   6.244   4.073 -0.9278  0.9145  2.7566
   81SLPC  C217 7571   3.477   6.069   4.200 -0.6190 -0.1428  0.3422
   81SLPC  H17R 7572   3.568   6.018   4.160 -0.4457 -0.7411  1.4523
   81SLPC  H17S 7573   3.405   5.990   4.233  1.0217 -1.4189  1.0265
   81SLPC  C218 7574   3.517   6.146   4.326 -0.4571 -0.2594  0.1509
   81SLPC  H18R 7575   3.427   6.195   4.370 -0.8898  0.2233 -1.2242
   81SLPC  H18S 7576   3.581   6.231   4.295  0.1782 -0.3811  1.0863
   81SLPC  H18T 7577   3.564   6.085   4.406  2.4086 -0.4580 -1.5566
   81SLPC   C33 7578   3.126   6.729   3.020  0.5980 -1.1598 -0.3368
   81SLPC   H3X 7579   3.020   6.702   3.036 -0.7160  3.4653  0.1869
   81SLPC   H3Y 7580   3.158   6.781   3.113 -0.4451  2.3621 -1.7902
   81SLPC   C34 7581   3.198   6.596   3.011  0.2876 -0.3046  0.8148
   81SLPC   H4X 7582   3.308   6.609   2.999 -0.1754  1.5353 -2.9712
   81SLPC   H4Y 7583   3.171   6.534   2.923  2.2276  0.6882 -0.5559
   81SLPC   C35 7584   3.166   6.508   3.136  0.0714 -0.5031 -0.3100
   81SLPC   H5X 7585   3.215   6.411   3.112 -0.4481 -0.7001 -0.5970
   81SLPC   H5Y 7586   3.057   6.493   3.148 -0.3115 -0.2536 -2.8957
   81SLPC   C36 7587   3.232   6.563   3.265 -0.1675 -0.0008  0.2881
   81SLPC   H6X 7588   3.192   6.664   3.285  0.0959  0.1547  0.0253
   81SLPC   H6Y 7589   3.342   6.563   3.251 -0.1209  0.9343  0.6270
   81SLPC   C37 7590   3.191   6.479   3.392  0.3449 -0.2735 -0.6866
   81SLPC   H7X 7591   3.224   6.374   3.388 -0.6876 -0.6331 -0.2570
   81SLPC   H7Y 7592   3.079   6.480   3.394  0.3042 -2.3669  0.6000
   81SLPC   C38 7593   3.237   6.537   3.527  0.0168 -0.4683  0.2929
   81SLPC   H8X 7594   3.211   6.645   3.519 -1.6015 -0.9475 -1.2090
   81SLPC   H8Y 7595   3.348   6.531   3.532  0.0081 -0.4444  0.5363
   81SLPC   C39 7596   3.173   6.477   3.647 -0.1815  0.1539  0.3761
   81SLPC   H9X 7597   3.195   6.370   3.669 -1.9419  0.2205  2.8754
   81SLPC   H9Y 7598   3.063   6.489   3.637 -0.1635 -0.9178 -1.6772
   81SLPC  C310 7599   3.213   6.553   3.771  0.0921 -0.0258 -0.0779
   81SLPC  H10X 7600   3.160   6.509   3.859  1.3870 -0.5498  0.4665
   81SLPC  H10Y 7601   3.171   6.656   3.769 -0.4166 -0.2200  0.2008
   81SLPC  C311 7602   3.366   6.584   3.793 -0.4627  0.2593  0.5496
   81SLPC  H11X 7603   3.383   6.665   3.719 -2.1414 -0.2851 -0.5140
   81SLPC  H11Y 7604   3.427   6.503   3.747 -0.2933 -0.2793  1.7060
   81SLPC  C312 7605   3.402   6.606   3.942  0.4801  0.1395  0.6228
   81SLPC  H12X 7606   3.315   6.576   4.004  0.7562  2.1585  2.1162
   81SLPC  H12Y 7607   3.417   6.714   3.965  1.0217 -0.1073  1.4607
   81SLPC  C313 7608   3.529   6.542   3.990 -0.5521  0.4544  0.5703
   81SLPC  H13X 7609   3.609   6.613   3.959 -2.3772  2.4724  0.1900
   81SLPC  H13Y 7610   3.547   6.438   3.956 -1.8325 -0.3512  2.2206
   81SLPC  C314 7611   3.535   6.547   4.140 -0.2817  0.3115 -0.2697
   81SLPC  H14X 7612   3.559   6.444   4.174 -1.0790  0.1154 -0.2881
   81SLPC  H14Y 7613   3.440   6.578   4.190 -0.2058 -0.8704  0.6517
   81SLPC  C315 7614   3.651   6.640   4.203  0.3975  0.8075  0.2933
   81SLPC  H15X 7615   3.620   6.745   4.179 -0.1196  0.6674  0.3309
   81SLPC  H15Y 7616   3.752   6.614   4.165 -0.5206 -2.7241 -0.0730
   81SLPC  C316 7617   3.657   6.614   4.355  1.0059  0.1553  0.0284
   81SLPC  H16X 7618   3.678   6.506   4.366 -1.3126 -0.6133 -2.0958
   81SLPC  H16Y 7619   3.559   6.632   4.404  0.0002 -0.3712 -1.7182
   81SLPC  C317 7620   3.765   6.696   4.422  0.1679 -0.3381  0.0978
   81SLPC  H17X 7621   3.831   6.733   4.340 -1.1183  0.8757 -0.4169
   81SLPC  H17Y 7622   3.811   6.630   4.498  2.1124  2.5819  1.6540
   81SLPC  C318 7623   3.716   6.822   4.494 -0.2807  0.2582 -0.4212
   81SLPC  H18X 7624   3.660   6.787   4.584  2.9207  0.6842  1.9459
   81SLPC  H18Y 7625   3.647   6.874   4.426 -0.6791  0.4275  0.1040
   81SLPC  H18Z 7626   3.801   6.876   4.541  0.1870 -0.4766 -0.3932
   82SLPC     N 7627   1.573   0.226   2.268 -0.6808 -0.5222 -0.1017
   82SLPC   C13 7628   1.439   0.170   2.242 -0.5740  0.5763  0.3438
   82SLPC  H13A 7629   1.455   0.086   2.176  3.0675  1.6410 -0.3753
   82SLPC  H13B 7630   1.399   0.131   2.334  0.8829 -0.0614  0.7423
   82SLPC  H13C 7631   1.367   0.238   2.200 -1.9187 -2.4190 -2.6644
   82SLPC   C14 7632   1.563   0.327   2.384  0.1738 -0.0356 -0.4881
   82SLPC  H14A 7633   1.653   0.381   2.407 -0.1730  0.2708  0.1758
   82SLPC  H14B 7634   1.499   0.408   2.351  0.8579  1.6769  2.1131
   82SLPC  H14C 7635   1.522   0.278   2.471  1.8432  1.5645  1.3020
   82SLPC   C15 7636   1.618   0.295   2.138 -0.6973 -0.5793 -0.2838
   82SLPC  H15A 7637   1.614   0.223   2.058  0.9853 -0.3913 -0.5797
   82SLPC  H15B 7638   1.557   0.382   2.116 -0.7370 -0.6348 -0.3923
   82SLPC  H15C 7639   1.721   0.323   2.155 -0.3639 -1.1136 -1.3099
   82SLPC   C12 7640   1.667   0.111   2.312 -0.2161 -0.1033  0.2449
   82SLPC  H12A 7641   1.626   0.064   2.401  0.7933  1.7350  1.7522
   82SLPC  H12B 7642   1.759   0.160   2.340  0.8413 -1.2613 -1.0766
   82SLPC   C11 7643   1.705  -0.002   2.210 -0.6601  0.0912  0.1802
   82SLPC  H11A 7644   1.619  -0.060   2.171 -0.7843 -0.1463  0.7930
   82SLPC  H11B 7645   1.770  -0.079   2.257  2.1561  0.5695 -2.5984
   82SLPC     P 7646   1.922   0.105   2.110  0.6175  0.5422 -0.3818
   82SLPC   O13 7647   2.020   0.002   2.061 -0.4203  0.1826 -1.0592
   82SLPC   O14 7648   1.932   0.238   2.049  0.1122  0.1258 -0.1315
   82SLPC   O12 7649   1.770   0.052   2.095 -0.0430 -0.1127  0.9286
   82SLPC   O11 7650   1.938   0.124   2.266 -0.1420  0.0256 -0.1638
   82SLPC    C1 7651   2.055   0.183   2.327  0.0374 -0.3385  0.7595
   82SLPC    HA 7652   2.102   0.111   2.398  0.3421 -0.4452  0.4530
   82SLPC    HB 7653   2.140   0.212   2.261  0.3584  1.5302  1.9083
   82SLPC    C2 7654   2.027   0.318   2.408 -0.4115  1.0320 -0.2596
   82SLPC    HS 7655   2.116   0.337   2.471 -1.5130  3.3261  0.7129
   82SLPC   O21 7656   1.916   0.282   2.488 -0.4494 -0.2407 -0.0357
   82SLPC   C21 7657   1.915   0.313   2.618  0.2522  0.4526  0.1838
   82SLPC   O22 7658   1.999   0.381   2.672 -0.1636 -0.1581 -0.2928
   82SLPC   C22 7659   1.821   0.223   2.687 -0.0338  0.1258  0.0775
   82SLPC   H2R 7660   1.758   0.168   2.614  1.7569 -0.6815 -0.8967
   82SLPC   H2S 7661   1.883   0.148   2.741 -0.2094  0.3233  0.5593
   82SLPC    C3 7662   1.993   0.445   2.320  0.2180 -0.4773  0.0239
   82SLPC    HX 7663   1.892   0.425   2.279 -0.5420 -0.1689  1.6658
   82SLPC    HY 7664   2.057   0.455   2.230 -3.2504  2.1577 -2.4337
   82SLPC   O31 7665   2.006   0.567   2.400 -0.2441  0.7051 -0.0281
   82SLPC   C31 7666   1.887   0.603   2.464 -0.0669  0.0933  0.2210
   82SLPC   O32 7667   1.784   0.541   2.447 -0.0972 -0.2907  0.1497
   82SLPC   C32 7668   1.908   0.736   2.523 -0.1716  0.0126 -0.1548
   82SLPC   H2X 7669   1.829   0.807   2.492  0.5491  0.8889 -0.0203
   82SLPC   H2Y 7670   2.005   0.777   2.486 -0.2330 -0.5528 -0.9734
   82SLPC   C23 7671   1.724   0.304   2.771 -0.5786  0.4839 -0.5180
   82SLPC   H3R 7672   1.635   0.246   2.803 -1.3351  0.0534 -3.1420
   82SLPC   H3S 7673   1.674   0.381   2.708  0.0061 -0.6080 -2.3902
   82SLPC   C24 7674   1.786   0.378   2.890  0.3511  0.1993 -0.0358
   82SLPC   H4R 7675   1.704   0.443   2.928  1.1195  1.4041 -0.3995
   82SLPC   H4S 7676   1.862   0.453   2.862 -1.0744  0.7869 -2.7314
   82SLPC   C25 7677   1.838   0.276   2.992 -1.3815 -0.5516 -0.2369
   82SLPC   H5R 7678   1.889   0.194   2.937  3.5971  1.0007  1.4871
   82SLPC   H5S 7679   1.747   0.229   3.034  0.5368 -3.1037  1.3387
   82SLPC   C26 7680   1.946   0.318   3.092  0.1444  0.8655 -0.3789
   82SLPC   H6R 7681   1.972   0.234   3.159 -1.8916 -0.4428 -1.1137
   82SLPC   H6S 7682   1.905   0.400   3.155  0.9303  0.7880  0.2455
   82SLPC   C27 7683   2.081   0.369   3.029  1.1562  0.2660  0.0506
   82SLPC   H7R 7684   2.053   0.446   2.955  0.1276 -1.5494 -1.5393
   82SLPC   H7S 7685   2.123   0.285   2.969 -0.2971 -2.0024  1.9987
   82SLPC   C28 7686   2.196   0.412   3.125 -0.0754  0.0365 -0.4869
   82SLPC   H8R 7687   2.220   0.317   3.176  2.5476 -0.3442 -2.2605
   82SLPC   H8S 7688   2.161   0.483   3.203  0.8884 -0.7016  0.6583
   82SLPC   C29 7689   2.312   0.460   3.045  0.1635 -0.1257  0.5344
   82SLPC   H9R 7690   2.289   0.477   2.938  1.1244 -0.9678  0.1800
   82SLPC  C210 7691   2.439   0.465   3.083 -0.1441 -0.1667  0.9390
   82SLPC  H10R 7692   2.505   0.527   3.021 -1.8081 -0.7319 -1.5585
   82SLPC  C211 7693   2.490   0.417   3.218  0.8471  0.2951 -0.0055
   82SLPC  H11R 7694   2.445   0.316   3.227  0.0401  0.6642  0.1972
   82SLPC  H11S 7695   2.455   0.500   3.283 -0.6205  0.9323 -1.5270
   82SLPC  C212 7696   2.635   0.410   3.227 -0.4006  0.0157  0.0937
   82SLPC  H12R 7697   2.703   0.411   3.141  1.0965 -0.9491  1.2075
   82SLPC  C213 7698   2.682   0.375   3.351 -0.3045 -0.1810  0.3227
   82SLPC  H13R 7699   2.789   0.358   3.369 -0.2207 -4.1374 -2.5498
   82SLPC  C214 7700   2.600   0.339   3.471  0.4026 -0.1945 -0.2714
   82SLPC  H14R 7701   2.541   0.250   3.438  0.9678 -0.3256 -0.9263
   82SLPC  H14S 7702   2.530   0.421   3.499 -0.5818 -0.3833 -2.0476
   82SLPC  C215 7703   2.687   0.291   3.584  0.3710 -0.1186 -0.0231
   82SLPC  H15R 7704   2.741   0.380   3.622  0.0325 -0.6761  1.9015
   82SLPC  H15S 7705   2.751   0.205   3.556 -0.0443 -0.2219 -0.6637
   82SLPC  C216 7706   2.601   0.243   3.698 -0.6434  0.1140 -0.4077
   82SLPC  H16R 7707   2.529   0.165   3.664 -2.2580  1.4110 -0.0851
   82SLPC  H16S 7708   2.548   0.334   3.733  0.2511  0.2975  0.5303
   82SLPC  C217 7709   2.690   0.186   3.816 -0.3081  0.0196 -0.3182
   82SLPC  H17R 7710   2.719   0.085   3.779 -1.8484 -0.2893 -0.7483
   82SLPC  H17S 7711   2.626   0.159   3.902 -0.3610  0.2608 -0.2799
   82SLPC  C218 7712   2.799   0.272   3.862  0.1109 -0.6038  0.5535
   82SLPC  H18R 7713   2.866   0.222   3.935 -1.2025 -1.6757  1.0670
   82SLPC  H18S 7714   2.759   0.368   3.902  3.4842  0.1533  2.4992
   82SLPC  H18T 7715   2.871   0.303   3.783 -1.2061  1.6479  0.1515
   82SLPC   C33 7716   1.904   0.732   2.676 -0.2274 -0.0725  0.2820
   82SLPC   H3X 7717   1.988   0.670   2.713 -0.0853 -0.8698 -1.3178
   82SLPC   H3Y 7718   1.815   0.677   2.713  0.4930 -2.7774 -1.7202
   82SLPC   C34 7719   1.920   0.869   2.745  0.2687  0.0332 -0.2333
   82SLPC   H4X 7720   1.841   0.937   2.707 -0.0951 -0.7175 -0.8298
   82SLPC   H4Y 7721   2.017   0.912   2.712 -0.3912  1.3457 -0.5596
   82SLPC   C35 7722   1.900   0.846   2.899 -0.9383 -0.3028  0.1010
   82SLPC   H5X 7723   1.936   0.943   2.938  0.9540 -0.7207 -0.4823
   82SLPC   H5Y 7724   1.969   0.766   2.935 -0.6846  0.2242  0.8028
   82SLPC   C36 7725   1.759   0.818   2.946 -0.1203 -0.1371 -0.0125
   82SLPC   H6X 7726   1.743   0.716   2.905  1.4330 -0.9895  1.3825
   82SLPC   H6Y 7727   1.698   0.894   2.893  1.2118 -0.1367 -1.6192
   82SLPC   C37 7728   1.756   0.824   3.100  0.4438 -0.4786 -0.4551
   82SLPC   H7X 7729   1.649   0.808   3.125  0.4217  0.9003  0.4074
   82SLPC   H7Y 7730   1.786   0.925   3.136 -1.6375  0.4297 -1.1076
   82SLPC   C38 7731   1.840   0.715   3.166  0.4319  0.7140  0.5440
   82SLPC   H8X 7732   1.945   0.720   3.129  0.1595 -1.1470 -0.6526
   82SLPC   H8Y 7733   1.790   0.624   3.126 -1.3543  2.8060 -2.4382
   82SLPC   C39 7734   1.819   0.706   3.320 -0.0685 -0.1927 -0.4525
   82SLPC   H9X 7735   1.714   0.728   3.347  0.0364 -0.6488  0.3876
   82SLPC   H9Y 7736   1.884   0.787   3.359 -1.0378  0.4158 -0.0714
   82SLPC  C310 7737   1.847   0.567   3.372 -0.3285  0.8804  0.6227
   82SLPC  H10X 7738   1.956   0.549   3.364 -0.6716 -1.2799  0.1892
   82SLPC  H10Y 7739   1.789   0.492   3.312  0.8947  0.2629  0.1704
   82SLPC  C311 7740   1.804   0.555   3.522 -0.0461 -0.2266  0.5758
   82SLPC  H11X 7741   1.804   0.448   3.552  0.2919 -1.4459 -3.2712
   82SLPC  H11Y 7742   1.699   0.591   3.531 -0.4995 -1.0154 -1.0904
   82SLPC  C312 7743   1.882   0.646   3.613  0.0720 -0.0319  0.9285
   82SLPC  H12X 7744   1.867   0.754   3.594  3.7239  0.7020  1.3628
   82SLPC  H12Y 7745   1.992   0.645   3.597  0.1040  0.8860  1.0654
   82SLPC  C313 7746   1.852   0.616   3.757 -0.2012  0.3121 -0.6182
   82SLPC  H13X 7747   1.902   0.519   3.780 -2.1691 -0.3409  1.1356
   82SLPC  H13Y 7748   1.742   0.606   3.769  0.0946 -2.0387  0.6879
   82SLPC  C314 7749   1.900   0.722   3.856  0.4894 -0.5168  0.2896
   82SLPC  H14X 7750   1.839   0.812   3.834 -1.5354 -2.0094 -0.4705
   82SLPC  H14Y 7751   2.006   0.742   3.829  0.6010 -2.4503 -0.9080
   82SLPC  C315 7752   1.869   0.672   3.994  0.0398  0.4789 -0.7606
   82SLPC  H15X 7753   1.928   0.578   4.004 -2.2930 -1.0119 -0.1282
   82SLPC  H15Y 7754   1.759   0.661   4.009  0.2556 -0.6858  0.1235
   82SLPC  C316 7755   1.920   0.773   4.095 -0.2559 -0.0903 -0.1712
   82SLPC  H16X 7756   1.857   0.864   4.096 -0.3391 -0.1515  0.4206
   82SLPC  H16Y 7757   2.027   0.799   4.076  1.2746 -4.8661  0.5821
   82SLPC  C317 7758   1.929   0.720   4.241  0.0114 -0.2567  0.2320
   82SLPC  H17X 7759   1.908   0.803   4.312  0.3834  1.1876 -1.2759
   82SLPC  H17Y 7760   2.027   0.669   4.256 -0.1136 -0.6489 -0.2625
   82SLPC  C318 7761   1.828   0.604   4.264 -0.5337 -0.2526 -0.3185
   82SLPC  H18X 7762   1.872   0.513   4.218  2.1229 -0.6117  2.5792
   82SLPC  H18Y 7763   1.733   0.643   4.222  0.9486  1.4830 -2.2824
   82SLPC  H18Z 7764   1.811   0.585   4.372  1.6494  4.0179  0.9957
   83SLPC     N 7765   2.395   6.760   1.943 -0.7258 -0.1108  0.0677
   83SLPC   C13 7766   2.478   6.677   1.852 -0.3802  0.2214  0.2747
   83SLPC  H13A 7767   2.584   6.700   1.854  0.4740 -3.1846  0.6334
   83SLPC  H13B 7768   2.475   6.574   1.884  0.8860  0.4622  1.2518
   83SLPC  H13C 7769   2.458   6.703   1.749 -2.8765 -0.9154  0.4159
   83SLPC   C14 7770   2.255   6.728   1.922 -0.3104 -0.8788  0.7734
   83SLPC  H14A 7771   2.238   6.716   1.816  1.6477  2.5051 -0.0635
   83SLPC  H14B 7772   2.226   6.643   1.983 -2.7395  1.1983  2.7144
   83SLPC  H14C 7773   2.194   6.807   1.962  1.8786  1.2736  0.0841
   83SLPC   C15 7774   2.423   6.904   1.920  0.3169 -0.2386  0.4716
   83SLPC  H15A 7775   2.408   6.925   1.815  2.7633  4.8641  0.8409
   83SLPC  H15B 7776   2.364   6.971   1.982 -0.1804 -1.3950  1.3043
   83SLPC  H15C 7777   2.524   6.928   1.950  0.6315 -1.2899  0.2601
   83SLPC   C12 7778   2.430   6.730   2.088  0.7326 -0.2168 -0.3452
   83SLPC  H12A 7779   2.372   6.790   2.157 -0.6666 -0.6904 -1.0796
   83SLPC  H12B 7780   2.533   6.760   2.104  0.8145 -1.5469  2.2200
   83SLPC   C11 7781   2.429   6.586   2.145 -0.1309  0.1271  0.3736
   83SLPC  H11A 7782   2.327   6.540   2.148 -0.4497  0.6878 -0.8837
   83SLPC  H11B 7783   2.458   6.581   2.252 -0.2770 -0.6525  0.3847
   83SLPC     P 7784   2.674   6.510   2.092 -0.4812  0.1320 -0.1933
   83SLPC   O13 7785   2.747   6.429   1.991 -0.6191 -0.3911 -0.2133
   83SLPC   O14 7786   2.706   6.656   2.093  0.5996  0.4765  0.1035
   83SLPC   O12 7787   2.520   6.498   2.072  0.6052  0.7117  0.3617
   83SLPC   O11 7788   2.697   6.454   2.240  0.1525 -0.3210 -0.4669
   83SLPC    C1 7789   2.701   6.307   2.249  0.0089 -0.7206 -0.0062
   83SLPC    HA 7790   2.628   6.255   2.183  1.6727  0.3491 -2.8796
   83SLPC    HB 7791   2.801   6.269   2.219 -1.1843 -2.1588 -2.4725
   83SLPC    C2 7792   2.689   6.253   2.397  0.0478 -0.6032  0.0426
   83SLPC    HS 7793   2.675   6.143   2.386  1.8105 -0.6566 -2.4867
   83SLPC   O21 7794   2.582   6.314   2.484 -0.7333  0.0377 -0.5079
   83SLPC   C21 7795   2.464   6.286   2.450  0.2097 -0.2785 -0.5007
   83SLPC   O22 7796   2.432   6.222   2.351 -0.2047  0.0170 -0.5619
   83SLPC   C22 7797   2.374   6.350   2.549  0.0961  0.8036  0.4479
   83SLPC   H2R 7798   2.389   6.460   2.553 -1.6106  1.0068  2.1657
   83SLPC   H2S 7799   2.268   6.343   2.516  0.0087  0.9374  0.6984
   83SLPC    C3 7800   2.829   6.274   2.465  0.2052  0.0785  0.5738
   83SLPC    HX 7801   2.854   6.378   2.437 -2.7767  0.1953 -2.4075
   83SLPC    HY 7802   2.896   6.199   2.417 -0.3019  0.6527 -1.1201
   83SLPC   O31 7803   2.832   6.249   2.608  0.4455 -0.2230  0.1877
   83SLPC   C31 7804   2.785   6.350   2.688  1.0813  0.1515  0.3274
   83SLPC   O32 7805   2.738   6.454   2.647 -0.0789  0.2844  0.0354
   83SLPC   C32 7806   2.804   6.305   2.829  0.2174  0.1550  0.2427
   83SLPC   H2X 7807   2.882   6.226   2.821  0.1710  0.2643 -1.6931
   83SLPC   H2Y 7808   2.716   6.247   2.865  0.4871 -1.2220 -1.1965
   83SLPC   C23 7809   2.390   6.309   2.696 -0.7271 -0.2587  0.3394
   83SLPC   H3R 7810   2.499   6.310   2.715 -1.0230  0.6697  2.1666
   83SLPC   H3S 7811   2.356   6.210   2.730  1.1905 -0.2964  2.3541
   83SLPC   C24 7812   2.333   6.423   2.782 -0.5536  0.4370 -0.2707
   83SLPC   H4R 7813   2.227   6.432   2.749 -1.4188 -0.9820  1.8809
   83SLPC   H4S 7814   2.383   6.521   2.768  0.5079 -0.1856 -0.8938
   83SLPC   C25 7815   2.331   6.375   2.930 -0.1546 -0.0457  0.2241
   83SLPC   H5R 7816   2.437   6.349   2.951 -0.1735  0.2979  0.7597
   83SLPC   H5S 7817   2.278   6.278   2.922 -0.0975 -0.0240 -0.5400
   83SLPC   C26 7818   2.280   6.473   3.036  0.2221  0.4466  0.5567
   83SLPC   H6R 7819   2.184   6.517   3.001  0.0966  0.0945  0.4589
   83SLPC   H6S 7820   2.341   6.563   3.060 -0.2282  0.2561  2.5939
   83SLPC   C27 7821   2.255   6.395   3.172 -0.2492 -0.4573  0.1893
   83SLPC   H7R 7822   2.359   6.381   3.207 -0.2496  2.6191  1.6817
   83SLPC   H7S 7823   2.195   6.303   3.153  0.0331 -0.4384 -0.8596
   83SLPC   C28 7824   2.171   6.483   3.278 -0.3528 -0.2549 -0.2557
   83SLPC   H8R 7825   2.074   6.505   3.229 -0.8542 -2.6357 -0.4471
   83SLPC   H8S 7826   2.206   6.589   3.278  1.2221 -0.6242 -3.8198
   83SLPC   C29 7827   2.177   6.415   3.417 -0.5727  0.0078  0.2066
   83SLPC   H9R 7828   2.149   6.309   3.411  3.8971 -1.2974 -2.3632
   83SLPC  C210 7829   2.232   6.468   3.529  0.1575 -0.4660  0.5859
   83SLPC  H10R 7830   2.225   6.404   3.618 -1.7451 -0.2372  0.6537
   83SLPC  C211 7831   2.293   6.603   3.541 -0.2842  0.4473  0.3417
   83SLPC  H11R 7832   2.307   6.653   3.442 -1.4209  0.3982  0.1364
   83SLPC  H11S 7833   2.398   6.599   3.576  0.3180  1.2832 -1.2554
   83SLPC  C212 7834   2.198   6.692   3.623  0.2425 -0.9951 -0.5959
   83SLPC  H12R 7835   2.170   6.653   3.722  2.4412 -1.9461 -0.3132
   83SLPC  C213 7836   2.148   6.814   3.584 -0.2370 -0.1278 -0.7587
   83SLPC  H13R 7837   2.072   6.860   3.649 -0.6553 -1.3811 -0.3387
   83SLPC  C214 7838   2.178   6.890   3.460  0.4817 -0.4685  0.5115
   83SLPC  H14R 7839   2.131   6.853   3.366 -1.2740 -0.1318  1.2134
   83SLPC  H14S 7840   2.288   6.889   3.446  0.5067 -1.5661  0.6656
   83SLPC  C215 7841   2.141   7.040   3.468  0.4299 -0.7274 -0.3876
   83SLPC  H15R 7842   2.030   7.044   3.478  0.4896  0.3966 -0.0664
   83SLPC  H15S 7843   2.153   7.080   3.365 -3.0559  0.8382 -0.3153
   83SLPC  C216 7844   2.212   7.138   3.565 -0.6859  0.3153  0.1661
   83SLPC  H16R 7845   2.320   7.124   3.544 -0.8847 -2.0136  0.4131
   83SLPC  H16S 7846   2.187   7.101   3.667 -1.2273 -0.6898 -0.3193
   83SLPC  C217 7847   2.168   7.284   3.552 -0.3220  0.0398 -0.1484
   83SLPC  H17R 7848   2.057   7.283   3.540 -0.2580 -1.9517 -0.8249
   83SLPC  H17S 7849   2.234   7.318   3.470  1.1990 -1.1458  0.5387
   83SLPC  C218 7850   2.225   7.352   3.677  0.4731  0.0208  0.1510
   83SLPC  H18R 7851   2.182   7.313   3.772 -0.1053  0.3481  0.0316
   83SLPC  H18S 7852   2.199   7.460   3.677  3.5338  0.8556  0.9467
   83SLPC  H18T 7853   2.335   7.357   3.683  0.4634  0.6699 -0.0472
   83SLPC   C33 7854   2.844   6.418   2.935  0.1436  0.4691 -0.6721
   83SLPC   H3X 7855   2.903   6.495   2.880  0.0545  0.9681 -0.0817
   83SLPC   H3Y 7856   2.916   6.368   3.002 -0.1971  1.1720  0.2343
   83SLPC   C34 7857   2.735   6.495   3.009 -0.0426  0.5987 -0.0260
   83SLPC   H4X 7858   2.668   6.523   2.926 -1.1419 -0.0474  0.6273
   83SLPC   H4Y 7859   2.797   6.581   3.043  0.2173  0.6638 -0.6537
   83SLPC   C35 7860   2.672   6.427   3.131  0.3248  0.1628 -0.9970
   83SLPC   H5X 7861   2.624   6.333   3.098 -2.7204  1.2665 -0.1082
   83SLPC   H5Y 7862   2.585   6.482   3.172 -0.0221 -1.7027  0.9503
   83SLPC   C36 7863   2.767   6.421   3.245 -0.8959  0.1940  0.4514
   83SLPC   H6X 7864   2.811   6.520   3.271 -0.0495 -0.6572  2.5103
   83SLPC   H6Y 7865   2.850   6.353   3.215 -1.7575 -0.9272  0.5661
   83SLPC   C37 7866   2.707   6.353   3.367 -0.1941  0.5499  0.7330
   83SLPC   H7X 7867   2.669   6.254   3.334  3.5078 -0.7304 -0.1732
   83SLPC   H7Y 7868   2.630   6.418   3.413 -0.1815  2.6464 -1.9817
   83SLPC   C38 7869   2.815   6.317   3.474  0.5088 -0.0626 -0.1933
   83SLPC   H8X 7870   2.854   6.410   3.521 -1.4796  0.2062  1.0624
   83SLPC   H8Y 7871   2.900   6.262   3.430  0.7380 -1.4531  1.8195
   83SLPC   C39 7872   2.745   6.231   3.584 -0.2054 -0.4095 -0.5573
   83SLPC   H9X 7873   2.741   6.134   3.529  2.8217 -1.1911  0.4324
   83SLPC   H9Y 7874   2.642   6.273   3.587 -1.0283 -1.9482 -3.3641
   83SLPC  C310 7875   2.819   6.228   3.722  0.0293  0.4635  0.1355
   83SLPC  H10X 7876   2.820   6.329   3.771 -0.5902  1.4289 -1.7512
   83SLPC  H10Y 7877   2.926   6.203   3.711 -0.5803 -3.1817  1.1671
   83SLPC  C311 7878   2.758   6.130   3.815  0.1382  0.2621 -0.1238
   83SLPC  H11X 7879   2.760   6.025   3.780  0.7057  0.0298  0.5808
   83SLPC  H11Y 7880   2.648   6.141   3.823 -0.1394 -2.0679 -0.0327
   83SLPC  C312 7881   2.824   6.125   3.952 -0.8313  0.0996  0.0187
   83SLPC  H12X 7882   2.777   6.202   4.017 -1.0813 -0.0841  0.0545
   83SLPC  H12Y 7883   2.932   6.150   3.942 -0.4482 -1.8102 -1.0080
   83SLPC  C313 7884   2.826   5.980   4.014 -0.1280  0.6266 -0.1075
   83SLPC  H13X 7885   2.855   5.899   3.943  2.4765  0.3140  1.1723
   83SLPC  H13Y 7886   2.722   5.946   4.031 -0.4258  1.8092  0.5187
   83SLPC  C314 7887   2.932   5.961   4.126  0.7592  0.1282  0.2985
   83SLPC  H14X 7888   3.040   5.973   4.104  1.3158 -0.5110  2.4269
   83SLPC  H14Y 7889   2.935   5.854   4.154 -0.2647 -0.0845 -0.3380
   83SLPC  C315 7890   2.897   6.026   4.265 -0.3030  0.1207 -0.2832
   83SLPC  H15X 7891   2.920   6.134   4.272  3.8494 -0.5928 -0.3853
   83SLPC  H15Y 7892   2.961   5.983   4.345 -1.3736 -0.6761  0.1784
   83SLPC  C316 7893   2.747   6.003   4.297 -0.7066 -0.1095 -0.1645
   83SLPC  H16X 7894   2.726   5.894   4.294 -0.4996 -0.1775  0.7226
   83SLPC  H16Y 7895   2.681   6.057   4.225  0.2526  2.8241  1.0024
   83SLPC  C317 7896   2.700   6.067   4.433 -0.5088  0.4751 -0.7385
   83SLPC  H17X 7897   2.719   6.176   4.438  0.0459  0.3360  0.2915
   83SLPC  H17Y 7898   2.754   6.020   4.517  0.1397  0.1689 -1.3127
   83SLPC  C318 7899   2.546   6.053   4.465  0.7873  0.1540  0.4717
   83SLPC  H18X 7900   2.486   6.090   4.379 -1.1695  2.7860  2.7987
   83SLPC  H18Y 7901   2.517   6.111   4.555 -0.3495 -0.0160  0.2379
   83SLPC  H18Z 7902   2.516   5.946   4.470  0.0872  0.2730 -0.8071
   84SLPC     N 7903   2.736   4.059   2.339 -0.0985 -0.4860  0.5556
   84SLPC   C13 7904   2.777   4.205   2.347 -0.1122 -0.3887 -0.8632
   84SLPC  H13A 7905   2.879   4.222   2.378 -0.6152  1.1630  0.0583
   84SLPC  H13B 7906   2.769   4.248   2.248  0.8431  0.0071 -0.7820
   84SLPC  H13C 7907   2.721   4.252   2.426  3.6009 -1.0299  2.4867
   84SLPC   C14 7908   2.808   3.999   2.220 -0.2075  0.3024 -0.5734
   84SLPC  H14A 7909   2.795   4.052   2.126 -1.7426 -0.8949 -1.0846
   84SLPC  H14B 7910   2.914   3.984   2.236 -0.1050  0.9237 -0.6402
   84SLPC  H14C 7911   2.776   3.898   2.196  2.2120 -0.8888  0.8079
   84SLPC   C15 7912   2.588   4.056   2.321  0.4811  0.3778 -0.5016
   84SLPC  H15A 7913   2.538   4.105   2.239 -1.1946 -1.5222 -0.6807
   84SLPC  H15B 7914   2.559   3.953   2.306  0.0737  0.3505  0.4185
   84SLPC  H15C 7915   2.546   4.091   2.413 -0.0881 -2.2198  0.3116
   84SLPC   C12 7916   2.775   3.980   2.462 -0.1636 -0.0554  0.6206
   84SLPC  H12A 7917   2.882   3.986   2.475 -0.1234  1.3628 -0.1975
   84SLPC  H12B 7918   2.762   3.877   2.431  1.4376  0.3976 -1.8159
   84SLPC   C11 7919   2.707   4.000   2.591 -0.4688  0.4290  0.7189
   84SLPC  H11A 7920   2.688   4.109   2.603  0.2013  0.7063 -0.6025
   84SLPC  H11B 7921   2.762   3.970   2.683  0.5312  1.5982  0.5250
   84SLPC     P 7922   2.577   3.788   2.612 -0.0762  0.3328  0.4627
   84SLPC   O13 7923   2.436   3.751   2.639 -0.5056  0.4056  0.4733
   84SLPC   O14 7924   2.643   3.721   2.503  0.0334 -0.1072  0.0954
   84SLPC   O12 7925   2.581   3.940   2.595  0.1572  0.5266 -0.6707
   84SLPC   O11 7926   2.660   3.767   2.748  0.4740 -0.3792 -0.2665
   84SLPC    C1 7927   2.795   3.709   2.741  0.9745  0.6849 -0.1954
   84SLPC    HA 7928   2.790   3.603   2.709  0.9277  0.7479 -0.3952
   84SLPC    HB 7929   2.854   3.762   2.664 -1.1861  0.4780 -2.0816
   84SLPC    C2 7930   2.867   3.713   2.880  0.1530 -0.1318  0.5847
   84SLPC    HS 7931   2.795   3.668   2.952  0.2998 -0.4664  0.5228
   84SLPC   O21 7932   2.892   3.855   2.904 -0.1834 -0.1199 -0.4307
   84SLPC   C21 7933   2.789   3.925   2.951  0.4163 -0.2804  0.0307
   84SLPC   O22 7934   2.690   3.874   3.005  0.2620  0.0585  0.7660
   84SLPC   C22 7935   2.818   4.077   2.946  0.3494  0.6012 -1.2485
   84SLPC   H2R 7936   2.927   4.094   2.935  1.1841 -4.5117 -4.1958
   84SLPC   H2S 7937   2.757   4.126   2.868  0.5562  2.6836 -0.1656
   84SLPC    C3 7938   2.992   3.630   2.881 -0.0306  0.5654  0.3924
   84SLPC    HX 7939   3.032   3.618   2.984 -0.9119 -2.2701  0.4881
   84SLPC    HY 7940   3.060   3.683   2.811  1.4130 -0.0498  1.2973
   84SLPC   O31 7941   2.967   3.496   2.833  0.2877  0.0038  0.3168
   84SLPC   C31 7942   3.070   3.416   2.817 -0.3336 -0.1560 -0.0737
   84SLPC   O32 7943   3.189   3.457   2.832  0.7347 -0.4232 -0.6177
   84SLPC   C32 7944   3.023   3.286   2.770 -0.2046  0.1534 -0.3575
   84SLPC   H2X 7945   3.051   3.269   2.664 -0.5128 -0.4623 -0.3468
   84SLPC   H2Y 7946   2.913   3.272   2.763 -0.3711  1.0157  0.4441
   84SLPC   C23 7947   2.771   4.143   3.080 -0.6620  0.0672  0.3016
   84SLPC   H3R 7948   2.663   4.125   3.100 -0.4983 -1.9797 -0.4322
   84SLPC   H3S 7949   2.784   4.254   3.078  3.0391 -0.2523  0.4188
   84SLPC   C24 7950   2.862   4.101   3.205  0.1310  0.4902 -0.3207
   84SLPC   H4R 7951   2.971   4.106   3.186  0.3583  2.8677  1.1530
   84SLPC   H4S 7952   2.844   3.994   3.227  0.5208  0.9458  2.7283
   84SLPC   C25 7953   2.842   4.178   3.336  0.9892 -0.6874 -0.5785
   84SLPC   H5R 7954   2.737   4.206   3.358  1.2598 -0.3336  0.2974
   84SLPC   H5S 7955   2.894   4.277   3.330 -3.5724  2.0839  0.7409
   84SLPC   C26 7956   2.894   4.097   3.451  0.5288  0.0309 -0.0237
   84SLPC   H6R 7957   3.001   4.074   3.432  0.8452  0.5813  1.0394
   84SLPC   H6S 7958   2.838   4.001   3.453 -0.3916  0.5549 -0.0009
   84SLPC   C27 7959   2.885   4.170   3.586  0.1512  0.6547 -0.0107
   84SLPC   H7R 7960   2.780   4.200   3.609 -0.2187 -2.1753  2.7563
   84SLPC   H7S 7961   2.950   4.259   3.588  0.5329  0.5788  5.1308
   84SLPC   C28 7962   2.944   4.076   3.698  0.1958 -0.5021  0.5695
   84SLPC   H8R 7963   3.029   4.021   3.651 -1.1778 -1.7945 -0.5011
   84SLPC   H8S 7964   2.877   3.992   3.723  2.0084 -1.8173  1.2726
   84SLPC   C29 7965   2.986   4.151   3.820 -0.2370 -0.8856  0.3387
   84SLPC   H9R 7966   3.083   4.201   3.807 -0.6692  0.6411  2.4404
   84SLPC  C210 7967   2.927   4.167   3.938 -0.1281 -0.8611  0.7550
   84SLPC  H10R 7968   2.976   4.231   4.012 -0.5990  0.3241  0.0784
   84SLPC  C211 7969   2.796   4.100   3.975 -0.1322  0.1672 -0.4374
   84SLPC  H11R 7970   2.816   4.022   4.052  0.3370 -0.4583 -1.1731
   84SLPC  H11S 7971   2.737   4.039   3.903 -2.0042 -2.0301  2.6644
   84SLPC  C212 7972   2.690   4.201   4.020 -0.1391 -0.1013 -0.0152
   84SLPC  H12R 7973   2.641   4.265   3.945 -0.3032 -0.0562  0.1293
   84SLPC  C213 7974   2.660   4.227   4.147  0.8668  0.0991  0.2362
   84SLPC  H13R 7975   2.563   4.275   4.162  0.7721  0.0857 -0.3124
   84SLPC  C214 7976   2.708   4.152   4.269  0.1960  0.4132 -0.0586
   84SLPC  H14R 7977   2.769   4.224   4.327  2.2261 -1.8128  0.6974
   84SLPC  H14S 7978   2.771   4.061   4.259  0.8122  0.9238 -0.9012
   84SLPC  C215 7979   2.586   4.111   4.340  0.7381 -0.0752 -0.3442
   84SLPC  H15R 7980   2.515   4.066   4.268  0.3894  1.8525 -1.2367
   84SLPC  H15S 7981   2.541   4.197   4.394  1.4888 -0.5304  1.0950
   84SLPC  C216 7982   2.612   4.015   4.458  0.2676  0.1233 -1.3777
   84SLPC  H16R 7983   2.698   4.041   4.523  0.2459 -2.5472 -0.1285
   84SLPC  H16S 7984   2.630   3.919   4.405  0.8788 -1.2339  1.1593
   84SLPC  C217 7985   2.486   3.990   4.551  0.3003 -0.2967  0.2427
   84SLPC  H17R 7986   2.403   3.944   4.492  0.1216  0.6127 -0.2382
   84SLPC  H17S 7987   2.458   4.084   4.604  0.6359  0.4145 -0.8089
   84SLPC  C218 7988   2.522   3.879   4.657  0.2346 -0.0657 -0.4057
   84SLPC  H18R 7989   2.573   3.787   4.622  2.6249  0.0753  2.2971
   84SLPC  H18S 7990   2.432   3.844   4.712 -0.3471  0.5698 -0.9330
   84SLPC  H18T 7991   2.593   3.918   4.733  0.3632 -3.6196  1.4836
   84SLPC   C33 7992   3.078   3.177   2.863 -0.1870  0.0966 -0.5442
   84SLPC   H3X 7993   3.189   3.168   2.858 -0.2050 -1.5766  0.9548
   84SLPC   H3Y 7994   3.052   3.076   2.823  0.5987 -0.4027  0.1631
   84SLPC   C34 7995   3.036   3.189   3.014 -0.2728 -0.8700  0.4097
   84SLPC   H4X 7996   2.926   3.204   3.018 -0.2925 -1.0084  0.3903
   84SLPC   H4Y 7997   3.085   3.275   3.063  0.5032 -0.9194 -0.2676
   84SLPC   C35 7998   3.090   3.070   3.100 -0.0702 -0.6599  0.3326
   84SLPC   H5X 7999   3.192   3.048   3.063 -1.6184 -1.4853 -4.0095
   84SLPC   H5Y 8000   3.029   2.981   3.073  0.9944 -1.2000 -0.3281
   84SLPC   C36 8001   3.072   3.084   3.249 -0.1124 -0.6443 -0.3665
   84SLPC   H6X 8002   2.967   3.109   3.273 -0.0962 -0.6414 -0.2971
   84SLPC   H6Y 8003   3.117   3.179   3.283 -0.1002 -1.0422  0.8012
   84SLPC   C37 8004   3.152   2.978   3.323  0.1088 -0.3204 -1.6370
   84SLPC   H7X 8005   3.261   2.969   3.304  0.4356  1.7515 -1.0345
   84SLPC   H7Y 8006   3.112   2.881   3.287  1.0492 -1.0470 -0.7938
   84SLPC   C38 8007   3.113   2.986   3.466 -0.2019  0.1956 -0.7240
   84SLPC   H8X 8008   3.133   2.884   3.506 -0.7599  0.2141 -0.3967
   84SLPC   H8Y 8009   3.009   3.014   3.491  0.5236  0.8878  1.7743
   84SLPC   C39 8010   3.204   3.083   3.542 -0.1370 -0.8000 -0.2602
   84SLPC   H9X 8011   3.174   3.188   3.522 -1.7488 -0.7272  2.0872
   84SLPC   H9Y 8012   3.310   3.081   3.510  0.0514  1.4513  0.0337
   84SLPC  C310 8013   3.200   3.088   3.696 -0.0969 -0.0274 -0.5476
   84SLPC  H10X 8014   3.292   3.138   3.734 -0.8938  1.9043 -1.0238
   84SLPC  H10Y 8015   3.193   2.980   3.721  0.7222 -0.5378 -2.3383
   84SLPC  C311 8016   3.079   3.173   3.750 -0.3273  0.6683  0.1154
   84SLPC  H11X 8017   2.984   3.129   3.714  0.0387 -1.5076  1.5786
   84SLPC  H11Y 8018   3.080   3.278   3.715 -1.6949  0.4631 -0.6128
   84SLPC  C312 8019   3.057   3.184   3.908 -0.0567  0.4831 -0.4677
   84SLPC  H12X 8020   2.992   3.270   3.933  2.5920  1.9194  2.1802
   84SLPC  H12Y 8021   3.154   3.216   3.951 -0.0170 -0.0333 -0.1645
   84SLPC  C313 8022   3.003   3.053   3.974  0.1723 -0.0203  0.2256
   84SLPC  H13X 8023   3.069   2.972   3.936  0.4186  0.2777  0.0103
   84SLPC  H13Y 8024   2.895   3.052   3.949  0.0729  2.7686  0.2232
   84SLPC  C314 8025   3.021   3.040   4.129  0.0571  0.5895  0.8976
   84SLPC  H14X 8026   3.131   3.038   4.144  0.5477  1.0863 -2.0631
   84SLPC  H14Y 8027   2.974   2.943   4.155  0.9287 -0.6001 -1.5989
   84SLPC  C315 8028   2.960   3.152   4.199 -0.0514  0.0417 -0.0643
   84SLPC  H15X 8029   2.853   3.152   4.168  0.7524 -0.5825 -3.1850
   84SLPC  H15Y 8030   3.009   3.248   4.172  2.0870 -0.9588  0.0538
   84SLPC  C316 8031   2.963   3.145   4.353 -0.7585  0.2801  0.0997
   84SLPC  H16X 8032   3.068   3.161   4.386 -1.3504  1.4799  1.4552
   84SLPC  H16Y 8033   2.928   3.050   4.399  2.9420 -2.4935 -2.1709
   84SLPC  C317 8034   2.884   3.267   4.403 -0.1923 -0.3134  0.6897
   84SLPC  H17X 8035   2.778   3.254   4.372  0.3688  1.0293 -2.0652
   84SLPC  H17Y 8036   2.914   3.359   4.350 -0.1163 -0.3678  0.6378
   84SLPC  C318 8037   2.902   3.290   4.552 -0.1473 -0.1851  0.1827
   84SLPC  H18X 8038   2.998   3.341   4.574 -1.1371  0.0633  5.1093
   84SLPC  H18Y 8039   2.895   3.196   4.610  0.5791 -0.8678 -0.8048
   84SLPC  H18Z 8040   2.811   3.343   4.589 -1.0296 -0.9514 -0.8371
   85SLPC     N 8041   5.425   6.065   2.177 -0.3038  0.3082  0.1758
   85SLPC   C13 8042   5.459   6.193   2.105  0.5597  0.1600  0.2172
   85SLPC  H13A 8043   5.557   6.219   2.142  0.6330 -0.8838  0.8049
   85SLPC  H13B 8044   5.467   6.187   1.998 -1.2631  3.3432 -0.2291
   85SLPC  H13C 8045   5.390   6.271   2.133  0.6109  0.9512 -1.7309
   85SLPC   C14 8046   5.527   5.958   2.137  0.4557  0.6422  0.4949
   85SLPC  H14A 8047   5.504   5.869   2.193  0.9014 -0.3096 -0.8006
   85SLPC  H14B 8048   5.505   5.936   2.033  1.4195  2.5408 -0.1722
   85SLPC  H14C 8049   5.628   5.994   2.148  0.2127  0.9954  1.6994
   85SLPC   C15 8050   5.292   6.009   2.141 -0.2393  0.4181  0.1645
   85SLPC  H15A 8051   5.279   5.919   2.201  3.1168  0.3461  0.9833
   85SLPC  H15B 8052   5.216   6.085   2.156 -0.8893 -0.6894  3.3082
   85SLPC  H15C 8053   5.301   5.979   2.038  1.5545  1.5706 -0.0472
   85SLPC   C12 8054   5.429   6.089   2.324  0.3446  0.1397 -0.2524
   85SLPC  H12A 8055   5.341   6.145   2.350  0.1155  0.9560 -2.5252
   85SLPC  H12B 8056   5.513   6.152   2.349 -0.6846  0.9217  1.4387
   85SLPC   C11 8057   5.440   5.974   2.425  0.3003  0.1475 -0.4315
   85SLPC  H11A 8058   5.369   5.893   2.398 -0.2609 -0.0192  1.3712
   85SLPC  H11B 8059   5.400   6.014   2.521  0.1146  0.1896 -0.5271
   85SLPC     P 8060   5.628   5.787   2.427 -0.5002  0.3102  0.3646
   85SLPC   O13 8061   5.560   5.716   2.317  0.0223  0.1456 -0.5277
   85SLPC   O14 8062   5.776   5.798   2.415 -0.1774  0.2832 -0.4157
   85SLPC   O12 8063   5.576   5.932   2.450  1.1928  0.7341  0.1799
   85SLPC   O11 8064   5.592   5.721   2.567 -0.2858  0.6676  0.4437
   85SLPC    C1 8065   5.659   5.752   2.689 -0.7434  0.8867 -0.0701
   85SLPC    HA 8066   5.659   5.660   2.752  0.7325  0.3919 -0.7338
   85SLPC    HB 8067   5.763   5.789   2.676  0.2590 -1.9054 -0.6456
   85SLPC    C2 8068   5.591   5.862   2.769 -0.3180 -0.1840 -0.1461
   85SLPC    HS 8069   5.595   5.959   2.714 -0.0998 -0.3111 -0.3561
   85SLPC   O21 8070   5.661   5.868   2.887 -0.3790  0.2523  0.0075
   85SLPC   C21 8071   5.697   5.986   2.939 -0.0602  0.0572  0.1157
   85SLPC   O22 8072   5.664   6.099   2.896  0.5790 -0.3179  0.0734
   85SLPC   C22 8073   5.785   5.967   3.066 -0.0316  0.1840  0.2331
   85SLPC   H2R 8074   5.831   5.866   3.059  0.8208  0.6760 -3.2258
   85SLPC   H2S 8075   5.867   6.041   3.062 -1.2768  1.6904  1.4076
   85SLPC    C3 8076   5.445   5.824   2.805 -0.3951  0.1993 -0.1462
   85SLPC    HX 8077   5.453   5.721   2.846  2.5169  0.6054  0.5100
   85SLPC    HY 8078   5.389   5.828   2.709  1.7928  0.6277 -1.4866
   85SLPC   O31 8079   5.380   5.911   2.911  0.1498 -0.6586 -0.3627
   85SLPC   C31 8080   5.344   6.033   2.880 -0.4272 -0.2470 -0.4479
   85SLPC   O32 8081   5.351   6.097   2.777  0.4591 -0.0602  0.7843
   85SLPC   C32 8082   5.301   6.106   3.011  0.0370 -0.3546 -0.2165
   85SLPC   H2X 8083   5.318   6.033   3.092  3.7860  0.8225  0.2543
   85SLPC   H2Y 8084   5.198   6.145   2.996  0.7446  1.5677 -0.4077
   85SLPC   C23 8085   5.713   5.993   3.202  0.2415 -0.3769 -0.0803
   85SLPC   H3R 8086   5.612   5.946   3.201  0.1335 -0.2224  1.2479
   85SLPC   H3S 8087   5.699   6.103   3.210 -3.2972 -0.7987  1.7218
   85SLPC   C24 8088   5.792   5.933   3.307 -0.5669  0.0442  0.6486
   85SLPC   H4R 8089   5.886   5.992   3.318 -1.3350  0.9931  2.6657
   85SLPC   H4S 8090   5.805   5.826   3.279 -1.6204 -0.6077  2.4728
   85SLPC   C25 8091   5.708   5.927   3.431 -0.0094 -0.5902 -0.2123
   85SLPC   H5R 8092   5.698   6.028   3.476 -2.1015 -0.6737 -0.3668
   85SLPC   H5S 8093   5.603   5.902   3.402  0.1048  1.0843 -2.4141
   85SLPC   C26 8094   5.756   5.838   3.545  0.0526 -0.1751  0.7149
   85SLPC   H6R 8095   5.866   5.846   3.560  0.2697 -2.3504  0.5790
   85SLPC   H6S 8096   5.737   5.729   3.536  2.1292 -0.5740  0.6425
   85SLPC   C27 8097   5.680   5.869   3.673  0.7171 -0.0230  0.1260
   85SLPC   H7R 8098   5.571   5.851   3.666  0.5554 -0.2314  2.4504
   85SLPC   H7S 8099   5.693   5.977   3.700 -1.4828  0.7522 -1.6877
   85SLPC   C28 8100   5.746   5.803   3.797  0.1589  0.0318  0.2247
   85SLPC   H8R 8101   5.744   5.870   3.886  2.0753  0.1408  0.2332
   85SLPC   H8S 8102   5.853   5.787   3.774 -0.4586 -4.6954 -0.2637
   85SLPC   C29 8103   5.673   5.676   3.833  0.6692  1.0778  0.0464
   85SLPC   H9R 8104   5.582   5.688   3.892 -0.6811 -0.2449 -1.6427
   85SLPC  C210 8105   5.710   5.547   3.807 -0.6172 -0.1778 -0.4143
   85SLPC  H10R 8106   5.649   5.461   3.838  0.6035 -0.1330  2.3818
   85SLPC  C211 8107   5.826   5.510   3.720 -0.3987  0.2925  0.3610
   85SLPC  H11R 8108   5.913   5.553   3.774  0.5515  0.2035 -1.0213
   85SLPC  H11S 8109   5.811   5.554   3.619 -2.1273 -1.8672 -0.4087
   85SLPC  C212 8110   5.862   5.367   3.705  0.5267 -0.3471 -0.1230
   85SLPC  H12R 8111   5.952   5.346   3.763 -0.8451 -1.6149  1.6710
   85SLPC  C213 8112   5.798   5.266   3.650 -0.2453  0.0765 -0.5453
   85SLPC  H13R 8113   5.842   5.165   3.650 -0.7907 -0.2516  2.3827
   85SLPC  C214 8114   5.664   5.275   3.588 -0.4730  1.2242  0.4237
   85SLPC  H14R 8115   5.669   5.229   3.487 -1.3655  2.4928 -0.2418
   85SLPC  H14S 8116   5.626   5.380   3.583  0.9039  1.7825  1.0859
   85SLPC  C215 8117   5.563   5.187   3.673 -0.0871  0.1994  0.1318
   85SLPC  H15R 8118   5.566   5.213   3.781  0.6073  0.6807  0.0026
   85SLPC  H15S 8119   5.590   5.080   3.661 -0.0288  0.3282 -0.9851
   85SLPC  C216 8120   5.417   5.204   3.626 -0.2555 -0.9052  0.3984
   85SLPC  H16R 8121   5.420   5.185   3.516 -0.8194  1.1966 -0.0323
   85SLPC  H16S 8122   5.393   5.310   3.649 -0.3773 -1.2138  1.7516
   85SLPC  C217 8123   5.327   5.107   3.700  0.0156 -0.2763  0.3753
   85SLPC  H17R 8124   5.317   5.133   3.808 -2.0745  1.1310 -0.0900
   85SLPC  H17S 8125   5.370   5.006   3.685 -1.6417 -0.7663 -1.5164
   85SLPC  C218 8126   5.186   5.107   3.631 -0.8481  0.2247  0.1839
   85SLPC  H18R 8127   5.136   5.206   3.641  0.0100  0.6367  0.4689
   85SLPC  H18S 8128   5.124   5.021   3.667 -0.1494 -0.7915 -0.9580
   85SLPC  H18T 8129   5.215   5.089   3.525 -0.5407  0.2284  0.2680
   85SLPC   C33 8130   5.384   6.228   3.065  0.6334 -0.0926  0.2316
   85SLPC   H3X 8131   5.396   6.311   2.992 -1.8539 -0.6134 -0.9035
   85SLPC   H3Y 8132   5.492   6.208   3.076  0.3523 -1.1445  1.2491
   85SLPC   C34 8133   5.336   6.290   3.198 -0.7533  0.0305 -0.3459
   85SLPC   H4X 8134   5.226   6.310   3.197 -0.9620 -0.9662 -2.0026
   85SLPC   H4Y 8135   5.377   6.393   3.193 -1.3549  0.2536 -0.8401
   85SLPC   C35 8136   5.388   6.208   3.311  0.3793 -0.4812  0.1370
   85SLPC   H5X 8137   5.497   6.188   3.304  0.2515 -0.7324 -1.6303
   85SLPC   H5Y 8138   5.332   6.112   3.309  0.8194 -0.7360 -0.0684
   85SLPC   C36 8139   5.369   6.288   3.438 -0.1707 -0.4202 -0.0763
   85SLPC   H6X 8140   5.260   6.280   3.458  0.1315 -0.1883  1.8657
   85SLPC   H6Y 8141   5.405   6.391   3.419  2.1773 -1.1985 -0.1798
   85SLPC   C37 8142   5.427   6.228   3.568  0.4740  0.1784  0.4138
   85SLPC   H7X 8143   5.469   6.314   3.624  0.1402  1.3134 -1.0321
   85SLPC   H7Y 8144   5.500   6.149   3.538 -0.3913 -0.2989 -0.5152
   85SLPC   C38 8145   5.320   6.160   3.656 -0.2008 -0.5303 -0.0134
   85SLPC   H8X 8146   5.279   6.065   3.615  1.5802 -0.3796 -2.3210
   85SLPC   H8Y 8147   5.235   6.228   3.676 -1.3014 -0.9370 -2.8598
   85SLPC   C39 8148   5.384   6.123   3.793 -0.3024 -0.2288  0.0703
   85SLPC   H9X 8149   5.422   6.221   3.830 -0.7945  0.0505 -0.1514
   85SLPC   H9Y 8150   5.469   6.054   3.776  0.5284  0.4296  1.3474
   85SLPC  C310 8151   5.281   6.065   3.896 -0.2027  0.2904  0.6085
   85SLPC  H10X 8152   5.235   5.973   3.852 -1.6894  1.5285 -0.5371
   85SLPC  H10Y 8153   5.211   6.150   3.911  1.3609  1.7496 -0.0630
   85SLPC  C311 8154   5.350   6.022   4.028  0.4915 -0.8170  0.6172
   85SLPC  H11X 8155   5.380   6.105   4.095 -1.2558 -1.0151  1.7204
   85SLPC  H11Y 8156   5.443   5.966   4.004  1.2816  1.7261 -3.1752
   85SLPC  C312 8157   5.254   5.923   4.101  0.1683 -0.1647  0.3241
   85SLPC  H12X 8158   5.219   5.845   4.030  1.1107  1.8614 -2.5374
   85SLPC  H12Y 8159   5.164   5.980   4.133 -0.6098 -0.7464 -0.7582
   85SLPC  C313 8160   5.328   5.859   4.219 -0.2160  0.7075  0.2238
   85SLPC  H13X 8161   5.258   5.807   4.288  1.2059  0.2371  1.3748
   85SLPC  H13Y 8162   5.365   5.936   4.291  1.8808  0.0763 -0.1033
   85SLPC  C314 8163   5.446   5.769   4.190  0.1248 -0.2498 -0.6803
   85SLPC  H14X 8164   5.492   5.740   4.287 -0.5647 -0.7953 -0.5072
   85SLPC  H14Y 8165   5.521   5.827   4.133 -1.1184  3.2861  0.9986
   85SLPC  C315 8166   5.394   5.645   4.117  0.5372  0.0877  0.2152
   85SLPC  H15X 8167   5.379   5.671   4.010  2.7370 -0.7121 -0.3515
   85SLPC  H15Y 8168   5.301   5.611   4.167 -0.3800 -1.1009 -2.1775
   85SLPC  C316 8169   5.504   5.539   4.134 -0.2308 -0.8674 -0.3705
   85SLPC  H16X 8170   5.532   5.515   4.239 -0.7780  0.7373  0.1756
   85SLPC  H16Y 8171   5.598   5.579   4.092 -0.5315 -0.1296 -0.3720
   85SLPC  C317 8172   5.470   5.398   4.078 -0.4900 -0.0272 -0.1661
   85SLPC  H17X 8173   5.462   5.404   3.967 -1.8979 -1.0321 -0.1531
   85SLPC  H17Y 8174   5.371   5.370   4.120  0.1730  0.5187  1.8237
   85SLPC  C318 8175   5.578   5.302   4.129  0.1054 -0.5983  0.4693
   85SLPC  H18X 8176   5.679   5.340   4.104 -0.2785 -0.8817 -1.6763
   85SLPC  H18Y 8177   5.564   5.194   4.106  0.9504 -1.0044  1.7403
   85SLPC  H18Z 8178   5.574   5.302   4.240 -0.8663  0.3141  0.4534
   86SLPC     N 8179   6.848   2.496   1.659  0.0101  0.0240  0.1737
   86SLPC   C13 8180   6.919   2.433   1.543  0.5820  0.2721 -0.4053
   86SLPC  H13A 8181   6.889   2.329   1.531  0.4190 -0.1446  2.7468
   86SLPC  H13B 8182   6.895   2.483   1.450 -2.9593 -1.8515 -0.8423
   86SLPC  H13C 8183   7.024   2.434   1.565  0.0090 -0.2294  2.9725
   86SLPC   C14 8184   6.698   2.495   1.630 -0.0063 -0.3380  0.4207
   86SLPC  H14A 8185   6.636   2.536   1.708 -0.1598  0.2181  0.0100
   86SLPC  H14B 8186   6.681   2.552   1.540  3.3735  0.3176  0.0440
   86SLPC  H14C 8187   6.668   2.394   1.605  2.3595 -0.7618 -1.1002
   86SLPC   C15 8188   6.905   2.639   1.681  0.3915  0.4436  0.1362
   86SLPC  H15A 8189   6.868   2.675   1.776  1.0859  0.9011  0.2332
   86SLPC  H15B 8190   7.012   2.641   1.669  0.3262 -0.2672 -0.6734
   86SLPC  H15C 8191   6.857   2.701   1.607  2.4613  0.6744 -1.0853
   86SLPC   C12 8192   6.873   2.414   1.793  0.2651 -0.3959  0.0111
   86SLPC  H12A 8193   6.979   2.402   1.814  0.8805 -0.3483 -2.6572
   86SLPC  H12B 8194   6.844   2.311   1.775  1.2005 -0.8190  0.7744
   86SLPC   C11 8195   6.814   2.465   1.925  0.0335  0.1300  0.0354
   86SLPC  H11A 8196   6.845   2.381   1.991  1.6549 -0.6484 -1.6100
   86SLPC  H11B 8197   6.703   2.462   1.927  0.0252 -1.4323 -1.0419
   86SLPC     P 8198   6.997   2.624   2.030 -0.1720 -0.3217 -0.0091
   86SLPC   O13 8199   7.107   2.590   1.940 -0.2339 -0.0827 -0.1727
   86SLPC   O14 8200   6.998   2.759   2.096  0.4921 -0.3618  0.5214
   86SLPC   O12 8201   6.860   2.596   1.967 -0.3404 -0.5239  0.9854
   86SLPC   O11 8202   7.003   2.521   2.153 -0.7227 -0.5371  0.1484
   86SLPC    C1 8203   6.908   2.520   2.259  0.4472 -0.5218  0.0636
   86SLPC    HA 8204   6.821   2.582   2.229  1.1199  0.0515 -0.7430
   86SLPC    HB 8205   6.868   2.417   2.258  0.9635 -0.7186 -1.2014
   86SLPC    C2 8206   6.970   2.560   2.392  0.4192 -0.0441  0.3134
   86SLPC    HS 8207   7.053   2.496   2.430 -0.6518 -0.2286  2.4660
   86SLPC   O21 8208   6.862   2.571   2.479  0.0928 -0.0671 -0.0419
   86SLPC   C21 8209   6.817   2.453   2.529  0.4319 -0.3154  0.3123
   86SLPC   O22 8210   6.860   2.346   2.505  0.2168  0.5115 -0.2001
   86SLPC   C22 8211   6.705   2.488   2.622 -0.0513  0.5954  0.0887
   86SLPC   H2R 8212   6.633   2.550   2.565  0.3275  1.0680  0.1162
   86SLPC   H2S 8213   6.643   2.402   2.654 -3.7943  2.9478 -0.1763
   86SLPC    C3 8214   7.030   2.699   2.390  0.1532 -0.5756 -0.1382
   86SLPC    HX 8215   6.961   2.780   2.356  1.3706  0.1476 -0.9712
   86SLPC    HY 8216   7.119   2.689   2.325  0.1942 -2.1606  0.1137
   86SLPC   O31 8217   7.081   2.740   2.523  0.1502 -0.3848 -0.2527
   86SLPC   C31 8218   7.003   2.804   2.606  0.5596 -0.3162 -0.4000
   86SLPC   O32 8219   6.889   2.842   2.582 -0.1821 -0.4137  0.1621
   86SLPC   C32 8220   7.081   2.843   2.734 -0.0879  0.5496  0.1030
   86SLPC   H2X 8221   7.154   2.920   2.699  2.2726 -1.0879  1.1560
   86SLPC   H2Y 8222   7.143   2.757   2.766  0.2502  1.2281  1.3042
   86SLPC   C23 8223   6.761   2.548   2.754  0.5406  0.0537 -0.1412
   86SLPC   H3R 8224   6.679   2.612   2.793  0.3635 -0.0587 -0.3213
   86SLPC   H3S 8225   6.854   2.607   2.743  0.9655 -0.4699  0.5434
   86SLPC   C24 8226   6.785   2.435   2.861 -0.1842 -0.3841 -0.8284
   86SLPC   H4R 8227   6.868   2.373   2.821  2.6916  1.6694  1.4713
   86SLPC   H4S 8228   6.687   2.390   2.888  0.0312  0.2657  1.2266
   86SLPC   C25 8229   6.855   2.495   2.986  0.5325 -0.3391  0.4742
   86SLPC   H5R 8230   6.958   2.515   2.949  0.8017 -2.8790 -0.3573
   86SLPC   H5S 8231   6.862   2.421   3.069 -2.0552  0.1016  1.1567
   86SLPC   C26 8232   6.784   2.623   3.045 -0.3044 -0.0966 -0.9682
   86SLPC   H6R 8233   6.676   2.597   3.050  0.0496 -1.4698  0.3459
   86SLPC   H6S 8234   6.786   2.702   2.967 -0.9686 -0.6258 -1.5384
   86SLPC   C27 8235   6.848   2.670   3.176 -0.3173  0.4346  0.4622
   86SLPC   H7R 8236   6.958   2.683   3.169  0.1354 -2.7594  0.0152
   86SLPC   H7S 8237   6.837   2.597   3.260  2.5995  0.5271  1.0210
   86SLPC   C28 8238   6.786   2.805   3.222  0.1248 -0.4955  0.6620
   86SLPC   H8R 8239   6.687   2.775   3.262 -1.3079  0.5263 -1.8771
   86SLPC   H8S 8240   6.780   2.876   3.136 -3.4683  1.3438  2.2039
   86SLPC   C29 8241   6.845   2.890   3.338  1.3790  0.0947  0.2116
   86SLPC   H9R 8242   6.942   2.935   3.313  1.4226 -0.1296 -0.0259
   86SLPC  C210 8243   6.789   2.918   3.462 -0.5204  0.2502 -0.0461
   86SLPC  H10R 8244   6.845   2.975   3.538 -0.7164 -0.0067  0.2938
   86SLPC  C211 8245   6.661   2.848   3.502 -0.1683 -0.1699  0.0965
   86SLPC  H11R 8246   6.650   2.744   3.466 -0.3389 -0.4302  0.8809
   86SLPC  H11S 8247   6.585   2.916   3.458 -0.0227  1.2678  1.8966
   86SLPC  C212 8248   6.626   2.830   3.650 -0.0727 -0.4402  0.0662
   86SLPC  H12R 8249   6.667   2.738   3.696 -1.3444  0.5448  3.3772
   86SLPC  C213 8250   6.559   2.906   3.739  1.3550 -0.0565  0.2680
   86SLPC  H13R 8251   6.580   2.875   3.843  0.4919 -3.5794 -0.4934
   86SLPC  C214 8252   6.502   3.046   3.713  0.3955  0.4251 -0.0090
   86SLPC  H14R 8253   6.393   3.041   3.692  0.3248 -0.1764  0.4972
   86SLPC  H14S 8254   6.549   3.083   3.619 -1.6238  0.2608 -1.1468
   86SLPC  C215 8255   6.520   3.143   3.825 -0.0556 -0.1200  0.2759
   86SLPC  H15R 8256   6.482   3.237   3.780  0.9166  1.5650  2.7828
   86SLPC  H15S 8257   6.628   3.159   3.846 -0.3276 -0.7740  2.3271
   86SLPC  C216 8258   6.457   3.115   3.953  0.2590 -0.2615  0.6740
   86SLPC  H16R 8259   6.496   3.026   4.006  0.4719 -0.8273 -0.4017
   86SLPC  H16S 8260   6.351   3.088   3.936  0.0658  1.5193 -1.4026
   86SLPC  C217 8261   6.441   3.239   4.044 -1.1124  0.2490  0.1542
   86SLPC  H17R 8262   6.367   3.221   4.125  0.4877  1.0723  1.9022
   86SLPC  H17S 8263   6.402   3.323   3.984 -0.9189  1.3689  1.5339
   86SLPC  C218 8264   6.569   3.275   4.117  0.2627 -0.3093  0.1607
   86SLPC  H18R 8265   6.598   3.187   4.179  1.4136  0.0144  0.0982
   86SLPC  H18S 8266   6.556   3.365   4.181 -0.3426  0.7013 -1.3558
   86SLPC  H18T 8267   6.653   3.305   4.051 -2.0079  1.5374 -2.0606
   86SLPC   C33 8268   6.982   2.892   2.841 -0.1022 -0.0172 -0.1076
   86SLPC   H3X 8269   7.037   2.868   2.935  0.8161 -0.3869 -0.7216
   86SLPC   H3Y 8270   6.894   2.824   2.842  0.4648 -0.7719  1.2366
   86SLPC   C34 8271   6.944   3.039   2.838  0.2339 -0.2025 -0.4977
   86SLPC   H4X 8272   6.868   3.053   2.918  1.1307 -0.3512  0.4011
   86SLPC   H4Y 8273   6.891   3.068   2.745  0.1949 -0.0884 -0.4400
   86SLPC   C35 8274   7.058   3.132   2.865 -0.3430 -0.1596  0.1016
   86SLPC   H5X 8275   7.138   3.103   2.793  0.0768  0.4546  0.3146
   86SLPC   H5Y 8276   7.108   3.107   2.961 -1.0226  0.7537  0.7098
   86SLPC   C36 8277   7.033   3.277   2.865  0.6884 -0.4941 -0.6408
   86SLPC   H6X 8278   6.998   3.319   2.768 -1.3824  0.1685  0.3309
   86SLPC   H6Y 8279   7.119   3.342   2.894  1.2324 -1.8457  0.8904
   86SLPC   C37 8280   6.919   3.311   2.965  0.7819  0.1270  0.4146
   86SLPC   H7X 8281   6.828   3.247   2.963  2.2585 -2.1578  1.6700
   86SLPC   H7Y 8282   6.889   3.414   2.936  1.2148  0.7489  2.0761
   86SLPC   C38 8283   6.942   3.301   3.119  0.0559 -0.4395 -0.9186
   86SLPC   H8X 8284   7.035   3.360   3.135  0.7887 -1.6296 -0.6373
   86SLPC   H8Y 8285   6.972   3.198   3.147  1.2976  1.0767  4.6192
   86SLPC   C39 8286   6.820   3.354   3.192  0.5127 -0.9104 -1.1702
   86SLPC   H9X 8287   6.726   3.314   3.150 -0.9839 -0.5051  1.5447
   86SLPC   H9Y 8288   6.803   3.463   3.176 -4.9773 -1.3324 -0.3268
   86SLPC  C310 8289   6.810   3.307   3.338  0.3360 -0.2462 -0.0355
   86SLPC  H10X 8290   6.841   3.200   3.337  0.1270 -0.3410  1.3041
   86SLPC  H10Y 8291   6.708   3.320   3.379  0.1302  0.8964 -0.8573
   86SLPC  C311 8292   6.906   3.386   3.427  0.0028 -0.1730 -0.3510
   86SLPC  H11X 8293   6.895   3.494   3.403 -0.1480  0.1299  1.0065
   86SLPC  H11Y 8294   7.009   3.349   3.413  0.3690  0.6880 -0.0214
   86SLPC  C312 8295   6.863   3.357   3.570  0.0610 -0.0746  0.1979
   86SLPC  H12X 8296   6.865   3.247   3.588 -0.9932 -0.0635  0.4449
   86SLPC  H12Y 8297   6.756   3.375   3.591  0.0689 -1.7610  2.0779
   86SLPC  C313 8298   6.936   3.436   3.669  0.0755  0.2736 -0.0596
   86SLPC  H13X 8299   6.900   3.540   3.660 -1.2126 -0.2171 -0.8298
   86SLPC  H13Y 8300   7.045   3.445   3.650 -0.4875  2.7319 -2.8391
   86SLPC  C314 8301   6.892   3.391   3.807  0.1858 -0.4746 -0.3147
   86SLPC  H14X 8302   6.914   3.286   3.833  1.1846  0.4294  2.9343
   86SLPC  H14Y 8303   6.785   3.421   3.812 -0.6753 -2.5367 -3.3035
   86SLPC  C315 8304   6.964   3.477   3.921 -0.0749 -0.2194 -0.1956
   86SLPC  H15X 8305   6.960   3.585   3.897  0.3830 -0.1756 -0.0849
   86SLPC  H15Y 8306   7.070   3.444   3.923 -0.5277 -1.7507  0.0178
   86SLPC  C316 8307   6.913   3.464   4.067 -0.1088  0.2329 -0.0774
   86SLPC  H16X 8308   6.941   3.361   4.099 -1.4221  0.1403  0.8414
   86SLPC  H16Y 8309   6.803   3.472   4.061  0.0796  3.1040 -1.2531
   86SLPC  C317 8310   6.984   3.557   4.165  0.1968 -0.0169  0.4742
   86SLPC  H17X 8311   7.008   3.653   4.116  0.6731 -0.7877 -0.8428
   86SLPC  H17Y 8312   7.085   3.523   4.199  0.5710 -0.2819 -0.8502
   86SLPC  C318 8313   6.904   3.552   4.291  0.4252 -0.6850 -0.5492
   86SLPC  H18X 8314   6.817   3.621   4.280  0.1644 -1.1009 -1.1567
   86SLPC  H18Y 8315   6.954   3.602   4.376  0.1939 -1.2493 -0.0797
   86SLPC  H18Z 8316   6.869   3.447   4.301 -0.7732 -0.3346 -0.9344
   87SLPC     N 8317   3.185   2.224   2.097  0.0655  0.3653  0.3040
   87SLPC   C13 8318   3.202   2.368   2.084 -0.2045  0.2352  0.1350
   87SLPC  H13A 8319   3.112   2.422   2.109  1.5868  2.8540  1.4915
   87SLPC  H13B 8320   3.277   2.404   2.154 -0.9753  0.3726  0.9099
   87SLPC  H13C 8321   3.230   2.397   1.984  3.5256 -0.4269  0.8541
   87SLPC   C14 8322   3.312   2.160   2.075 -0.1808  0.1889 -0.9455
   87SLPC  H14A 8323   3.325   2.156   1.968  1.8370 -2.8978 -0.7035
   87SLPC  H14B 8324   3.387   2.214   2.132 -0.0780  0.0654 -0.9636
   87SLPC  H14C 8325   3.305   2.059   2.112 -0.2863  0.8835  1.0665
   87SLPC   C15 8326   3.086   2.176   1.997  0.7501 -0.3554  0.4448
   87SLPC  H15A 8327   3.090   2.070   1.974 -0.8353 -0.3283 -0.1059
   87SLPC  H15B 8328   2.984   2.201   2.022  0.1879 -1.8146 -0.2501
   87SLPC  H15C 8329   3.107   2.220   1.900 -1.2271 -1.0674 -0.3622
   87SLPC   C12 8330   3.124   2.197   2.238  0.0926 -0.8337 -0.0677
   87SLPC  H12A 8331   3.204   2.215   2.307 -1.7123 -1.6286  2.3728
   87SLPC  H12B 8332   3.105   2.091   2.248 -1.5491 -0.5425  0.1776
   87SLPC   C11 8333   2.996   2.275   2.285  0.6907 -0.2866  0.3862
   87SLPC  H11A 8334   3.033   2.375   2.316  0.1535  0.3487 -0.9682
   87SLPC  H11B 8335   2.960   2.224   2.377  0.0013  0.9327  0.8042
   87SLPC     P 8336   2.812   2.394   2.132  0.2151 -0.0241  0.1507
   87SLPC   O13 8337   2.872   2.524   2.164 -0.3248  0.4013 -0.0508
   87SLPC   O14 8338   2.783   2.376   1.986 -0.8346  0.0912  0.7062
   87SLPC   O12 8339   2.892   2.275   2.187 -0.0693 -0.0150 -0.3922
   87SLPC   O11 8340   2.676   2.390   2.208 -0.4310 -0.6038 -0.3745
   87SLPC    C1 8341   2.669   2.360   2.346  0.4045 -0.2936 -0.3990
   87SLPC    HA 8342   2.601   2.276   2.372 -0.1439  0.7822  1.8742
   87SLPC    HB 8343   2.765   2.323   2.388  0.4423 -0.9097 -1.0192
   87SLPC    C2 8344   2.630   2.484   2.432  0.4794  0.3133 -0.4432
   87SLPC    HS 8345   2.657   2.580   2.382 -2.4410  0.7292 -1.4144
   87SLPC   O21 8346   2.686   2.465   2.567 -0.0077  0.1382 -0.0676
   87SLPC   C21 8347   2.712   2.577   2.633  0.1417 -0.2017 -0.5216
   87SLPC   O22 8348   2.680   2.688   2.593 -0.6048 -0.4341  0.0631
   87SLPC   C22 8349   2.778   2.549   2.767 -0.0570  0.5112 -0.0084
   87SLPC   H2R 8350   2.706   2.476   2.811 -1.2381  0.5298 -1.7923
   87SLPC   H2S 8351   2.868   2.485   2.759 -1.9814 -2.7956  2.3980
   87SLPC    C3 8352   2.479   2.490   2.437  0.6298  0.0539 -0.0934
   87SLPC    HX 8353   2.448   2.508   2.332 -1.7390 -1.0912  0.3532
   87SLPC    HY 8354   2.462   2.587   2.486  2.4793  1.3987 -1.9068
   87SLPC   O31 8355   2.424   2.367   2.496 -0.3256  0.5635 -0.7148
   87SLPC   C31 8356   2.381   2.372   2.615 -0.2115  0.6510 -0.0363
   87SLPC   O32 8357   2.385   2.470   2.688 -0.2560 -0.0417  0.0904
   87SLPC   C32 8358   2.315   2.244   2.653 -0.1849  0.4740  0.6113
   87SLPC   H2X 8359   2.403   2.182   2.680  0.5484  1.4902  0.6253
   87SLPC   H2Y 8360   2.262   2.192   2.570 -1.2564 -0.8767  2.0826
   87SLPC   C23 8361   2.791   2.669   2.852 -0.1537 -0.0440 -0.1615
   87SLPC   H3R 8362   2.690   2.701   2.887 -1.1248 -2.2782 -0.7073
   87SLPC   H3S 8363   2.835   2.758   2.803 -2.0302  0.2987 -1.3565
   87SLPC   C24 8364   2.880   2.643   2.978 -0.4852  0.0957  0.0291
   87SLPC   H4R 8365   2.835   2.550   3.017 -0.6910  0.0998 -0.1974
   87SLPC   H4S 8366   2.857   2.729   3.044 -2.0295 -0.4436  0.2240
   87SLPC   C25 8367   3.031   2.641   2.951 -0.7341 -0.5346  0.2472
   87SLPC   H5R 8368   3.068   2.717   2.879  0.0387 -1.1937 -0.0764
   87SLPC   H5S 8369   3.041   2.542   2.902 -3.5890 -1.4716  1.3450
   87SLPC   C26 8370   3.121   2.650   3.080  0.3257  0.2194 -0.0081
   87SLPC   H6R 8371   3.128   2.756   3.112 -0.4850  0.3539 -0.2675
   87SLPC   H6S 8372   3.227   2.629   3.055  1.0241  2.7772  0.5554
   87SLPC   C27 8373   3.070   2.557   3.196  0.5261  0.0726 -0.8860
   87SLPC   H7R 8374   3.043   2.456   3.158 -2.6141  0.3712  0.2551
   87SLPC   H7S 8375   2.983   2.616   3.233 -1.1336 -2.3434 -0.6916
   87SLPC   C28 8376   3.160   2.544   3.324  0.3373 -0.8972 -0.2358
   87SLPC   H8R 8377   3.148   2.633   3.389 -2.0773 -0.2876 -1.3881
   87SLPC   H8S 8378   3.268   2.535   3.298  1.4047  2.7747  2.2293
   87SLPC   C29 8379   3.137   2.420   3.401 -0.3060 -0.2352 -0.0648
   87SLPC   H9R 8380   3.108   2.338   3.334 -0.6349  0.4580 -0.7915
   87SLPC  C210 8381   3.142   2.420   3.534 -0.3957 -0.2981  0.1371
   87SLPC  H10R 8382   3.147   2.321   3.582 -1.5655 -0.3694  0.1373
   87SLPC  C211 8383   3.175   2.545   3.620 -0.4219  0.4107 -0.3024
   87SLPC  H11R 8384   3.246   2.616   3.573 -0.0218 -0.4160 -0.9577
   87SLPC  H11S 8385   3.232   2.500   3.705 -0.0891 -1.1332 -1.3017
   87SLPC  C212 8386   3.057   2.618   3.671  0.4236  0.3926 -0.2746
   87SLPC  H12R 8387   2.970   2.624   3.604 -0.3199  0.5924  0.6791
   87SLPC  C213 8388   3.042   2.687   3.782 -0.2683 -0.5826 -0.2638
   87SLPC  H13R 8389   2.946   2.739   3.798 -0.0622  0.0404 -1.0098
   87SLPC  C214 8390   3.154   2.698   3.882 -0.0988 -0.3455 -0.2198
   87SLPC  H14R 8391   3.181   2.803   3.905 -0.4222 -0.7029  1.9579
   87SLPC  H14S 8392   3.246   2.642   3.855 -0.4036 -0.9067 -0.1090
   87SLPC  C215 8393   3.116   2.627   4.018  0.0881  0.1211 -0.1751
   87SLPC  H15R 8394   3.039   2.690   4.067  0.4915  0.6134 -0.1637
   87SLPC  H15S 8395   3.211   2.648   4.072 -0.3349  3.2538 -0.4577
   87SLPC  C216 8396   3.092   2.473   4.015 -0.7717 -0.7269 -0.5018
   87SLPC  H16R 8397   3.182   2.443   3.958  0.1627 -0.6265  0.8747
   87SLPC  H16S 8398   2.994   2.464   3.963 -0.2060  1.2178 -2.0206
   87SLPC  C217 8399   3.092   2.407   4.152  0.5199  0.1191 -0.0567
   87SLPC  H17R 8400   3.014   2.466   4.205  0.6597  1.2070 -1.0180
   87SLPC  H17S 8401   3.189   2.423   4.204  1.5524 -1.1492 -1.4950
   87SLPC  C218 8402   3.070   2.252   4.148 -0.3354 -0.2311  0.1199
   87SLPC  H18R 8403   2.990   2.223   4.076 -1.0294  0.4670  0.5828
   87SLPC  H18S 8404   3.033   2.232   4.251  0.0299  1.5814  0.6478
   87SLPC  H18T 8405   3.159   2.196   4.114 -0.5313 -0.0706 -0.6804
   87SLPC   C33 8406   2.234   2.257   2.784  0.2383 -0.0063  0.1693
   87SLPC   H3X 8407   2.136   2.303   2.758  1.0755  2.0630  0.5043
   87SLPC   H3Y 8408   2.282   2.304   2.872 -1.5155 -0.7193  1.5656
   87SLPC   C34 8409   2.195   2.115   2.833 -0.9105 -0.7925 -0.2079
   87SLPC   H4X 8410   2.158   2.052   2.750  1.1800 -1.8257 -0.4371
   87SLPC   H4Y 8411   2.111   2.125   2.905  0.5111  0.7544  1.3317
   87SLPC   C35 8412   2.319   2.056   2.917  1.0219  0.0563 -0.6455
   87SLPC   H5X 8413   2.405   2.074   2.850  1.6061  1.9843  0.5526
   87SLPC   H5Y 8414   2.308   1.946   2.923  0.3002  0.0927 -1.1993
   87SLPC   C36 8415   2.337   2.105   3.061  0.3550 -0.2054  0.6637
   87SLPC   H6X 8416   2.240   2.116   3.114  0.3009  1.3882  0.2777
   87SLPC   H6Y 8417   2.369   2.211   3.053  1.9960 -0.7843 -1.5728
   87SLPC   C37 8418   2.440   2.035   3.153 -0.5552 -0.2708  0.4801
   87SLPC   H7X 8419   2.482   2.104   3.229  3.3768 -0.5866 -1.1508
   87SLPC   H7Y 8420   2.527   2.010   3.087 -0.4896  0.3163  0.3416
   87SLPC   C38 8421   2.390   1.899   3.205 -0.9014 -0.2725  0.1034
   87SLPC   H8X 8422   2.473   1.828   3.222 -2.2325 -3.1631 -3.8042
   87SLPC   H8Y 8423   2.339   1.841   3.125 -1.2854 -0.1881  0.2854
   87SLPC   C39 8424   2.285   1.909   3.317  0.1984  0.1151  0.2068
   87SLPC   H9X 8425   2.253   1.804   3.336 -0.7576  0.0334 -1.6491
   87SLPC   H9Y 8426   2.198   1.965   3.275  0.6209 -0.4686 -1.5169
   87SLPC  C310 8427   2.344   1.967   3.452 -0.3991 -0.3840  0.6259
   87SLPC  H10X 8428   2.375   2.071   3.427 -0.8347 -0.6814 -1.3437
   87SLPC  H10Y 8429   2.430   1.901   3.474 -0.1584  0.5496  2.7264
   87SLPC  C311 8430   2.251   1.980   3.578 -0.2936  0.2506  0.0036
   87SLPC  H11X 8431   2.166   2.043   3.547  0.7302  1.0798 -1.2274
   87SLPC  H11Y 8432   2.303   2.050   3.647  0.8903  0.1409 -0.7462
   87SLPC  C312 8433   2.210   1.843   3.632  0.1264  0.1224  0.1553
   87SLPC  H12X 8434   2.274   1.821   3.720 -0.8941 -1.2844  0.5893
   87SLPC  H12Y 8435   2.226   1.760   3.560 -0.8152 -1.1963  1.3924
   87SLPC  C313 8436   2.059   1.840   3.657 -0.1605 -0.1515 -0.1199
   87SLPC  H13X 8437   2.012   1.792   3.569 -0.4356  2.0145 -1.2141
   87SLPC  H13Y 8438   2.020   1.943   3.672  2.0627  0.6164  0.9609
   87SLPC  C314 8439   2.015   1.762   3.780  0.0093 -0.1408 -0.2183
   87SLPC  H14X 8440   2.056   1.658   3.779 -0.0026 -0.1424 -0.6492
   87SLPC  H14Y 8441   1.906   1.747   3.768  0.3487 -3.3675 -0.2252
   87SLPC  C315 8442   2.037   1.833   3.910 -0.0054  0.6784  0.4491
   87SLPC  H15X 8443   1.953   1.904   3.922 -0.7883  0.3707 -2.5447
   87SLPC  H15Y 8444   2.129   1.893   3.892  0.5500 -1.2625 -5.0431
   87SLPC  C316 8445   2.028   1.760   4.041  0.1783 -0.2455  0.7064
   87SLPC  H16X 8446   2.104   1.679   4.040 -1.6317 -2.1267 -2.9336
   87SLPC  H16Y 8447   1.946   1.686   4.046  1.4648 -1.7946 -0.2271
   87SLPC  C317 8448   2.031   1.853   4.156  0.4283  0.1578 -0.3401
   87SLPC  H17X 8449   1.943   1.920   4.154  1.2994  1.3322 -0.5216
   87SLPC  H17Y 8450   2.121   1.917   4.146  1.2289 -0.8105  0.5191
   87SLPC  C318 8451   2.042   1.787   4.287  0.4993  0.1499 -0.1209
   87SLPC  H18X 8452   2.138   1.732   4.301  1.6285  1.7402 -1.2931
   87SLPC  H18Y 8453   1.956   1.718   4.301  1.5720 -1.6775 -1.9351
   87SLPC  H18Z 8454   2.036   1.858   4.372  0.4524 -1.9588  1.7396
   88SLPC     N 8455   1.101   3.642   2.077 -0.1943 -0.0107 -0.3580
   88SLPC   C13 8456   1.033   3.776   2.098  0.4808  0.4487  0.1942
   88SLPC  H13A 8457   1.046   3.849   2.019 -1.7283  2.6533  1.7231
   88SLPC  H13B 8458   0.926   3.763   2.109  0.5976 -1.3762 -0.5233
   88SLPC  H13C 8459   1.074   3.815   2.190  1.2346 -4.9584  2.5101
   88SLPC   C14 8460   1.243   3.668   2.054  0.1411 -0.5761  0.3317
   88SLPC  H14A 8461   1.283   3.739   2.124 -0.8300  0.6350 -0.2919
   88SLPC  H14B 8462   1.297   3.575   2.058  0.8924 -0.2576 -1.3836
   88SLPC  H14C 8463   1.246   3.712   1.955 -0.6107  0.5502  0.7889
   88SLPC   C15 8464   1.033   3.568   1.961 -0.1348 -0.2008  0.0725
   88SLPC  H15A 8465   1.066   3.611   1.867  3.3932 -2.2195  0.2041
   88SLPC  H15B 8466   1.063   3.464   1.960 -3.6563 -1.4281  2.3370
   88SLPC  H15C 8467   0.927   3.568   1.980  0.0814  2.0538  1.5739
   88SLPC   C12 8468   1.072   3.569   2.200 -0.4568  0.3343 -0.2161
   88SLPC  H12A 8469   0.967   3.547   2.195 -0.6599  1.5014 -2.0895
   88SLPC  H12B 8470   1.080   3.632   2.287 -1.8554 -0.1137  0.2661
   88SLPC   C11 8471   1.143   3.429   2.214  0.5093  0.2470 -0.2246
   88SLPC  H11A 8472   1.133   3.420   2.324  0.8564 -1.6169 -0.3155
   88SLPC  H11B 8473   1.247   3.430   2.175 -0.3219 -0.4913 -2.6743
   88SLPC     P 8474   1.150   3.194   2.116 -0.4971  0.1496  0.0631
   88SLPC   O13 8475   1.080   3.070   2.091 -0.3315  0.7353  0.3087
   88SLPC   O14 8476   1.241   3.243   2.010 -0.4625 -0.3626 -0.5321
   88SLPC   O12 8477   1.067   3.314   2.164 -0.1455 -0.0991 -0.4097
   88SLPC   O11 8478   1.242   3.170   2.245 -0.3198  0.3769 -0.2018
   88SLPC    C1 8479   1.200   3.143   2.376  0.1735 -0.1840 -0.1144
   88SLPC    HA 8480   1.264   3.196   2.451 -0.9392  0.0804  0.6672
   88SLPC    HB 8481   1.095   3.176   2.392  0.2501 -0.0472  0.1109
   88SLPC    C2 8482   1.207   2.995   2.409 -0.3632 -0.9865  0.2643
   88SLPC    HS 8483   1.134   2.935   2.350 -1.8670  0.5211  0.5375
   88SLPC   O21 8484   1.172   2.983   2.544 -0.3413 -0.4861 -0.6531
   88SLPC   C21 8485   1.102   2.875   2.579 -0.2014  0.2565  0.1017
   88SLPC   O22 8486   1.104   2.764   2.523  0.2164  0.3444  0.1728
   88SLPC   C22 8487   1.030   2.910   2.711  0.5030 -0.0921  0.1059
   88SLPC   H2R 8488   1.106   2.932   2.789  1.2314 -1.1463 -0.2908
   88SLPC   H2S 8489   0.962   2.998   2.702 -1.3920 -1.3493  1.2465
   88SLPC    C3 8490   1.351   2.948   2.390 -0.7432  0.1338 -0.0169
   88SLPC    HX 8491   1.417   3.008   2.457  0.2877 -0.6046 -0.3279
   88SLPC    HY 8492   1.370   2.978   2.284 -0.2539  0.3006  0.1125
   88SLPC   O31 8493   1.352   2.803   2.389  0.2652  1.2370  0.6072
   88SLPC   C31 8494   1.475   2.745   2.374  0.5860 -0.4105  0.5329
   88SLPC   O32 8495   1.577   2.806   2.340 -0.0930  0.7024  0.3504
   88SLPC   C32 8496   1.480   2.595   2.422  0.8893 -0.6875 -0.0065
   88SLPC   H2X 8497   1.583   2.569   2.455  0.2021  0.1819  3.1894
   88SLPC   H2Y 8498   1.442   2.539   2.335  1.2649 -2.3038  0.8312
   88SLPC   C23 8499   0.955   2.783   2.754 -0.4859  0.6593 -0.0821
   88SLPC   H3R 8500   1.019   2.691   2.755  0.0977  1.0590  0.4877
   88SLPC   H3S 8501   0.877   2.770   2.676  1.6830  1.2029 -2.4785
   88SLPC   C24 8502   0.880   2.797   2.888 -0.7722  0.4986 -0.1587
   88SLPC   H4R 8503   0.799   2.721   2.891 -1.8234  1.5746  3.3138
   88SLPC   H4S 8504   0.829   2.896   2.887  0.4761  1.1628 -1.2035
   88SLPC   C25 8505   0.970   2.772   3.006 -0.5561  0.0312 -0.7184
   88SLPC   H5R 8506   1.061   2.835   2.998  1.2906 -2.3802 -0.0276
   88SLPC   H5S 8507   1.002   2.666   3.012 -1.0946 -0.0763  1.1229
   88SLPC   C26 8508   0.884   2.792   3.132  0.3915 -0.3966 -0.6682
   88SLPC   H6R 8509   0.778   2.759   3.132  0.6934 -1.4268  0.1266
   88SLPC   H6S 8510   0.896   2.897   3.169 -2.7456 -0.1615 -0.0263
   88SLPC   C27 8511   0.946   2.719   3.254  0.2379 -0.1110 -0.3581
   88SLPC   H7R 8512   1.030   2.770   3.304 -1.1579  0.9693  0.9890
   88SLPC   H7S 8513   0.972   2.612   3.244 -0.2289 -0.4764  1.9022
   88SLPC   C28 8514   0.838   2.716   3.369  0.1628  0.4886  0.6126
   88SLPC   H8R 8515   0.756   2.651   3.332  0.4942  0.5669 -0.2626
   88SLPC   H8S 8516   0.800   2.819   3.382  1.2183  0.8969  0.5486
   88SLPC   C29 8517   0.887   2.661   3.496 -0.3956  1.0955  0.8563
   88SLPC   H9R 8518   0.898   2.552   3.487 -2.0580  0.8201  1.7825
   88SLPC  C210 8519   0.898   2.710   3.617 -0.7142  0.1850  0.4119
   88SLPC  H10R 8520   0.946   2.651   3.696 -0.7053 -0.5511 -0.1331
   88SLPC  C211 8521   0.891   2.848   3.653  0.1778 -0.7613  0.3658
   88SLPC  H11R 8522   0.922   2.911   3.567 -1.3660  0.1742  0.4721
   88SLPC  H11S 8523   0.965   2.873   3.733 -0.4492 -2.7570  1.6372
   88SLPC  C212 8524   0.747   2.888   3.684 -0.0420  0.2940 -0.3615
   88SLPC  H12R 8525   0.674   2.919   3.607 -0.5621  0.8391  0.3341
   88SLPC  C213 8526   0.700   2.925   3.807 -0.8840  0.3506 -0.0306
   88SLPC  H13R 8527   0.594   2.953   3.818 -0.4026  1.5976  1.7144
   88SLPC  C214 8528   0.772   2.919   3.938 -0.5629 -0.2141  0.6172
   88SLPC  H14R 8529   0.756   3.019   3.983  1.9996  0.3351  0.4995
   88SLPC  H14S 8530   0.879   2.899   3.915 -0.3181 -0.7797  2.1192
   88SLPC  C215 8531   0.714   2.816   4.038 -0.1703 -0.5930  0.1680
   88SLPC  H15R 8532   0.608   2.844   4.057 -0.0783  0.7416 -1.1095
   88SLPC  H15S 8533   0.764   2.836   4.135 -1.5905 -1.3063  1.0863
   88SLPC  C216 8534   0.745   2.675   3.999  0.6581  0.5224 -0.3521
   88SLPC  H16R 8535   0.842   2.672   3.945 -0.2305  2.4448 -2.1785
   88SLPC  H16S 8536   0.665   2.667   3.923 -0.8692  0.2531  1.2219
   88SLPC  C217 8537   0.725   2.581   4.113 -0.5152 -0.2419 -0.0567
   88SLPC  H17R 8538   0.622   2.575   4.154 -0.2327  0.5739  0.7922
   88SLPC  H17S 8539   0.787   2.607   4.201  0.9547 -0.5390 -0.9526
   88SLPC  C218 8540   0.764   2.443   4.060 -0.2396  0.2785 -0.0267
   88SLPC  H18R 8541   0.771   2.356   4.128  0.9018  0.4052  0.0456
   88SLPC  H18S 8542   0.857   2.442   4.000  0.4375 -1.0753  0.9890
   88SLPC  H18T 8543   0.673   2.430   3.998  0.1288  0.1243 -0.5330
   88SLPC   C33 8544   1.370   2.561   2.533  0.2429 -0.5843 -0.1853
   88SLPC   H3X 8545   1.363   2.451   2.549 -1.7203 -0.7595 -1.7360
   88SLPC   H3Y 8546   1.270   2.596   2.497 -0.4397 -0.9080  1.3133
   88SLPC   C34 8547   1.407   2.620   2.670  0.5902  0.1635  0.0328
   88SLPC   H4X 8548   1.408   2.731   2.671 -1.1305  0.2062  1.0528
   88SLPC   H4Y 8549   1.513   2.589   2.682  0.7932  0.4469 -0.9554
   88SLPC   C35 8550   1.324   2.568   2.783 -0.5624  0.1825  0.1149
   88SLPC   H5X 8551   1.310   2.458   2.776  0.6780  0.0013  0.3471
   88SLPC   H5Y 8552   1.221   2.609   2.779 -0.7284 -0.2369 -0.0369
   88SLPC   C36 8553   1.377   2.623   2.921  0.4412  0.5888  0.2414
   88SLPC   H6X 8554   1.355   2.731   2.936 -0.4262  1.2786 -4.6197
   88SLPC   H6Y 8555   1.488   2.615   2.919  0.4579  0.6654  0.7440
   88SLPC   C37 8556   1.317   2.537   3.033  0.1267 -0.1150 -0.0068
   88SLPC   H7X 8557   1.371   2.441   3.043 -0.6484 -0.5132  0.4818
   88SLPC   H7Y 8558   1.209   2.527   3.007  0.3635  1.1758 -1.6188
   88SLPC   C38 8559   1.311   2.618   3.161  0.2756 -0.2615  0.2262
   88SLPC   H8X 8560   1.253   2.711   3.145  0.3112 -0.5766 -2.0567
   88SLPC   H8Y 8561   1.411   2.661   3.184  0.6492 -0.0548 -1.6747
   88SLPC   C39 8562   1.252   2.553   3.281  0.1669  0.0459 -0.4595
   88SLPC   H9X 8563   1.158   2.501   3.252  0.2828 -0.8563  0.7110
   88SLPC   H9Y 8564   1.225   2.636   3.350  1.3901  0.3702 -0.3569
   88SLPC  C310 8565   1.351   2.454   3.354  0.0584  0.6779  0.3268
   88SLPC  H10X 8566   1.430   2.530   3.373  1.2242 -0.4770  0.2516
   88SLPC  H10Y 8567   1.387   2.375   3.286 -2.7271 -0.7390  0.3700
   88SLPC  C311 8568   1.310   2.420   3.499 -0.0879 -0.1649 -0.3841
   88SLPC  H11X 8569   1.389   2.349   3.532  2.7267  1.8017 -2.3927
   88SLPC  H11Y 8570   1.206   2.385   3.484  0.0062 -0.1755 -1.0280
   88SLPC  C312 8571   1.314   2.540   3.596  0.6315 -0.4509  0.5206
   88SLPC  H12X 8572   1.270   2.636   3.561 -2.7594 -1.5041  1.5414
   88SLPC  H12Y 8573   1.419   2.559   3.628  0.2369  1.0788  0.9810
   88SLPC  C313 8574   1.230   2.514   3.722 -0.0835  0.2372 -0.0458
   88SLPC  H13X 8575   1.258   2.411   3.753  0.5200  0.2851 -0.4252
   88SLPC  H13Y 8576   1.123   2.523   3.694 -0.1122  2.1247  0.5251
   88SLPC  C314 8577   1.257   2.604   3.843  0.5599  0.3983  0.2346
   88SLPC  H14X 8578   1.230   2.705   3.806 -0.5687 -0.1284 -0.4132
   88SLPC  H14Y 8579   1.368   2.596   3.854  0.7381 -1.4578 -1.9829
   88SLPC  C315 8580   1.171   2.555   3.959 -0.3010  0.1917 -0.3020
   88SLPC  H15X 8581   1.182   2.446   3.976  0.1293  0.0990 -1.1371
   88SLPC  H15Y 8582   1.065   2.569   3.930 -0.8482 -1.9261  0.5239
   88SLPC  C316 8583   1.198   2.624   4.092  0.4175  0.3943  0.2548
   88SLPC  H16X 8584   1.284   2.583   4.150  1.3901  0.9993 -0.7010
   88SLPC  H16Y 8585   1.106   2.635   4.153 -0.0664  0.4539 -0.4681
   88SLPC  C317 8586   1.243   2.770   4.073  0.0452 -0.2040  0.1548
   88SLPC  H17X 8587   1.204   2.821   3.982 -0.7123 -1.4313 -0.2354
   88SLPC  H17Y 8588   1.352   2.789   4.076 -0.0201  0.1675  0.1897
   88SLPC  C318 8589   1.180   2.847   4.192 -0.7314  0.0774 -0.1563
   88SLPC  H18X 8590   1.069   2.847   4.196 -0.7848 -3.0046  2.6587
   88SLPC  H18Y 8591   1.214   2.951   4.172  1.0117 -0.6447 -1.1590
   88SLPC  H18Z 8592   1.218   2.799   4.285 -1.0058  1.0470  0.4773
   89SAPE     N 8593   6.160   1.273   7.058 -0.1157 -0.2744  1.4849
   89SAPE   HN1 8594   6.234   1.200   7.055 -0.5772 -0.7088  0.1439
   89SAPE   HN2 8595   6.140   1.302   6.961 -0.5121  0.0600  1.6630
   89SAPE   HN3 8596   6.197   1.362   7.096  1.6614 -1.2595  2.1884
   89SAPE   C12 8597   6.027   1.218   7.105 -0.4556 -0.0521  0.2364
   89SAPE  H12A 8598   6.038   1.222   7.216 -0.6389 -0.4841  0.2747
   89SAPE  H12B 8599   6.027   1.110   7.079  1.6350  0.3862 -1.9926
   89SAPE   C11 8600   5.910   1.300   7.058 -0.1544  0.2172 -0.3362
   89SAPE  H11A 8601   5.901   1.406   7.093  0.3178  0.0881  0.1935
   89SAPE  H11B 8602   5.822   1.251   7.104 -1.5278  2.6321 -0.2251
   89SAPE     P 8603   5.950   1.395   6.820 -0.0833 -0.7210  0.5584
   89SAPE   O13 8604   5.892   1.526   6.861  0.2449  0.5072 -0.3008
   89SAPE   O14 8605   6.101   1.391   6.817  0.1538 -0.4670 -0.1790
   89SAPE   O12 8606   5.897   1.287   6.914  0.5545  0.1000 -0.5631
   89SAPE   O11 8607   5.897   1.345   6.680  0.1284 -0.0312 -0.4795
   89SAPE    C1 8608   5.916   1.210   6.628  0.3356  0.2548  0.4574
   89SAPE    HA 8609   5.947   1.135   6.704  1.2014 -0.7379 -0.8273
   89SAPE    HB 8610   5.816   1.171   6.598  0.3512  0.6976 -0.1903
   89SAPE    C2 8611   6.030   1.202   6.517 -0.2307  0.4528 -0.3747
   89SAPE    HS 8612   6.127   1.227   6.566 -0.1847 -0.0849 -0.1742
   89SAPE   O21 8613   6.004   1.297   6.417 -0.3306 -0.1903  0.4757
   89SAPE   C21 8614   6.107   1.342   6.350  0.4469 -0.0376 -0.3168
   89SAPE   O22 8615   6.225   1.315   6.369  0.3748 -0.4649 -0.0991
   89SAPE   C22 8616   6.064   1.433   6.241 -0.4742 -0.4023  0.1961
   89SAPE   H2R 8617   5.957   1.457   6.254 -1.6262 -2.7153 -3.4122
   89SAPE   H2S 8618   6.118   1.529   6.250 -0.4011 -0.4796  0.5800
   89SAPE    C3 8619   6.046   1.055   6.459 -0.0672 -0.2203 -0.0103
   89SAPE    HX 8620   5.947   1.042   6.410  0.4333  0.2069 -1.1555
   89SAPE    HY 8621   6.046   0.988   6.548  0.3206  0.0623  0.2034
   89SAPE   O31 8622   6.160   1.036   6.372  0.2230 -0.2098  0.1792
   89SAPE   C31 8623   6.252   0.964   6.426 -0.2532 -0.2117  0.2517
   89SAPE   O32 8624   6.270   0.954   6.543 -0.3379 -0.5804 -0.1287
   89SAPE   C32 8625   6.347   0.903   6.322  0.9565 -0.1286  0.5282
   89SAPE   H2X 8626   6.346   0.797   6.353  1.2605  0.1741  1.6094
   89SAPE   H2Y 8627   6.452   0.938   6.332  0.7337  0.6570  0.1879
   89SAPE   C23 8628   6.090   1.386   6.095  0.2476  1.3403 -0.1945
   89SAPE   H3R 8629   5.997   1.333   6.064  0.5829 -0.6910  1.9533
   89SAPE   H3S 8630   6.178   1.319   6.099 -0.4145  0.4216 -0.6224
   89SAPE   C24 8631   6.128   1.494   5.994  0.7315  0.2813  0.1125
   89SAPE   H4R 8632   6.184   1.448   5.910  0.9186 -1.5152  1.1767
   89SAPE   H4S 8633   6.197   1.569   6.038  2.1834  0.0262 -1.5959
   89SAPE   C25 8634   6.008   1.574   5.957  0.0737  0.4652  0.5031
   89SAPE   H5R 8635   5.945   1.612   6.039  1.5521 -1.5865  2.7052
   89SAPE   C26 8636   5.982   1.611   5.832 -0.3222 -0.1482 -0.8926
   89SAPE   H6R 8637   5.887   1.666   5.822 -0.0832  0.1818 -1.4067
   89SAPE   C27 8638   6.056   1.574   5.703  0.3011  0.1864 -0.1616
   89SAPE   H7R 8639   5.996   1.505   5.641 -1.2287  1.0140  0.3375
   89SAPE   H7S 8640   6.153   1.523   5.718  0.6413  1.1124  0.9953
   89SAPE   C28 8641   6.076   1.694   5.618 -0.0082 -0.3071  0.3320
   89SAPE   H8R 8642   6.163   1.750   5.656 -0.5013 -0.9265  2.5243
   89SAPE   C29 8643   6.012   1.741   5.506 -0.6051  0.5025 -0.1228
   89SAPE   H9R 8644   6.040   1.841   5.469 -0.8727  1.0983  1.1924
   89SAPE  C210 8645   5.907   1.664   5.427  0.7879  0.1192 -0.2842
   89SAPE  H10R 8646   5.833   1.744   5.406  0.4612 -0.2521 -0.5685
   89SAPE  H10S 8647   5.860   1.586   5.491 -0.2392 -1.1703 -2.5027
   89SAPE  C211 8648   5.967   1.601   5.307  0.3572 -0.1353 -0.0377
   89SAPE  H11R 8649   6.003   1.498   5.320 -0.4038 -0.2079  1.8042
   89SAPE  C212 8650   5.990   1.665   5.188 -0.0982  0.6265  0.0614
   89SAPE  H12R 8651   6.053   1.613   5.114 -0.3430 -0.1397  0.3776
   89SAPE  C213 8652   5.959   1.803   5.160 -0.2397 -0.0423  0.6045
   89SAPE  H13R 8653   6.014   1.838   5.070 -1.9778  1.7036  0.1608
   89SAPE  H13S 8654   6.013   1.858   5.240  0.9310  2.9173 -2.0043
   89SAPE  C214 8655   5.818   1.844   5.130  0.1170  0.2149 -0.1429
   89SAPE  H14R 8656   5.759   1.768   5.078 -1.3722  1.2999 -0.1033
   89SAPE  C215 8657   5.754   1.954   5.175  0.1176  0.2267  0.1263
   89SAPE  H15R 8658   5.649   1.967   5.146  0.5218 -2.6331 -3.2814
   89SAPE  C216 8659   5.822   2.073   5.236 -0.7911  0.5176  0.5031
   89SAPE  H16R 8660   5.770   2.164   5.200  0.6374  1.4197  0.6437
   89SAPE  H16S 8661   5.924   2.093   5.197 -1.2838  0.1658 -1.0651
   89SAPE  C217 8662   5.823   2.066   5.389 -0.0621 -1.2368  0.4098
   89SAPE  H17R 8663   5.908   2.132   5.419 -0.2937 -0.5111 -0.4759
   89SAPE  H17S 8664   5.858   1.966   5.423  2.1601 -0.8344 -0.5287
   89SAPE  C218 8665   5.689   2.095   5.455 -0.6298  0.3856 -0.2745
   89SAPE  H18R 8666   5.617   2.022   5.410 -0.4669  0.1637 -0.1745
   89SAPE  H18S 8667   5.670   2.200   5.423 -0.1457  0.0242 -1.8485
   89SAPE  C219 8668   5.692   2.075   5.608 -0.8346 -0.1063 -0.4335
   89SAPE  H19R 8669   5.588   2.066   5.647  0.3482  0.5361  3.1895
   89SAPE  H19S 8670   5.739   2.163   5.657  0.5351 -0.6358 -0.7688
   89SAPE  C220 8671   5.769   1.950   5.654  0.5668  0.5597  0.0763
   89SAPE  H20R 8672   5.750   1.927   5.761 -2.0975 -2.7657 -0.9240
   89SAPE  H20S 8673   5.878   1.958   5.635  1.1223 -0.7448  2.3858
   89SAPE  H20T 8674   5.728   1.867   5.592  2.2546 -0.3328  0.1003
   89SAPE   C33 8675   6.298   0.905   6.172 -0.3806  0.4009 -0.1061
   89SAPE   H3X 8676   6.188   0.889   6.167 -0.2691 -1.0035  1.3213
   89SAPE   H3Y 8677   6.344   0.817   6.120 -0.6486  0.0867  0.1899
   89SAPE   C34 8678   6.344   1.036   6.108 -0.0672  0.3318  0.1436
   89SAPE   H4X 8679   6.454   1.047   6.119  0.4785 -2.4483 -1.5724
   89SAPE   H4Y 8680   6.303   1.120   6.169 -1.5642  0.0547 -0.4423
   89SAPE   C35 8681   6.303   1.054   5.964  0.2232 -0.2224  0.2896
   89SAPE   H5X 8682   6.305   1.158   5.926  0.5530 -0.7451 -1.2283
   89SAPE   H5Y 8683   6.201   1.017   5.938  0.0212  0.3906  0.2132
   89SAPE   C36 8684   6.400   0.990   5.855  0.4116 -0.1293  0.8203
   89SAPE   H6X 8685   6.399   0.879   5.867 -2.9786 -0.2895 -0.0457
   89SAPE   H6Y 8686   6.504   1.027   5.866  0.9059 -1.4468  0.8479
   89SAPE   C37 8687   6.355   1.023   5.708 -0.1466 -0.8449 -0.2872
   89SAPE   H7X 8688   6.359   1.131   5.686  0.2819 -0.3425  2.0031
   89SAPE   H7Y 8689   6.249   0.988   5.700 -0.5880  0.4481 -0.3010
   89SAPE   C38 8690   6.438   0.945   5.605  0.3833 -0.5231  0.0066
   89SAPE   H8X 8691   6.444   0.839   5.637  2.9781 -0.1310  1.1404
   89SAPE   H8Y 8692   6.537   0.996   5.615 -0.5802  1.2364  1.1138
   89SAPE   C39 8693   6.399   0.956   5.462  0.1753  0.1319 -0.2104
   89SAPE   H9X 8694   6.364   1.060   5.444  1.1104  0.6321  0.7903
   89SAPE   H9Y 8695   6.330   0.881   5.416  3.0929 -0.5843 -3.9110
   89SAPE  C310 8696   6.526   0.939   5.374 -0.1547  0.9236  0.1225
   89SAPE  H10X 8697   6.547   0.830   5.380  2.8046  1.4928  1.7478
   89SAPE  H10Y 8698   6.610   1.001   5.413  0.2846  0.8362 -0.6623
   89SAPE  C311 8699   6.492   0.970   5.224 -0.1571 -0.2356  0.6010
   89SAPE  H11X 8700   6.466   1.077   5.216  0.3709 -0.0214  1.5910
   89SAPE  H11Y 8701   6.393   0.928   5.197 -1.5521  1.8594  2.1422
   89SAPE  C312 8702   6.611   0.948   5.134  0.0278  0.8086  0.6260
   89SAPE  H12X 8703   6.622   0.839   5.117  0.1642  0.9720 -0.4304
   89SAPE  H12Y 8704   6.708   0.981   5.177  1.0133 -0.8344 -0.2276
   89SAPE  C313 8705   6.591   1.010   4.997  0.4919 -0.0443 -0.5235
   89SAPE  H13X 8706   6.568   1.117   5.011 -2.9231 -0.7408  0.0780
   89SAPE  H13Y 8707   6.503   0.971   4.942  1.6134 -0.1175 -2.3861
   89SAPE  C314 8708   6.712   0.998   4.902  0.4141  0.2326 -0.2014
   89SAPE  H14X 8709   6.738   0.891   4.887 -1.5760 -0.1434 -1.3510
   89SAPE  H14Y 8710   6.803   1.040   4.950 -0.0059  1.1247 -0.1691
   89SAPE  C315 8711   6.690   1.067   4.763  0.7097  0.3861 -0.2794
   89SAPE  H15X 8712   6.787   1.066   4.709  1.1058 -2.5268  0.3238
   89SAPE  H15Y 8713   6.663   1.171   4.791  0.8881  0.0943  1.0703
   89SAPE  C316 8714   6.593   1.000   4.666  0.6362 -0.2357 -0.1757
   89SAPE  H16X 8715   6.499   0.984   4.724  0.8142  1.1920  0.5555
   89SAPE  H16Y 8716   6.638   0.907   4.626  1.0649 -0.0435 -0.1509
   89SAPE  C317 8717   6.565   1.090   4.542  0.4818 -0.0988 -0.4143
   89SAPE  H17X 8718   6.654   1.112   4.478 -0.0153 -2.9651 -2.2786
   89SAPE  H17Y 8719   6.536   1.187   4.588 -2.2848 -2.1166  2.4676
   89SAPE  C318 8720   6.463   1.032   4.444  0.8633  0.1219  0.0478
   89SAPE  H18X 8721   6.366   1.010   4.494 -0.6112  3.1391 -1.2010
   89SAPE  H18Y 8722   6.500   0.930   4.423 -1.0296 -1.1594  2.4089
   89SAPE  H18Z 8723   6.442   1.095   4.355 -3.7793 -0.3887  0.5433
   90SAPE     N 8724   3.478   5.906   6.495 -0.8754 -0.1484 -0.3204
   90SAPE   HN1 8725   3.463   5.901   6.598 -1.6473  0.1972 -0.4125
   90SAPE   HN2 8726   3.391   5.876   6.448 -1.6262 -0.2977  1.1179
   90SAPE   HN3 8727   3.553   5.844   6.456 -2.3215 -0.8287 -2.1944
   90SAPE   C12 8728   3.502   6.049   6.478 -0.6580  0.0753 -0.0181
   90SAPE  H12A 8729   3.530   6.068   6.372 -0.4201  0.2306  0.0716
   90SAPE  H12B 8730   3.582   6.084   6.546 -0.3263 -0.9062  0.1211
   90SAPE   C11 8731   3.369   6.117   6.508 -0.5034  0.3300 -0.6119
   90SAPE  H11A 8732   3.389   6.225   6.486 -1.8283  0.5736 -0.6851
   90SAPE  H11B 8733   3.347   6.112   6.617 -0.0442 -0.6803 -0.5578
   90SAPE     P 8734   3.129   6.151   6.417  0.4983  0.1291 -0.0954
   90SAPE   O13 8735   3.017   6.084   6.345 -0.2957  0.1705  0.3079
   90SAPE   O14 8736   3.107   6.212   6.548 -0.0941 -0.1925 -0.4250
   90SAPE   O12 8737   3.260   6.064   6.422 -0.9960  0.0143  0.2388
   90SAPE   O11 8738   3.171   6.275   6.329  0.5722  0.5245  0.6425
   90SAPE    C1 8739   3.263   6.254   6.222 -0.1099  0.5754 -0.6340
   90SAPE    HA 8740   3.361   6.211   6.253  0.4160  1.0820 -1.5405
   90SAPE    HB 8741   3.217   6.194   6.141  0.4825  0.2734 -0.7535
   90SAPE    C2 8742   3.308   6.384   6.161 -1.1727 -0.6577  0.8406
   90SAPE    HS 8743   3.374   6.424   6.240 -0.0424 -1.7647  0.4868
   90SAPE   O21 8744   3.197   6.475   6.137  0.4122 -0.1983  0.0747
   90SAPE   C21 8745   3.222   6.598   6.111  0.5522 -0.3373 -0.3078
   90SAPE   O22 8746   3.328   6.654   6.128 -0.4267 -0.0606  0.0869
   90SAPE   C22 8747   3.091   6.649   6.048 -0.2030  0.0674  0.3091
   90SAPE   H2R 8748   3.059   6.577   5.969  1.7823  1.6709 -2.1163
   90SAPE   H2S 8749   3.010   6.661   6.123  0.7770 -2.4261  1.8925
   90SAPE    C3 8750   3.397   6.358   6.037  0.0443  0.3498 -0.3408
   90SAPE    HX 8751   3.460   6.269   6.058 -0.6951 -0.3748 -1.1206
   90SAPE    HY 8752   3.460   6.448   6.022  0.5116  0.2307  0.7859
   90SAPE   O31 8753   3.314   6.328   5.920 -0.0806 -0.1963 -0.3197
   90SAPE   C31 8754   3.380   6.341   5.806  0.4926  0.3959 -0.0490
   90SAPE   O32 8755   3.492   6.380   5.795  0.0514 -0.0709  0.1504
   90SAPE   C32 8756   3.287   6.330   5.691 -0.2610  0.2175 -0.3542
   90SAPE   H2X 8757   3.213   6.254   5.726  0.0795  0.2407  0.4468
   90SAPE   H2Y 8758   3.347   6.288   5.608 -0.8057 -0.2895 -0.4986
   90SAPE   C23 8759   3.115   6.784   5.968  0.5801 -0.6360  0.6451
   90SAPE   H3R 8760   3.174   6.851   6.033 -0.1427 -2.0928  2.9410
   90SAPE   H3S 8761   3.020   6.838   5.947 -1.9538 -5.1610 -1.0626
   90SAPE   C24 8762   3.172   6.772   5.820 -0.5434 -0.6264 -0.1661
   90SAPE   H4R 8763   3.105   6.699   5.769 -1.5279  1.5128 -2.0758
   90SAPE   H4S 8764   3.271   6.725   5.840 -1.0161 -0.2311  4.0382
   90SAPE   C25 8765   3.170   6.908   5.752 -0.8784 -0.4493  0.3270
   90SAPE   H5R 8766   3.219   6.982   5.816 -1.8542  1.8424 -1.4053
   90SAPE   C26 8767   3.125   6.953   5.631  0.0066 -0.0351  0.1442
   90SAPE   H6R 8768   3.151   7.059   5.616  4.2356 -0.6140  1.7552
   90SAPE   C27 8769   3.068   6.882   5.515 -0.3751 -0.3016 -0.6612
   90SAPE   H7R 8770   2.988   6.948   5.474 -2.1536 -1.0577  1.4063
   90SAPE   H7S 8771   3.002   6.805   5.561  1.3136 -2.1224 -1.1614
   90SAPE   C28 8772   3.148   6.819   5.401  0.4103  0.0405 -0.5868
   90SAPE   H8R 8773   3.197   6.723   5.424  0.2065 -0.5437 -2.3925
   90SAPE   C29 8774   3.184   6.873   5.286  1.1133 -0.1274 -0.1989
   90SAPE   H9R 8775   3.235   6.819   5.205  0.7766  0.4668 -0.8137
   90SAPE  C210 8776   3.146   7.016   5.239  0.0625 -0.2800  0.3319
   90SAPE  H10R 8777   3.116   7.082   5.324 -1.6677 -0.0086 -0.4398
   90SAPE  H10S 8778   3.061   7.005   5.169 -0.8469  1.0424  1.1845
   90SAPE  C211 8779   3.268   7.085   5.171 -0.5351  0.5970  0.5057
   90SAPE  H11R 8780   3.355   7.067   5.235 -1.0703 -4.0151  0.2792
   90SAPE  C212 8781   3.263   7.181   5.081 -0.2422  0.0676  0.5819
   90SAPE  H12R 8782   3.360   7.218   5.045 -0.3901  0.3279  0.4491
   90SAPE  C213 8783   3.140   7.255   5.024 -0.8532  0.0261 -0.0527
   90SAPE  H13R 8784   3.172   7.355   4.988  1.0257 -0.8651 -0.9760
   90SAPE  H13S 8785   3.066   7.272   5.106 -1.9660 -1.9204 -0.5746
   90SAPE  C214 8786   3.080   7.185   4.906  0.0684  0.0204  0.0131
   90SAPE  H14R 8787   2.993   7.123   4.932  0.6467 -0.7665  0.1375
   90SAPE  C215 8788   3.114   7.186   4.776 -0.4667 -0.1443 -0.1001
   90SAPE  H15R 8789   3.062   7.123   4.702  1.2707 -0.5228 -1.0545
   90SAPE  C216 8790   3.226   7.264   4.708 -0.1406  0.3494 -0.2736
   90SAPE  H16R 8791   3.296   7.181   4.687 -0.8222 -0.1045 -0.7835
   90SAPE  H16S 8792   3.273   7.331   4.783 -3.4813  1.7404  0.8008
   90SAPE  C217 8793   3.196   7.348   4.580 -0.1426 -0.4693  0.1054
   90SAPE  H17R 8794   3.277   7.424   4.574  0.7056 -1.3151  0.4769
   90SAPE  H17S 8795   3.102   7.407   4.574 -0.3054 -0.8062 -0.6747
   90SAPE  C218 8796   3.205   7.273   4.451  0.3114  0.1050  0.6998
   90SAPE  H18R 8797   3.135   7.187   4.457  0.2602  0.0972 -0.0054
   90SAPE  H18S 8798   3.309   7.233   4.444  0.0879 -0.2805 -0.4769
   90SAPE  C219 8799   3.173   7.359   4.323  0.0755  0.0267 -1.6399
   90SAPE  H19R 8800   3.263   7.423   4.312  1.3647 -1.6568 -1.3006
   90SAPE  H19S 8801   3.080   7.418   4.340  0.5496  1.3633 -3.4314
   90SAPE  C220 8802   3.149   7.283   4.193  0.0115  0.4182 -0.6811
   90SAPE  H20R 8803   3.121   7.352   4.111  1.0320  1.5346 -0.1189
   90SAPE  H20S 8804   3.076   7.201   4.213  1.4740 -0.5036  1.2796
   90SAPE  H20T 8805   3.242   7.234   4.156 -0.0683 -0.0112 -0.3299
   90SAPE   C33 8806   3.212   6.463   5.660  0.9137 -0.0795  0.6816
   90SAPE   H3X 8807   3.292   6.540   5.650 -0.0893  0.9951  0.6501
   90SAPE   H3Y 8808   3.143   6.492   5.743  1.0296  2.2122  0.0591
   90SAPE   C34 8809   3.118   6.444   5.536 -0.6507 -0.7818  0.0565
   90SAPE   H4X 8810   3.048   6.531   5.531 -1.5449 -1.3850  1.4244
   90SAPE   H4Y 8811   3.050   6.357   5.550 -0.8866 -0.3455  1.8996
   90SAPE   C35 8812   3.188   6.420   5.404  0.0709  1.0710 -0.7608
   90SAPE   H5X 8813   3.237   6.320   5.399  0.9784  1.3219  1.6393
   90SAPE   H5Y 8814   3.260   6.503   5.392 -1.3319  2.2325 -1.4524
   90SAPE   C36 8815   3.083   6.425   5.290 -0.2412 -0.7952 -0.1234
   90SAPE   H6X 8816   3.051   6.531   5.281 -0.2846 -0.5253  2.4290
   90SAPE   H6Y 8817   2.993   6.370   5.324  0.3482  0.0543  3.2145
   90SAPE   C37 8818   3.141   6.383   5.160  0.0436 -0.6951  0.1039
   90SAPE   H7X 8819   3.166   6.275   5.165  1.8230 -0.2966  0.3786
   90SAPE   H7Y 8820   3.237   6.434   5.136 -0.4180 -0.4263 -1.3249
   90SAPE   C38 8821   3.043   6.418   5.036  0.1742 -0.1076  0.2732
   90SAPE   H8X 8822   2.945   6.449   5.077  1.0087  1.6262  1.0890
   90SAPE   H8Y 8823   3.015   6.329   4.977 -0.8139  0.5953 -0.3475
   90SAPE   C39 8824   3.097   6.540   4.955  0.3388  0.2925  0.5415
   90SAPE   H9X 8825   3.177   6.503   4.888  0.1962  1.3617 -0.2442
   90SAPE   H9Y 8826   3.148   6.623   5.008 -1.4994  2.9412 -1.5456
   90SAPE  C310 8827   2.986   6.597   4.868  0.3499  0.2190 -0.1051
   90SAPE  H10X 8828   2.894   6.617   4.928 -0.6979 -0.3127 -1.4965
   90SAPE  H10Y 8829   2.957   6.513   4.801  0.6020  1.4441 -1.8097
   90SAPE  C311 8830   3.023   6.714   4.784 -0.0356 -0.0360  0.3987
   90SAPE  H11X 8831   3.130   6.711   4.754 -0.3505  3.3574 -1.5713
   90SAPE  H11Y 8832   3.015   6.807   4.845  0.6287  1.0742 -1.1404
   90SAPE  C312 8833   2.920   6.739   4.672  0.1569 -0.3496  0.4568
   90SAPE  H12X 8834   2.818   6.750   4.714  0.2725  1.0101  0.4176
   90SAPE  H12Y 8835   2.898   6.648   4.612 -3.2688 -0.2404  1.3482
   90SAPE  C313 8836   2.945   6.866   4.593 -0.2060  0.2011  0.3103
   90SAPE  H13X 8837   3.052   6.866   4.563 -0.1256  1.7114  0.5332
   90SAPE  H13Y 8838   2.940   6.961   4.651 -1.4233  0.4917 -0.2572
   90SAPE  C314 8839   2.837   6.865   4.484 -0.4275  0.4158 -0.3505
   90SAPE  H14X 8840   2.742   6.865   4.543 -0.3503 -3.3399  0.0361
   90SAPE  H14Y 8841   2.836   6.775   4.419  2.3131  0.6329 -0.7969
   90SAPE  C315 8842   2.845   6.983   4.396  0.8627 -1.1982  0.2562
   90SAPE  H15X 8843   2.951   7.004   4.368  0.7507 -0.6893  0.2167
   90SAPE  H15Y 8844   2.812   7.075   4.448 -1.3959 -1.8426  0.0504
   90SAPE  C316 8845   2.772   6.973   4.260 -0.3063  1.0046 -0.2175
   90SAPE  H16X 8846   2.811   6.888   4.199  3.7629  1.1938  1.8043
   90SAPE  H16Y 8847   2.802   7.066   4.207  2.5134  1.5940  2.1885
   90SAPE  C317 8848   2.618   6.950   4.273 -0.3731  0.0778  0.1019
   90SAPE  H17X 8849   2.566   7.045   4.301 -4.4750 -2.3878  1.8331
   90SAPE  H17Y 8850   2.590   6.891   4.363  1.5001 -0.4232  0.3832
   90SAPE  C318 8851   2.544   6.884   4.157  0.4066  0.0672 -0.1259
   90SAPE  H18X 8852   2.594   6.793   4.118 -0.9915 -0.7794 -0.0268
   90SAPE  H18Y 8853   2.534   6.954   4.072 -0.1869 -0.2803 -0.3512
   90SAPE  H18Z 8854   2.446   6.852   4.198  1.2163 -2.4505  0.0223
   91SAPE     N 8855   5.701   3.913   6.276  0.0632 -0.3333  0.6155
   91SAPE   HN1 8856   5.639   3.996   6.288  1.2280  0.9045 -1.2316
   91SAPE   HN2 8857   5.691   3.859   6.364  1.4742 -1.0502  0.3622
   91SAPE   HN3 8858   5.801   3.931   6.258 -0.5030  0.9489 -1.6066
   91SAPE   C12 8859   5.654   3.849   6.149 -0.7772  0.9639  0.1316
   91SAPE  H12A 8860   5.685   3.913   6.063 -0.4749  1.6459  0.7345
   91SAPE  H12B 8861   5.544   3.862   6.159 -1.3836 -2.6337 -0.4209
   91SAPE   C11 8862   5.701   3.706   6.133  0.1017  0.0238 -0.3914
   91SAPE  H11A 8863   5.803   3.708   6.088 -0.0031  0.3862 -0.6159
   91SAPE  H11B 8864   5.648   3.637   6.064  0.2170 -0.1234 -0.3340
   91SAPE     P 8865   5.581   3.552   6.306 -0.1115  0.0179 -0.0401
   91SAPE   O13 8866   5.572   3.548   6.456 -0.2577 -0.0099  0.3221
   91SAPE   O14 8867   5.460   3.601   6.227 -0.5883  0.0342  0.3580
   91SAPE   O12 8868   5.702   3.639   6.264 -0.1216 -0.1759 -0.1334
   91SAPE   O11 8869   5.620   3.413   6.252 -0.4697 -0.6041 -0.5668
   91SAPE    C1 8870   5.572   3.293   6.314  0.3404  0.7500  0.1062
   91SAPE    HA 8871   5.508   3.317   6.402 -0.2623 -0.0481 -0.1067
   91SAPE    HB 8872   5.497   3.250   6.244  0.4918 -1.2681  1.1189
   91SAPE    C2 8873   5.676   3.179   6.345  0.4300  0.2554  0.1661
   91SAPE    HS 8874   5.727   3.219   6.435  0.9390  0.0174 -0.0057
   91SAPE   O21 8875   5.767   3.167   6.235  0.1674  0.0454 -0.2849
   91SAPE   C21 8876   5.871   3.246   6.246  0.1860 -0.4395 -0.1118
   91SAPE   O22 8877   5.913   3.291   6.353  0.1837 -0.0863  0.9200
   91SAPE   C22 8878   5.925   3.287   6.109  0.2231 -0.3241  0.7641
   91SAPE   H2R 8879   5.952   3.197   6.050  0.7494  1.2750 -1.5798
   91SAPE   H2S 8880   5.846   3.352   6.064  0.4636  0.1211  0.9768
   91SAPE    C3 8881   5.612   3.039   6.375  0.6219 -0.0762  0.7005
   91SAPE    HX 8882   5.547   3.054   6.464  1.1255  2.3091  0.7397
   91SAPE    HY 8883   5.697   2.978   6.412  0.4837 -0.4595  0.3860
   91SAPE   O31 8884   5.550   2.980   6.256 -0.5433  0.5760 -0.0302
   91SAPE   C31 8885   5.424   2.980   6.248 -0.1560  0.3255 -0.6612
   91SAPE   O32 8886   5.352   3.021   6.340 -0.4346  0.2934 -0.1742
   91SAPE   C32 8887   5.381   2.896   6.131 -0.0123 -0.1547  0.5358
   91SAPE   H2X 8888   5.281   2.850   6.150 -0.3882  0.0212 -0.9334
   91SAPE   H2Y 8889   5.453   2.814   6.114 -0.0459  0.1548 -1.2720
   91SAPE   C23 8890   6.056   3.368   6.128 -0.1391  0.4539 -0.1418
   91SAPE   H3R 8891   6.123   3.306   6.191 -0.8509 -0.9158 -0.6921
   91SAPE   H3S 8892   6.027   3.451   6.195 -0.0373 -0.5158  1.1274
   91SAPE   C24 8893   6.116   3.424   6.001 -0.1713  0.0571  0.4792
   91SAPE   H4R 8894   6.167   3.348   5.940 -0.6924 -0.8949  1.1986
   91SAPE   H4S 8895   6.194   3.499   6.029  0.3877  0.1260 -1.1751
   91SAPE   C25 8896   6.016   3.517   5.928 -0.7799 -0.9985  0.2873
   91SAPE   H5R 8897   5.980   3.597   5.993 -0.6288 -1.2880  0.7388
   91SAPE   C26 8898   5.968   3.497   5.803 -0.0057 -0.1283  0.3345
   91SAPE   H6R 8899   5.892   3.563   5.760  0.5022 -1.3171 -2.6044
   91SAPE   C27 8900   6.015   3.380   5.714 -0.1816 -0.9271 -0.0697
   91SAPE   H7R 8901   6.040   3.285   5.766 -3.0505 -2.2834 -0.9794
   91SAPE   H7S 8902   6.106   3.410   5.657 -1.4598  0.3457 -1.5621
   91SAPE   C28 8903   5.902   3.355   5.621  0.0598 -0.0269 -0.1114
   91SAPE   H8R 8904   5.810   3.303   5.654  1.2267 -4.7045 -3.2395
   91SAPE   C29 8905   5.908   3.366   5.487  0.1277  0.0686 -0.4322
   91SAPE   H9R 8906   5.823   3.341   5.421 -0.4142  0.8328 -0.0356
   91SAPE  C210 8907   6.029   3.407   5.401 -0.1686  0.2712 -0.3411
   91SAPE  H10R 8908   6.002   3.371   5.299 -2.8832 -3.9627  1.5868
   91SAPE  H10S 8909   6.113   3.344   5.436  0.3223  0.8281 -0.5051
   91SAPE  C211 8910   6.066   3.550   5.386 -0.1435 -0.9825 -0.7863
   91SAPE  H11R 8911   5.990   3.621   5.422  0.0321 -0.4537 -1.4359
   91SAPE  C212 8912   6.185   3.596   5.336 -0.2692 -0.0411 -0.2920
   91SAPE  H12R 8913   6.195   3.705   5.322  1.3011 -0.1656 -0.3914
   91SAPE  C213 8914   6.301   3.512   5.289 -0.3152 -0.1924 -0.0730
   91SAPE  H13R 8915   6.294   3.407   5.326  0.1469 -0.4865 -0.8040
   91SAPE  H13S 8916   6.395   3.558   5.326 -0.4111  0.1873 -0.2978
   91SAPE  C214 8917   6.308   3.526   5.140  0.0072 -0.6654 -0.6513
   91SAPE  H14R 8918   6.250   3.459   5.075 -1.5445  0.5169 -0.5386
   91SAPE  C215 8919   6.376   3.615   5.070  0.0498  0.5877 -0.1821
   91SAPE  H15R 8920   6.379   3.590   4.963 -1.6044 -2.0726  0.3184
   91SAPE  C216 8921   6.479   3.718   5.103  0.3051  0.3759 -0.8227
   91SAPE  H16R 8922   6.581   3.686   5.071  1.2834  1.2476  1.2312
   91SAPE  H16S 8923   6.469   3.737   5.212 -1.8895 -1.5711 -0.6097
   91SAPE  C217 8924   6.444   3.852   5.039  0.3387 -0.0922 -0.4538
   91SAPE  H17R 8925   6.392   3.844   4.941 -0.8900 -0.1260  0.1755
   91SAPE  H17S 8926   6.535   3.915   5.033  0.8936 -0.9297 -0.9365
   91SAPE  C218 8927   6.350   3.931   5.131  0.0203  0.1672 -0.0918
   91SAPE  H18R 8928   6.394   3.942   5.232  2.7755  0.3522 -1.2267
   91SAPE  H18S 8929   6.259   3.869   5.145  0.2458 -0.2139 -0.3183
   91SAPE  C219 8930   6.310   4.069   5.089 -0.0794 -1.0351  0.1234
   91SAPE  H19R 8931   6.260   4.112   5.178  1.0858  0.7983 -0.0616
   91SAPE  H19S 8932   6.240   4.081   5.004  2.2616  2.8688 -1.5227
   91SAPE  C220 8933   6.427   4.156   5.059  0.1966  0.2763  0.0852
   91SAPE  H20R 8934   6.498   4.158   5.144 -1.3098  0.3897  1.3890
   91SAPE  H20S 8935   6.395   4.262   5.050  2.1109  1.1860  2.7372
   91SAPE  H20T 8936   6.467   4.125   4.960 -0.0721  3.0194 -0.9744
   91SAPE   C33 8937   5.382   2.965   5.992  0.0373 -0.0008  0.9678
   91SAPE   H3X 8938   5.318   3.052   5.966  2.0924  1.0537 -0.8900
   91SAPE   H3Y 8939   5.364   2.885   5.917  0.8010 -0.5878  1.3880
   91SAPE   C34 8940   5.515   3.021   5.948 -0.3263  0.0857 -0.0144
   91SAPE   H4X 8941   5.592   2.942   5.959 -1.2507 -1.0182 -1.0946
   91SAPE   H4Y 8942   5.538   3.102   6.019  1.5865 -0.1218 -0.3511
   91SAPE   C35 8943   5.501   3.062   5.806 -0.0405  0.3140 -0.1031
   91SAPE   H5X 8944   5.420   3.016   5.746  0.0958  1.1313 -0.9387
   91SAPE   H5Y 8945   5.594   3.038   5.750 -0.5939 -1.6009 -0.2656
   91SAPE   C36 8946   5.479   3.216   5.787  0.8921  0.5942 -0.2863
   91SAPE   H6X 8947   5.568   3.277   5.812 -0.3504  2.6947 -0.7783
   91SAPE   H6Y 8948   5.398   3.240   5.860  0.8119 -1.6011  0.4166
   91SAPE   C37 8949   5.418   3.247   5.644 -0.7893 -0.1731  0.0662
   91SAPE   H7X 8950   5.385   3.352   5.648 -0.8272 -0.2120  1.4104
   91SAPE   H7Y 8951   5.335   3.179   5.615 -0.4794 -1.5918  2.1837
   91SAPE   C38 8952   5.527   3.231   5.538  0.0871 -0.7294  0.2952
   91SAPE   H8X 8953   5.573   3.130   5.528  0.4273 -0.5419 -0.0257
   91SAPE   H8Y 8954   5.607   3.304   5.562 -0.0878 -0.7558  0.9673
   91SAPE   C39 8955   5.470   3.269   5.402  0.0303 -0.0883  0.2136
   91SAPE   H9X 8956   5.428   3.372   5.411  1.5456  0.4938  0.9885
   91SAPE   H9Y 8957   5.389   3.198   5.375 -0.3931  0.3942  0.1988
   91SAPE  C310 8958   5.576   3.283   5.289  0.1143  1.0871 -0.5712
   91SAPE  H10X 8959   5.649   3.364   5.314  0.1299  1.5586 -2.0392
   91SAPE  H10Y 8960   5.524   3.318   5.197  1.2948 -0.0811 -1.7237
   91SAPE  C311 8961   5.656   3.167   5.240  0.2149 -0.2720 -0.0462
   91SAPE  H11X 8962   5.582   3.103   5.186 -1.4132  0.2279  1.4773
   91SAPE  H11Y 8963   5.678   3.108   5.331 -1.2845 -0.2545  0.3665
   91SAPE  C312 8964   5.761   3.211   5.136  0.5926 -0.8498  0.5361
   91SAPE  H12X 8965   5.817   3.294   5.184 -1.0715 -0.3882  1.7685
   91SAPE  H12Y 8966   5.712   3.247   5.043 -0.8956  0.2084  1.6949
   91SAPE  C313 8967   5.846   3.095   5.081  0.1438  0.0118 -1.0703
   91SAPE  H13X 8968   5.796   3.043   4.997 -0.2725  0.1134 -0.8934
   91SAPE  H13Y 8969   5.849   3.017   5.160  1.2555  0.8421 -0.2563
   91SAPE  C314 8970   5.990   3.137   5.063  0.3014 -0.4650 -0.3904
   91SAPE  H14X 8971   6.061   3.052   5.067  0.8403 -0.1101 -1.7057
   91SAPE  H14Y 8972   6.026   3.211   5.138  0.3768 -0.6225 -0.2716
   91SAPE  C315 8973   6.029   3.206   4.932 -0.0660  0.3009  0.1978
   91SAPE  H15X 8974   5.983   3.144   4.852 -3.0282  1.1582  1.1213
   91SAPE  H15Y 8975   6.139   3.195   4.919  0.1863  0.7895  1.7303
   91SAPE  C316 8976   5.986   3.353   4.918 -0.6780  0.9978  0.0835
   91SAPE  H16X 8977   6.001   3.397   5.019  0.6481 -1.3373  0.9905
   91SAPE  H16Y 8978   5.876   3.351   4.900 -0.1563 -1.3506 -4.3004
   91SAPE  C317 8979   6.061   3.437   4.814 -0.0792  0.0753  0.1107
   91SAPE  H17X 8980   6.166   3.457   4.844 -1.0578 -0.4868  4.7031
   91SAPE  H17Y 8981   6.004   3.531   4.832 -1.4777 -1.0073  1.6792
   91SAPE  C318 8982   6.046   3.375   4.676 -0.3316  0.1152 -0.6939
   91SAPE  H18X 8983   6.064   3.453   4.600 -1.0559  0.6368 -0.3420
   91SAPE  H18Y 8984   5.954   3.315   4.661  0.9021 -2.1168  0.0606
   91SAPE  H18Z 8985   6.135   3.310   4.660  1.2717  1.6579  1.3183
   92SAPE     N 8986   6.760   0.735   6.881  0.7847 -0.0713 -0.1607
   92SAPE   HN1 8987   6.775   0.790   6.968 -0.6866 -0.7584  0.5616
   92SAPE   HN2 8988   6.694   0.656   6.899  1.1492 -0.6762 -1.3928
   92SAPE   HN3 8989   6.851   0.697   6.847 -0.1475 -3.3292  0.5891
   92SAPE   C12 8990   6.703   0.831   6.775 -0.2528  0.0677 -0.9544
   92SAPE  H12A 8991   6.795   0.860   6.721 -0.4722 -0.7054 -1.7677
   92SAPE  H12B 8992   6.660   0.917   6.831  0.4549  0.3665 -0.8580
   92SAPE   C11 8993   6.598   0.764   6.683  0.8240 -1.1862 -0.0073
   92SAPE  H11A 8994   6.640   0.683   6.619 -0.5632 -1.0827 -1.0919
   92SAPE  H11B 8995   6.574   0.836   6.602  0.7518 -1.2479 -0.0410
   92SAPE     P 8996   6.464   0.571   6.796  0.3556  0.0529  0.7201
   92SAPE   O13 8997   6.585   0.529   6.861 -0.6841  0.2024 -0.0996
   92SAPE   O14 8998   6.342   0.551   6.878 -0.0368 -0.1064  0.2494
   92SAPE   O12 8999   6.475   0.726   6.746  0.3119 -0.0615  0.4436
   92SAPE   O11 9000   6.454   0.490   6.660  0.2597  0.0301 -0.1637
   92SAPE    C1 9001   6.336   0.511   6.578 -0.5023 -0.1762 -0.0041
   92SAPE    HA 9002   6.258   0.438   6.610  1.0350 -1.8454  0.0904
   92SAPE    HB 9003   6.293   0.613   6.573  0.4788  0.1854 -1.8984
   92SAPE    C2 9004   6.363   0.488   6.422 -0.4255  0.3414  0.1056
   92SAPE    HS 9005   6.385   0.379   6.415 -0.9796  0.3601 -3.3566
   92SAPE   O21 9006   6.480   0.571   6.394 -0.5768 -0.0913  0.0423
   92SAPE   C21 9007   6.549   0.531   6.288 -0.3288 -0.1866 -0.2874
   92SAPE   O22 9008   6.535   0.429   6.225  0.2738 -0.2754 -0.4132
   92SAPE   C22 9009   6.654   0.641   6.256  0.4637 -0.3076 -0.3133
   92SAPE   H2R 9010   6.613   0.735   6.298 -1.9548 -2.2960  2.2174
   92SAPE   H2S 9011   6.729   0.601   6.328 -0.2697 -0.2218  0.5104
   92SAPE    C3 9012   6.236   0.532   6.343 -0.3788  0.3328  0.3604
   92SAPE    HX 9013   6.214   0.631   6.388  1.5743  0.8689  0.2336
   92SAPE    HY 9014   6.142   0.473   6.353  0.6506 -1.3489  0.6165
   92SAPE   O31 9015   6.261   0.553   6.204  0.4077 -0.3892  0.0682
   92SAPE   C31 9016   6.247   0.445   6.130  0.6349  0.7382 -0.2808
   92SAPE   O32 9017   6.228   0.336   6.186  0.1946  0.0526  0.0775
   92SAPE   C32 9018   6.246   0.488   5.983 -0.7926  0.2041 -0.6531
   92SAPE   H2X 9019   6.201   0.404   5.925 -0.1104  0.1361 -1.0986
   92SAPE   H2Y 9020   6.350   0.505   5.947 -0.3669  0.0485  0.4703
   92SAPE   C23 9021   6.701   0.645   6.114 -0.2522  0.1934 -0.6199
   92SAPE   H3R 9022   6.706   0.543   6.070 -3.1802 -0.1614 -0.3458
   92SAPE   H3S 9023   6.803   0.686   6.105 -1.0380  2.8011  1.2171
   92SAPE   C24 9024   6.610   0.722   6.023  0.0049  0.4994 -0.0661
   92SAPE   H4R 9025   6.570   0.816   6.068 -0.5414  0.0702  0.3681
   92SAPE   H4S 9026   6.523   0.656   6.005  0.7128 -0.3436 -0.4700
   92SAPE   C25 9027   6.676   0.748   5.886  0.2582 -0.4318 -0.3821
   92SAPE   H5R 9028   6.748   0.830   5.877 -1.3021  1.1253  0.5728
   92SAPE   C26 9029   6.646   0.677   5.776  0.0386  0.2438 -0.7055
   92SAPE   H6R 9030   6.692   0.713   5.682 -0.8855  1.8064 -0.6067
   92SAPE   C27 9031   6.571   0.547   5.768 -0.0371 -0.0658 -0.0268
   92SAPE   H7R 9032   6.475   0.570   5.819  0.5128  0.6255  0.7123
   92SAPE   H7S 9033   6.624   0.473   5.831  0.7008 -0.0456 -0.6128
   92SAPE   C28 9034   6.549   0.500   5.623  0.1747  0.1073 -0.2251
   92SAPE   H8R 9035   6.639   0.462   5.572  0.0163 -0.1706 -0.3048
   92SAPE   C29 9036   6.435   0.507   5.550 -0.3543 -0.0531  0.3047
   92SAPE   H9R 9037   6.439   0.469   5.447  3.5435  1.2258 -0.1871
   92SAPE  C210 9038   6.297   0.565   5.582 -0.8231 -0.3625  0.4619
   92SAPE  H10R 9039   6.283   0.626   5.490  0.3304 -1.0080 -0.1571
   92SAPE  H10S 9040   6.295   0.628   5.674 -0.4232  0.3653 -0.0165
   92SAPE  C211 9041   6.175   0.471   5.603  0.3709 -0.4407  0.2895
   92SAPE  H11R 9042   6.186   0.411   5.694 -2.3159  1.3989  1.9729
   92SAPE  C212 9043   6.058   0.454   5.533 -0.0070  0.6937  0.3013
   92SAPE  H12R 9044   6.001   0.365   5.565  3.7504 -1.5112  1.4894
   92SAPE  C213 9045   6.015   0.534   5.410 -0.1909  0.2490  0.5811
   92SAPE  H13R 9046   5.989   0.467   5.325  1.5211  1.1383 -0.6999
   92SAPE  H13S 9047   6.107   0.588   5.380 -0.3833  0.7824  0.9486
   92SAPE  C214 9048   5.884   0.614   5.428 -0.3866 -0.3347  0.1900
   92SAPE  H14R 9049   5.795   0.558   5.460 -1.1278  0.3470 -0.6358
   92SAPE  C215 9050   5.869   0.743   5.396  0.2985  0.0369  0.8365
   92SAPE  H15R 9051   5.771   0.791   5.405  0.4247  0.2480  1.1079
   92SAPE  C216 9052   5.971   0.833   5.331 -0.1877 -0.4301 -0.2713
   92SAPE  H16R 9053   5.934   0.883   5.239 -0.1501  1.2374  0.5868
   92SAPE  H16S 9054   6.050   0.768   5.286  1.8321  0.6663  1.5180
   92SAPE  C217 9055   6.038   0.920   5.439  0.2198  0.6381  0.8756
   92SAPE  H17R 9056   6.127   0.969   5.393  1.3582 -0.7933  1.4927
   92SAPE  H17S 9057   6.081   0.860   5.522 -1.2434 -0.5823  0.7799
   92SAPE  C218 9058   5.942   1.035   5.480  0.7027 -0.2917 -0.7875
   92SAPE  H18R 9059   5.852   0.984   5.522  0.2765  2.1841  1.5682
   92SAPE  H18S 9060   5.916   1.107   5.399  1.2485  2.7978  1.6100
   92SAPE  C219 9061   6.002   1.126   5.587  0.1785  0.3013  0.1251
   92SAPE  H19R 9062   6.089   1.180   5.544 -0.1787 -0.7248 -2.0259
   92SAPE  H19S 9063   6.041   1.061   5.669  0.3091 -2.9601 -2.3232
   92SAPE  C220 9064   5.912   1.239   5.628  0.6105 -0.3227 -0.5322
   92SAPE  H20R 9065   5.877   1.287   5.534  0.6271 -0.2151 -0.4841
   92SAPE  H20S 9066   5.960   1.302   5.706  0.9692 -0.2637 -0.7941
   92SAPE  H20T 9067   5.822   1.192   5.671 -0.2383  2.0350  0.4418
   92SAPE   C33 9068   6.156   0.615   5.952  0.4900  0.5334 -0.5228
   92SAPE   H3X 9069   6.171   0.649   5.847  1.5176  0.2312 -0.4809
   92SAPE   H3Y 9070   6.199   0.696   6.014 -0.4261  0.0967  0.7271
   92SAPE   C34 9071   6.005   0.594   5.973  0.1643  0.0879  0.1490
   92SAPE   H4X 9072   5.947   0.685   5.948 -0.8823 -0.4401  0.5807
   92SAPE   H4Y 9073   5.992   0.579   6.083  0.6956  2.0870  0.5266
   92SAPE   C35 9074   5.944   0.465   5.916  1.0027  0.2084  0.4979
   92SAPE   H5X 9075   5.970   0.374   5.975 -0.6335 -2.7465 -2.9091
   92SAPE   H5Y 9076   5.986   0.443   5.816  1.2982  0.9914  0.4489
   92SAPE   C36 9077   5.794   0.482   5.896  0.3125  0.6665 -0.6539
   92SAPE   H6X 9078   5.772   0.571   5.833 -0.9315  1.1300  0.3899
   92SAPE   H6Y 9079   5.747   0.498   5.995  4.2370 -3.0359  2.2235
   92SAPE   C37 9080   5.722   0.358   5.839  0.0815  0.0360  0.0233
   92SAPE   H7X 9081   5.721   0.275   5.913  0.6131  1.3861  1.6047
   92SAPE   H7Y 9082   5.774   0.313   5.751  0.7799  0.0197  0.4392
   92SAPE   C38 9083   5.570   0.381   5.808 -0.4350 -0.0562  0.1629
   92SAPE   H8X 9084   5.554   0.481   5.763 -1.1808  0.1262  0.8147
   92SAPE   H8Y 9085   5.528   0.387   5.911  0.8374  0.7665  0.6571
   92SAPE   C39 9086   5.510   0.262   5.728 -0.3847  0.0004  0.6040
   92SAPE   H9X 9087   5.405   0.291   5.706 -1.7327 -2.2957  3.3085
   92SAPE   H9Y 9088   5.518   0.184   5.807  2.4773  0.7894  1.2100
   92SAPE  C310 9089   5.573   0.219   5.589 -0.8946 -0.6703 -0.1817
   92SAPE  H10X 9090   5.522   0.125   5.557  0.8313 -1.6676 -0.1311
   92SAPE  H10Y 9091   5.679   0.192   5.607 -1.3671 -1.6505  1.3789
   92SAPE  C311 9092   5.564   0.329   5.482  0.2415  0.5264  0.2568
   92SAPE  H11X 9093   5.623   0.417   5.515  0.3048  1.2813 -1.7507
   92SAPE  H11Y 9094   5.460   0.367   5.470  0.7141  1.4441 -1.1414
   92SAPE  C312 9095   5.613   0.275   5.347 -0.0190 -0.1279  0.8665
   92SAPE  H12X 9096   5.573   0.345   5.271 -0.3012 -0.4921  0.6797
   92SAPE  H12Y 9097   5.556   0.180   5.335  0.2293 -0.0278 -1.4638
   92SAPE  C313 9098   5.764   0.264   5.328 -0.3882 -0.1897 -0.7559
   92SAPE  H13X 9099   5.798   0.170   5.376  0.4407  0.4580 -0.0410
   92SAPE  H13Y 9100   5.827   0.345   5.370 -0.0771 -0.4243 -0.7684
   92SAPE  C314 9101   5.796   0.252   5.177 -0.1912  0.0542  0.2992
   92SAPE  H14X 9102   5.766   0.343   5.121  0.0662 -0.9702 -1.5490
   92SAPE  H14Y 9103   5.742   0.163   5.140  2.3202 -2.2991  1.8747
   92SAPE  C315 9104   5.941   0.220   5.137  0.5527  0.0152  0.3255
   92SAPE  H15X 9105   5.960   0.113   5.157  0.8500 -0.0646 -0.3730
   92SAPE  H15Y 9106   6.017   0.276   5.197  0.1521  0.2382  0.6308
   92SAPE  C316 9107   5.971   0.215   4.985 -0.0429  0.5916  0.3890
   92SAPE  H16X 9108   5.950   0.315   4.940  0.1197 -0.2370 -1.6383
   92SAPE  H16Y 9109   5.901   0.142   4.940  1.3803 -1.0469  0.7361
   92SAPE  C317 9110   6.115   0.173   4.959  0.4270 -0.0314 -0.1520
   92SAPE  H17X 9111   6.154   0.111   5.042 -0.2228  1.4317  1.3084
   92SAPE  H17Y 9112   6.179   0.264   4.964 -1.6533  1.6577 -2.1208
   92SAPE  C318 9113   6.123   0.107   4.824 -0.3504 -1.1065 -0.4959
   92SAPE  H18X 9114   6.190   0.019   4.826 -0.6215 -1.3399  1.7468
   92SAPE  H18Y 9115   6.181   0.176   4.760  0.2288  1.0454  2.1426
   92SAPE  H18Z 9116   6.028   0.062   4.789 -1.5452 -0.5841  1.8648
   93SAPE     N 9117   1.938   3.571   6.774  0.2275 -0.1124 -0.3472
   93SAPE   HN1 9118   1.836   3.576   6.752  0.0907 -1.9162 -0.2630
   93SAPE   HN2 9119   1.946   3.521   6.865 -0.6116  1.2929  0.5323
   93SAPE   HN3 9120   1.984   3.663   6.787  1.4772 -0.4850 -1.8977
   93SAPE   C12 9121   2.001   3.484   6.665  0.4946 -0.3479 -0.3356
   93SAPE  H12A 9122   2.111   3.475   6.682  0.8509 -0.6588 -2.5320
   93SAPE  H12B 9123   1.986   3.530   6.565 -0.6783 -0.1579 -0.0875
   93SAPE   C11 9124   1.921   3.347   6.667 -0.4757 -0.0880 -0.2636
   93SAPE  H11A 9125   1.942   3.298   6.765 -1.2472 -2.0808 -1.0617
   93SAPE  H11B 9126   1.971   3.283   6.592  0.2915  0.0201  0.1454
   93SAPE     P 9127   1.699   3.218   6.608  0.0667  0.1343 -0.5535
   93SAPE   O13 9128   1.766   3.102   6.668  0.1192 -0.5994 -0.0032
   93SAPE   O14 9129   1.566   3.243   6.661 -0.1183  0.1733  0.1952
   93SAPE   O12 9130   1.785   3.356   6.643  0.5908  0.5383  0.6131
   93SAPE   O11 9131   1.698   3.210   6.450  0.2123 -0.2665 -0.1380
   93SAPE    C1 9132   1.701   3.336   6.380 -0.7271  0.0695  0.2992
   93SAPE    HA 9133   1.651   3.320   6.282 -0.1571 -1.1958  0.2009
   93SAPE    HB 9134   1.649   3.426   6.421  0.7713  1.5860 -0.9741
   93SAPE    C2 9135   1.842   3.370   6.327 -0.6083  0.1125  0.6801
   93SAPE    HS 9136   1.900   3.410   6.412  0.3261 -1.5105  0.8366
   93SAPE   O21 9137   1.829   3.464   6.217  0.4483  0.3388  0.4501
   93SAPE   C21 9138   1.936   3.551   6.210  0.0477 -0.2074 -0.0216
   93SAPE   O22 9139   2.030   3.566   6.287 -0.7847 -0.1877 -0.4318
   93SAPE   C22 9140   1.910   3.649   6.096  0.1524  0.2238 -0.1046
   93SAPE   H2R 9141   1.933   3.602   5.998  1.7317 -0.3543  0.5054
   93SAPE   H2S 9142   1.806   3.684   6.110  0.8671  2.6030 -0.2094
   93SAPE    C3 9143   1.921   3.246   6.279 -0.1654  0.0228 -0.4969
   93SAPE    HX 9144   1.867   3.197   6.195 -1.4170  2.7525 -1.4218
   93SAPE    HY 9145   1.914   3.171   6.360 -0.7007 -0.4570 -0.9781
   93SAPE   O31 9146   2.056   3.280   6.252 -0.2164 -0.4090  0.2832
   93SAPE   C31 9147   2.110   3.250   6.132 -0.0124 -0.2875  0.3411
   93SAPE   O32 9148   2.055   3.208   6.031  0.3544 -0.1541 -0.1719
   93SAPE   C32 9149   2.260   3.279   6.145 -0.0519 -1.1139  0.0567
   93SAPE   H2X 9150   2.297   3.197   6.210 -0.6377 -1.7011 -0.3432
   93SAPE   H2Y 9151   2.267   3.374   6.203  0.8088 -1.4571  0.5468
   93SAPE   C23 9152   1.998   3.776   6.099  0.4807  0.1562  0.4693
   93SAPE   H3R 9153   2.107   3.752   6.105  0.7439  0.7047 -1.3422
   93SAPE   H3S 9154   1.956   3.831   6.186 -1.9385 -1.7008  0.5631
   93SAPE   C24 9155   1.976   3.863   5.968 -0.1777  0.2896  0.2635
   93SAPE   H4R 9156   2.022   3.961   5.990  1.1040 -0.7595  2.5764
   93SAPE   H4S 9157   1.867   3.880   5.956  0.1371  1.4639 -1.2553
   93SAPE   C25 9158   2.049   3.809   5.845  0.0603 -0.1632 -0.0764
   93SAPE   H5R 9159   1.978   3.742   5.795 -3.2154  3.0390 -0.0793
   93SAPE   C26 9160   2.183   3.815   5.809  0.4616 -0.4932  0.1110
   93SAPE   H6R 9161   2.214   3.770   5.714  0.4085  1.2691 -0.7660
   93SAPE   C27 9162   2.287   3.900   5.878 -0.1148 -0.0789  0.0359
   93SAPE   H7R 9163   2.289   3.891   5.989 -0.1351  2.7864  0.3382
   93SAPE   H7S 9164   2.266   4.005   5.849 -1.0478 -0.7613 -1.9767
   93SAPE   C28 9165   2.426   3.856   5.829  0.4315  0.0511  0.2524
   93SAPE   H8R 9166   2.478   3.783   5.892  1.9156  0.9175  0.0665
   93SAPE   C29 9167   2.489   3.888   5.711  0.0578 -0.0628 -0.7660
   93SAPE   H9R 9168   2.590   3.852   5.686  1.1579  2.3980 -0.1303
   93SAPE  C210 9169   2.440   3.960   5.589 -0.0697  0.4502  0.0036
   93SAPE  H10R 9170   2.497   4.052   5.564  1.3222 -0.4007 -0.0558
   93SAPE  H10S 9171   2.340   3.996   5.624 -0.7428 -1.7597  0.5339
   93SAPE  C211 9172   2.441   3.868   5.471 -0.5056 -0.3588  0.1866
   93SAPE  H11R 9173   2.355   3.801   5.471 -0.9969  0.2414 -1.0723
   93SAPE  C212 9174   2.537   3.874   5.378  0.0713 -0.3390  0.4744
   93SAPE  H12R 9175   2.529   3.794   5.302  4.4054 -0.7267  0.2085
   93SAPE  C213 9176   2.665   3.948   5.369 -0.2633 -0.0355  0.1156
   93SAPE  H13R 9177   2.745   3.882   5.329 -1.2005 -0.8386 -0.4439
   93SAPE  H13S 9178   2.697   4.001   5.462 -0.8916  2.7313 -1.1588
   93SAPE  C214 9179   2.635   4.046   5.259 -0.2518 -0.2390  0.0001
   93SAPE  H14R 9180   2.594   4.143   5.290 -2.1112 -0.1176 -2.5229
   93SAPE  C215 9181   2.662   4.025   5.125 -0.5147 -0.5958 -0.0674
   93SAPE  H15R 9182   2.623   4.096   5.051 -2.1024 -1.4413 -0.0925
   93SAPE  C216 9183   2.731   3.910   5.057  0.7211 -0.0106 -0.9502
   93SAPE  H16R 9184   2.652   3.832   5.051 -0.3370  0.9450  0.0435
   93SAPE  H16S 9185   2.800   3.867   5.133 -0.7198 -1.5471 -0.4462
   93SAPE  C217 9186   2.807   3.945   4.937 -0.3355 -0.1162 -0.2476
   93SAPE  H17R 9187   2.748   4.002   4.861 -1.2648  1.3109  1.4571
   93SAPE  H17S 9188   2.840   3.851   4.889  0.8262 -0.3294  0.9258
   93SAPE  C218 9189   2.937   4.025   4.959 -0.0444  0.2885  0.0739
   93SAPE  H18R 9190   2.999   3.979   5.039 -0.7503 -1.3312 -0.2657
   93SAPE  H18S 9191   2.918   4.130   4.990 -1.6509  0.2149 -0.5674
   93SAPE  C219 9192   3.034   4.012   4.836 -0.0130  0.0878 -0.4754
   93SAPE  H19R 9193   3.044   3.904   4.814  3.3061  0.8538 -3.8506
   93SAPE  H19S 9194   3.135   4.035   4.877 -0.8013  1.3552  0.8312
   93SAPE  C220 9195   3.005   4.097   4.715 -0.5553 -0.3991 -0.1416
   93SAPE  H20R 9196   3.037   4.074   4.611 -0.6454  1.0273 -0.5123
   93SAPE  H20S 9197   3.050   4.198   4.728  0.0226 -0.4325 -1.7231
   93SAPE  H20T 9198   2.895   4.105   4.702 -0.5036 -1.3414 -1.3818
   93SAPE   C33 9199   2.321   3.286   5.998  0.8139 -0.1053 -0.2738
   93SAPE   H3X 9200   2.294   3.194   5.941 -3.2995  0.0157  1.1649
   93SAPE   H3Y 9201   2.432   3.288   5.999  0.8641 -0.1777 -2.1241
   93SAPE   C34 9202   2.269   3.418   5.934  0.5535  0.8466  0.1007
   93SAPE   H4X 9203   2.315   3.502   5.991  1.1698 -0.0206  0.9104
   93SAPE   H4Y 9204   2.158   3.418   5.942  0.4996 -1.8149  0.2412
   93SAPE   C35 9205   2.312   3.429   5.789  0.4352  0.4937  0.6499
   93SAPE   H5X 9206   2.269   3.522   5.746 -0.3098  0.0331  0.3801
   93SAPE   H5Y 9207   2.281   3.343   5.727  1.4768  1.8507 -1.9032
   93SAPE   C36 9208   2.461   3.435   5.771 -0.1800 -0.2226  0.1208
   93SAPE   H6X 9209   2.501   3.339   5.810 -1.4938 -1.1436 -0.7428
   93SAPE   H6Y 9210   2.496   3.513   5.843 -1.4583  1.7864 -1.3101
   93SAPE   C37 9211   2.506   3.479   5.625 -0.1523  0.3340 -0.6832
   93SAPE   H7X 9212   2.463   3.579   5.605 -0.5297  0.1960 -0.5692
   93SAPE   H7Y 9213   2.448   3.412   5.558 -1.4144 -0.2621  0.9450
   93SAPE   C38 9214   2.658   3.456   5.601 -0.1557  0.8363  0.5422
   93SAPE   H8X 9215   2.669   3.346   5.615  0.2512  1.2277  4.3038
   93SAPE   H8Y 9216   2.715   3.507   5.682  0.6546  0.0516  0.4801
   93SAPE   C39 9217   2.706   3.523   5.469 -0.0043  0.8689  0.1037
   93SAPE   H9X 9218   2.630   3.599   5.443 -0.9638 -0.8208 -2.4544
   93SAPE   H9Y 9219   2.707   3.444   5.391  2.6883  0.1515  0.7430
   93SAPE  C310 9220   2.844   3.581   5.490  0.8847 -0.4517  0.2260
   93SAPE  H10X 9221   2.908   3.501   5.532  2.0835  0.9221  1.1141
   93SAPE  H10Y 9222   2.836   3.668   5.559  1.3907  0.5464 -0.9367
   93SAPE  C311 9223   2.897   3.627   5.350  0.3230  0.1907 -0.4660
   93SAPE  H11X 9224   2.863   3.731   5.334  2.4961  1.1104  0.5209
   93SAPE  H11Y 9225   2.857   3.552   5.278 -1.5947 -0.8170  1.5447
   93SAPE  C312 9226   3.046   3.621   5.338 -0.1699  0.3775 -0.7006
   93SAPE  H12X 9227   3.082   3.519   5.360 -1.4471 -0.4273 -2.1513
   93SAPE  H12Y 9228   3.083   3.695   5.412  2.9495 -0.9828 -0.7480
   93SAPE  C313 9229   3.098   3.665   5.203 -0.1029 -0.1399 -0.3210
   93SAPE  H13X 9230   3.035   3.748   5.165 -1.2017 -0.5146  0.6396
   93SAPE  H13Y 9231   3.095   3.581   5.131  0.2484 -0.9421  0.5704
   93SAPE  C314 9232   3.248   3.705   5.214  0.1450  0.5242  0.1673
   93SAPE  H14X 9233   3.299   3.607   5.207 -2.6722 -0.9695 -2.0681
   93SAPE  H14Y 9234   3.263   3.749   5.315 -2.0424  1.1640  0.2804
   93SAPE  C315 9235   3.301   3.810   5.125  0.9225  0.6975 -0.3273
   93SAPE  H15X 9236   3.411   3.809   5.133  0.9437  2.2464 -0.0306
   93SAPE  H15Y 9237   3.257   3.910   5.149  1.5047  1.0055 -0.5188
   93SAPE  C316 9238   3.270   3.788   4.972  0.5403  0.0420  0.4456
   93SAPE  H16X 9239   3.303   3.872   4.908  2.0769 -1.2567 -0.5818
   93SAPE  H16Y 9240   3.160   3.779   4.972  0.6974 -3.9480  0.0188
   93SAPE  C317 9241   3.339   3.660   4.914 -0.5983 -0.7131  0.0230
   93SAPE  H17X 9242   3.292   3.639   4.815 -2.0201 -1.4332  0.8150
   93SAPE  H17Y 9243   3.319   3.573   4.980 -2.3458 -2.0119 -2.0565
   93SAPE  C318 9244   3.492   3.663   4.899 -0.3198 -0.0938 -0.1444
   93SAPE  H18X 9245   3.544   3.652   4.996  0.5791 -0.5374 -0.6613
   93SAPE  H18Y 9246   3.519   3.763   4.858  0.9506 -0.1185  0.5893
   93SAPE  H18Z 9247   3.522   3.581   4.830 -2.2752 -1.9704  1.1101
   94SAPE     N 9248   1.452   2.697   6.875 -0.0981  0.0514  0.2233
   94SAPE   HN1 9249   1.350   2.690   6.898 -0.1290 -1.5749 -0.3070
   94SAPE   HN2 9250   1.506   2.685   6.962 -1.9681 -1.3604  1.2687
   94SAPE   HN3 9251   1.477   2.795   6.850 -2.5484  0.3650 -1.4682
   94SAPE   C12 9252   1.505   2.598   6.778  0.3051  0.7906  0.1152
   94SAPE  H12A 9253   1.502   2.642   6.676 -0.5716  0.4254 -0.0239
   94SAPE  H12B 9254   1.420   2.528   6.766 -0.3782  1.3892  1.2326
   94SAPE   C11 9255   1.643   2.542   6.810 -0.1235 -0.2767  1.2680
   94SAPE  H11A 9256   1.672   2.504   6.709  2.5881  0.2000  1.7705
   94SAPE  H11B 9257   1.628   2.460   6.883 -1.7407 -0.8278  0.3663
   94SAPE     P 9258   1.884   2.623   6.851 -0.2460  0.0244  0.3439
   94SAPE   O13 9259   1.950   2.733   6.929  0.0011 -0.0112  0.3317
   94SAPE   O14 9260   1.929   2.491   6.883  0.4386 -0.2202 -0.0508
   94SAPE   O12 9261   1.734   2.634   6.870  0.0468 -0.3033 -0.4371
   94SAPE   O11 9262   1.916   2.651   6.703  0.0077 -0.1018  0.3251
   94SAPE    C1 9263   1.871   2.759   6.623 -0.8887 -0.2206  0.1836
   94SAPE    HA 9264   1.823   2.841   6.681 -2.8416 -0.3378 -1.1627
   94SAPE    HB 9265   1.952   2.810   6.567 -2.3685  1.5638 -0.4515
   94SAPE    C2 9266   1.774   2.709   6.515 -0.2210  0.5614 -0.5450
   94SAPE    HS 9267   1.691   2.661   6.571  0.2351  1.1651  0.6652
   94SAPE   O21 9268   1.841   2.608   6.432 -0.1739  0.2298 -0.0539
   94SAPE   C21 9269   1.772   2.503   6.388  0.3484  0.1771  0.1712
   94SAPE   O22 9270   1.658   2.469   6.422 -0.4067 -0.6246 -0.0419
   94SAPE   C22 9271   1.849   2.430   6.284  0.2320  0.6287  0.4561
   94SAPE   H2R 9272   1.958   2.444   6.299  0.4174 -0.2870 -0.0122
   94SAPE   H2S 9273   1.837   2.320   6.291  2.2655  0.1689 -1.8231
   94SAPE    C3 9274   1.713   2.823   6.433 -0.9752 -0.1555 -0.3682
   94SAPE    HX 9275   1.794   2.881   6.385 -2.2950 -0.0210 -2.5645
   94SAPE    HY 9276   1.671   2.885   6.514  0.9059 -3.1004  3.1846
   94SAPE   O31 9277   1.630   2.779   6.325  0.3641 -0.0581 -0.4848
   94SAPE   C31 9278   1.500   2.752   6.359  0.3740 -0.0775  1.1680
   94SAPE   O32 9279   1.454   2.764   6.468  0.1202  0.4779 -0.6220
   94SAPE   C32 9280   1.425   2.687   6.248  0.1661 -0.2400 -0.0213
   94SAPE   H2X 9281   1.317   2.696   6.272 -0.5882 -1.2041 -2.6338
   94SAPE   H2Y 9282   1.448   2.578   6.255 -1.4023 -0.9630 -3.7020
   94SAPE   C23 9283   1.798   2.479   6.143  0.0443 -0.4099  0.1840
   94SAPE   H3R 9284   1.837   2.581   6.124 -0.7738  0.3129  2.0866
   94SAPE   H3S 9285   1.687   2.475   6.140 -0.0041 -1.6759  1.7843
   94SAPE   C24 9286   1.855   2.376   6.039  0.7212  0.3439 -0.4042
   94SAPE   H4R 9287   1.804   2.278   6.058 -2.0580  1.6024 -0.8171
   94SAPE   H4S 9288   1.964   2.359   6.046  0.6565 -0.2636 -0.7327
   94SAPE   C25 9289   1.827   2.423   5.895  0.0020  0.0628 -0.1823
   94SAPE   H5R 9290   1.817   2.532   5.895  0.1729  0.1472  2.8320
   94SAPE   C26 9291   1.818   2.354   5.777 -0.0256 -0.1732 -0.8129
   94SAPE   H6R 9292   1.806   2.406   5.681 -0.9371  1.4401  0.1425
   94SAPE   C27 9293   1.840   2.206   5.753  0.1509  0.2528  0.1878
   94SAPE   H7R 9294   1.737   2.165   5.749 -0.6153  2.1685 -0.8458
   94SAPE   H7S 9295   1.892   2.158   5.838  0.7032  1.6570  0.6648
   94SAPE   C28 9296   1.914   2.161   5.627 -0.0090  0.5117  0.0654
   94SAPE   H8R 9297   2.019   2.134   5.646 -0.5123 -0.8149  1.1432
   94SAPE   C29 9298   1.852   2.130   5.506 -0.2371  0.7963 -0.5321
   94SAPE   H9R 9299   1.912   2.103   5.417 -1.5632 -1.9475 -0.7119
   94SAPE  C210 9300   1.705   2.144   5.477 -0.3597  0.3220 -0.5780
   94SAPE  H10R 9301   1.683   2.253   5.483  0.2241  0.3911  0.8795
   94SAPE  H10S 9302   1.637   2.121   5.562  0.6883  0.6002  0.3610
   94SAPE  C211 9303   1.659   2.076   5.354 -0.2130  0.2768 -0.5456
   94SAPE  H11R 9304   1.707   1.978   5.342  1.6842  0.9019  1.4014
   94SAPE  C212 9305   1.582   2.131   5.252  0.6681  0.3620  0.5189
   94SAPE  H12R 9306   1.559   2.058   5.173  1.1990 -0.6132  1.2326
   94SAPE  C213 9307   1.513   2.265   5.265 -0.1911 -0.5202 -0.0067
   94SAPE  H13R 9308   1.536   2.315   5.362 -0.6508 -0.0773 -0.1251
   94SAPE  H13S 9309   1.406   2.245   5.283  0.0145  0.6363  2.9907
   94SAPE  C214 9310   1.541   2.366   5.160 -0.0018  0.6586 -0.1606
   94SAPE  H14R 9311   1.610   2.444   5.195  1.0314 -0.6544  0.8516
   94SAPE  C215 9312   1.492   2.376   5.037  0.3377 -0.4638 -0.3308
   94SAPE  H15R 9313   1.539   2.441   4.961  0.5347  2.9218  2.4494
   94SAPE  C216 9314   1.388   2.285   4.975 -0.0359 -0.2041  1.0909
   94SAPE  H16R 9315   1.304   2.267   5.045 -0.6119  0.8688  0.7006
   94SAPE  H16S 9316   1.432   2.183   4.978  0.2253 -0.0916  1.1045
   94SAPE  C217 9317   1.340   2.303   4.827 -0.5453 -0.0858 -0.0075
   94SAPE  H17R 9318   1.276   2.394   4.831 -0.5800 -0.1411  2.1595
   94SAPE  H17S 9319   1.276   2.216   4.802  0.6647 -0.9621 -0.1442
   94SAPE  C218 9320   1.463   2.316   4.739  0.8940 -0.5991 -0.5932
   94SAPE  H18R 9321   1.535   2.235   4.763  0.1757 -1.3328 -0.8492
   94SAPE  H18S 9322   1.511   2.415   4.754  0.9280 -0.7845  0.6059
   94SAPE  C219 9323   1.434   2.301   4.585  0.5396  0.1695 -0.2155
   94SAPE  H19R 9324   1.347   2.366   4.559  0.5315 -0.1522 -1.0303
   94SAPE  H19S 9325   1.392   2.199   4.569  4.1744 -1.0388 -3.8258
   94SAPE  C220 9326   1.545   2.320   4.477 -0.5808  0.0342 -0.1526
   94SAPE  H20R 9327   1.523   2.268   4.381  0.9829 -0.1519 -0.4326
   94SAPE  H20S 9328   1.635   2.268   4.516  0.0030  0.1982 -1.2278
   94SAPE  H20T 9329   1.579   2.425   4.470  0.9541 -0.4005  0.2784
   94SAPE   C33 9330   1.444   2.743   6.101 -0.4662 -0.3643 -0.2601
   94SAPE   H3X 9331   1.521   2.822   6.088 -0.8158 -0.0985 -0.7724
   94SAPE   H3Y 9332   1.358   2.807   6.073  0.1554  0.2481 -0.7995
   94SAPE   C34 9333   1.466   2.637   5.994 -0.0783 -0.5461  0.2001
   94SAPE   H4X 9334   1.396   2.555   6.020 -0.6170  0.0434  0.6310
   94SAPE   H4Y 9335   1.572   2.602   6.000  0.2346  0.4526  1.0015
   94SAPE   C35 9336   1.451   2.702   5.856 -0.0943 -0.0086 -0.0947
   94SAPE   H5X 9337   1.505   2.798   5.843 -1.2515  0.4980 -1.4015
   94SAPE   H5Y 9338   1.345   2.733   5.849  0.1155  1.1776  1.5552
   94SAPE   C36 9339   1.467   2.606   5.741 -0.4607 -0.3280  0.5745
   94SAPE   H6X 9340   1.403   2.518   5.762  0.3635 -0.4278  2.9533
   94SAPE   H6Y 9341   1.577   2.586   5.744 -0.3835 -0.7294 -2.1573
   94SAPE   C37 9342   1.430   2.670   5.602  0.3605  0.5445 -0.5727
   94SAPE   H7X 9343   1.486   2.766   5.596  1.0369  0.2131  0.2364
   94SAPE   H7Y 9344   1.319   2.681   5.601  0.4468  1.5200 -1.5229
   94SAPE   C38 9345   1.469   2.587   5.477  0.3798  0.4845  0.9777
   94SAPE   H8X 9346   1.406   2.498   5.461  1.3631  0.1569 -1.5430
   94SAPE   H8Y 9347   1.574   2.551   5.479  0.1859 -0.1900 -0.3808
   94SAPE   C39 9348   1.450   2.672   5.351 -0.1500  0.3361  0.0249
   94SAPE   H9X 9349   1.516   2.630   5.272  0.4022 -0.5634  0.9361
   94SAPE   H9Y 9350   1.499   2.767   5.382 -1.4393  0.6743  1.0938
   94SAPE  C310 9351   1.310   2.707   5.297 -0.3743 -0.2758 -0.0478
   94SAPE  H10X 9352   1.305   2.816   5.276  3.9813  0.2556  0.8663
   94SAPE  H10Y 9353   1.247   2.688   5.386 -1.7389  4.4094  0.2446
   94SAPE  C311 9354   1.266   2.641   5.168  0.6919 -0.2404  0.1257
   94SAPE  H11X 9355   1.266   2.530   5.162 -0.9559 -0.3271  1.2159
   94SAPE  H11Y 9356   1.346   2.667   5.094 -0.0004  1.8628  0.0374
   94SAPE  C312 9357   1.122   2.687   5.133 -0.0404 -0.6948 -0.2176
   94SAPE  H12X 9358   1.094   2.794   5.136 -0.2843 -0.7135 -1.2051
   94SAPE  H12Y 9359   1.055   2.628   5.199 -1.0313 -0.2884 -0.8316
   94SAPE  C313 9360   1.078   2.639   4.985 -0.3692 -0.0138 -0.3120
   94SAPE  H13X 9361   0.976   2.595   4.994 -1.3774  2.3075  0.4331
   94SAPE  H13Y 9362   1.156   2.575   4.939 -0.9045 -1.6645  0.9525
   94SAPE  C314 9363   1.064   2.756   4.883 -1.0138  0.9404 -0.1255
   94SAPE  H14X 9364   1.154   2.819   4.869 -0.5757  0.5538  0.8358
   94SAPE  H14Y 9365   0.980   2.824   4.912  0.1998  1.0699  3.6002
   94SAPE  C315 9366   1.043   2.693   4.744 -0.0964 -0.4127 -0.6348
   94SAPE  H15X 9367   0.959   2.621   4.746 -0.2443 -0.2358  0.5511
   94SAPE  H15Y 9368   1.127   2.621   4.729  0.7314  0.1370  1.0297
   94SAPE  C316 9369   1.023   2.799   4.642  0.0894 -0.0488 -0.4938
   94SAPE  H16X 9370   1.122   2.846   4.629  1.5417 -2.5479  0.7275
   94SAPE  H16Y 9371   0.956   2.877   4.686  0.2252  1.6142 -3.0447
   94SAPE  C317 9372   0.948   2.753   4.515  0.0814 -0.1008 -0.4756
   94SAPE  H17X 9373   0.876   2.678   4.554 -3.4596  3.5295  0.7419
   94SAPE  H17Y 9374   1.025   2.700   4.456 -0.7121  1.2346 -2.8736
   94SAPE  C318 9375   0.861   2.850   4.432 -0.7245  0.2039 -0.0503
   94SAPE  H18X 9376   0.822   2.797   4.343 -0.3899  1.3007 -0.8639
   94SAPE  H18Y 9377   0.919   2.941   4.405 -0.3984 -0.1238 -0.4637
   94SAPE  H18Z 9378   0.775   2.901   4.481 -1.1273  1.6224 -2.1013
   95SAPE     N 9379   4.858   2.151   7.088  0.4148  0.5429 -0.0946
   95SAPE   HN1 9380   4.815   2.236   7.129  0.4046  0.3706  0.2598
   95SAPE   HN2 9381   4.812   2.136   6.996  0.3551  0.8452 -0.1153
   95SAPE   HN3 9382   4.820   2.068   7.139 -1.6748 -0.4120 -2.9156
   95SAPE   C12 9383   5.010   2.158   7.092 -0.5875  0.4002 -0.4093
   95SAPE  H12A 9384   5.047   2.150   7.197  0.0407 -0.1236 -0.6628
   95SAPE  H12B 9385   5.057   2.250   7.053  2.1239 -0.6809  0.0612
   95SAPE   C11 9386   5.057   2.033   7.003 -0.5793  1.1386 -0.5537
   95SAPE  H11A 9387   5.158   2.047   6.957  0.7237 -0.6306  1.5888
   95SAPE  H11B 9388   4.990   2.029   6.914 -0.3070 -1.7299 -0.7181
   95SAPE     P 9389   5.171   1.803   7.067 -0.0147 -0.0520 -0.3731
   95SAPE   O13 9390   5.299   1.866   7.102  0.1985  0.1661 -0.9474
   95SAPE   O14 9391   5.127   1.684   7.144  0.0703  0.0592 -0.1868
   95SAPE   O12 9392   5.049   1.913   7.078 -0.0797 -0.1155  0.4376
   95SAPE   O11 9393   5.178   1.765   6.915 -0.2067 -0.0351 -0.3243
   95SAPE    C1 9394   5.072   1.771   6.821  0.1934  0.0255 -0.3263
   95SAPE    HA 9395   4.988   1.720   6.873  1.5411  0.3413  2.3491
   95SAPE    HB 9396   5.034   1.875   6.807 -1.3483 -0.1421  1.9312
   95SAPE    C2 9397   5.106   1.704   6.690  0.1478 -0.0246 -0.2574
   95SAPE    HS 9398   5.151   1.605   6.711  0.6725 -0.2086 -2.1084
   95SAPE   O21 9399   5.189   1.785   6.607  0.4618 -0.8590  0.4310
   95SAPE   C21 9400   5.300   1.726   6.565  0.4815  0.5669 -0.4964
   95SAPE   O22 9401   5.341   1.611   6.591  0.0880  0.4159  0.7542
   95SAPE   C22 9402   5.372   1.820   6.469 -0.3204 -0.6336 -0.0348
   95SAPE   H2R 9403   5.340   1.924   6.494 -0.5185  0.0631 -2.8905
   95SAPE   H2S 9404   5.482   1.808   6.477  0.0932  1.7558 -1.1948
   95SAPE    C3 9405   4.977   1.667   6.609 -0.5835  0.0529 -0.1988
   95SAPE    HX 9406   4.915   1.758   6.596  0.9958  1.1599 -0.2287
   95SAPE    HY 9407   4.923   1.589   6.668  0.7039 -2.4943 -2.1743
   95SAPE   O31 9408   5.018   1.621   6.480 -0.1924 -0.4804  0.1634
   95SAPE   C31 9409   4.923   1.551   6.423  0.2154 -0.5857  0.2031
   95SAPE   O32 9410   4.805   1.553   6.458 -0.1730  0.0149 -0.0449
   95SAPE   C32 9411   4.979   1.479   6.300 -0.5077  0.4084  0.4407
   95SAPE   H2X 9412   4.969   1.370   6.319  0.0961 -0.0555 -1.6514
   95SAPE   H2Y 9413   5.082   1.514   6.278 -0.5270  0.9823  1.2129
   95SAPE   C23 9414   5.314   1.806   6.324  0.1474 -0.8229 -0.3840
   95SAPE   H3R 9415   5.350   1.897   6.271 -0.0723 -0.1862  0.5395
   95SAPE   H3S 9416   5.204   1.822   6.320  0.1869  1.0115  2.7770
   95SAPE   C24 9417   5.362   1.681   6.251 -0.6376 -0.3305 -0.3108
   95SAPE   H4R 9418   5.321   1.688   6.148  1.4125  0.7371 -1.1041
   95SAPE   H4S 9419   5.308   1.592   6.290 -0.0179 -2.1874 -3.3746
   95SAPE   C25 9420   5.511   1.649   6.244 -0.6834  0.4459 -0.6897
   95SAPE   H5R 9421   5.541   1.577   6.322 -1.4322 -0.3775 -1.1367
   95SAPE   C26 9422   5.608   1.725   6.187 -0.2328 -0.3984 -0.3457
   95SAPE   H6R 9423   5.710   1.685   6.193 -0.6875 -1.4244  0.9509
   95SAPE   C27 9424   5.587   1.850   6.108  0.8417 -0.0723  0.3140
   95SAPE   H7R 9425   5.483   1.885   6.090  1.2530  0.4052 -1.3273
   95SAPE   H7S 9426   5.607   1.819   6.003  0.5094  0.3017  0.1329
   95SAPE   C28 9427   5.662   1.974   6.138 -0.4130 -0.4678 -0.3518
   95SAPE   H8R 9428   5.609   2.046   6.202  0.1111 -2.5015  2.5987
   95SAPE   C29 9429   5.801   1.996   6.140 -0.3469 -0.6098  0.4580
   95SAPE   H9R 9430   5.846   2.085   6.187 -1.5538 -1.1237  2.7316
   95SAPE  C210 9431   5.901   1.899   6.084  0.2336 -0.4352  0.6312
   95SAPE  H10R 9432   5.955   1.949   6.001 -0.8989 -1.1186 -0.5643
   95SAPE  H10S 9433   5.857   1.808   6.038  0.4246 -1.2027  1.9067
   95SAPE  C211 9434   5.998   1.852   6.189  0.1678 -0.3202 -0.0398
   95SAPE  H11R 9435   5.948   1.802   6.274 -0.2752 -2.2669 -1.3601
   95SAPE  C212 9436   6.134   1.851   6.181  0.3667  0.4436 -0.2062
   95SAPE  H12R 9437   6.189   1.808   6.266  2.2779 -2.5070 -2.7150
   95SAPE  C213 9438   6.216   1.902   6.068 -0.1447 -0.6061  0.0659
   95SAPE  H13R 9439   6.185   1.842   5.980  0.3879  0.9541 -1.2384
   95SAPE  H13S 9440   6.321   1.868   6.076  0.0278  0.2618  2.9025
   95SAPE  C214 9441   6.213   2.054   6.048  0.6596  0.8817  0.5817
   95SAPE  H14R 9442   6.209   2.108   6.144 -0.2218  3.0191 -0.5837
   95SAPE  C215 9443   6.214   2.136   5.944 -0.2626  0.5112  0.2715
   95SAPE  H15R 9444   6.206   2.243   5.966  0.7453  0.4020  1.2673
   95SAPE  C216 9445   6.218   2.090   5.797  0.3545 -0.2408 -0.4901
   95SAPE  H16R 9446   6.134   2.139   5.742 -0.9909 -1.9639 -0.0488
   95SAPE  H16S 9447   6.199   1.981   5.787  0.0423 -0.1471 -0.9755
   95SAPE  C217 9448   6.351   2.121   5.724  0.4256  0.2381  1.2264
   95SAPE  H17R 9449   6.439   2.068   5.767 -0.2067 -0.1484  2.0697
   95SAPE  H17S 9450   6.363   2.229   5.743  0.1152  0.8488 -1.5601
   95SAPE  C218 9451   6.346   2.101   5.572  0.2944  0.5668  0.0799
   95SAPE  H18R 9452   6.444   2.134   5.531  1.3096 -1.3724  0.7758
   95SAPE  H18S 9453   6.261   2.158   5.529 -2.6003 -0.9511  3.2780
   95SAPE  C219 9454   6.332   1.956   5.529 -0.5643 -0.4300 -0.4474
   95SAPE  H19R 9455   6.235   1.924   5.572 -0.7702  0.9785  0.1892
   95SAPE  H19S 9456   6.404   1.894   5.587 -0.8750 -1.0463 -0.7033
   95SAPE  C220 9457   6.347   1.924   5.383  0.2509  0.3578  1.0955
   95SAPE  H20R 9458   6.292   1.991   5.312 -2.8773  0.5335  3.4826
   95SAPE  H20S 9459   6.319   1.818   5.368  0.9885  0.1759  0.9742
   95SAPE  H20T 9460   6.456   1.913   5.364 -0.2160 -3.8652 -0.1359
   95SAPE   C33 9461   4.899   1.517   6.174  0.2650 -0.0073  1.0290
   95SAPE   H3X 9462   4.899   1.628   6.178  2.6777  0.0133  3.8887
   95SAPE   H3Y 9463   4.796   1.475   6.187 -0.2820  0.2384 -1.8595
   95SAPE   C34 9464   4.950   1.446   6.051  0.1248  1.0315 -0.9006
   95SAPE   H4X 9465   4.871   1.443   5.973  0.1367  0.1747 -0.8940
   95SAPE   H4Y 9466   4.977   1.340   6.071  0.7190  1.2458 -0.5483
   95SAPE   C35 9467   5.072   1.510   5.979  0.1535 -0.8810 -0.2115
   95SAPE   H5X 9468   5.091   1.453   5.885 -0.5583 -3.8914  1.3233
   95SAPE   H5Y 9469   5.158   1.501   6.049  0.3513  1.7783 -0.0156
   95SAPE   C36 9470   5.056   1.660   5.970  0.0745  0.3297  1.3760
   95SAPE   H6X 9471   5.141   1.687   5.904 -0.7092  3.7374  1.5396
   95SAPE   H6Y 9472   5.076   1.708   6.068  0.6625 -0.5150  1.6727
   95SAPE   C37 9473   4.934   1.725   5.899  0.5508 -0.1425  0.4148
   95SAPE   H7X 9474   4.952   1.834   5.890 -1.1507  0.0885 -0.8580
   95SAPE   H7Y 9475   4.848   1.711   5.968 -0.7249 -0.9338 -1.2438
   95SAPE   C38 9476   4.902   1.668   5.761  0.1005  0.1143  0.4843
   95SAPE   H8X 9477   4.874   1.561   5.766 -1.3448  0.4104 -0.4478
   95SAPE   H8Y 9478   4.997   1.684   5.706 -0.6364  1.4560 -0.4812
   95SAPE   C39 9479   4.799   1.740   5.669  0.2066  0.2676 -0.3805
   95SAPE   H9X 9480   4.840   1.841   5.645  0.2441  0.4869  0.5805
   95SAPE   H9Y 9481   4.707   1.761   5.727  0.0663  0.7886 -0.7707
   95SAPE  C310 9482   4.768   1.659   5.541  0.5628 -0.9042 -0.2763
   95SAPE  H10X 9483   4.683   1.719   5.504 -0.7791 -2.4837  0.1231
   95SAPE  H10Y 9484   4.738   1.554   5.561  1.3414 -0.6875  2.5317
   95SAPE  C311 9485   4.883   1.662   5.443 -0.0176  0.7067  0.4084
   95SAPE  H11X 9486   4.983   1.643   5.489 -0.2734 -0.2554  0.5848
   95SAPE  H11Y 9487   4.887   1.760   5.390  3.1102  0.0430 -0.8191
   95SAPE  C312 9488   4.864   1.572   5.325  0.2437 -0.0558  0.7761
   95SAPE  H12X 9489   4.859   1.465   5.357 -0.4439 -0.0303  0.7616
   95SAPE  H12Y 9490   4.948   1.570   5.253 -0.6850 -1.0524 -0.3194
   95SAPE  C313 9491   4.752   1.621   5.229  0.2887 -0.1016 -1.0936
   95SAPE  H13X 9492   4.752   1.732   5.225  1.7814  0.0044  0.5472
   95SAPE  H13Y 9493   4.650   1.595   5.265  0.0450  1.0694 -0.8906
   95SAPE  C314 9494   4.766   1.570   5.084 -0.2927  0.0134 -0.0108
   95SAPE  H14X 9495   4.866   1.584   5.038 -0.8576  0.4001 -1.1749
   95SAPE  H14Y 9496   4.693   1.628   5.022  0.6065  0.5037 -0.6322
   95SAPE  C315 9497   4.744   1.423   5.072 -0.6445 -0.3823  0.0462
   95SAPE  H15X 9498   4.642   1.389   5.102 -1.5267  2.4340  0.6502
   95SAPE  H15Y 9499   4.809   1.369   5.144 -0.7718 -0.9872 -0.2853
   95SAPE  C316 9500   4.747   1.359   4.933  0.8813 -0.3133 -0.6887
   95SAPE  H16X 9501   4.842   1.379   4.880  0.2317 -0.3229 -1.8909
   95SAPE  H16Y 9502   4.665   1.408   4.875 -1.3763 -1.8898  0.9811
   95SAPE  C317 9503   4.733   1.213   4.950 -0.3590 -0.4757  0.2231
   95SAPE  H17X 9504   4.625   1.198   4.973 -0.2977 -1.0249  0.1705
   95SAPE  H17Y 9505   4.796   1.177   5.033 -0.1967 -0.0529  0.2835
   95SAPE  C318 9506   4.761   1.129   4.829  0.3083 -0.1291 -0.2215
   95SAPE  H18X 9507   4.859   1.154   4.784  0.3734 -1.3381 -0.7756
   95SAPE  H18Y 9508   4.681   1.153   4.755 -0.3271  1.8589  1.0251
   95SAPE  H18Z 9509   4.771   1.020   4.844 -0.8948 -0.5490 -2.0776
   96SAPE     N 9510   3.995   5.322   6.478 -0.1938 -0.1315  0.0927
   96SAPE   HN1 9511   3.995   5.252   6.402 -1.8976 -0.4604  0.3652
   96SAPE   HN2 9512   4.062   5.289   6.551 -0.9860  0.5459  1.1525
   96SAPE   HN3 9513   3.899   5.329   6.517 -0.1325 -0.2247  0.2621
   96SAPE   C12 9514   4.050   5.464   6.444 -0.4747  0.0523  0.7397
   96SAPE  H12A 9515   4.014   5.499   6.345 -0.4941  0.2878  0.8280
   96SAPE  H12B 9516   4.161   5.463   6.432 -0.5243  0.2596  0.2384
   96SAPE   C11 9517   4.006   5.564   6.553  0.2818  0.7450  0.9617
   96SAPE  H11A 9518   4.070   5.655   6.547  1.6429 -0.2070  0.3888
   96SAPE  H11B 9519   4.015   5.522   6.656 -0.0571  2.3760  1.6948
   96SAPE     P 9520   3.806   5.726   6.556  0.1279  0.2579 -0.5546
   96SAPE   O13 9521   3.779   5.753   6.699  0.3945  0.1770  0.4679
   96SAPE   O14 9522   3.884   5.832   6.495  0.2993 -0.6386  0.3054
   96SAPE   O12 9523   3.867   5.589   6.528 -0.2079  0.5266 -0.1424
   96SAPE   O11 9524   3.668   5.720   6.480  0.3395  0.0302 -0.1134
   96SAPE    C1 9525   3.634   5.615   6.394  0.1732  0.2203  0.2115
   96SAPE    HA 9526   3.660   5.521   6.447  0.5097  0.2380  0.0793
   96SAPE    HB 9527   3.524   5.606   6.384  0.4613 -2.2029 -1.7730
   96SAPE    C2 9528   3.690   5.617   6.256 -0.1135 -0.1078  0.3043
   96SAPE    HS 9529   3.798   5.605   6.278  0.3796  0.2653 -1.6908
   96SAPE   O21 9530   3.666   5.751   6.203  0.2087 -0.0584  0.0214
   96SAPE   C21 9531   3.751   5.784   6.105  0.9174 -0.2729  0.5997
   96SAPE   O22 9532   3.860   5.736   6.086  0.3999 -0.1323 -0.3306
   96SAPE   C22 9533   3.697   5.919   6.044 -0.0649 -1.0636 -0.2127
   96SAPE   H2R 9534   3.589   5.929   6.067  0.1330  0.0966  0.3040
   96SAPE   H2S 9535   3.759   5.991   6.103 -1.9542 -0.2474  0.8774
   96SAPE    C3 9536   3.627   5.502   6.162  0.8538 -0.4433 -0.6474
   96SAPE    HX 9537   3.516   5.505   6.157  0.8434  0.7091 -0.0033
   96SAPE    HY 9538   3.646   5.404   6.211 -1.5717 -1.4591 -1.5667
   96SAPE   O31 9539   3.681   5.506   6.028  0.3587 -0.0133  0.1150
   96SAPE   C31 9540   3.769   5.415   5.996  0.3772  0.2399  0.0593
   96SAPE   O32 9541   3.811   5.330   6.072 -0.1158 -0.0544  0.0394
   96SAPE   C32 9542   3.809   5.435   5.844  0.7672  0.0155 -0.4363
   96SAPE   H2X 9543   3.896   5.504   5.851 -0.9966  2.1800  1.6885
   96SAPE   H2Y 9544   3.730   5.487   5.786  2.6907  0.3378 -2.9508
   96SAPE   C23 9545   3.699   5.920   5.894 -0.0862 -0.5927  0.2811
   96SAPE   H3R 9546   3.660   6.022   5.872 -1.3470 -0.8631  1.1342
   96SAPE   H3S 9547   3.626   5.844   5.857 -1.7587  1.4720 -0.8861
   96SAPE   C24 9548   3.836   5.892   5.833  0.2897  0.8784  0.0096
   96SAPE   H4R 9549   3.857   5.785   5.852 -1.6153  0.2589 -1.0483
   96SAPE   H4S 9550   3.911   5.955   5.885 -0.5137  0.9466  1.1272
   96SAPE   C25 9551   3.831   5.927   5.690  0.3104  0.2020  0.4534
   96SAPE   H5R 9552   3.821   6.036   5.679 -1.8552  0.0443  0.5464
   96SAPE   C26 9553   3.832   5.852   5.579 -0.4413  0.0159  0.6191
   96SAPE   H6R 9554   3.841   5.907   5.484  0.5583  0.8036  1.1590
   96SAPE   C27 9555   3.844   5.701   5.565  0.3828  0.0284  0.4919
   96SAPE   H7R 9556   3.745   5.652   5.576  0.8875 -1.1838 -0.1638
   96SAPE   H7S 9557   3.907   5.674   5.653 -0.5992 -0.1591  1.1552
   96SAPE   C28 9558   3.919   5.657   5.436  0.3711 -0.2888  0.0927
   96SAPE   H8R 9559   4.025   5.687   5.447  0.2429 -0.4223  1.9616
   96SAPE   C29 9560   3.872   5.585   5.332 -0.0434 -0.0998  0.7410
   96SAPE   H9R 9561   3.935   5.558   5.245  1.0550  1.2495  1.0730
   96SAPE  C210 9562   3.729   5.535   5.312  0.3289 -0.3234 -0.1615
   96SAPE  H10R 9563   3.681   5.533   5.412  1.9250  1.6983  0.7231
   96SAPE  H10S 9564   3.726   5.432   5.271 -1.9221 -1.1531  1.8485
   96SAPE  C211 9565   3.645   5.624   5.226  0.6698  0.3570  0.9777
   96SAPE  H11R 9566   3.589   5.708   5.270 -0.3582 -0.5998  1.5430
   96SAPE  C212 9567   3.627   5.610   5.090 -1.1833  0.4619  0.6507
   96SAPE  H12R 9568   3.559   5.684   5.044  0.2000 -0.6592 -3.6785
   96SAPE  C213 9569   3.705   5.521   5.000  0.7078  0.2509  0.1913
   96SAPE  H13R 9570   3.639   5.453   4.942 -1.0440  0.6442  1.6225
   96SAPE  H13S 9571   3.779   5.462   5.059  0.6150 -0.8374 -0.7511
   96SAPE  C214 9572   3.774   5.604   4.893  0.0875  0.1945  0.0507
   96SAPE  H14R 9573   3.857   5.661   4.936  0.3793  0.1837 -0.5003
   96SAPE  C215 9574   3.744   5.610   4.761 -0.1698  0.2368  0.3070
   96SAPE  H15R 9575   3.810   5.678   4.704 -0.0568  0.6272  0.8828
   96SAPE  C216 9576   3.623   5.551   4.696 -0.6088  0.6570  0.3218
   96SAPE  H16R 9577   3.614   5.444   4.724 -2.2461  0.9407  0.9930
   96SAPE  H16S 9578   3.622   5.553   4.584 -3.8244  1.4318  0.2614
   96SAPE  C217 9579   3.494   5.622   4.733 -0.3662  0.2663 -0.3062
   96SAPE  H17R 9580   3.484   5.626   4.843  0.5335  0.3659 -0.2222
   96SAPE  H17S 9581   3.412   5.555   4.698 -0.4455  0.1566  0.0930
   96SAPE  C218 9582   3.479   5.771   4.667  0.5841  0.7064  0.1073
   96SAPE  H18R 9583   3.554   5.829   4.724  1.2469  1.3027 -1.3325
   96SAPE  H18S 9584   3.378   5.814   4.684  0.4797  0.4864  0.0461
   96SAPE  C219 9585   3.493   5.780   4.517 -0.3699 -0.1630  0.5066
   96SAPE  H19R 9586   3.599   5.756   4.490 -1.2722 -1.4318 -2.3209
   96SAPE  H19S 9587   3.469   5.886   4.495  0.5742  0.9644  4.1794
   96SAPE  C220 9588   3.408   5.684   4.443 -0.5294  0.3814  0.1952
   96SAPE  H20R 9589   3.409   5.707   4.334 -1.5195 -0.4955 -0.0182
   96SAPE  H20S 9590   3.303   5.692   4.478 -1.7887  1.3144 -3.3253
   96SAPE  H20T 9591   3.440   5.578   4.456  0.1934  0.6500  0.6577
   96SAPE   C33 9592   3.854   5.303   5.782 -0.1728 -0.1621  0.0500
   96SAPE   H3X 9593   3.790   5.217   5.812  0.8058 -1.2350 -0.8431
   96SAPE   H3Y 9594   3.954   5.279   5.823  0.0694  0.0465 -0.4143
   96SAPE   C34 9595   3.858   5.301   5.630  0.7111 -0.9186  0.5134
   96SAPE   H4X 9596   3.893   5.403   5.601  0.8808 -1.0676  0.1951
   96SAPE   H4Y 9597   3.756   5.291   5.589 -0.7626 -1.7207  4.0063
   96SAPE   C35 9598   3.965   5.206   5.574 -0.0167  0.4054  0.0837
   96SAPE   H5X 9599   3.930   5.103   5.599 -1.7855  0.9561  0.0413
   96SAPE   H5Y 9600   4.065   5.220   5.619  1.0844  1.0477 -2.4176
   96SAPE   C36 9601   3.975   5.219   5.416 -0.3290  0.4397  0.9482
   96SAPE   H6X 9602   4.067   5.168   5.382  0.2786  3.4431 -2.5555
   96SAPE   H6Y 9603   3.985   5.327   5.395 -1.8774  0.2292 -1.1423
   96SAPE   C37 9604   3.855   5.164   5.339  0.5395 -0.1209  0.6927
   96SAPE   H7X 9605   3.766   5.213   5.386 -0.3000 -1.1864  0.2694
   96SAPE   H7Y 9606   3.851   5.054   5.353 -0.4649 -0.5906 -2.3605
   96SAPE   C38 9607   3.871   5.181   5.186 -0.0650  0.8556 -0.8682
   96SAPE   H8X 9608   3.965   5.140   5.144  0.9747  3.4892 -1.3101
   96SAPE   H8Y 9609   3.890   5.291   5.186 -0.8346  1.0709  1.7694
   96SAPE   C39 9610   3.750   5.135   5.121 -0.5866 -1.1488 -0.1182
   96SAPE   H9X 9611   3.668   5.209   5.130  0.2136 -0.0915 -1.1947
   96SAPE   H9Y 9612   3.706   5.040   5.160 -0.8154 -0.7091  0.7042
   96SAPE  C310 9613   3.772   5.113   4.971  0.4219  0.3196 -0.2895
   96SAPE  H10X 9614   3.833   5.021   4.956 -0.6682 -0.5941  0.6558
   96SAPE  H10Y 9615   3.839   5.189   4.926  1.0997  0.6828  1.2519
   96SAPE  C311 9616   3.641   5.101   4.893 -0.4943  0.2081 -0.3380
   96SAPE  H11X 9617   3.616   5.195   4.839 -1.4323  0.2105  0.0774
   96SAPE  H11Y 9618   3.556   5.086   4.962  0.5177  0.8851  1.0920
   96SAPE  C312 9619   3.647   4.990   4.787 -0.0290 -0.5261  0.0537
   96SAPE  H12X 9620   3.661   4.897   4.845  0.4250 -1.0939 -0.9307
   96SAPE  H12Y 9621   3.729   5.011   4.715 -0.4900  0.9432 -0.0747
   96SAPE  C313 9622   3.517   4.974   4.704 -0.4765  0.5747 -0.3384
   96SAPE  H13X 9623   3.454   5.064   4.714 -1.3741 -0.2302  1.8206
   96SAPE  H13Y 9624   3.457   4.890   4.745 -1.3267  0.6117 -1.4617
   96SAPE  C314 9625   3.535   4.935   4.552  0.0839  0.3416 -0.3826
   96SAPE  H14X 9626   3.602   5.005   4.499 -0.8662  0.2582 -1.7305
   96SAPE  H14Y 9627   3.436   4.966   4.512  0.2027  0.7548 -0.3557
   96SAPE  C315 9628   3.565   4.788   4.516 -0.6347 -0.0469 -0.2632
   96SAPE  H15X 9629   3.487   4.718   4.554  3.3521 -3.8899  1.6604
   96SAPE  H15Y 9630   3.665   4.762   4.555  0.9395  4.8483 -0.3966
   96SAPE  C316 9631   3.562   4.775   4.362 -0.0264  0.1938  0.2955
   96SAPE  H16X 9632   3.471   4.823   4.320 -0.5014  2.0042  3.1672
   96SAPE  H16Y 9633   3.559   4.667   4.336 -1.2225  0.5138 -1.0527
   96SAPE  C317 9634   3.686   4.838   4.299  0.0620  0.5774 -0.0991
   96SAPE  H17X 9635   3.772   4.811   4.365 -0.5459 -0.7881  0.1700
   96SAPE  H17Y 9636   3.677   4.949   4.303  2.2983  0.7886  0.7973
   96SAPE  C318 9637   3.730   4.790   4.157 -0.5588 -0.7094  0.4680
   96SAPE  H18X 9638   3.786   4.862   4.092  1.9327 -2.9633 -0.0335
   96SAPE  H18Y 9639   3.638   4.758   4.104 -1.0375  1.9730 -0.5193
   96SAPE  H18Z 9640   3.789   4.696   4.158  0.9169  0.1793  0.2722
   97SAPE     N 9641   1.253   5.255   6.605 -0.3277  0.5891  0.3418
   97SAPE   HN1 9642   1.265   5.342   6.662  0.6480 -0.3117  1.5869
   97SAPE   HN2 9643   1.334   5.246   6.540 -1.7099  0.7921 -1.4663
   97SAPE   HN3 9644   1.167   5.269   6.549  0.7689 -1.4082 -2.0846
   97SAPE   C12 9645   1.251   5.137   6.696 -0.0847  0.3376  0.4595
   97SAPE  H12A 9646   1.352   5.133   6.741  0.5356  1.4124 -0.7845
   97SAPE  H12B 9647   1.231   5.040   6.646  0.5614  0.4107  0.0510
   97SAPE   C11 9648   1.141   5.146   6.807 -0.1159 -0.2402 -0.2432
   97SAPE  H11A 9649   1.168   5.214   6.890 -1.2782  0.5292 -0.4680
   97SAPE  H11B 9650   1.128   5.046   6.854  5.9847 -0.8976  0.8875
   97SAPE     P 9651   0.897   5.243   6.822  0.4324  0.6149  0.3445
   97SAPE   O13 9652   0.810   5.127   6.846  0.1452 -0.5235  0.0138
   97SAPE   O14 9653   0.928   5.319   6.946 -0.3928  0.0224 -0.3071
   97SAPE   O12 9654   1.022   5.198   6.742 -0.3900  0.3245  0.3886
   97SAPE   O11 9655   0.827   5.344   6.727 -0.2581  0.0047 -0.0065
   97SAPE    C1 9656   0.889   5.394   6.606  0.1132  0.1516 -0.3546
   97SAPE    HA 9657   0.860   5.499   6.585  1.3725  0.4675 -0.6029
   97SAPE    HB 9658   0.999   5.408   6.615  0.0697  0.5433 -0.4123
   97SAPE    C2 9659   0.839   5.322   6.469 -1.2178  0.0574  0.1103
   97SAPE    HS 9660   0.874   5.217   6.481  0.5510  0.7157  0.9978
   97SAPE   O21 9661   0.892   5.386   6.353 -0.6278  0.3253  0.2642
   97SAPE   C21 9662   1.020   5.362   6.328 -0.3507  0.3460  0.0867
   97SAPE   O22 9663   1.104   5.293   6.388  0.2259  0.1157  0.3426
   97SAPE   C22 9664   1.053   5.435   6.199 -0.8866 -0.6296  0.2686
   97SAPE   H2R 9665   0.975   5.420   6.121  1.2550  0.2046 -2.1780
   97SAPE   H2S 9666   1.056   5.543   6.226  0.3687 -1.2666  3.1047
   97SAPE    C3 9667   0.684   5.303   6.458  0.6942  0.0346  0.2297
   97SAPE    HX 9668   0.634   5.402   6.455 -1.0835 -0.8570 -0.7539
   97SAPE    HY 9669   0.664   5.243   6.549  0.1198  0.3470  0.3092
   97SAPE   O31 9670   0.651   5.234   6.339  0.3265 -0.3118 -0.2897
   97SAPE   C31 9671   0.539   5.162   6.344 -0.0577 -0.4225 -0.0499
   97SAPE   O32 9672   0.461   5.146   6.436  0.9515 -0.2824 -0.7736
   97SAPE   C32 9673   0.535   5.079   6.212 -0.0609 -0.1118 -0.3472
   97SAPE   H2X 9674   0.596   4.987   6.231  0.8631  0.0036 -2.4907
   97SAPE   H2Y 9675   0.592   5.137   6.136  0.5395 -0.8820 -0.4946
   97SAPE   C23 9676   1.188   5.394   6.138 -0.5570 -0.3114  0.1470
   97SAPE   H3R 9677   1.188   5.285   6.116 -1.2029 -0.2546 -0.1569
   97SAPE   H3S 9678   1.272   5.416   6.207 -1.4141 -0.6541  1.3302
   97SAPE   C24 9679   1.230   5.471   6.010 -0.4634 -0.6961  1.0230
   97SAPE   H4R 9680   1.341   5.467   6.012 -0.4692 -2.0152  0.1713
   97SAPE   H4S 9681   1.194   5.576   6.018  0.9438 -0.0410 -0.6074
   97SAPE   C25 9682   1.172   5.416   5.887 -0.4511 -0.0095 -0.3992
   97SAPE   H5R 9683   1.069   5.384   5.907 -0.3760 -0.7760 -1.1829
   97SAPE   C26 9684   1.235   5.369   5.770 -0.0473 -0.3610 -0.1895
   97SAPE   H6R 9685   1.176   5.318   5.692 -0.8106  0.3001 -0.0617
   97SAPE   C27 9686   1.386   5.404   5.749 -0.1118 -0.2106  0.0119
   97SAPE   H7R 9687   1.428   5.310   5.708  1.4955 -0.3550  1.8436
   97SAPE   H7S 9688   1.439   5.402   5.847 -0.0325 -1.8888 -0.0429
   97SAPE   C28 9689   1.411   5.530   5.666  0.7742  0.4127  0.1006
   97SAPE   H8R 9690   1.452   5.615   5.722  0.9914  0.6572 -0.4289
   97SAPE   C29 9691   1.389   5.549   5.536  0.6311 -0.1641  0.6694
   97SAPE   H9R 9692   1.377   5.653   5.501  0.4979 -1.2002 -2.7508
   97SAPE  C210 9693   1.355   5.447   5.432  0.9199  0.7168  0.1501
   97SAPE  H10R 9694   1.296   5.499   5.353  0.4640  2.2298  1.4451
   97SAPE  H10S 9695   1.294   5.363   5.470  0.8636  0.6274 -0.1331
   97SAPE  C211 9696   1.478   5.392   5.366 -0.2366  0.4860  0.5740
   97SAPE  H11R 9697   1.574   5.403   5.419  0.1854 -1.4742  0.2967
   97SAPE  C212 9698   1.478   5.320   5.254 -0.8992  0.3134 -0.0830
   97SAPE  H12R 9699   1.573   5.283   5.214  0.5458  2.2343  1.3769
   97SAPE  C213 9700   1.360   5.276   5.175  0.1368 -0.8065 -0.6081
   97SAPE  H13R 9701   1.292   5.363   5.164  0.5606 -0.4521 -0.4588
   97SAPE  H13S 9702   1.309   5.196   5.233  2.0356 -0.2276  2.0459
   97SAPE  C214 9703   1.382   5.228   5.031  0.1436 -0.7306  0.6355
   97SAPE  H14R 9704   1.456   5.291   4.981  1.8747 -1.7591  1.8051
   97SAPE  C215 9705   1.338   5.117   4.971  0.1677 -0.4861  0.5078
   97SAPE  H15R 9706   1.364   5.110   4.865  0.2550 -1.4091  0.5782
   97SAPE  C216 9707   1.234   5.023   5.015 -0.3381  0.3437 -0.6022
   97SAPE  H16R 9708   1.237   5.011   5.126  0.1477  1.8954 -0.4279
   97SAPE  H16S 9709   1.242   4.920   4.974 -1.2291  0.3998 -0.9354
   97SAPE  C217 9710   1.094   5.077   4.980 -0.0085 -0.8853 -0.2586
   97SAPE  H17R 9711   1.078   5.178   5.023 -2.3367 -1.1876 -0.2780
   97SAPE  H17S 9712   1.022   5.002   5.018 -1.0000  0.7527  1.2921
   97SAPE  C218 9713   1.065   5.099   4.830  0.1943  0.2482 -0.1164
   97SAPE  H18R 9714   1.088   5.003   4.778 -0.6452  0.5174 -0.9997
   97SAPE  H18S 9715   1.140   5.171   4.793  3.2127 -1.3350  2.3756
   97SAPE  C219 9716   0.931   5.153   4.790 -0.4301 -0.1784 -0.1046
   97SAPE  H19R 9717   0.954   5.200   4.691 -0.2348  0.5209  0.2659
   97SAPE  H19S 9718   0.898   5.240   4.851 -1.0542 -1.4028  1.3550
   97SAPE  C220 9719   0.823   5.048   4.772  0.6950  0.5890  0.4055
   97SAPE  H20R 9720   0.819   4.990   4.866  0.3240  1.7441  1.1269
   97SAPE  H20S 9721   0.859   4.978   4.694  1.5080 -0.7529  1.9218
   97SAPE  H20T 9722   0.725   5.095   4.750 -0.0423 -0.9658  0.2715
   97SAPE   C33 9723   0.398   5.048   6.157  0.2584  0.2533  0.5936
   97SAPE   H3X 9724   0.344   5.144   6.141  2.0631  1.4999  1.6557
   97SAPE   H3Y 9725   0.339   4.998   6.237 -0.1204 -1.3760 -0.6626
   97SAPE   C34 9726   0.377   4.957   6.037 -0.1786 -0.9658  0.2274
   97SAPE   H4X 9727   0.429   4.988   5.944 -1.0522 -1.3068 -0.3834
   97SAPE   H4Y 9728   0.266   4.951   6.029 -0.2131  1.3228 -3.5861
   97SAPE   C35 9729   0.436   4.816   6.064  0.6003  0.2455 -0.0256
   97SAPE   H5X 9730   0.384   4.772   6.151  0.5497  0.7719  0.2112
   97SAPE   H5Y 9731   0.544   4.839   6.078  0.1287  3.7871 -1.2515
   97SAPE   C36 9732   0.427   4.708   5.940 -0.1467 -0.3990  1.1007
   97SAPE   H6X 9733   0.462   4.605   5.963 -1.2274 -0.4980  2.4789
   97SAPE   H6Y 9734   0.506   4.736   5.867  0.7792 -3.2903  0.8576
   97SAPE   C37 9735   0.290   4.701   5.863 -0.4477  0.7482  0.0146
   97SAPE   H7X 9736   0.252   4.801   5.837  1.1586  1.0675 -1.2486
   97SAPE   H7Y 9737   0.221   4.657   5.938  1.4556  1.3941  2.2675
   97SAPE   C38 9738   0.289   4.610   5.746 -0.9102  0.2033  1.1875
   97SAPE   H8X 9739   0.353   4.522   5.766  1.1403  1.2862 -0.2897
   97SAPE   H8Y 9740   0.348   4.664   5.669  1.0665 -2.0204  1.0240
   97SAPE   C39 9741   0.147   4.566   5.692 -0.3331  0.7078  0.5379
   97SAPE   H9X 9742   0.079   4.548   5.779 -1.6283  0.0424 -0.5693
   97SAPE   H9Y 9743   0.150   4.477   5.626 -0.1733  0.3860  0.9709
   97SAPE  C310 9744   0.083   4.683   5.606  0.0148  0.1433 -0.3738
   97SAPE  H10X 9745   0.092   4.781   5.658  2.0477 -0.0427 -0.2935
   97SAPE  H10Y 9746  -0.025   4.659   5.592 -0.1564 -0.4041  1.5874
   97SAPE  C311 9747   0.155   4.685   5.471 -0.5486 -0.0988 -0.0926
   97SAPE  H11X 9748   0.150   4.590   5.413 -0.1131 -0.0622 -0.1932
   97SAPE  H11Y 9749   0.264   4.698   5.489 -0.6649  0.9505 -0.1283
   97SAPE  C312 9750   0.083   4.790   5.372 -0.1151 -0.1377  0.3454
   97SAPE  H12X 9751   0.096   4.894   5.406 -0.8701  1.0666 -2.7216
   97SAPE  H12Y 9752  -0.024   4.759   5.364  0.0316 -0.4988 -0.2626
   97SAPE  C313 9753   0.147   4.782   5.229  0.2989 -0.2639 -0.3970
   97SAPE  H13X 9754   0.147   4.676   5.198  1.1941  0.2176 -2.1346
   97SAPE  H13Y 9755   0.251   4.821   5.222 -0.6486  2.2148 -2.4642
   97SAPE  C314 9756   0.059   4.852   5.132 -0.6990  0.7055 -0.4714
   97SAPE  H14X 9757   0.040   4.960   5.147 -0.3540  1.0698 -2.3378
   97SAPE  H14Y 9758  -0.041   4.804   5.131 -0.9520  1.1689  0.9771
   97SAPE  C315 9759   0.119   4.846   4.988 -0.0723 -0.0610  0.3303
   97SAPE  H15X 9760   0.119   4.741   4.954  3.4583 -0.0451 -0.0293
   97SAPE  H15Y 9761   0.224   4.882   4.981  0.7869 -2.3937  0.6060
   97SAPE  C316 9762   0.041   4.933   4.894  0.2764 -0.5060 -0.1589
   97SAPE  H16X 9763   0.073   5.040   4.900 -1.8327  0.1461  0.2158
   97SAPE  H16Y 9764  -0.061   4.917   4.934  0.7345 -3.6511 -0.0173
   97SAPE  C317 9765   0.038   4.903   4.744 -0.0978 -0.3581  0.2544
   97SAPE  H17X 9766  -0.044   4.954   4.690 -0.6051 -1.5516 -0.1471
   97SAPE  H17Y 9767   0.045   4.793   4.726  1.2586 -0.1628 -0.5436
   97SAPE  C318 9768   0.153   4.953   4.657  0.0700 -0.3117  0.5382
   97SAPE  H18X 9769   0.249   4.918   4.702  0.8020 -0.8599 -1.3331
   97SAPE  H18Y 9770   0.151   5.063   4.665  2.8130 -0.0662 -0.9281
   97SAPE  H18Z 9771   0.146   4.920   4.551 -0.1407  3.5820 -0.8122
   98SAPE     N 9772   4.896   0.737   7.218  0.0548  0.0377 -0.1671
   98SAPE   HN1 9773   4.987   0.688   7.225  0.3198  0.7485  1.9383
   98SAPE   HN2 9774   4.905   0.826   7.164  1.1167  1.0381  1.5708
   98SAPE   HN3 9775   4.866   0.752   7.316 -0.6895 -0.1108 -0.3655
   98SAPE   C12 9776   4.795   0.652   7.147 -0.8743  0.6484 -0.3048
   98SAPE  H12A 9777   4.696   0.701   7.165 -0.8359  0.2930  0.9246
   98SAPE  H12B 9778   4.800   0.552   7.193 -1.7372 -0.3217 -2.1913
   98SAPE   C11 9779   4.811   0.637   6.998  0.1657 -0.5855 -0.5361
   98SAPE  H11A 9780   4.775   0.730   6.948 -1.6798 -1.4852 -0.9879
   98SAPE  H11B 9781   4.743   0.562   6.952  1.3722 -0.4703 -2.6475
   98SAPE     P 9782   5.053   0.670   6.875 -0.2533  0.1227  0.0482
   98SAPE   O13 9783   5.072   0.814   6.920 -0.3916 -0.7464  0.0742
   98SAPE   O14 9784   5.173   0.589   6.859 -0.7774  0.2594  0.3268
   98SAPE   O12 9785   4.950   0.600   6.980 -0.4806 -0.5205 -0.3142
   98SAPE   O11 9786   4.969   0.679   6.743  0.0001  0.5182  0.0996
   98SAPE    C1 9787   4.892   0.582   6.679  0.0437  0.3675  0.5228
   98SAPE    HA 9788   4.828   0.527   6.751 -0.5925  0.9057  0.3758
   98SAPE    HB 9789   4.829   0.628   6.600  0.8319  1.0394  0.2791
   98SAPE    C2 9790   4.979   0.476   6.606  0.1742 -0.3897 -0.4808
   98SAPE    HS 9791   5.051   0.436   6.680 -3.3733 -1.1131  2.9027
   98SAPE   O21 9792   5.032   0.532   6.484  0.1182 -0.3182 -0.7488
   98SAPE   C21 9793   5.153   0.502   6.456 -0.0495 -0.3086  0.7641
   98SAPE   O22 9794   5.234   0.428   6.511  0.0113 -0.1601 -0.1087
   98SAPE   C22 9795   5.191   0.591   6.339 -0.5205 -0.1766 -0.0289
   98SAPE   H2R 9796   5.107   0.646   6.292 -0.4698 -1.0919 -1.2636
   98SAPE   H2S 9797   5.268   0.666   6.367 -0.2881 -0.3737 -0.1345
   98SAPE    C3 9798   4.890   0.350   6.578 -0.4690  0.0022 -0.2409
   98SAPE    HX 9799   4.788   0.386   6.549 -0.2051  1.7484  0.7849
   98SAPE    HY 9800   4.880   0.301   6.677  1.6194 -0.5559 -0.2693
   98SAPE   O31 9801   4.939   0.255   6.477  0.0613 -0.0532  0.4073
   98SAPE   C31 9802   4.982   0.136   6.519  0.1975 -0.5504  0.1702
   98SAPE   O32 9803   4.980   0.103   6.637 -0.3160  0.5191  0.1376
   98SAPE   C32 9804   5.044   0.055   6.403  0.5731 -0.1921 -0.2842
   98SAPE   H2X 9805   5.148   0.089   6.386  0.8686  1.7890  4.0394
   98SAPE   H2Y 9806   4.981   0.085   6.317 -0.3144  1.9596  1.0110
   98SAPE   C23 9807   5.274   0.506   6.239 -0.2207  0.4642 -0.3047
   98SAPE   H3R 9808   5.366   0.479   6.294 -0.9366  0.6042  0.9879
   98SAPE   H3S 9809   5.300   0.577   6.157  1.7880  2.6478  2.0521
   98SAPE   C24 9810   5.207   0.385   6.172 -1.0289  0.9133  0.3373
   98SAPE   H4R 9811   5.209   0.303   6.247  0.3248 -0.9359 -1.6050
   98SAPE   H4S 9812   5.266   0.341   6.088  1.2680  1.2504  1.6831
   98SAPE   C25 9813   5.061   0.404   6.130 -0.3931 -0.0639 -0.1029
   98SAPE   H5R 9814   4.994   0.452   6.204 -1.1815 -3.1719  1.3555
   98SAPE   C26 9815   4.997   0.349   6.023 -0.5973  0.6425  0.4508
   98SAPE   H6R 9816   4.888   0.347   6.031 -0.4502  1.0071  4.0104
   98SAPE   C27 9817   5.068   0.257   5.918 -0.0017 -0.2675 -0.4270
   98SAPE   H7R 9818   5.173   0.295   5.912 -0.8773  2.6956  1.2294
   98SAPE   H7S 9819   5.017   0.276   5.821  0.2390 -0.5810 -0.6172
   98SAPE   C28 9820   5.073   0.112   5.945  0.5551  0.2777  0.1761
   98SAPE   H8R 9821   5.083   0.083   6.051  0.2948 -1.6082 -0.2667
   98SAPE   C29 9822   5.077   0.011   5.855  0.3306  0.3074 -0.1094
   98SAPE   H9R 9823   5.085  -0.091   5.896  1.1766  0.8009  1.0265
   98SAPE  C210 9824   5.061   0.007   5.704 -0.1110 -0.2354  0.4274
   98SAPE  H10R 9825   4.954   0.029   5.685  0.4013 -0.4244 -3.5009
   98SAPE  H10S 9826   5.078  -0.093   5.659  1.4906  0.4501 -0.5855
   98SAPE  C211 9827   5.152   0.095   5.625 -0.1896  0.3784  0.6886
   98SAPE  H11R 9828   5.233   0.143   5.683  0.2114 -0.2350  0.6370
   98SAPE  C212 9829   5.137   0.135   5.498 -0.1257  0.6176 -0.5206
   98SAPE  H12R 9830   5.197   0.219   5.459 -1.4766  1.4013 -1.0007
   98SAPE  C213 9831   5.035   0.086   5.398 -0.5895 -0.4982 -0.3339
   98SAPE  H13R 9832   4.974   0.003   5.438 -1.9695  0.4127 -0.4747
   98SAPE  H13S 9833   5.096   0.031   5.323  0.5303 -0.1682  0.3022
   98SAPE  C214 9834   4.940   0.184   5.349  0.0598 -0.6945 -0.9389
   98SAPE  H14R 9835   4.837   0.174   5.387 -0.0324 -0.2479 -1.0738
   98SAPE  C215 9836   4.958   0.265   5.241 -0.0918  0.1890  0.5429
   98SAPE  H15R 9837   4.869   0.316   5.201 -1.4835 -0.8526  2.1390
   98SAPE  C216 9838   5.089   0.291   5.174  0.1157  0.6376  0.7269
   98SAPE  H16R 9839   5.089   0.239   5.076 -1.3861  2.3920 -0.2870
   98SAPE  H16S 9840   5.177   0.245   5.224  0.5305 -0.4956 -0.9367
   98SAPE  C217 9841   5.110   0.439   5.133  0.3427 -0.6848 -0.0929
   98SAPE  H17R 9842   5.215   0.432   5.097  1.3892  0.7510  2.4164
   98SAPE  H17S 9843   5.101   0.503   5.224 -1.3932 -1.6055  0.4281
   98SAPE  C218 9844   5.014   0.494   5.027  0.0119  0.1574 -0.0886
   98SAPE  H18R 9845   4.910   0.457   5.042  0.2133 -0.1073  0.6684
   98SAPE  H18S 9846   5.047   0.451   4.929  1.3329  0.7083  0.0918
   98SAPE  C219 9847   5.016   0.650   5.026  0.1881 -0.0690  0.9249
   98SAPE  H19R 9848   5.105   0.668   4.962  0.5395 -0.5928  1.2518
   98SAPE  H19S 9849   5.050   0.666   5.131 -3.0575  0.9955  1.9216
   98SAPE  C220 9850   4.893   0.725   4.979 -0.6349 -0.3337 -0.1946
   98SAPE  H20R 9851   4.860   0.691   4.879  0.2306  1.7504 -1.2620
   98SAPE  H20S 9852   4.897   0.836   4.980 -1.8775 -0.1895 -2.7796
   98SAPE  H20T 9853   4.820   0.690   5.056  0.2088 -0.8499  0.3815
   98SAPE   C33 9854   5.044  -0.092   6.425 -0.3771  0.2770  0.2100
   98SAPE   H3X 9855   4.947  -0.113   6.476 -0.6331 -0.6977 -0.6242
   98SAPE   H3Y 9856   5.121  -0.135   6.492  0.9399 -1.0360 -2.0260
   98SAPE   C34 9857   5.051  -0.164   6.291  0.0359 -0.1278 -0.4614
   98SAPE   H4X 9858   5.155  -0.155   6.254  0.2534 -0.8887 -0.0426
   98SAPE   H4Y 9859   4.983  -0.108   6.223 -0.7479 -1.0354 -0.4360
   98SAPE   C35 9860   5.020  -0.314   6.315  0.4055  0.1170  0.5878
   98SAPE   H5X 9861   4.952  -0.342   6.398 -1.4954 -0.6763 -1.1548
   98SAPE   H5Y 9862   5.115  -0.366   6.339  1.8203  1.8952 -0.8805
   98SAPE   C36 9863   4.962  -0.386   6.194 -0.2929  0.2024 -1.1080
   98SAPE   H6X 9864   4.853  -0.367   6.189 -0.2409  1.1553  0.5691
   98SAPE   H6Y 9865   4.968  -0.494   6.217  0.3779 -0.2648 -3.2558
   98SAPE   C37 9866   5.021  -0.349   6.058  0.8222  0.1582  0.8469
   98SAPE   H7X 9867   5.129  -0.329   6.072  0.9621  0.6266 -0.6600
   98SAPE   H7Y 9868   4.982  -0.252   6.020  0.6035  0.3311  1.4982
   98SAPE   C38 9869   5.001  -0.460   5.961  0.0575  0.2300  0.2994
   98SAPE   H8X 9870   4.894  -0.490   5.959  0.3560 -0.8999  0.5802
   98SAPE   H8Y 9871   5.059  -0.550   5.991  1.5386  0.2525 -2.1856
   98SAPE   C39 9872   5.051  -0.422   5.822  0.0149 -0.2025 -0.1266
   98SAPE   H9X 9873   5.162  -0.420   5.824  0.0216 -0.4795  1.4910
   98SAPE   H9Y 9874   5.009  -0.323   5.795  1.4127  0.2659 -0.6371
   98SAPE  C310 9875   5.009  -0.519   5.716  0.2372 -0.3095 -0.0774
   98SAPE  H10X 9876   4.899  -0.532   5.713  0.3350 -1.0629 -1.7235
   98SAPE  H10Y 9877   5.065  -0.609   5.749  2.0907  1.2538  1.3154
   98SAPE  C311 9878   5.057  -0.472   5.579 -1.2089  0.9604 -1.1361
   98SAPE  H11X 9879   5.161  -0.433   5.574 -1.2906  1.2749 -0.5468
   98SAPE  H11Y 9880   4.983  -0.395   5.547 -2.3132  0.8468  0.9351
   98SAPE  C312 9881   5.034  -0.583   5.467  0.1791 -0.2089 -0.5550
   98SAPE  H12X 9882   4.928  -0.599   5.439  0.3331 -1.6474 -0.3967
   98SAPE  H12Y 9883   5.080  -0.676   5.506 -2.2515 -0.4290  2.1502
   98SAPE  C313 9884   5.095  -0.530   5.337  0.3107 -0.2482  0.5492
   98SAPE  H13X 9885   5.107  -0.607   5.258  0.7349  1.0020 -0.6599
   98SAPE  H13Y 9886   5.200  -0.504   5.365  0.2002 -1.5456  2.2878
   98SAPE  C314 9887   5.026  -0.403   5.276  1.0047 -0.0195  0.0170
   98SAPE  H14X 9888   5.099  -0.348   5.214  0.2338 -0.9763 -1.8062
   98SAPE  H14Y 9889   4.995  -0.331   5.355  0.4216  0.0054 -0.2263
   98SAPE  C315 9890   4.911  -0.443   5.189 -0.1007  0.1697  0.6182
   98SAPE  H15X 9891   4.849  -0.513   5.248  0.9024  0.0624  1.5835
   98SAPE  H15Y 9892   4.956  -0.486   5.097 -0.5854  0.6456  0.1485
   98SAPE  C316 9893   4.833  -0.322   5.132  0.4212  0.3685  0.1447
   98SAPE  H16X 9894   4.898  -0.270   5.058  0.8993 -0.9145 -0.3689
   98SAPE  H16Y 9895   4.824  -0.253   5.219  0.0685 -1.8594  1.9653
   98SAPE  C317 9896   4.691  -0.341   5.083  0.6381  0.0833  0.1626
   98SAPE  H17X 9897   4.619  -0.366   5.164  1.7318 -0.5346  0.9584
   98SAPE  H17Y 9898   4.678  -0.426   5.012 -4.3794  0.5777  0.1096
   98SAPE  C318 9899   4.643  -0.218   5.010  0.0601 -1.3419  0.0453
   98SAPE  H18X 9900   4.537  -0.233   4.982 -0.3675  0.8041  0.3702
   98SAPE  H18Y 9901   4.696  -0.203   4.913  0.6702  1.3844  0.7247
   98SAPE  H18Z 9902   4.658  -0.123   5.066 -2.5571 -0.6121 -0.3778
   99SAPE     N 9903   5.390   5.442   6.703 -0.5686  0.1170  0.1822
   99SAPE   HN1 9904   5.345   5.502   6.631  0.9317 -1.1107 -1.9106
   99SAPE   HN2 9905   5.490   5.469   6.717 -0.0510 -0.8444 -1.4266
   99SAPE   HN3 9906   5.398   5.348   6.660 -0.3333 -0.3743  1.2736
   99SAPE   C12 9907   5.303   5.428   6.825 -0.2029  0.7462  0.4478
   99SAPE  H12A 9908   5.354   5.470   6.914 -3.2472  2.7249  1.4416
   99SAPE  H12B 9909   5.284   5.320   6.841 -0.2663  0.4843 -1.1767
   99SAPE   C11 9910   5.182   5.522   6.807 -0.0151  0.0400  0.6914
   99SAPE  H11A 9911   5.206   5.629   6.824 -2.8196  0.8765 -0.1920
   99SAPE  H11B 9912   5.107   5.490   6.882 -0.9626 -2.4650 -1.1727
   99SAPE     P 9913   5.014   5.387   6.648 -0.4144 -0.3897  0.0464
   99SAPE   O13 9914   5.101   5.267   6.663  0.2444 -0.2368 -0.1573
   99SAPE   O14 9915   4.892   5.396   6.732 -0.5919 -0.3714 -0.0787
   99SAPE   O12 9916   5.111   5.503   6.681 -0.7951  0.3121  0.2344
   99SAPE   O11 9917   4.982   5.404   6.491  0.0298  0.4937  0.1299
   99SAPE    C1 9918   5.077   5.453   6.396  0.3353  0.4844 -0.7176
   99SAPE    HA 9919   5.147   5.530   6.434  1.0007  0.2716 -1.4952
   99SAPE    HB 9920   5.138   5.365   6.369 -1.4269 -2.2498  3.2082
   99SAPE    C2 9921   5.007   5.506   6.261  0.3202  0.2320 -0.3743
   99SAPE    HS 9922   5.074   5.481   6.176  2.2889  1.8978  0.5928
   99SAPE   O21 9923   5.002   5.650   6.264 -0.3032  0.1606 -0.2289
   99SAPE   C21 9924   5.113   5.705   6.230 -0.2196 -0.1250 -0.4049
   99SAPE   O22 9925   5.219   5.652   6.195 -0.2790 -0.4082  0.5217
   99SAPE   C22 9926   5.092   5.861   6.237  0.2224 -0.2462 -0.2868
   99SAPE   H2R 9927   5.003   5.868   6.304 -1.9242 -3.1568 -2.5488
   99SAPE   H2S 9928   5.178   5.908   6.290  0.1844 -1.3053  0.7523
   99SAPE    C3 9929   4.859   5.455   6.238  0.4011  0.2056  0.1234
   99SAPE    HX 9930   4.787   5.475   6.320 -0.0809  3.7472 -0.9638
   99SAPE    HY 9931   4.864   5.346   6.222  0.4458  0.2706 -0.3258
   99SAPE   O31 9932   4.815   5.518   6.113 -0.3953  0.5647  0.1898
   99SAPE   C31 9933   4.730   5.620   6.124 -0.5862  0.0120  0.2277
   99SAPE   O32 9934   4.691   5.676   6.226 -0.2496  0.3683 -0.3763
   99SAPE   C32 9935   4.678   5.660   5.983 -0.1588  0.4446 -0.3813
   99SAPE   H2X 9936   4.711   5.583   5.910 -2.2295 -1.5334  0.6420
   99SAPE   H2Y 9937   4.734   5.754   5.966  0.2493  0.0427 -1.4063
   99SAPE   C23 9938   5.047   5.925   6.100  0.1636 -0.9310  0.3706
   99SAPE   H3R 9939   4.965   5.996   6.124  0.2787 -0.6353 -0.0886
   99SAPE   H3S 9940   4.989   5.845   6.051 -1.5684  1.5203 -1.8827
   99SAPE   C24 9941   5.168   6.001   6.032  0.3960  0.2178  0.6903
   99SAPE   H4R 9942   5.229   6.062   6.101  0.4830  2.0304 -0.9195
   99SAPE   H4S 9943   5.125   6.070   5.956  0.6605 -1.1136 -0.7174
   99SAPE   C25 9944   5.260   5.897   5.972  0.5088  0.1169 -0.3358
   99SAPE   H5R 9945   5.287   5.817   6.043  0.3531  0.7523  0.4482
   99SAPE   C26 9946   5.307   5.889   5.849 -0.9147  0.9659  0.2539
   99SAPE   H6R 9947   5.372   5.805   5.820 -2.0174  0.1033  0.1638
   99SAPE   C27 9948   5.289   5.991   5.742  0.2704 -0.0171  0.5629
   99SAPE   H7R 9949   5.374   5.978   5.672  1.6258  1.5490  1.8185
   99SAPE   H7S 9950   5.300   6.095   5.781  0.9367 -0.2502  1.0168
   99SAPE   C28 9951   5.151   5.979   5.683 -1.0439  0.4010 -0.7110
   99SAPE   H8R 9952   5.069   5.993   5.755  0.2568  0.0240  0.9051
   99SAPE   C29 9953   5.120   5.951   5.556 -0.2584  0.6758 -0.3002
   99SAPE   H9R 9954   5.013   5.933   5.536 -0.3539 -0.3183  0.9294
   99SAPE  C210 9955   5.209   5.912   5.442  0.2338 -0.4744  0.0700
   99SAPE  H10R 9956   5.153   5.858   5.362 -1.6471  1.8794 -0.3205
   99SAPE  H10S 9957   5.290   5.849   5.485  0.0235 -1.5584 -1.0550
   99SAPE  C211 9958   5.274   6.041   5.385  0.6480  0.5708 -0.1374
   99SAPE  H11R 9959   5.286   6.127   5.452  1.1264  1.0028 -0.7736
   99SAPE  C212 9960   5.318   6.066   5.262  0.6708  0.4822  0.1550
   99SAPE  H12R 9961   5.349   6.166   5.228 -2.2227  0.7651 -2.0681
   99SAPE  C213 9962   5.321   5.963   5.148 -0.0118 -0.4940 -0.0664
   99SAPE  H13R 9963   5.276   5.865   5.172 -0.1067 -0.1679  1.1965
   99SAPE  H13S 9964   5.428   5.936   5.136  0.4926  0.8674  1.0224
   99SAPE  C214 9965   5.257   6.012   5.020  0.2433  0.3472 -0.1399
   99SAPE  H14R 9966   5.165   6.070   5.033  0.3837  0.3934  0.7125
   99SAPE  C215 9967   5.297   5.979   4.894  0.2336 -0.9580  0.2891
   99SAPE  H15R 9968   5.234   6.019   4.813  0.0445 -1.5054  0.1642
   99SAPE  C216 9969   5.394   5.875   4.853  0.1189  0.3231 -0.1675
   99SAPE  H16R 9970   5.345   5.792   4.798  3.0424 -1.9841  0.4732
   99SAPE  H16S 9971   5.432   5.829   4.947 -0.4676  0.2342  0.0295
   99SAPE  C217 9972   5.508   5.934   4.766  0.4240  0.1222  0.6453
   99SAPE  H17R 9973   5.569   5.851   4.724 -1.9423 -1.1438 -0.4749
   99SAPE  H17S 9974   5.574   5.994   4.833  1.2422 -0.5898  0.5012
   99SAPE  C218 9975   5.459   6.013   4.640 -0.1496  0.0553  0.2229
   99SAPE  H18R 9976   5.378   6.085   4.664 -1.9891 -0.5396 -3.4508
   99SAPE  H18S 9977   5.406   5.950   4.565 -0.8696  0.4204  0.4186
   99SAPE  C219 9978   5.571   6.078   4.555 -0.4990 -0.3601  0.1112
   99SAPE  H19R 9979   5.644   6.127   4.624  0.5455 -0.7247 -0.7070
   99SAPE  H19S 9980   5.526   6.160   4.494  1.6232  0.7962 -0.0179
   99SAPE  C220 9981   5.656   5.990   4.461 -0.4372 -0.3785 -1.0010
   99SAPE  H20R 9982   5.587   5.936   4.392  0.5216 -1.0402 -1.4487
   99SAPE  H20S 9983   5.712   5.920   4.526 -1.4942 -1.1026 -0.8462
   99SAPE  H20T 9984   5.727   6.047   4.398 -0.2269  0.8403  0.2860
   99SAPE   C33 9985   4.520   5.678   5.970  0.2314 -0.9861  0.0049
   99SAPE   H3X 9986   4.488   5.752   6.046 -2.1095  1.1178 -2.7760
   99SAPE   H3Y 9987   4.463   5.587   6.001  0.2112 -0.9472  0.0817
   99SAPE   C34 9988   4.489   5.740   5.831  0.9036  0.0481  0.6947
   99SAPE   H4X 9989   4.521   5.671   5.750  1.0920 -2.1990  2.5662
   99SAPE   H4Y 9990   4.543   5.836   5.825 -0.4175  0.7894  0.0189
   99SAPE   C35 9991   4.339   5.771   5.822  0.0174  0.0857 -1.6068
   99SAPE   H5X 9992   4.307   5.845   5.898  2.3263 -0.4565 -0.0001
   99SAPE   H5Y 9993   4.285   5.677   5.849  1.4873 -0.0544  1.2058
   99SAPE   C36 9994   4.302   5.808   5.683  0.4505  0.1475  0.4027
   99SAPE   H6X 9995   4.192   5.801   5.671  0.6480  1.2247 -3.9226
   99SAPE   H6Y 9996   4.347   5.743   5.604 -2.4184 -1.7299  0.1914
   99SAPE   C37 9997   4.322   5.949   5.626  0.1954  0.4943 -0.2810
   99SAPE   H7X 9998   4.420   5.953   5.574  0.5134  3.5692  0.3691
   99SAPE   H7Y 9999   4.314   6.016   5.714 -1.5392  0.6470 -0.5055
   99SAPE   C3810000   4.210   5.996   5.530  0.3708 -0.8438  0.6671
   99SAPE   H8X10001   4.229   6.105   5.519  0.3727 -0.8143  0.9524
   99SAPE   H8Y10002   4.118   5.990   5.591  1.2424  1.0564  2.2749
   99SAPE   C3910003   4.209   5.935   5.385  0.4719  0.4243  0.0085
   99SAPE   H9X10004   4.174   5.831   5.406 -2.2758  1.4780  1.0805
   99SAPE   H9Y10005   4.313   5.936   5.347  0.7352  0.1360  0.6969
   99SAPE  C31010006   4.115   6.013   5.295 -0.1022  0.3932 -0.0497
   99SAPE  H10X10007   4.166   6.112   5.289  0.1222  0.3720  1.1862
   99SAPE  H10Y10008   4.013   6.012   5.341 -0.6801 -0.8855 -1.2982
   99SAPE  C31110009   4.104   5.962   5.154  0.4075 -0.4172  0.0528
   99SAPE  H11X10010   4.079   5.854   5.160  1.9733 -0.9203 -1.5465
   99SAPE  H11Y10011   4.210   5.964   5.121  0.6020  2.8742  0.5728
   99SAPE  C31210012   4.008   6.036   5.064  0.7344  0.6866  0.0482
   99SAPE  H12X10013   4.046   6.136   5.035  1.6912  0.4760  0.5374
   99SAPE  H12Y10014   3.916   6.034   5.127  0.5538  0.1552 -0.2266
   99SAPE  C31310015   3.984   5.969   4.927 -0.1176 -0.0433 -0.3278
   99SAPE  H13X10016   3.888   6.016   4.895 -0.7260 -1.0149  0.0443
   99SAPE  H13Y10017   3.964   5.861   4.938  2.2369 -0.5996 -0.9107
   99SAPE  C31410018   4.097   5.998   4.833  0.1214  0.2909 -1.5689
   99SAPE  H14X10019   4.192   5.954   4.872  0.9580 -0.0188 -3.8276
   99SAPE  H14Y10020   4.117   6.107   4.828  2.0518  0.2693  1.8009
   99SAPE  C31510021   4.085   5.942   4.687 -0.4929  0.2792  0.4040
   99SAPE  H15X10022   4.075   5.832   4.697 -1.6569  0.3282 -0.2015
   99SAPE  H15Y10023   4.171   5.969   4.621  0.8956 -2.9871  0.6675
   99SAPE  C31610024   3.959   5.988   4.616 -0.6622 -0.4320 -0.1444
   99SAPE  H16X10025   3.955   6.098   4.604 -1.2356 -0.5002 -0.5815
   99SAPE  H16Y10026   3.871   5.968   4.681 -0.6089 -0.1836  0.0059
   99SAPE  C31710027   3.943   5.923   4.474  0.3289 -0.1559  0.6126
   99SAPE  H17X10028   3.918   5.815   4.478  1.1577 -0.3678  0.3163
   99SAPE  H17Y10029   4.040   5.926   4.420  0.5093 -0.2370  0.9311
   99SAPE  C31810030   3.845   5.998   4.386  0.1292 -0.7811 -0.0865
   99SAPE  H18X10031   3.787   5.929   4.322 -1.4398  0.2277  0.1977
   99SAPE  H18Y10032   3.890   6.065   4.309 -0.9159 -1.7170 -1.5436
   99SAPE  H18Z10033   3.768   6.051   4.446  1.0814 -0.3665  0.8017
  100SAPE     N10034   4.682   4.647   6.443 -0.1298  0.1370 -0.3308
  100SAPE   HN110035   4.594   4.675   6.489 -0.8631 -1.1767 -0.8903
  100SAPE   HN210036   4.639   4.609   6.356 -1.3360 -0.5615  0.5360
  100SAPE   HN310037   4.716   4.559   6.488 -0.3442 -0.7127 -1.7506
  100SAPE   C1210038   4.792   4.751   6.415 -0.3085 -0.1164 -0.4435
  100SAPE  H12A10039   4.868   4.713   6.344 -0.1204 -0.1419 -0.2272
  100SAPE  H12B10040   4.843   4.766   6.513 -1.7595  2.1481  0.0561
  100SAPE   C1110041   4.735   4.879   6.358 -0.1772 -0.5777 -0.0378
  100SAPE  H11A10042   4.677   4.857   6.266 -0.0090 -1.7249  0.1187
  100SAPE  H11B10043   4.810   4.953   6.323 -3.3364  1.9160 -2.1091
  100SAPE     P10044   4.719   5.044   6.558  0.5051  0.5844 -0.1483
  100SAPE   O1310045   4.618   5.077   6.663  0.6820  0.6653  0.4862
  100SAPE   O1410046   4.854   5.000   6.605 -0.0141 -0.6915 -0.2008
  100SAPE   O1210047   4.649   4.941   6.459 -0.4284 -0.1013  0.9124
  100SAPE   O1110048   4.734   5.161   6.458 -0.0894  0.1761  0.3727
  100SAPE    C110049   4.609   5.235   6.431  0.0146 -0.0850 -0.5152
  100SAPE    HA10050   4.529   5.236   6.508 -0.5638  1.4681 -1.1125
  100SAPE    HB10051   4.622   5.344   6.414 -1.8906  0.0457 -1.3070
  100SAPE    C210052   4.531   5.193   6.304 -0.0125  0.2365 -0.4416
  100SAPE    HS10053   4.499   5.087   6.314  0.2680 -0.0720 -2.4751
  100SAPE   O2110054   4.625   5.201   6.199  0.3617 -0.2788  0.4037
  100SAPE   C2110055   4.610   5.116   6.104 -0.4759 -0.3149 -0.2542
  100SAPE   O2210056   4.524   5.028   6.085  0.0331 -0.7295  0.0114
  100SAPE   C2210057   4.697   5.150   5.990 -0.1717  0.2936 -0.2226
  100SAPE   H2R10058   4.650   5.240   5.945  0.3382  1.4517  1.4447
  100SAPE   H2S10059   4.793   5.183   6.034 -0.2815 -1.2987  1.3281
  100SAPE    C310060   4.405   5.281   6.280 -0.2205  0.1204 -0.3449
  100SAPE    HX10061   4.438   5.387   6.285  0.6911 -0.0103 -2.6629
  100SAPE    HY10062   4.333   5.270   6.364  1.4946 -0.5337  1.1135
  100SAPE   O3110063   4.347   5.245   6.155 -0.0176  0.0130 -0.3273
  100SAPE   C3110064   4.239   5.317   6.126  0.3321  0.4967  0.1955
  100SAPE   O3210065   4.199   5.413   6.189 -0.0063 -0.2488  0.3990
  100SAPE   C3210066   4.172   5.272   5.998 -0.1162  0.7283  0.3308
  100SAPE   H2X10067   4.070   5.318   5.994 -0.3427  0.3079  1.0267
  100SAPE   H2Y10068   4.171   5.161   5.990  1.3730  0.6758  0.6952
  100SAPE   C2310069   4.711   5.030   5.889  0.6919 -0.2660 -0.1803
  100SAPE   H3R10070   4.608   5.013   5.850  0.7157 -2.8891  0.7663
  100SAPE   H3S10071   4.749   4.939   5.939 -1.3974 -0.4643  1.1959
  100SAPE   C2410072   4.782   5.054   5.757 -0.7170  0.2465 -0.4878
  100SAPE   H4R10073   4.729   5.129   5.694  1.4651  1.0206 -1.5122
  100SAPE   H4S10074   4.782   4.956   5.705 -0.7800  0.1668 -0.3392
  100SAPE   C2510075   4.922   5.089   5.782 -0.0658 -0.3321  0.3755
  100SAPE   H5R10076   4.988   5.004   5.807 -0.5802 -0.6029  0.8570
  100SAPE   C2610077   4.970   5.216   5.782  0.2986 -0.4032  0.0590
  100SAPE   H6R10078   5.076   5.235   5.804  0.4881  3.2549 -2.9714
  100SAPE   C2710079   4.889   5.343   5.756 -0.2359 -0.5379  1.1638
  100SAPE   H7R10080   4.791   5.355   5.807 -0.8380  1.5691 -0.3417
  100SAPE   H7S10081   4.863   5.344   5.648 -3.2077 -2.1461  1.7470
  100SAPE   C2810082   4.968   5.467   5.788  0.1010 -0.0744  0.3529
  100SAPE   H8R10083   5.040   5.452   5.870  0.9246 -0.6793 -0.4671
  100SAPE   C2910084   4.948   5.591   5.737 -0.0150  0.8366  0.2530
  100SAPE   H9R10085   5.006   5.676   5.777 -1.8458  2.6622 -0.7481
  100SAPE  C21010086   4.842   5.638   5.635  0.5524  0.0262 -0.2944
  100SAPE  H10R10087   4.802   5.737   5.665 -1.3255 -0.6525 -0.4076
  100SAPE  H10S10088   4.764   5.559   5.630  0.9951 -0.5847  1.4248
  100SAPE  C21110089   4.912   5.651   5.502  0.3042 -0.7666  0.1909
  100SAPE  H11R10090   5.020   5.664   5.511  0.5325 -1.2021 -1.4689
  100SAPE  C21210091   4.862   5.671   5.377 -0.2396  0.4758 -1.2275
  100SAPE  H12R10092   4.936   5.678   5.296  2.9630 -2.1778  1.1831
  100SAPE  C21310093   4.721   5.686   5.338 -0.5997  1.2641  0.2102
  100SAPE  H13R10094   4.662   5.616   5.400  0.8602 -1.2185 -1.0438
  100SAPE  H13S10095   4.703   5.651   5.234  2.6023 -1.4180  0.4114
  100SAPE  C21410096   4.656   5.818   5.358  0.1255  0.2425  0.2249
  100SAPE  H14R10097   4.561   5.810   5.414  0.3914 -0.3545  0.6079
  100SAPE  C21510098   4.709   5.942   5.339 -0.7516 -0.6417 -0.0705
  100SAPE  H15R10099   4.652   6.028   5.378  0.3012  0.1057 -0.1492
  100SAPE  C21610100   4.850   5.988   5.295 -0.7186 -0.0933  0.7178
  100SAPE  H16R10101   4.929   5.911   5.309  0.3593  1.0013  0.8225
  100SAPE  H16S10102   4.885   6.071   5.360  0.1784 -0.1477  0.3227
  100SAPE  C21710103   4.870   6.043   5.154  0.3559  0.2395 -0.8909
  100SAPE  H17R10104   4.871   5.957   5.082  0.2882  1.6957 -2.7083
  100SAPE  H17S10105   4.967   6.096   5.159  0.5287 -0.2135  2.3339
  100SAPE  C21810106   4.759   6.138   5.118  0.0494 -0.2489  0.2872
  100SAPE  H18R10107   4.743   6.220   5.192 -0.6452  0.5769 -0.7527
  100SAPE  H18S10108   4.658   6.092   5.112 -1.3326  2.7820 -3.5905
  100SAPE  C21910109   4.777   6.230   4.994 -0.5953 -0.0242  0.1439
  100SAPE  H19R10110   4.881   6.270   4.997 -1.1159  1.4439  3.7503
  100SAPE  H19S10111   4.704   6.314   4.995  1.2353  1.6845 -0.8248
  100SAPE  C22010112   4.765   6.159   4.855 -0.0348 -0.1490 -0.4376
  100SAPE  H20R10113   4.810   6.230   4.782  0.6595 -1.5008 -1.3727
  100SAPE  H20S10114   4.659   6.130   4.836  0.5611 -2.7255 -0.1135
  100SAPE  H20T10115   4.823   6.064   4.852 -0.6823 -0.6254  1.2436
  100SAPE   C3310116   4.246   5.339   5.875 -0.4013 -0.2189 -0.4804
  100SAPE   H3X10117   4.228   5.448   5.884 -1.3040 -0.1251 -2.8830
  100SAPE   H3Y10118   4.189   5.294   5.791 -1.3449  0.5788 -0.2868
  100SAPE   C3410119   4.393   5.292   5.852  0.3958  0.6989 -0.0645
  100SAPE   H4X10120   4.387   5.181   5.851 -1.7037  0.7187  1.9467
  100SAPE   H4Y10121   4.449   5.324   5.942  0.1585  1.0254 -0.0327
  100SAPE   C3510122   4.461   5.360   5.728 -0.1971 -0.5541 -0.8513
  100SAPE   H5X10123   4.569   5.337   5.720  0.4387  1.3417  1.2203
  100SAPE   H5Y10124   4.439   5.469   5.740 -1.6630 -0.7008 -1.9214
  100SAPE   C3610125   4.394   5.339   5.592 -0.1233  0.2295  0.1969
  100SAPE   H6X10126   4.285   5.342   5.612  0.0423 -0.6480  1.3402
  100SAPE   H6Y10127   4.416   5.233   5.570  1.9431  0.7122 -0.2566
  100SAPE   C3710128   4.436   5.444   5.483 -0.0248  0.0156  0.1168
  100SAPE   H7X10129   4.527   5.408   5.432  1.5728  1.7837  1.5697
  100SAPE   H7Y10130   4.459   5.546   5.521 -0.0895  0.5323 -1.1750
  100SAPE   C3810131   4.332   5.456   5.369  0.1454 -0.7500  0.0424
  100SAPE   H8X10132   4.238   5.495   5.416  1.3407 -2.2335  4.0630
  100SAPE   H8Y10133   4.298   5.365   5.315 -0.1336 -0.5067 -0.2000
  100SAPE   C3910134   4.369   5.554   5.250  0.2732 -0.1300 -0.6359
  100SAPE   H9X10135   4.463   5.521   5.200  1.7461 -0.0211  1.8852
  100SAPE   H9Y10136   4.390   5.646   5.308  2.1280 -1.1475  0.4382
  100SAPE  C31010137   4.243   5.576   5.158  0.8112  0.0846  0.1602
  100SAPE  H10X10138   4.264   5.658   5.086  0.0495  0.2718  0.1399
  100SAPE  H10Y10139   4.156   5.613   5.216 -0.5910 -0.1740 -1.6904
  100SAPE  C31110140   4.201   5.447   5.085 -0.4119 -0.1770 -0.0120
  100SAPE  H11X10141   4.145   5.376   5.149 -1.4645 -1.1825 -1.9732
  100SAPE  H11Y10142   4.292   5.394   5.050  1.0142  0.7610  2.0716
  100SAPE  C31210143   4.140   5.467   4.942  0.2204 -0.2068 -0.5655
  100SAPE  H12X10144   4.208   5.499   4.860  0.7692 -3.8599 -1.7051
  100SAPE  H12Y10145   4.071   5.553   4.952  1.7316  1.0197 -0.2543
  100SAPE  C31310146   4.054   5.355   4.882 -0.7802  0.0310  0.2063
  100SAPE  H13X10147   4.029   5.392   4.780  2.2806  1.0794 -0.2844
  100SAPE  H13Y10148   3.962   5.335   4.940 -1.3049  1.9060  0.0653
  100SAPE  C31410149   4.136   5.225   4.862  0.5598  1.0147 -0.7969
  100SAPE  H14X10150   4.095   5.165   4.946  2.1507  1.5789  0.4341
  100SAPE  H14Y10151   4.244   5.239   4.886 -0.0674  0.1701  3.2994
  100SAPE  C31510152   4.103   5.151   4.730  0.2092 -0.1355 -0.6003
  100SAPE  H15X10153   4.163   5.199   4.650  0.3486  0.2579 -0.2650
  100SAPE  H15Y10154   3.997   5.150   4.696  0.7565  0.0195 -2.4062
  100SAPE  C31610155   4.151   5.012   4.733  0.3266  0.0016  0.0183
  100SAPE  H16X10156   4.092   4.954   4.808 -0.8767  2.3400  0.9812
  100SAPE  H16Y10157   4.256   5.014   4.770  1.0369 -1.7494 -1.7358
  100SAPE  C31710158   4.137   4.942   4.593  0.4641  0.8145  0.3487
  100SAPE  H17X10159   4.220   4.869   4.599 -1.1472 -1.0955  0.3504
  100SAPE  H17Y10160   4.160   5.013   4.510 -1.5965 -0.4780 -1.4403
  100SAPE  C31810161   3.997   4.884   4.572  0.0056  0.6872 -0.4765
  100SAPE  H18X10162   3.910   4.950   4.595 -0.5009  0.0736 -0.5956
  100SAPE  H18Y10163   3.978   4.790   4.627 -0.0560  1.5249  0.9629
  100SAPE  H18Z10164   3.990   4.866   4.462  2.9348  2.0072 -0.9708
  101SAPE     N10165   5.913   5.488   6.612 -0.5708 -0.5566  0.7856
  101SAPE   HN110166   5.840   5.418   6.589 -0.0887 -0.8321  0.0571
  101SAPE   HN210167   5.999   5.431   6.627 -0.3899 -0.4013  0.3537
  101SAPE   HN310168   5.894   5.552   6.691 -1.4366  1.0873 -0.6906
  101SAPE   C1210169   5.937   5.580   6.493  0.2386  0.5705 -0.1382
  101SAPE  H12A10170   5.839   5.614   6.455  0.3803 -0.5106 -1.5363
  101SAPE  H12B10171   5.996   5.515   6.425  0.7109 -0.6486  1.3878
  101SAPE   C1110172   6.029   5.697   6.536 -0.4071 -0.6960  0.4168
  101SAPE  H11A10173   6.078   5.750   6.452 -0.9133 -1.3369 -0.2963
  101SAPE  H11B10174   6.115   5.644   6.582 -1.7418 -0.6499  3.1716
  101SAPE     P10175   5.883   5.901   6.638 -0.1382  0.3129  0.3301
  101SAPE   O1310176   5.756   5.847   6.698  0.3254  0.2949 -0.1227
  101SAPE   O1410177   5.946   6.021   6.696  0.1082  0.2381  0.1208
  101SAPE   O1210178   5.981   5.785   6.637 -0.2613  0.2594  0.4499
  101SAPE   O1110179   5.859   5.913   6.476  0.0672  0.1728 -0.0612
  101SAPE    C110180   5.904   6.025   6.403 -0.7883 -0.1262 -0.0936
  101SAPE    HA10181   6.008   6.057   6.428 -1.6406  0.7309  2.7297
  101SAPE    HB10182   5.915   5.995   6.296  1.2202  0.2441 -0.0390
  101SAPE    C210183   5.808   6.145   6.413  0.7438  0.4217 -0.7035
  101SAPE    HS10184   5.793   6.166   6.521  0.0999 -0.1852 -0.6691
  101SAPE   O2110185   5.678   6.116   6.344 -0.7335 -0.2672 -0.4950
  101SAPE   C2110186   5.586   6.202   6.382 -0.3688  0.0639 -0.0974
  101SAPE   O2210187   5.598   6.297   6.463  0.1974 -0.3149 -0.0473
  101SAPE   C2210188   5.461   6.171   6.301 -0.1749  0.1261  0.3325
  101SAPE   H2R10189   5.493   6.164   6.195 -0.5321 -0.2443  0.2497
  101SAPE   H2S10190   5.411   6.078   6.337 -0.9629  0.8351  1.1246
  101SAPE    C310191   5.870   6.267   6.343  0.3353 -0.5697 -0.0572
  101SAPE    HX10192   5.975   6.283   6.375  0.6649 -2.0935 -0.3061
  101SAPE    HY10193   5.817   6.358   6.381  0.8993  0.1388 -0.9227
  101SAPE   O3110194   5.860   6.260   6.196  0.5529  0.1211 -0.0046
  101SAPE   C3110195   5.967   6.216   6.131 -0.0941 -1.0411  0.2377
  101SAPE   O3210196   6.075   6.196   6.176 -0.3833 -0.2837 -0.6994
  101SAPE   C3210197   5.930   6.203   5.985  1.0967  0.2856 -0.3455
  101SAPE   H2X10198   5.865   6.291   5.963 -0.4619 -1.2960 -2.4721
  101SAPE   H2Y10199   5.877   6.108   5.966  0.5357  1.1336 -3.7468
  101SAPE   C2310200   5.352   6.281   6.318 -0.0528  0.4986  0.6863
  101SAPE   H3R10201   5.359   6.334   6.415  1.5206  3.3216 -0.8351
  101SAPE   H3S10202   5.255   6.228   6.314  1.3740 -2.2846  0.7683
  101SAPE   C2410203   5.354   6.388   6.204  0.1679  0.2131  0.2770
  101SAPE   H4R10204   5.288   6.475   6.227 -0.3007 -0.3291  1.0470
  101SAPE   H4S10205   5.308   6.342   6.114 -0.3404 -0.6380  0.9524
  101SAPE   C2510206   5.495   6.438   6.183  0.2281 -0.2581 -0.4191
  101SAPE   H5R10207   5.555   6.466   6.270  1.7168 -0.4550 -1.3435
  101SAPE   C2610208   5.560   6.429   6.072 -0.1695 -0.3376  0.4196
  101SAPE   H6R10209   5.660   6.474   6.076 -1.5504  3.0322 -0.0914
  101SAPE   C2710210   5.511   6.385   5.935 -0.1148  0.1383  0.3950
  101SAPE   H7R10211   5.519   6.466   5.859 -0.1176 -0.7025 -0.5255
  101SAPE   H7S10212   5.403   6.361   5.926 -0.2143  0.8838 -0.5433
  101SAPE   C2810213   5.580   6.253   5.893  0.4499  0.4103  0.2206
  101SAPE   H8R10214   5.646   6.201   5.965  0.4500  1.5795  1.0982
  101SAPE   C2910215   5.571   6.206   5.769  1.0979 -0.5568  1.2087
  101SAPE   H9R10216   5.645   6.128   5.743  0.4090 -0.3469 -1.6826
  101SAPE  C21010217   5.515   6.276   5.649 -0.1152  0.5503  0.1805
  101SAPE  H10R10218   5.450   6.360   5.681 -1.0416  0.0159 -0.2533
  101SAPE  H10S10219   5.443   6.222   5.583  0.6278 -0.6395  0.3221
  101SAPE  C21110220   5.621   6.361   5.582  0.0079  0.2671 -0.5263
  101SAPE  H11R10221   5.691   6.404   5.655  0.7103 -3.1807  1.0305
  101SAPE  C21210222   5.632   6.384   5.451  0.1203 -0.6192  0.1002
  101SAPE  H12R10223   5.711   6.453   5.417 -2.0671  2.4051  0.6858
  101SAPE  C21310224   5.542   6.332   5.341  0.0393 -0.1794  0.1539
  101SAPE  H13R10225   5.453   6.392   5.314 -0.0094 -0.3928 -0.1758
  101SAPE  H13S10226   5.506   6.236   5.385  1.2179 -0.3995  0.6744
  101SAPE  C21410227   5.618   6.302   5.213 -0.0378  0.3179  0.1657
  101SAPE  H14R10228   5.708   6.242   5.233  0.2540  0.7031  0.0214
  101SAPE  C21510229   5.591   6.348   5.089  0.2492  0.3853 -0.2256
  101SAPE  H15R10230   5.654   6.316   5.005  0.6697 -1.4930  0.7453
  101SAPE  C21610231   5.461   6.425   5.062  0.0945  0.6814  0.1771
  101SAPE  H16R10232   5.481   6.530   5.032 -1.8288  1.2460  0.6948
  101SAPE  H16S10233   5.385   6.417   5.142 -0.2415 -1.5099 -0.3035
  101SAPE  C21710234   5.390   6.359   4.939 -0.1806  0.5861 -0.4467
  101SAPE  H17R10235   5.340   6.267   4.973 -1.8155  1.2386 -1.0035
  101SAPE  H17S10236   5.457   6.349   4.851 -0.7233  1.5728 -0.9902
  101SAPE  C21810237   5.276   6.442   4.885  0.1347  0.8700 -0.2085
  101SAPE  H18R10238   5.317   6.509   4.806 -0.5907 -1.8923 -3.0824
  101SAPE  H18S10239   5.236   6.498   4.972  1.7561 -1.3700  2.1406
  101SAPE  C21910240   5.171   6.360   4.809  0.4583  0.2213  0.4704
  101SAPE  H19R10241   5.108   6.295   4.874 -1.1904 -0.0391 -1.3063
  101SAPE  H19S10242   5.231   6.297   4.740  0.2023  0.8034 -0.2946
  101SAPE  C22010243   5.065   6.439   4.728  0.5180 -0.9298 -0.5889
  101SAPE  H20R10244   4.992   6.502   4.784  1.7966  2.3143 -2.2829
  101SAPE  H20S10245   5.014   6.368   4.659  0.1143 -1.4662  0.2539
  101SAPE  H20T10246   5.109   6.521   4.666 -0.0612  1.1415  1.5688
  101SAPE   C3310247   6.049   6.213   5.887  0.0413 -0.4557 -0.6991
  101SAPE   H3X10248   6.128   6.139   5.910 -1.1604 -1.4841  0.2604
  101SAPE   H3Y10249   6.092   6.315   5.893 -1.4704  0.2229 -0.9755
  101SAPE   C3410250   5.994   6.193   5.741  0.2442  0.2223 -0.3480
  101SAPE   H4X10251   5.903   6.253   5.720 -0.6498 -0.5667  1.0985
  101SAPE   H4Y10252   5.970   6.085   5.744 -0.6335  0.3971 -0.7011
  101SAPE   C3510253   6.106   6.216   5.640  0.1789 -0.6501 -0.9583
  101SAPE   H5X10254   6.184   6.145   5.675  0.9682 -0.1221 -1.6073
  101SAPE   H5Y10255   6.147   6.319   5.648  0.8733 -0.8755 -1.5653
  101SAPE   C3610256   6.074   6.195   5.498 -0.4985 -0.1185  1.3538
  101SAPE   H6X10257   5.988   6.260   5.471 -1.5477 -1.3017  1.7563
  101SAPE   H6Y10258   6.036   6.093   5.474 -0.2961  0.1482 -0.1967
  101SAPE   C3710259   6.195   6.223   5.402 -0.2679 -0.8654 -0.7846
  101SAPE   H7X10260   6.272   6.143   5.400  0.2732 -0.3438 -0.7525
  101SAPE   H7Y10261   6.241   6.318   5.437  1.2602 -2.0595  0.5901
  101SAPE   C3810262   6.145   6.259   5.262  0.8101 -0.1947  0.4513
  101SAPE   H8X10263   6.080   6.349   5.254 -0.7994 -1.2770  0.8493
  101SAPE   H8Y10264   6.082   6.180   5.215  1.2386 -0.0928 -0.3142
  101SAPE   C3910265   6.262   6.282   5.171  0.7215 -0.0009 -0.1019
  101SAPE   H9X10266   6.338   6.348   5.217 -1.0681  0.3962  2.5313
  101SAPE   H9Y10267   6.229   6.339   5.081 -0.0597  0.2149  0.3121
  101SAPE  C31010268   6.321   6.147   5.121 -0.9474  0.1567  0.3593
  101SAPE  H10X10269   6.228   6.103   5.080 -1.4644 -0.4757  2.1100
  101SAPE  H10Y10270   6.344   6.079   5.207 -2.6623 -0.5288  0.3088
  101SAPE  C31110271   6.439   6.149   5.026  0.2126 -0.4277  0.5050
  101SAPE  H11X10272   6.476   6.044   5.019  1.3881 -0.1746  2.2052
  101SAPE  H11Y10273   6.521   6.218   5.058  1.5119 -2.4392  1.7942
  101SAPE  C31210274   6.404   6.195   4.884  0.7445  0.0635  0.6370
  101SAPE  H12X10275   6.360   6.296   4.890  2.6724  0.8982  1.2772
  101SAPE  H12Y10276   6.327   6.126   4.843  0.1936  1.5754 -1.0071
  101SAPE  C31310277   6.511   6.178   4.779  0.4658 -0.1359  0.1112
  101SAPE  H13X10278   6.533   6.071   4.756  1.4063 -0.1347  0.9659
  101SAPE  H13Y10279   6.608   6.225   4.803  1.3098 -2.2278  1.0608
  101SAPE  C31410280   6.458   6.249   4.646 -0.0160  0.5104  0.1750
  101SAPE  H14X10281   6.430   6.352   4.676 -0.0344  0.2141  1.2124
  101SAPE  H14Y10282   6.364   6.194   4.623  0.1640 -0.6718  2.0318
  101SAPE  C31510283   6.549   6.258   4.521 -0.0665 -0.3448  0.1874
  101SAPE  H15X10284   6.555   6.173   4.451  2.5729  0.5198 -0.7512
  101SAPE  H15Y10285   6.652   6.285   4.551  1.0437 -3.2548 -0.7028
  101SAPE  C31610286   6.506   6.370   4.422 -0.0304  0.4629  0.2420
  101SAPE  H16X10287   6.577   6.355   4.338 -0.0324 -1.5343  0.5583
  101SAPE  H16Y10288   6.529   6.469   4.466 -2.3199  0.7049  1.0283
  101SAPE  C31710289   6.362   6.386   4.378 -0.1938 -0.5430  0.2594
  101SAPE  H17X10290   6.301   6.391   4.471 -0.2858  0.4021  0.1630
  101SAPE  H17Y10291   6.336   6.290   4.329 -2.5349  0.4259 -0.5187
  101SAPE  C31810292   6.341   6.508   4.288 -0.0010  0.2739  0.4816
  101SAPE  H18X10293   6.397   6.501   4.192 -1.2983 -2.7810 -0.1825
  101SAPE  H18Y10294   6.347   6.605   4.342 -2.2636  1.3989 -1.1068
  101SAPE  H18Z10295   6.233   6.510   4.263 -0.0304 -1.2919  0.4214
  102SAPE     N10296   4.599   5.735   6.487 -0.0740 -0.3772 -0.0314
  102SAPE   HN110297   4.502   5.699   6.496 -1.8794  3.0924 -3.0232
  102SAPE   HN210298   4.585   5.832   6.522 -1.0152  0.1075 -1.6403
  102SAPE   HN310299   4.620   5.747   6.386  1.8264 -0.8137  0.2695
  102SAPE   C1210300   4.710   5.672   6.568 -0.1939 -0.3198 -0.4761
  102SAPE  H12A10301   4.735   5.576   6.519 -0.4149 -0.3318 -0.5690
  102SAPE  H12B10302   4.691   5.663   6.677  0.5684  1.5107 -0.1584
  102SAPE   C1110303   4.841   5.753   6.568 -0.3678 -0.6632 -0.2699
  102SAPE  H11A10304   4.884   5.756   6.465 -1.2072 -4.1388 -0.8420
  102SAPE  H11B10305   4.903   5.694   6.639 -3.3066 -2.0022  1.3509
  102SAPE     P10306   4.860   5.926   6.760 -0.1436 -0.0863  0.0384
  102SAPE   O1310307   4.812   6.062   6.799  0.6008 -0.7136  0.3431
  102SAPE   O1410308   4.822   5.814   6.844 -0.0530 -0.2842 -0.2922
  102SAPE   O1210309   4.815   5.888   6.612  0.3633  0.1085 -0.4810
  102SAPE   O1110310   5.015   5.928   6.750 -0.2812 -0.0847  0.0717
  102SAPE    C110311   5.073   6.051   6.700 -1.1052  0.0251 -0.7027
  102SAPE    HA10312   5.008   6.140   6.713 -1.4622 -0.4032  0.5166
  102SAPE    HB10313   5.161   6.059   6.767 -0.0756 -0.2373 -1.9745
  102SAPE    C210314   5.142   6.022   6.563 -0.5127  0.0702 -1.0532
  102SAPE    HS10315   5.235   6.083   6.560 -0.2835  0.0515  2.0174
  102SAPE   O2110316   5.051   6.047   6.455 -0.2563  0.6533  0.4963
  102SAPE   C2110317   5.007   6.175   6.449  0.3124  0.0647  0.3739
  102SAPE   O2210318   5.052   6.267   6.512  0.3317  0.2605 -0.4915
  102SAPE   C2210319   4.891   6.182   6.353 -0.1359  0.3323  0.5810
  102SAPE   H2R10320   4.902   6.278   6.299  0.9617 -0.1696 -0.1206
  102SAPE   H2S10321   4.897   6.091   6.290  1.6278  1.3374 -0.7944
  102SAPE    C310322   5.202   5.882   6.558  0.3317  0.3725  0.1245
  102SAPE    HX10323   5.137   5.798   6.526 -2.2487  1.7960  1.4011
  102SAPE    HY10324   5.230   5.860   6.663 -0.7433  0.0429  0.3498
  102SAPE   O3110325   5.323   5.880   6.478  0.2536 -0.1947  0.2154
  102SAPE   C3110326   5.393   5.769   6.488  0.0548  0.2608  0.2455
  102SAPE   O3210327   5.355   5.667   6.542 -0.3152  0.6107 -0.2410
  102SAPE   C3210328   5.520   5.786   6.412  0.6445 -0.2522 -0.3556
  102SAPE   H2X10329   5.592   5.711   6.451 -0.4317 -0.7511  0.7345
  102SAPE   H2Y10330   5.559   5.888   6.437 -0.3794  0.5213 -1.7677
  102SAPE   C2310331   4.756   6.200   6.424 -0.4538 -0.1825 -0.1353
  102SAPE   H3R10332   4.770   6.282   6.496  1.1043  0.4921 -1.1506
  102SAPE   H3S10333   4.727   6.112   6.485 -1.2499  0.6096  0.6577
  102SAPE   C2410334   4.632   6.225   6.332 -0.3878  0.3639  0.8469
  102SAPE   H4R10335   4.654   6.314   6.269 -1.5014  1.1055  1.4732
  102SAPE   H4S10336   4.556   6.277   6.394 -1.3296 -1.0989  0.9660
  102SAPE   C2510337   4.567   6.107   6.264 -0.1651  0.2355 -0.4228
  102SAPE   H5R10338   4.510   6.038   6.329 -0.9482 -1.3200 -2.6271
  102SAPE   C2610339   4.566   6.076   6.131 -0.0055 -0.5306  1.3687
  102SAPE   H6R10340   4.518   5.981   6.102 -1.0952 -0.2532  2.1770
  102SAPE   C2710341   4.643   6.156   6.023  0.1451  0.8767 -0.0882
  102SAPE   H7R10342   4.712   6.234   6.062  0.4051 -0.2893  1.9632
  102SAPE   H7S10343   4.574   6.202   5.950  0.2747  0.3046 -0.5818
  102SAPE   C2810344   4.733   6.050   5.959  0.0586 -0.4151  0.7394
  102SAPE   H8R10345   4.788   5.984   6.028  3.6093  1.3448 -0.1934
  102SAPE   C2910346   4.773   6.050   5.829 -0.8816 -0.2282  0.2835
  102SAPE   H9R10347   4.817   5.959   5.784 -0.2734  0.6555 -0.9560
  102SAPE  C21010348   4.731   6.155   5.732 -0.1273  0.0357  0.6807
  102SAPE  H10R10349   4.803   6.148   5.648  0.8608 -0.5270  1.5557
  102SAPE  H10S10350   4.753   6.249   5.787 -0.5964 -1.6298  4.0233
  102SAPE  C21110351   4.584   6.158   5.688  0.3137 -0.1975  0.3979
  102SAPE  H11R10352   4.518   6.100   5.753 -1.5208  0.6141 -0.6479
  102SAPE  C21210353   4.542   6.212   5.573  0.0334 -0.7049 -0.0135
  102SAPE  H12R10354   4.434   6.217   5.551  0.0727 -0.4787 -0.1579
  102SAPE  C21310355   4.621   6.281   5.467  0.3291  0.1769 -0.5071
  102SAPE  H13R10356   4.608   6.236   5.367 -1.5053 -0.3609 -0.0737
  102SAPE  H13S10357   4.728   6.267   5.490  0.1609 -0.9293 -0.3650
  102SAPE  C21410358   4.572   6.419   5.436 -0.0279  0.3753 -0.4159
  102SAPE  H14R10359   4.651   6.494   5.453 -1.0524  1.1293  1.3677
  102SAPE  C21510360   4.447   6.459   5.404  0.0856 -0.4878  0.1025
  102SAPE  H15R10361   4.440   6.568   5.391 -1.8065 -0.1203  3.2975
  102SAPE  C21610362   4.324   6.385   5.375 -0.1033 -0.2694  0.4489
  102SAPE  H16R10363   4.248   6.422   5.446  1.5456  0.2932  1.9881
  102SAPE  H16S10364   4.346   6.278   5.396  2.5336 -0.2941 -1.7912
  102SAPE  C21710365   4.274   6.396   5.227 -0.8794  0.4570  0.2514
  102SAPE  H17R10366   4.252   6.505   5.223  0.2606  0.8273  2.3699
  102SAPE  H17S10367   4.180   6.343   5.204 -0.7223  0.5397 -0.5974
  102SAPE  C21810368   4.369   6.352   5.116 -0.1010 -0.0100  0.0202
  102SAPE  H18R10369   4.390   6.247   5.149 -0.8709 -0.4947 -1.0080
  102SAPE  H18S10370   4.467   6.404   5.127  1.0966 -1.9900 -0.7548
  102SAPE  C21910371   4.317   6.336   4.981  1.3402  0.1562 -0.0236
  102SAPE  H19R10372   4.218   6.287   4.993  2.1292 -0.8564  3.1330
  102SAPE  H19S10373   4.382   6.267   4.922 -2.0120 -1.7643 -1.8631
  102SAPE  C22010374   4.313   6.457   4.891 -0.4927  0.5317  0.0418
  102SAPE  H20R10375   4.260   6.422   4.800 -0.3618  0.1772  0.0995
  102SAPE  H20S10376   4.407   6.494   4.846 -0.3670  2.2028  1.5770
  102SAPE  H20T10377   4.253   6.540   4.934  1.1613  0.9164  1.7150
  102SAPE   C3310378   5.497   5.782   6.256  0.4550  0.8709  0.2029
  102SAPE   H3X10379   5.424   5.859   6.225  0.1574  0.0794 -1.1258
  102SAPE   H3Y10380   5.459   5.685   6.216  1.8474  0.8190 -1.0602
  102SAPE   C3410381   5.626   5.808   6.176  1.0048 -0.3298  0.0890
  102SAPE   H4X10382   5.694   5.721   6.186  0.3272 -0.8362  0.4202
  102SAPE   H4Y10383   5.680   5.901   6.204 -0.3136  0.3990  0.2918
  102SAPE   C3510384   5.606   5.834   6.022  0.2923  0.3841  0.0791
  102SAPE   H5X10385   5.575   5.939   6.007 -0.1558  0.1959 -0.3424
  102SAPE   H5Y10386   5.510   5.789   5.989 -0.6775  2.1763  0.3216
  102SAPE   C3610387   5.734   5.796   5.945  0.0042 -0.2947  0.2404
  102SAPE   H6X10388   5.739   5.686   5.928 -2.1144 -0.0931 -2.5562
  102SAPE   H6Y10389   5.819   5.829   6.008  0.9112  0.1089 -1.1361
  102SAPE   C3710390   5.747   5.863   5.812  0.0106  0.0926  0.1770
  102SAPE   H7X10391   5.852   5.864   5.777 -0.0789 -1.7499 -0.2709
  102SAPE   H7Y10392   5.713   5.969   5.820  1.5481  0.5590  0.9451
  102SAPE   C3810393   5.675   5.787   5.698 -0.5137  0.4371  0.1972
  102SAPE   H8X10394   5.578   5.760   5.745 -0.2317  0.3414  0.7382
  102SAPE   H8Y10395   5.719   5.686   5.685 -2.8996 -1.2720  3.6139
  102SAPE   C3910396   5.654   5.857   5.565  0.0091  0.2948 -0.3718
  102SAPE   H9X10397   5.587   5.944   5.580 -2.7036 -1.4603 -1.4931
  102SAPE   H9Y10398   5.590   5.789   5.504 -0.0694 -1.5672  1.6591
  102SAPE  C31010399   5.785   5.892   5.491  0.1462  0.2021 -0.1237
  102SAPE  H10X10400   5.822   5.791   5.463 -1.3974 -0.2337 -0.7257
  102SAPE  H10Y10401   5.856   5.943   5.559  2.0007  0.0326 -1.8570
  102SAPE  C31110402   5.757   5.970   5.366 -0.3099 -0.3439  0.3926
  102SAPE  H11X10403   5.730   6.072   5.400  0.9853 -0.1397  0.8538
  102SAPE  H11Y10404   5.678   5.914   5.311  0.0839 -0.2398 -0.2840
  102SAPE  C31210405   5.876   5.950   5.265  0.2434  0.2503  0.4427
  102SAPE  H12X10406   5.922   5.850   5.278 -1.4320 -0.7987 -1.2681
  102SAPE  H12Y10407   5.939   6.038   5.292 -2.4193  2.1947  0.7097
  102SAPE  C31310408   5.819   5.970   5.118 -0.4827  0.4114  0.0348
  102SAPE  H13X10409   5.782   6.074   5.110 -2.0173 -0.2688 -2.9960
  102SAPE  H13Y10410   5.731   5.906   5.101  0.4472 -0.9947  0.3219
  102SAPE  C31410411   5.930   5.947   5.021 -0.8945  0.0472  0.6331
  102SAPE  H14X10412   5.977   5.850   5.048 -0.5844  0.2488  0.8143
  102SAPE  H14Y10413   6.005   6.026   5.041  0.1852 -0.4041 -1.3401
  102SAPE  C31510414   5.893   5.953   4.869 -0.8138  0.5540  0.1922
  102SAPE  H15X10415   5.792   5.907   4.863 -1.1178  0.8461  2.3234
  102SAPE  H15Y10416   5.970   5.896   4.813  1.0116  3.7334 -0.7858
  102SAPE  C31610417   5.881   6.094   4.807 -0.8324  0.2274 -0.2768
  102SAPE  H16X10418   5.809   6.149   4.872 -1.6032 -0.7311 -0.2931
  102SAPE  H16Y10419   5.841   6.089   4.704  1.1665  0.9130 -1.1337
  102SAPE  C31710420   6.009   6.174   4.801  0.5903 -0.1302  0.3944
  102SAPE  H17X10421   6.098   6.110   4.781  1.0871  1.0895 -1.5298
  102SAPE  H17Y10422   6.037   6.230   4.892  5.0049 -0.0415 -0.8009
  102SAPE  C31810423   6.001   6.291   4.694  0.2344  0.2832 -0.2384
  102SAPE  H18X10424   5.924   6.364   4.727  0.0148 -0.2012  0.3306
  102SAPE  H18Y10425   5.978   6.256   4.591  0.8777  0.0720 -0.3137
  102SAPE  H18Z10426   6.095   6.348   4.684 -0.4975  1.3616 -1.2444
  103SAPE     N10427   1.343   1.011   2.082  0.2528 -0.6463  0.0468
  103SAPE   HN110428   1.359   0.955   2.168  1.7257  0.5110  0.5675
  103SAPE   HN210429   1.331   1.114   2.094 -0.8005 -0.6029 -1.1245
  103SAPE   HN310430   1.247   0.993   2.046  0.1679 -0.3580  0.1281
  103SAPE   C1210431   1.450   0.966   1.981 -0.1401 -0.0526 -0.3051
  103SAPE  H12A10432   1.544   1.021   2.005 -0.2027  0.1440 -0.5170
  103SAPE  H12B10433   1.412   0.980   1.878 -0.1169 -0.4717 -0.3713
  103SAPE   C1110434   1.496   0.824   2.000 -0.3611 -0.3026  0.1031
  103SAPE  H11A10435   1.550   0.816   2.097  3.7004  4.6439 -1.2959
  103SAPE  H11B10436   1.581   0.795   1.935  0.7484 -0.1595  1.4322
  103SAPE     P10437   1.400   0.576   2.009 -0.1362  0.1990 -0.0427
  103SAPE   O1310438   1.371   0.493   1.893 -0.6141  0.1261  0.3379
  103SAPE   O1410439   1.526   0.555   2.077 -0.5474  0.9026  0.3016
  103SAPE   O1210440   1.386   0.734   1.976 -0.2937  0.0647  0.4681
  103SAPE   O1110441   1.275   0.559   2.109  0.7874 -0.0077  0.2922
  103SAPE    C110442   1.204   0.669   2.157  0.3063  0.2626  0.2263
  103SAPE    HA10443   1.228   0.769   2.115  0.8763 -0.6017 -1.6000
  103SAPE    HB10444   1.100   0.650   2.126 -0.3034  1.4489  1.4254
  103SAPE    C210445   1.201   0.670   2.311 -0.2940  0.1762 -0.2385
  103SAPE    HS10446   1.148   0.756   2.356  0.0982  1.5621 -2.2727
  103SAPE   O2110447   1.338   0.665   2.366  0.8047 -0.5186  0.4750
  103SAPE   C2110448   1.415   0.769   2.358  0.5228 -1.3781  0.2031
  103SAPE   O2210449   1.384   0.878   2.308 -0.2161 -0.4164  0.1531
  103SAPE   C2210450   1.533   0.747   2.446 -0.0668  0.4626  0.1552
  103SAPE   H2R10451   1.558   0.638   2.452  0.4967  0.5437 -0.5336
  103SAPE   H2S10452   1.621   0.788   2.391 -0.2997  1.4799  0.5275
  103SAPE    C310453   1.122   0.545   2.366 -0.1479  0.3059  0.0180
  103SAPE    HX10454   1.133   0.450   2.309 -0.6734 -0.0104  0.4271
  103SAPE    HY10455   1.018   0.552   2.328  0.0055  0.8463 -0.3040
  103SAPE   O3110456   1.119   0.547   2.514  0.4101 -0.1549 -0.1094
  103SAPE   C3110457   1.191   0.443   2.561 -0.3183  0.1288  0.3482
  103SAPE   O3210458   1.244   0.359   2.488  0.4143  0.2076  0.1747
  103SAPE   C3210459   1.197   0.437   2.712  0.1393  0.3627 -0.9877
  103SAPE   H2X10460   1.098   0.454   2.760  0.1245  0.3089 -0.9986
  103SAPE   H2Y10461   1.259   0.524   2.744 -2.2906  0.9326  2.7656
  103SAPE   C2310462   1.529   0.813   2.582 -0.5592  0.5099 -0.2339
  103SAPE   H3R10463   1.528   0.924   2.573 -1.5091  0.5039 -0.3346
  103SAPE   H3S10464   1.624   0.781   2.630 -0.5333 -0.7161 -1.0521
  103SAPE   C2410465   1.423   0.771   2.683 -0.6021  0.2746  1.4952
  103SAPE   H4R10466   1.417   0.661   2.681 -1.1596  0.2820  2.3588
  103SAPE   H4S10467   1.323   0.793   2.639 -0.1929  0.7893  0.8029
  103SAPE   C2510468   1.438   0.826   2.824  0.1097  0.0117 -0.4001
  103SAPE   H5R10469   1.485   0.925   2.833 -0.7738  0.2272  3.2572
  103SAPE   C2610470   1.403   0.779   2.946  0.1336  0.3327  0.1987
  103SAPE   H6R10471   1.434   0.829   3.039  0.1066 -0.1102  0.4518
  103SAPE   C2710472   1.362   0.636   2.968 -0.3303 -0.1229 -0.1585
  103SAPE   H7R10473   1.381   0.576   2.876 -0.1404  0.6929 -0.6544
  103SAPE   H7S10474   1.252   0.641   2.986 -0.3663  0.8778 -0.5869
  103SAPE   C2810475   1.428   0.574   3.087  0.4082 -0.1944 -0.1654
  103SAPE   H8R10476   1.519   0.516   3.066  1.2213  0.2613  1.9395
  103SAPE   C2910477   1.385   0.577   3.213 -0.8683  0.6533  0.1661
  103SAPE   H9R10478   1.437   0.511   3.284 -2.3173 -0.2024  0.5007
  103SAPE  C21010479   1.273   0.662   3.275  0.2213  0.2235  0.3568
  103SAPE  H10R10480   1.254   0.617   3.374  0.2179  1.2146  0.8217
  103SAPE  H10S10481   1.175   0.651   3.224  0.3788  1.7659 -0.3490
  103SAPE  C21110482   1.312   0.810   3.287  0.2420  0.5723 -1.0316
  103SAPE  H11R10483   1.281   0.870   3.200 -0.2564  0.1150 -1.1760
  103SAPE  C21210484   1.370   0.878   3.385 -0.4445  0.1845  0.6893
  103SAPE  H12R10485   1.398   0.983   3.370  1.4224 -0.3085  0.4837
  103SAPE  C21310486   1.414   0.823   3.514  0.2278 -0.4596 -0.3068
  103SAPE  H13R10487   1.496   0.889   3.549  0.2303  0.2994 -1.6621
  103SAPE  H13S10488   1.457   0.722   3.497  0.4262 -0.6939  1.4283
  103SAPE  C21410489   1.304   0.814   3.620 -0.0373 -0.2673 -1.0967
  103SAPE  H14R10490   1.204   0.848   3.590  0.3165  0.4349 -1.5089
  103SAPE  C21510491   1.304   0.752   3.737 -1.1655 -0.3108 -0.4636
  103SAPE  H15R10492   1.219   0.764   3.806 -1.1941 -0.4658 -0.4720
  103SAPE  C21610493   1.422   0.675   3.807 -0.5712 -0.4114  0.0940
  103SAPE  H16R10494   1.522   0.679   3.757 -0.6476 -0.3714 -0.0579
  103SAPE  H16S10495   1.401   0.568   3.826 -0.7924 -0.1780  1.2195
  103SAPE  C21710496   1.449   0.731   3.940  0.3739 -0.1540 -0.6917
  103SAPE  H17R10497   1.514   0.667   4.005  0.2746 -0.0865 -0.5232
  103SAPE  H17S10498   1.361   0.737   4.008 -0.4297  2.5567 -1.8457
  103SAPE  C21810499   1.523   0.869   3.934 -0.5480  0.2061 -0.0023
  103SAPE  H18R10500   1.447   0.940   3.895 -1.0108  0.1992  0.8579
  103SAPE  H18S10501   1.608   0.871   3.864  0.5553  0.3531  1.3031
  103SAPE  C21910502   1.557   0.929   4.070 -0.1903  0.6931 -0.6335
  103SAPE  H19R10503   1.616   1.019   4.043  2.5476 -1.7289 -3.5105
  103SAPE  H19S10504   1.630   0.867   4.126 -0.5971 -0.1718 -1.0366
  103SAPE  C22010505   1.439   0.942   4.162  0.0298  0.8947 -0.3956
  103SAPE  H20R10506   1.464   1.010   4.246  3.7521  0.5660 -1.1021
  103SAPE  H20S10507   1.397   0.847   4.203 -0.6648  0.8267 -1.2227
  103SAPE  H20T10508   1.357   0.993   4.106 -0.5060 -1.7114 -2.2210
  103SAPE   C3310509   1.270   0.308   2.763  0.1527 -0.8548  0.4397
  103SAPE   H3X10510   1.377   0.326   2.740 -0.0901 -0.3560 -0.3637
  103SAPE   H3Y10511   1.231   0.221   2.706  0.9966 -0.0237 -1.4983
  103SAPE   C3410512   1.242   0.288   2.911  0.3440  0.2830  0.0683
  103SAPE   H4X10513   1.135   0.261   2.926 -0.7309  2.4019 -2.9456
  103SAPE   H4Y10514   1.270   0.378   2.969 -2.0108  0.5383  0.9361
  103SAPE   C3510515   1.325   0.180   2.981 -0.0337  0.0807 -0.0369
  103SAPE   H5X10516   1.427   0.186   2.939 -0.0569 -2.6716 -0.6592
  103SAPE   H5Y10517   1.281   0.080   2.960 -4.2826  1.3477  1.6827
  103SAPE   C3610518   1.328   0.199   3.136 -0.7126  0.2032  0.0256
  103SAPE   H6X10519   1.224   0.194   3.173 -1.1269  2.3375 -0.7124
  103SAPE   H6Y10520   1.371   0.297   3.164 -1.4393 -0.0298  2.0822
  103SAPE   C3710521   1.403   0.090   3.201 -0.1398  0.6169  0.8165
  103SAPE   H7X10522   1.509   0.090   3.165 -0.4090  1.4964 -0.0339
  103SAPE   H7Y10523   1.360  -0.003   3.158  0.4471  0.0694  1.3923
  103SAPE   C3810524   1.400   0.082   3.351 -0.1892  0.3510  0.6636
  103SAPE   H8X10525   1.456  -0.008   3.384 -0.6841  0.6286  2.3687
  103SAPE   H8Y10526   1.301   0.056   3.393  1.2592 -1.4433  3.2518
  103SAPE   C3910527   1.459   0.203   3.426 -0.1858 -0.5278  0.2985
  103SAPE   H9X10528   1.428   0.291   3.366  1.6163  0.1774  0.3371
  103SAPE   H9Y10529   1.570   0.204   3.424 -0.0827  1.5805  2.0845
  103SAPE  C31010530   1.426   0.210   3.573 -0.4633 -0.7437 -0.7031
  103SAPE  H10X10531   1.412   0.107   3.612 -2.4794 -0.3601 -0.2621
  103SAPE  H10Y10532   1.319   0.233   3.592  0.0210  0.6100  0.5987
  103SAPE  C31110533   1.530   0.292   3.656 -0.0630 -0.0456  0.1142
  103SAPE  H11X10534   1.521   0.396   3.619  0.6796  0.9459  2.5242
  103SAPE  H11Y10535   1.632   0.258   3.629 -0.2305 -0.7600  0.3591
  103SAPE  C31210536   1.506   0.275   3.801  0.8124  0.2422  0.3334
  103SAPE  H12X10537   1.515   0.168   3.831 -0.0897 -0.0834 -0.4761
  103SAPE  H12Y10538   1.407   0.316   3.831  0.2033 -1.2194  0.4522
  103SAPE  C31310539   1.608   0.354   3.879 -0.3007  0.5032 -0.5840
  103SAPE  H13X10540   1.610   0.461   3.851  1.5478  0.9410  1.0333
  103SAPE  H13Y10541   1.713   0.323   3.864 -0.3404  0.4116 -0.6770
  103SAPE  C31410542   1.595   0.340   4.031  0.9222 -0.3096 -0.0020
  103SAPE  H14X10543   1.490   0.367   4.055  1.4395 -0.9496  3.5627
  103SAPE  H14Y10544   1.652   0.416   4.089 -0.7860  1.8749 -1.0374
  103SAPE  C31510545   1.628   0.199   4.080 -0.3561 -0.4760  0.1318
  103SAPE  H15X10546   1.733   0.185   4.046 -0.5455  0.7997 -1.0848
  103SAPE  H15Y10547   1.565   0.119   4.038 -1.2134 -0.7167  1.7921
  103SAPE  C31610548   1.617   0.191   4.234 -0.0309  0.1031 -0.0578
  103SAPE  H16X10549   1.512   0.170   4.262  0.7369  0.2153  3.3160
  103SAPE  H16Y10550   1.648   0.286   4.283 -0.0186  0.7731 -1.3205
  103SAPE  C31710551   1.718   0.076   4.270 -0.1600 -0.2793 -0.1792
  103SAPE  H17X10552   1.823   0.107   4.247 -0.0443 -0.4058  0.1691
  103SAPE  H17Y10553   1.677  -0.012   4.216 -2.3209  1.5005 -1.6082
  103SAPE  C31810554   1.710   0.048   4.427 -0.1497 -1.7283  0.1183
  103SAPE  H18X10555   1.614   0.003   4.462 -1.4095  1.0306  0.5771
  103SAPE  H18Y10556   1.722   0.144   4.482  0.2188 -1.7919  0.1477
  103SAPE  H18Z10557   1.792  -0.020   4.457  1.3279 -0.2346 -0.3452
  104SAPE     N10558   2.989   5.603   2.107 -0.2534  0.2458  0.0348
  104SAPE   HN110559   2.936   5.587   2.019 -0.1703 -2.4346  0.3907
  104SAPE   HN210560   3.075   5.544   2.108  0.7509  1.6231  2.3213
  104SAPE   HN310561   2.927   5.560   2.178  1.5316 -2.0129  0.3684
  104SAPE   C1210562   3.025   5.747   2.129 -0.3030  0.2882  0.2561
  104SAPE  H12A10563   2.936   5.809   2.154  0.3240  1.0496  0.6296
  104SAPE  H12B10564   3.061   5.779   2.029  0.2502  3.1274  1.2767
  104SAPE   C1110565   3.123   5.763   2.248  1.0658  0.3593  0.6694
  104SAPE  H11A10566   3.079   5.707   2.333  0.2305  0.5517  0.3700
  104SAPE  H11B10567   3.138   5.863   2.295 -0.1956  1.1232 -0.4874
  104SAPE     P10568   3.359   5.819   2.143 -0.3366  0.4609 -0.0153
  104SAPE   O1310569   3.468   5.745   2.072  1.0167 -1.1420  0.0067
  104SAPE   O1410570   3.288   5.922   2.063 -0.0030  0.9938 -0.6770
  104SAPE   O1210571   3.253   5.713   2.208  0.1165  0.0294 -0.1948
  104SAPE   O1110572   3.419   5.892   2.272 -0.5474  0.3059  0.5179
  104SAPE    C110573   3.530   5.842   2.349  0.1827 -0.1280  0.5469
  104SAPE    HA10574   3.600   5.785   2.285  0.4481  0.1284  0.6085
  104SAPE    HB10575   3.584   5.931   2.387 -2.5855  1.2128  1.5746
  104SAPE    C210576   3.477   5.754   2.461  0.0359  0.0600  0.1550
  104SAPE    HS10577   3.437   5.660   2.419  0.3856 -0.3585  0.7448
  104SAPE   O2110578   3.377   5.837   2.526 -0.3110 -0.0100 -0.6684
  104SAPE   C2110579   3.262   5.773   2.558  0.2650 -0.1215 -0.3596
  104SAPE   O2210580   3.233   5.661   2.520 -0.4460 -0.2968 -0.1132
  104SAPE   C2210581   3.177   5.862   2.646  0.0682  0.2776 -0.9695
  104SAPE   H2R10582   3.178   5.819   2.749 -0.7790  1.3566 -0.4890
  104SAPE   H2S10583   3.225   5.961   2.655  2.3740 -0.6324 -2.4529
  104SAPE    C310584   3.577   5.708   2.565  0.2132 -0.0928 -0.1821
  104SAPE    HX10585   3.650   5.646   2.508  0.2758 -1.4696  1.3468
  104SAPE    HY10586   3.536   5.651   2.651  2.3154 -0.1780  0.8102
  104SAPE   O3110587   3.661   5.811   2.619 -1.0757  0.2451 -0.1279
  104SAPE   C3110588   3.616   5.857   2.732 -0.4843  0.1593 -1.1728
  104SAPE   O3210589   3.511   5.826   2.787  0.1565 -0.8718 -0.2647
  104SAPE   C3210590   3.733   5.938   2.795 -0.5164  0.0573 -0.0919
  104SAPE   H2X10591   3.803   5.985   2.723  1.9729 -0.9795  1.4779
  104SAPE   H2Y10592   3.792   5.862   2.851 -1.1911 -0.1734  0.3232
  104SAPE   C2310593   3.037   5.889   2.587  0.1616  0.3217 -0.1100
  104SAPE   H3R10594   2.986   5.796   2.555 -0.2342  0.5569 -0.1650
  104SAPE   H3S10595   3.037   5.957   2.500 -0.4504  0.6291  0.1242
  104SAPE   C2410596   2.936   5.945   2.691  0.1067 -0.3865 -0.0518
  104SAPE   H4R10597   2.844   5.981   2.640 -0.1628 -1.6974 -0.5368
  104SAPE   H4S10598   2.987   6.035   2.733 -1.7146  1.3922 -1.4608
  104SAPE   C2510599   2.889   5.851   2.793  0.4476 -0.3938 -1.1078
  104SAPE   H5R10600   2.828   5.772   2.747 -1.9586  0.0942  1.0476
  104SAPE   C2610601   2.897   5.848   2.926  0.2481  0.2756 -0.0944
  104SAPE   H6R10602   2.860   5.753   2.967  1.6684 -1.2040 -2.0393
  104SAPE   C2710603   2.954   5.938   3.032 -0.3312 -0.1195 -0.2305
  104SAPE   H7R10604   3.009   6.016   2.976 -0.2392 -0.1199 -0.1407
  104SAPE   H7S10605   3.032   5.882   3.088 -1.9962 -2.6104 -0.2414
  104SAPE   C2810606   2.853   6.003   3.117  0.7563 -0.5419 -0.6234
  104SAPE   H8R10607   2.774   6.059   3.064 -0.3641  0.2070  1.6819
  104SAPE   C2910608   2.841   5.993   3.252 -0.2434  0.0138  0.3164
  104SAPE   H9R10609   2.761   6.042   3.309 -0.4063 -1.3300  1.3157
  104SAPE  C21010610   2.932   5.899   3.327  0.0665  0.1555 -1.0560
  104SAPE  H10R10611   3.031   5.949   3.329  1.4760 -2.3890  1.9344
  104SAPE  H10S10612   2.944   5.811   3.261 -2.7507 -1.5565  0.5148
  104SAPE  C21110613   2.884   5.854   3.461 -0.1968  0.0122 -0.0577
  104SAPE  H11R10614   2.889   5.937   3.533  3.0198  0.2901 -0.4546
  104SAPE  C21210615   2.838   5.736   3.503 -0.0241 -0.6652  0.0586
  104SAPE  H12R10616   2.802   5.729   3.607 -1.6595 -1.3117 -0.5248
  104SAPE  C21310617   2.828   5.613   3.421 -0.2174  0.0551  0.3793
  104SAPE  H13R10618   2.920   5.554   3.440  0.0306  0.0338 -0.8099
  104SAPE  H13S10619   2.826   5.638   3.312 -1.3713  0.7224  0.5419
  104SAPE  C21410620   2.711   5.525   3.455  0.0783 -0.0065  1.2191
  104SAPE  H14R10621   2.624   5.543   3.390  1.7697  0.2930 -1.0974
  104SAPE  C21510622   2.700   5.437   3.553 -0.6960  0.0870 -0.5391
  104SAPE  H15R10623   2.612   5.372   3.565 -0.2216 -0.4608  0.0302
  104SAPE  C21610624   2.815   5.402   3.652  0.2256  0.1513  0.1060
  104SAPE  H16R10625   2.904   5.466   3.635  0.8525 -0.0782  2.1680
  104SAPE  H16S10626   2.846   5.296   3.658  0.8309  0.3868  2.0725
  104SAPE  C21710627   2.760   5.443   3.792  0.1080  0.1529  0.0089
  104SAPE  H17R10628   2.807   5.392   3.878 -0.7180  1.1869  1.1176
  104SAPE  H17S10629   2.660   5.395   3.804  0.1973  0.2230  1.1109
  104SAPE  C21810630   2.739   5.589   3.820 -0.2423  0.8056 -0.4188
  104SAPE  H18R10631   2.659   5.632   3.757  0.5392  2.0579 -0.5973
  104SAPE  H18S10632   2.835   5.646   3.821 -0.2761  0.9269  1.9688
  104SAPE  C21910633   2.670   5.611   3.953  0.6311  0.5466 -0.1195
  104SAPE  H19R10634   2.674   5.720   3.970  0.9148  0.6463 -0.8034
  104SAPE  H19S10635   2.742   5.568   4.027  0.5525 -0.7258 -0.7630
  104SAPE  C22010636   2.533   5.546   3.988 -0.5154  0.0634  0.1775
  104SAPE  H20R10637   2.464   5.578   3.908  1.4260  0.0415 -1.5792
  104SAPE  H20S10638   2.490   5.594   4.079 -0.2867  0.7356 -0.0675
  104SAPE  H20T10639   2.534   5.435   3.986  1.0987  0.0244  1.1993
  104SAPE   C3310640   3.689   6.053   2.894 -0.0260  0.1574  0.3438
  104SAPE   H3X10641   3.646   5.995   2.979 -1.5543 -0.2121 -0.6381
  104SAPE   H3Y10642   3.613   6.118   2.846  0.4174 -0.2754 -1.0170
  104SAPE   C3410643   3.804   6.140   2.940 -0.0206  0.3181  0.2764
  104SAPE   H4X10644   3.773   6.206   3.023  1.0840  1.9050 -0.5329
  104SAPE   H4Y10645   3.842   6.198   2.853  0.5744 -0.1344  0.2254
  104SAPE   C3510646   3.924   6.061   3.003  0.3372 -0.4087  0.5480
  104SAPE   H5X10647   4.005   6.133   3.028  2.6472 -1.9805 -1.9423
  104SAPE   H5Y10648   3.967   5.991   2.928  1.3207 -1.1445  1.7635
  104SAPE   C3610649   3.895   5.972   3.123  0.4768  0.3585  0.4269
  104SAPE   H6X10650   3.976   5.897   3.128 -0.1246 -0.3042  0.4265
  104SAPE   H6Y10651   3.799   5.923   3.095 -0.9615  3.8480 -1.3283
  104SAPE   C3710652   3.881   6.058   3.242 -0.3991  1.1869 -0.6171
  104SAPE   H7X10653   3.795   6.127   3.237 -1.3084  0.0891 -0.5274
  104SAPE   H7Y10654   3.978   6.109   3.264  0.2501  0.7670 -2.3052
  104SAPE   C3810655   3.854   5.970   3.371  0.1682  0.3945 -0.0914
  104SAPE   H8X10656   3.939   5.900   3.385 -1.7139 -1.9857  0.1212
  104SAPE   H8Y10657   3.766   5.906   3.350 -0.8380  1.9923 -0.9492
  104SAPE   C3910658   3.822   6.053   3.498 -0.6114  0.2501 -0.2768
  104SAPE   H9X10659   3.741   6.127   3.482  0.8371  1.6656 -1.4572
  104SAPE   H9Y10660   3.907   6.117   3.530 -2.4032  1.3855  2.6117
  104SAPE  C31010661   3.787   5.968   3.622 -0.9900 -0.4669 -0.2764
  104SAPE  H10X10662   3.863   5.889   3.640 -1.4769 -0.8026  0.3283
  104SAPE  H10Y10663   3.695   5.913   3.594 -0.1863 -1.9806 -0.0211
  104SAPE  C31110664   3.745   6.059   3.740 -0.1828 -0.3015 -0.1932
  104SAPE  H11X10665   3.666   6.014   3.803 -0.1630  0.6402  0.5336
  104SAPE  H11Y10666   3.702   6.145   3.684  1.7516 -0.5358 -2.1589
  104SAPE  C31210667   3.856   6.119   3.829 -0.6455  0.1467 -0.0951
  104SAPE  H12X10668   3.926   6.176   3.764  3.2677 -1.9871  1.8994
  104SAPE  H12Y10669   3.917   6.038   3.873 -1.1266  1.0755  2.4401
  104SAPE  C31310670   3.797   6.199   3.949  0.1328 -0.5392 -0.7196
  104SAPE  H13X10671   3.711   6.143   3.991 -0.2213 -0.6590 -1.5685
  104SAPE  H13Y10672   3.755   6.294   3.911  1.9201 -0.3289 -2.3626
  104SAPE  C31410673   3.908   6.240   4.049  0.5732 -0.1951  0.5274
  104SAPE  H14X10674   3.989   6.289   3.992  0.7630 -0.4022  0.6178
  104SAPE  H14Y10675   3.942   6.151   4.106  0.0232 -0.3881  0.5675
  104SAPE  C31510676   3.843   6.332   4.149 -0.2804 -0.7137 -0.6146
  104SAPE  H15X10677   3.783   6.275   4.223  0.1248 -0.5886 -0.1896
  104SAPE  H15Y10678   3.790   6.412   4.092 -0.0379  1.1282  1.6309
  104SAPE  C31610679   3.952   6.420   4.218  0.0382 -0.0937 -0.3764
  104SAPE  H16X10680   3.892   6.501   4.264 -1.1198 -0.4431 -1.2085
  104SAPE  H16Y10681   4.029   6.462   4.149 -0.9314  1.2805 -0.6768
  104SAPE  C31710682   4.027   6.345   4.326 -0.0024  0.3023 -0.5842
  104SAPE  H17X10683   4.095   6.282   4.264 -0.4985 -0.1503 -0.6717
  104SAPE  H17Y10684   3.965   6.283   4.395  0.5980 -0.1403 -0.4360
  104SAPE  C31810685   4.107   6.428   4.415 -0.2490 -0.3396 -0.2621
  104SAPE  H18X10686   4.188   6.375   4.470 -0.0854 -0.0607 -0.2292
  104SAPE  H18Y10687   4.049   6.470   4.499  0.9280 -2.8035  1.8938
  104SAPE  H18Z10688   4.149   6.508   4.349 -0.3128  0.4766  0.6637
  105SAPE     N10689   6.337   4.713   2.290 -0.0147 -0.7632  0.2614
  105SAPE   HN110690   6.289   4.663   2.367 -0.7569 -0.5238 -0.0316
  105SAPE   HN210691   6.287   4.793   2.246 -2.0075 -1.9110  0.3088
  105SAPE   HN310692   6.336   4.654   2.204 -1.6043  0.2029 -0.4358
  105SAPE   C1210693   6.483   4.750   2.312  0.0476 -0.0543  0.4848
  105SAPE  H12A10694   6.533   4.734   2.214  0.1208 -2.4714  0.8419
  105SAPE  H12B10695   6.526   4.668   2.373  2.3663  0.5689 -0.1981
  105SAPE   C1110696   6.504   4.893   2.363  0.0328  0.2576 -0.1224
  105SAPE  H11A10697   6.609   4.907   2.394 -0.3031  0.4477  0.9862
  105SAPE  H11B10698   6.438   4.906   2.452  1.0539 -0.3738  0.7617
  105SAPE     P10699   6.335   5.066   2.240 -0.2389 -0.1380 -0.1575
  105SAPE   O1310700   6.337   5.142   2.110  0.5719  0.8086 -0.1891
  105SAPE   O1410701   6.223   4.974   2.259 -0.1142 -0.0913 -0.3703
  105SAPE   O1210702   6.474   4.986   2.261 -0.2879 -0.8160  0.4277
  105SAPE   O1110703   6.338   5.157   2.360 -0.0217 -0.3407 -0.4974
  105SAPE    C110704   6.443   5.252   2.391  0.4716 -0.2913 -0.2552
  105SAPE    HA10705   6.544   5.227   2.353  0.3724 -0.3369 -0.4879
  105SAPE    HB10706   6.412   5.342   2.334  0.2828 -1.5583 -2.2488
  105SAPE    C210707   6.458   5.288   2.540 -0.8236  0.6353  0.0862
  105SAPE    HS10708   6.550   5.351   2.548 -0.7626  0.6572 -0.7470
  105SAPE   O2110709   6.476   5.169   2.612  0.1934  0.3024 -0.5702
  105SAPE   C2110710   6.600   5.114   2.618 -0.4843 -0.2344  0.2951
  105SAPE   O2210711   6.697   5.163   2.565 -0.3028  0.1801 -0.2850
  105SAPE   C2210712   6.601   4.981   2.701  0.2741 -0.4198 -0.6726
  105SAPE   H2R10713   6.522   4.980   2.779 -1.7889 -0.7431 -2.6443
  105SAPE   H2S10714   6.584   4.900   2.626 -1.9070 -1.2553  0.6349
  105SAPE    C310715   6.330   5.358   2.589 -0.0065  0.6469  0.2892
  105SAPE    HX10716   6.251   5.281   2.581 -1.0577  1.7260 -0.0854
  105SAPE    HY10717   6.302   5.438   2.517  3.9834  1.1873 -0.9320
  105SAPE   O3110718   6.338   5.403   2.726  0.3567 -0.0055 -0.3251
  105SAPE   C3110719   6.346   5.533   2.745  0.1442 -0.0573  0.4014
  105SAPE   O3210720   6.339   5.617   2.662 -0.2697  0.1067 -0.4795
  105SAPE   C3210721   6.354   5.568   2.896 -0.9713 -0.1099  0.6122
  105SAPE   H2X10722   6.458   5.562   2.936 -1.0874 -1.3173  0.7803
  105SAPE   H2Y10723   6.289   5.498   2.953 -0.2285 -0.8545  0.5763
  105SAPE   C2310724   6.733   4.935   2.773  0.2667  0.4418  0.3519
  105SAPE   H3R10725   6.822   4.974   2.720  1.0590  0.9416  1.9929
  105SAPE   H3S10726   6.736   4.825   2.765  0.7884  0.3876  1.1878
  105SAPE   C2410727   6.738   4.978   2.923 -0.6686 -0.1476  0.2516
  105SAPE   H4R10728   6.829   4.936   2.973 -1.0103  1.6011  2.4906
  105SAPE   H4S10729   6.655   4.928   2.978  0.0593  1.1998  2.7435
  105SAPE   C2510730   6.754   5.131   2.927  0.2759  0.5426 -0.2017
  105SAPE   H5R10731   6.666   5.195   2.945  0.8665  1.0538  0.9725
  105SAPE   C2610732   6.866   5.200   2.926 -0.1187 -0.2471 -0.1474
  105SAPE   H6R10733   6.861   5.310   2.918 -0.2066 -0.2095  0.4135
  105SAPE   C2710734   7.004   5.146   2.910  0.4418 -0.4425  0.2705
  105SAPE   H7R10735   7.009   5.111   2.805  1.6330  3.5874 -1.2031
  105SAPE   H7S10736   7.022   5.058   2.976 -0.2341 -0.7297  0.0841
  105SAPE   C2810737   7.114   5.252   2.924 -0.2744 -1.2860 -0.2643
  105SAPE   H8R10738   7.120   5.309   2.830  0.1400  0.4250  0.7578
  105SAPE   C2910739   7.154   5.308   3.041 -0.8711  0.0235 -0.0139
  105SAPE   H9R10740   7.221   5.395   3.042  2.0341 -2.0295 -1.5405
  105SAPE  C21010741   7.127   5.246   3.178 -0.1410 -0.6769 -0.7940
  105SAPE  H10R10742   7.025   5.202   3.187 -0.1321 -0.2743  2.9278
  105SAPE  H10S10743   7.125   5.333   3.246 -2.1991 -0.6105 -0.8927
  105SAPE  C21110744   7.232   5.147   3.216 -0.0525 -0.1508 -1.1411
  105SAPE  H11R10745   7.295   5.110   3.134  0.0194 -0.8883 -0.7690
  105SAPE  C21210746   7.254   5.096   3.350  0.1241 -0.5450 -0.1879
  105SAPE  H12R10747   7.319   5.010   3.366  0.2109 -1.1185 -3.0893
  105SAPE  C21310748   7.177   5.143   3.473 -0.3522 -0.7716 -0.1460
  105SAPE  H13R10749   7.162   5.253   3.470 -1.2583 -0.8994 -2.1486
  105SAPE  H13S10750   7.234   5.111   3.563  0.5712  0.0809 -0.4235
  105SAPE  C21410751   7.034   5.090   3.479  0.1015 -0.4845  0.4408
  105SAPE  H14R10752   6.983   5.089   3.381  1.1961  1.1339 -0.1907
  105SAPE  C21510753   6.969   5.040   3.587  0.1622 -0.0244  0.3065
  105SAPE  H15R10754   6.865   5.007   3.580  0.5169 -1.0250 -0.3385
  105SAPE  C21610755   7.030   5.018   3.723  0.6920 -0.2808 -0.0474
  105SAPE  H16R10756   7.019   5.105   3.791 -1.1924 -0.9886  0.6133
  105SAPE  H16S10757   7.141   5.014   3.713  0.4623 -0.9794 -3.3009
  105SAPE  C21710758   6.984   4.887   3.791 -0.9665 -0.2434  0.5373
  105SAPE  H17R10759   7.035   4.798   3.748 -1.1349 -1.1213  2.0882
  105SAPE  H17S10760   6.874   4.878   3.787 -1.0786  0.7398  1.0330
  105SAPE  C21810761   7.022   4.894   3.942 -1.0431  0.4363  0.5808
  105SAPE  H18R10762   6.980   4.985   3.989  0.3487  1.0783  0.6278
  105SAPE  H18S10763   7.132   4.897   3.953 -0.9046 -1.4400  0.0906
  105SAPE  C21910764   6.976   4.771   4.018 -0.1693 -0.6448  0.5251
  105SAPE  H19R10765   7.031   4.686   3.974 -0.2641  0.6252 -2.2545
  105SAPE  H19S10766   6.874   4.751   3.978  0.7179 -0.6460 -1.9166
  105SAPE  C22010767   6.991   4.773   4.168  0.4557  0.4093 -0.0127
  105SAPE  H20R10768   7.093   4.789   4.208 -0.0183  3.0312  0.3147
  105SAPE  H20S10769   6.954   4.678   4.213  2.7569 -0.6056 -0.1238
  105SAPE  H20T10770   6.943   4.861   4.215  1.8225 -0.0524  2.4381
  105SAPE   C3310771   6.320   5.717   2.931 -0.0662 -0.1880 -0.2949
  105SAPE   H3X10772   6.217   5.745   2.899 -0.2661  0.8757  1.2116
  105SAPE   H3Y10773   6.386   5.799   2.896 -0.8759  1.4280  1.7361
  105SAPE   C3410774   6.320   5.743   3.085  0.2402  0.1919 -0.1020
  105SAPE   H4X10775   6.421   5.727   3.130  0.9451  0.8756 -1.3916
  105SAPE   H4Y10776   6.243   5.668   3.114  1.2863 -0.3068  1.5601
  105SAPE   C3510777   6.266   5.883   3.109  0.0409 -0.7772  0.3308
  105SAPE   H5X10778   6.201   5.908   3.023  0.2857 -1.4503 -0.0562
  105SAPE   H5Y10779   6.355   5.948   3.115 -1.7999  1.8556  0.6601
  105SAPE   C3610780   6.206   5.899   3.246 -0.1580  0.7975  0.3134
  105SAPE   H6X10781   6.270   5.829   3.304 -0.2726 -0.7250 -1.3062
  105SAPE   H6Y10782   6.101   5.863   3.250 -0.1916  0.4088 -2.4260
  105SAPE   C3710783   6.227   6.042   3.305 -0.5193  0.4483  0.7124
  105SAPE   H7X10784   6.166   6.108   3.239 -1.4496 -0.8878  0.2047
  105SAPE   H7Y10785   6.333   6.074   3.305  0.1631 -1.6590  1.4678
  105SAPE   C3810786   6.166   6.064   3.446 -0.3888  0.1200  0.2294
  105SAPE   H8X10787   6.056   6.057   3.459 -0.1173 -1.8188  2.0323
  105SAPE   H8Y10788   6.198   6.161   3.490 -0.6217  0.0761  0.4968
  105SAPE   C3910789   6.216   5.956   3.546  0.1023 -0.0979 -0.4670
  105SAPE   H9X10790   6.327   5.965   3.546  0.1381  0.4944  2.9958
  105SAPE   H9Y10791   6.197   5.855   3.503 -0.4355 -0.6702  1.0577
  105SAPE  C31010792   6.168   5.950   3.689  0.6851  0.4761  0.3349
  105SAPE  H10X10793   6.059   5.935   3.699  0.8698 -0.6846  0.7230
  105SAPE  H10Y10794   6.189   6.046   3.741  0.1324  0.0952  1.2823
  105SAPE  C31110795   6.246   5.839   3.764 -0.5558  0.5509  0.2045
  105SAPE  H11X10796   6.264   5.880   3.866 -1.0725  0.7226  0.2321
  105SAPE  H11Y10797   6.346   5.819   3.721  0.5384  0.0718  2.7950
  105SAPE  C31210798   6.168   5.710   3.795 -0.3117  0.7909 -0.5903
  105SAPE  H12X10799   6.149   5.653   3.702  1.4027  1.7608 -1.5845
  105SAPE  H12Y10800   6.068   5.722   3.841  0.3561  0.1532  1.1540
  105SAPE  C31310801   6.254   5.619   3.888  0.8610 -0.0264  0.4982
  105SAPE  H13X10802   6.287   5.668   3.982 -1.6873 -0.2392  1.6089
  105SAPE  H13Y10803   6.345   5.593   3.830 -0.1318  0.0940 -1.1852
  105SAPE  C31410804   6.173   5.488   3.908  0.3033  0.2683  0.2787
  105SAPE  H14X10805   6.188   5.447   3.806  1.1084  1.3125 -0.0462
  105SAPE  H14Y10806   6.067   5.514   3.925 -0.1627 -0.9249 -0.7282
  105SAPE  C31510807   6.230   5.401   4.022 -0.0067  0.3444  0.1127
  105SAPE  H15X10808   6.339   5.387   4.012  0.3750  0.5466  3.1211
  105SAPE  H15Y10809   6.174   5.305   4.009 -0.3268  0.5955 -0.4299
  105SAPE  C31610810   6.206   5.457   4.157  1.0140  0.5709 -0.2621
  105SAPE  H16X10811   6.100   5.490   4.167  1.4490  2.0073 -0.2648
  105SAPE  H16Y10812   6.267   5.547   4.179 -0.6058  1.3637  1.2579
  105SAPE  C31710813   6.246   5.352   4.263 -0.9962  0.4099 -1.0273
  105SAPE  H17X10814   6.279   5.256   4.217 -0.4941 -0.5001  1.1170
  105SAPE  H17Y10815   6.164   5.334   4.336 -0.3642 -0.5743 -0.5462
  105SAPE  C31810816   6.373   5.405   4.346  0.0426 -0.3030  0.2129
  105SAPE  H18X10817   6.337   5.501   4.389  2.2973  1.4117 -1.5018
  105SAPE  H18Y10818   6.459   5.420   4.277 -1.4005 -2.0638 -2.1196
  105SAPE  H18Z10819   6.402   5.334   4.426 -0.3159  0.0766  0.6853
  106SAPE     N10820   1.259   4.838   2.533  0.1288 -0.0546  0.5417
  106SAPE   HN110821   1.245   4.941   2.533  1.3447  0.1433  2.0987
  106SAPE   HN210822   1.192   4.803   2.604  1.8012 -1.1680  1.6310
  106SAPE   HN310823   1.347   4.820   2.585  0.4193  1.4401  0.6013
  106SAPE   C1210824   1.244   4.763   2.405 -0.0308 -0.0260  0.3549
  106SAPE  H12A10825   1.319   4.806   2.335  1.3976 -0.9257  1.2685
  106SAPE  H12B10826   1.141   4.776   2.365 -0.5426  0.6532  1.8043
  106SAPE   C1110827   1.292   4.622   2.424 -0.3712  0.4052 -0.1913
  106SAPE  H11A10828   1.310   4.573   2.326  0.3024  1.4894 -0.6296
  106SAPE  H11B10829   1.224   4.556   2.480 -1.5558  2.0635  0.4022
  106SAPE     P10830   1.458   4.541   2.619 -0.3099 -0.2500 -0.1927
  106SAPE   O1310831   1.404   4.409   2.593  0.2419 -0.1243  0.5800
  106SAPE   O1410832   1.599   4.541   2.669  0.2741  0.2566 -0.0342
  106SAPE   O1210833   1.424   4.619   2.486 -0.0257 -0.7608 -0.4521
  106SAPE   O1110834   1.361   4.617   2.714  0.5790 -0.5807 -0.3209
  106SAPE    C110835   1.411   4.724   2.792 -0.1384  0.9302 -0.5316
  106SAPE    HA10836   1.479   4.793   2.738  0.1030  1.2410  0.1508
  106SAPE    HB10837   1.324   4.784   2.830  0.0046  0.5305  0.4647
  106SAPE    C210838   1.485   4.673   2.924 -0.0372  0.9567  0.4318
  106SAPE    HS10839   1.576   4.627   2.881 -1.3822 -1.5692  0.0890
  106SAPE   O2110840   1.399   4.573   2.992 -0.1080 -0.5849 -0.1129
  106SAPE   C2110841   1.468   4.478   3.060  1.0254 -0.0311 -0.8329
  106SAPE   O2210842   1.585   4.465   3.055 -0.3404  0.1960 -0.2218
  106SAPE   C2210843   1.366   4.389   3.124 -0.0919 -0.7980 -0.4496
  106SAPE   H2R10844   1.271   4.443   3.147  0.8903  0.8000 -0.0264
  106SAPE   H2S10845   1.331   4.306   3.059  1.1440 -1.2134 -0.6016
  106SAPE    C310846   1.524   4.790   3.019  0.5746 -0.0575  0.8972
  106SAPE    HX10847   1.438   4.848   3.058 -0.1102 -1.4195  1.4877
  106SAPE    HY10848   1.589   4.851   2.952  1.5478 -0.1625  1.7272
  106SAPE   O3110849   1.586   4.749   3.140  0.2817 -0.5577 -0.2645
  106SAPE   C3110850   1.718   4.732   3.136  0.6250 -0.4016 -0.8370
  106SAPE   O3210851   1.791   4.747   3.035 -0.3139  0.0508 -0.1921
  106SAPE   C3210852   1.769   4.690   3.278  0.5987  0.0174  0.5642
  106SAPE   H2X10853   1.866   4.742   3.291 -0.0536  1.5201 -0.2593
  106SAPE   H2Y10854   1.795   4.582   3.273  2.4773  0.4806 -0.9916
  106SAPE   C2310855   1.413   4.311   3.252 -0.4660 -0.2307  0.9175
  106SAPE   H3R10856   1.494   4.244   3.215  1.4090  1.6773  1.3097
  106SAPE   H3S10857   1.327   4.248   3.282 -2.8149  2.2608 -0.1385
  106SAPE   C2410858   1.463   4.401   3.362  0.7912 -0.0668 -0.2780
  106SAPE   H4R10859   1.374   4.457   3.399  0.7968 -0.3332  0.1422
  106SAPE   H4S10860   1.521   4.487   3.322 -1.5995  3.1319  2.4756
  106SAPE   C2510861   1.550   4.341   3.471 -0.3505  0.3165 -0.5880
  106SAPE   H5R10862   1.658   4.331   3.453 -0.3000 -1.4032  0.4214
  106SAPE   C2610863   1.509   4.273   3.583  0.8373 -0.3090 -0.4240
  106SAPE   H6R10864   1.580   4.224   3.651 -0.4226 -2.1162 -0.3295
  106SAPE   C2710865   1.367   4.261   3.638 -0.3845  0.5086 -0.0977
  106SAPE   H7R10866   1.347   4.152   3.650 -0.0961  0.3315 -1.1539
  106SAPE   H7S10867   1.294   4.298   3.562 -1.5795  1.9068  1.6370
  106SAPE   C2810868   1.352   4.344   3.764  0.5477  0.4675 -0.2395
  106SAPE   H8R10869   1.371   4.451   3.750 -0.9887  0.7530 -0.2722
  106SAPE   C2910870   1.294   4.307   3.884 -0.1329  0.0548  0.4465
  106SAPE   H9R10871   1.293   4.386   3.961 -1.9882 -0.9038  1.4869
  106SAPE  C21010872   1.246   4.172   3.931 -0.0755  0.5820 -0.3919
  106SAPE  H10R10873   1.243   4.104   3.843  2.2991  0.6241 -0.5772
  106SAPE  H10S10874   1.141   4.188   3.962  0.3583  0.2332  1.4385
  106SAPE  C21110875   1.331   4.111   4.041  0.4022 -0.0016  0.5273
  106SAPE  H11R10876   1.435   4.146   4.051  0.3933 -0.2786  1.7250
  106SAPE  C21210877   1.286   4.032   4.139 -0.0093  0.0496 -0.1744
  106SAPE  H12R10878   1.356   3.991   4.213 -1.6365  0.6521  1.7732
  106SAPE  C21310879   1.139   3.993   4.164  0.3797  0.1945  0.6578
  106SAPE  H13R10880   1.078   4.039   4.083  1.6354  1.1508  0.2066
  106SAPE  H13S10881   1.107   4.041   4.259 -0.0466 -1.9061  1.6229
  106SAPE  C21410882   1.119   3.843   4.168  0.5501 -0.0059  0.3872
  106SAPE  H14R10883   1.137   3.794   4.071 -1.9114 -0.5957  0.1782
  106SAPE  C21510884   1.102   3.756   4.277  0.4839 -0.2929  0.2104
  106SAPE  H15R10885   1.100   3.653   4.239  0.9188  0.4864 -2.1053
  106SAPE  C21610886   1.094   3.790   4.422 -0.7237 -0.5794 -0.5754
  106SAPE  H16R10887   1.107   3.900   4.427  0.6110 -0.7659  0.5153
  106SAPE  H16S10888   1.178   3.742   4.476 -1.3907 -1.8781 -0.6626
  106SAPE  C21710889   0.955   3.761   4.489  0.5070  0.1263 -0.1603
  106SAPE  H17R10890   0.926   3.656   4.469 -0.5767  0.7819 -2.3152
  106SAPE  H17S10891   0.884   3.826   4.434  0.5469 -0.4808 -0.9375
  106SAPE  C21810892   0.937   3.791   4.637  0.2905  0.0416 -0.0952
  106SAPE  H18R10893   0.902   3.893   4.665  0.0330 -0.0251 -0.1718
  106SAPE  H18S10894   1.038   3.768   4.677 -0.6406 -2.8405  0.8202
  106SAPE  C21910895   0.848   3.694   4.712 -0.1105  0.0407  0.2728
  106SAPE  H19R10896   0.892   3.594   4.693  2.7305  1.3683 -0.6897
  106SAPE  H19S10897   0.739   3.703   4.693 -0.1081  1.4939  0.8495
  106SAPE  C22010898   0.868   3.725   4.863  0.5721  0.6979  0.0466
  106SAPE  H20R10899   0.794   3.799   4.901 -0.9058  0.2779 -1.8250
  106SAPE  H20S10900   0.972   3.763   4.871  0.2554  2.0821 -1.7325
  106SAPE  H20T10901   0.858   3.636   4.928 -1.8927  1.8259  1.3465
  106SAPE   C3310902   1.670   4.727   3.388 -0.2735  0.1785 -0.0428
  106SAPE   H3X10903   1.564   4.699   3.373 -0.5965  0.6433  1.2519
  106SAPE   H3Y10904   1.668   4.834   3.420 -1.2669  0.2951 -0.4702
  106SAPE   C3410905   1.714   4.660   3.524 -0.9782  0.0558 -0.1254
  106SAPE   H4X10906   1.815   4.693   3.555 -0.7964 -1.0962  0.5543
  106SAPE   H4Y10907   1.719   4.550   3.506  0.5777  0.0104  0.4629
  106SAPE   C3510908   1.624   4.689   3.646  0.0335 -0.0220  0.1596
  106SAPE   H5X10909   1.524   4.646   3.626  0.2154 -0.1655 -0.4497
  106SAPE   H5Y10910   1.615   4.800   3.651  1.4705  0.1891 -1.1008
  106SAPE   C3610911   1.677   4.631   3.777  0.0274  0.2510  0.2345
  106SAPE   H6X10912   1.788   4.623   3.772  0.0084 -0.1076  0.3307
  106SAPE   H6Y10913   1.621   4.538   3.802  0.2973  0.6822  2.6206
  106SAPE   C3710914   1.653   4.725   3.898 -0.5833  1.1447  0.3782
  106SAPE   H7X10915   1.662   4.833   3.875  2.4231  1.4381  2.4496
  106SAPE   H7Y10916   1.717   4.702   3.986 -1.7142  1.0472  1.2160
  106SAPE   C3810917   1.504   4.711   3.950  0.3096  0.1082 -0.1970
  106SAPE   H8X10918   1.480   4.605   3.973 -1.1467  0.7945  1.6418
  106SAPE   H8Y10919   1.449   4.745   3.859 -0.6290 -2.4338 -0.6734
  106SAPE   C3910920   1.487   4.784   4.082 -0.3224  0.3183 -0.4263
  106SAPE   H9X10921   1.503   4.890   4.054  0.3581  0.3070 -0.0977
  106SAPE   H9Y10922   1.558   4.757   4.163  1.6741  2.1235 -1.4693
  106SAPE  C31010923   1.343   4.774   4.130  0.0603 -0.8895  0.3024
  106SAPE  H10X10924   1.303   4.671   4.141 -0.8369 -0.3921  2.2272
  106SAPE  H10Y10925   1.282   4.829   4.055  2.1089  2.5262  0.8849
  106SAPE  C31110926   1.317   4.865   4.256 -0.1908  0.5766  0.1208
  106SAPE  H11X10927   1.212   4.903   4.251 -1.3163 -2.1781  0.9080
  106SAPE  H11Y10928   1.388   4.950   4.258 -0.2523  0.6173  0.9605
  106SAPE  C31210929   1.334   4.792   4.394  0.4423 -0.0978  0.1051
  106SAPE  H12X10930   1.438   4.759   4.412  1.7410  3.7986  0.6949
  106SAPE  H12Y10931   1.270   4.702   4.393 -1.5038  1.2125 -0.6540
  106SAPE  C31310932   1.292   4.882   4.507 -0.0509  0.3795 -0.4365
  106SAPE  H13X10933   1.189   4.922   4.501 -0.7857 -1.2970  0.4191
  106SAPE  H13Y10934   1.351   4.977   4.502  1.0232 -0.3162 -1.7214
  106SAPE  C31410935   1.314   4.814   4.647  0.3503  0.3312 -0.7685
  106SAPE  H14X10936   1.250   4.724   4.656  0.2901  0.5741  2.5979
  106SAPE  H14Y10937   1.279   4.882   4.727 -1.6502 -0.7402 -0.6592
  106SAPE  C31510938   1.457   4.768   4.677 -0.1918  0.0625  0.1401
  106SAPE  H15X10939   1.530   4.839   4.634  1.0228 -0.8583  0.6095
  106SAPE  H15Y10940   1.480   4.680   4.613 -1.9265 -1.1268  1.0525
  106SAPE  C31610941   1.488   4.735   4.824 -0.3731 -0.0340  0.1168
  106SAPE  H16X10942   1.490   4.828   4.886  2.2508  1.4254 -1.9016
  106SAPE  H16Y10943   1.594   4.700   4.826  0.0549  1.2019  1.0584
  106SAPE  C31710944   1.400   4.630   4.902  0.0968  0.5990  0.5030
  106SAPE  H17X10945   1.392   4.548   4.826  2.1706  2.4540 -1.9187
  106SAPE  H17Y10946   1.300   4.669   4.928  0.1122  1.4246 -0.6079
  106SAPE  C31810947   1.459   4.563   5.032 -0.4284  0.0902  0.2054
  106SAPE  H18X10948   1.382   4.491   5.067  2.1124 -3.3408 -0.7175
  106SAPE  H18Y10949   1.497   4.633   5.109  1.3523 -0.9478  0.3164
  106SAPE  H18Z10950   1.550   4.505   5.006  0.3313  1.5749 -0.5771
  107SAPE     N10951   0.768   2.460   1.838 -0.3989 -0.8534 -0.8066
  107SAPE   HN110952   0.800   2.366   1.811  0.1239 -0.5522 -1.2434
  107SAPE   HN210953   0.815   2.517   1.765 -0.0625 -1.0235 -0.7211
  107SAPE   HN310954   0.794   2.495   1.932 -4.1994 -0.1328  0.1637
  107SAPE   C1210955   0.619   2.479   1.839 -0.0562 -0.9722 -0.4836
  107SAPE  H12A10956   0.571   2.432   1.927 -0.1753 -0.8073 -0.4594
  107SAPE  H12B10957   0.582   2.447   1.739  0.8220 -1.5684 -0.6341
  107SAPE   C1110958   0.581   2.630   1.841 -0.2542 -0.3259 -0.0036
  107SAPE  H11A10959   0.473   2.636   1.817 -0.2479  1.3451  0.2992
  107SAPE  H11B10960   0.630   2.681   1.755  1.7152 -2.7701 -0.4613
  107SAPE     P10961   0.550   2.797   2.040  0.2709 -0.2609 -0.3054
  107SAPE   O1310962   0.484   2.874   1.931 -0.3603 -0.1360  0.1825
  107SAPE   O1410963   0.464   2.740   2.144 -0.2506  0.0363  0.7283
  107SAPE   O1210964   0.620   2.676   1.973 -0.5828 -0.3023  0.3627
  107SAPE   O1110965   0.673   2.884   2.097  0.0010 -0.0180  0.3913
  107SAPE    C110966   0.772   2.824   2.187 -0.0057  0.3858  0.3310
  107SAPE    HA10967   0.773   2.714   2.168  0.0999  0.6440 -1.3172
  107SAPE    HB10968   0.871   2.855   2.147 -0.2241 -0.4674 -0.9281
  107SAPE    C210969   0.759   2.875   2.335  0.2433  0.2540  0.8082
  107SAPE    HS10970   0.842   2.826   2.390 -0.3862 -1.1248  0.5790
  107SAPE   O2110971   0.633   2.843   2.391 -0.2391 -0.2104 -0.1949
  107SAPE   C2110972   0.605   2.715   2.406 -0.6574 -0.0711 -0.6582
  107SAPE   O2210973   0.675   2.624   2.370 -0.2671 -1.1114  0.0947
  107SAPE   C2210974   0.470   2.699   2.462  0.0724  0.1962 -0.0007
  107SAPE   H2R10975   0.426   2.795   2.496  1.8420  0.8974  0.4378
  107SAPE   H2S10976   0.412   2.651   2.380 -0.2453  1.3680 -0.4986
  107SAPE    C310977   0.790   3.027   2.341  0.4108 -0.2369 -0.0549
  107SAPE    HX10978   0.689   3.067   2.316  0.1709  1.1498  2.7413
  107SAPE    HY10979   0.867   3.052   2.265  1.3132 -0.7851  0.6557
  107SAPE   O3110980   0.839   3.083   2.468 -0.5582  0.3078  0.8996
  107SAPE   C3110981   0.766   3.186   2.509  0.0984  0.4598  0.3966
  107SAPE   O3210982   0.689   3.257   2.445 -0.2115  0.3066 -0.0922
  107SAPE   C3210983   0.806   3.217   2.651 -0.2162 -0.3928  0.5047
  107SAPE   H2X10984   0.913   3.245   2.662 -0.2520 -0.4338  1.0016
  107SAPE   H2Y10985   0.784   3.126   2.711 -0.0688 -0.4763  0.4312
  107SAPE   C2310986   0.471   2.607   2.584 -0.0083 -0.1139 -0.0526
  107SAPE   H3R10987   0.479   2.500   2.557 -0.1209 -0.3612  0.8489
  107SAPE   H3S10988   0.364   2.600   2.616  0.6485 -2.0606  1.9679
  107SAPE   C2410989   0.560   2.643   2.707 -0.3220  0.0956  0.1522
  107SAPE   H4R10990   0.664   2.623   2.673  0.1535 -0.0241  1.6214
  107SAPE   H4S10991   0.534   2.581   2.795 -0.1394 -0.7121 -0.3475
  107SAPE   C2510992   0.552   2.790   2.750 -0.4961  0.2661  0.4151
  107SAPE   H5R10993   0.542   2.863   2.668 -1.4558  0.7338  0.9292
  107SAPE   C2610994   0.536   2.836   2.876  0.3557 -0.1937 -0.0236
  107SAPE   H6R10995   0.540   2.945   2.887 -0.4963 -0.1850  0.2828
  107SAPE   C2710996   0.515   2.761   3.008 -0.3033 -0.0155  0.0938
  107SAPE   H7R10997   0.596   2.688   3.026  1.6074  2.3565  1.7497
  107SAPE   H7S10998   0.419   2.706   3.000 -0.4488  0.2214  0.1859
  107SAPE   C2810999   0.509   2.851   3.131 -0.6775  0.0367 -0.4438
  107SAPE   H8R11000   0.542   2.950   3.095  1.7093 -0.8957 -1.0674
  107SAPE   C2911001   0.470   2.827   3.260  0.6343  0.1547 -0.2251
  107SAPE   H9R11002   0.474   2.905   3.338 -0.9978 -1.4016  1.5264
  107SAPE  C21011003   0.409   2.698   3.315 -0.5490  0.0061 -0.4974
  107SAPE  H10R11004   0.477   2.656   3.392 -0.5514 -2.4202 -1.7037
  107SAPE  H10S11005   0.419   2.624   3.232  1.5394  0.1210 -0.4035
  107SAPE  C21111006   0.264   2.712   3.354 -0.1395 -0.1714 -0.5401
  107SAPE  H11R11007   0.192   2.677   3.278  0.6663 -2.0342 -0.4975
  107SAPE  C21211008   0.228   2.764   3.468 -0.2900 -0.1665 -0.7807
  107SAPE  H12R11009   0.123   2.766   3.498  0.0526  0.8157  0.4425
  107SAPE  C21311010   0.319   2.809   3.578 -0.6153 -0.1150 -0.4217
  107SAPE  H13R11011   0.250   2.873   3.638 -1.7766 -1.4471 -0.2764
  107SAPE  H13S11012   0.387   2.883   3.531 -2.0622  0.9189 -0.9835
  107SAPE  C21411013   0.387   2.699   3.661 -0.2409  0.0448  0.6477
  107SAPE  H14R11014   0.477   2.660   3.612 -0.0870  0.3129  0.7192
  107SAPE  C21511015   0.369   2.679   3.795 -0.4081 -0.4641 -1.1998
  107SAPE  H15R11016   0.434   2.606   3.845 -1.0729  0.2795  0.8618
  107SAPE  C21611017   0.282   2.768   3.887 -0.8259  0.0003  0.3582
  107SAPE  H16R11018   0.246   2.862   3.840 -0.5189 -0.2921 -0.4786
  107SAPE  H16S11019   0.336   2.798   3.980  0.4525 -0.6501 -0.1568
  107SAPE  C21711020   0.153   2.702   3.942  0.0795  0.0355  0.3946
  107SAPE  H17R11021   0.095   2.672   3.853 -0.7949  3.3645 -0.2684
  107SAPE  H17S11022   0.085   2.775   3.991 -1.3645 -0.0666 -1.3660
  107SAPE  C21811023   0.189   2.585   4.024  1.1451  0.3129 -0.8416
  107SAPE  H18R11024   0.257   2.622   4.103 -1.3109  1.1690  0.9919
  107SAPE  H18S11025   0.247   2.505   3.974  1.4774  0.3605 -0.5337
  107SAPE  C21911026   0.061   2.533   4.093 -0.2426 -0.2347 -0.2977
  107SAPE  H19R11027   0.000   2.488   4.012 -2.5757 -0.5836  1.5352
  107SAPE  H19S11028   0.006   2.622   4.130 -1.1857 -0.8958 -0.0621
  107SAPE  C22011029   0.081   2.427   4.190 -0.0524  0.5937  0.2212
  107SAPE  H20R11030  -0.013   2.409   4.246  0.7917 -0.9574  1.2074
  107SAPE  H20S11031   0.161   2.462   4.258  0.4276 -2.1659  1.1847
  107SAPE  H20T11032   0.117   2.336   4.138  1.9693  0.9366  0.9608
  107SAPE   C3311033   0.731   3.340   2.704 -0.0274  0.0220 -0.2091
  107SAPE   H3X11034   0.624   3.309   2.711  0.0700  0.0022  1.5822
  107SAPE   H3Y11035   0.729   3.427   2.634  1.6300 -0.0754 -0.4121
  107SAPE   C3411036   0.783   3.374   2.844  0.2245  0.0926  0.6069
  107SAPE   H4X11037   0.737   3.472   2.871 -1.5109  0.3113 -2.6353
  107SAPE   H4Y11038   0.893   3.388   2.841  0.2262  0.2310  1.1106
  107SAPE   C3511039   0.758   3.262   2.949 -1.6467  0.4027  1.1849
  107SAPE   H5X11040   0.826   3.174   2.945 -4.0660 -1.5500 -1.3134
  107SAPE   H5Y11041   0.658   3.214   2.933 -2.5360  2.2328  1.0494
  107SAPE   C3611042   0.759   3.323   3.086 -0.0177  0.5584  0.4325
  107SAPE   H6X11043   0.711   3.422   3.073 -3.7612 -1.2968 -1.5526
  107SAPE   H6Y11044   0.862   3.350   3.120  0.8683 -0.9281 -0.9199
  107SAPE   C3711045   0.684   3.242   3.185  0.3565  0.3077  0.2147
  107SAPE   H7X11046   0.719   3.136   3.180 -2.5601 -0.7702  0.4549
  107SAPE   H7Y11047   0.576   3.250   3.161 -0.6320 -1.4385  3.3998
  107SAPE   C3811048   0.702   3.275   3.332 -0.1892  0.4306  0.4679
  107SAPE   H8X11049   0.657   3.374   3.354 -3.7230 -1.1056  0.7964
  107SAPE   H8Y11050   0.807   3.273   3.368 -0.3047  0.0144  0.7911
  107SAPE   C3911051   0.625   3.183   3.425  0.7349 -0.0400 -0.0675
  107SAPE   H9X11052   0.680   3.087   3.421  0.8482 -0.0646  1.5085
  107SAPE   H9Y11053   0.518   3.171   3.398  0.6865  1.3190 -0.5926
  107SAPE  C31011054   0.619   3.248   3.568 -0.8057  0.6244  0.2685
  107SAPE  H10X11055   0.599   3.356   3.550 -0.4778  0.7761  0.7854
  107SAPE  H10Y11056   0.718   3.235   3.617  0.1090 -0.3929 -1.7100
  107SAPE  C31111057   0.499   3.192   3.648  0.7207  0.4331 -0.5473
  107SAPE  H11X11058   0.492   3.082   3.660 -0.6322  0.6344  0.8136
  107SAPE  H11Y11059   0.410   3.217   3.586  0.0826 -1.3724 -0.4186
  107SAPE  C31211060   0.481   3.241   3.794 -0.4183 -0.8847 -0.6935
  107SAPE  H12X11061   0.485   3.352   3.792  2.4098 -0.8550  0.9161
  107SAPE  H12Y11062   0.575   3.211   3.845  0.5495  0.9375 -1.2750
  107SAPE  C31311063   0.358   3.184   3.853 -0.3624  0.0648 -0.9568
  107SAPE  H13X11064   0.363   3.073   3.842  1.1155  0.1289 -1.0836
  107SAPE  H13Y11065   0.269   3.212   3.793  0.1286  0.8083 -1.3468
  107SAPE  C31411066   0.334   3.200   4.005 -0.1813  0.0111 -0.3538
  107SAPE  H14X11067   0.238   3.150   4.029  0.0913  0.6318  2.3655
  107SAPE  H14Y11068   0.324   3.310   4.023  0.8088  0.2760 -1.2778
  107SAPE  C31511069   0.444   3.134   4.088  0.4337 -0.7054 -0.2726
  107SAPE  H15X11070   0.521   3.211   4.105 -0.7115  0.2031  0.9830
  107SAPE  H15Y11071   0.490   3.057   4.022 -2.5268 -2.1084 -0.8894
  107SAPE  C31611072   0.397   3.066   4.214  0.0510  0.4811  0.3981
  107SAPE  H16X11073   0.322   2.985   4.201  1.0499 -0.1871 -1.4569
  107SAPE  H16Y11074   0.344   3.137   4.282  0.5747 -0.4970  1.8817
  107SAPE  C31711075   0.511   3.015   4.295 -0.2738 -0.6415 -0.1357
  107SAPE  H17X11076   0.587   3.096   4.306  0.0061 -0.5251 -2.4333
  107SAPE  H17Y11077   0.561   2.932   4.241 -0.5254  1.2879 -3.6590
  107SAPE  C31811078   0.466   2.975   4.436 -0.3779  0.3130 -0.2570
  107SAPE  H18X11079   0.412   3.054   4.492  0.4859  1.6510 -1.2372
  107SAPE  H18Y11080   0.554   2.948   4.498 -0.8129 -1.6518 -0.4184
  107SAPE  H18Z11081   0.396   2.890   4.420 -0.0488 -0.2794  1.3323
  108SAPE     N11082   5.069   4.202   2.220  0.1180 -0.4183 -0.4215
  108SAPE   HN111083   5.085   4.277   2.149 -1.6853  0.0552 -0.3761
  108SAPE   HN211084   5.022   4.242   2.303  0.5561  1.0082 -0.8254
  108SAPE   HN311085   5.163   4.168   2.248 -1.3367 -1.3834  3.9909
  108SAPE   C1211086   4.995   4.093   2.147 -0.5052 -0.0581 -0.0644
  108SAPE  H12A11087   5.040   4.088   2.045 -0.7182  0.5077 -0.1910
  108SAPE  H12B11088   4.885   4.108   2.142 -0.4809  1.5582  2.4540
  108SAPE   C1111089   4.998   3.960   2.220 -0.8843  0.0376 -0.2693
  108SAPE  H11A11090   5.103   3.937   2.250 -0.3155  2.6062 -0.0659
  108SAPE  H11B11091   4.962   3.872   2.162  1.1046 -2.0314  1.4550
  108SAPE     P11092   4.794   3.893   2.377 -0.2022 -0.0470  0.0103
  108SAPE   O1311093   4.715   3.887   2.253  0.2345 -0.0792 -0.1539
  108SAPE   O1411094   4.828   3.762   2.442 -0.3959 -0.1977 -0.0569
  108SAPE   O1211095   4.932   3.968   2.346  0.5661  0.7314  0.4354
  108SAPE   O1111096   4.727   3.983   2.489  0.3787  0.3281 -0.0018
  108SAPE    C111097   4.781   4.107   2.527  0.1705  0.9830 -0.3380
  108SAPE    HA11098   4.845   4.152   2.449  1.3168  0.0057  0.0097
  108SAPE    HB11099   4.697   4.176   2.552 -0.2091  0.0316  1.1547
  108SAPE    C211100   4.865   4.098   2.660  0.4255  0.2169 -0.2249
  108SAPE    HS11101   4.969   4.112   2.624  0.6290 -2.4306 -0.8526
  108SAPE   O2111102   4.843   3.969   2.726 -0.2419  0.1117  0.5114
  108SAPE   C2111103   4.939   3.887   2.731  0.2094  0.1755  0.3149
  108SAPE   O2211104   5.047   3.900   2.679 -0.5198 -0.8176  0.2425
  108SAPE   C2211105   4.892   3.759   2.797 -0.5911 -0.0400  1.4303
  108SAPE   H2R11106   4.781   3.753   2.791 -0.5890  0.7550  0.3471
  108SAPE   H2S11107   4.934   3.680   2.731 -0.2940 -0.3741  2.0012
  108SAPE    C311108   4.824   4.208   2.763 -0.3027  0.4649 -0.0986
  108SAPE    HX11109   4.714   4.218   2.771 -0.2535  1.1571 -0.1978
  108SAPE    HY11110   4.857   4.307   2.723 -0.1719  0.8294  0.8831
  108SAPE   O3111111   4.881   4.179   2.888  0.0516 -0.2373 -0.7078
  108SAPE   C3111112   4.899   4.288   2.966  0.2752 -0.7122 -0.0539
  108SAPE   O3211113   4.862   4.402   2.934  0.0014  0.2078 -0.3780
  108SAPE   C3211114   4.992   4.249   3.076  0.2680  0.0436 -0.8058
  108SAPE   H2X11115   5.096   4.257   3.038  0.1599 -0.0175 -1.1180
  108SAPE   H2Y11116   4.977   4.147   3.118  2.0332 -1.0194 -2.5833
  108SAPE   C2311117   4.950   3.747   2.946  0.3551 -0.2906  0.0754
  108SAPE   H3R11118   5.061   3.752   2.942  0.3975 -1.7125 -1.0951
  108SAPE   H3S11119   4.922   3.650   2.992  0.4660 -1.5624 -2.4300
  108SAPE   C2411120   4.898   3.858   3.050  0.2595  0.5403  0.3365
  108SAPE   H4R11121   4.904   3.958   3.002 -0.6754  0.9063  0.9701
  108SAPE   H4S11122   4.979   3.855   3.126 -0.1174 -1.2144  0.7111
  108SAPE   C2511123   4.764   3.825   3.115 -1.0201 -0.0050  0.5017
  108SAPE   H5R11124   4.768   3.729   3.169 -1.3896 -0.7955 -0.8459
  108SAPE   C2611125   4.654   3.900   3.103  0.7260  0.7440  0.3833
  108SAPE   H6R11126   4.564   3.876   3.162 -0.7004  3.6916 -0.3661
  108SAPE   C2711127   4.650   4.033   3.030 -0.1810  0.0868 -0.2648
  108SAPE   H7R11128   4.670   4.017   2.922  1.6776 -1.5877  0.2526
  108SAPE   H7S11129   4.728   4.102   3.067 -1.1281 -0.3118  2.7318
  108SAPE   C2811130   4.508   4.095   3.030 -0.6026 -0.3648 -0.2362
  108SAPE   H8R11131   4.440   4.051   2.956 -0.0671 -1.4691 -0.0790
  108SAPE   C2911132   4.459   4.198   3.109  0.3164  0.4757 -0.0936
  108SAPE   H9R11133   4.364   4.250   3.091  1.8893  3.4286 -0.4903
  108SAPE  C21011134   4.553   4.270   3.206 -0.8701  0.0565 -0.5157
  108SAPE  H10R11135   4.640   4.206   3.231 -0.4713  1.3032  1.4524
  108SAPE  H10S11136   4.501   4.280   3.304 -0.2929  1.9494 -0.3515
  108SAPE  C21111137   4.600   4.403   3.151 -0.5916  0.0238 -0.5640
  108SAPE  H11R11138   4.582   4.418   3.043  2.3229 -0.9459 -1.2706
  108SAPE  C21211139   4.667   4.498   3.213  0.1217  0.2295  0.8803
  108SAPE  H12R11140   4.694   4.582   3.147  1.9548 -0.0002  1.2699
  108SAPE  C21311141   4.725   4.498   3.357  0.0978 -0.4399  0.1516
  108SAPE  H13R11142   4.835   4.518   3.354  0.1385 -0.6468  0.2389
  108SAPE  H13S11143   4.706   4.401   3.408 -0.7985 -0.3201  0.0520
  108SAPE  C21411144   4.655   4.604   3.427  0.6473 -0.8019 -0.5146
  108SAPE  H14R11145   4.559   4.579   3.475  0.6706  0.0110 -0.0221
  108SAPE  C21511146   4.716   4.720   3.471 -0.3295 -0.0564  0.4197
  108SAPE  H15R11147   4.662   4.800   3.523 -1.3366  0.1582 -0.8871
  108SAPE  C21611148   4.862   4.762   3.441 -0.6314 -0.1340 -0.2402
  108SAPE  H16R11149   4.863   4.873   3.436 -0.6581  0.0157  2.1119
  108SAPE  H16S11150   4.897   4.724   3.342 -0.5003  0.5774 -0.4720
  108SAPE  C21711151   4.956   4.719   3.558  0.3966  0.0761 -0.7973
  108SAPE  H17R11152   5.057   4.741   3.516  0.7622 -1.5544 -0.8553
  108SAPE  H17S11153   4.953   4.608   3.563  0.7368 -0.0110 -2.0454
  108SAPE  C21811154   4.941   4.796   3.695  0.8831  0.2183  0.1602
  108SAPE  H18R11155   4.854   4.755   3.751  0.7552  1.0326  0.5746
  108SAPE  H18S11156   4.936   4.903   3.668  2.0242  0.5427  1.1372
  108SAPE  C21911157   5.062   4.791   3.797 -0.4584 -0.4754  0.1180
  108SAPE  H19R11158   5.055   4.878   3.866 -1.3511 -0.8468  0.5050
  108SAPE  H19S11159   5.157   4.791   3.738 -0.4471 -1.1453  0.1370
  108SAPE  C22011160   5.060   4.665   3.880 -0.4690 -0.0355  0.4619
  108SAPE  H20R11161   5.150   4.649   3.943  0.1920 -1.9744 -0.9012
  108SAPE  H20S11162   5.050   4.578   3.812  0.6048  1.5438 -1.8211
  108SAPE  H20T11163   4.970   4.671   3.945 -0.4918  3.1826  0.2741
  108SAPE   C3311164   4.994   4.337   3.205  0.0760  0.2039  0.5451
  108SAPE   H3X11165   4.889   4.322   3.237 -0.5405 -2.5276 -2.3290
  108SAPE   H3Y11166   5.003   4.447   3.189  0.0230 -0.1893 -3.0106
  108SAPE   C3411167   5.095   4.302   3.309  1.0626 -0.6500  0.1348
  108SAPE   H4X11168   5.193   4.298   3.255  0.2058 -1.4013 -1.4583
  108SAPE   H4Y11169   5.088   4.196   3.341  1.5491 -0.4765  0.8338
  108SAPE   C3511170   5.094   4.398   3.432 -0.0080  0.2959 -0.4054
  108SAPE   H5X11171   5.099   4.501   3.391 -1.6526  1.2469  1.5941
  108SAPE   H5Y11172   5.004   4.390   3.496  1.2474  0.3332  1.4644
  108SAPE   C3611173   5.216   4.357   3.520  0.0450  0.4173 -0.8533
  108SAPE   H6X11174   5.309   4.378   3.462 -0.1502 -0.3473 -1.4531
  108SAPE   H6Y11175   5.217   4.248   3.542 -1.4786  0.6841  0.7420
  108SAPE   C3711176   5.231   4.433   3.651 -0.3758 -0.5910  0.2518
  108SAPE   H7X11177   5.142   4.416   3.714 -0.1434  0.4316  0.8862
  108SAPE   H7Y11178   5.245   4.542   3.633 -1.4461 -0.2784  1.1953
  108SAPE   C3811179   5.348   4.379   3.726 -0.4725  0.3490  1.1332
  108SAPE   H8X11180   5.438   4.381   3.661 -1.3017 -0.0825 -0.0603
  108SAPE   H8Y11181   5.346   4.269   3.738 -0.7959  0.3901  1.4846
  108SAPE   C3911182   5.390   4.452   3.853  0.1823  0.1032 -0.0953
  108SAPE   H9X11183   5.491   4.417   3.883 -0.3649  0.0089  1.7601
  108SAPE   H9Y11184   5.332   4.427   3.944  0.9065  0.2176  0.4050
  108SAPE  C31011185   5.409   4.598   3.825 -0.4773 -0.8412  0.1396
  108SAPE  H10X11186   5.312   4.651   3.812 -0.9123 -1.9433 -1.5526
  108SAPE  H10Y11187   5.469   4.599   3.731  0.2693  1.9770  0.5782
  108SAPE  C31111188   5.486   4.678   3.928  0.3127  0.8823 -0.7161
  108SAPE  H11X11189   5.573   4.627   3.975 -0.6722  0.1899  0.4278
  108SAPE  H11Y11190   5.413   4.682   4.011  3.2459 -2.4840  2.3823
  108SAPE  C31211191   5.525   4.823   3.899 -0.3453  0.1332  0.1131
  108SAPE  H12X11192   5.439   4.882   3.862 -0.9877  0.8988  2.5908
  108SAPE  H12Y11193   5.605   4.825   3.822 -0.8683  2.0739 -0.4454
  108SAPE  C31311194   5.577   4.901   4.018  0.1185 -1.0857 -0.3205
  108SAPE  H13X11195   5.489   4.923   4.082 -0.6695 -0.1147 -1.6872
  108SAPE  H13Y11196   5.610   5.001   3.983  0.9392 -0.7558  1.2705
  108SAPE  C31411197   5.704   4.850   4.096  0.1091  0.6082  0.1631
  108SAPE  H14X11198   5.678   4.752   4.140 -1.2855  1.0301  0.3231
  108SAPE  H14Y11199   5.726   4.922   4.178  0.8448 -0.8050  1.2318
  108SAPE  C31511200   5.820   4.844   4.001 -0.3253 -0.2163 -0.2282
  108SAPE  H15X11201   5.800   4.781   3.911 -0.9101 -1.1363  0.5206
  108SAPE  H15Y11202   5.907   4.795   4.049 -1.4539 -0.7817  1.3461
  108SAPE  C31611203   5.865   4.983   3.956  0.2069 -0.4854 -0.5011
  108SAPE  H16X11204   5.855   5.060   4.035 -0.7224 -0.0632 -1.0115
  108SAPE  H16Y11205   5.806   5.035   3.877 -2.2049  2.8154  3.0834
  108SAPE  C31711206   6.013   4.985   3.920  0.1263 -0.1300  0.0783
  108SAPE  H17X11207   6.076   4.958   4.007  2.2146  1.6937 -0.7597
  108SAPE  H17Y11208   6.046   5.091   3.905  0.3200 -0.4906 -2.7245
  108SAPE  C31811209   6.048   4.908   3.794  0.1804 -0.1216 -0.1726
  108SAPE  H18X11210   6.016   4.977   3.712 -2.4083 -0.0753  0.7819
  108SAPE  H18Y11211   5.992   4.813   3.798 -0.8006  0.4096 -0.8085
  108SAPE  H18Z11212   6.158   4.893   3.792  0.3069  0.7702 -0.4161
  109SAPE     N11213   3.969   3.943   2.174  0.2601 -0.7060  0.3781
  109SAPE   HN111214   3.895   3.968   2.106 -0.2312  0.8042  1.4094
  109SAPE   HN211215   4.019   4.033   2.192 -0.1050 -0.4984  0.3506
  109SAPE   HN311216   4.038   3.874   2.138  0.5376 -0.2822  0.0916
  109SAPE   C1211217   3.898   3.892   2.293  0.8886 -0.2778 -0.1965
  109SAPE  H12A11218   3.820   3.826   2.249 -1.9769  1.4685  2.0051
  109SAPE  H12B11219   3.848   3.974   2.349 -1.4005 -0.5373 -1.7161
  109SAPE   C1111220   3.989   3.796   2.379  0.1061 -0.1693  0.4165
  109SAPE  H11A11221   3.946   3.765   2.476  2.3418 -1.4371  1.0766
  109SAPE  H11B11222   4.080   3.855   2.403  0.2057  0.6902 -1.8131
  109SAPE     P11223   3.970   3.539   2.316  0.2534 -0.7805  0.2839
  109SAPE   O1311224   3.843   3.540   2.233 -0.1924  0.4634  0.6221
  109SAPE   O1411225   4.067   3.437   2.271 -0.5287 -0.1185  0.3661
  109SAPE   O1211226   4.029   3.679   2.306  0.0241  0.5141 -0.0417
  109SAPE   O1111227   3.932   3.532   2.473 -0.4775 -0.9584 -0.4971
  109SAPE    C111228   3.923   3.405   2.544 -0.4694  0.6304 -0.7365
  109SAPE    HA11229   3.842   3.347   2.494  2.1490 -0.8218 -3.6443
  109SAPE    HB11230   4.020   3.350   2.541 -0.7212  0.2097 -1.8272
  109SAPE    C211231   3.885   3.434   2.687 -0.0818  0.8079  0.9057
  109SAPE    HS11232   3.940   3.520   2.729  0.2193  0.3033  1.5588
  109SAPE   O2111233   3.914   3.316   2.765  0.1421  0.1654 -0.0107
  109SAPE   C2111234   4.040   3.303   2.799 -0.1764  0.5067 -0.1162
  109SAPE   O2211235   4.125   3.386   2.775 -0.2776 -1.1754 -0.0554
  109SAPE   C2211236   4.052   3.184   2.891  0.3248  0.1886 -0.4865
  109SAPE   H2R11237   3.983   3.194   2.977 -0.1514 -2.7645 -0.4286
  109SAPE   H2S11238   4.001   3.100   2.840 -0.1063  0.7336 -0.9723
  109SAPE    C311239   3.736   3.473   2.699 -0.3784  0.3371  0.1298
  109SAPE    HX11240   3.671   3.388   2.669 -2.9499  2.7216 -1.5833
  109SAPE    HY11241   3.723   3.549   2.619  1.6711 -0.9264 -1.5120
  109SAPE   O3111242   3.709   3.517   2.830  0.6401  0.0028  0.0039
  109SAPE   C3111243   3.698   3.649   2.851  0.7798  0.2371  0.1903
  109SAPE   O3211244   3.721   3.740   2.771  0.0772  0.0274 -0.4218
  109SAPE   C3211245   3.642   3.681   2.988 -0.2275  0.4312  0.6123
  109SAPE   H2X11246   3.611   3.788   2.993 -1.7764  0.1625 -1.5133
  109SAPE   H2Y11247   3.722   3.649   3.057 -1.6235 -1.6177  1.3892
  109SAPE   C2311248   4.197   3.141   2.940 -0.1014  0.2820  0.2342
  109SAPE   H3R11249   4.260   3.224   2.976  0.6147  1.1502 -2.6918
  109SAPE   H3S11250   4.239   3.108   2.842  0.7306  2.7206 -0.2807
  109SAPE   C2411251   4.202   3.017   3.038  0.2769 -0.2936 -0.1833
  109SAPE   H4R11252   4.152   3.057   3.129 -1.9167 -2.1929 -0.4588
  109SAPE   H4S11253   4.307   2.996   3.067 -0.0692 -0.8509  0.7205
  109SAPE   C2511254   4.127   2.900   2.984  0.4927  0.4337 -0.2934
  109SAPE   H5R11255   4.144   2.875   2.878  0.7069  0.3843 -0.2486
  109SAPE   C2611256   4.035   2.831   3.047 -0.3176 -0.5809 -0.7471
  109SAPE   H6R11257   3.977   2.751   2.999 -2.6676 -0.6433  1.8938
  109SAPE   C2711258   3.976   2.854   3.183 -0.0538 -0.6030 -0.6639
  109SAPE   H7R11259   4.065   2.846   3.249  1.0091  0.4708 -1.9175
  109SAPE   H7S11260   3.908   2.771   3.212 -0.6640 -0.3446 -1.3163
  109SAPE   C2811261   3.893   2.987   3.203 -0.0004  0.8810 -0.2471
  109SAPE   H8R11262   3.856   3.033   3.110  0.5748  0.8994 -0.4702
  109SAPE   C2911263   3.881   3.058   3.320 -0.7176 -0.3163  0.6967
  109SAPE   H9R11264   3.806   3.138   3.322 -0.0925  0.2636  1.1268
  109SAPE  C21011265   3.943   3.013   3.451  0.6790 -0.3341 -0.0135
  109SAPE  H10R11266   3.951   2.902   3.454 -0.3645 -0.4448 -0.6082
  109SAPE  H10S11267   3.861   3.021   3.526  0.5194 -3.3843  0.2638
  109SAPE  C21111268   4.069   3.080   3.493 -0.4952  0.2511 -0.2959
  109SAPE  H11R11269   4.115   3.131   3.408 -3.9628  1.2194 -1.7688
  109SAPE  C21211270   4.112   3.105   3.617 -0.0495  0.4068 -0.2718
  109SAPE  H12R11271   4.203   3.164   3.632 -0.6573  0.9536  1.5365
  109SAPE  C21311272   4.040   3.049   3.739  0.0664 -1.0596  0.2156
  109SAPE  H13R11273   3.930   3.062   3.739 -0.1434 -2.5621 -0.9356
  109SAPE  H13S11274   4.078   3.112   3.822  0.6960  0.1567 -0.9432
  109SAPE  C21411275   4.054   2.902   3.770  0.6093 -0.0009  0.3947
  109SAPE  H14R11276   4.040   2.837   3.682  1.4051 -0.1379  0.3546
  109SAPE  C21511277   4.082   2.845   3.884 -0.0182  0.2602 -0.4807
  109SAPE  H15R11278   4.082   2.735   3.890 -1.2500  0.3113  2.5137
  109SAPE  C21611279   4.102   2.914   4.014 -0.2185  0.7432 -0.7140
  109SAPE  H16R11280   4.163   3.007   4.002  1.6425 -0.4083 -0.6866
  109SAPE  H16S11281   4.173   2.856   4.077 -0.8997  1.5473  0.8270
  109SAPE  C21711282   3.978   2.957   4.098 -0.8126  0.3738  0.2294
  109SAPE  H17R11283   3.931   2.866   4.143  1.2711 -1.2679 -0.7326
  109SAPE  H17S11284   3.901   3.000   4.030  0.1622  1.6292 -0.1071
  109SAPE  C21811285   4.030   3.054   4.207  0.1613 -0.2801 -0.8774
  109SAPE  H18R11286   4.071   3.149   4.168  2.0008 -0.8276 -0.3853
  109SAPE  H18S11287   4.128   3.014   4.243  0.8432 -2.0672 -4.2539
  109SAPE  C21911288   3.935   3.077   4.325  0.2606 -0.7390 -0.1153
  109SAPE  H19R11289   3.989   3.148   4.392  0.9091 -1.6613  0.3550
  109SAPE  H19S11290   3.914   2.984   4.382 -0.0631 -0.8301 -0.3823
  109SAPE  C22011291   3.799   3.133   4.281 -0.1045 -0.4436 -0.0937
  109SAPE  H20R11292   3.741   3.170   4.367  1.2943 -2.1253  1.6621
  109SAPE  H20S11293   3.743   3.056   4.224  0.2264  0.3253 -1.5054
  109SAPE  H20T11294   3.825   3.221   4.219 -0.8950  0.5580  0.9684
  109SAPE   C3311295   3.530   3.587   3.026  0.2548 -0.9162  0.0029
  109SAPE   H3X11296   3.566   3.496   3.079 -0.5650 -1.3354 -0.1370
  109SAPE   H3Y11297   3.463   3.554   2.943 -3.7711  1.8183  1.8531
  109SAPE   C3411298   3.439   3.657   3.130  0.3096 -0.5686 -0.3606
  109SAPE   H4X11299   3.411   3.752   3.079  1.4622 -0.9580 -1.7748
  109SAPE   H4Y11300   3.486   3.675   3.229  0.3521  1.1532 -0.6629
  109SAPE   C3511301   3.318   3.573   3.158 -0.2307  0.0447  0.5318
  109SAPE   H5X11302   3.347   3.474   3.199  0.9054 -0.2076 -0.7924
  109SAPE   H5Y11303   3.257   3.558   3.066 -2.6777 -0.3082  2.1541
  109SAPE   C3611304   3.232   3.627   3.269 -0.0274  0.5407 -0.5236
  109SAPE   H6X11305   3.199   3.728   3.236  0.7599  0.8624 -0.3628
  109SAPE   H6Y11306   3.286   3.641   3.365 -2.2144 -0.2459  0.8736
  109SAPE   C3711307   3.119   3.537   3.306 -0.4084 -0.3441 -1.1798
  109SAPE   H7X11308   3.158   3.442   3.348 -1.7034  0.1924  1.4849
  109SAPE   H7Y11309   3.051   3.515   3.221 -1.9350 -0.5180  0.0473
  109SAPE   C3811310   3.032   3.611   3.409 -0.4894 -1.1619 -0.1893
  109SAPE   H8X11311   2.941   3.548   3.412  0.0106 -1.9741 -1.5160
  109SAPE   H8Y11312   3.012   3.712   3.368 -1.3429 -1.8123 -1.4203
  109SAPE   C3911313   3.085   3.610   3.550  0.0944 -0.3837  0.2305
  109SAPE   H9X11314   3.187   3.655   3.551  0.2715 -0.7419 -0.6022
  109SAPE   H9Y11315   3.098   3.506   3.588 -0.2761 -0.8350 -0.8389
  109SAPE  C31011316   2.988   3.685   3.646  0.1082  0.0543 -0.7154
  109SAPE  H10X11317   2.886   3.642   3.645  0.1756 -0.1050 -1.0197
  109SAPE  H10Y11318   2.981   3.790   3.611 -1.0037 -0.3047 -1.6288
  109SAPE  C31111319   3.053   3.681   3.784 -0.1422  0.7805 -0.3354
  109SAPE  H11X11320   3.155   3.724   3.800 -0.0310  0.3542  0.1088
  109SAPE  H11Y11321   3.057   3.573   3.807 -0.5909  1.2738  2.5626
  109SAPE  C31211322   2.949   3.739   3.889  1.1152  0.1628 -0.0763
  109SAPE  H12X11323   2.848   3.695   3.880  0.3365  1.3265  2.1927
  109SAPE  H12Y11324   2.929   3.848   3.878  1.3534  0.4659  2.1550
  109SAPE  C31311325   2.984   3.691   4.032  0.0933 -0.6459 -0.1689
  109SAPE  H13X11326   3.086   3.734   4.044 -0.1113  0.7473 -2.6779
  109SAPE  H13Y11327   2.995   3.581   4.025  4.5214 -0.3524 -0.3467
  109SAPE  C31411328   2.890   3.748   4.136  0.0911  0.7243 -0.0732
  109SAPE  H14X11329   2.781   3.751   4.116  0.0135  2.7093  0.4430
  109SAPE  H14Y11330   2.917   3.854   4.154  1.6782  0.0067  2.3130
  109SAPE  C31511331   2.916   3.671   4.268 -0.3172  0.6213  1.0166
  109SAPE  H15X11332   3.017   3.623   4.274 -0.5201 -0.2695 -1.4121
  109SAPE  H15Y11333   2.843   3.588   4.271  0.4678 -0.0743  1.2108
  109SAPE  C31611334   2.892   3.757   4.394 -0.0025  0.0509 -0.2358
  109SAPE  H16X11335   2.818   3.696   4.450  0.6636 -0.5726 -0.0107
  109SAPE  H16Y11336   2.839   3.849   4.362  0.0682 -0.2251 -1.1675
  109SAPE  C31711337   3.015   3.792   4.478  0.5394  0.2674 -0.4934
  109SAPE  H17X11338   2.973   3.880   4.531 -0.7428 -0.3614 -0.4385
  109SAPE  H17Y11339   3.091   3.829   4.406  0.0549  0.9604 -0.6575
  109SAPE  C31811340   3.063   3.683   4.566 -0.3313  0.0558 -0.1506
  109SAPE  H18X11341   3.163   3.717   4.601  0.7327 -1.0745 -1.9587
  109SAPE  H18Y11342   3.086   3.585   4.520  1.5264 -0.4844  1.7670
  109SAPE  H18Z11343   2.992   3.669   4.650 -0.3416  3.9732  0.6863
  110SAPE     N11344   3.665   4.677   2.395 -0.0138  0.5406  0.4603
  110SAPE   HN111345   3.580   4.664   2.454 -0.9773 -0.6221 -1.1234
  110SAPE   HN211346   3.749   4.630   2.435 -0.1412 -0.2268 -0.1554
  110SAPE   HN311347   3.693   4.777   2.390  1.0634  0.2106 -0.5338
  110SAPE   C1211348   3.650   4.617   2.261 -0.4104  0.2304  0.3703
  110SAPE  H12A11349   3.652   4.507   2.271 -1.7927  0.0943 -0.5781
  110SAPE  H12B11350   3.731   4.657   2.196  0.7884 -1.6470  0.6421
  110SAPE   C1111351   3.518   4.646   2.184 -0.1467  0.0071 -0.7270
  110SAPE  H11A11352   3.533   4.599   2.084 -0.7535 -0.7753 -0.4560
  110SAPE  H11B11353   3.506   4.749   2.145 -0.6112  0.3965  0.4008
  110SAPE     P11354   3.320   4.466   2.229 -0.1271 -0.3396 -0.1189
  110SAPE   O1311355   3.233   4.488   2.111  0.1926 -0.0239  0.5890
  110SAPE   O1411356   3.412   4.344   2.222  0.3668 -0.5076  0.0293
  110SAPE   O1211357   3.394   4.602   2.249  0.0689  0.3467 -0.3116
  110SAPE   O1111358   3.230   4.450   2.361  0.1573  0.2851 -0.4517
  110SAPE    C111359   3.152   4.561   2.412  0.2922 -0.5040  0.5806
  110SAPE    HA11360   3.130   4.640   2.337  2.1845  0.6411  1.1705
  110SAPE    HB11361   3.061   4.520   2.460  0.0757 -0.5564  0.1304
  110SAPE    C211362   3.230   4.642   2.521 -0.9665  0.5506 -0.4772
  110SAPE    HS11363   3.313   4.706   2.484 -1.0230  2.2444  2.0667
  110SAPE   O2111364   3.271   4.547   2.624  0.1199 -0.2399  0.1210
  110SAPE   C2111365   3.401   4.535   2.657 -0.0190 -0.3085 -0.0298
  110SAPE   O2211366   3.496   4.590   2.603  0.4257  0.8865  0.8006
  110SAPE   C2211367   3.420   4.435   2.770 -0.7722  0.1653 -0.0703
  110SAPE   H2R11368   3.399   4.484   2.867  1.2732  1.9119 -0.4302
  110SAPE   H2S11369   3.344   4.355   2.754 -0.0879 -0.3211 -0.9975
  110SAPE    C311370   3.149   4.750   2.594  0.3471  0.1732  0.3583
  110SAPE    HX11371   3.098   4.815   2.520  0.2646  0.3607  0.5794
  110SAPE    HY11372   3.078   4.691   2.656  1.8370 -1.7037  0.3940
  110SAPE   O3111373   3.234   4.819   2.687  0.3053 -0.7924 -0.6052
  110SAPE   C3111374   3.294   4.937   2.655  0.2901 -0.5433 -0.1398
  110SAPE   O3211375   3.318   4.971   2.541  0.6266  0.8151  0.6648
  110SAPE   C3211376   3.331   5.022   2.779  0.3114  0.4453  0.1751
  110SAPE   H2X11377   3.441   5.031   2.785  0.1230  2.2106  2.4869
  110SAPE   H2Y11378   3.307   4.970   2.874  1.5839 -0.5088  0.0065
  110SAPE   C2311379   3.558   4.358   2.751  0.4493  0.1931 -1.2255
  110SAPE   H3R11380   3.636   4.434   2.771  1.4411 -1.0887  0.0479
  110SAPE   H3S11381   3.589   4.319   2.652 -2.9740 -1.6301 -1.7566
  110SAPE   C2411382   3.564   4.245   2.856  0.1768 -0.5241  0.0438
  110SAPE   H4R11383   3.538   4.282   2.957 -1.2595 -1.2749 -0.0336
  110SAPE   H4S11384   3.668   4.205   2.864  0.1418 -0.5079  0.6338
  110SAPE   C2511385   3.462   4.137   2.829 -1.0682  0.0759 -0.1496
  110SAPE   H5R11386   3.460   4.110   2.722  0.1638 -2.3194  0.3678
  110SAPE   C2611387   3.378   4.075   2.911  0.3953  0.0784  0.3261
  110SAPE   H6R11388   3.311   4.002   2.864  0.6089 -1.0461  1.7145
  110SAPE   C2711389   3.386   4.086   3.061  0.0091  0.1701 -0.7192
  110SAPE   H7R11390   3.415   4.187   3.096  1.0120 -0.2398 -0.3440
  110SAPE   H7S11391   3.465   4.015   3.094  0.2140  1.5579  1.9924
  110SAPE   C2811392   3.262   4.036   3.140  0.3007  0.1737 -0.0659
  110SAPE   H8R11393   3.167   4.034   3.085  0.9738 -1.2501 -1.2573
  110SAPE   C2911394   3.257   3.996   3.269 -0.5811  0.3658 -0.2083
  110SAPE   H9R11395   3.165   3.955   3.314  0.8110 -0.6716  1.8513
  110SAPE  C21011396   3.372   4.000   3.360  0.5166  0.4883 -0.2224
  110SAPE  H10R11397   3.454   3.948   3.306 -1.0313 -2.3874 -0.0132
  110SAPE  H10S11398   3.348   3.938   3.449  0.4375 -0.3592 -0.8149
  110SAPE  C21111399   3.419   4.135   3.396 -0.4551  0.2849  0.3113
  110SAPE  H11R11400   3.438   4.205   3.313 -2.0974  0.5509  0.1196
  110SAPE  C21211401   3.430   4.190   3.515 -0.2422  0.5869  0.2306
  110SAPE  H12R11402   3.475   4.291   3.518 -0.7105  0.8362 -0.7209
  110SAPE  C21311403   3.400   4.137   3.649  0.4429  0.5036  0.2604
  110SAPE  H13R11404   3.349   4.038   3.649 -1.7091  1.5630 -0.1554
  110SAPE  H13S11405   3.329   4.207   3.696  1.6809  2.1255 -0.1915
  110SAPE  C21411406   3.523   4.143   3.742 -0.2748 -0.0003  0.0732
  110SAPE  H14R11407   3.613   4.086   3.715 -1.0474 -0.2627 -2.1617
  110SAPE  C21511408   3.525   4.210   3.862  0.4437 -0.0104 -0.3242
  110SAPE  H15R11409   3.617   4.195   3.921  1.5699 -1.6948 -2.3393
  110SAPE  C21611410   3.414   4.306   3.906 -0.2999  0.0846  0.1264
  110SAPE  H16R11411   3.322   4.252   3.937 -0.3754 -0.1856 -0.5643
  110SAPE  H16S11412   3.390   4.378   3.825 -0.0084  0.4378  0.3471
  110SAPE  C21711413   3.469   4.395   4.017 -0.3243 -0.3973  0.1877
  110SAPE  H17R11414   3.385   4.458   4.053 -0.5747 -0.8196  0.3418
  110SAPE  H17S11415   3.553   4.462   3.988 -0.8533 -0.3203 -1.2283
  110SAPE  C21811416   3.507   4.314   4.147 -0.1307 -0.1675 -0.3814
  110SAPE  H18R11417   3.600   4.259   4.121 -0.4282 -1.0578  0.4002
  110SAPE  H18S11418   3.437   4.228   4.153  0.8804 -1.0258 -0.7114
  110SAPE  C21911419   3.512   4.388   4.274 -0.3029 -1.3048  0.4007
  110SAPE  H19R11420   3.419   4.448   4.289  0.0078 -0.4712 -0.8641
  110SAPE  H19S11421   3.590   4.466   4.264 -1.4611 -0.2739 -1.0916
  110SAPE  C22011422   3.544   4.306   4.397  0.1893  0.2041  0.1176
  110SAPE  H20R11423   3.629   4.237   4.378 -0.5460 -0.7415  0.1931
  110SAPE  H20S11424   3.454   4.245   4.421  1.2523 -0.5160  2.6568
  110SAPE  H20T11425   3.565   4.371   4.484 -0.5092  0.7871 -0.1357
  110SAPE   C3311426   3.273   5.168   2.775  0.3613 -0.2977 -0.6354
  110SAPE   H3X11427   3.163   5.160   2.790 -0.1536  2.4689 -2.0785
  110SAPE   H3Y11428   3.290   5.209   2.673  2.9412 -2.5308 -1.2256
  110SAPE   C3411429   3.348   5.257   2.874  0.2473 -0.4821 -0.1086
  110SAPE   H4X11430   3.456   5.263   2.849  0.2670 -1.6962 -0.4010
  110SAPE   H4Y11431   3.354   5.209   2.974 -0.3077 -1.2426 -0.4257
  110SAPE   C3511432   3.269   5.385   2.896 -0.0829  0.1901 -0.1555
  110SAPE   H5X11433   3.160   5.365   2.902 -0.1887  0.7519 -0.1938
  110SAPE   H5Y11434   3.272   5.440   2.800 -1.9276  0.4274 -0.1056
  110SAPE   C3611435   3.323   5.476   3.003  0.9395 -0.0026  0.7262
  110SAPE   H6X11436   3.426   5.511   2.981  1.5121 -2.0505 -0.0305
  110SAPE   H6Y11437   3.342   5.422   3.098 -1.7138  0.9495  1.9222
  110SAPE   C3711438   3.234   5.602   3.021  0.1299 -0.0444  0.4584
  110SAPE   H7X11439   3.127   5.572   3.011  0.4028 -0.3319 -3.5055
  110SAPE   H7Y11440   3.242   5.673   2.936 -1.7713  0.2532  0.4799
  110SAPE   C3811441   3.276   5.676   3.146  0.7697 -0.0872  0.2109
  110SAPE   H8X11442   3.221   5.773   3.144 -2.9749 -2.0575  0.1042
  110SAPE   H8Y11443   3.385   5.700   3.140  0.6974 -0.1130 -1.8036
  110SAPE   C3911444   3.231   5.601   3.264 -0.3998  0.2416  0.3754
  110SAPE   H9X11445   3.286   5.505   3.270 -0.0476  0.5169  2.7900
  110SAPE   H9Y11446   3.125   5.570   3.254 -0.2795  0.0479 -0.2999
  110SAPE  C31011447   3.275   5.689   3.380 -0.2329 -0.1317  0.3003
  110SAPE  H10X11448   3.214   5.781   3.387 -0.0298 -0.0171  0.5599
  110SAPE  H10Y11449   3.379   5.727   3.367  0.0995 -1.7690 -2.8243
  110SAPE  C31111450   3.248   5.599   3.504  0.7639 -0.0534  0.7835
  110SAPE  H11X11451   3.315   5.512   3.487  1.1701  0.4189 -0.1054
  110SAPE  H11Y11452   3.146   5.556   3.497  0.9807 -0.3129 -1.8930
  110SAPE  C31211453   3.280   5.672   3.637 -0.8806  0.7942 -0.9328
  110SAPE  H12X11454   3.214   5.761   3.647  1.0820  2.1530  1.0005
  110SAPE  H12Y11455   3.388   5.699   3.639 -0.2647 -1.2508 -2.6900
  110SAPE  C31311456   3.253   5.577   3.758 -0.3445  0.0307  0.8024
  110SAPE  H13X11457   3.320   5.488   3.754  1.0378  1.0610  0.2943
  110SAPE  H13Y11458   3.155   5.532   3.730 -0.2940  0.8291 -0.7313
  110SAPE  C31411459   3.241   5.647   3.894 -0.1530 -0.2187 -0.0322
  110SAPE  H14X11460   3.174   5.735   3.890 -0.9861 -0.8618 -0.6551
  110SAPE  H14Y11461   3.345   5.682   3.907 -0.6739  1.2341  0.3979
  110SAPE  C31511462   3.197   5.559   4.008 -0.0574  0.0548  0.1269
  110SAPE  H15X11463   3.257   5.590   4.096 -1.2381  0.2237  0.9000
  110SAPE  H15Y11464   3.214   5.451   3.985  0.3043  0.1729 -0.1683
  110SAPE  C31611465   3.049   5.578   4.041  0.1935  0.1344 -0.3001
  110SAPE  H16X11466   2.995   5.571   3.944  0.8826  2.7384 -0.9494
  110SAPE  H16Y11467   3.040   5.678   4.089  1.5797 -0.1834  0.6932
  110SAPE  C31711468   2.987   5.480   4.134  0.6708 -0.0165 -0.1288
  110SAPE  H17X11469   3.012   5.378   4.098  2.7387 -0.4117  2.2047
  110SAPE  H17Y11470   2.878   5.502   4.139  1.0301  1.9347 -0.4300
  110SAPE  C31811471   3.040   5.495   4.275  0.7985  0.0724 -0.1070
  110SAPE  H18X11472   3.021   5.592   4.325  0.7626  0.7099 -1.3247
  110SAPE  H18Y11473   3.150   5.491   4.262  0.5607 -0.9430 -2.1173
  110SAPE  H18Z11474   3.011   5.413   4.344 -0.0609  0.7449  0.3485
  111SAPE     N11475   4.504   1.634   2.268 -0.4973 -0.0355 -0.3311
  111SAPE   HN111476   4.523   1.711   2.336  1.9093  0.2591 -1.2220
  111SAPE   HN211477   4.487   1.545   2.318 -0.8783  0.7784  1.0552
  111SAPE   HN311478   4.597   1.612   2.225  0.5128  1.6811  0.8315
  111SAPE   C1211479   4.390   1.659   2.179 -0.9012  0.3051 -0.2309
  111SAPE  H12A11480   4.381   1.566   2.118 -1.9674 -0.1943  0.6524
  111SAPE  H12B11481   4.407   1.750   2.117 -0.1270 -0.9925 -2.0180
  111SAPE   C1111482   4.260   1.667   2.260  0.1038  0.8161 -0.5427
  111SAPE  H11A11483   4.253   1.576   2.324  2.1863  0.4552 -0.7643
  111SAPE  H11B11484   4.185   1.662   2.179  1.0384 -0.4822 -1.3507
  111SAPE     P11485   4.113   1.845   2.373 -0.0458 -0.0073  0.2097
  111SAPE   O1311486   4.102   1.960   2.281  0.3913 -0.1348 -0.7062
  111SAPE   O1411487   4.005   1.749   2.351 -0.4277  0.0068  0.2469
  111SAPE   O1211488   4.249   1.777   2.352  0.2271 -0.4607  0.3066
  111SAPE   O1111489   4.117   1.895   2.523 -0.4649 -0.5484  0.3135
  111SAPE    C111490   4.204   1.843   2.622  0.2180  0.4747  0.0516
  111SAPE    HA11491   4.313   1.861   2.617  0.5288 -0.1523  2.6663
  111SAPE    HB11492   4.184   1.896   2.717 -0.0110  0.1828  0.1692
  111SAPE    C211493   4.188   1.689   2.650  0.5831 -0.4887 -0.5187
  111SAPE    HS11494   4.170   1.646   2.549 -1.3544  1.2853 -0.9909
  111SAPE   O2111495   4.067   1.678   2.734 -0.0142 -0.0963  0.3600
  111SAPE   C2111496   4.038   1.556   2.738  0.3403  0.1808  0.4765
  111SAPE   O2211497   4.090   1.461   2.676 -0.1736 -1.3023 -0.1879
  111SAPE   C2211498   3.922   1.536   2.828  0.7255 -0.8518  0.2534
  111SAPE   H2R11499   3.834   1.587   2.783  1.5093  2.5231  2.2784
  111SAPE   H2S11500   3.890   1.430   2.818  1.4196 -1.0610  0.1730
  111SAPE    C311501   4.315   1.639   2.726  0.4065 -0.2461 -0.2492
  111SAPE    HX11502   4.396   1.651   2.651  0.1688 -0.4056 -0.5335
  111SAPE    HY11503   4.317   1.529   2.743 -0.3950 -0.4651 -1.4844
  111SAPE   O3111504   4.352   1.709   2.853 -0.5634  0.7973 -0.6104
  111SAPE   C3111505   4.484   1.713   2.886 -0.6943 -0.0605  0.2252
  111SAPE   O3211506   4.575   1.662   2.821 -0.0885 -0.1140 -0.3431
  111SAPE   C3211507   4.512   1.790   3.019  0.3215  0.5692 -0.2318
  111SAPE   H2X11508   4.421   1.849   3.043  1.0192  1.2357  0.8887
  111SAPE   H2Y11509   4.590   1.867   3.004  0.8706  0.0983  0.1675
  111SAPE   C2311510   3.943   1.589   2.968  0.1127  0.6560 -0.0284
  111SAPE   H3R11511   3.861   1.544   3.028 -0.3824  2.5169  0.7702
  111SAPE   H3S11512   3.941   1.700   2.966 -1.3653  0.6623  0.6890
  111SAPE   C2411513   4.071   1.538   3.052  0.1965  0.0733  0.1751
  111SAPE   H4R11514   4.159   1.598   3.022  1.7672 -3.3006 -2.5516
  111SAPE   H4S11515   4.090   1.434   3.019  1.5528  0.2609  0.3099
  111SAPE   C2511516   4.047   1.547   3.200  0.6360 -0.3516  0.4118
  111SAPE   H5R11517   4.028   1.445   3.237  0.7636 -0.8142 -0.7473
  111SAPE   C2611518   4.036   1.650   3.285 -0.2316  0.2880  0.4658
  111SAPE   H6R11519   3.993   1.626   3.383 -1.0016  2.2619  0.6482
  111SAPE   C2711520   4.070   1.796   3.252  0.5583 -0.2987 -0.2023
  111SAPE   H7R11521   3.997   1.867   3.297  2.7462  2.2469 -0.4504
  111SAPE   H7S11522   4.072   1.799   3.141  1.8843 -0.8194 -0.2047
  111SAPE   C2811523   4.205   1.844   3.282 -0.3724  0.5904 -0.1574
  111SAPE   H8R11524   4.273   1.829   3.197 -1.3392 -0.2224 -0.8177
  111SAPE   C2911525   4.259   1.896   3.392  0.2384  0.4057 -0.1978
  111SAPE   H9R11526   4.367   1.916   3.397 -0.1289  2.2479  1.9626
  111SAPE  C21011527   4.182   1.915   3.517  0.6668 -0.0177  0.0426
  111SAPE  H10R11528   4.084   1.862   3.511  1.2422 -1.0700 -0.2060
  111SAPE  H10S11529   4.165   2.024   3.530  0.3004 -0.2314  1.6109
  111SAPE  C21111530   4.253   1.877   3.648  0.6345 -0.2130 -0.9812
  111SAPE  H11R11531   4.361   1.895   3.656  0.2717  1.1810  2.6346
  111SAPE  C21211532   4.198   1.813   3.754 -0.8555  0.3656  0.9267
  111SAPE  H12R11533   4.253   1.805   3.848 -0.4060  1.6422  0.7919
  111SAPE  C21311534   4.059   1.765   3.758  0.6866  0.1788  0.0177
  111SAPE  H13R11535   4.042   1.680   3.690 -2.8535  0.3078  0.5502
  111SAPE  H13S11536   3.985   1.835   3.714  0.3668 -0.0282  0.2269
  111SAPE  C21411537   4.007   1.713   3.884 -0.3090  0.1140 -0.2926
  111SAPE  H14R11538   3.994   1.604   3.889  3.6433 -0.4316  2.3876
  111SAPE  C21511539   3.968   1.781   3.994  0.0856 -0.0753  0.2874
  111SAPE  H15R11540   3.939   1.720   4.081  0.7793 -0.5478  0.1908
  111SAPE  C21611541   3.971   1.935   4.007  0.1283  0.9938 -0.3409
  111SAPE  H16R11542   3.882   1.962   4.067  0.4874 -1.4230  1.4933
  111SAPE  H16S11543   3.983   1.986   3.910  1.2451  1.7296  0.1574
  111SAPE  C21711544   4.086   1.963   4.096  0.3019  0.3097 -0.0092
  111SAPE  H17R11545   4.130   2.064   4.081  2.1988 -0.6805 -1.6076
  111SAPE  H17S11546   4.168   1.891   4.077 -0.1988 -0.7897  1.8035
  111SAPE  C21811547   4.060   1.953   4.244  0.4158 -0.9005  0.3382
  111SAPE  H18R11548   4.158   1.966   4.294  0.9738  2.2388 -1.3390
  111SAPE  H18S11549   4.020   1.854   4.274 -2.0192 -0.3600 -0.8268
  111SAPE  C21911550   3.978   2.071   4.299 -0.2700 -0.3759 -0.0057
  111SAPE  H19R11551   3.869   2.056   4.281 -0.0098 -1.0713 -1.0829
  111SAPE  H19S11552   4.019   2.164   4.255  1.2321 -0.2479  1.5796
  111SAPE  C22011553   3.989   2.095   4.446  0.5172  0.4526 -0.1622
  111SAPE  H20R11554   3.979   2.003   4.507  2.3148 -0.1239 -0.6811
  111SAPE  H20S11555   3.921   2.178   4.476  0.9014  2.6704 -4.5909
  111SAPE  H20T11556   4.093   2.128   4.469  0.4725  0.2910  0.2597
  111SAPE   C3311557   4.558   1.686   3.126  0.3230  0.2718  0.3332
  111SAPE   H3X11558   4.643   1.621   3.094 -0.5970 -1.4796  1.3070
  111SAPE   H3Y11559   4.471   1.620   3.145 -1.7186  1.9406 -2.5374
  111SAPE   C3411560   4.610   1.755   3.255 -0.1869 -0.2502 -0.0953
  111SAPE   H4X11561   4.527   1.826   3.271 -2.4255 -1.5226 -4.2927
  111SAPE   H4Y11562   4.710   1.799   3.236 -0.5100  0.8929  0.7710
  111SAPE   C3511563   4.620   1.665   3.380 -0.4757 -0.0318 -0.6351
  111SAPE   H5X11564   4.671   1.569   3.357 -0.3192 -0.2117  0.4388
  111SAPE   H5Y11565   4.512   1.643   3.394 -0.8042  2.1570  0.6531
  111SAPE   C3611566   4.672   1.728   3.505 -0.1032 -0.6684  0.0556
  111SAPE   H6X11567   4.633   1.831   3.518  0.3584 -0.5737  0.8208
  111SAPE   H6Y11568   4.779   1.750   3.483 -0.9696  2.2735 -1.7633
  111SAPE   C3711569   4.639   1.655   3.635 -0.3714 -0.3945  0.0271
  111SAPE   H7X11570   4.688   1.556   3.620 -0.2446 -0.6436  1.8157
  111SAPE   H7Y11571   4.530   1.636   3.636 -0.4134 -0.1437  0.8596
  111SAPE   C3811572   4.701   1.723   3.762  0.1229  0.0917  0.9754
  111SAPE   H8X11573   4.668   1.827   3.742  3.9933  1.3728  0.3979
  111SAPE   H8Y11574   4.810   1.709   3.743 -0.0852 -0.2044 -0.0824
  111SAPE   C3911575   4.660   1.670   3.902  0.1421  0.1036 -0.5997
  111SAPE   H9X11576   4.717   1.724   3.980  0.4891 -2.1270  0.7761
  111SAPE   H9Y11577   4.682   1.562   3.913 -1.6112 -0.4400 -1.9297
  111SAPE  C31011578   4.508   1.682   3.930  0.5024 -0.2665 -0.3494
  111SAPE  H10X11579   4.460   1.601   3.869  0.3957 -0.6797  0.2714
  111SAPE  H10Y11580   4.483   1.782   3.889  0.7639  0.1563  0.5092
  111SAPE  C31111581   4.449   1.683   4.079  0.0047  0.1048  0.7932
  111SAPE  H11X11582   4.500   1.597   4.129 -1.4382 -1.8284 -0.9252
  111SAPE  H11Y11583   4.340   1.664   4.078  0.4808 -3.3228 -0.8780
  111SAPE  C31211584   4.459   1.825   4.147  0.0117 -0.4933 -0.0871
  111SAPE  H12X11585   4.374   1.834   4.217  2.2508  1.1443  2.6046
  111SAPE  H12Y11586   4.435   1.904   4.072  1.3336 -0.6101 -0.6646
  111SAPE  C31311587   4.583   1.861   4.225  0.2378 -0.2832 -0.5974
  111SAPE  H13X11588   4.566   1.948   4.292  1.9109  0.2960 -0.8844
  111SAPE  H13Y11589   4.654   1.895   4.146 -0.8649  1.5254 -0.8701
  111SAPE  C31411590   4.635   1.750   4.319 -0.2221  0.2411 -0.0172
  111SAPE  H14X11591   4.675   1.656   4.275 -1.8366  0.1413 -1.3722
  111SAPE  H14Y11592   4.554   1.719   4.388 -0.8699 -0.3712 -1.0217
  111SAPE  C31511593   4.734   1.816   4.420  0.1945  0.3537  0.6861
  111SAPE  H15X11594   4.715   1.924   4.433  3.1247  0.8928  1.1259
  111SAPE  H15Y11595   4.830   1.812   4.364  1.4045  0.8908  2.6241
  111SAPE  C31611596   4.730   1.752   4.558 -0.4399  0.3283 -0.1392
  111SAPE  H16X11597   4.629   1.771   4.600 -0.7197  1.4998 -1.2441
  111SAPE  H16Y11598   4.809   1.804   4.616 -0.9550  0.1238  0.7582
  111SAPE  C31711599   4.756   1.604   4.547 -0.0840  0.3697 -0.1020
  111SAPE  H17X11600   4.770   1.573   4.441  1.5341  2.0947 -0.4505
  111SAPE  H17Y11601   4.665   1.548   4.577 -0.0971  0.2600 -0.3476
  111SAPE  C31811602   4.874   1.569   4.627 -0.5308  0.0435  0.2314
  111SAPE  H18X11603   4.886   1.459   4.633 -0.9772 -0.0143  0.1151
  111SAPE  H18Y11604   4.870   1.609   4.730  1.5115 -0.1251  0.4127
  111SAPE  H18Z11605   4.964   1.613   4.578 -0.0954  0.7493  1.6157
  112SAPE     N11606   5.789   0.248   2.316  0.2483 -0.0100  0.6117
  112SAPE   HN111607   5.803   0.185   2.397 -0.8090 -1.1371 -0.0284
  112SAPE   HN211608   5.744   0.337   2.345  0.9099  0.6906 -0.4236
  112SAPE   HN311609   5.725   0.193   2.255  2.4536 -3.3388  1.0171
  112SAPE   C1211610   5.911   0.287   2.249 -0.4053  0.0193  0.1065
  112SAPE  H12A11611   5.883   0.377   2.189 -1.0088 -0.7484 -0.8011
  112SAPE  H12B11612   5.938   0.206   2.177 -1.2767 -0.7431  0.6254
  112SAPE   C1111613   6.029   0.320   2.340  0.0987  0.0836  0.0633
  112SAPE  H11A11614   6.119   0.339   2.277  0.1082 -1.6985 -0.4916
  112SAPE  H11B11615   6.044   0.234   2.408 -1.7036  0.6171  1.1983
  112SAPE     P11616   6.092   0.453   2.558  0.1762  0.1787 -0.2977
  112SAPE   O1311617   6.069   0.590   2.612 -0.5490  0.8440 -0.2481
  112SAPE   O1411618   6.058   0.342   2.651 -0.0534 -0.1018 -0.0868
  112SAPE   O1211619   6.008   0.433   2.425  0.5078  0.0980  0.2202
  112SAPE   O1111620   6.243   0.451   2.511  0.2142 -0.8103  0.3342
  112SAPE    C111621   6.341   0.375   2.580  0.2554 -0.4984  0.1941
  112SAPE    HA11622   6.306   0.273   2.607  4.0215 -1.8031  0.8440
  112SAPE    HB11623   6.435   0.372   2.520 -0.3883  1.5072 -1.0102
  112SAPE    C211624   6.392   0.455   2.705 -0.0206  0.2421  1.1254
  112SAPE    HS11625   6.496   0.422   2.728  0.8497  2.8134  1.1296
  112SAPE   O2111626   6.309   0.439   2.821  0.6267  0.1194  0.0775
  112SAPE   C2111627   6.308   0.317   2.883 -0.0122  1.3718  0.0548
  112SAPE   O2211628   6.369   0.222   2.835  0.0306 -0.8326  0.1681
  112SAPE   C2211629   6.224   0.316   3.009  0.1353  0.7007 -0.0729
  112SAPE   H2R11630   6.273   0.378   3.086  3.0176  1.1107 -2.0817
  112SAPE   H2S11631   6.127   0.353   2.968 -0.0996  1.1063  0.8088
  112SAPE    C311632   6.410   0.602   2.662  0.2702 -0.8086  0.5164
  112SAPE    HX11633   6.312   0.651   2.648  0.2889 -0.8538  0.2144
  112SAPE    HY11634   6.462   0.593   2.564 -2.1507 -2.4065 -0.7295
  112SAPE   O3111635   6.486   0.678   2.765  0.6904 -0.4133 -0.3560
  112SAPE   C3111636   6.503   0.813   2.731  0.8270  0.4020  0.0753
  112SAPE   O3211637   6.475   0.861   2.624  0.2348 -0.5283  0.4523
  112SAPE   C3211638   6.581   0.884   2.841  0.1274  0.4460  0.5745
  112SAPE   H2X11639   6.551   0.991   2.846  0.3414  0.6454 -1.4392
  112SAPE   H2Y11640   6.690   0.871   2.826  0.3483 -0.7664  2.9040
  112SAPE   C2311641   6.182   0.174   3.070 -0.5086 -0.2805 -0.4077
  112SAPE   H3R11642   6.269   0.133   3.125 -1.4134 -0.5309  0.8771
  112SAPE   H3S11643   6.151   0.103   2.990 -0.4832 -0.6217 -0.1159
  112SAPE   C2411644   6.057   0.190   3.163 -0.2018 -0.0935  0.6376
  112SAPE   H4R11645   6.037   0.086   3.198  0.5887 -0.4771 -0.0078
  112SAPE   H4S11646   5.965   0.214   3.107 -1.9667 -0.9131  2.9888
  112SAPE   C2511647   6.069   0.301   3.260  0.7603 -0.5373 -0.7938
  112SAPE   H5R11648   6.071   0.403   3.221  0.2449  0.4224  1.5231
  112SAPE   C2611649   6.065   0.283   3.393  0.9553 -0.5221  0.2223
  112SAPE   H6R11650   6.071   0.365   3.466  3.3735 -0.0372 -0.4308
  112SAPE   C2711651   6.058   0.149   3.460  0.4781  0.5797 -0.0766
  112SAPE   H7R11652   6.133   0.084   3.409  1.1204  0.4108  1.0437
  112SAPE   H7S11653   5.962   0.092   3.460 -1.4232  3.5831 -0.8317
  112SAPE   C2811654   6.114   0.156   3.600  0.0102 -0.1917  0.0635
  112SAPE   H8R11655   6.224   0.165   3.607 -0.1755  3.6622  0.1541
  112SAPE   C2911656   6.044   0.147   3.718  0.4574 -0.0417  0.4272
  112SAPE   H9R11657   6.099   0.157   3.812  2.6988 -1.1509 -0.6897
  112SAPE  C21011658   5.892   0.134   3.743  0.1636  0.5585 -0.0700
  112SAPE  H10R11659   5.846   0.080   3.658  0.8753  0.0912 -0.1717
  112SAPE  H10S11660   5.850   0.237   3.745  0.6782  0.8054 -1.1886
  112SAPE  C21111661   5.855   0.068   3.874 -0.7092  0.4232  0.2341
  112SAPE  H11R11662   5.789  -0.014   3.844  1.0721 -0.5449 -1.3015
  112SAPE  C21211663   5.898   0.092   4.001 -0.2582  0.1339 -0.2637
  112SAPE  H12R11664   5.852   0.033   4.081  0.3580  1.8363  1.4412
  112SAPE  C21311665   5.994   0.207   4.046  0.0721 -0.1221  0.5516
  112SAPE  H13R11666   6.001   0.280   3.963  0.4107 -1.4789 -0.6587
  112SAPE  H13S11667   6.096   0.165   4.061  1.0505  1.5268 -1.1197
  112SAPE  C21411668   5.946   0.273   4.179 -0.2855 -0.5161  0.8063
  112SAPE  H14R11669   5.869   0.350   4.166  1.4729  1.3035  0.6172
  112SAPE  C21511670   6.013   0.254   4.295 -0.9695  0.0291  0.0446
  112SAPE  H15R11671   5.977   0.307   4.384  1.2509  2.0155 -0.1603
  112SAPE  C21611672   6.139   0.171   4.327  0.5469 -0.7711 -0.0267
  112SAPE  H16R11673   6.168   0.184   4.433  0.6910  1.2633 -0.2812
  112SAPE  H16S11674   6.222   0.188   4.255  1.3209 -2.0970  0.5115
  112SAPE  C21711675   6.100   0.017   4.308 -0.3080  0.0067 -0.5868
  112SAPE  H17R11676   6.183  -0.049   4.342 -1.1569 -0.7260  0.1256
  112SAPE  H17S11677   6.073  -0.001   4.202  0.6779  2.8080 -1.4066
  112SAPE  C21811678   5.988  -0.026   4.401  0.2740 -0.9215 -0.2612
  112SAPE  H18R11679   5.888   0.019   4.383  0.2659 -0.7065  0.3318
  112SAPE  H18S11680   6.021   0.002   4.502  0.0244 -0.7203 -0.2345
  112SAPE  C21911681   5.976  -0.179   4.395  0.3194  0.5682 -0.1330
  112SAPE  H19R11682   5.895  -0.220   4.459 -0.1216 -0.1357 -1.1228
  112SAPE  H19S11683   6.069  -0.222   4.437 -0.5663 -0.2472  1.0265
  112SAPE  C22011684   5.935  -0.251   4.265 -0.0924 -0.7118 -0.8514
  112SAPE  H20R11685   6.017  -0.235   4.191  2.6868  0.0070  2.1283
  112SAPE  H20S11686   5.840  -0.205   4.230 -0.0048  0.0031 -0.1924
  112SAPE  H20T11687   5.913  -0.358   4.287 -2.9932  0.3000  1.9672
  112SAPE   C3311688   6.563   0.820   2.981  0.2728 -0.1854  0.2673
  112SAPE   H3X11689   6.635   0.851   3.060 -0.5758  1.2269  0.5175
  112SAPE   H3Y11690   6.569   0.709   2.975  0.1413 -0.2505  1.1123
  112SAPE   C3411691   6.424   0.849   3.038  0.5367 -0.5716 -0.3905
  112SAPE   H4X11692   6.353   0.796   2.971 -0.0390  3.1782 -3.1423
  112SAPE   H4Y11693   6.389   0.952   3.014 -0.9701 -1.6486 -3.4458
  112SAPE   C3511694   6.406   0.832   3.187  0.3752  0.3361  0.3416
  112SAPE   H5X11695   6.308   0.875   3.218  2.1227  2.9924  2.7269
  112SAPE   H5Y11696   6.484   0.895   3.233 -0.5568  1.2038  0.7876
  112SAPE   C3611697   6.417   0.692   3.235  0.4623 -0.0005  0.8389
  112SAPE   H6X11698   6.523   0.658   3.226 -0.2131 -2.4949  1.5950
  112SAPE   H6Y11699   6.346   0.637   3.170 -2.0937  2.5331  1.2849
  112SAPE   C3711700   6.384   0.685   3.384 -0.6112 -0.1613  0.5331
  112SAPE   H7X11701   6.273   0.684   3.390 -0.8031  1.2070 -1.6306
  112SAPE   H7Y11702   6.432   0.771   3.434  2.1577  0.4221 -2.7246
  112SAPE   C3811703   6.437   0.561   3.453  0.8530  0.0854 -0.7262
  112SAPE   H8X11704   6.546   0.548   3.435  1.0494 -2.6522  1.6177
  112SAPE   H8Y11705   6.383   0.471   3.418  0.8139 -0.2188  0.1000
  112SAPE   C3911706   6.418   0.552   3.606 -0.4606 -0.5265  1.1492
  112SAPE   H9X11707   6.473   0.636   3.653 -1.9660 -0.0833  2.1832
  112SAPE   H9Y11708   6.466   0.461   3.649  0.3342  0.0756  1.5694
  112SAPE  C31011709   6.275   0.553   3.656  0.0466  0.0847 -0.3890
  112SAPE  H10X11710   6.201   0.511   3.584 -0.4445  0.9315 -0.4048
  112SAPE  H10Y11711   6.242   0.658   3.675  1.2944  0.4398 -0.0653
  112SAPE  C31111712   6.247   0.488   3.788 -0.3387 -0.1900  0.0988
  112SAPE  H11X11713   6.271   0.380   3.782  0.2374  0.0096 -2.2327
  112SAPE  H11Y11714   6.143   0.501   3.825 -0.0011 -1.3897  1.5451
  112SAPE  C31211715   6.334   0.549   3.901  0.1513  0.2138 -1.0229
  112SAPE  H12X11716   6.308   0.657   3.912  0.5505  0.2776 -0.6984
  112SAPE  H12Y11717   6.444   0.549   3.888  0.4876 -1.7259  1.1544
  112SAPE  C31311718   6.311   0.471   4.035  0.2587 -0.8279 -0.1458
  112SAPE  H13X11719   6.345   0.366   4.020 -0.4886 -0.8179 -2.3388
  112SAPE  H13Y11720   6.202   0.455   4.050  0.3579 -3.4240 -1.5591
  112SAPE  C31411721   6.384   0.548   4.138  0.3195  0.4603 -0.0035
  112SAPE  H14X11722   6.351   0.654   4.145 -0.7298  0.4630 -3.1703
  112SAPE  H14Y11723   6.491   0.533   4.113  0.3914  0.0912  0.5121
  112SAPE  C31511724   6.373   0.484   4.279 -0.0476  0.1126  0.7005
  112SAPE  H15X11725   6.464   0.528   4.324  1.7184  0.8738 -3.2520
  112SAPE  H15Y11726   6.370   0.374   4.267  2.7538  0.1328 -0.9626
  112SAPE  C31611727   6.263   0.539   4.362 -0.6193  0.4846 -0.3515
  112SAPE  H16X11728   6.169   0.513   4.309  0.3554 -2.5486 -0.7943
  112SAPE  H16Y11729   6.270   0.649   4.368  2.1619  0.5328 -2.5290
  112SAPE  C31711730   6.263   0.478   4.509  0.4374 -0.0333  0.0928
  112SAPE  H17X11731   6.357   0.506   4.562 -0.1533  0.7219  0.7628
  112SAPE  H17Y11732   6.264   0.367   4.511  0.7637 -0.0218  0.6356
  112SAPE  C31811733   6.143   0.535   4.599 -0.2064 -0.2243 -0.4742
  112SAPE  H18X11734   6.135   0.644   4.581 -1.1890 -0.0742  0.7119
  112SAPE  H18Y11735   6.161   0.525   4.708  0.1239  1.7688 -0.3099
  112SAPE  H18Z11736   6.047   0.486   4.573  0.3360 -1.2508 -0.6060
  113SAPE     N11737   5.969   5.010   2.341 -0.4323 -0.0659 -0.1904
  113SAPE   HN111738   5.917   5.089   2.298  0.3802  1.5954  1.7047
  113SAPE   HN211739   5.975   5.046   2.439 -2.7974  0.1855 -0.0711
  113SAPE   HN311740   6.068   4.997   2.312  0.5762  0.4250  2.6884
  113SAPE   C1211741   5.887   4.878   2.332  0.1761 -0.0884 -0.0991
  113SAPE  H12A11742   5.915   4.829   2.237  1.7217  1.5563 -0.5330
  113SAPE  H12B11743   5.780   4.910   2.335  0.4285  0.8071 -0.3544
  113SAPE   C1111744   5.915   4.794   2.452  0.2036  1.2901  1.2071
  113SAPE  H11A11745   5.849   4.710   2.421  1.7505  0.5235 -0.1609
  113SAPE  H11B11746   5.876   4.828   2.550  0.1936  1.2556  1.2152
  113SAPE     P11747   6.092   4.632   2.540  0.0582  0.0178 -0.3136
  113SAPE   O1311748   5.975   4.548   2.563  0.1853  0.5358 -0.3692
  113SAPE   O1411749   6.211   4.570   2.471 -0.3904  0.1169 -0.2671
  113SAPE   O1211750   6.049   4.753   2.452 -0.3833  0.0874 -0.0621
  113SAPE   O1111751   6.133   4.687   2.682  0.7319 -0.2109 -0.0356
  113SAPE    C111752   6.223   4.787   2.704 -1.0888 -0.2628  0.3292
  113SAPE    HA11753   6.300   4.744   2.771 -2.4888  1.5061  3.2958
  113SAPE    HB11754   6.278   4.822   2.615  2.7219 -0.0362  2.5585
  113SAPE    C211755   6.161   4.909   2.779 -0.3897 -0.0318  0.3337
  113SAPE    HS11756   6.107   4.974   2.707  0.8347  0.1456 -0.4344
  113SAPE   O2111757   6.269   4.979   2.842 -0.1021  0.1363 -0.3649
  113SAPE   C2111758   6.245   5.113   2.866 -0.2727  0.2035 -1.1765
  113SAPE   O2211759   6.145   5.172   2.829  0.8641  0.4127 -0.4509
  113SAPE   C2211760   6.360   5.159   2.964 -0.4197  0.5364 -0.0361
  113SAPE   H2R11761   6.435   5.077   2.974 -0.6325  0.5345  1.8380
  113SAPE   H2S11762   6.393   5.248   2.906 -1.9885 -0.0677 -1.9465
  113SAPE    C311763   6.057   4.858   2.883 -0.1461  0.3324  0.4549
  113SAPE    HX11764   6.105   4.791   2.957  1.4365 -1.2100 -1.8263
  113SAPE    HY11765   5.970   4.805   2.840 -0.2685  0.7788  0.1403
  113SAPE   O3111766   5.993   4.959   2.962  0.1898 -0.2900 -0.7952
  113SAPE   C3111767   5.905   5.031   2.908  0.4547  0.6236 -0.0100
  113SAPE   O3211768   5.871   5.027   2.791 -0.3623 -0.5477  0.0410
  113SAPE   C3211769   5.843   5.120   3.019  0.0621 -0.0968 -0.2031
  113SAPE   H2X11770   5.846   5.225   2.983 -1.9421  0.1288  0.1790
  113SAPE   H2Y11771   5.907   5.121   3.109 -0.2503  1.4767  0.0400
  113SAPE   C2311772   6.307   5.209   3.103  0.4945 -0.1513  0.5640
  113SAPE   H3R11773   6.211   5.259   3.078  0.0078 -0.6578  1.4086
  113SAPE   H3S11774   6.373   5.284   3.151 -0.6325  0.3705  1.3415
  113SAPE   C2411775   6.277   5.093   3.191 -0.3911  0.0132 -1.3206
  113SAPE   H4R11776   6.368   5.029   3.200 -0.7051 -0.2497  0.3940
  113SAPE   H4S11777   6.207   5.022   3.142 -1.4844 -2.4383  3.1724
  113SAPE   C2511778   6.233   5.129   3.329 -0.5024 -0.6272  0.9886
  113SAPE   H5R11779   6.301   5.201   3.377 -0.1242  0.0471 -0.5221
  113SAPE   C2611780   6.136   5.067   3.397 -0.2950  0.0671  0.4963
  113SAPE   H6R11781   6.114   5.090   3.502 -0.3790  2.1988  0.0429
  113SAPE   C2711782   6.039   4.961   3.345  0.2500 -1.1430  0.9243
  113SAPE   H7R11783   6.091   4.912   3.260  0.4926  3.3325 -1.8439
  113SAPE   H7S11784   5.959   5.021   3.295 -0.2149 -2.1215  0.4593
  113SAPE   C2811785   5.993   4.848   3.432  0.0158  0.0280 -0.1716
  113SAPE   H8R11786   6.078   4.794   3.475  0.1908 -1.4894 -2.2691
  113SAPE   C2911787   5.869   4.803   3.451  0.2415  0.0731 -0.3291
  113SAPE   H9R11788   5.866   4.708   3.507 -1.2457  0.2070 -0.1616
  113SAPE  C21011789   5.736   4.852   3.391  0.2331  0.1453 -0.2123
  113SAPE  H10R11790   5.731   4.803   3.292  1.9744 -0.9172  0.1914
  113SAPE  H10S11791   5.747   4.957   3.357 -1.4630  0.5823  0.4787
  113SAPE  C21111792   5.608   4.830   3.480 -0.2585 -0.1220  0.6307
  113SAPE  H11R11793   5.633   4.836   3.587  1.4285 -1.1295  0.3200
  113SAPE  C21211794   5.488   4.798   3.438 -0.0102 -0.1564  0.0119
  113SAPE  H12R11795   5.420   4.775   3.521  0.9528 -0.2496  0.7913
  113SAPE  C21311796   5.444   4.786   3.294  0.1336 -0.7791  0.2707
  113SAPE  H13R11797   5.524   4.791   3.218 -0.9973 -0.6684 -0.9576
  113SAPE  H13S11798   5.377   4.873   3.276 -0.0094 -0.3035  2.7900
  113SAPE  C21411799   5.372   4.660   3.271 -0.0538 -0.1970 -0.2303
  113SAPE  H14R11800   5.424   4.566   3.294 -0.6594 -0.3677  0.4866
  113SAPE  C21511801   5.251   4.650   3.213 -0.3263  0.0287  0.4983
  113SAPE  H15R11802   5.218   4.552   3.175 -0.8411  0.2690  0.3147
  113SAPE  C21611803   5.168   4.770   3.159 -0.4893 -0.7279 -0.3250
  113SAPE  H16R11804   5.227   4.859   3.128 -0.7348  0.2057  1.6911
  113SAPE  H16S11805   5.114   4.803   3.250 -0.5644 -0.5572 -0.4308
  113SAPE  C21711806   5.061   4.735   3.060 -0.2063 -0.3573 -0.2998
  113SAPE  H17R11807   4.987   4.673   3.114 -0.8264  0.4465 -0.2176
  113SAPE  H17S11808   5.097   4.674   2.974  0.6153  0.9484 -0.9158
  113SAPE  C21811809   4.987   4.857   3.002 -0.7074 -0.1221  0.3444
  113SAPE  H18R11810   4.926   4.825   2.914 -0.0080 -2.7289  0.7175
  113SAPE  H18S11811   5.067   4.923   2.962  0.6820 -1.3900  0.9407
  113SAPE  C21911812   4.892   4.948   3.087 -0.9153 -0.2932  0.3489
  113SAPE  H19R11813   4.878   5.047   3.038 -0.3587 -0.6318 -0.5332
  113SAPE  H19S11814   4.936   4.968   3.187 -0.0420  1.3124 -0.3214
  113SAPE  C22011815   4.749   4.889   3.102 -0.1712  0.2155 -0.1569
  113SAPE  H20R11816   4.699   4.895   3.003 -1.2603 -0.0056  0.3648
  113SAPE  H20S11817   4.693   4.948   3.177 -1.2332 -0.6895 -0.2113
  113SAPE  H20T11818   4.758   4.783   3.135  0.9756  0.4513  0.3338
  113SAPE   C3311819   5.707   5.078   3.071 -0.2173  0.9239 -0.2709
  113SAPE   H3X11820   5.679   5.144   3.156  1.1133  1.4237 -0.2069
  113SAPE   H3Y11821   5.710   4.975   3.114  0.9566  1.1405  0.1898
  113SAPE   C3411822   5.603   5.090   2.964 -0.0393  0.0085 -0.6156
  113SAPE   H4X11823   5.601   5.009   2.888  0.6995  0.5302 -1.2060
  113SAPE   H4Y11824   5.602   5.188   2.911 -1.9715 -0.1070 -0.9006
  113SAPE   C3511825   5.465   5.064   3.029  0.4853 -0.7117  0.3765
  113SAPE   H5X11826   5.480   4.983   3.104  2.9206  2.2976  3.4563
  113SAPE   H5Y11827   5.397   5.039   2.945 -0.6569 -0.9336  1.3341
  113SAPE   C3611828   5.407   5.188   3.116  0.2981  0.3137  0.2263
  113SAPE   H6X11829   5.397   5.270   3.042 -2.9938 -1.4390 -1.5100
  113SAPE   H6Y11830   5.482   5.223   3.190  0.9814  0.5889 -0.5746
  113SAPE   C3711831   5.273   5.146   3.175 -0.2369 -0.1222  0.1141
  113SAPE   H7X11832   5.278   5.069   3.255 -1.4778 -1.2400 -0.8297
  113SAPE   H7Y11833   5.205   5.112   3.094 -0.7409  3.7032 -1.2741
  113SAPE   C3811834   5.199   5.268   3.242  0.4598 -0.2003 -0.1320
  113SAPE   H8X11835   5.261   5.301   3.328  2.6117  0.4827 -1.8387
  113SAPE   H8Y11836   5.193   5.357   3.176 -2.3945 -1.3720 -1.6232
  113SAPE   C3911837   5.065   5.220   3.299 -0.1095  0.4940  0.2322
  113SAPE   H9X11838   5.076   5.144   3.379 -0.4743 -3.0194 -2.8117
  113SAPE   H9Y11839   4.998   5.165   3.230  0.2537 -0.2700  0.4791
  113SAPE  C31011840   4.991   5.341   3.356  0.1129 -0.4275 -0.5247
  113SAPE  H10X11841   4.986   5.427   3.287 -1.9062  1.0497  1.3380
  113SAPE  H10Y11842   5.045   5.380   3.445 -0.3846 -0.9352  0.0111
  113SAPE  C31111843   4.855   5.306   3.404  0.2204 -0.3220  0.2806
  113SAPE  H11X11844   4.795   5.276   3.316 -1.0283  2.3623  0.1354
  113SAPE  H11Y11845   4.811   5.394   3.454  0.5700 -0.5134  0.9407
  113SAPE  C31211846   4.847   5.208   3.518  0.4651  0.3129 -0.4340
  113SAPE  H12X11847   4.880   5.267   3.606  1.3268  0.1908 -0.6713
  113SAPE  H12Y11848   4.907   5.115   3.512 -3.3585 -2.3423 -0.7716
  113SAPE  C31311849   4.700   5.157   3.534  0.1142 -0.9865 -0.4991
  113SAPE  H13X11850   4.673   5.095   3.446  0.4132  0.0434 -1.3293
  113SAPE  H13Y11851   4.628   5.240   3.547  0.6270 -0.6217  0.0652
  113SAPE  C31411852   4.678   5.067   3.661  0.5524  0.1576  0.0612
  113SAPE  H14X11853   4.725   5.108   3.753 -1.1722  1.0864  0.5826
  113SAPE  H14Y11854   4.732   4.971   3.649  0.4534  0.0071  0.7525
  113SAPE  C31511855   4.531   5.050   3.697 -0.9357  0.6048 -0.4617
  113SAPE  H15X11856   4.500   5.154   3.717  0.8767  1.2490 -0.8026
  113SAPE  H15Y11857   4.522   4.991   3.791  0.0475  1.2935  0.0859
  113SAPE  C31611858   4.436   5.000   3.586 -0.8703 -0.3469  0.4932
  113SAPE  H16X11859   4.455   4.892   3.570 -0.9567 -0.0667 -1.7639
  113SAPE  H16Y11860   4.478   5.039   3.491 -3.1360 -0.4000 -0.5982
  113SAPE  C31711861   4.286   5.032   3.584  0.6246 -0.0620  0.1395
  113SAPE  H17X11862   4.243   4.997   3.680 -2.2415 -1.1193 -1.4324
  113SAPE  H17Y11863   4.221   4.980   3.510 -1.0362  0.1581  1.3834
  113SAPE  C31811864   4.261   5.185   3.590  0.3884  0.7714 -0.3710
  113SAPE  H18X11865   4.298   5.236   3.681 -5.6817  0.7925  2.5586
  113SAPE  H18Y11866   4.152   5.209   3.596  0.2269 -0.1533  0.6718
  113SAPE  H18Z11867   4.313   5.239   3.508  2.2972 -0.0605  0.2468
  114SAPE     N11868   4.015   4.361   2.442  0.2492  0.2181 -0.1413
  114SAPE   HN111869   3.912   4.363   2.430  0.2821  0.2210 -0.4188
  114SAPE   HN211870   4.057   4.454   2.424  1.7137 -0.7286 -1.9349
  114SAPE   HN311871   4.049   4.301   2.364 -0.2843 -0.5041  0.1674
  114SAPE   C1211872   4.065   4.316   2.577 -0.2478  0.2655 -0.5393
  114SAPE  H12A11873   4.165   4.362   2.589  0.6815 -2.1030  1.9609
  114SAPE  H12B11874   4.070   4.205   2.586 -2.2709  0.2050  0.3656
  114SAPE   C1111875   3.989   4.375   2.705  0.5764 -0.5542 -0.4104
  114SAPE  H11A11876   4.021   4.314   2.792 -0.7738  0.9868  1.2613
  114SAPE  H11B11877   3.881   4.350   2.704  0.6442 -1.0220  1.0798
  114SAPE     P11878   3.913   4.631   2.684 -0.7874 -0.1600 -0.1557
  114SAPE   O1311879   3.984   4.757   2.695  0.2555 -0.6824  0.0149
  114SAPE   O1411880   3.857   4.589   2.558 -0.1707 -0.5934 -0.5737
  114SAPE   O1211881   4.013   4.517   2.714 -0.5150  0.0822 -0.0625
  114SAPE   O1111882   3.810   4.597   2.804 -0.8095  0.1064  0.4224
  114SAPE    C111883   3.870   4.584   2.934 -0.2086  0.5592 -0.0503
  114SAPE    HA11884   3.924   4.487   2.938 -0.5775  0.3642  0.2709
  114SAPE    HB11885   3.940   4.667   2.959  1.5534 -0.6264 -0.8128
  114SAPE    C211886   3.757   4.585   3.042  0.2131 -0.0572  0.3428
  114SAPE    HS11887   3.689   4.503   3.010  2.0721 -1.7523  0.5467
  114SAPE   O2111888   3.693   4.715   3.032  0.0424 -0.2507 -0.1068
  114SAPE   C2111889   3.568   4.713   3.067  0.4634  0.3832 -0.2557
  114SAPE   O2211890   3.497   4.614   3.094 -0.4216  0.5195  0.3352
  114SAPE   C2211891   3.517   4.860   3.091 -0.0519  0.3986  0.1527
  114SAPE   H2R11892   3.602   4.918   3.134  1.2546  0.3122 -2.1333
  114SAPE   H2S11893   3.494   4.901   2.991  1.1145 -2.4701 -1.4247
  114SAPE    C311894   3.813   4.554   3.184  0.0180 -0.2970  0.4435
  114SAPE    HX11895   3.908   4.612   3.195 -0.6852  0.6427  1.8273
  114SAPE    HY11896   3.845   4.448   3.189 -0.3812 -0.3544  2.1623
  114SAPE   O3111897   3.734   4.601   3.293  0.0442  0.0919 -0.1392
  114SAPE   C3111898   3.692   4.502   3.371  0.5714  0.2988  0.6345
  114SAPE   O3211899   3.699   4.381   3.352 -0.2568 -0.5913 -0.4249
  114SAPE   C3211900   3.625   4.561   3.494 -0.4031 -0.4027  0.0983
  114SAPE   H2X11901   3.518   4.544   3.472 -0.5078  1.6986 -1.3830
  114SAPE   H2Y11902   3.637   4.672   3.497  0.8204 -0.2209 -4.1344
  114SAPE   C2311903   3.407   4.853   3.199 -0.0901  0.1215 -0.2335
  114SAPE   H3R11904   3.455   4.803   3.286 -0.6867  2.3044  1.4509
  114SAPE   H3S11905   3.314   4.796   3.176 -0.2284 -0.5672  1.7799
  114SAPE   C2411906   3.362   4.991   3.254 -0.1145  0.0442  0.6174
  114SAPE   H4R11907   3.274   4.960   3.315  0.2031 -0.2327  0.9443
  114SAPE   H4S11908   3.328   5.045   3.163  2.3141  1.1390  0.2815
  114SAPE   C2511909   3.470   5.071   3.322  0.0047  0.0361  0.1261
  114SAPE   H5R11910   3.527   5.129   3.248 -0.9384  1.4709  0.4757
  114SAPE   C2611911   3.490   5.109   3.450  0.4101 -0.2818  0.4393
  114SAPE   H6R11912   3.567   5.186   3.469  0.1559  0.0567  0.1254
  114SAPE   C2711913   3.413   5.060   3.572 -0.3873  0.7123 -0.3021
  114SAPE   H7R11914   3.469   4.984   3.631 -0.7904 -0.1834 -1.0443
  114SAPE   H7S11915   3.317   5.013   3.541 -0.2992  0.4476 -0.1747
  114SAPE   C2811916   3.382   5.176   3.661 -0.3641 -0.5600  0.0191
  114SAPE   H8R11917   3.463   5.250   3.661 -1.3874  0.6124 -0.9978
  114SAPE   C2911918   3.270   5.205   3.734  0.1063  0.2563  0.3904
  114SAPE   H9R11919   3.283   5.296   3.794  0.8687  0.1215  0.4483
  114SAPE  C21011920   3.152   5.118   3.754  0.3300 -0.4209 -0.2530
  114SAPE  H10R11921   3.192   5.035   3.817  2.1164  1.4970  1.2788
  114SAPE  H10S11922   3.120   5.069   3.659  3.4550 -0.3623 -1.4389
  114SAPE  C21111923   3.045   5.192   3.834  0.0824  0.8390 -0.2794
  114SAPE  H11R11924   3.029   5.296   3.802 -1.9137 -0.1436 -2.7758
  114SAPE  C21211925   2.969   5.144   3.936  0.4367 -0.5892  0.6894
  114SAPE  H12R11926   2.887   5.210   3.967  1.2589  0.8654 -0.0920
  114SAPE  C21311927   2.973   5.008   3.989 -0.0669 -0.8289 -0.1280
  114SAPE  H13R11928   3.077   4.973   3.969 -0.1614 -0.8744 -0.5475
  114SAPE  H13S11929   2.912   4.938   3.928 -0.9221  0.4991 -0.8516
  114SAPE  C21411930   2.934   4.980   4.130 -0.3789 -0.0929  0.4488
  114SAPE  H14R11931   2.830   4.947   4.141  0.0591 -1.3399  1.0625
  114SAPE  C21511932   2.997   5.028   4.244 -0.4323  0.6087  0.1394
  114SAPE  H15R11933   2.971   5.004   4.348  1.6166 -0.1110  0.5354
  114SAPE  C21611934   3.117   5.111   4.235  0.9230 -0.1171 -0.5043
  114SAPE  H16R11935   3.108   5.201   4.300  0.0566 -0.2558 -0.4137
  114SAPE  H16S11936   3.133   5.158   4.136  0.2172  0.1221 -0.5100
  114SAPE  C21711937   3.247   5.032   4.279  0.6899  0.1439 -0.7433
  114SAPE  H17R11938   3.249   4.923   4.260 -2.0923 -0.0487 -0.4039
  114SAPE  H17S11939   3.245   5.027   4.390  0.7301 -0.3716 -0.7632
  114SAPE  C21811940   3.378   5.093   4.227 -0.3897 -0.2591  0.0231
  114SAPE  H18R11941   3.463   5.062   4.292  1.2999  3.8582  0.0900
  114SAPE  H18S11942   3.380   5.203   4.243 -0.9952 -0.5447  2.5965
  114SAPE  C21911943   3.402   5.067   4.076  0.0558 -0.2866 -0.6292
  114SAPE  H19R11944   3.322   5.108   4.010 -0.2626 -0.2040 -0.1992
  114SAPE  H19S11945   3.393   4.959   4.053  1.4437 -0.7265  0.7577
  114SAPE  C22011946   3.542   5.108   4.020  0.0596 -0.0848  0.2142
  114SAPE  H20R11947   3.623   5.046   4.064  0.1967  0.1603  0.3116
  114SAPE  H20S11948   3.554   5.209   4.064 -0.8813 -0.2755  0.9328
  114SAPE  H20T11949   3.546   5.097   3.909 -1.1600 -2.5980  0.3608
  114SAPE   C3311950   3.663   4.488   3.623 -0.0484 -0.0701 -0.1350
  114SAPE   H3X11951   3.673   4.378   3.611  1.2759 -0.7715  4.8302
  114SAPE   H3Y11952   3.578   4.512   3.691  0.3986 -1.6500  1.0736
  114SAPE   C3411953   3.792   4.550   3.676 -0.3271 -0.5887 -0.6127
  114SAPE   H4X11954   3.769   4.658   3.687 -1.2435 -0.9896  1.9575
  114SAPE   H4Y11955   3.866   4.531   3.595 -2.9816  1.6911 -3.8357
  114SAPE   C3511956   3.840   4.495   3.811 -0.7345 -0.4311 -0.2495
  114SAPE   H5X11957   3.859   4.386   3.799  2.5340  0.1141 -0.8801
  114SAPE   H5Y11958   3.758   4.505   3.886  0.4584 -2.0805  1.3773
  114SAPE   C3611959   3.963   4.551   3.889  0.1816  0.1809  0.3847
  114SAPE   H6X11960   3.947   4.658   3.915  0.7179  0.4091 -0.1915
  114SAPE   H6Y11961   4.055   4.550   3.827 -1.6776 -0.1405 -2.5652
  114SAPE   C3711962   3.989   4.485   4.024 -0.3913 -0.4245  0.5150
  114SAPE   H7X11963   4.001   4.375   4.016 -0.3868 -0.3727 -0.2869
  114SAPE   H7Y11964   3.909   4.504   4.099  0.3599  0.2554  1.1632
  114SAPE   C3811965   4.127   4.531   4.087 -0.7228 -0.1443  0.0137
  114SAPE   H8X11966   4.139   4.639   4.064 -1.2553  0.1238  0.9426
  114SAPE   H8Y11967   4.214   4.480   4.041  0.3774  0.8761  0.9221
  114SAPE   C3911968   4.136   4.513   4.248  0.3334 -0.3810 -0.0063
  114SAPE   H9X11969   4.059   4.583   4.289 -0.6691 -0.5238 -1.5763
  114SAPE   H9Y11970   4.223   4.570   4.286 -1.8210  3.1948  0.0816
  114SAPE  C31011971   4.131   4.378   4.320  0.0651  0.3142 -0.2169
  114SAPE  H10X11972   4.190   4.299   4.270 -2.1184 -2.6462  1.5651
  114SAPE  H10Y11973   4.027   4.344   4.303  1.0078 -2.6015 -0.6547
  114SAPE  C31111974   4.150   4.385   4.472 -0.2394  0.1853  0.4474
  114SAPE  H11X11975   4.241   4.442   4.502 -1.2022  2.6077 -0.9343
  114SAPE  H11Y11976   4.163   4.280   4.506 -1.8500 -0.6062 -1.1974
  114SAPE  C31211977   4.031   4.444   4.548  0.4055 -0.2075  0.0826
  114SAPE  H12X11978   3.938   4.397   4.509 -0.0987 -1.2592  2.3705
  114SAPE  H12Y11979   4.018   4.552   4.525  2.0377 -0.5230 -2.8853
  114SAPE  C31311980   4.032   4.414   4.700 -0.4737 -0.3427  0.0625
  114SAPE  H13X11981   4.136   4.434   4.734 -0.7671 -0.1017  0.8553
  114SAPE  H13Y11982   4.012   4.307   4.723 -0.8739 -0.1676  0.5552
  114SAPE  C31411983   3.937   4.492   4.795 -0.2014 -0.3019  0.1533
  114SAPE  H14X11984   3.965   4.600   4.783 -0.2673 -0.1424  1.3402
  114SAPE  H14Y11985   3.960   4.455   4.897 -0.2463 -0.2326  0.1888
  114SAPE  C31511986   3.785   4.480   4.757 -0.6560 -0.3016  0.2985
  114SAPE  H15X11987   3.753   4.382   4.799 -0.0673  0.8306  3.7502
  114SAPE  H15Y11988   3.773   4.496   4.648  2.9224 -2.8336 -0.6372
  114SAPE  C31611989   3.694   4.585   4.825 -0.3173  0.0060 -0.2663
  114SAPE  H16X11990   3.595   4.568   4.776 -0.6071 -0.0232  0.3093
  114SAPE  H16Y11991   3.723   4.690   4.805 -1.2296  0.1508 -0.9400
  114SAPE  C31711992   3.673   4.557   4.975  0.4896  0.0977 -0.6626
  114SAPE  H17X11993   3.769   4.590   5.020  1.8355 -2.5808 -1.3331
  114SAPE  H17Y11994   3.658   4.447   4.985 -0.1415  0.1226 -1.2844
  114SAPE  C31811995   3.549   4.627   5.042  0.0461 -0.8488 -0.1067
  114SAPE  H18X11996   3.531   4.587   5.144  2.0046  0.4756  0.8353
  114SAPE  H18Y11997   3.453   4.614   4.989  0.4561 -0.9271 -0.8519
  114SAPE  H18Z11998   3.571   4.736   5.051 -1.1603 -0.7606  2.6762
  115SAPE     N11999   3.766   2.130   2.675 -0.0600  0.0183  0.0970
  115SAPE   HN112000   3.762   2.026   2.671 -0.7143 -0.0317  1.6755
  115SAPE   HN212001   3.696   2.164   2.606 -1.8629 -2.5953  0.4874
  115SAPE   HN312002   3.862   2.156   2.644 -0.6400  0.5186 -1.3823
  115SAPE   C1212003   3.715   2.175   2.809  0.4933 -0.8114 -0.0092
  115SAPE  H12A12004   3.781   2.138   2.890  1.1554  1.9699  0.8351
  115SAPE  H12B12005   3.604   2.166   2.819  0.0854  1.8577 -1.1765
  115SAPE   C1112006   3.728   2.330   2.819  0.1988  0.5650 -0.3314
  115SAPE  H11A12007   3.832   2.347   2.854  0.3782  2.0857 -1.5280
  115SAPE  H11B12008   3.668   2.369   2.904  0.4729 -0.0087  0.1310
  115SAPE     P12009   3.577   2.448   2.649  0.1376 -0.1457 -0.4614
  115SAPE   O1312010   3.596   2.535   2.527 -0.3760 -0.1278 -0.0551
  115SAPE   O1412011   3.481   2.333   2.636 -0.8849 -0.5260 -0.1703
  115SAPE   O1212012   3.716   2.392   2.698  0.2735  0.8468  1.1983
  115SAPE   O1112013   3.528   2.537   2.767  0.2801 -0.1935  0.1627
  115SAPE    C112014   3.421   2.628   2.749  0.4985 -0.0213  0.4214
  115SAPE    HA12015   3.388   2.646   2.644 -2.6302 -2.2704  0.8693
  115SAPE    HB12016   3.332   2.590   2.804  0.3567  1.2139  1.0918
  115SAPE    C212017   3.464   2.761   2.820  0.8508  0.2491  0.4622
  115SAPE    HS12018   3.563   2.798   2.787  0.9800 -1.1983 -0.8627
  115SAPE   O2112019   3.444   2.743   2.964  0.4219  0.2952 -0.6645
  115SAPE   C2112020   3.547   2.694   3.030 -0.1401  0.0336 -0.2222
  115SAPE   O2212021   3.662   2.687   2.992  0.4651 -0.1050 -0.3387
  115SAPE   C2212022   3.503   2.666   3.178  0.2753 -0.8316  0.0811
  115SAPE   H2R12023   3.393   2.651   3.173  0.1098  0.6758 -2.0929
  115SAPE   H2S12024   3.560   2.579   3.219  0.7171  0.3448  2.1058
  115SAPE    C312025   3.385   2.882   2.766 -0.0260 -0.6712  0.4402
  115SAPE    HX12026   3.276   2.862   2.775  0.1367 -1.4958  0.7674
  115SAPE    HY12027   3.410   2.894   2.659  0.8198 -3.5861  0.2138
  115SAPE   O3112028   3.406   2.997   2.847  0.0702  0.5666  0.1809
  115SAPE   C3112029   3.520   3.059   2.835 -0.3291  0.1327  0.2765
  115SAPE   O3212030   3.612   3.041   2.752 -0.0751  0.6444  0.3925
  115SAPE   C3212031   3.523   3.182   2.934 -0.2445 -0.1257  0.0953
  115SAPE   H2X12032   3.428   3.232   2.906  0.5444  1.0498 -0.5622
  115SAPE   H2Y12033   3.602   3.254   2.905 -2.0725  1.3131 -1.5888
  115SAPE   C2312034   3.536   2.783   3.272  0.0381 -0.4534 -0.1812
  115SAPE   H3R12035   3.443   2.844   3.274 -0.2815 -0.9362  0.0047
  115SAPE   H3S12036   3.611   2.845   3.220  0.5509 -0.7472  0.1966
  115SAPE   C2412037   3.588   2.745   3.412 -0.2707  0.3430  0.0689
  115SAPE   H4R12038   3.645   2.837   3.440 -0.9535  0.7905  0.0101
  115SAPE   H4S12039   3.657   2.658   3.405  0.3953  0.9440 -1.4057
  115SAPE   C2512040   3.482   2.724   3.512  0.1179  0.1780 -0.4378
  115SAPE   H5R12041   3.422   2.636   3.485 -0.3043  0.6364 -1.0343
  115SAPE   C2612042   3.448   2.795   3.625  0.3139  0.2399 -0.4407
  115SAPE   H6R12043   3.369   2.752   3.688 -0.6593 -1.9734 -3.0042
  115SAPE   C2712044   3.518   2.906   3.689  0.2829 -0.0314 -0.1354
  115SAPE   H7R12045   3.442   2.986   3.703  0.2194  0.1915 -1.5725
  115SAPE   H7S12046   3.578   2.956   3.610 -0.6885 -1.0460 -1.5668
  115SAPE   C2812047   3.601   2.869   3.813  0.5533  0.4210 -0.4180
  115SAPE   H8R12048   3.681   2.795   3.798 -0.4088 -0.7188 -0.0454
  115SAPE   C2912049   3.569   2.894   3.939 -0.0987  0.6811  0.0713
  115SAPE   H9R12050   3.628   2.849   4.020  2.6039  1.5614 -1.2751
  115SAPE  C21012051   3.459   2.982   3.998  0.2355 -0.2879 -0.2478
  115SAPE  H10R12052   3.424   2.943   4.095  0.9119 -0.8191 -0.2039
  115SAPE  H10S12053   3.370   2.984   3.931  0.0197  2.5135  0.0146
  115SAPE  C21112054   3.496   3.130   4.006  0.1401 -0.4749  0.1759
  115SAPE  H11R12055   3.532   3.172   3.910 -1.1214 -1.1483 -0.6255
  115SAPE  C21212056   3.463   3.214   4.103  0.4003 -0.3924  0.2250
  115SAPE  H12R12057   3.502   3.317   4.103  0.3208 -0.3559 -0.3830
  115SAPE  C21312058   3.391   3.182   4.228  1.1392  0.2967 -0.3156
  115SAPE  H13R12059   3.469   3.183   4.307  2.9529 -0.8993 -1.9916
  115SAPE  H13S12060   3.351   3.078   4.226  2.1590 -0.1408  0.6635
  115SAPE  C21412061   3.288   3.290   4.257  0.5431 -1.3801  0.5740
  115SAPE  H14R12062   3.228   3.321   4.170 -0.5500 -0.3629  1.6493
  115SAPE  C21512063   3.273   3.363   4.372 -0.8514  0.2746  0.2784
  115SAPE  H15R12064   3.187   3.431   4.376  0.2585  1.7050  2.2795
  115SAPE  C21612065   3.353   3.349   4.495  0.3565 -0.2774 -0.4318
  115SAPE  H16R12066   3.447   3.290   4.490  0.3324 -0.3864  0.3312
  115SAPE  H16S12067   3.285   3.322   4.579 -0.9972  0.0102 -1.4021
  115SAPE  C21712068   3.405   3.495   4.521  0.0482  0.1049  0.1938
  115SAPE  H17R12069   3.452   3.498   4.622  0.3844  0.4702  0.0272
  115SAPE  H17S12070   3.314   3.557   4.530 -0.0709 -0.3885  3.5723
  115SAPE  C21812071   3.497   3.552   4.411 -0.3353 -0.0291  0.1215
  115SAPE  H18R12072   3.442   3.558   4.315  0.9142  0.2183 -0.5934
  115SAPE  H18S12073   3.579   3.485   4.378 -1.4435 -1.7990  0.8054
  115SAPE  C21912074   3.540   3.697   4.448  0.2807 -0.2323  0.1743
  115SAPE  H19R12075   3.591   3.738   4.358  0.1166 -0.8193 -0.1928
  115SAPE  H19S12076   3.599   3.681   4.540 -0.5039  0.4678  0.8120
  115SAPE  C22012077   3.424   3.784   4.496 -1.3180 -0.4938 -0.3712
  115SAPE  H20R12078   3.333   3.784   4.432  0.0485  3.8914 -2.6980
  115SAPE  H20S12079   3.457   3.890   4.506  0.0532 -1.0256  1.0248
  115SAPE  H20T12080   3.397   3.755   4.600  0.7205  2.2285  1.0503
  115SAPE   C3312081   3.536   3.124   3.078  0.2490 -0.0379  0.6845
  115SAPE   H3X12082   3.599   3.032   3.085  2.0655  1.1291  0.4329
  115SAPE   H3Y12083   3.435   3.090   3.110  0.3649  0.4787  1.6469
  115SAPE   C3412084   3.587   3.220   3.188  0.3545 -0.2889  0.5178
  115SAPE   H4X12085   3.540   3.317   3.162 -1.3956 -0.4729  2.7034
  115SAPE   H4Y12086   3.698   3.221   3.181  0.2728 -1.8094 -2.5051
  115SAPE   C3512087   3.535   3.184   3.327  0.3988 -0.4128 -0.6208
  115SAPE   H5X12088   3.566   3.081   3.355 -0.0126 -0.2593  0.4144
  115SAPE   H5Y12089   3.424   3.178   3.324  0.1733 -0.5730  3.1669
  115SAPE   C3612090   3.568   3.286   3.437 -0.1682  0.0827 -0.6285
  115SAPE   H6X12091   3.579   3.381   3.380 -1.7434  0.7071  0.0466
  115SAPE   H6Y12092   3.672   3.272   3.474 -0.1433 -0.0245 -0.7397
  115SAPE   C3712093   3.480   3.311   3.561  0.0007  0.4823 -0.3122
  115SAPE   H7X12094   3.484   3.222   3.627 -1.4825  1.0158  0.5419
  115SAPE   H7Y12095   3.374   3.319   3.527 -0.2562  0.3956  0.4347
  115SAPE   C3812096   3.511   3.425   3.647  0.0283 -0.1137  0.3056
  115SAPE   H8X12097   3.500   3.519   3.588  0.9621 -1.7247 -2.6608
  115SAPE   H8Y12098   3.613   3.422   3.689  1.0290 -2.0484 -2.0430
  115SAPE   C3912099   3.414   3.438   3.766  0.6572  0.0578  0.6243
  115SAPE   H9X12100   3.389   3.335   3.799 -2.5657  0.1101 -1.2928
  115SAPE   H9Y12101   3.321   3.471   3.717  0.7026 -0.1306  0.4121
  115SAPE  C31012102   3.452   3.538   3.875  0.0079 -0.0152 -0.1820
  115SAPE  H10X12103   3.487   3.624   3.815  1.7329 -0.7628 -0.3055
  115SAPE  H10Y12104   3.537   3.500   3.935 -0.6033  0.0261  0.7234
  115SAPE  C31112105   3.341   3.559   3.976  0.3316  0.7860  0.0837
  115SAPE  H11X12106   3.330   3.467   4.037 -0.1784  0.5885 -0.2977
  115SAPE  H11Y12107   3.248   3.586   3.921 -0.5793  0.7001  1.5373
  115SAPE  C31212108   3.380   3.670   4.078  0.0092  0.1438 -0.0775
  115SAPE  H12X12109   3.480   3.643   4.118  1.4488  2.0397 -2.0776
  115SAPE  H12Y12110   3.313   3.669   4.167  2.7025 -0.9680  2.0779
  115SAPE  C31312111   3.384   3.808   4.015  0.2774  0.5291 -0.4819
  115SAPE  H13X12112   3.289   3.815   3.956  0.1965 -1.6529 -0.6769
  115SAPE  H13Y12113   3.463   3.807   3.937  1.4755 -0.9552  0.6935
  115SAPE  C31412114   3.399   3.928   4.106  0.3115 -0.5170 -0.5684
  115SAPE  H14X12115   3.411   4.023   4.049  0.6544 -0.5857 -0.6120
  115SAPE  H14Y12116   3.484   3.909   4.176  0.8676  0.5810 -0.9124
  115SAPE  C31512117   3.268   3.954   4.183  0.1583  0.3192 -0.0304
  115SAPE  H15X12118   3.256   3.878   4.263 -0.9803  1.0206  0.4949
  115SAPE  H15Y12119   3.187   3.937   4.110 -0.7671 -2.1892  1.4656
  115SAPE  C31612120   3.254   4.092   4.246  0.0193  0.4475 -0.0187
  115SAPE  H16X12121   3.243   4.177   4.175  2.8994  1.7420  0.9438
  115SAPE  H16Y12122   3.346   4.109   4.306 -1.4975  0.0631  2.5425
  115SAPE  C31712123   3.132   4.092   4.347 -0.4538  0.1736  0.3794
  115SAPE  H17X12124   3.158   4.021   4.428  1.0941 -1.3302 -1.3156
  115SAPE  H17Y12125   3.048   4.043   4.293  1.8632 -1.9405 -1.6120
  115SAPE  C31812126   3.106   4.234   4.391 -0.6465 -0.7173 -0.4528
  115SAPE  H18X12127   3.035   4.241   4.477 -1.8866  1.9375 -1.5693
  115SAPE  H18Y12128   3.074   4.291   4.301 -1.1228 -1.0746 -0.5146
  115SAPE  H18Z12129   3.206   4.271   4.419 -1.1163  0.5546 -0.3781
  116SAPE     N12130   6.143   3.185   1.893 -0.0698 -0.1288 -0.1040
  116SAPE   HN112131   6.230   3.139   1.860  0.6900  1.1793  0.0102
  116SAPE   HN212132   6.062   3.138   1.847  0.6193 -2.8512  1.3007
  116SAPE   HN312133   6.135   3.283   1.859 -1.4627 -0.1941 -0.0310
  116SAPE   C1212134   6.126   3.173   2.041 -0.1710  0.3190 -0.1133
  116SAPE  H12A12135   6.215   3.227   2.081 -0.7874  0.5543  0.9797
  116SAPE  H12B12136   6.130   3.065   2.069  1.6727  0.5060  0.4997
  116SAPE   C1112137   5.999   3.241   2.078 -0.1679 -0.2335 -0.0906
  116SAPE  H11A12138   5.910   3.199   2.027 -0.3431 -0.2402  0.2177
  116SAPE  H11B12139   6.003   3.343   2.034  0.5377 -1.1142 -2.1571
  116SAPE     P12140   5.940   3.116   2.302 -0.1004 -0.2503  0.2075
  116SAPE   O1312141   5.822   3.155   2.378  0.3664  0.4785 -0.3838
  116SAPE   O1412142   5.927   2.993   2.215 -0.4602 -0.6628 -0.0217
  116SAPE   O1212143   5.982   3.240   2.221  0.1555 -0.1477  0.2356
  116SAPE   O1112144   6.057   3.102   2.397 -0.2867 -0.3427 -0.2217
  116SAPE    C112145   6.050   3.171   2.523  0.9880  0.7389  1.1367
  116SAPE    HA12146   5.999   3.268   2.511  0.8783  0.5722  0.1083
  116SAPE    HB12147   5.996   3.107   2.596 -1.4445  1.3203 -0.0634
  116SAPE    C212148   6.193   3.175   2.576 -0.2791 -0.3868 -0.6963
  116SAPE    HS12149   6.247   3.224   2.492 -1.0213  1.4018 -0.1713
  116SAPE   O2112150   6.241   3.038   2.603  0.0150  0.7564  0.2904
  116SAPE   C2112151   6.371   3.030   2.610 -0.4615  0.3640 -0.3841
  116SAPE   O2212152   6.449   3.118   2.575 -0.1035  0.1320 -0.5804
  116SAPE   C2212153   6.415   2.903   2.682  0.6871  0.0630 -0.3407
  116SAPE   H2R12154   6.351   2.882   2.770 -0.2401 -1.3677 -1.3040
  116SAPE   H2S12155   6.400   2.820   2.609  1.6109 -2.0124  1.7191
  116SAPE    C312156   6.217   3.274   2.696 -0.1383  0.0049 -0.5594
  116SAPE    HX12157   6.212   3.373   2.645 -0.2239  0.0780 -0.4112
  116SAPE    HY12158   6.322   3.264   2.731  0.1756 -1.4865 -1.8629
  116SAPE   O3112159   6.125   3.255   2.800  0.6316 -0.8549  0.6592
  116SAPE   C3112160   6.142   3.318   2.919  0.6259  0.2115  0.9344
  116SAPE   O3212161   6.230   3.398   2.940  0.4120  0.3315 -0.3733
  116SAPE   C3212162   6.015   3.305   2.998  0.0704 -0.8520  1.1896
  116SAPE   H2X12163   6.049   3.243   3.084  0.4338 -0.0385  1.6368
  116SAPE   H2Y12164   5.942   3.243   2.941 -2.2055  2.4602  0.2229
  116SAPE   C2312165   6.561   2.896   2.727 -0.4417  0.2436 -0.3669
  116SAPE   H3R12166   6.627   2.936   2.647 -2.2989  1.3447 -1.4283
  116SAPE   H3S12167   6.566   2.785   2.733  1.7651  0.3672  1.3934
  116SAPE   C2412168   6.575   2.954   2.869  0.2528 -0.2364 -0.2692
  116SAPE   H4R12169   6.674   2.913   2.898  0.1621 -2.0612 -2.3049
  116SAPE   H4S12170   6.501   2.903   2.934  1.0089 -1.4965 -0.3671
  116SAPE   C2512171   6.559   3.105   2.870  0.4695 -0.3028  0.5229
  116SAPE   H5R12172   6.605   3.152   2.782  1.6345  0.3948  1.4791
  116SAPE   C2612173   6.487   3.181   2.955  0.0800 -0.3292 -0.2523
  116SAPE   H6R12174   6.484   3.291   2.947 -0.2064 -0.1943  1.4065
  116SAPE   C2712175   6.403   3.129   3.072  0.2517 -0.3982  0.6989
  116SAPE   H7R12176   6.352   3.033   3.047  0.0966 -1.1020  3.4264
  116SAPE   H7S12177   6.314   3.194   3.076  0.0866 -0.3808 -1.7506
  116SAPE   C2812178   6.475   3.123   3.206  0.4509 -0.5021 -0.1338
  116SAPE   H8R12179   6.581   3.095   3.195  0.1889 -0.8823 -2.1913
  116SAPE   C2912180   6.435   3.166   3.330  0.3879  0.4073  0.6552
  116SAPE   H9R12181   6.512   3.157   3.408  1.8408  0.3389 -0.7203
  116SAPE  C21012182   6.301   3.226   3.368  0.2298  0.0876  0.3891
  116SAPE  H10R12183   6.288   3.210   3.477 -1.5523  2.1105  0.5411
  116SAPE  H10S12184   6.221   3.163   3.325  0.2177 -0.3070  0.9798
  116SAPE  C21112185   6.273   3.367   3.335 -0.3495 -0.5248 -0.6759
  116SAPE  H11R12186   6.311   3.408   3.240 -2.5440  1.3031 -0.8819
  116SAPE  C21212187   6.207   3.453   3.407  0.2837 -0.0167 -0.0967
  116SAPE  H12R12188   6.201   3.555   3.366  1.3333  0.6429  1.2945
  116SAPE  C21312189   6.139   3.412   3.535 -0.2248  0.0983  0.7946
  116SAPE  H13R12190   6.080   3.320   3.514  0.4419 -0.6366  1.9721
  116SAPE  H13S12191   6.074   3.499   3.557  0.8539  1.6030 -1.6206
  116SAPE  C21412192   6.221   3.392   3.657 -0.1155 -0.3361  0.0873
  116SAPE  H14R12193   6.330   3.390   3.639 -0.0457  0.3296  0.3826
  116SAPE  C21512194   6.168   3.389   3.784  0.0767 -0.0713  0.2839
  116SAPE  H15R12195   6.234   3.373   3.871  1.8888  0.2873 -0.9599
  116SAPE  C21612196   6.022   3.398   3.822  0.0478 -0.2774  0.4012
  116SAPE  H16R12197   5.985   3.307   3.873  0.8545 -1.7411 -1.4925
  116SAPE  H16S12198   5.956   3.398   3.732  0.2542 -0.1620  0.2476
  116SAPE  C21712199   5.995   3.526   3.903  0.1076  0.2864  0.5912
  116SAPE  H17R12200   6.037   3.606   3.838  0.0968 -0.1524  0.0345
  116SAPE  H17S12201   6.057   3.528   3.995  1.2952  0.6558 -0.1943
  116SAPE  C21812202   5.850   3.551   3.936 -0.1445  0.4256  0.2845
  116SAPE  H18R12203   5.779   3.558   3.851 -1.5847  2.3111  1.5583
  116SAPE  H18S12204   5.847   3.654   3.975 -1.2635  1.4521 -2.2568
  116SAPE  C21912205   5.790   3.452   4.032  0.5457 -0.1938  0.0713
  116SAPE  H19R12206   5.854   3.444   4.122  0.1177  0.6647  0.4665
  116SAPE  H19S12207   5.795   3.350   3.988  1.5287  1.1420 -3.2125
  116SAPE  C22012208   5.654   3.499   4.076  0.6820 -0.7709  0.2979
  116SAPE  H20R12209   5.584   3.517   3.991  2.3805 -0.7784 -1.1433
  116SAPE  H20S12210   5.656   3.590   4.138 -1.3325  0.3937 -1.2078
  116SAPE  H20T12211   5.596   3.425   4.136 -0.9179  0.7715  0.7511
  116SAPE   C3312212   5.952   3.441   3.040  0.3084  0.4436 -0.4041
  116SAPE   H3X12213   5.927   3.499   2.949 -2.3816 -0.7810 -0.5406
  116SAPE   H3Y12214   6.025   3.500   3.100  0.5397  1.4877 -1.6631
  116SAPE   C3412215   5.825   3.412   3.129  0.8290  0.3762 -0.3099
  116SAPE   H4X12216   5.771   3.333   3.071  1.2520 -0.1866  0.0514
  116SAPE   H4Y12217   5.761   3.502   3.124  0.5501  0.1210 -1.8278
  116SAPE   C3512218   5.844   3.370   3.276 -0.6331  0.2962 -0.4021
  116SAPE   H5X12219   5.944   3.407   3.309  1.0937 -3.2568 -1.1410
  116SAPE   H5Y12220   5.859   3.260   3.288 -1.2293  0.2238 -0.3222
  116SAPE   C3612221   5.728   3.405   3.376 -0.1395  0.3392 -0.2108
  116SAPE   H6X12222   5.635   3.399   3.316 -1.0899 -0.9212  1.3193
  116SAPE   H6Y12223   5.740   3.513   3.400 -1.7648 -0.3057  4.5365
  116SAPE   C3712224   5.723   3.316   3.501 -0.3199  0.0657 -0.2580
  116SAPE   H7X12225   5.808   3.341   3.569 -0.1646 -0.2043 -0.3552
  116SAPE   H7Y12226   5.731   3.208   3.481  0.5126  0.2270 -0.8605
  116SAPE   C3812227   5.595   3.339   3.592 -0.1956 -0.4571  0.1886
  116SAPE   H8X12228   5.604   3.273   3.681 -0.3296  0.4965  0.9212
  116SAPE   H8Y12229   5.501   3.317   3.537 -0.8379  1.6860  0.3530
  116SAPE   C3912230   5.577   3.497   3.624 -0.4467  0.8988  0.1399
  116SAPE   H9X12231   5.550   3.559   3.536  1.0379  1.7278  0.2367
  116SAPE   H9Y12232   5.666   3.549   3.666 -0.0514  1.1458 -0.9695
  116SAPE  C31012233   5.464   3.513   3.731 -0.4555  0.1038 -0.0952
  116SAPE  H10X12234   5.460   3.619   3.764  2.0445  0.0065  0.7206
  116SAPE  H10Y12235   5.486   3.436   3.808  0.6117  0.1613 -0.3268
  116SAPE  C31112236   5.324   3.483   3.678  0.0858  0.2782  0.6264
  116SAPE  H11X12237   5.318   3.384   3.629 -2.6531  1.7265 -2.3950
  116SAPE  H11Y12238   5.283   3.556   3.604 -1.1156 -1.1372 -0.1558
  116SAPE  C31212239   5.216   3.470   3.789 -0.3301  0.2091 -0.1276
  116SAPE  H12X12240   5.260   3.419   3.877 -1.8006  0.4648  0.7884
  116SAPE  H12Y12241   5.129   3.406   3.759 -0.9843  1.4884 -1.0590
  116SAPE  C31312242   5.163   3.605   3.832  0.4694 -0.4284 -0.0821
  116SAPE  H13X12243   5.134   3.654   3.736 -0.6353  0.0620  0.4808
  116SAPE  H13Y12244   5.247   3.655   3.885  0.2069 -2.4747  2.4749
  116SAPE  C31412245   5.037   3.588   3.925 -0.2620  0.0151 -0.2104
  116SAPE  H14X12246   5.058   3.529   4.017 -1.4067 -0.5699 -0.3079
  116SAPE  H14Y12247   4.951   3.544   3.871 -0.3958  0.8784 -0.7082
  116SAPE  C31512248   4.998   3.736   3.969  0.1737 -0.3819  0.7811
  116SAPE  H15X12249   4.983   3.792   3.874 -0.7766 -1.0536  0.5175
  116SAPE  H15Y12250   5.088   3.780   4.016 -0.2876  0.3605  0.9826
  116SAPE  C31612251   4.883   3.737   4.069 -0.3819 -0.3832  0.4747
  116SAPE  H16X12252   4.795   3.670   4.054 -0.4877  0.0721 -1.0975
  116SAPE  H16Y12253   4.839   3.839   4.067  1.6144  0.5281 -2.5575
  116SAPE  C31712254   4.934   3.707   4.212  0.2366 -0.3125  0.3960
  116SAPE  H17X12255   4.999   3.793   4.241 -0.1342  0.0835  0.0623
  116SAPE  H17Y12256   4.988   3.610   4.216 -0.6848 -0.8085  1.2216
  116SAPE  C31812257   4.824   3.705   4.324 -0.4745  0.4333  0.5189
  116SAPE  H18X12258   4.782   3.808   4.334  2.1142  2.0903 -3.1603
  116SAPE  H18Y12259   4.881   3.676   4.414  0.3181  0.7442  0.1289
  116SAPE  H18Z12260   4.750   3.623   4.314 -2.0390  1.4656  2.7410
  117SOPE     N12261   6.911   1.576   6.663  1.0409 -0.5602  0.1228
  117SOPE   HN112262   6.828   1.636   6.645  1.6409 -0.1625 -1.4783
  117SOPE   HN212263   6.920   1.525   6.573  0.6257 -1.8312  0.7712
  117SOPE   HN312264   6.890   1.508   6.739 -0.3844  0.8424  1.0316
  117SOPE   C1212265   7.036   1.644   6.694  0.7233  0.3166 -0.0588
  117SOPE  H12A12266   7.015   1.730   6.761  0.9756 -0.9232  1.6724
  117SOPE  H12B12267   7.078   1.679   6.597 -0.5681  1.4982 -0.2221
  117SOPE   C1112268   7.134   1.551   6.755 -1.0862  0.9564 -0.2438
  117SOPE  H11A12269   7.112   1.539   6.863  1.9355 -3.6085  0.1355
  117SOPE  H11B12270   7.242   1.578   6.748 -0.7749 -0.0847  0.3483
  117SOPE     P12271   7.221   1.306   6.690 -0.1970 -0.1932 -0.2581
  117SOPE   O1312272   7.240   1.263   6.830 -0.1284 -0.1270  0.6948
  117SOPE   O1412273   7.342   1.361   6.626  0.5342 -0.2354 -0.1038
  117SOPE   O1212274   7.126   1.425   6.696 -0.3244 -0.1054 -0.4273
  117SOPE   O1112275   7.145   1.204   6.600 -0.1444  0.3631  0.8020
  117SOPE    C112276   7.059   1.242   6.497  0.2614 -0.0268  0.3250
  117SOPE    HA12277   6.983   1.315   6.531  1.3339  0.3921  1.9680
  117SOPE    HB12278   7.001   1.151   6.469  0.0846  0.7563 -2.1114
  117SOPE    C212279   7.129   1.303   6.377  0.5251 -0.8033  1.1397
  117SOPE    HS12280   7.190   1.390   6.410 -0.3410  0.2808 -0.0300
  117SOPE   O2112281   7.032   1.346   6.276 -0.3406  0.3322 -0.0058
  117SOPE   C2112282   6.984   1.469   6.305  0.2086  0.7198 -0.3939
  117SOPE   O2212283   7.006   1.528   6.410  0.7047 -0.2133  0.2158
  117SOPE   C2212284   6.907   1.521   6.191  0.9852  0.1758  0.6381
  117SOPE   H2R12285   6.830   1.592   6.228  0.1808 -2.1440  3.9607
  117SOPE   H2S12286   6.857   1.434   6.142 -0.0332 -0.0226  1.9721
  117SOPE    C312287   7.218   1.204   6.298 -0.8420 -0.0522 -0.2121
  117SOPE    HX12288   7.170   1.109   6.265  0.6831 -0.5313 -1.1300
  117SOPE    HY12289   7.299   1.177   6.368 -1.0039  0.1084  0.0383
  117SOPE   O3112290   7.274   1.282   6.183  0.7041 -0.2926 -0.1985
  117SOPE   C3112291   7.314   1.202   6.083  0.6013  0.0620  0.7400
  117SOPE   O3212292   7.349   1.084   6.101 -0.3207  0.3279 -0.7453
  117SOPE   C3212293   7.320   1.277   5.952  0.0625 -0.2407  0.5047
  117SOPE   H2X12294   7.404   1.349   5.959  1.3417 -1.7021  0.7928
  117SOPE   H2Y12295   7.232   1.343   5.938  0.5366  0.2603 -0.2048
  117SOPE   C2312296   6.993   1.589   6.078  0.4783 -0.4727  0.4324
  117SOPE   H3R12297   7.071   1.518   6.040 -0.0819 -0.7053 -0.3153
  117SOPE   H3S12298   7.041   1.679   6.120  0.9271  0.6627 -2.2897
  117SOPE   C2412299   6.905   1.618   5.968  0.3541 -0.2903  0.5175
  117SOPE   H4R12300   6.832   1.538   5.939 -0.1976  0.1135  0.7694
  117SOPE   H4S12301   6.854   1.712   5.998 -0.2373 -0.8784  1.3995
  117SOPE   C2512302   6.985   1.655   5.848  1.1515  0.6251 -0.3676
  117SOPE   H5R12303   7.038   1.744   5.889 -0.3855  1.2585  0.3527
  117SOPE   H5S12304   7.057   1.574   5.824  1.9243  1.1824  0.0303
  117SOPE   C2612305   6.900   1.694   5.718 -0.3526  1.2371 -0.2585
  117SOPE   H6R12306   6.857   1.595   5.691  2.6353 -0.2179 -0.0816
  117SOPE   H6S12307   6.819   1.763   5.748 -0.9635 -0.2538  1.6558
  117SOPE   C2712308   6.981   1.735   5.596 -0.6212  0.2597 -0.3813
  117SOPE   H7R12309   7.035   1.830   5.615  0.6115 -0.2133 -1.3475
  117SOPE   H7S12310   7.067   1.665   5.582  1.8813  2.9575  0.5462
  117SOPE   C2812311   6.906   1.744   5.460 -0.3562  0.3564  0.4762
  117SOPE   H8R12312   6.976   1.742   5.375 -1.5599  2.0659 -0.6243
  117SOPE   H8S12313   6.855   1.645   5.462  0.1706  0.0853  0.8478
  117SOPE   C2912314   6.806   1.854   5.448  0.6238  0.0162 -0.3196
  117SOPE   H9112315   6.776   1.908   5.538 -1.1117  1.6552 -1.8088
  117SOPE  C21012316   6.760   1.910   5.334 -0.4461 -0.1758  0.4057
  117SOPE  H10112317   6.694   1.998   5.330 -1.7887 -1.1814 -0.2459
  117SOPE  C21112318   6.793   1.859   5.197 -0.1384  0.4111 -0.3581
  117SOPE  H11R12319   6.834   1.756   5.204 -0.7544  0.2616  1.9585
  117SOPE  H11S12320   6.874   1.921   5.154  0.7064 -0.8828 -0.6928
  117SOPE  C21212321   6.677   1.852   5.094 -0.4352 -0.8406  0.1349
  117SOPE  H12R12322   6.726   1.832   4.996 -3.0333 -0.1020 -1.4284
  117SOPE  H12S12323   6.631   1.953   5.087  1.5482  0.0577 -0.4870
  117SOPE  C21312324   6.576   1.746   5.129  0.3845  0.3595 -0.2059
  117SOPE  H13R12325   6.519   1.761   5.223 -0.5415 -1.5687 -0.4016
  117SOPE  H13S12326   6.628   1.650   5.150 -0.5312  0.0413  0.7209
  117SOPE  C21412327   6.465   1.724   5.015  0.3098 -0.0232 -0.3164
  117SOPE  H14R12328   6.386   1.651   5.044  0.1865  0.4705  0.6364
  117SOPE  H14S12329   6.525   1.673   4.937 -1.6823 -2.1200 -0.6012
  117SOPE  C21512330   6.407   1.860   4.970 -0.6587  0.6832 -0.4683
  117SOPE  H15R12331   6.477   1.903   4.895  0.5292  0.2842  0.3856
  117SOPE  H15S12332   6.401   1.918   5.064  1.1054  1.7867 -0.9894
  117SOPE  C21612333   6.271   1.826   4.905 -1.0001  0.1769  0.8386
  117SOPE  H16R12334   6.240   1.927   4.870 -2.7201 -0.5128  0.3078
  117SOPE  H16S12335   6.197   1.783   4.976 -0.6958  0.8447  1.5847
  117SOPE  C21712336   6.275   1.732   4.783  1.0048 -0.5644 -0.0697
  117SOPE  H17R12337   6.273   1.624   4.812 -2.8626 -0.9736 -1.3082
  117SOPE  H17S12338   6.364   1.762   4.724  1.3758 -0.6336  0.4454
  117SOPE  C21812339   6.148   1.757   4.700 -0.4126  0.0561  0.0694
  117SOPE  H18R12340   6.161   1.846   4.635  0.5630  0.4004  0.7089
  117SOPE  H18S12341   6.064   1.765   4.772 -0.2222 -0.8677  0.4056
  117SOPE  H18T12342   6.131   1.658   4.654 -0.4785 -0.8610  1.9648
  117SOPE   C3312343   7.339   1.187   5.825  0.3196 -0.1049  0.0748
  117SOPE   H3X12344   7.241   1.141   5.802 -0.8561  1.1203  2.2384
  117SOPE   H3Y12345   7.411   1.105   5.842  0.0953 -0.2080  0.5478
  117SOPE   C3412346   7.378   1.268   5.703 -0.0615 -0.0333 -0.8407
  117SOPE   H4X12347   7.453   1.347   5.725 -1.7003  1.6091 -0.9940
  117SOPE   H4Y12348   7.291   1.321   5.660  0.8941  0.6372 -2.0399
  117SOPE   C3512349   7.425   1.177   5.586 -0.0775  0.0126 -0.7460
  117SOPE   H5X12350   7.520   1.130   5.618 -0.3854 -0.4986 -0.5591
  117SOPE   H5Y12351   7.445   1.237   5.494  1.4850 -0.2641 -0.6043
  117SOPE   C3612352   7.323   1.071   5.562 -0.1532 -0.8104  0.3680
  117SOPE   H6X12353   7.227   1.127   5.570 -1.0456 -2.4536  1.8118
  117SOPE   H6Y12354   7.329   1.004   5.650  0.4917 -1.8550 -0.4542
  117SOPE   C3712355   7.335   0.992   5.431  0.1709 -0.4581 -0.0425
  117SOPE   H7X12356   7.238   0.940   5.415 -0.9712  1.4518  0.3013
  117SOPE   H7Y12357   7.418   0.918   5.430 -1.5888 -2.5508 -1.5163
  117SOPE   C3812358   7.366   1.074   5.301 -0.2153 -0.1879 -0.3454
  117SOPE   H8X12359   7.397   1.005   5.220  0.0837  1.3711 -1.6219
  117SOPE   H8Y12360   7.452   1.143   5.317  1.7052 -2.5858  0.2658
  117SOPE   C3912361   7.258   1.165   5.246 -0.3315 -0.3754 -0.0807
  117SOPE   H9X12362   7.200   1.216   5.327  0.6741  1.2644 -0.3386
  117SOPE   H9Y12363   7.178   1.107   5.196  0.7924 -1.5103 -0.6123
  117SOPE  C31012364   7.309   1.268   5.151  0.4953  0.5190 -0.7525
  117SOPE  H10X12365   7.394   1.321   5.198 -0.2149 -0.3003  1.6058
  117SOPE  H10Y12366   7.228   1.344   5.145  1.1854  1.3888  0.5477
  117SOPE  C31112367   7.340   1.216   5.013 -0.0062 -0.0098 -0.1066
  117SOPE  H11X12368   7.258   1.146   4.984  0.2369 -0.4687  0.2977
  117SOPE  H11Y12369   7.431   1.152   5.014 -0.1138 -0.1932 -1.1640
  117SOPE  C31212370   7.364   1.325   4.915 -0.0765 -0.7835  0.4583
  117SOPE  H12X12371   7.446   1.389   4.955 -1.3273  1.0645  0.1768
  117SOPE  H12Y12372   7.272   1.387   4.920  0.1467 -0.4376  0.2636
  117SOPE  C31312373   7.397   1.281   4.775 -0.0382  0.0799  0.0210
  117SOPE  H13X12374   7.332   1.198   4.741  0.9921 -1.2083  1.1055
  117SOPE  H13Y12375   7.505   1.259   4.766  0.5787  2.6275  0.2182
  117SOPE  C31412376   7.373   1.402   4.678  0.4353 -0.4050 -0.1722
  117SOPE  H14X12377   7.435   1.491   4.703  0.6608 -1.4093  3.3761
  117SOPE  H14Y12378   7.267   1.428   4.699  0.6592  0.7177 -0.3760
  117SOPE  C31512379   7.382   1.372   4.526 -0.4859  0.2502 -0.8232
  117SOPE  H15X12380   7.342   1.271   4.508 -2.0167  0.9370 -1.4399
  117SOPE  H15Y12381   7.492   1.363   4.513 -0.0419  3.1537  0.0285
  117SOPE  C31612382   7.328   1.469   4.431 -0.2778 -0.3401 -0.6683
  117SOPE  H16X12383   7.385   1.561   4.457 -0.5994 -0.2792 -0.1691
  117SOPE  H16Y12384   7.220   1.484   4.454  0.3454  3.5715  0.3909
  117SOPE  C31712385   7.344   1.439   4.286  0.2481  0.5001  0.4409
  117SOPE  H17X12386   7.276   1.354   4.266 -3.9708  3.2375  1.6813
  117SOPE  H17Y12387   7.449   1.405   4.283  0.4634  1.1753  0.0526
  117SOPE  C31812388   7.310   1.550   4.182  0.5957 -0.6664  0.6389
  117SOPE  H18X12389   7.360   1.647   4.201 -3.7298  1.5488  1.8840
  117SOPE  H18Y12390   7.201   1.570   4.188 -0.4821 -4.4728 -2.1035
  117SOPE  H18Z12391   7.341   1.524   4.078  0.2977  1.5663 -0.0651
  118SOPE     N12392   2.953   2.834   6.850  0.1845 -0.1432  0.5574
  118SOPE   HN112393   2.999   2.827   6.943  1.6324 -0.2499 -0.1303
  118SOPE   HN212394   3.014   2.804   6.771  0.4807  2.2719 -0.2121
  118SOPE   HN312395   2.935   2.936   6.840 -0.9169 -0.1305  2.2813
  118SOPE   C1212396   2.817   2.764   6.851 -0.3658  0.2303 -0.0940
  118SOPE  H12A12397   2.847   2.657   6.845  0.4648  0.5192 -1.2489
  118SOPE  H12B12398   2.766   2.792   6.757  1.5548  1.2204 -0.8953
  118SOPE   C1112399   2.739   2.793   6.982  0.4679  0.1137  0.5867
  118SOPE  H11A12400   2.803   2.751   7.063  2.2991 -0.2129 -0.9609
  118SOPE  H11B12401   2.641   2.740   6.976  1.8863 -2.7785  0.9357
  118SOPE     P12402   2.602   3.008   6.950  0.1271  0.1617 -0.1545
  118SOPE   O1312403   2.625   3.156   6.965  0.2063  0.1932 -0.8385
  118SOPE   O1412404   2.480   2.949   7.012  0.0122  0.2844 -0.0223
  118SOPE   O1212405   2.725   2.933   7.016  0.4179  0.0182  0.0946
  118SOPE   O1112406   2.607   2.971   6.790 -0.2646  0.1891 -0.5178
  118SOPE    C112407   2.502   3.029   6.714  0.1884 -0.6709  0.3758
  118SOPE    HA12408   2.527   3.135   6.692  1.3095 -1.1895 -1.0508
  118SOPE    HB12409   2.405   3.021   6.767 -0.1244 -1.5205 -0.3116
  118SOPE    C212410   2.476   2.949   6.585 -0.7271 -0.2796  0.4411
  118SOPE    HS12411   2.491   2.841   6.607 -0.1299 -0.5203 -1.0711
  118SOPE   O2112412   2.566   3.004   6.488  0.4938  0.5426  0.0924
  118SOPE   C2112413   2.668   2.923   6.468  0.3491 -0.3769 -0.8779
  118SOPE   O2212414   2.705   2.839   6.546  0.6348  0.3245 -0.1432
  118SOPE   C2212415   2.745   2.950   6.340 -0.2573 -0.2868  0.2131
  118SOPE   H2R12416   2.766   2.857   6.283 -0.2333 -0.4423  0.4719
  118SOPE   H2S12417   2.837   3.000   6.378 -1.6024  0.2739  3.0091
  118SOPE    C312418   2.326   2.966   6.534 -0.2735  0.4736  0.1148
  118SOPE    HX12419   2.314   3.075   6.521  1.2333  0.6290 -0.1307
  118SOPE    HY12420   2.258   2.924   6.612  0.0667 -0.8245 -0.2569
  118SOPE   O3112421   2.300   2.904   6.412 -0.7692  0.4962 -0.0546
  118SOPE   C3112422   2.175   2.915   6.371  0.7860  0.2681  0.4374
  118SOPE   O3212423   2.085   2.978   6.425 -0.2507 -0.0828  0.0063
  118SOPE   C3212424   2.173   2.836   6.231 -0.2943  0.2122 -0.3325
  118SOPE   H2X12425   2.189   2.728   6.245 -1.1359  0.2951  1.5727
  118SOPE   H2Y12426   2.263   2.869   6.175  0.9476 -0.2467  1.3373
  118SOPE   C2312427   2.669   3.030   6.229  0.3173 -0.4514 -0.1378
  118SOPE   H3R12428   2.636   3.123   6.280 -0.3771  0.4380 -2.1040
  118SOPE   H3S12429   2.578   2.967   6.217  0.7371 -1.3383  1.0895
  118SOPE   C2412430   2.751   3.049   6.099  0.0775  0.5238 -0.2166
  118SOPE   H4R12431   2.846   3.092   6.137 -0.9480  1.7950  1.0345
  118SOPE   H4S12432   2.776   2.953   6.050 -1.2780  0.6863 -1.2994
  118SOPE   C2512433   2.697   3.147   5.993  0.2847 -0.9642  0.3869
  118SOPE   H5R12434   2.628   3.102   5.918 -1.6892 -1.1547  2.2143
  118SOPE   H5S12435   2.633   3.224   6.042 -0.6186 -0.8809 -0.8701
  118SOPE   C2612436   2.804   3.226   5.916  0.3865  0.2394 -0.1272
  118SOPE   H6R12437   2.760   3.303   5.849 -0.6136 -1.3021 -1.3027
  118SOPE   H6S12438   2.870   3.276   5.990  1.7228  0.0724 -1.1881
  118SOPE   C2712439   2.899   3.139   5.834 -0.2750 -0.0956 -0.1400
  118SOPE   H7R12440   2.978   3.205   5.794 -2.1626  1.6026 -1.2769
  118SOPE   H7S12441   2.938   3.055   5.895  0.2375  0.0135 -0.3160
  118SOPE   C2812442   2.831   3.057   5.718 -0.1623  0.2666  0.0615
  118SOPE   H8R12443   2.778   2.973   5.768  0.6970  0.5434  1.4880
  118SOPE   H8S12444   2.748   3.117   5.674 -1.7925 -2.1095 -0.3314
  118SOPE   C2912445   2.930   3.008   5.613  0.0530 -1.1861  0.0650
  118SOPE   H9112446   2.977   2.910   5.629  0.7742 -0.7858  0.4584
  118SOPE  C21012447   2.969   3.086   5.509  0.6124  0.6885  0.1218
  118SOPE  H10112448   3.050   3.048   5.445  0.7651 -1.4130  1.4268
  118SOPE  C21112449   2.920   3.221   5.464 -0.6615  0.0035 -0.1054
  118SOPE  H11R12450   2.981   3.301   5.511 -0.4366 -0.8877  1.1782
  118SOPE  H11S12451   2.818   3.237   5.504 -0.5071 -0.7039  0.5915
  118SOPE  C21212452   2.916   3.234   5.312 -0.1173  0.5182 -0.7310
  118SOPE  H12R12453   3.018   3.223   5.267 -0.8666 -0.7927 -2.2123
  118SOPE  H12S12454   2.868   3.331   5.288 -1.4933 -0.1217 -0.6472
  118SOPE  C21312455   2.830   3.131   5.233 -0.6398 -0.7086 -0.0966
  118SOPE  H13R12456   2.726   3.139   5.271 -0.4158  2.3793  0.1162
  118SOPE  H13S12457   2.872   3.031   5.256  0.7015  0.4420  2.9744
  118SOPE  C21412458   2.842   3.151   5.078 -0.2128 -0.5495  0.0606
  118SOPE  H14R12459   2.950   3.139   5.056 -0.0761 -2.9623  1.6893
  118SOPE  H14S12460   2.804   3.253   5.053 -0.6119 -0.3673  1.3213
  118SOPE  C21512461   2.770   3.047   4.991 -0.3136  0.0384 -0.4497
  118SOPE  H15R12462   2.663   3.059   5.018 -1.0420  2.2118 -3.6468
  118SOPE  H15S12463   2.795   2.943   5.017 -1.2328  0.4243  2.1901
  118SOPE  C21612464   2.768   3.080   4.836  0.3131 -0.3348 -0.2638
  118SOPE  H16R12465   2.859   3.077   4.773 -0.1896 -1.1407 -0.9736
  118SOPE  H16S12466   2.733   3.185   4.828 -1.3030 -0.5446  2.5938
  118SOPE  C21712467   2.669   2.978   4.777  0.7358  0.0147  1.3582
  118SOPE  H17R12468   2.575   3.011   4.827  0.9779  1.6582  0.7803
  118SOPE  H17S12469   2.697   2.873   4.799 -1.6261 -0.7619  0.9392
  118SOPE  C21812470   2.656   2.989   4.620  0.2083 -0.2657  0.2988
  118SOPE  H18R12471   2.578   2.930   4.566 -1.1131  2.2876 -0.7583
  118SOPE  H18S12472   2.752   2.969   4.568  0.6290 -1.4929  1.4764
  118SOPE  H18T12473   2.633   3.096   4.603 -0.0419 -0.4887 -0.8270
  118SOPE   C3312474   2.045   2.838   6.151  0.4189 -0.0860  0.5940
  118SOPE   H3X12475   1.976   2.920   6.183  2.2150  1.5526  0.4351
  118SOPE   H3Y12476   1.989   2.745   6.176  0.1079  0.8397  3.7904
  118SOPE   C3412477   2.074   2.859   5.997  0.5458 -0.0889 -0.5727
  118SOPE   H4X12478   2.166   2.798   5.986  1.6887  1.7187 -1.4414
  118SOPE   H4Y12479   2.108   2.960   5.968 -0.6809 -0.3867 -3.2994
  118SOPE   C3512480   1.954   2.819   5.909 -0.2996  0.0418 -0.1695
  118SOPE   H5X12481   1.886   2.906   5.911  1.1437  1.2499 -1.2819
  118SOPE   H5Y12482   1.903   2.732   5.956 -1.4818  1.7390  1.8124
  118SOPE   C3612483   2.000   2.778   5.765  0.1617 -0.3043  0.6777
  118SOPE   H6X12484   2.083   2.704   5.761  0.2272 -0.2135  0.2881
  118SOPE   H6Y12485   2.038   2.873   5.723 -0.0160 -1.1620 -1.5751
  118SOPE   C3712486   1.882   2.725   5.668 -0.8355  0.4345  0.2446
  118SOPE   H7X12487   1.790   2.788   5.669 -1.8200 -0.9730  0.3690
  118SOPE   H7Y12488   1.847   2.625   5.700 -0.2348 -0.2298 -1.1256
  118SOPE   C3812489   1.928   2.730   5.519 -0.2575  0.2463  0.3849
  118SOPE   H8X12490   2.025   2.676   5.510  0.0529  1.0378 -1.3278
  118SOPE   H8Y12491   1.954   2.834   5.488 -0.7827  0.2646  0.0055
  118SOPE   C3912492   1.825   2.664   5.430  0.3994 -0.6587 -0.1975
  118SOPE   H9X12493   1.729   2.718   5.444 -0.0646 -1.3228 -0.7275
  118SOPE   H9Y12494   1.817   2.558   5.462 -0.3036 -0.2186  1.1643
  118SOPE  C31012495   1.866   2.680   5.283 -0.2854  0.1599  0.1275
  118SOPE  H10X12496   1.789   2.619   5.231  0.0388 -0.5897  0.5035
  118SOPE  H10Y12497   1.963   2.625   5.273 -1.0380 -1.3528  0.7987
  118SOPE  C31112498   1.862   2.819   5.226  0.0516  0.0226 -0.2386
  118SOPE  H11X12499   1.902   2.813   5.123  0.5634 -0.8163 -0.0001
  118SOPE  H11Y12500   1.938   2.882   5.276  0.0375 -0.0439 -0.1331
  118SOPE  C31212501   1.727   2.899   5.234 -0.2976  0.5577  0.3102
  118SOPE  H12X12502   1.730   2.932   5.341  0.8183 -1.3505  0.9169
  118SOPE  H12Y12503   1.635   2.845   5.201 -0.5405 -0.1181  1.9772
  118SOPE  C31312504   1.754   3.033   5.158  0.3657  0.0292 -0.4866
  118SOPE  H13X12505   1.778   2.998   5.055  2.9604  0.1678  0.0109
  118SOPE  H13Y12506   1.843   3.091   5.189  0.2287 -1.0798  2.2494
  118SOPE  C31412507   1.626   3.122   5.146  0.5469 -0.3567  0.5033
  118SOPE  H14X12508   1.646   3.208   5.078 -2.5487  0.9767  1.0641
  118SOPE  H14Y12509   1.592   3.162   5.244 -1.0529  0.4112 -0.3235
  118SOPE  C31512510   1.499   3.058   5.081  0.3164 -0.4925  0.4804
  118SOPE  H15X12511   1.404   3.115   5.091  1.0759  0.4655  2.9147
  118SOPE  H15Y12512   1.481   2.966   5.141  2.2056  0.6459  2.9879
  118SOPE  C31612513   1.520   3.000   4.935  0.0228  0.1204  0.2244
  118SOPE  H16X12514   1.609   2.935   4.923  1.5660  2.2841 -0.8374
  118SOPE  H16Y12515   1.531   3.094   4.877 -1.4498 -0.5649 -1.2256
  118SOPE  C31712516   1.400   2.917   4.896 -0.3852 -0.3034  0.1883
  118SOPE  H17X12517   1.315   2.989   4.896 -0.4648 -0.3817  1.0502
  118SOPE  H17Y12518   1.369   2.830   4.959 -2.8464 -0.1232 -0.6513
  118SOPE  C31812519   1.430   2.872   4.756  0.5502 -0.0257 -0.0265
  118SOPE  H18X12520   1.532   2.832   4.736  0.4779 -0.2091 -0.0306
  118SOPE  H18Y12521   1.439   2.958   4.687  1.8682 -0.4818 -0.4667
  118SOPE  H18Z12522   1.366   2.789   4.718  0.2175 -0.0087  0.4866
  119SOPE     N12523   2.983   1.958   6.675  0.1869  0.6823  0.0333
  119SOPE   HN112524   3.004   1.940   6.775 -0.6913 -0.1902  0.0747
  119SOPE   HN212525   2.940   2.053   6.667  1.5364  1.1543 -4.2243
  119SOPE   HN312526   2.913   1.888   6.643 -0.1681 -0.7807  3.6022
  119SOPE   C1212527   3.096   1.955   6.582  0.4154  0.2435 -0.5562
  119SOPE  H12A12528   3.178   2.017   6.623  0.6658 -0.1087 -0.5200
  119SOPE  H12B12529   3.064   1.996   6.484  2.9142  3.1859 -0.2730
  119SOPE   C1112530   3.141   1.811   6.556 -0.3423 -0.8232  0.7165
  119SOPE  H11A12531   3.222   1.806   6.480  0.3842  1.1413  1.3066
  119SOPE  H11B12532   3.047   1.771   6.513 -1.8470  1.7904  1.3365
  119SOPE     P12533   3.318   1.704   6.715  0.1561  0.4681 -0.2890
  119SOPE   O1312534   3.315   1.597   6.815  0.1962 -0.2704 -0.2944
  119SOPE   O1412535   3.385   1.826   6.753 -0.2534 -0.1390  0.3481
  119SOPE   O1212536   3.166   1.730   6.674  0.8321  0.8818 -0.1949
  119SOPE   O1112537   3.388   1.641   6.583 -0.0434  0.9922  0.2412
  119SOPE    C112538   3.352   1.507   6.535  0.0026 -0.1163 -0.0780
  119SOPE    HA12539   3.261   1.471   6.588 -0.0784  0.9503  0.5486
  119SOPE    HB12540   3.428   1.428   6.553 -0.5853 -0.9448 -1.0970
  119SOPE    C212541   3.323   1.514   6.375 -0.4708  0.2467 -0.0642
  119SOPE    HS12542   3.231   1.574   6.391 -0.4990 -0.2126  1.8103
  119SOPE   O2112543   3.276   1.389   6.339 -0.8641 -0.5879  0.2183
  119SOPE   C2112544   3.178   1.386   6.249 -0.0511 -0.3189  0.6033
  119SOPE   O2212545   3.114   1.482   6.205  0.3879  0.0328  0.3824
  119SOPE   C2212546   3.152   1.238   6.222 -0.1348 -0.7294 -0.2901
  119SOPE   H2R12547   3.069   1.200   6.286  1.1350 -1.0624  1.2325
  119SOPE   H2S12548   3.248   1.189   6.245  1.7715  1.2996 -3.2553
  119SOPE    C312549   3.428   1.581   6.278  0.0234 -0.2208 -0.6909
  119SOPE    HX12550   3.525   1.528   6.275  0.0898 -0.2103  0.4862
  119SOPE    HY12551   3.450   1.681   6.323 -0.0526 -0.8141  0.7346
  119SOPE   O3112552   3.378   1.586   6.138  0.2640  0.4630 -0.3243
  119SOPE   C3112553   3.308   1.703   6.105 -0.0481  0.1320 -0.7802
  119SOPE   O3212554   3.296   1.791   6.185 -0.0046  0.3047  0.3698
  119SOPE   C3212555   3.258   1.697   5.967  0.4527  0.0562  0.5817
  119SOPE   H2X12556   3.148   1.713   5.968  0.2059 -1.2892 -0.9687
  119SOPE   H2Y12557   3.276   1.596   5.925  0.7319  0.4095 -0.1582
  119SOPE   C2312558   3.118   1.201   6.073  0.5209 -0.5954 -0.8004
  119SOPE   H3R12559   3.148   1.095   6.058  2.4475 -0.4556  1.4837
  119SOPE   H3S12560   3.183   1.246   5.995  0.0365 -1.7919 -1.9329
  119SOPE   C2412561   2.968   1.211   6.037  0.4772 -0.0717  0.7878
  119SOPE   H4R12562   2.914   1.125   6.083  0.0228 -1.6837 -2.4724
  119SOPE   H4S12563   2.928   1.306   6.078 -0.5077 -0.4207  0.6466
  119SOPE   C2512564   2.946   1.227   5.887 -0.2866 -0.5156  0.5847
  119SOPE   H5R12565   3.004   1.144   5.841  2.7195  0.9221  1.4882
  119SOPE   H5S12566   2.840   1.222   5.855 -0.6536  0.9270  1.4890
  119SOPE   C2612567   3.003   1.366   5.835 -0.1922 -0.2880 -0.4181
  119SOPE   H6R12568   2.936   1.446   5.872  0.0705 -0.3749  0.2591
  119SOPE   H6S12569   3.104   1.379   5.878 -1.0927 -1.4845  2.2958
  119SOPE   C2712570   3.019   1.379   5.684  0.4881 -0.0273  0.2709
  119SOPE   H7R12571   3.067   1.283   5.653  0.6532 -0.1372  0.8614
  119SOPE   H7S12572   2.912   1.383   5.654  0.4071  1.7565  0.7202
  119SOPE   C2812573   3.100   1.492   5.631  0.1618 -0.6528  0.2599
  119SOPE   H8R12574   3.071   1.587   5.681  1.8148 -1.6511  3.3649
  119SOPE   H8S12575   3.205   1.462   5.650  0.2658 -2.1124 -2.1666
  119SOPE   C2912576   3.100   1.509   5.478  0.1570 -0.5341  0.0799
  119SOPE   H9112577   3.165   1.438   5.425  1.1246  1.4487 -1.5219
  119SOPE  C21012578   3.034   1.602   5.416  0.1239 -0.6630 -0.5747
  119SOPE  H10112579   3.034   1.603   5.306  0.8459  0.4881 -0.5858
  119SOPE  C21112580   2.945   1.709   5.469 -0.0503  0.3044  1.1390
  119SOPE  H11R12581   3.000   1.805   5.463 -0.1602  0.6758  4.2239
  119SOPE  H11S12582   2.912   1.689   5.574  0.7573  0.9482  1.5196
  119SOPE  C21212583   2.815   1.714   5.391 -0.9461  0.0648  0.2250
  119SOPE  H12R12584   2.758   1.789   5.449 -1.4145  0.4956 -0.7626
  119SOPE  H12S12585   2.751   1.623   5.389 -0.1545 -0.5030  0.3494
  119SOPE  C21312586   2.830   1.782   5.255  0.2169  0.1562  0.4931
  119SOPE  H13R12587   2.821   1.698   5.183  1.3030 -0.6903  1.3126
  119SOPE  H13S12588   2.935   1.815   5.239  0.8046 -1.2768  1.1945
  119SOPE  C21412589   2.714   1.871   5.235  0.0785  0.1378 -0.1412
  119SOPE  H14R12590   2.732   1.961   5.298 -0.0389  0.9536 -1.2534
  119SOPE  H14S12591   2.625   1.821   5.279  0.7342  0.9926  2.3651
  119SOPE  C21512592   2.673   1.915   5.094  0.1681  0.4531 -0.5858
  119SOPE  H15R12593   2.624   1.828   5.045 -2.1801  0.2657  1.8775
  119SOPE  H15S12594   2.760   1.936   5.028  0.9574 -0.6340  0.0648
  119SOPE  C21612595   2.570   2.034   5.095  0.0735  0.0447 -0.4913
  119SOPE  H16R12596   2.622   2.125   5.130 -0.2173  0.3665 -0.8837
  119SOPE  H16S12597   2.492   2.013   5.171 -0.0282  2.8354  0.2885
  119SOPE  C21712598   2.505   2.065   4.960 -0.1589  0.4830 -0.2985
  119SOPE  H17R12599   2.449   1.977   4.923  0.0463  1.1625 -2.3276
  119SOPE  H17S12600   2.588   2.086   4.888  1.3255 -0.7393  0.9626
  119SOPE  C21812601   2.416   2.183   4.967 -0.2281  0.7547  0.4845
  119SOPE  H18R12602   2.471   2.278   4.978 -0.7626  0.8529  3.0712
  119SOPE  H18S12603   2.361   2.174   5.064  1.2907 -1.6893  1.2158
  119SOPE  H18T12604   2.338   2.192   4.888  0.6480 -1.8131 -0.7844
  119SOPE   C3312605   3.345   1.790   5.882 -0.5477  0.1202  0.4011
  119SOPE   H3X12606   3.363   1.883   5.939 -2.6170  0.5742  0.3882
  119SOPE   H3Y12607   3.278   1.831   5.804  4.4227  2.5104 -3.1580
  119SOPE   C3412608   3.466   1.726   5.825 -0.0998 -0.7306 -0.2941
  119SOPE   H4X12609   3.446   1.638   5.761 -0.5968 -1.7487  1.2033
  119SOPE   H4Y12610   3.530   1.687   5.907 -0.2660 -2.5689 -1.0135
  119SOPE   C3512611   3.543   1.821   5.744  0.4594 -0.0480 -0.0381
  119SOPE   H5X12612   3.646   1.780   5.728 -0.1747 -1.4437 -0.7112
  119SOPE   H5Y12613   3.539   1.920   5.795  1.2851 -1.1262  2.2675
  119SOPE   C3612614   3.469   1.852   5.614 -0.4517  0.2995  0.3725
  119SOPE   H6X12615   3.524   1.935   5.565  0.4249 -0.6055 -0.2262
  119SOPE   H6Y12616   3.365   1.886   5.630 -0.8104 -0.9898  0.9534
  119SOPE   C3712617   3.457   1.724   5.524 -0.1214  0.5359 -0.0311
  119SOPE   H7X12618   3.391   1.643   5.562  2.1856 -0.3200  2.4317
  119SOPE   H7Y12619   3.553   1.668   5.531 -1.2248 -1.3638  0.6577
  119SOPE   C3812620   3.419   1.762   5.379  0.7597  0.0257  0.2663
  119SOPE   H8X12621   3.507   1.808   5.329  1.8313 -1.7010  0.4599
  119SOPE   H8Y12622   3.338   1.837   5.374 -1.9473 -2.7063 -0.0070
  119SOPE   C3912623   3.398   1.636   5.289 -0.1238 -0.7954 -0.1921
  119SOPE   H9X12624   3.330   1.563   5.338  2.4214 -2.3808  1.2386
  119SOPE   H9Y12625   3.502   1.598   5.276 -0.5732 -1.9276 -0.5968
  119SOPE  C31012626   3.349   1.682   5.145  0.6082 -0.3824  0.2020
  119SOPE  H10X12627   3.423   1.759   5.115  2.0307 -0.9419  2.0752
  119SOPE  H10Y12628   3.252   1.734   5.158 -0.0642 -1.5587 -0.0276
  119SOPE  C31112629   3.352   1.575   5.034 -0.3574 -0.3256 -0.3485
  119SOPE  H11X12630   3.302   1.479   5.057 -0.9085 -0.1758 -0.9027
  119SOPE  H11Y12631   3.459   1.551   5.014 -0.3163  0.6172 -1.3689
  119SOPE  C31212632   3.317   1.633   4.896  0.2320 -0.5133 -0.1550
  119SOPE  H12X12633   3.375   1.725   4.873 -2.1414  0.5953 -2.2260
  119SOPE  H12Y12634   3.210   1.660   4.900  0.3082  0.1949 -1.8910
  119SOPE  C31312635   3.334   1.535   4.787 -0.0701  0.7781  0.4696
  119SOPE  H13X12636   3.319   1.431   4.822 -2.4538  1.5479  1.9410
  119SOPE  H13Y12637   3.438   1.540   4.747 -0.3279 -1.3494 -0.6197
  119SOPE  C31412638   3.256   1.544   4.651  0.0864 -0.7803 -0.1059
  119SOPE  H14X12639   3.292   1.630   4.591  0.3963  0.9753  2.4498
  119SOPE  H14Y12640   3.151   1.568   4.680  0.4666  0.3116  0.3938
  119SOPE  C31512641   3.265   1.412   4.562 -0.1606 -0.2612 -0.2097
  119SOPE  H15X12642   3.235   1.320   4.617 -1.2674  0.8473  1.1029
  119SOPE  H15Y12643   3.373   1.410   4.538  0.3860  0.8612  1.8829
  119SOPE  C31612644   3.195   1.433   4.422 -0.1545  0.7264  0.1732
  119SOPE  H16X12645   3.244   1.521   4.376  2.3866 -1.3172 -1.3520
  119SOPE  H16Y12646   3.087   1.454   4.432 -0.2332  0.6524 -0.5217
  119SOPE  C31712647   3.198   1.311   4.327  0.3118  0.6431 -0.0830
  119SOPE  H17X12648   3.303   1.275   4.334 -0.3854 -1.3991  0.4409
  119SOPE  H17Y12649   3.176   1.341   4.222 -0.8279  0.1140 -0.0142
  119SOPE  C31812650   3.112   1.192   4.369 -0.1643  0.5802 -0.4202
  119SOPE  H18X12651   3.149   1.134   4.456  0.3596  2.0155  0.3510
  119SOPE  H18Y12652   3.095   1.121   4.285 -0.1896 -0.3662  0.3642
  119SOPE  H18Z12653   3.013   1.227   4.404 -0.0286  1.8721 -1.2380
  120SOPE     N12654   1.875   0.843   6.413  0.8513  0.1087 -0.0012
  120SOPE   HN112655   1.862   0.756   6.356  1.4889  0.8171 -1.2588
  120SOPE   HN212656   1.807   0.913   6.377  0.6977 -0.5692 -1.0890
  120SOPE   HN312657   1.970   0.881   6.397  0.9241 -0.7342 -1.8387
  120SOPE   C1212658   1.876   0.818   6.560  0.3074 -0.0769  0.3822
  120SOPE  H12A12659   1.782   0.771   6.596  0.1630  1.4218  2.1112
  120SOPE  H12B12660   1.894   0.912   6.618  0.9146 -0.0839  0.2167
  120SOPE   C1112661   1.992   0.719   6.590  0.7303 -0.4239  0.8963
  120SOPE  H11A12662   1.999   0.704   6.700  1.7702  1.6612  1.1672
  120SOPE  H11B12663   2.089   0.766   6.564  1.4505 -1.8586  0.9509
  120SOPE     P12664   1.924   0.456   6.577  0.0391 -0.4762 -0.1453
  120SOPE   O1312665   1.777   0.461   6.572 -0.1160  0.5839  0.0668
  120SOPE   O1412666   1.980   0.431   6.715 -0.3764  0.2071  0.3619
  120SOPE   O1212667   1.972   0.596   6.519  0.6795 -0.3067 -0.4245
  120SOPE   O1112668   1.972   0.345   6.473  0.1230  0.4145  0.6410
  120SOPE    C112669   2.092   0.358   6.397 -0.2238 -0.7039  0.3355
  120SOPE    HA12670   2.140   0.259   6.382  1.6506  0.5014 -2.2554
  120SOPE    HB12671   2.160   0.430   6.447 -1.7348 -1.0268  3.0560
  120SOPE    C212672   2.056   0.400   6.250  0.0117 -0.1339  0.3543
  120SOPE    HS12673   1.993   0.490   6.266  1.1793  0.5250  1.4761
  120SOPE   O2112674   1.996   0.289   6.175  0.0394  0.1499  0.0772
  120SOPE   C2112675   1.892   0.323   6.098 -0.1051 -0.2122 -0.5247
  120SOPE   O2212676   1.846   0.437   6.093  0.1339  0.1398  0.0198
  120SOPE   C2212677   1.843   0.189   6.036 -0.5532 -0.2823 -0.2295
  120SOPE   H2R12678   1.799   0.139   6.124 -0.5001 -0.1693 -0.1382
  120SOPE   H2S12679   1.928   0.135   5.989 -1.0346  0.1856 -1.7190
  120SOPE    C312680   2.170   0.460   6.157  0.0643 -0.0991  0.2561
  120SOPE    HX12681   2.247   0.382   6.136 -0.4997 -0.7053  0.3908
  120SOPE    HY12682   2.226   0.540   6.209 -1.2054  0.3696  0.9346
  120SOPE   O3112683   2.103   0.505   6.032 -0.3981  0.1474  0.1042
  120SOPE   C3112684   2.069   0.636   6.025  0.8781  0.4387  0.1855
  120SOPE   O3212685   2.100   0.725   6.099  0.2291 -0.0238  0.3907
  120SOPE   C3212686   1.989   0.668   5.899  0.3802 -0.5897  0.0126
  120SOPE   H2X12687   1.956   0.774   5.909  1.0246 -0.4820  1.1385
  120SOPE   H2Y12688   1.901   0.600   5.905  1.7526 -2.3654  0.6863
  120SOPE   C2312689   1.741   0.211   5.915  0.1327  0.4064 -0.8234
  120SOPE   H3R12690   1.663   0.284   5.948  0.6792  1.2733 -1.4022
  120SOPE   H3S12691   1.693   0.115   5.889 -0.9285  0.6548  0.1204
  120SOPE   C2412692   1.806   0.263   5.786  0.0463  0.6187 -0.2877
  120SOPE   H4R12693   1.853   0.360   5.812  1.6925 -0.9316  3.1537
  120SOPE   H4S12694   1.884   0.191   5.754  0.9834  0.6896  1.6779
  120SOPE   C2512695   1.706   0.271   5.672  0.3291  0.0094  0.2368
  120SOPE   H5R12696   1.656   0.172   5.673  0.3497 -0.0015  0.1779
  120SOPE   H5S12697   1.624   0.339   5.703 -0.0317 -0.3904  0.1679
  120SOPE   C2612698   1.771   0.302   5.538 -0.5711 -0.7846 -0.5642
  120SOPE   H6R12699   1.838   0.391   5.532  1.3342 -2.1160  0.1175
  120SOPE   H6S12700   1.842   0.217   5.533  1.3864  0.7930 -0.4897
  120SOPE   C2712701   1.663   0.308   5.427  0.0486  0.1348  0.0118
  120SOPE   H7R12702   1.606   0.213   5.417  0.0067  0.2154 -0.5180
  120SOPE   H7S12703   1.592   0.387   5.459 -0.6941 -1.3589  2.2836
  120SOPE   C2812704   1.722   0.328   5.283  0.2728 -0.7100 -0.0707
  120SOPE   H8R12705   1.801   0.403   5.303  0.0923 -0.3575 -0.6729
  120SOPE   H8S12706   1.763   0.230   5.251 -0.8051 -1.8595  1.8507
  120SOPE   C2912707   1.615   0.376   5.190 -0.5619 -0.0417  0.5066
  120SOPE   H9112708   1.541   0.446   5.233 -1.5524 -0.0824 -1.0380
  120SOPE  C21012709   1.599   0.341   5.062 -0.0132  0.1085 -0.4352
  120SOPE  H10112710   1.515   0.374   4.998 -0.6241  0.4413  0.5146
  120SOPE  C21112711   1.686   0.241   4.983 -0.4254 -0.3697  0.2599
  120SOPE  H11R12712   1.621   0.158   4.946 -1.8829  0.8392  0.0197
  120SOPE  H11S12713   1.776   0.202   5.034 -1.1102 -3.3927 -0.6155
  120SOPE  C21212714   1.745   0.293   4.850 -0.2282 -0.8738 -0.4717
  120SOPE  H12R12715   1.808   0.215   4.803  0.3099  1.7167 -4.5102
  120SOPE  H12S12716   1.812   0.376   4.883  0.1765 -1.3816 -0.0013
  120SOPE  C21312717   1.650   0.352   4.745 -0.7310 -0.0814  0.2027
  120SOPE  H13R12718   1.712   0.357   4.653 -1.9022  0.9805 -0.5595
  120SOPE  H13S12719   1.622   0.455   4.776 -2.0953 -0.1178 -0.8227
  120SOPE  C21412720   1.529   0.271   4.708 -0.1396 -0.1918 -0.4080
  120SOPE  H14R12721   1.488   0.219   4.797 -0.5747 -0.7043 -0.9010
  120SOPE  H14S12722   1.558   0.190   4.638 -0.3732 -1.5242  0.9804
  120SOPE  C21512723   1.427   0.367   4.641  0.0942 -0.0135 -0.0073
  120SOPE  H15R12724   1.406   0.449   4.713  1.1247 -1.0425  1.5379
  120SOPE  H15S12725   1.330   0.315   4.630 -0.0958  0.5153 -0.9478
  120SOPE  C21612726   1.468   0.417   4.509  1.0980  0.3046  0.3179
  120SOPE  H16R12727   1.476   0.325   4.446  0.3878  1.0116 -0.8295
  120SOPE  H16S12728   1.566   0.468   4.516  0.9532  0.6358 -0.0604
  120SOPE  C21712729   1.359   0.506   4.442 -0.8643 -0.5251 -0.0850
  120SOPE  H17R12730   1.301   0.571   4.511 -2.2116  1.0540 -2.5677
  120SOPE  H17S12731   1.286   0.433   4.401  0.1891 -1.9684  0.5294
  120SOPE  C21812732   1.401   0.577   4.315  0.2629 -0.3411  0.3493
  120SOPE  H18R12733   1.306   0.602   4.264 -0.4460  1.8906  2.5489
  120SOPE  H18S12734   1.479   0.524   4.256  1.0472 -0.6763  1.6552
  120SOPE  H18T12735   1.439   0.680   4.335 -1.3922  0.8179 -1.9219
  120SOPE   C3312736   2.057   0.662   5.763 -0.4725 -0.3190 -0.3058
  120SOPE   H3X12737   2.111   0.565   5.769 -1.9652 -1.2392 -1.1117
  120SOPE   H3Y12738   2.125   0.750   5.763  0.2060 -0.8412  0.6743
  120SOPE   C3412739   1.962   0.666   5.646 -0.3564 -0.0548 -0.3395
  120SOPE   H4X12740   1.923   0.770   5.651  2.5193  1.0887  1.5979
  120SOPE   H4Y12741   1.878   0.594   5.642 -0.0074 -0.3930 -2.4280
  120SOPE   C3512742   2.034   0.653   5.513 -0.7778 -0.4821 -0.7111
  120SOPE   H5X12743   2.065   0.547   5.505 -1.7592 -0.8360 -0.0149
  120SOPE   H5Y12744   2.131   0.708   5.515  0.5994 -2.7912  0.4196
  120SOPE   C3612745   1.951   0.707   5.395  0.6274  0.7789  0.0756
  120SOPE   H6X12746   1.926   0.811   5.424  1.3653  0.9944 -0.0210
  120SOPE   H6Y12747   1.867   0.636   5.403  1.7722 -0.4711  1.5806
  120SOPE   C3712748   2.022   0.694   5.262  0.5605  0.0168 -0.5539
  120SOPE   H7X12749   2.066   0.593   5.248 -0.5024 -0.2647 -2.1734
  120SOPE   H7Y12750   2.102   0.771   5.255  0.8359 -0.3902 -2.5939
  120SOPE   C3812751   1.918   0.719   5.152  0.1982  0.2942 -0.1015
  120SOPE   H8X12752   1.896   0.828   5.162  1.1406  0.5650 -0.8692
  120SOPE   H8Y12753   1.830   0.655   5.176  0.1437  0.3253 -0.2208
  120SOPE   C3912754   1.965   0.686   5.011  0.2528 -0.1659 -0.2992
  120SOPE   H9X12755   1.998   0.580   5.012 -0.3749 -0.3851  1.7781
  120SOPE   H9Y12756   2.058   0.747   5.008  0.1429  0.4514  3.4430
  120SOPE  C31012757   1.859   0.710   4.901 -0.7386  0.1484  0.2575
  120SOPE  H10X12758   1.842   0.820   4.894  3.5030  0.9058 -0.8361
  120SOPE  H10Y12759   1.765   0.661   4.933 -0.7088  0.2996  0.5812
  120SOPE  C31112760   1.913   0.668   4.759  0.4494 -0.2846 -0.4398
  120SOPE  H11X12761   1.842   0.691   4.677  1.4447 -0.6259 -1.4090
  120SOPE  H11Y12762   1.923   0.559   4.744 -0.9479 -0.3699 -0.9424
  120SOPE  C31212763   2.051   0.733   4.733  0.5888 -0.2999 -0.1116
  120SOPE  H12X12764   2.137   0.688   4.786  2.2689  1.7321 -0.9487
  120SOPE  H12Y12765   2.042   0.835   4.777 -1.6907 -1.2334  1.8144
  120SOPE  C31312766   2.092   0.744   4.583  0.2330  0.5046 -0.9423
  120SOPE  H13X12767   2.003   0.785   4.530 -0.5838  1.3446  1.0127
  120SOPE  H13Y12768   2.117   0.641   4.549  3.3054 -0.3012  3.0715
  120SOPE  C31412769   2.220   0.830   4.568 -0.1621 -0.9079 -0.3921
  120SOPE  H14X12770   2.303   0.761   4.595  0.0707 -0.8756 -0.9928
  120SOPE  H14Y12771   2.216   0.922   4.630  0.8883 -0.8022 -0.4590
  120SOPE  C31512772   2.232   0.876   4.423 -0.5683 -0.1028  0.3464
  120SOPE  H15X12773   2.135   0.925   4.404  0.4023  1.9237  0.3644
  120SOPE  H15Y12774   2.240   0.785   4.359  0.1736 -0.2349  0.6159
  120SOPE  C31612775   2.341   0.980   4.404 -0.4995  0.1255 -0.4390
  120SOPE  H16X12776   2.438   0.940   4.440 -1.2101 -0.4346  0.9447
  120SOPE  H16Y12777   2.319   1.066   4.471  2.5447 -0.1381  1.0916
  120SOPE  C31712778   2.361   1.030   4.262 -0.1904  0.5233 -0.2854
  120SOPE  H17X12779   2.447   1.101   4.268 -0.5066  0.9662 -0.9896
  120SOPE  H17Y12780   2.278   1.099   4.238 -1.0649 -0.4354 -0.0524
  120SOPE  C31812781   2.373   0.932   4.149 -0.2963 -0.3458  0.5240
  120SOPE  H18X12782   2.452   0.860   4.180  1.5409  1.3368 -0.0105
  120SOPE  H18Y12783   2.413   0.982   4.059 -1.1801  0.8531  0.7802
  120SOPE  H18Z12784   2.283   0.878   4.115  0.6947 -0.8595 -1.4280
  121SOPE     N12785   5.087   5.059   6.515  1.3381 -0.1761 -0.3161
  121SOPE   HN112786   5.155   4.989   6.550 -0.0747 -0.5795  1.8191
  121SOPE   HN212787   5.104   5.151   6.560 -1.4112  0.5771 -0.6815
  121SOPE   HN312788   4.988   5.040   6.540  1.0962  0.8528 -0.4646
  121SOPE   C1212789   5.090   5.076   6.365  0.0070 -0.0267  0.7729
  121SOPE  H12A12790   5.032   5.165   6.330  1.6658  0.2698 -1.4583
  121SOPE  H12B12791   5.035   4.990   6.321  0.5598  1.4946 -3.4472
  121SOPE   C1112792   5.232   5.072   6.312 -0.5329 -0.3436 -0.9263
  121SOPE  H11A12793   5.228   5.100   6.205  1.8644 -0.5746 -1.1276
  121SOPE  H11B12794   5.271   4.968   6.314 -0.2771 -0.2442 -0.6360
  121SOPE     P12795   5.442   5.137   6.447  0.2634 -0.0438 -0.1410
  121SOPE   O1312796   5.388   5.046   6.550  0.6022  0.3460 -0.3189
  121SOPE   O1412797   5.518   5.252   6.503 -0.0898 -0.0349 -0.5647
  121SOPE   O1212798   5.314   5.178   6.360 -0.5493  0.0041  0.0422
  121SOPE   O1112799   5.530   5.045   6.351  0.2250 -0.2257 -0.2390
  121SOPE    C112800   5.639   5.080   6.274 -0.0034 -0.2882 -0.3910
  121SOPE    HA12801   5.728   5.014   6.280 -0.1690 -0.5708 -1.0302
  121SOPE    HB12802   5.676   5.182   6.301 -1.0180 -0.3982  1.5925
  121SOPE    C212803   5.592   5.093   6.125 -0.4497  0.3463  0.5851
  121SOPE    HS12804   5.669   5.142   6.060 -0.6171 -2.3234 -1.7886
  121SOPE   O2112805   5.468   5.153   6.096 -0.4419 -0.0666 -0.7795
  121SOPE   C2112806   5.463   5.283   6.122  0.5526 -0.3974 -0.3572
  121SOPE   O2212807   5.560   5.353   6.143  0.0810  0.3563  0.1329
  121SOPE   C2212808   5.320   5.344   6.105  1.3236 -0.5451  0.1713
  121SOPE   H2R12809   5.281   5.390   6.198 -0.0385  0.1725 -0.7282
  121SOPE   H2S12810   5.254   5.258   6.082  3.4018 -1.4738 -3.0830
  121SOPE    C312811   5.583   4.943   6.077 -0.1101  0.9518  1.0721
  121SOPE    HX12812   5.519   4.893   6.152 -0.9289  0.9183  0.3618
  121SOPE    HY12813   5.681   4.891   6.082 -0.5588  0.1549  1.7323
  121SOPE   O3112814   5.520   4.926   5.951 -0.2660  0.5338 -0.1803
  121SOPE   C3112815   5.606   4.945   5.850  0.5758 -0.0379 -0.4623
  121SOPE   O3212816   5.725   4.964   5.867  0.1360  1.0401 -0.1707
  121SOPE   C3212817   5.535   4.923   5.714 -0.2185  0.0428 -0.8364
  121SOPE   H2X12818   5.462   4.843   5.739  1.5156 -0.5786  3.0641
  121SOPE   H2Y12819   5.603   4.884   5.636  0.8687  3.7582 -1.9599
  121SOPE   C2312820   5.323   5.450   5.996 -0.1498 -0.3159 -0.0677
  121SOPE   H3R12821   5.409   5.519   6.014 -0.5822  0.0186  0.7418
  121SOPE   H3S12822   5.233   5.514   6.009  0.0603 -0.5667  3.4545
  121SOPE   C2412823   5.338   5.401   5.851  0.1201 -0.0284  0.4586
  121SOPE   H4R12824   5.426   5.334   5.844  0.5749  0.5848  0.1801
  121SOPE   H4S12825   5.248   5.340   5.830  0.1560  0.0208  0.1643
  121SOPE   C2512826   5.355   5.504   5.736  0.0459  0.0579  0.3203
  121SOPE   H5R12827   5.314   5.603   5.765 -0.8937  0.3076 -1.7100
  121SOPE   H5S12828   5.461   5.537   5.726  0.0807  1.5491  3.9267
  121SOPE   C2612829   5.302   5.464   5.597 -0.6625 -0.4277  0.1074
  121SOPE   H6R12830   5.308   5.355   5.576 -1.0655 -0.5391  0.5505
  121SOPE   H6S12831   5.196   5.497   5.584 -0.9171 -1.2068  0.1483
  121SOPE   C2712832   5.369   5.525   5.468  0.0179 -0.6147 -0.6042
  121SOPE   H7R12833   5.361   5.636   5.458 -0.9070 -0.7218 -1.0886
  121SOPE   H7S12834   5.474   5.488   5.466 -0.4202 -2.0077  0.5006
  121SOPE   C2812835   5.300   5.465   5.339  0.3356 -0.0347  0.1988
  121SOPE   H8R12836   5.325   5.356   5.341 -0.8158 -0.3040  2.1502
  121SOPE   H8S12837   5.190   5.470   5.356  0.2476  0.9510 -0.5884
  121SOPE   C2912838   5.339   5.535   5.217 -0.4673 -1.0722  0.6106
  121SOPE   H9112839   5.439   5.580   5.219 -0.5006 -0.9670  0.0911
  121SOPE  C21012840   5.261   5.574   5.120 -0.0932 -0.2834  0.3795
  121SOPE  H10112841   5.305   5.625   5.033 -0.6090 -1.0260 -0.3318
  121SOPE  C21112842   5.115   5.552   5.112  0.5372 -0.1685 -0.9096
  121SOPE  H11R12843   5.063   5.535   5.209  1.3945  3.6121  0.3873
  121SOPE  H11S12844   5.081   5.464   5.053  2.6161 -2.0537  0.5603
  121SOPE  C21212845   5.038   5.672   5.054  0.1079 -0.1678  0.3624
  121SOPE  H12R12846   5.068   5.764   5.108 -2.4562 -0.8836  3.3008
  121SOPE  H12S12847   4.930   5.659   5.077  0.2374  1.3289  2.0659
  121SOPE  C21312848   5.050   5.691   4.898 -0.1436 -0.1816 -0.4844
  121SOPE  H13R12849   5.012   5.603   4.842  1.2839 -0.8104 -0.5102
  121SOPE  H13S12850   5.152   5.709   4.857 -1.2075  0.9997 -2.8381
  121SOPE  C21412851   4.963   5.801   4.842 -0.4380  0.2056  0.7740
  121SOPE  H14R12852   4.980   5.897   4.895 -3.6038  1.1902  0.2228
  121SOPE  H14S12853   4.856   5.779   4.858 -0.3196 -1.8976 -0.9369
  121SOPE  C21512854   4.982   5.840   4.697 -0.1194 -0.6148  0.3052
  121SOPE  H15R12855   5.088   5.869   4.678  0.1144 -2.6972 -2.1951
  121SOPE  H15S12856   4.910   5.922   4.675 -0.6496 -1.8363 -3.0324
  121SOPE  C21612857   4.953   5.724   4.600  0.6061  0.7748  0.0806
  121SOPE  H16R12858   4.852   5.678   4.609  1.3684 -1.1103 -0.4887
  121SOPE  H16S12859   5.027   5.647   4.630 -0.6681 -0.0732  1.1595
  121SOPE  C21712860   4.991   5.760   4.449  0.1289  0.3763 -0.2733
  121SOPE  H17R12861   5.096   5.796   4.446 -0.5874  2.6524  0.1812
  121SOPE  H17S12862   4.922   5.841   4.418  1.1974  0.8611 -1.4671
  121SOPE  C21812863   4.989   5.634   4.346  0.3155 -0.0743 -0.1157
  121SOPE  H18R12864   4.882   5.617   4.318  0.2985  2.0256 -1.4977
  121SOPE  H18S12865   5.035   5.551   4.404  0.2106 -0.5569 -0.7015
  121SOPE  H18T12866   5.059   5.655   4.262  0.6170 -3.3811 -0.8424
  121SOPE   C3312867   5.451   5.046   5.678  0.6624  0.3230  0.0872
  121SOPE   H3X12868   5.444   5.122   5.759 -1.3413 -1.2585  1.4980
  121SOPE   H3Y12869   5.344   5.023   5.658  0.5496  1.3354 -0.5290
  121SOPE   C3412870   5.511   5.099   5.553 -0.4019 -0.0477 -0.0241
  121SOPE   H4X12871   5.620   5.076   5.554  0.2953  2.6745 -1.6659
  121SOPE   H4Y12872   5.508   5.210   5.562  0.7568 -0.1540  2.7472
  121SOPE   C3512873   5.452   5.049   5.425 -0.1660 -0.0771  0.8861
  121SOPE   H5X12874   5.341   5.051   5.429 -0.1786  0.4255  0.4188
  121SOPE   H5Y12875   5.478   4.943   5.409 -2.3988 -0.4508 -0.8657
  121SOPE   C3612876   5.511   5.129   5.307 -0.0429 -0.2510 -0.3625
  121SOPE   H6X12877   5.621   5.115   5.305 -0.1248 -0.8050 -1.8867
  121SOPE   H6Y12878   5.499   5.238   5.321  1.8492  0.1218 -1.4537
  121SOPE   C3712879   5.465   5.079   5.172 -0.7704  0.5001 -0.1826
  121SOPE   H7X12880   5.491   4.971   5.159 -2.7114 -0.3095  1.9438
  121SOPE   H7Y12881   5.527   5.133   5.097  2.7388 -1.3685  1.1242
  121SOPE   C3812882   5.317   5.105   5.133  0.1242  0.0066  0.3176
  121SOPE   H8X12883   5.298   5.206   5.174  2.0486  0.5630 -0.0658
  121SOPE   H8Y12884   5.258   5.035   5.195  2.2040 -3.3637 -1.2218
  121SOPE   C3912885   5.275   5.114   4.979  0.1858 -0.0951 -0.7842
  121SOPE   H9X12886   5.250   5.016   4.934 -0.2351 -0.6270  0.5513
  121SOPE   H9Y12887   5.352   5.166   4.918 -1.1744  1.7516 -0.9858
  121SOPE  C31012888   5.143   5.196   4.964 -0.0533  0.8043  0.1167
  121SOPE  H10X12889   5.153   5.285   5.030 -2.9945  0.8827  0.5739
  121SOPE  H10Y12890   5.052   5.142   4.996 -0.5952  1.6174 -0.0389
  121SOPE  C31112891   5.115   5.262   4.829 -0.5099 -0.1495  0.4167
  121SOPE  H11X12892   5.218   5.287   4.795 -0.3433  0.9168  1.6337
  121SOPE  H11Y12893   5.056   5.356   4.836  0.2840  0.6874 -2.4508
  121SOPE  C31212894   5.049   5.176   4.723 -0.9524 -0.1656 -0.9322
  121SOPE  H12X12895   4.962   5.126   4.771 -1.3330  1.1458 -0.2186
  121SOPE  H12Y12896   5.118   5.093   4.696  1.5488  1.7042 -0.6401
  121SOPE  C31312897   5.012   5.256   4.606 -0.1380  0.6963  0.1355
  121SOPE  H13X12898   5.014   5.182   4.523  0.5798 -0.4099  1.0973
  121SOPE  H13Y12899   5.100   5.320   4.582  0.8811 -1.1066 -1.2024
  121SOPE  C31412900   4.886   5.345   4.610  0.4303  0.0740 -0.7425
  121SOPE  H14X12901   4.887   5.408   4.519  1.6574 -1.5091 -1.8670
  121SOPE  H14Y12902   4.895   5.424   4.688 -0.2578  0.1765 -0.7598
  121SOPE  C31512903   4.751   5.270   4.639 -0.0557 -0.5042  0.0452
  121SOPE  H15X12904   4.694   5.341   4.703  1.3355  0.1959  0.5647
  121SOPE  H15Y12905   4.767   5.177   4.696 -2.3902 -1.3653 -0.5803
  121SOPE  C31612906   4.679   5.250   4.507  0.4597  0.1877  0.8263
  121SOPE  H16X12907   4.737   5.187   4.436 -0.0154 -0.4702  1.0116
  121SOPE  H16Y12908   4.662   5.347   4.457 -1.5520 -1.0506 -1.0494
  121SOPE  C31712909   4.544   5.184   4.512  0.6479 -0.0784  0.2895
  121SOPE  H17X12910   4.516   5.158   4.407  0.2694 -1.7394  0.7612
  121SOPE  H17Y12911   4.483   5.269   4.548 -0.5345 -0.1271 -1.4378
  121SOPE  C31812912   4.520   5.062   4.606 -0.0823 -0.9188 -0.3868
  121SOPE  H18X12913   4.416   5.023   4.601  0.0500 -1.7195  1.9539
  121SOPE  H18Y12914   4.532   5.096   4.711 -1.1720 -0.1838 -0.4829
  121SOPE  H18Z12915   4.595   4.983   4.581  1.6655  1.3773 -3.0715
  122SOPE     N12916   3.958   4.435   6.557 -0.1820  0.1746  0.0131
  122SOPE   HN112917   4.016   4.352   6.580 -0.7174 -0.6703 -1.5237
  122SOPE   HN212918   3.965   4.515   6.623  0.5928  2.0265 -2.1747
  122SOPE   HN312919   3.862   4.397   6.564  0.7624 -2.3088  0.5490
  122SOPE   C1212920   4.001   4.475   6.420  0.3755  0.2179 -0.5441
  122SOPE  H12A12921   3.940   4.565   6.398  0.3813  0.3565 -0.0025
  122SOPE  H12B12922   3.975   4.390   6.353  0.5407  0.9539 -1.5580
  122SOPE   C1112923   4.145   4.519   6.420 -0.3637  0.4898 -0.2602
  122SOPE  H11A12924   4.163   4.558   6.318 -0.1909  1.9151  0.2900
  122SOPE  H11B12925   4.224   4.440   6.423 -0.2488  0.6230  0.3956
  122SOPE     P12926   4.302   4.716   6.513  0.4084 -0.1391  0.1043
  122SOPE   O1312927   4.427   4.650   6.561 -0.5095  0.1809  0.2876
  122SOPE   O1412928   4.252   4.834   6.588 -0.4708  0.0665 -0.5562
  122SOPE   O1212929   4.185   4.611   6.517 -0.3868 -0.1828 -0.2437
  122SOPE   O1112930   4.317   4.745   6.364  0.0995 -0.0466 -0.2067
  122SOPE    C112931   4.274   4.865   6.300 -0.4161  0.5541  0.8213
  122SOPE    HA12932   4.341   4.953   6.290 -1.5438  1.3160 -0.4553
  122SOPE    HB12933   4.180   4.903   6.345 -0.3346 -0.3300  1.7577
  122SOPE    C212934   4.255   4.823   6.152  0.0738  0.5667  0.0643
  122SOPE    HS12935   4.270   4.913   6.088 -3.0625 -0.8315 -2.9650
  122SOPE   O2112936   4.128   4.759   6.120  0.0874  0.4603  0.0201
  122SOPE   C2112937   4.033   4.841   6.078 -0.6637  1.0603 -0.0443
  122SOPE   O2212938   4.034   4.964   6.080  0.0383 -0.3078 -0.1365
  122SOPE   C2212939   3.920   4.756   6.027 -0.5645 -0.0330 -0.2016
  122SOPE   H2R12940   3.853   4.737   6.114  0.5468 -1.7940  0.3137
  122SOPE   H2S12941   3.959   4.657   5.997 -0.8135 -0.0045 -0.6259
  122SOPE    C312942   4.365   4.724   6.102  0.3828 -0.4255 -0.2584
  122SOPE    HX12943   4.332   4.624   6.137 -0.2556  0.3108  1.3247
  122SOPE    HY12944   4.454   4.742   6.166 -1.2494  0.2842  1.9384
  122SOPE   O3112945   4.390   4.733   5.962 -0.9187 -0.3818  1.1215
  122SOPE   C3112946   4.473   4.649   5.908  0.6020 -0.1104  0.3635
  122SOPE   O3212947   4.523   4.559   5.969  0.6731  0.1305  0.2189
  122SOPE   C3212948   4.489   4.682   5.753  0.2179  0.6091  0.2999
  122SOPE   H2X12949   4.504   4.790   5.737  2.3397  0.0579 -1.9903
  122SOPE   H2Y12950   4.393   4.656   5.705  1.0981  1.0653 -1.7906
  122SOPE   C2312951   3.855   4.817   5.906  0.3878 -0.7097 -0.2404
  122SOPE   H3R12952   3.840   4.926   5.913 -1.0096 -0.9223  0.3751
  122SOPE   H3S12953   3.750   4.780   5.895 -0.0175 -0.1356  1.4780
  122SOPE   C2412954   3.929   4.791   5.773  0.3320 -0.1870  0.9182
  122SOPE   H4R12955   3.938   4.684   5.747 -0.8732  0.1735 -1.1497
  122SOPE   H4S12956   3.864   4.824   5.690  2.4320  1.7684 -0.0633
  122SOPE   C2512957   4.063   4.869   5.755 -1.3401  1.0314  0.6847
  122SOPE   H5R12958   4.039   4.977   5.760 -1.8192  0.9586  0.0648
  122SOPE   H5S12959   4.135   4.838   5.834  1.7466 -1.0223 -2.6573
  122SOPE   C2612960   4.116   4.836   5.616  0.5100  0.5969  0.3590
  122SOPE   H6R12961   4.145   4.730   5.598 -0.8905  0.6445 -2.9277
  122SOPE   H6S12962   4.028   4.849   5.549  0.4762  1.9079  0.6431
  122SOPE   C2712963   4.234   4.925   5.593  0.3175 -0.1684 -0.2712
  122SOPE   H7R12964   4.196   5.025   5.563 -1.6722 -1.0994 -1.0694
  122SOPE   H7S12965   4.303   4.941   5.679  1.2815 -2.5300 -0.5439
  122SOPE   C2812966   4.314   4.870   5.468  0.2004 -0.4744  0.5197
  122SOPE   H8R12967   4.349   4.769   5.495 -0.4061 -0.9621 -0.4271
  122SOPE   H8S12968   4.257   4.857   5.373  0.8402 -3.0756  0.4313
  122SOPE   C2912969   4.431   4.962   5.442  0.0937 -0.2372 -0.1940
  122SOPE   H9112970   4.510   4.948   5.517 -1.4902 -0.6604  1.4594
  122SOPE  C21012971   4.464   5.041   5.338  0.4837 -1.0849  0.2929
  122SOPE  H10112972   4.558   5.096   5.351  1.2054 -1.9486 -1.0531
  122SOPE  C21112973   4.393   5.046   5.204  0.7616  0.0512 -0.6550
  122SOPE  H11R12974   4.411   5.145   5.157  0.8916  0.6481  0.6232
  122SOPE  H11S12975   4.286   5.033   5.230  0.8851  0.2369 -0.0442
  122SOPE  C21212976   4.448   4.933   5.110  0.4643 -0.6202  0.2067
  122SOPE  H12R12977   4.382   4.933   5.021 -0.1389 -1.1232  0.6414
  122SOPE  H12S12978   4.447   4.832   5.157  1.2661 -1.1750 -0.9160
  122SOPE  C21312979   4.588   4.968   5.051  0.2351 -0.1835 -0.1124
  122SOPE  H13R12980   4.652   4.991   5.139 -1.2118  0.5909  0.7964
  122SOPE  H13S12981   4.570   5.064   4.998  0.3360  0.1810  0.5045
  122SOPE  C21412982   4.650   4.861   4.963 -0.5237 -0.5318 -0.9135
  122SOPE  H14R12983   4.582   4.845   4.877 -0.9028 -0.2631 -0.6642
  122SOPE  H14S12984   4.667   4.764   5.014 -0.2250 -0.0908 -0.1665
  122SOPE  C21512985   4.783   4.908   4.896 -0.5609 -0.4657  0.3674
  122SOPE  H15R12986   4.856   4.943   4.972 -1.5969  0.1879  1.0865
  122SOPE  H15S12987   4.767   5.003   4.841 -0.6787 -1.6689 -1.7814
  122SOPE  C21612988   4.832   4.790   4.811  0.3332  1.3963 -0.3187
  122SOPE  H16R12989   4.766   4.784   4.722  0.7297  0.3155 -0.5497
  122SOPE  H16S12990   4.826   4.691   4.861 -0.9542  1.5392 -0.1473
  122SOPE  C21712991   4.976   4.806   4.759  0.7226 -0.6206 -0.6337
  122SOPE  H17R12992   5.050   4.817   4.842  0.5146  2.1104 -0.7148
  122SOPE  H17S12993   4.982   4.903   4.705  1.2748  0.6610  1.6028
  122SOPE  C21812994   5.022   4.699   4.666 -0.4108 -0.0984 -0.7393
  122SOPE  H18R12995   5.105   4.734   4.600  0.4364  0.4940  0.6099
  122SOPE  H18S12996   4.947   4.668   4.590 -1.9670 -0.6331  0.9520
  122SOPE  H18T12997   5.048   4.604   4.717 -3.0449 -1.4640 -1.7321
  122SOPE   C3312998   4.601   4.607   5.686 -0.5683  0.0511  0.1362
  122SOPE   H3X12999   4.603   4.499   5.712  3.0771 -0.7735 -2.7906
  122SOPE   H3Y13000   4.692   4.660   5.720 -0.6150  1.0583 -1.2342
  122SOPE   C3413001   4.587   4.609   5.532  0.2242 -0.3201 -0.1222
  122SOPE   H4X13002   4.591   4.716   5.504  1.5788  0.8973  3.9645
  122SOPE   H4Y13003   4.490   4.559   5.508 -0.4751 -0.1626  2.0846
  122SOPE   C3513004   4.702   4.531   5.466  0.3854 -0.3073 -0.0679
  122SOPE   H5X13005   4.675   4.424   5.481 -0.3913 -0.0962  0.0817
  122SOPE   H5Y13006   4.799   4.547   5.517 -0.8254 -1.1937  2.7151
  122SOPE   C3613007   4.710   4.545   5.310 -0.2939 -1.1650 -0.8117
  122SOPE   H6X13008   4.742   4.649   5.292  0.0121 -0.2798  3.6309
  122SOPE   H6Y13009   4.614   4.534   5.254 -1.7473  2.0180  0.7983
  122SOPE   C3713010   4.803   4.440   5.248  1.1947 -0.0688 -0.0360
  122SOPE   H7X13011   4.793   4.339   5.292 -1.5170  0.2417  0.2362
  122SOPE   H7Y13012   4.909   4.468   5.267  0.8952  0.0645  1.5373
  122SOPE   C3813013   4.794   4.422   5.092  0.0806 -0.0305 -0.5850
  122SOPE   H8X13014   4.789   4.523   5.048  1.0376  0.5260  0.5375
  122SOPE   H8Y13015   4.699   4.370   5.065 -0.2963  0.0350  0.5809
  122SOPE   C3913016   4.919   4.349   5.049 -0.1230  0.1838  0.5304
  122SOPE   H9X13017   4.906   4.242   5.077 -0.9026 -0.1159 -0.8687
  122SOPE   H9Y13018   5.011   4.383   5.101 -0.4929  0.2484  1.1538
  122SOPE  C31013019   4.945   4.361   4.899 -0.6683 -0.2575  0.5707
  122SOPE  H10X13020   5.039   4.308   4.873 -1.6915 -0.8677 -2.2297
  122SOPE  H10Y13021   4.973   4.467   4.878 -0.9938 -0.0847  0.9916
  122SOPE  C31113022   4.840   4.310   4.805 -0.3183 -0.0627  0.5329
  122SOPE  H11X13023   4.746   4.370   4.799 -0.2104  0.0552 -0.0533
  122SOPE  H11Y13024   4.817   4.212   4.851  2.1493 -0.6993  0.5645
  122SOPE  C31213025   4.879   4.300   4.654 -0.4016 -0.5157 -0.7084
  122SOPE  H12X13026   4.959   4.223   4.646  0.9001  0.2687  2.7978
  122SOPE  H12Y13027   4.922   4.394   4.612 -0.3159 -1.7541 -3.6324
  122SOPE  C31313028   4.766   4.237   4.570 -0.3191 -0.3728  0.0815
  122SOPE  H13X13029   4.661   4.259   4.598 -0.9834 -1.8233 -1.0868
  122SOPE  H13Y13030   4.779   4.127   4.583  0.3413 -0.4591 -1.1637
  122SOPE  C31413031   4.791   4.264   4.424  0.0065 -0.0063 -0.4699
  122SOPE  H14X13032   4.894   4.232   4.400 -0.5005 -1.2606 -1.1341
  122SOPE  H14Y13033   4.797   4.373   4.408  3.0304  0.0941  0.8123
  122SOPE  C31513034   4.696   4.197   4.338 -0.0040  0.6490  0.5577
  122SOPE  H15X13035   4.595   4.244   4.330 -1.0787 -1.5940  0.2138
  122SOPE  H15Y13036   4.679   4.091   4.366  0.3940 -0.2483 -2.2880
  122SOPE  C31613037   4.764   4.188   4.190 -0.0978 -0.5061 -0.4134
  122SOPE  H16X13038   4.867   4.149   4.192 -0.9334 -2.9068 -1.3674
  122SOPE  H16Y13039   4.755   4.295   4.159  0.5931 -0.2558  0.2239
  122SOPE  C31713040   4.685   4.099   4.091  0.0513  0.1462 -0.0142
  122SOPE  H17X13041   4.677   4.004   4.148 -2.7435  0.4016  0.1911
  122SOPE  H17Y13042   4.753   4.078   4.006  0.4866  1.6641 -0.0679
  122SOPE  C31813043   4.542   4.132   4.048  0.4524 -0.1492 -0.1066
  122SOPE  H18X13044   4.498   4.063   3.973 -3.4079  1.6405  0.2861
  122SOPE  H18Y13045   4.543   4.229   3.995 -1.0933  0.1393  0.3464
  122SOPE  H18Z13046   4.477   4.147   4.138  0.7354  0.1056  0.0581
  123SOPE     N13047   5.056   2.881   2.315 -0.3055 -0.1410 -0.0253
  123SOPE   HN113048   4.998   2.820   2.376  0.5015 -0.1604  0.7532
  123SOPE   HN213049   5.155   2.849   2.321  0.1998  1.2561 -0.4883
  123SOPE   HN313050   5.046   2.976   2.357 -1.3526  0.9972 -2.6638
  123SOPE   C1213051   5.010   2.886   2.177  0.5878 -0.2708 -0.1616
  123SOPE  H12A13052   5.055   2.971   2.121  0.4397  1.6449  2.4636
  123SOPE  H12B13053   4.902   2.913   2.176  0.7346  0.3448 -1.2496
  123SOPE   C1113054   5.048   2.757   2.102 -0.5295  0.6683 -0.4633
  123SOPE  H11A13055   4.998   2.758   2.002 -1.1355 -1.1232 -0.2141
  123SOPE  H11B13056   4.994   2.677   2.157 -0.5539 -0.0401 -1.4873
  123SOPE     P13057   5.267   2.643   2.187  0.0806  0.1637 -0.0615
  123SOPE   O1313058   5.402   2.627   2.136  0.3610 -0.0973  0.7919
  123SOPE   O1413059   5.190   2.519   2.208  0.0376  0.2821  0.2203
  123SOPE   O1213060   5.186   2.735   2.093  0.5957 -0.4740 -0.0751
  123SOPE   O1113061   5.268   2.728   2.321  0.4371 -0.6901 -0.2725
  123SOPE    C113062   5.392   2.798   2.358 -0.1647 -0.1455  0.3294
  123SOPE    HA13063   5.420   2.875   2.283  1.6854  1.3662  2.4408
  123SOPE    HB13064   5.472   2.722   2.361  0.9626  1.0306  2.2667
  123SOPE    C213065   5.389   2.857   2.491  0.7815  0.5195 -0.2164
  123SOPE    HS13066   5.476   2.826   2.552  1.6686  0.5047 -1.4581
  123SOPE   O2113067   5.262   2.836   2.559 -0.4662 -0.3693 -0.1744
  123SOPE   C2113068   5.258   2.716   2.615  0.8894  0.3195  0.1801
  123SOPE   O2213069   5.330   2.620   2.597 -0.0357  0.1173  0.1047
  123SOPE   C2213070   5.160   2.715   2.726  0.4963 -0.4167  0.3128
  123SOPE   H2R13071   5.141   2.614   2.769 -0.8909 -0.6171 -0.7085
  123SOPE   H2S13072   5.065   2.749   2.679  0.7455 -0.3661 -0.1547
  123SOPE    C313073   5.395   3.009   2.487 -0.1519 -1.1094 -0.3294
  123SOPE    HX13074   5.337   3.039   2.397 -0.0945 -2.0632 -0.6949
  123SOPE    HY13075   5.498   3.037   2.458 -0.6446  1.1415 -0.0961
  123SOPE   O3113076   5.343   3.086   2.601 -0.1967  0.5725  0.6195
  123SOPE   C3113077   5.437   3.124   2.681 -0.5744 -0.2179 -0.3313
  123SOPE   O3213078   5.558   3.112   2.668 -0.2064 -0.4620  0.0035
  123SOPE   C3213079   5.374   3.207   2.788 -0.3843  0.6721  0.0724
  123SOPE   H2X13080   5.333   3.138   2.865  0.7436 -0.9157 -0.6902
  123SOPE   H2Y13081   5.293   3.266   2.741 -0.0225  1.4042  0.3517
  123SOPE   C2313082   5.192   2.821   2.834 -0.3690 -0.1110  1.2461
  123SOPE   H3R13083   5.190   2.923   2.791 -0.6481 -0.1647  1.1354
  123SOPE   H3S13084   5.290   2.798   2.882  0.1818  0.1452  0.2840
  123SOPE   C2413085   5.078   2.835   2.934 -0.0805 -0.4353  0.6953
  123SOPE   H4R13086   4.982   2.866   2.888 -0.1506 -2.1570 -0.4303
  123SOPE   H4S13087   5.055   2.735   2.977 -1.5537 -0.2895  0.3163
  123SOPE   C2513088   5.107   2.933   3.056  0.0657  0.0578  0.6447
  123SOPE   H5R13089   5.209   2.917   3.098 -0.6745 -4.1676  1.2730
  123SOPE   H5S13090   5.108   3.032   3.006  1.7204 -0.3823 -0.2471
  123SOPE   C2613091   5.009   2.911   3.162  0.4178 -0.4888 -0.1826
  123SOPE   H6R13092   4.907   2.907   3.118  0.1422 -0.8486  0.4766
  123SOPE   H6S13093   5.021   2.807   3.199  1.6849  0.1438  1.3261
  123SOPE   C2713094   5.016   3.009   3.277  0.5239  0.3750  0.8509
  123SOPE   H7R13095   5.003   3.112   3.238 -1.3421  0.8160  2.4401
  123SOPE   H7S13096   4.937   2.985   3.352 -1.1716  1.8549 -0.3721
  123SOPE   C2813097   5.150   2.993   3.354 -0.3050  0.2797 -0.0373
  123SOPE   H8R13098   5.136   2.896   3.407 -0.8987 -0.2475 -1.1252
  123SOPE   H8S13099   5.234   2.991   3.281  1.6972  0.5839  2.1505
  123SOPE   C2913100   5.168   3.101   3.454 -0.3770 -0.0398 -0.8141
  123SOPE   H9113101   5.243   3.175   3.424 -0.1876 -0.3437 -1.0983
  123SOPE  C21013102   5.112   3.118   3.572 -0.1375  0.7325 -1.0752
  123SOPE  H10113103   5.130   3.213   3.626 -0.9052  0.8375 -0.9933
  123SOPE  C21113104   5.026   3.010   3.644  0.6809  0.0062 -0.5595
  123SOPE  H11R13105   5.070   2.975   3.740  2.4359 -1.4178 -1.7994
  123SOPE  H11S13106   5.018   2.919   3.581 -0.5155 -0.3774  0.1269
  123SOPE  C21213107   4.880   3.064   3.666 -0.8695  0.4200 -0.3865
  123SOPE  H12R13108   4.827   2.979   3.715  2.7344 -1.7627  0.1451
  123SOPE  H12S13109   4.825   3.082   3.572 -0.2862  0.7228 -0.6770
  123SOPE  C21313110   4.859   3.188   3.759 -0.5550  0.1368  0.7131
  123SOPE  H13R13111   4.751   3.203   3.780 -1.1924 -2.5689 -0.2765
  123SOPE  H13S13112   4.886   3.279   3.701 -0.4750 -0.6414 -0.5173
  123SOPE  C21413113   4.926   3.173   3.890 -0.6877 -0.6144 -1.0400
  123SOPE  H14R13114   4.915   3.271   3.941  1.4538  0.6294 -2.7374
  123SOPE  H14S13115   5.035   3.154   3.879  0.2229  1.9440  1.8692
  123SOPE  C21513116   4.878   3.063   3.981  0.2559  0.0902 -0.2944
  123SOPE  H15R13117   4.885   2.963   3.933 -3.2715 -1.5952  2.2062
  123SOPE  H15S13118   4.769   3.077   3.998  0.2591 -2.6351  3.1377
  123SOPE  C21613119   4.945   3.059   4.115  0.0200 -0.4918 -1.0304
  123SOPE  H16R13120   4.943   3.164   4.152  0.6996 -1.1055  0.8540
  123SOPE  H16S13121   5.052   3.030   4.112 -0.2080 -1.4845 -0.1627
  123SOPE  C21713122   4.869   2.973   4.217 -0.0056  0.3531 -0.0146
  123SOPE  H17R13123   4.762   2.996   4.198 -0.6226 -3.0831 -1.4029
  123SOPE  H17S13124   4.896   3.001   4.321  3.5709 -2.6883  0.0836
  123SOPE  C21813125   4.880   2.819   4.201 -0.1009 -0.1630  0.3510
  123SOPE  H18R13126   4.827   2.775   4.288 -0.2699  2.4597  1.6893
  123SOPE  H18S13127   4.990   2.806   4.204 -0.0292  0.5624  1.3133
  123SOPE  H18T13128   4.833   2.788   4.105 -0.8990 -0.5150  0.8453
  123SOPE   C3313129   5.464   3.312   2.849 -0.3962 -0.4782  0.2334
  123SOPE   H3X13130   5.511   3.381   2.776  0.4769  1.8590  2.8078
  123SOPE   H3Y13131   5.545   3.266   2.910 -0.1783  1.2141  1.2722
  123SOPE   C3413132   5.386   3.408   2.938  0.1919 -0.7335 -1.3067
  123SOPE   H4X13133   5.303   3.471   2.899 -0.1453  0.6683  1.3636
  123SOPE   H4Y13134   5.458   3.481   2.982  1.3086 -1.2557 -2.2276
  123SOPE   C3513135   5.334   3.337   3.064 -0.3336  0.5046 -0.2596
  123SOPE   H5X13136   5.424   3.306   3.122 -0.4644 -0.3936 -0.5325
  123SOPE   H5Y13137   5.280   3.243   3.041  0.9802 -0.0270 -1.3035
  123SOPE   C3613138   5.234   3.417   3.144  0.0590 -0.4124  0.3541
  123SOPE   H6X13139   5.262   3.524   3.131 -0.2347 -0.1806  1.5679
  123SOPE   H6Y13140   5.248   3.392   3.251 -0.8131 -1.4742  0.2347
  123SOPE   C3713141   5.086   3.388   3.110  0.4597 -0.2998  0.6586
  123SOPE   H7X13142   5.063   3.280   3.122  0.2982 -0.7232 -2.5812
  123SOPE   H7Y13143   5.071   3.400   3.001  0.3447 -2.2711  0.4270
  123SOPE   C3813144   4.977   3.453   3.194 -0.1771 -0.3688 -0.7809
  123SOPE   H8X13145   4.894   3.391   3.155 -1.3015 -0.7764  2.0086
  123SOPE   H8Y13146   4.968   3.561   3.168 -1.2744 -0.2956 -0.1253
  123SOPE   C3913147   4.996   3.431   3.347  0.1553 -0.1536  0.8702
  123SOPE   H9X13148   5.082   3.494   3.378 -0.8760  1.5455  0.3660
  123SOPE   H9Y13149   5.036   3.327   3.348  0.7499  0.0442 -0.2853
  123SOPE  C31013150   4.859   3.419   3.409  0.4790 -0.1577 -0.0119
  123SOPE  H10X13151   4.851   3.336   3.483  0.4045  3.0217  3.8670
  123SOPE  H10Y13152   4.783   3.390   3.334  0.4606  1.2490 -0.5680
  123SOPE  C31113153   4.804   3.538   3.484  0.2484 -0.0459  0.3927
  123SOPE  H11X13154   4.793   3.631   3.425  2.1638  0.8460  1.3259
  123SOPE  H11Y13155   4.877   3.576   3.559 -1.7738  0.6680  2.1035
  123SOPE  C31213156   4.671   3.516   3.558 -0.6362 -0.0303 -0.0577
  123SOPE  H12X13157   4.690   3.437   3.634 -0.2880  0.6516  0.5823
  123SOPE  H12Y13158   4.594   3.488   3.483 -0.2587  1.7529 -1.1703
  123SOPE  C31313159   4.623   3.644   3.639 -0.4327 -0.1003 -0.6696
  123SOPE  H13X13160   4.596   3.728   3.573 -0.5543 -0.4795 -1.1043
  123SOPE  H13Y13161   4.712   3.667   3.702 -0.8742 -0.5445  0.1404
  123SOPE  C31413162   4.519   3.615   3.751 -0.3689  0.5329 -0.2393
  123SOPE  H14X13163   4.559   3.533   3.815  0.9307  0.4068 -1.1675
  123SOPE  H14Y13164   4.421   3.588   3.707  0.3121  0.5234 -1.8073
  123SOPE  C31513165   4.488   3.743   3.838  0.0914 -0.4969 -0.4866
  123SOPE  H15X13166   4.509   3.831   3.774  2.3461  0.8064  1.8160
  123SOPE  H15Y13167   4.566   3.749   3.917  0.2986 -2.0270 -0.5476
  123SOPE  C31613168   4.354   3.717   3.907 -0.5585  0.0286  0.1390
  123SOPE  H16X13169   4.358   3.624   3.968 -0.7148  0.2253  0.4503
  123SOPE  H16Y13170   4.282   3.695   3.825 -1.0207 -0.1431  0.5873
  123SOPE  C31713171   4.315   3.838   3.996 -0.0226  0.0321 -0.4849
  123SOPE  H17X13172   4.284   3.918   3.926 -1.8159  0.5112  0.7876
  123SOPE  H17Y13173   4.402   3.876   4.054 -0.9645  1.3416  0.1147
  123SOPE  C31813174   4.191   3.812   4.085  0.4392  0.5843  0.0124
  123SOPE  H18X13175   4.203   3.717   4.141 -0.5036 -1.0364 -2.3550
  123SOPE  H18Y13176   4.094   3.805   4.032  0.2513  0.0469  0.4105
  123SOPE  H18Z13177   4.181   3.889   4.164  1.1379  0.4591  0.2302
  124SOPE     N13178   4.392   5.895   2.189 -0.2567  0.7059  0.2560
  124SOPE   HN113179   4.298   5.860   2.162 -2.1108  2.9146  3.2336
  124SOPE   HN213180   4.366   5.994   2.206  3.7979  2.1273 -0.4817
  124SOPE   HN313181   4.472   5.896   2.122  0.0689 -1.1694  0.5640
  124SOPE   C1213182   4.453   5.829   2.308 -0.3572  0.0889  0.3637
  124SOPE  H12A13183   4.504   5.735   2.277  0.8539  1.4400 -2.1329
  124SOPE  H12B13184   4.365   5.800   2.369 -1.1155  0.3187 -0.5825
  124SOPE   C1113185   4.532   5.928   2.389  0.1114  0.1707 -0.3742
  124SOPE  H11A13186   4.615   5.960   2.322  0.2544  1.0633  0.2087
  124SOPE  H11B13187   4.579   5.877   2.476  2.7057 -0.0196 -1.7883
  124SOPE     P13188   4.505   6.129   2.545 -0.3219 -0.0448  0.3010
  124SOPE   O1313189   4.409   6.228   2.595 -0.5434 -0.1114  0.4422
  124SOPE   O1413190   4.646   6.172   2.525  0.2235  0.5696  0.1270
  124SOPE   O1213191   4.452   6.044   2.425 -0.2862  0.2140  0.0638
  124SOPE   O1113192   4.515   6.017   2.657 -0.2071 -0.2103  0.2212
  124SOPE    C113193   4.398   5.940   2.683  0.6241  0.2214  0.7791
  124SOPE    HA13194   4.412   5.831   2.693 -0.2450  0.1635  1.5356
  124SOPE    HB13195   4.306   5.957   2.622  0.4218 -0.8778  0.7597
  124SOPE    C213196   4.353   5.964   2.833  0.1384 -0.3556 -0.0269
  124SOPE    HS13197   4.252   5.917   2.843  0.1496 -0.5955 -0.9057
  124SOPE   O2113198   4.357   6.109   2.861 -0.0196  0.2364  0.8956
  124SOPE   C2113199   4.241   6.165   2.805  0.8117 -0.1257 -0.1070
  124SOPE   O2213200   4.147   6.096   2.759 -0.2567 -0.5320 -0.0633
  124SOPE   C2213201   4.240   6.318   2.808  0.6071  0.2163  0.3387
  124SOPE   H2R13202   4.178   6.338   2.717  0.7096 -0.1503  0.1873
  124SOPE   H2S13203   4.345   6.353   2.801  1.0817 -0.8767  1.7229
  124SOPE    C313204   4.447   5.891   2.932  0.1403 -0.2161  0.2458
  124SOPE    HX13205   4.550   5.904   2.893 -0.1677 -0.1544 -0.5642
  124SOPE    HY13206   4.430   5.782   2.936  2.4555 -0.6033  0.7239
  124SOPE   O3113207   4.436   5.942   3.064 -0.0842  0.3444 -0.8602
  124SOPE   C3113208   4.328   5.907   3.130  0.0623  0.7813 -0.2184
  124SOPE   O3213209   4.244   5.824   3.091 -0.6911  0.3292 -0.2953
  124SOPE   C3213210   4.349   5.957   3.269  0.1316  0.3462 -0.7716
  124SOPE   H2X13211   4.386   6.061   3.254  0.2309  0.0730 -2.7296
  124SOPE   H2Y13212   4.446   5.908   3.293 -0.5480 -1.3124 -1.2572
  124SOPE   C2313213   4.159   6.384   2.916  0.1173 -0.0176 -0.0685
  124SOPE   H3R13214   4.060   6.334   2.922 -0.1336 -0.1369 -3.4112
  124SOPE   H3S13215   4.128   6.485   2.884 -0.0422  0.0096  0.1741
  124SOPE   C2413216   4.241   6.384   3.045  0.0922  0.3297 -0.0531
  124SOPE   H4R13217   4.281   6.282   3.063 -0.5900 -0.1602 -1.1650
  124SOPE   H4S13218   4.330   6.447   3.020  0.6251  0.3929  1.8505
  124SOPE   C2513219   4.165   6.455   3.160  0.1519  0.2795  0.2988
  124SOPE   H5R13220   4.114   6.545   3.119  0.0458  0.3337  0.5493
  124SOPE   H5S13221   4.086   6.385   3.196  0.9502 -0.3436  0.8700
  124SOPE   C2613222   4.246   6.489   3.284  0.1806  0.8582  0.0104
  124SOPE   H6R13223   4.344   6.539   3.266  1.0686 -0.2381  1.5433
  124SOPE   H6S13224   4.182   6.560   3.342 -0.4266  1.1794 -1.0315
  124SOPE   C2713225   4.287   6.369   3.371 -0.4033  0.9302  0.1330
  124SOPE   H7R13226   4.193   6.312   3.391 -0.6569  0.9317 -0.9641
  124SOPE   H7S13227   4.369   6.311   3.323  1.3328  1.0524  2.7871
  124SOPE   C2813228   4.339   6.424   3.502  0.2619 -0.6554  0.1063
  124SOPE   H8R13229   4.425   6.492   3.483  0.1244 -0.1062  1.3575
  124SOPE   H8S13230   4.252   6.479   3.543  0.6353 -0.8907  1.2516
  124SOPE   C2913231   4.397   6.333   3.600  0.0900 -0.1837 -0.9963
  124SOPE   H9113232   4.490   6.286   3.567  0.1523  0.3562 -1.6194
  124SOPE  C21013233   4.339   6.281   3.711 -0.5979 -0.2403  0.8025
  124SOPE  H10113234   4.390   6.207   3.774  0.8845  1.8737  2.2136
  124SOPE  C21113235   4.202   6.315   3.756 -0.1206 -0.2753  0.3462
  124SOPE  H11R13236   4.151   6.220   3.783  0.4452 -0.4123  0.9646
  124SOPE  H11S13237   4.135   6.362   3.681 -0.1717  0.6289  0.9541
  124SOPE  C21213238   4.219   6.403   3.885 -0.2045 -0.0378  0.5684
  124SOPE  H12R13239   4.127   6.418   3.946 -0.4562 -0.0489  0.1916
  124SOPE  H12S13240   4.226   6.502   3.834  3.2372 -0.6487 -0.4226
  124SOPE  C21313241   4.342   6.382   3.979  0.1745 -0.2468  0.2200
  124SOPE  H13R13242   4.436   6.402   3.922 -1.2030  2.2723 -1.3653
  124SOPE  H13S13243   4.341   6.276   4.012 -1.9037 -0.2714  0.2062
  124SOPE  C21413244   4.330   6.481   4.090 -0.3051  0.2306  0.1062
  124SOPE  H14R13245   4.422   6.466   4.149 -0.5445  2.7499  1.2564
  124SOPE  H14S13246   4.246   6.457   4.158 -0.1058 -0.6295  0.0604
  124SOPE  C21513247   4.345   6.634   4.052  0.1811  0.2806  0.2635
  124SOPE  H15R13248   4.260   6.662   3.987 -1.0237 -1.7991  0.8255
  124SOPE  H15S13249   4.437   6.649   3.991 -1.2452  0.4609 -1.9875
  124SOPE  C21613250   4.337   6.719   4.179 -0.4204 -1.2378 -0.6825
  124SOPE  H16R13251   4.427   6.687   4.237 -0.6567  0.7801  0.9304
  124SOPE  H16S13252   4.247   6.684   4.233  1.0226 -3.9029  0.1752
  124SOPE  C21713253   4.337   6.871   4.157 -0.2373  0.8934  0.0865
  124SOPE  H17R13254   4.259   6.886   4.080 -0.0879  0.7664 -0.0928
  124SOPE  H17S13255   4.427   6.908   4.102 -1.0178  2.1876 -0.3436
  124SOPE  C21813256   4.306   6.948   4.278  0.0656 -0.0771  0.2273
  124SOPE  H18R13257   4.382   6.931   4.358  0.3881  1.5888  0.2976
  124SOPE  H18S13258   4.207   6.913   4.315 -0.0603  0.0397  0.0005
  124SOPE  H18T13259   4.309   7.058   4.269  0.5311 -0.0062  1.1101
  124SOPE   C3313260   4.244   5.915   3.370  0.0620  0.5586 -0.3608
  124SOPE   H3X13261   4.231   5.805   3.361  3.1850  0.2627 -3.6602
  124SOPE   H3Y13262   4.146   5.963   3.350  0.1276  1.1153  0.5842
  124SOPE   C3413263   4.287   5.932   3.512  0.2161 -0.9450 -0.3892
  124SOPE   H4X13264   4.286   6.041   3.536  3.0195 -0.4820 -1.9763
  124SOPE   H4Y13265   4.394   5.905   3.530  0.0872  0.2231  2.9664
  124SOPE   C3513266   4.198   5.859   3.612  0.4347  0.1543  0.2467
  124SOPE   H5X13267   4.228   5.752   3.610  0.7245  0.2363  0.1142
  124SOPE   H5Y13268   4.091   5.864   3.581  0.0976  2.8997  1.5424
  124SOPE   C3613269   4.203   5.917   3.758  0.3619 -0.0165 -0.7475
  124SOPE   H6X13270   4.125   5.874   3.825  2.1989  0.8600  2.0851
  124SOPE   H6Y13271   4.197   6.028   3.763  0.8844 -0.0285  0.4197
  124SOPE   C3713272   4.322   5.871   3.831 -0.8536  1.0715  0.0847
  124SOPE   H7X13273   4.411   5.889   3.767  0.5603  0.9510  1.9177
  124SOPE   H7Y13274   4.328   5.761   3.846 -1.5568  1.1405  0.9411
  124SOPE   C3813275   4.344   5.933   3.966  0.4337 -0.3152 -0.2549
  124SOPE   H8X13276   4.341   6.044   3.977  0.5330 -0.3903  0.6647
  124SOPE   H8Y13277   4.441   5.890   3.999  0.2084 -0.4803  0.2084
  124SOPE   C3913278   4.249   5.868   4.067  0.0227 -0.1966 -0.3992
  124SOPE   H9X13279   4.240   5.759   4.046 -0.9467 -0.0445 -0.8208
  124SOPE   H9Y13280   4.148   5.909   4.048  1.0937  2.4348 -0.9626
  124SOPE  C31013281   4.301   5.891   4.206  0.0285 -1.1435 -0.3025
  124SOPE  H10X13282   4.399   5.840   4.217 -0.4563 -1.7645  1.6137
  124SOPE  H10Y13283   4.228   5.851   4.280 -0.3002 -0.1801 -0.0986
  124SOPE  C31113284   4.337   6.035   4.250  0.1275  0.3480 -0.1138
  124SOPE  H11X13285   4.250   6.104   4.239 -0.1208 -0.3214 -3.0323
  124SOPE  H11Y13286   4.419   6.075   4.187  0.6103 -2.6886 -1.5886
  124SOPE  C31213287   4.380   6.039   4.398  0.0043  0.6741  1.1595
  124SOPE  H12X13288   4.468   5.971   4.405 -0.3108  0.1692  0.3923
  124SOPE  H12Y13289   4.300   5.997   4.462 -0.0409  0.8785  1.2395
  124SOPE  C31313290   4.411   6.180   4.447  0.3908  0.7371 -0.1511
  124SOPE  H13X13291   4.363   6.197   4.546  1.0436 -0.6810  0.4484
  124SOPE  H13Y13292   4.366   6.253   4.377  0.9700 -0.1855 -1.5270
  124SOPE  C31413293   4.560   6.209   4.457 -1.0480  0.1397  0.2525
  124SOPE  H14X13294   4.603   6.217   4.354  1.2521  2.5133  1.2827
  124SOPE  H14Y13295   4.610   6.123   4.506  0.6987  0.1776 -1.3212
  124SOPE  C31513296   4.602   6.340   4.522 -0.5567 -0.4146 -0.2013
  124SOPE  H15X13297   4.711   6.364   4.517 -0.2955 -1.6681 -0.8819
  124SOPE  H15Y13298   4.571   6.348   4.628  0.8527 -0.7748  0.2691
  124SOPE  C31613299   4.536   6.457   4.459 -0.5973 -0.8036  0.1917
  124SOPE  H16X13300   4.427   6.466   4.479 -0.3417  0.4928  1.0752
  124SOPE  H16Y13301   4.566   6.450   4.352  1.2248  1.3621  0.4752
  124SOPE  C31713302   4.583   6.601   4.503  0.4193  0.0757  0.3624
  124SOPE  H17X13303   4.547   6.676   4.429  1.1128 -0.4353 -0.5095
  124SOPE  H17Y13304   4.693   6.590   4.491  0.9786  0.4551  4.0049
  124SOPE  C31813305   4.553   6.647   4.647  0.4959  0.5910 -0.2197
  124SOPE  H18X13306   4.575   6.754   4.664 -0.4542  0.5864  1.2535
  124SOPE  H18Y13307   4.613   6.578   4.711 -0.9934 -0.4744  0.0902
  124SOPE  H18Z13308   4.445   6.622   4.660  0.6437  0.4389  0.8662
  125SOPE     N13309   6.221   6.521   2.146  0.3040  0.3199 -0.2789
  125SOPE   HN113310   6.263   6.567   2.062  2.8218 -1.3268 -0.0114
  125SOPE   HN213311   6.294   6.525   2.219 -1.7975  0.4253  1.9535
  125SOPE   HN313312   6.208   6.419   2.132  1.6057  0.0783  0.2117
  125SOPE   C1213313   6.101   6.578   2.225 -0.5854  0.2049  0.3650
  125SOPE  H12A13314   6.069   6.494   2.291  0.8503 -0.0185  0.8236
  125SOPE  H12B13315   6.027   6.610   2.149 -0.4739  4.0649  1.6995
  125SOPE   C1113316   6.154   6.698   2.303 -0.3432 -0.2538  0.1435
  125SOPE  H11A13317   6.066   6.748   2.350  1.0756  0.8473  1.7487
  125SOPE  H11B13318   6.199   6.768   2.230 -0.7207 -0.1170  0.0410
  125SOPE     P13319   6.333   6.756   2.484 -0.0812 -0.1232  0.0008
  125SOPE   O1313320   6.297   6.897   2.458 -0.4099 -0.3687 -0.2800
  125SOPE   O1413321   6.471   6.729   2.452  0.1469  0.4036  0.1879
  125SOPE   O1213322   6.242   6.657   2.407  0.6674  0.0099 -0.6747
  125SOPE   O1113323   6.290   6.715   2.629  0.1086 -0.3301  0.1122
  125SOPE    C113324   6.334   6.586   2.681  0.0935  0.4270  0.0592
  125SOPE    HA13325   6.377   6.517   2.605  3.9541  0.9931  1.4969
  125SOPE    HB13326   6.249   6.525   2.717 -0.5116  0.5150 -1.1637
  125SOPE    C213327   6.438   6.592   2.801 -0.4140 -0.5250 -0.9983
  125SOPE    HS13328   6.442   6.488   2.841 -0.1015  0.1987  0.9861
  125SOPE   O2113329   6.400   6.680   2.913 -0.8764  0.0843 -0.1826
  125SOPE   C2113330   6.303   6.641   2.993  0.1583  0.9596 -0.5985
  125SOPE   O2213331   6.235   6.540   2.984 -0.5244  0.4537  0.6265
  125SOPE   C2213332   6.302   6.742   3.117 -0.0240  0.5510  0.2810
  125SOPE   H2R13333   6.246   6.830   3.078  0.5804  0.6419 -0.3954
  125SOPE   H2S13334   6.404   6.780   3.140 -0.6111  1.2962  1.8197
  125SOPE    C313335   6.582   6.623   2.749  0.8169  0.0950 -0.0907
  125SOPE    HX13336   6.576   6.716   2.688  1.4185  1.0607  1.2803
  125SOPE    HY13337   6.606   6.535   2.685 -0.2258  0.1193 -0.5471
  125SOPE   O3113338   6.675   6.619   2.861 -0.1968  0.2415 -0.3166
  125SOPE   C3113339   6.724   6.730   2.893 -0.1065 -0.1229  0.3262
  125SOPE   O3213340   6.702   6.841   2.852 -0.8890 -0.0960  0.1774
  125SOPE   C3213341   6.822   6.704   3.008 -0.2283 -0.1194 -0.1535
  125SOPE   H2X13342   6.869   6.804   3.026  0.0162  0.0755 -1.7190
  125SOPE   H2Y13343   6.893   6.622   2.986  0.2107 -0.7766  3.1814
  125SOPE   C2313344   6.246   6.676   3.248 -0.8253 -0.0583 -0.7933
  125SOPE   H3R13345   6.141   6.643   3.234 -0.8231  0.2952 -1.6847
  125SOPE   H3S13346   6.246   6.746   3.335  1.8532 -2.1808  1.1055
  125SOPE   C2413347   6.333   6.549   3.285  0.8334 -0.1204  0.3824
  125SOPE   H4R13348   6.320   6.473   3.205  1.8455 -0.7282  0.7711
  125SOPE   H4S13349   6.441   6.575   3.289  0.8692 -0.3327  0.9670
  125SOPE   C2513350   6.299   6.478   3.417  0.2945 -0.4070 -0.0543
  125SOPE   H5R13351   6.202   6.523   3.444 -0.1346 -0.7557 -0.9672
  125SOPE   H5S13352   6.293   6.367   3.415 -0.2148 -0.3774 -0.9800
  125SOPE   C2613353   6.403   6.510   3.535  0.2183  0.3303 -0.5048
  125SOPE   H6R13354   6.490   6.452   3.499  0.1534 -0.7746  1.0131
  125SOPE   H6S13355   6.432   6.617   3.533  0.9394  0.1276 -1.3131
  125SOPE   C2713356   6.344   6.472   3.670 -0.3937 -1.2935 -0.0190
  125SOPE   H7R13357   6.264   6.545   3.692  2.3935  1.8282  0.5962
  125SOPE   H7S13358   6.296   6.372   3.664 -1.7452 -0.5688 -2.5580
  125SOPE   C2813359   6.455   6.489   3.781 -0.2156 -0.9642  0.5813
  125SOPE   H8R13360   6.556   6.469   3.739  1.2360  3.6011  1.3995
  125SOPE   H8S13361   6.439   6.597   3.801 -0.6384 -0.5053 -1.8791
  125SOPE   C2913362   6.429   6.412   3.910  0.1308 -0.9250  0.0401
  125SOPE   H9113363   6.402   6.481   3.991  1.9090 -1.6698  1.3247
  125SOPE  C21013364   6.428   6.286   3.930  0.0751 -0.0428 -0.0161
  125SOPE  H10113365   6.412   6.250   4.033  0.0160  0.4033  0.1321
  125SOPE  C21113366   6.476   6.180   3.835  0.0616  0.0236 -0.3886
  125SOPE  H11R13367   6.471   6.202   3.726 -2.2441 -2.3053 -0.8558
  125SOPE  H11S13368   6.426   6.083   3.857  2.0922 -0.9425  0.2172
  125SOPE  C21213369   6.629   6.150   3.842  0.7887  0.4344  0.7901
  125SOPE  H12R13370   6.678   6.240   3.799  3.1749 -1.1305 -0.0195
  125SOPE  H12S13371   6.657   6.063   3.778 -0.0311  0.9274 -0.2645
  125SOPE  C21313372   6.679   6.115   3.986 -0.7878  0.4189 -0.0717
  125SOPE  H13R13373   6.692   6.005   3.977 -0.9652  0.5336 -2.2300
  125SOPE  H13S13374   6.606   6.140   4.066  0.4575 -0.6442  1.4682
  125SOPE  C21413375   6.815   6.182   4.013 -0.3653 -0.2716  0.6636
  125SOPE  H14R13376   6.803   6.292   4.008 -2.1999 -0.4896 -1.2859
  125SOPE  H14S13377   6.884   6.159   3.929 -1.4938  2.8012 -1.2787
  125SOPE  C21513378   6.886   6.123   4.139  0.5203  0.1282  0.4977
  125SOPE  H15R13379   6.988   6.166   4.139  2.5469 -4.1504  1.1966
  125SOPE  H15S13380   6.909   6.015   4.146  2.0109  0.4961  1.7823
  125SOPE  C21613381   6.813   6.156   4.270 -0.1445 -0.0265 -0.4920
  125SOPE  H16R13382   6.706   6.135   4.253 -0.1196  0.6782 -1.6580
  125SOPE  H16S13383   6.820   6.266   4.279 -1.9409 -0.0238  1.6234
  125SOPE  C21713384   6.881   6.091   4.385  0.1189  0.1958  0.2594
  125SOPE  H17R13385   6.877   5.981   4.374  0.8262  0.2895 -1.2095
  125SOPE  H17S13386   6.813   6.105   4.472 -1.4259  1.0099 -1.0132
  125SOPE  C21813387   7.023   6.141   4.415 -0.4404  0.3656 -1.0802
  125SOPE  H18R13388   7.096   6.115   4.335  0.3871 -0.2392 -0.1449
  125SOPE  H18S13389   7.071   6.107   4.509 -0.6740 -1.5736 -1.6091
  125SOPE  H18T13390   7.024   6.249   4.442  2.9517 -0.1775  1.6056
  125SOPE   C3313391   6.757   6.660   3.139 -0.6198 -0.7867  0.4689
  125SOPE   H3X13392   6.699   6.569   3.110 -1.7607 -0.1554  0.7085
  125SOPE   H3Y13393   6.700   6.741   3.188 -1.6210 -1.5488  0.6062
  125SOPE   C3413394   6.868   6.640   3.249 -0.6829  0.7098 -0.1110
  125SOPE   H4X13395   6.925   6.735   3.257  1.9113 -0.8280  0.9668
  125SOPE   H4Y13396   6.944   6.569   3.212 -0.4110  0.8583  0.1610
  125SOPE   C3513397   6.822   6.591   3.385 -0.4200 -0.0584  0.1247
  125SOPE   H5X13398   6.765   6.501   3.354 -1.5275  1.1060 -1.3610
  125SOPE   H5Y13399   6.756   6.669   3.430  0.3730 -0.0667  1.3642
  125SOPE   C3613400   6.937   6.553   3.484 -0.1724 -0.5998  0.1966
  125SOPE   H6X13401   6.993   6.643   3.517  0.9832 -1.6016  1.0814
  125SOPE   H6Y13402   7.016   6.494   3.433  1.2606  0.4695  1.1054
  125SOPE   C3713403   6.891   6.493   3.618 -0.5250 -0.3849  0.4999
  125SOPE   H7X13404   6.982   6.441   3.657  1.3223  0.5891 -2.2380
  125SOPE   H7Y13405   6.801   6.433   3.593  0.3494 -1.1872 -0.8750
  125SOPE   C3813406   6.857   6.598   3.723  0.6156 -0.4379  0.1119
  125SOPE   H8X13407   6.767   6.642   3.676  1.3125  1.7627  0.7261
  125SOPE   H8Y13408   6.940   6.671   3.726  0.2225  0.0121  0.0875
  125SOPE   C3913409   6.847   6.541   3.864 -0.0931 -0.1374 -0.4206
  125SOPE   H9X13410   6.913   6.451   3.870  0.3086  0.2370  1.6561
  125SOPE   H9Y13411   6.752   6.487   3.886  1.6757 -2.7602  1.5357
  125SOPE  C31013412   6.864   6.645   3.976 -0.4492 -0.7624  0.0541
  125SOPE  H10X13413   6.783   6.720   3.964  1.2671  1.8993  3.3387
  125SOPE  H10Y13414   6.966   6.690   3.975 -0.8817  0.2362  0.2149
  125SOPE  C31113415   6.836   6.590   4.115 -0.0718 -0.3306 -0.2249
  125SOPE  H11X13416   6.927   6.534   4.145  0.1559  0.4573  0.5989
  125SOPE  H11Y13417   6.742   6.532   4.107 -0.4735  0.5944 -3.4479
  125SOPE  C31213418   6.818   6.705   4.219 -0.3130 -0.0362 -0.4641
  125SOPE  H12X13419   6.718   6.748   4.197 -0.8483 -0.8664  0.2694
  125SOPE  H12Y13420   6.889   6.788   4.200 -1.5756  1.2413  0.1387
  125SOPE  C31313421   6.828   6.652   4.360 -0.5620 -0.2878  0.2972
  125SOPE  H13X13422   6.742   6.581   4.371 -1.2875  0.5597  0.1918
  125SOPE  H13Y13423   6.803   6.740   4.422 -0.5587  0.8262 -1.2470
  125SOPE  C31413424   6.961   6.588   4.406  0.4823 -0.1051 -0.6973
  125SOPE  H14X13425   7.049   6.636   4.359  2.5564  0.8739  3.6770
  125SOPE  H14Y13426   6.959   6.483   4.372 -0.4242 -1.5938  3.3703
  125SOPE  C31513427   6.981   6.593   4.554 -0.9354  0.1002  0.5678
  125SOPE  H15X13428   6.925   6.506   4.592  0.7109 -1.2632  0.0193
  125SOPE  H15Y13429   6.958   6.682   4.617 -0.4684  0.1238  0.7101
  125SOPE  C31613430   7.127   6.567   4.584  0.6787  0.5479 -0.3131
  125SOPE  H16X13431   7.184   6.645   4.529  0.4457  0.6458 -0.4185
  125SOPE  H16Y13432   7.153   6.474   4.529  0.0116  0.7824 -1.0383
  125SOPE  C31713433   7.162   6.548   4.735  0.5456 -0.2829  0.7629
  125SOPE  H17X13434   7.125   6.629   4.801  3.5288  2.1123 -0.2784
  125SOPE  H17Y13435   7.273   6.548   4.735  0.5678 -1.1568 -0.4280
  125SOPE  C31813436   7.104   6.418   4.795  0.2193  0.1937 -0.5765
  125SOPE  H18X13437   7.088   6.335   4.723 -1.7769 -1.2866  1.4587
  125SOPE  H18Y13438   7.003   6.432   4.839  0.3499  1.6181 -0.6727
  125SOPE  H18Z13439   7.168   6.393   4.883  0.8840  1.5135 -0.6579
  126SOPE     N13440   1.534   3.927   2.165 -0.0624  0.0592  0.4490
  126SOPE   HN113441   1.510   3.907   2.066 -3.0733 -0.0936  1.1152
  126SOPE   HN213442   1.446   3.926   2.221  0.0826  0.2057  0.6776
  126SOPE   HN313443   1.562   4.026   2.174 -0.0733 -0.0663  2.1318
  126SOPE   C1213444   1.635   3.825   2.210 -0.1676  0.5761  0.2454
  126SOPE  H12A13445   1.676   3.849   2.310 -0.2151 -0.6583  0.5836
  126SOPE  H12B13446   1.726   3.821   2.146  0.4730 -5.1757  0.9199
  126SOPE   C1113447   1.575   3.681   2.218 -0.8133 -0.6213  0.1491
  126SOPE  H11A13448   1.652   3.619   2.269 -0.1096 -0.7853 -1.0787
  126SOPE  H11B13449   1.560   3.646   2.114  2.7535 -0.0156 -0.6844
  126SOPE     P13450   1.439   3.609   2.433  0.2310  0.0330  0.1706
  126SOPE   O1313451   1.473   3.467   2.426 -0.3810  0.3711 -0.7938
  126SOPE   O1413452   1.306   3.645   2.490 -0.1308 -0.3893 -0.0653
  126SOPE   O1213453   1.456   3.680   2.293 -0.6498 -0.2444 -0.0338
  126SOPE   O1113454   1.550   3.687   2.518  0.0792 -0.1337 -0.3035
  126SOPE    C113455   1.520   3.812   2.578 -1.1145 -0.5563 -0.7063
  126SOPE    HA13456   1.427   3.800   2.637 -0.3386 -0.1298  0.6513
  126SOPE    HB13457   1.505   3.890   2.501 -0.0104 -0.3112 -0.6954
  126SOPE    C213458   1.626   3.851   2.695 -0.2859  0.3295  0.5361
  126SOPE    HS13459   1.724   3.850   2.644  0.1266  0.8140  1.2944
  126SOPE   O2113460   1.613   3.743   2.784  0.0010 -0.4064 -0.4484
  126SOPE   C2113461   1.712   3.735   2.863 -0.1089  0.5327  0.0264
  126SOPE   O2213462   1.820   3.792   2.856 -0.5045 -0.1754 -0.2299
  126SOPE   C2213463   1.675   3.617   2.960  0.1993  0.4892  0.0447
  126SOPE   H2R13464   1.698   3.522   2.907  0.9251  0.9920 -0.5610
  126SOPE   H2S13465   1.567   3.626   2.984  0.6693  2.5335  1.6830
  126SOPE    C313466   1.582   3.977   2.760  0.2013  0.8674 -0.7004
  126SOPE    HX13467   1.484   3.950   2.804  0.2091  0.4430 -0.9360
  126SOPE    HY13468   1.555   4.059   2.690 -3.0469  0.4851 -0.0547
  126SOPE   O3113469   1.679   4.022   2.850  0.0516 -0.4567 -0.0817
  126SOPE   C3113470   1.629   4.109   2.935 -0.6225  1.0653  0.2425
  126SOPE   O3213471   1.514   4.143   2.938  0.2550  0.5519 -0.9585
  126SOPE   C3213472   1.729   4.150   3.042 -0.3345  0.2536 -0.3244
  126SOPE   H2X13473   1.673   4.211   3.116 -0.0236  0.2323 -0.0694
  126SOPE   H2Y13474   1.821   4.185   2.989  1.3070 -0.4992  1.8770
  126SOPE   C2313475   1.749   3.628   3.097  0.6745  0.1329  0.3478
  126SOPE   H3R13476   1.737   3.733   3.132 -0.8164  0.1923 -0.2881
  126SOPE   H3S13477   1.858   3.612   3.081  0.6570  0.4562 -0.1309
  126SOPE   C2413478   1.692   3.530   3.199 -0.0440  0.3322 -0.0020
  126SOPE   H4R13479   1.593   3.556   3.241 -1.1579  0.5266 -2.5681
  126SOPE   H4S13480   1.681   3.430   3.152  0.0457 -0.9001  2.4430
  126SOPE   C2513481   1.780   3.516   3.325 -0.2345  0.6264 -0.0869
  126SOPE   H5R13482   1.870   3.468   3.280 -2.2321  0.1470 -3.9971
  126SOPE   H5S13483   1.804   3.623   3.344 -0.7914  0.6477  0.5506
  126SOPE   C2613484   1.718   3.435   3.442 -0.9774 -0.2363  0.6420
  126SOPE   H6R13485   1.622   3.479   3.476 -0.3124  1.9016 -0.1117
  126SOPE   H6S13486   1.703   3.338   3.391 -0.0616  0.3909 -0.8964
  126SOPE   C2713487   1.814   3.422   3.560 -0.1409 -0.3539 -0.8232
  126SOPE   H7R13488   1.802   3.334   3.628  0.5244 -0.1225 -0.3946
  126SOPE   H7S13489   1.919   3.411   3.528  0.2517  1.6417 -0.3876
  126SOPE   C2813490   1.815   3.539   3.658  0.2837 -0.3834 -0.1578
  126SOPE   H8R13491   1.896   3.535   3.733  0.0553  2.1906  0.3128
  126SOPE   H8S13492   1.822   3.633   3.599  0.3977  1.0050  1.9821
  126SOPE   C2913493   1.697   3.560   3.751  0.6868 -0.3429  0.1409
  126SOPE   H9113494   1.601   3.530   3.706  1.2569 -0.5211 -1.0038
  126SOPE  C21013495   1.693   3.613   3.874  0.7005 -0.4534  0.6638
  126SOPE  H10113496   1.598   3.605   3.930 -0.2148  0.9239 -0.6377
  126SOPE  C21113497   1.814   3.652   3.954  0.6672  0.0371 -0.4793
  126SOPE  H11R13498   1.803   3.757   3.987 -3.1258  0.6233 -2.9890
  126SOPE  H11S13499   1.902   3.653   3.886 -0.5188 -0.1569 -2.0597
  126SOPE  C21213500   1.829   3.567   4.082 -1.0112 -0.3215 -0.8457
  126SOPE  H12R13501   1.926   3.586   4.133 -2.0787  1.0177  0.7988
  126SOPE  H12S13502   1.836   3.458   4.063  2.4564 -0.5656  1.0529
  126SOPE  C21313503   1.721   3.588   4.182  0.2553 -0.4408 -0.1630
  126SOPE  H13R13504   1.623   3.565   4.136  0.2246 -1.5387  0.4236
  126SOPE  H13S13505   1.723   3.696   4.209 -1.0900 -0.4514  0.0344
  126SOPE  C21413506   1.737   3.500   4.304 -0.7271  0.0948 -0.4561
  126SOPE  H14R13507   1.667   3.536   4.382  0.4817 -0.4712  0.9165
  126SOPE  H14S13508   1.840   3.510   4.342 -0.7691  1.0872 -0.5639
  126SOPE  C21513509   1.711   3.349   4.274  0.7163 -0.3073 -0.4830
  126SOPE  H15R13510   1.774   3.306   4.194  0.8842  2.5661 -2.0112
  126SOPE  H15S13511   1.603   3.353   4.248  0.8235  1.8376 -0.7487
  126SOPE  C21613512   1.712   3.262   4.404 -0.4967  0.2390  0.9137
  126SOPE  H16R13513   1.668   3.315   4.491 -1.1150  2.2600 -0.5543
  126SOPE  H16S13514   1.812   3.246   4.450 -0.8128 -0.8690  1.2585
  126SOPE  C21713515   1.665   3.118   4.388  0.2024  0.1306  0.3553
  126SOPE  H17R13516   1.752   3.065   4.343 -0.5239  1.2247 -2.5450
  126SOPE  H17S13517   1.583   3.112   4.315  1.8317  1.3598 -1.6913
  126SOPE  C21813518   1.623   3.066   4.522 -0.8208 -0.2990  0.3548
  126SOPE  H18R13519   1.552   3.130   4.579  1.1599  0.5589  2.0161
  126SOPE  H18S13520   1.711   3.057   4.590 -0.0964 -0.0707 -0.5338
  126SOPE  H18T13521   1.570   2.971   4.501 -1.5874 -0.1663  1.5836
  126SOPE   C3313522   1.775   4.031   3.130  0.1374  0.0260  0.0540
  126SOPE   H3X13523   1.855   3.976   3.075 -0.1730  0.6977 -1.0943
  126SOPE   H3Y13524   1.692   3.959   3.145  1.2391 -1.3586 -0.2555
  126SOPE   C3413525   1.837   4.063   3.267 -0.4393  0.2579  1.4276
  126SOPE   H4X13526   1.846   4.172   3.285  0.1343  0.1975  1.5303
  126SOPE   H4Y13527   1.942   4.029   3.284 -1.1278 -3.0820 -0.2485
  126SOPE   C3513528   1.765   4.004   3.387 -0.3490  0.5702 -0.0648
  126SOPE   H5X13529   1.787   3.896   3.394  0.9776  0.8955  1.1703
  126SOPE   H5Y13530   1.658   4.032   3.376 -0.5552 -0.6698 -1.4328
  126SOPE   C3613531   1.824   4.057   3.520  0.1923 -0.4284  0.5640
  126SOPE   H6X13532   1.813   4.167   3.530 -0.6024 -0.6195  1.9968
  126SOPE   H6Y13533   1.931   4.027   3.528 -0.0014 -1.1152  0.7179
  126SOPE   C3713534   1.759   4.010   3.649  0.0830  0.2976 -0.0741
  126SOPE   H7X13535   1.776   3.900   3.652 -1.0631  0.0712 -0.8560
  126SOPE   H7Y13536   1.650   4.027   3.639 -0.7937 -4.0117  0.0932
  126SOPE   C3813537   1.813   4.081   3.771  0.7755  0.0639  1.2580
  126SOPE   H8X13538   1.806   4.190   3.750  2.9779 -0.2018 -1.4866
  126SOPE   H8Y13539   1.921   4.055   3.771  0.6712 -0.3764  1.7639
  126SOPE   C3913540   1.747   4.024   3.902  0.0461 -0.5180  0.3742
  126SOPE   H9X13541   1.742   3.914   3.886 -1.5585 -0.4683  0.3220
  126SOPE   H9Y13542   1.638   4.048   3.897  0.1617 -0.1031 -0.2610
  126SOPE  C31013543   1.811   4.059   4.033  0.4633 -0.0628  0.4793
  126SOPE  H10X13544   1.830   4.165   4.058 -3.5356  0.8675  0.2873
  126SOPE  H10Y13545   1.915   4.021   4.027  0.6584  0.4941  0.2945
  126SOPE  C31113546   1.711   4.003   4.138  0.4367 -0.2846 -0.8093
  126SOPE  H11X13547   1.671   3.899   4.136 -1.2651  0.3567 -1.3630
  126SOPE  H11Y13548   1.625   4.072   4.145  1.5864  1.0677  0.9357
  126SOPE  C31213549   1.779   4.015   4.277  0.2060  0.3469 -0.5568
  126SOPE  H12X13550   1.838   4.108   4.262  1.2260 -0.6859 -3.7340
  126SOPE  H12Y13551   1.838   3.924   4.300 -0.9518 -0.2366  0.2193
  126SOPE  C31313552   1.677   4.026   4.388 -0.3984 -0.4938 -0.1329
  126SOPE  H13X13553   1.593   4.097   4.373 -0.3474 -0.3327  0.3183
  126SOPE  H13Y13554   1.732   4.051   4.481  1.4391 -0.3529 -1.2028
  126SOPE  C31413555   1.606   3.892   4.417 -0.3320 -0.2239  0.9484
  126SOPE  H14X13556   1.670   3.801   4.422 -1.4301 -1.1621 -0.9169
  126SOPE  H14Y13557   1.536   3.876   4.332  0.0018 -1.9692  0.9649
  126SOPE  C31513558   1.525   3.900   4.549  0.0411 -0.3118 -0.5404
  126SOPE  H15X13559   1.461   3.991   4.555  2.3145  1.3242  0.4889
  126SOPE  H15Y13560   1.603   3.917   4.626 -2.0950 -1.5276  2.0820
  126SOPE  C31613561   1.446   3.776   4.580  0.4580 -0.4794 -0.2637
  126SOPE  H16X13562   1.518   3.699   4.614 -0.2802 -1.8763 -1.7304
  126SOPE  H16Y13563   1.387   3.741   4.493  0.1948 -0.2292 -0.1868
  126SOPE  C31713564   1.341   3.777   4.689  0.8697 -0.3585 -0.5309
  126SOPE  H17X13565   1.264   3.851   4.660  0.7207  0.2978  1.3827
  126SOPE  H17Y13566   1.394   3.809   4.782 -0.1889 -1.6457  0.5593
  126SOPE  C31813567   1.273   3.649   4.723  0.1067 -0.3633  0.0736
  126SOPE  H18X13568   1.339   3.582   4.782 -2.2819 -0.7201  2.5589
  126SOPE  H18Y13569   1.222   3.598   4.638 -0.8274  1.4089 -0.4703
  126SOPE  H18Z13570   1.191   3.670   4.795  0.0081 -0.1864 -0.0881
  127SOPE     N13571   4.815   4.739   2.510 -0.9264  0.2875 -0.2752
  127SOPE   HN113572   4.791   4.744   2.611 -1.5876  1.0149 -0.4569
  127SOPE   HN213573   4.751   4.798   2.454  0.7723  0.9808 -1.5684
  127SOPE   HN313574   4.797   4.644   2.473 -2.6376  0.7521 -0.7536
  127SOPE   C1213575   4.958   4.771   2.497  0.5000 -0.0454 -0.0613
  127SOPE  H12A13576   4.962   4.874   2.537  0.5860  0.1209 -0.4873
  127SOPE  H12B13577   4.988   4.749   2.392 -0.7628  0.8833 -0.6296
  127SOPE   C1113578   5.034   4.680   2.591 -1.1099 -0.6128  0.5610
  127SOPE  H11A13579   5.024   4.717   2.695  2.0904  2.8330 -0.1450
  127SOPE  H11B13580   5.140   4.703   2.567 -2.1340  2.6526 -1.4149
  127SOPE     P13581   5.062   4.432   2.518 -0.0783 -0.0542 -0.0151
  127SOPE   O1313582   5.178   4.487   2.449  0.1453 -0.7167  0.2921
  127SOPE   O1413583   4.979   4.341   2.434 -0.0559  0.7589  0.2900
  127SOPE   O1213584   4.982   4.549   2.579 -0.3630 -0.6002 -0.7463
  127SOPE   O1113585   5.112   4.341   2.644  0.4580 -0.4090 -0.2308
  127SOPE    C113586   5.169   4.398   2.754  0.0232 -0.4695  0.0274
  127SOPE    HA13587   5.110   4.377   2.846 -1.3854 -5.1181 -1.6728
  127SOPE    HB13588   5.176   4.509   2.744 -1.6921 -0.2695  0.5677
  127SOPE    C213589   5.308   4.334   2.797  0.1109  0.2913  0.2240
  127SOPE    HS13590   5.369   4.324   2.705  1.0270  1.6887  0.6482
  127SOPE   O2113591   5.269   4.206   2.855 -0.6046 -0.0110  0.5638
  127SOPE   C2113592   5.359   4.107   2.841 -0.9220  0.5044 -1.0128
  127SOPE   O2213593   5.473   4.117   2.803 -0.2143 -0.2833 -0.1669
  127SOPE   C2213594   5.300   3.968   2.889  0.2352 -0.8059 -0.1102
  127SOPE   H2R13595   5.314   3.895   2.808  4.9750 -1.7082  1.2168
  127SOPE   H2S13596   5.193   3.999   2.897  0.0924 -1.3400  0.0564
  127SOPE    C313597   5.384   4.427   2.894 -0.4280 -0.7264 -0.4469
  127SOPE    HX13598   5.322   4.466   2.978  0.3742 -1.3264  0.4532
  127SOPE    HY13599   5.410   4.515   2.832  1.0462 -1.0819 -0.3686
  127SOPE   O3113600   5.501   4.358   2.943  0.0188 -0.6392 -0.2905
  127SOPE   C3113601   5.492   4.312   3.067  0.3672  0.0754  0.4687
  127SOPE   O3213602   5.394   4.316   3.135  0.3514 -0.3737  0.4973
  127SOPE   C3213603   5.635   4.277   3.106  0.3875  0.1657 -0.2221
  127SOPE   H2X13604   5.699   4.354   3.059 -0.9836 -0.3144 -3.1734
  127SOPE   H2Y13605   5.661   4.182   3.054 -3.1871  0.5164 -3.0592
  127SOPE   C2313606   5.361   3.920   3.020 -0.2455  0.3003 -0.1140
  127SOPE   H3R13607   5.469   3.948   3.020 -0.4165  1.5428  3.6331
  127SOPE   H3S13608   5.352   3.810   3.022  1.0263  0.1184 -2.0528
  127SOPE   C2413609   5.285   3.967   3.141  0.7813 -0.4224 -0.1124
  127SOPE   H4R13610   5.319   4.069   3.168 -1.1438  0.1278  0.4520
  127SOPE   H4S13611   5.177   3.978   3.118 -0.3367 -3.1186  3.0037
  127SOPE   C2513612   5.300   3.873   3.258  0.9138  0.5641 -0.3534
  127SOPE   H5R13613   5.285   3.765   3.237  0.4131  0.5742 -0.0739
  127SOPE   H5S13614   5.404   3.880   3.295  0.1190  0.6645  2.0599
  127SOPE   C2613615   5.215   3.935   3.379  0.2207  0.1440 -0.5095
  127SOPE   H6R13616   5.256   4.035   3.405 -0.5232  0.5705 -0.9434
  127SOPE   H6S13617   5.112   3.945   3.338  0.0999  0.0257 -0.2412
  127SOPE   C2713618   5.210   3.856   3.515 -0.1711 -0.8258  0.5461
  127SOPE   H7R13619   5.193   3.749   3.490  1.1347 -1.0602  0.6017
  127SOPE   H7S13620   5.312   3.859   3.559 -0.7965  1.8275  2.0432
  127SOPE   C2813621   5.118   3.917   3.619  0.1893 -0.3112  0.2528
  127SOPE   H8R13622   5.138   3.885   3.724  0.2025  2.0522  1.0389
  127SOPE   H8S13623   5.127   4.028   3.618  0.0980 -0.3039 -0.3298
  127SOPE   C2913624   4.977   3.877   3.585 -0.2111 -0.2300 -0.2428
  127SOPE   H9113625   4.971   3.768   3.573 -0.3860  0.0148 -3.0658
  127SOPE  C21013626   4.872   3.947   3.551  1.0019 -0.2689  0.1569
  127SOPE  H10113627   4.778   3.893   3.538 -0.9277  2.3491  2.1418
  127SOPE  C21113628   4.847   4.097   3.567  0.1696 -0.7418  0.7648
  127SOPE  H11R13629   4.759   4.132   3.510  2.5392  2.5547 -1.2146
  127SOPE  H11S13630   4.930   4.163   3.532 -1.2974  0.4222 -0.6548
  127SOPE  C21213631   4.816   4.142   3.709 -0.0322 -0.2410 -0.3048
  127SOPE  H12R13632   4.914   4.140   3.761  0.4401  0.8023 -1.1202
  127SOPE  H12S13633   4.728   4.090   3.752 -0.7257 -0.5314 -1.9787
  127SOPE  C21313634   4.778   4.288   3.707  0.1173 -0.3266 -0.2233
  127SOPE  H13R13635   4.674   4.302   3.669  0.9888  0.5777 -2.4124
  127SOPE  H13S13636   4.835   4.341   3.628  0.0643 -1.3754 -0.9931
  127SOPE  C21413637   4.799   4.356   3.847  0.1481  0.2296 -0.1057
  127SOPE  H14R13638   4.908   4.356   3.871  0.1017 -0.4606  0.1026
  127SOPE  H14S13639   4.761   4.297   3.933 -0.1022  1.6791  0.8158
  127SOPE  C21513640   4.739   4.502   3.854 -0.0476 -0.0598  0.3931
  127SOPE  H15R13641   4.795   4.568   3.785 -3.0012  0.9456 -1.2076
  127SOPE  H15S13642   4.761   4.529   3.960 -0.1170 -0.1869  0.4411
  127SOPE  C21613643   4.589   4.515   3.828  0.5434 -0.5703 -0.1957
  127SOPE  H16R13644   4.523   4.448   3.888 -1.0510  0.6650 -0.4896
  127SOPE  H16S13645   4.568   4.491   3.722 -2.2988 -2.8591  0.7488
  127SOPE  C21713646   4.525   4.652   3.858 -0.3079 -0.3841 -0.3724
  127SOPE  H17R13647   4.591   4.732   3.819 -0.1723 -0.3117 -0.0010
  127SOPE  H17S13648   4.510   4.658   3.968  0.3507 -1.4440 -0.2050
  127SOPE  C21813649   4.385   4.667   3.802 -0.0493  0.0265 -0.6374
  127SOPE  H18R13650   4.326   4.577   3.827  0.8672 -0.4179 -0.0251
  127SOPE  H18S13651   4.392   4.680   3.691  0.6385 -0.9728 -0.7205
  127SOPE  H18T13652   4.341   4.762   3.838  1.2573  0.2139  0.5250
  127SOPE   C3313653   5.665   4.258   3.261  0.2889 -0.4384 -0.0778
  127SOPE   H3X13654   5.657   4.353   3.318 -1.5415  0.0499 -1.0919
  127SOPE   H3Y13655   5.771   4.230   3.281  0.3787  1.6090  3.1597
  127SOPE   C3413656   5.588   4.146   3.324 -0.7603  0.0569  0.3341
  127SOPE   H4X13657   5.602   4.058   3.258  0.0533  0.9033 -0.6511
  127SOPE   H4Y13658   5.481   4.176   3.327 -1.6414 -2.8615  1.4133
  127SOPE   C3513659   5.626   4.119   3.466 -0.4012  1.2287 -0.1746
  127SOPE   H5X13660   5.630   4.207   3.533  2.2730 -0.6309  2.3820
  127SOPE   H5Y13661   5.733   4.091   3.450 -0.4377  1.8416 -1.5083
  127SOPE   C3613662   5.544   4.014   3.544 -0.6745 -0.1552 -0.4824
  127SOPE   H6X13663   5.528   3.940   3.463 -1.5173 -2.8758  2.0100
  127SOPE   H6Y13664   5.445   4.051   3.579 -1.8877 -2.8591 -0.7668
  127SOPE   C3713665   5.617   3.941   3.659 -0.6712  0.0312 -0.3006
  127SOPE   H7X13666   5.714   3.896   3.629  0.9356  2.7082  0.5295
  127SOPE   H7Y13667   5.546   3.860   3.685 -1.8407  0.2203 -2.6597
  127SOPE   C3813668   5.657   4.023   3.787  0.1156 -0.2539  0.2037
  127SOPE   H8X13669   5.577   4.091   3.823 -1.1086 -2.0685  1.1377
  127SOPE   H8Y13670   5.739   4.089   3.752 -0.0196 -1.2232 -2.0784
  127SOPE   C3913671   5.704   3.924   3.902 -0.2857 -0.5318  0.5765
  127SOPE   H9X13672   5.783   3.853   3.872  0.1935  0.1920  0.0714
  127SOPE   H9Y13673   5.614   3.859   3.906 -1.2616  0.7855  1.1436
  127SOPE  C31013674   5.734   3.983   4.035  0.6089 -0.3063 -0.3924
  127SOPE  H10X13675   5.663   4.068   4.030  1.5563  0.5730  0.6783
  127SOPE  H10Y13676   5.841   4.013   4.029  0.4791  0.0248 -1.2985
  127SOPE  C31113677   5.696   3.901   4.164  0.0907 -0.8259  0.5588
  127SOPE  H11X13678   5.746   3.804   4.146  3.8914  1.1548 -0.5428
  127SOPE  H11Y13679   5.585   3.896   4.175  0.0391  1.4101  1.6726
  127SOPE  C31213680   5.760   3.955   4.292  0.1662  0.6243 -0.8638
  127SOPE  H12X13681   5.725   4.052   4.333  1.0202  0.1763  1.0156
  127SOPE  H12Y13682   5.869   3.971   4.278  0.3588  0.3081  0.2462
  127SOPE  C31313683   5.727   3.853   4.404  0.7529 -0.0209  0.8724
  127SOPE  H13X13684   5.785   3.877   4.495  0.8688  4.7193 -0.2037
  127SOPE  H13Y13685   5.749   3.749   4.372 -2.2926 -0.5502  0.1788
  127SOPE  C31413686   5.581   3.855   4.440 -0.3665 -0.0537  0.0520
  127SOPE  H14X13687   5.508   3.817   4.365 -2.3100  0.2899  1.6670
  127SOPE  H14Y13688   5.549   3.956   4.474 -0.1739  0.8463 -2.2484
  127SOPE  C31513689   5.563   3.753   4.561 -0.0065  0.2430  0.4104
  127SOPE  H15X13690   5.637   3.793   4.634  2.4660  0.2852 -1.9743
  127SOPE  H15Y13691   5.583   3.653   4.519 -0.7428 -0.4874  1.7447
  127SOPE  C31613692   5.417   3.742   4.603 -0.2802 -0.8729  0.3154
  127SOPE  H16X13693   5.362   3.692   4.521  1.0311 -1.5589 -0.1766
  127SOPE  H16Y13694   5.391   3.850   4.606  0.9175 -0.5793  1.4975
  127SOPE  C31713695   5.391   3.681   4.734  0.2292  0.0687  0.0141
  127SOPE  H17X13696   5.459   3.593   4.734  0.4507  0.2120 -1.3746
  127SOPE  H17Y13697   5.286   3.647   4.748  0.4109  0.1734  1.9889
  127SOPE  C31813698   5.418   3.781   4.847  0.2490  0.3681 -0.0121
  127SOPE  H18X13699   5.527   3.791   4.863  0.3724  0.4535 -0.8369
  127SOPE  H18Y13700   5.360   3.736   4.930 -0.4035 -1.0454 -1.1760
  127SOPE  H18Z13701   5.370   3.879   4.825  0.4561  0.6199  0.6394
  128SOPE     N13702   0.559   3.344   2.233  0.0601  0.4077  0.2590
  128SOPE   HN113703   0.640   3.395   2.194  1.5964 -1.4271  0.8925
  128SOPE   HN213704   0.593   3.296   2.318  0.5860  0.3185  0.0034
  128SOPE   HN313705   0.538   3.265   2.168 -1.4531  1.8241 -1.0864
  128SOPE   C1213706   0.437   3.425   2.262  0.0803  1.0075  0.3321
  128SOPE  H12A13707   0.361   3.360   2.309 -1.0823  1.3328 -1.0318
  128SOPE  H12B13708   0.404   3.466   2.164 -0.1961 -0.1941 -0.0901
  128SOPE   C1113709   0.476   3.538   2.358 -0.7303 -0.1252  1.1017
  128SOPE  H11A13710   0.528   3.494   2.446  1.5925 -2.0507 -1.0838
  128SOPE  H11B13711   0.375   3.582   2.376 -1.3167 -0.4998 -0.9633
  128SOPE     P13712   0.703   3.662   2.301 -0.1286  0.1572 -0.1152
  128SOPE   O1313713   0.724   3.788   2.226  0.1437 -0.0354  0.1468
  128SOPE   O1413714   0.771   3.541   2.246 -0.1006  0.2084  0.1515
  128SOPE   O1213715   0.550   3.641   2.292 -0.2083  0.3862 -0.4580
  128SOPE   O1113716   0.739   3.673   2.452 -0.5535  0.0795 -0.6628
  128SOPE    C113717   0.719   3.804   2.517 -0.7857  0.5800  0.3504
  128SOPE    HA13718   0.633   3.864   2.479 -0.1219  2.3409  1.5130
  128SOPE    HB13719   0.806   3.868   2.490 -0.6763 -0.4096 -1.8829
  128SOPE    C213720   0.704   3.791   2.670 -0.1358 -0.3334 -0.1868
  128SOPE    HS13721   0.698   3.891   2.717 -0.9138 -0.2300 -0.4855
  128SOPE   O2113722   0.814   3.718   2.729 -0.2109 -0.2803  0.1198
  128SOPE   C2113723   0.923   3.792   2.751  0.6889  0.3889  0.4491
  128SOPE   O2213724   0.925   3.915   2.753 -0.2869  0.5501 -0.0319
  128SOPE   C2213725   1.037   3.694   2.756  0.0570 -0.0844 -0.2696
  128SOPE   H2R13726   1.059   3.667   2.651 -2.6356  0.6398 -1.0816
  128SOPE   H2S13727   1.010   3.600   2.809  0.6784  0.4556  1.0502
  128SOPE    C313728   0.574   3.718   2.708 -0.7664  0.0794 -0.1701
  128SOPE    HX13729   0.583   3.618   2.661  0.4437 -0.4291  1.0637
  128SOPE    HY13730   0.490   3.778   2.669 -0.9081 -0.4894 -0.7608
  128SOPE   O3113731   0.557   3.715   2.858  0.2680  0.1607  0.2793
  128SOPE   C3113732   0.475   3.618   2.889  0.5950  0.5115 -0.0956
  128SOPE   O3213733   0.419   3.540   2.812 -0.2791 -1.1150  0.9070
  128SOPE   C3213734   0.450   3.616   3.046  0.0208  0.1135 -0.0932
  128SOPE   H2X13735   0.425   3.721   3.073 -2.0659 -0.2170 -0.5481
  128SOPE   H2Y13736   0.543   3.570   3.085  0.1258  0.6908  0.3555
  128SOPE   C2313737   1.159   3.771   2.812 -0.0830 -0.0080 -0.5215
  128SOPE   H3R13738   1.183   3.868   2.764  0.1592 -0.4208 -1.2449
  128SOPE   H3S13739   1.248   3.707   2.793  0.1259 -0.7239  2.3053
  128SOPE   C2413740   1.151   3.789   2.959  0.4111 -0.6417 -0.5126
  128SOPE   H4R13741   1.079   3.869   2.988  0.8184  0.0397 -1.3500
  128SOPE   H4S13742   1.128   3.698   3.019 -1.1726  0.0411 -0.0137
  128SOPE   C2513743   1.285   3.852   3.005  0.3118 -0.5715  0.1753
  128SOPE   H5R13744   1.367   3.790   2.963  0.1636 -0.9916  0.4966
  128SOPE   H5S13745   1.300   3.951   2.955  0.0866 -1.2339 -1.2549
  128SOPE   C2613746   1.285   3.854   3.153  0.7695 -0.4648 -0.6253
  128SOPE   H6R13747   1.224   3.768   3.190 -0.9334  1.4209  1.2341
  128SOPE   H6S13748   1.392   3.836   3.175  2.0428  0.8991 -4.8390
  128SOPE   C2713749   1.240   3.986   3.218  0.0969 -0.6810  0.2038
  128SOPE   H7R13750   1.321   4.057   3.191 -0.4050  0.3423  1.2645
  128SOPE   H7S13751   1.149   4.018   3.163 -0.0731 -3.8939 -1.6478
  128SOPE   C2813752   1.223   3.989   3.370 -0.6355  0.5191  0.1182
  128SOPE   H8R13753   1.182   4.085   3.408 -0.7480  0.6463 -0.3202
  128SOPE   H8S13754   1.157   3.908   3.406  0.0750  0.2751  0.9153
  128SOPE   C2913755   1.358   3.970   3.427  0.0147 -0.2235  0.7901
  128SOPE   H9113756   1.417   4.063   3.426  0.1712 -0.1876  3.9748
  128SOPE  C21013757   1.420   3.870   3.489  0.5439  0.3640 -0.8187
  128SOPE  H10113758   1.521   3.884   3.529  0.5305  2.0693 -1.3258
  128SOPE  C21113759   1.349   3.735   3.527 -0.1359 -0.2924 -0.5347
  128SOPE  H11R13760   1.416   3.651   3.497 -1.3606 -0.9803 -1.4559
  128SOPE  H11S13761   1.250   3.713   3.482 -0.5580 -1.0115  0.6752
  128SOPE  C21213762   1.341   3.721   3.685 -0.0533  0.1510 -0.4967
  128SOPE  H12R13763   1.445   3.727   3.725 -0.1418  4.2201 -0.4072
  128SOPE  H12S13764   1.298   3.622   3.709 -0.7118  0.6513  0.4405
  128SOPE  C21313765   1.259   3.820   3.770 -0.1586  0.3378  0.2921
  128SOPE  H13R13766   1.275   3.919   3.722 -0.8676  0.9092  1.1995
  128SOPE  H13S13767   1.294   3.820   3.875 -0.6568  3.3895  0.5465
  128SOPE  C21413768   1.104   3.792   3.771  0.3238 -0.2544  0.3059
  128SOPE  H14R13769   1.061   3.847   3.857  0.9013  1.1477 -0.2686
  128SOPE  H14S13770   1.092   3.682   3.783 -1.2115 -0.3105 -1.3481
  128SOPE  C21513771   1.028   3.843   3.643 -0.0380 -0.0786  0.2778
  128SOPE  H15R13772   1.053   3.789   3.549  1.4882  1.1975 -0.0969
  128SOPE  H15S13773   1.050   3.951   3.633 -0.5375  0.1257  1.2334
  128SOPE  C21613774   0.871   3.835   3.648  0.0680  0.7480  0.4384
  128SOPE  H16R13775   0.827   3.906   3.574 -1.5893 -0.0255  0.6429
  128SOPE  H16S13776   0.837   3.868   3.748 -2.8008 -0.2496 -0.1049
  128SOPE  C21713777   0.818   3.691   3.631  0.2863 -0.5231 -0.0867
  128SOPE  H17R13778   0.870   3.626   3.705 -0.4710 -0.0211  0.9237
  128SOPE  H17S13779   0.842   3.662   3.527  0.3570 -2.4260  0.4297
  128SOPE  C21813780   0.661   3.689   3.631  0.0933  0.0097 -0.2392
  128SOPE  H18R13781   0.626   3.711   3.734  2.0145 -0.1142  0.4781
  128SOPE  H18S13782   0.630   3.584   3.613  0.1489 -0.3409  1.5507
  128SOPE  H18T13783   0.626   3.761   3.554 -2.1394 -0.1475  0.5546
  128SOPE   C3313784   0.350   3.513   3.099 -0.1295  0.2003 -0.3394
  128SOPE   H3X13785   0.359   3.423   3.034 -2.5505  2.1354 -3.7485
  128SOPE   H3Y13786   0.249   3.543   3.063  0.4763  0.3652 -2.0140
  128SOPE   C3413787   0.351   3.479   3.249  0.3863 -0.3026 -0.2607
  128SOPE   H4X13788   0.452   3.433   3.259  1.1673  0.7476 -2.6051
  128SOPE   H4Y13789   0.266   3.414   3.279  0.9891 -3.3933 -4.3826
  128SOPE   C3513790   0.337   3.611   3.329  1.1132 -1.2221 -0.6234
  128SOPE   H5X13791   0.249   3.670   3.298  1.6911  1.1993  1.9489
  128SOPE   H5Y13792   0.418   3.684   3.309  0.6704 -0.0132  1.6030
  128SOPE   C3613793   0.326   3.589   3.482  0.4353  0.1346  0.0523
  128SOPE   H6X13794   0.421   3.545   3.516 -0.8782 -0.4767  3.3466
  128SOPE   H6Y13795   0.248   3.514   3.507  0.1462  0.9931  1.9160
  128SOPE   C3713796   0.312   3.722   3.562  0.2019 -0.2124 -0.3354
  128SOPE   H7X13797   0.230   3.772   3.507  0.7247 -0.4473 -1.3572
  128SOPE   H7Y13798   0.408   3.778   3.557  0.3990 -0.5030  0.1199
  128SOPE   C3813799   0.265   3.702   3.712  0.1820  0.7669 -0.2666
  128SOPE   H8X13800   0.352   3.663   3.769 -0.0254  0.9085  0.1521
  128SOPE   H8Y13801   0.177   3.636   3.698  0.7703 -0.3477  1.0383
  128SOPE   C3913802   0.234   3.835   3.771  0.3078 -0.5979 -0.3492
  128SOPE   H9X13803   0.188   3.815   3.871  0.6692  1.2483  0.2206
  128SOPE   H9Y13804   0.153   3.890   3.718  0.4140 -1.1853 -1.1345
  128SOPE  C31013805   0.358   3.922   3.795  0.2314  0.2105 -0.0060
  128SOPE  H10X13806   0.444   3.866   3.752  1.0417  1.3423  0.0963
  128SOPE  H10Y13807   0.385   3.925   3.903  0.1077  0.6914  0.0099
  128SOPE  C31113808   0.346   4.070   3.747 -0.7729 -0.1666 -0.2944
  128SOPE  H11X13809   0.424   4.126   3.802 -1.1115 -0.5193  0.5586
  128SOPE  H11Y13810   0.250   4.105   3.793 -1.6587 -1.7342 -0.8785
  128SOPE  C31213811   0.350   4.106   3.597  0.2526 -0.0948 -0.3931
  128SOPE  H12X13812   0.324   4.209   3.563  0.1688 -0.1030 -0.3517
  128SOPE  H12Y13813   0.271   4.047   3.546 -0.3022  0.1665  0.1578
  128SOPE  C31313814   0.485   4.072   3.537 -0.1516 -0.1143 -0.5497
  128SOPE  H13X13815   0.508   3.966   3.559 -0.4470  0.2192  1.5802
  128SOPE  H13Y13816   0.566   4.112   3.602 -0.4175  0.2312 -0.4305
  128SOPE  C31413817   0.508   4.106   3.389  0.1132  0.5141  0.4237
  128SOPE  H14X13818   0.545   4.211   3.393  1.3474  0.0711  0.9584
  128SOPE  H14Y13819   0.414   4.081   3.335 -0.7599  2.9192  0.6881
  128SOPE  C31513820   0.625   4.031   3.321 -0.5451  0.0347  0.0632
  128SOPE  H15X13821   0.712   4.044   3.389  0.1072 -0.9867 -0.5549
  128SOPE  H15Y13822   0.651   4.095   3.233  0.7739  0.2204  0.5655
  128SOPE  C31613823   0.604   3.882   3.291 -0.0101  0.6379 -0.6098
  128SOPE  H16X13824   0.537   3.870   3.203 -0.7485  1.2087 -0.1421
  128SOPE  H16Y13825   0.550   3.836   3.376 -0.8451 -0.5634 -1.7528
  128SOPE  C31713826   0.741   3.808   3.272  0.0394  0.3980  0.0756
  128SOPE  H17X13827   0.731   3.703   3.308  1.2399  0.6377  1.1622
  128SOPE  H17Y13828   0.813   3.863   3.336 -0.3262  0.0493  0.7971
  128SOPE  C31813829   0.788   3.802   3.124 -0.3203  1.1760 -0.6252
  128SOPE  H18X13830   0.893   3.767   3.122 -1.4775 -2.8788 -0.5671
  128SOPE  H18Y13831   0.810   3.902   3.082  3.6605  0.7240  0.0378
  128SOPE  H18Z13832   0.710   3.744   3.069 -0.7895 -0.3823  1.5382
  129OSM      N13833   0.260   0.929   7.049 -0.0359  0.0669  0.9324
  129OSM    C1513834   0.263   0.777   7.051 -0.3440 -0.9042 -0.3818
  129OSM   H15A13835   0.362   0.740   7.071 -0.3845 -0.8382 -0.0573
  129OSM   H15B13836   0.251   0.734   6.952 -2.5064 -1.0107 -0.1323
  129OSM   H15C13837   0.200   0.733   7.126  0.4656 -0.0944  0.7973
  129OSM    C1413838   0.135   0.978   6.984 -0.0730 -0.8280  0.3206
  129OSM   H14A13839   0.050   0.918   7.015 -1.9880  2.1939  1.3501
  129OSM   H14B13840   0.137   0.963   6.877  0.9246 -3.0086  0.6009
  129OSM   H14C13841   0.120   1.082   7.010 -1.1317 -1.1285  0.9472
  129OSM    C1313842   0.255   0.969   7.193 -0.3273 -0.1249 -0.1970
  129OSM   H13A13843   0.337   0.933   7.253 -0.2834  0.0927 -0.1227
  129OSM   H13B13844   0.162   0.946   7.244 -0.0278  1.4376  1.1637
  129OSM   H13C13845   0.265   1.076   7.204  2.1765 -0.3580  0.3355
  129OSM    C1213846   0.377   0.987   6.971  0.2836 -0.1719 -0.5695
  129OSM   H12A13847   0.367   1.094   6.984 -1.7047 -0.4763  0.8317
  129OSM   H12B13848   0.364   0.974   6.865 -0.9923  1.5874 -0.6720
  129OSM    C1113849   0.521   0.958   7.025  0.2995 -0.2090 -0.5122
  129OSM   H11A13850   0.515   1.005   7.126 -2.2900  0.3218 -0.8353
  129OSM   H11B13851   0.596   0.999   6.955  0.6360  1.4684  0.7878
  129OSM      P13852   0.569   0.735   6.905 -0.1083  0.4468  0.1002
  129OSM    O1313853   0.709   0.694   6.904 -0.1510  0.5541 -0.3517
  129OSM    O1413854   0.473   0.619   6.902  0.2790  0.2223 -0.3083
  129OSM    O1113855   0.535   0.836   6.791  0.0801  0.4147  0.1824
  129OSM    O1213856   0.545   0.816   7.036  0.3788 -0.1218  0.5886
  129OSM    C1S13857   0.523   0.787   6.656 -0.3621  0.2839 -0.4950
  129OSM    H1S13858   0.423   0.740   6.654 -0.6386  0.7086  1.2199
  129OSM    H1T13859   0.596   0.706   6.635 -1.3445 -0.3812 -1.4401
  129OSM     NF13860   0.531   0.861   6.415 -0.2060  0.4055 -0.2744
  129OSM    HNF13861   0.613   0.864   6.358 -0.1341 -0.0249 -0.1913
  129OSM    C2S13862   0.537   0.906   6.556  0.2459 -0.3719  0.1196
  129OSM    H2S13863   0.463   0.986   6.577 -1.1032 -0.9899 -1.9835
  129OSM    C3S13864   0.682   0.975   6.571 -0.2136  0.0242  0.9284
  129OSM    H3S13865   0.765   0.909   6.536 -0.5527  0.4430 -0.7681
  129OSM     O313866   0.732   1.005   6.702  0.9042  0.2963 -0.5616
  129OSM    HO313867   0.663   0.963   6.754  1.3584  0.0241 -0.1825
  129OSM    C4S13868   0.703   1.093   6.473 -0.5865  0.5289 -0.1163
  129OSM    H4S13869   0.749   1.072   6.375  2.9101  1.1775  1.2295
  129OSM    C5S13870   0.692   1.232   6.481 -0.5433  0.8453 -0.0653
  129OSM    H5S13871   0.658   1.279   6.575 -1.6030  0.8425 -0.4312
  129OSM    C6S13872   0.721   1.329   6.375 -0.1175  0.2791  0.6456
  129OSM    H6S13873   0.808   1.393   6.400 -0.0703  0.2611  0.5310
  129OSM    H6T13874   0.632   1.394   6.364 -0.0733  0.0251 -1.8876
  129OSM    C7S13875   0.734   1.269   6.228 -0.0728  0.2467 -0.1083
  129OSM    H7S13876   0.668   1.181   6.212  2.3714 -1.8410  0.5886
  129OSM    H7T13877   0.829   1.218   6.205  0.3748  0.6459  0.7874
  129OSM    C8S13878   0.727   1.379   6.120 -0.0075  0.1185 -0.0325
  129OSM    H8S13879   0.779   1.470   6.154 -0.7405 -0.0972  1.7658
  129OSM    H8T13880   0.621   1.404   6.098  0.1929  0.3275 -0.7960
  129OSM    C9S13881   0.798   1.342   5.992  0.3395  0.8406 -0.4375
  129OSM    H9S13882   0.763   1.239   5.969  0.0815  0.5070  1.3081
  129OSM    H9T13883   0.906   1.331   6.018  0.3813  1.2420 -0.4269
  129OSM   C10S13884   0.770   1.437   5.884  0.4355 -0.2667 -0.2703
  129OSM   H10S13885   0.822   1.532   5.908 -1.9942  1.7716 -2.3850
  129OSM   H10T13886   0.662   1.466   5.884  0.2169 -1.0440 -1.0207
  129OSM   C11S13887   0.817   1.373   5.753 -0.3902 -0.0866  0.0568
  129OSM   H11S13888   0.755   1.284   5.729 -2.3173  1.0314  0.6611
  129OSM   H11T13889   0.921   1.339   5.771 -0.5913 -0.4559  0.5478
  129OSM   C12S13890   0.808   1.473   5.630  0.3775 -0.4644 -0.4620
  129OSM   H12S13891   0.880   1.556   5.647  0.1640 -0.1282 -1.1666
  129OSM   H12T13892   0.704   1.512   5.632 -0.1171 -1.6063  2.5961
  129OSM   C13S13893   0.844   1.396   5.504 -0.6657  0.2055 -0.6469
  129OSM   H13S13894   0.776   1.308   5.501  1.4347 -1.4930 -1.4820
  129OSM   H13T13895   0.949   1.360   5.507 -0.9731 -0.6508  0.3641
  129OSM   C14S13896   0.822   1.475   5.376 -0.0712 -0.3330 -0.3364
  129OSM   H14S13897   0.877   1.571   5.380  0.0447 -0.4350  0.9733
  129OSM   H14T13898   0.713   1.499   5.372 -0.4418 -1.7944  0.3620
  129OSM   C15S13899   0.865   1.400   5.255 -0.1168  0.4173 -0.0156
  129OSM   H15S13900   0.797   1.315   5.233 -0.1971  0.9493 -2.0519
  129OSM   H15T13901   0.967   1.368   5.282 -0.7279  0.4468  2.6024
  129OSM   C16S13902   0.857   1.477   5.124 -0.3263  0.2276  0.1975
  129OSM   H16S13903   0.941   1.550   5.116 -0.1746 -0.1038 -1.7439
  129OSM   H16T13904   0.758   1.528   5.119 -0.2558  0.3813  0.3731
  129OSM   C17S13905   0.873   1.382   5.003  0.1254  0.2090  0.0996
  129OSM   H17S13906   0.790   1.308   5.009 -1.2381  1.6282 -0.4079
  129OSM   H17T13907   0.971   1.337   5.029  0.4657  0.1688 -1.1666
  129OSM   C18S13908   0.886   1.443   4.862 -0.0506 -0.0862  0.0593
  129OSM   H18S13909   0.788   1.435   4.810 -1.3353 -2.9200  2.5906
  129OSM   H18T13910   0.961   1.391   4.797 -0.6668 -2.5649  1.2113
  129OSM   H18U13911   0.917   1.549   4.869 -0.4936  0.0138  0.5024
  129OSM    C1F13912   0.409   0.828   6.366  0.0663  0.0676  0.7589
  129OSM     OF13913   0.308   0.842   6.431 -0.4497  0.2828 -0.2723
  129OSM    C2F13914   0.399   0.769   6.229  0.1981 -0.6275  0.1745
  129OSM    H2F13915   0.399   0.659   6.245 -2.6921 -0.6693  0.3697
  129OSM    H2G13916   0.491   0.793   6.171  0.6120 -1.7340  0.3531
  129OSM    C3F13917   0.272   0.805   6.150 -0.3066  0.5269 -0.2134
  129OSM    H3F13918   0.242   0.912   6.159 -1.8169  0.2191 -1.2426
  129OSM    H3G13919   0.189   0.741   6.186  0.4775 -0.7146 -0.5434
  129OSM    C4F13920   0.288   0.755   6.006 -0.7469 -0.3098  0.1086
  129OSM    H4F13921   0.363   0.673   6.010  2.8757  2.7963  0.9159
  129OSM    H4G13922   0.337   0.841   5.956 -1.7733  0.7899  0.9250
  129OSM    C5F13923   0.162   0.720   5.935 -0.5230 -0.7168 -0.4658
  129OSM    H5F13924   0.102   0.813   5.930 -0.9581 -1.0349 -1.4390
  129OSM    H5G13925   0.116   0.640   5.997 -0.9610 -0.4935 -0.4943
  129OSM    C6F13926   0.198   0.664   5.793  0.5721  0.6551  0.4745
  129OSM    H6F13927   0.256   0.569   5.795 -0.5380 -0.0405  0.4491
  129OSM    H6G13928   0.255   0.743   5.741 -0.4812 -1.1581 -3.9157
  129OSM    C7F13929   0.074   0.657   5.701 -0.1751 -0.0054 -0.5242
  129OSM    H7F13930   0.030   0.757   5.687  2.1072  0.9176 -1.6251
  129OSM    H7G13931  -0.001   0.599   5.758 -0.8434  1.6928  0.3797
  129OSM    C8F13932   0.109   0.597   5.566 -0.1190  0.3116 -0.5011
  129OSM    H8F13933   0.168   0.503   5.575 -0.7093 -0.1225 -1.0548
  129OSM    H8G13934   0.171   0.674   5.515 -1.3745  1.9831  0.3782
  129OSM    C9F13935  -0.020   0.577   5.485  0.0833 -0.3730 -0.1469
  129OSM    H9F13936  -0.061   0.475   5.495 -0.3301 -0.4243 -2.0520
  129OSM   C10F13937  -0.083   0.658   5.401 -0.0687  0.1642 -0.5105
  129OSM   H10F13938  -0.175   0.625   5.350 -0.9785  0.7970  0.6633
  129OSM   C11F13939  -0.040   0.795   5.359  0.2588 -0.0879  0.6010
  129OSM   H11F13940   0.032   0.830   5.436 -0.8564  2.4477  0.6022
  129OSM   H11G13941  -0.130   0.860   5.365 -0.3155 -0.8390  0.2896
  129OSM   C12F13942   0.017   0.811   5.214  0.9563  0.0618 -0.2387
  129OSM   H12F13943   0.071   0.908   5.210  0.6356  0.3589  1.6971
  129OSM   H12G13944  -0.060   0.796   5.136  0.0134 -2.9062  1.0884
  129OSM   C13F13945   0.125   0.708   5.173 -0.0117 -0.5342 -0.2474
  129OSM   H13F13946   0.083   0.606   5.158 -4.3975  0.8215  1.4056
  129OSM   H13G13947   0.207   0.700   5.247  2.6421  2.1778 -2.6187
  129OSM   C14F13948   0.209   0.747   5.041 -0.2571  0.1075  0.1651
  129OSM   H14F13949   0.249   0.849   5.054  1.5434 -0.7824  2.5048
  129OSM   H14G13950   0.143   0.740   4.952 -0.1267 -1.5077  0.1648
  129OSM   C15F13951   0.334   0.664   5.023 -0.1490  0.0834  0.3370
  129OSM   H15F13952   0.307   0.557   5.012 -3.8030  1.0166 -1.4381
  129OSM   H15G13953   0.405   0.654   5.108  0.1497 -0.5614  0.0152
  129OSM   C16F13954   0.403   0.704   4.891 -0.5673 -0.1984 -0.0525
  129OSM   H16F13955   0.336   0.708   4.803 -0.0226 -0.9358 -0.5199
  129OSM   H16G13956   0.487   0.635   4.866 -2.2845 -1.4528 -2.8434
  129OSM   C17F13957   0.470   0.843   4.914  0.3699  0.2618 -0.0642
  129OSM   H17F13958   0.545   0.831   4.995  0.2635 -0.3230 -0.0491
  129OSM   H17G13959   0.410   0.930   4.947  0.7928  0.4504  0.2237
  129OSM   C18F13960   0.528   0.891   4.783 -0.9964  0.0096 -0.3531
  129OSM   H18F13961   0.587   0.805   4.745  1.1195  0.4803  1.6529
  129OSM   H18G13962   0.602   0.972   4.795 -0.1616 -0.6023 -1.2274
  129OSM   H18H13963   0.457   0.921   4.703 -1.6124 -2.2045 -0.7165
  130OSM      N13964   3.401   5.427   7.063  0.5475 -0.5147 -0.5965
  130OSM    C1513965   3.263   5.399   7.105  0.7033  0.4656  0.3463
  130OSM   H15A13966   3.234   5.295   7.097  0.0324  0.6292  0.5819
  130OSM   H15B13967   3.189   5.450   7.045 -0.1346  0.8382  1.6360
  130OSM   H15C13968   3.245   5.430   7.207 -1.0381  0.3572  0.1072
  130OSM    C1413969   3.435   5.568   7.105  0.4143  1.0490  0.2746
  130OSM   H14A13970   3.537   5.577   7.069 -0.2405  0.6447 -1.7920
  130OSM   H14B13971   3.435   5.578   7.213  1.1346  0.2980  0.3527
  130OSM   H14C13972   3.375   5.640   7.052  1.1966 -0.0326 -2.2208
  130OSM    C1313973   3.506   5.345   7.131 -0.3416  0.2069  0.2254
  130OSM   H13A13974   3.489   5.340   7.237  0.4632 -0.3517  0.3358
  130OSM   H13B13975   3.596   5.404   7.119 -1.0924  1.2964 -0.2290
  130OSM   H13C13976   3.523   5.251   7.081  0.4267 -0.3586  1.5181
  130OSM    C1213977   3.418   5.415   6.913 -0.2244 -0.5363 -0.1865
  130OSM   H12A13978   3.390   5.316   6.883 -3.0749  0.8325 -2.5567
  130OSM   H12B13979   3.519   5.442   6.883 -1.2472  1.6493 -1.9625
  130OSM    C1113980   3.346   5.518   6.824 -0.6921  0.1367  0.5895
  130OSM   H11A13981   3.235   5.509   6.827 -0.6341 -1.8593 -1.3123
  130OSM   H11B13982   3.386   5.488   6.725  2.5280  2.1882  1.1114
  130OSM      P13983   3.301   5.782   6.823  0.0145 -0.1387  0.4703
  130OSM    O1313984   3.253   5.822   6.958  0.2357  0.1647 -0.4077
  130OSM    O1413985   3.378   5.885   6.749  0.1547 -0.4714 -0.3487
  130OSM    O1113986   3.176   5.745   6.741 -0.0063  0.3284 -0.0248
  130OSM    O1213987   3.390   5.649   6.838 -0.4553 -0.5662 -0.6712
  130OSM    C1S13988   3.167   5.800   6.611  0.4442  0.3568  0.6952
  130OSM    H1S13989   3.264   5.827   6.565  1.0836 -0.0716  1.7691
  130OSM    H1T13990   3.104   5.892   6.604 -1.2853 -0.7177  1.4030
  130OSM     NF13991   3.078   5.761   6.375 -0.1158 -1.0934  0.4320
  130OSM    HNF13992   2.992   5.781   6.328  0.0930 -0.7841  0.1804
  130OSM    C2S13993   3.078   5.715   6.514  0.6469  0.1407 -0.1572
  130OSM    H2S13994   3.131   5.617   6.517 -0.3144 -0.4066 -0.5115
  130OSM    C3S13995   2.943   5.693   6.577  0.1355  0.8877  0.2205
  130OSM    H3S13996   2.896   5.794   6.587  0.6344  1.0527  1.0017
  130OSM     O313997   2.936   5.648   6.708 -0.3128 -0.3927  0.7070
  130OSM    HO313998   3.027   5.666   6.730  0.0118 -1.3001  0.1680
  130OSM    C4S13999   2.862   5.605   6.483 -0.7683 -0.4101 -0.6179
  130OSM    H4S14000   2.827   5.663   6.396 -3.6624  0.2284  0.8552
  130OSM    C5S14001   2.860   5.471   6.471  0.6920  0.3472 -0.3593
  130OSM    H5S14002   2.922   5.414   6.541 -1.3416 -3.4026 -1.3468
  130OSM    C6S14003   2.794   5.391   6.360 -0.5688  0.7034 -0.3982
  130OSM    H6S14004   2.863   5.318   6.313 -1.1685  0.4903 -0.9785
  130OSM    H6T14005   2.769   5.454   6.272 -1.6770 -0.2370 -0.7928
  130OSM    C7S14006   2.665   5.310   6.399 -0.1042 -0.7389 -0.3196
  130OSM    H7S14007   2.609   5.379   6.465  1.4987 -0.6087  0.9342
  130OSM    H7T14008   2.688   5.225   6.467 -0.5491  0.8906  1.9759
  130OSM    C8S14009   2.578   5.259   6.283  0.6203 -0.1085 -0.6444
  130OSM    H8S14010   2.523   5.349   6.249 -0.0200  0.6877  2.2786
  130OSM    H8T14011   2.498   5.194   6.323  1.4321  0.4919  2.1413
  130OSM    C9S14012   2.662   5.189   6.176 -0.5862 -0.6057  0.4678
  130OSM    H9S14013   2.703   5.094   6.216 -2.4561 -1.6145  0.0942
  130OSM    H9T14014   2.755   5.246   6.154 -0.5306 -0.9746 -0.3130
  130OSM   C10S14015   2.581   5.166   6.048 -0.1831  0.0656  0.5226
  130OSM   H10S14016   2.510   5.244   6.016 -1.4505 -0.4353  2.0226
  130OSM   H10T14017   2.512   5.082   6.072  0.1618 -1.0261 -1.9465
  130OSM   C11S14018   2.666   5.121   5.923  0.4044 -0.3393  0.1620
  130OSM   H11S14019   2.722   5.027   5.940  1.8604  0.1083 -1.9113
  130OSM   H11T14020   2.736   5.205   5.907 -0.6666  0.8871  1.6384
  130OSM   C12S14021   2.567   5.091   5.806 -0.0513 -0.7208  0.0754
  130OSM   H12S14022   2.516   5.177   5.758 -2.1581 -2.0534 -0.2516
  130OSM   H12T14023   2.490   5.031   5.860 -0.1172 -0.5828  0.1338
  130OSM   C13S14024   2.625   4.997   5.687  0.7613 -0.2299 -0.3736
  130OSM   H13S14025   2.668   4.906   5.733  2.4282  0.3745 -0.6651
  130OSM   H13T14026   2.710   5.055   5.647  1.2253 -0.9798 -0.4786
  130OSM   C14S14027   2.523   4.970   5.568 -0.2471  0.5842 -0.3911
  130OSM   H14S14028   2.496   5.065   5.516 -0.0550  0.8946  0.0685
  130OSM   H14T14029   2.434   4.927   5.618  0.2172  0.8009  0.6556
  130OSM   C15S14030   2.579   4.880   5.453 -0.1788  0.2443  0.0791
  130OSM   H15S14031   2.563   4.775   5.488  0.7098 -0.0043 -0.2235
  130OSM   H15T14032   2.689   4.893   5.449 -0.0739  0.8569  2.6859
  130OSM   C16S14033   2.510   4.905   5.318  0.6099  0.2404  0.3072
  130OSM   H16S14034   2.543   4.996   5.264  0.5156 -0.3514 -0.7920
  130OSM   H16T14035   2.401   4.913   5.339  0.7511 -1.6485  2.0232
  130OSM   C17S14036   2.546   4.792   5.224  0.3402 -0.4214  0.4846
  130OSM   H17S14037   2.493   4.703   5.265  0.6047  0.6515  3.4115
  130OSM   H17T14038   2.655   4.767   5.226  0.8175  1.5093  0.9500
  130OSM   C18S14039   2.509   4.827   5.076  0.3754  0.0757  0.4655
  130OSM   H18S14040   2.551   4.928   5.055  1.1811 -0.0336  1.4727
  130OSM   H18T14041   2.403   4.824   5.043  0.0933  0.4716  1.2861
  130OSM   H18U14042   2.572   4.763   5.011  0.1245  2.2137 -2.0814
  130OSM    C1F14043   3.196   5.780   6.305  0.2570  0.0586  1.1437
  130OSM     OF14044   3.304   5.741   6.353 -0.9053 -0.2410 -0.2139
  130OSM    C2F14045   3.182   5.840   6.166 -0.9073 -0.0892  0.3934
  130OSM    H2F14046   3.096   5.909   6.155  0.2197  0.9913 -2.7401
  130OSM    H2G14047   3.163   5.752   6.101 -1.0559 -0.3697  0.8105
  130OSM    C3F14048   3.310   5.922   6.128  0.2422  0.8462  0.4901
  130OSM    H3F14049   3.407   5.871   6.144  1.0907  1.5669 -1.8503
  130OSM    H3G14050   3.314   6.007   6.199  1.3892 -1.4125  3.3466
  130OSM    C4F14051   3.309   5.979   5.982 -0.3587 -0.4350 -0.0216
  130OSM    H4F14052   3.388   6.056   5.972 -0.7779 -0.1708 -1.6048
  130OSM    H4G14053   3.219   6.038   5.955 -1.2413 -1.8909 -0.3887
  130OSM    C5F14054   3.315   5.870   5.873  0.5617  0.5723 -0.6412
  130OSM    H5F14055   3.224   5.807   5.879  1.7499 -1.0588  2.1369
  130OSM    H5G14056   3.397   5.803   5.907 -0.5234 -0.6034 -0.2498
  130OSM    C6F14057   3.347   5.928   5.738 -0.2863 -0.5634  0.3573
  130OSM    H6F14058   3.442   5.986   5.734  0.2118 -1.2981  1.3578
  130OSM    H6G14059   3.267   5.997   5.703 -0.1935 -0.9971 -0.7406
  130OSM    C7F14060   3.360   5.818   5.631 -0.2015  0.9523 -0.0557
  130OSM    H7F14061   3.266   5.761   5.614  1.2601 -1.8196  0.7209
  130OSM    H7G14062   3.422   5.738   5.674  0.4985  2.3532  1.6730
  130OSM    C8F14063   3.430   5.868   5.506  0.0410 -0.1692 -0.9199
  130OSM    H8F14064   3.440   5.780   5.439 -0.3615 -0.6048 -0.4195
  130OSM    H8G14065   3.527   5.912   5.537 -1.4587  1.7486  1.3691
  130OSM    C9F14066   3.354   5.965   5.427  0.3042 -0.2321 -0.0540
  130OSM    H9F14067   3.377   6.071   5.444  0.9027 -0.4579  0.6149
  130OSM   C10F14068   3.274   5.951   5.316 -0.4074 -0.2941 -0.1704
  130OSM   H10F14069   3.230   6.041   5.270 -0.3623  0.9986  2.1372
  130OSM   C11F14070   3.226   5.828   5.249 -0.1385  0.0342 -0.3297
  130OSM   H11F14071   3.119   5.831   5.221 -0.3876  0.9798  0.6345
  130OSM   H11G14072   3.241   5.744   5.320  0.5289  1.9193  1.9191
  130OSM   C12F14073   3.302   5.806   5.118 -0.2732  0.0456  0.0756
  130OSM   H12F14074   3.279   5.704   5.078  1.7529 -0.1790 -0.6404
  130OSM   H12G14075   3.412   5.802   5.135 -0.5148 -2.9542  1.8150
  130OSM   C13F14076   3.274   5.899   4.994  0.2674 -0.3754 -0.0196
  130OSM   H13F14077   3.341   5.859   4.915  1.7510  1.3669  0.2987
  130OSM   H13G14078   3.307   6.004   5.008 -1.2155  0.0602  0.3762
  130OSM   C14F14079   3.125   5.913   4.953  0.5755 -0.9391  1.2178
  130OSM   H14F14080   3.076   5.981   5.026  0.6771 -0.7204  1.0822
  130OSM   H14G14081   3.064   5.820   4.959 -1.2069  0.1253  0.6052
  130OSM   C15F14082   3.104   5.974   4.816  0.7097  0.1235  0.2387
  130OSM   H15F14083   2.994   5.979   4.804  0.7512 -1.9765 -1.8428
  130OSM   H15G14084   3.145   5.913   4.732 -0.0230  0.2828 -0.2476
  130OSM   C16F14085   3.156   6.117   4.800  0.4448  0.7502 -0.8686
  130OSM   H16F14086   3.266   6.124   4.819 -0.1666  2.8041  2.9926
  130OSM   H16G14087   3.104   6.178   4.877 -1.0100  1.2460 -2.2106
  130OSM   C17F14088   3.128   6.176   4.662 -0.1822  0.9682  0.4235
  130OSM   H17F14089   3.147   6.285   4.659  0.5945  0.9031  2.2148
  130OSM   H17G14090   3.022   6.176   4.630 -0.1398  0.0695  0.2399
  130OSM   C18F14091   3.208   6.115   4.542 -0.4644 -0.6424 -0.3063
  130OSM   H18F14092   3.152   6.020   4.526  0.0005 -0.9846  0.0951
  130OSM   H18G14093   3.315   6.097   4.567 -0.6475 -1.7371 -0.2382
  130OSM   H18H14094   3.183   6.175   4.452 -0.8089  0.6096  0.6057
  131OSM      N14095   1.908   6.037   6.475  0.2253  0.4831  0.5587
  131OSM    C1514096   1.871   6.178   6.454  0.2554  0.6675  0.3132
  131OSM   H15A14097   1.959   6.234   6.425  0.8064 -0.2401  0.1713
  131OSM   H15B14098   1.828   6.224   6.541  0.2734 -0.6023  1.0182
  131OSM   H15C14099   1.804   6.180   6.369 -1.0987 -2.5938  1.1449
  131OSM    C1414100   2.017   6.030   6.570  0.0958 -0.0355 -0.1766
  131OSM   H14A14101   2.115   6.053   6.532  0.6602 -0.7847  0.7693
  131OSM   H14B14102   2.014   5.932   6.618  3.5709 -0.6968 -1.0602
  131OSM   H14C14103   2.010   6.104   6.648 -2.1131  1.4091 -1.6511
  131OSM    C1314104   1.790   5.974   6.547 -0.5296  0.6954 -0.0602
  131OSM   H13A14105   1.776   6.017   6.644 -2.4935  0.6908 -0.2999
  131OSM   H13B14106   1.799   5.867   6.546  0.2926  0.7555 -1.1866
  131OSM   H13C14107   1.697   5.995   6.497 -0.2239  1.3489 -0.3787
  131OSM    C1214108   1.937   5.979   6.340  0.3793 -0.2977 -0.4269
  131OSM   H12A14109   1.855   6.008   6.275 -1.0098 -1.0653  0.9106
  131OSM   H12B14110   1.940   5.871   6.342 -2.1335 -0.4612 -1.6650
  131OSM    C1114111   2.067   6.023   6.271  0.2098  0.4070  0.7944
  131OSM   H11A14112   2.069   6.129   6.239  0.6350  0.2953  0.4622
  131OSM   H11B14113   2.063   5.966   6.177 -2.8929  0.6450  0.6787
  131OSM      P14114   2.243   5.848   6.343  0.1948  0.3602  0.2065
  131OSM    O1314115   2.346   5.844   6.447  0.2237  0.6805  0.0384
  131OSM    O1414116   2.139   5.737   6.353 -0.2820 -0.0385  0.1721
  131OSM    O1114117   2.299   5.854   6.195 -0.2491  0.4839  0.0731
  131OSM    O1214118   2.183   6.000   6.353 -0.1372  0.6439  0.3140
  131OSM    C1S14119   2.397   5.955   6.157  0.4600 -0.3946  0.4571
  131OSM    H1S14120   2.484   5.951   6.226  1.4954 -1.7049 -0.8959
  131OSM    H1T14121   2.358   6.059   6.166  4.4081  1.1502  1.8714
  131OSM     NF14122   2.563   6.028   5.986  0.4287 -0.1398  0.0037
  131OSM    HNF14123   2.545   6.109   5.931 -0.3122 -0.7917 -0.7432
  131OSM    C2S14124   2.446   5.947   6.009 -0.0975  0.9964 -0.4841
  131OSM    H2S14125   2.480   5.843   5.989 -0.6496  0.8046 -0.4435
  131OSM    C3S14126   2.326   5.973   5.909  0.2880  0.8707 -0.2316
  131OSM    H3S14127   2.303   6.082   5.904 -0.7505  0.6181 -1.4729
  131OSM     O314128   2.203   5.920   5.957 -0.2449  0.1459  0.2500
  131OSM    HO314129   2.217   5.897   6.049 -3.4778  1.3273  1.1587
  131OSM    C4S14130   2.341   5.928   5.763  0.5570 -0.5574 -0.0114
  131OSM    H4S14131   2.311   5.824   5.746 -0.1022 -0.5583  1.1059
  131OSM    C5S14132   2.376   6.010   5.664  0.2172 -0.1577  0.6013
  131OSM    H5S14133   2.402   6.114   5.686  2.2152 -0.3508 -0.5912
  131OSM    C6S14134   2.393   5.961   5.524 -0.3130  0.7158  0.5269
  131OSM    H6S14135   2.503   5.946   5.511 -0.3928  0.1785  0.4442
  131OSM    H6T14136   2.373   6.041   5.450 -3.5938  0.1913  0.6947
  131OSM    C7S14137   2.313   5.836   5.481  1.7287 -0.1891  0.5792
  131OSM    H7S14138   2.209   5.852   5.517  0.3014 -1.5922 -2.6175
  131OSM    H7T14139   2.341   5.748   5.543  1.1849  0.5459  1.9217
  131OSM    C8S14140   2.312   5.809   5.332 -0.5755 -1.0658 -0.1399
  131OSM    H8S14141   2.413   5.831   5.290  0.1575 -1.2415  1.4481
  131OSM    H8T14142   2.246   5.892   5.298  1.1655 -0.1600 -1.5000
  131OSM    C9S14143   2.279   5.672   5.276 -0.3616  0.0057  0.5031
  131OSM    H9S14144   2.171   5.654   5.298  0.2128 -2.2529  1.6515
  131OSM    H9T14145   2.343   5.598   5.327  0.4503 -0.1955 -0.7663
  131OSM   C10S14146   2.306   5.668   5.115  0.2490 -0.0220 -0.2442
  131OSM   H10S14147   2.261   5.581   5.062  0.9816  1.1165 -2.9126
  131OSM   H10T14148   2.417   5.660   5.102  0.3720 -0.7011  1.0740
  131OSM   C11S14149   2.241   5.782   5.035 -0.2123  0.2367 -0.2890
  131OSM   H11S14150   2.269   5.883   5.073  1.6285 -0.4618  0.3057
  131OSM   H11T14151   2.130   5.777   5.035 -0.1953 -1.0438 -1.8034
  131OSM   C12S14152   2.279   5.772   4.896  0.2325 -0.0192 -0.2434
  131OSM   H12S14153   2.210   5.839   4.840  0.9962  0.6787 -0.3717
  131OSM   H12T14154   2.256   5.671   4.854 -1.6053 -0.1455  0.9403
  131OSM   C13S14155   2.427   5.814   4.871  0.3345  0.3226 -0.3038
  131OSM   H13S14156   2.489   5.787   4.959  1.2084  0.6175 -0.8195
  131OSM   H13T14157   2.438   5.924   4.865 -1.2171  0.4648 -0.9957
  131OSM   C14S14158   2.491   5.753   4.746  0.3032  0.1032  0.4189
  131OSM   H14S14159   2.482   5.817   4.655 -1.3526 -0.5213  0.1039
  131OSM   H14T14160   2.440   5.657   4.724  1.5572 -0.2767 -0.9777
  131OSM   C15S14161   2.641   5.738   4.758  0.4247 -0.4007  0.1361
  131OSM   H15S14162   2.657   5.700   4.861  0.6460  0.3733  0.3951
  131OSM   H15T14163   2.696   5.834   4.740  0.5790 -0.7382 -1.3498
  131OSM   C16S14164   2.687   5.636   4.653  0.6059  0.5067 -0.3212
  131OSM   H16S14165   2.689   5.680   4.550  2.4432  1.4921  0.0986
  131OSM   H16T14166   2.614   5.553   4.661  0.7326  0.4492  0.2194
  131OSM   C17S14167   2.827   5.570   4.680 -0.3273  0.0422 -0.3169
  131OSM   H17S14168   2.846   5.499   4.597  0.1712 -1.3063  0.9108
  131OSM   H17T14169   2.815   5.506   4.770 -1.7872  0.9550  0.1816
  131OSM   C18S14170   2.939   5.674   4.685  0.2842  0.1362  0.0880
  131OSM   H18S14171   3.035   5.618   4.682  1.0375  1.4148 -0.6195
  131OSM   H18T14172   2.942   5.738   4.776 -1.4358  2.3350 -1.2798
  131OSM   H18U14173   2.919   5.742   4.599 -1.0606  0.0910  0.3466
  131OSM    C1F14174   2.684   6.004   6.036  0.2475 -0.0287 -0.6805
  131OSM     OF14175   2.704   5.902   6.090 -0.3733 -0.0614 -0.1220
  131OSM    C2F14176   2.779   6.117   6.029 -0.6503  0.0474  0.2634
  131OSM    H2F14177   2.818   6.115   6.133 -2.4516  0.7666  1.0028
  131OSM    H2G14178   2.727   6.215   6.019 -1.4637 -0.3719  0.2322
  131OSM    C3F14179   2.886   6.092   5.924 -0.2896  0.6048 -0.4338
  131OSM    H3F14180   2.920   5.986   5.923  1.7059  1.1919 -0.2030
  131OSM    H3G14181   2.970   6.162   5.946 -0.3935  0.6791 -0.2725
  131OSM    C4F14182   2.835   6.131   5.786 -0.2166 -0.1008 -0.6527
  131OSM    H4F14183   2.800   6.236   5.793  2.3006  0.7073  1.2959
  131OSM    H4G14184   2.745   6.072   5.758 -0.1393  1.0089 -3.5784
  131OSM    C5F14185   2.916   6.103   5.667  0.6387  0.0709  0.1017
  131OSM    H5F14186   2.939   5.995   5.655 -0.0217 -0.4140  2.7809
  131OSM    H5G14187   3.012   6.157   5.684 -0.4285  1.2498  2.8638
  131OSM    C6F14188   2.843   6.141   5.535  0.0398  0.1946  0.3928
  131OSM    H6F14189   2.849   6.252   5.538  0.6180  0.1597  0.6563
  131OSM    H6G14190   2.740   6.101   5.527  0.4844 -0.6069 -2.3029
  131OSM    C7F14191   2.910   6.105   5.400  0.7206  0.2879 -0.3601
  131OSM    H7F14192   2.929   5.996   5.401  1.8809  0.4553  2.0315
  131OSM    H7G14193   3.008   6.156   5.395 -0.5998  2.9151 -2.3192
  131OSM    C8F14194   2.839   6.148   5.270  0.5542 -0.4827  0.3239
  131OSM    H8F14195   2.913   6.129   5.190  1.3998  0.9181  0.7355
  131OSM    H8G14196   2.816   6.257   5.267  0.2904 -0.5677 -1.3639
  131OSM    C9F14197   2.707   6.076   5.243 -0.1324  0.0161 -0.5986
  131OSM    H9F14198   2.654   6.075   5.340  1.7464  2.2375  0.5682
  131OSM   C10F14199   2.662   6.006   5.134 -0.5296  0.0953 -0.3189
  131OSM   H10F14200   2.556   5.980   5.123 -0.5469 -0.1362  0.4065
  131OSM   C11F14201   2.730   6.003   5.001 -0.1775 -0.3237  0.0087
  131OSM   H11F14202   2.675   5.934   4.934 -1.9422  0.4776  0.5721
  131OSM   H11G14203   2.836   5.974   5.020 -0.7042 -1.2832  1.6628
  131OSM   C12F14204   2.754   6.135   4.917  0.0068 -0.9317  0.0924
  131OSM   H12F14205   2.812   6.113   4.825 -2.2114  1.4843 -2.0478
  131OSM   H12G14206   2.818   6.200   4.982 -0.7782 -0.5998  0.5449
  131OSM   C13F14207   2.615   6.209   4.879 -0.5949 -0.0413  0.5629
  131OSM   H13F14208   2.552   6.226   4.969  0.2360  3.4497  0.6176
  131OSM   H13G14209   2.572   6.147   4.797  1.3165 -0.7777  0.0377
  131OSM   C14F14210   2.641   6.346   4.813 -0.2441 -0.4006  0.6771
  131OSM   H14F14211   2.691   6.332   4.715 -0.7583  0.1279  0.3364
  131OSM   H14G14212   2.717   6.394   4.877  0.2013 -0.2235  0.0228
  131OSM   C15F14213   2.514   6.430   4.802  0.5258 -0.3760 -0.2669
  131OSM   H15F14214   2.514   6.528   4.854 -0.0156 -0.4884 -0.0463
  131OSM   H15G14215   2.434   6.379   4.860 -0.1289  2.1490  1.2138
  131OSM   C16F14216   2.473   6.453   4.658 -0.1521  0.6241 -0.0844
  131OSM   H16F14217   2.372   6.500   4.662 -0.3903  0.2650 -1.3681
  131OSM   H16G14218   2.457   6.365   4.592 -1.0149  0.1055  0.7914
  131OSM   C17F14219   2.568   6.551   4.585 -0.0434  0.0850 -0.5450
  131OSM   H17F14220   2.667   6.501   4.574 -0.3347 -1.2421  2.0523
  131OSM   H17G14221   2.594   6.639   4.647 -2.2137  0.0843  0.4857
  131OSM   C18F14222   2.503   6.600   4.458 -0.3087 -0.1954  0.1624
  131OSM   H18F14223   2.494   6.516   4.386 -0.2392  1.4856 -1.9203
  131OSM   H18G14224   2.561   6.686   4.419 -2.0705  0.8195 -0.3519
  131OSM   H18H14225   2.402   6.632   4.492 -0.4738 -0.1724 -0.3372
  132OSM      N14226   2.447   4.553   7.327 -0.5394  0.7223  0.5703
  132OSM    C1514227   2.350   4.671   7.348  0.1540 -0.3014  0.2841
  132OSM   H15A14228   2.331   4.682   7.454  2.1287 -0.1734  0.6497
  132OSM   H15B14229   2.260   4.664   7.288 -0.1779 -2.0133  0.9055
  132OSM   H15C14230   2.393   4.765   7.318 -0.5162 -0.2582 -0.5904
  132OSM    C1414231   2.559   4.576   7.419  0.6983  0.3670  0.5395
  132OSM   H14A14232   2.621   4.487   7.415  0.1273  0.0106 -0.6027
  132OSM   H14B14233   2.528   4.572   7.523 -0.3013 -2.5359  0.2189
  132OSM   H14C14234   2.612   4.664   7.384  0.7373  0.5555  1.0504
  132OSM    C1314235   2.377   4.426   7.362 -0.2604 -0.7021 -0.2396
  132OSM   H13A14236   2.275   4.440   7.330 -0.1090  1.7473  0.1184
  132OSM   H13B14237   2.364   4.416   7.469  0.9765 -2.0978 -0.1919
  132OSM   H13C14238   2.426   4.344   7.313  0.7928 -0.5976  0.5999
  132OSM    C1214239   2.502   4.546   7.186  0.4344 -0.2376 -0.2770
  132OSM   H12A14240   2.579   4.472   7.201 -0.4360 -0.8916  1.2663
  132OSM   H12B14241   2.547   4.641   7.163 -2.9030  1.2297 -1.5299
  132OSM    C1114242   2.407   4.516   7.066  0.2215 -0.1634 -0.2040
  132OSM   H11A14243   2.474   4.518   6.977 -0.4123  0.3145 -0.6881
  132OSM   H11B14244   2.341   4.606   7.056  0.5926  0.0113 -1.2920
  132OSM      P14245   2.192   4.360   7.028 -0.5405  0.0075  0.6990
  132OSM    O1314246   2.151   4.241   7.097 -0.0329 -0.5456 -0.9819
  132OSM    O1414247   2.101   4.480   7.026  0.0932  0.0750  0.1245
  132OSM    O1114248   2.225   4.315   6.882  0.1720  0.4454  0.1025
  132OSM    O1214249   2.342   4.393   7.085  0.3866  0.2130  0.2399
  132OSM    C1S14250   2.280   4.390   6.771  0.0972 -0.5123  0.3470
  132OSM    H1S14251   2.389   4.403   6.786  0.3749 -2.3240  0.1400
  132OSM    H1T14252   2.237   4.492   6.770  1.3804  0.0599  1.0419
  132OSM     NF14253   2.345   4.375   6.532 -0.5048 -0.8984 -0.4235
  132OSM    HNF14254   2.301   4.436   6.466  0.3833 -1.0575 -1.1798
  132OSM    C2S14255   2.268   4.312   6.640 -0.0755  0.3457  0.2378
  132OSM    H2S14256   2.311   4.210   6.653 -0.6250  0.1879  0.9173
  132OSM    C3S14257   2.118   4.294   6.604 -0.8389 -0.1397 -0.5736
  132OSM    H3S14258   2.082   4.393   6.567 -1.8068 -0.3805 -0.3104
  132OSM     O314259   2.031   4.247   6.713  0.1970  0.0538  0.1507
  132OSM    HO314260   2.080   4.246   6.795 -1.8124  0.1519  1.4360
  132OSM    C4S14261   2.109   4.198   6.486  1.1793  0.1468  0.3043
  132OSM    H4S14262   2.144   4.095   6.505  1.6576 -0.0273 -1.3816
  132OSM    C5S14263   2.076   4.220   6.352  0.1445  0.4880 -0.2943
  132OSM    H5S14264   2.061   4.323   6.316  0.2889  0.2105 -1.1683
  132OSM    C6S14265   2.083   4.127   6.238  0.3743  0.7230 -0.1840
  132OSM    H6S14266   1.999   4.159   6.173 -0.8493 -0.5225  0.7247
  132OSM    H6T14267   2.058   4.026   6.276  1.7644  0.5856  0.4510
  132OSM    C7S14268   2.222   4.140   6.171 -0.0439  0.2016 -0.2630
  132OSM    H7S14269   2.248   4.243   6.139  0.5672 -0.2593 -1.3139
  132OSM    H7T14270   2.219   4.083   6.075  0.6025  1.7802 -1.2625
  132OSM    C8S14271   2.326   4.069   6.253  0.0783 -0.3679  0.3556
  132OSM    H8S14272   2.291   3.970   6.291  1.6661 -0.1439  2.6066
  132OSM    H8T14273   2.334   4.127   6.348 -0.4815  1.2889 -0.5590
  132OSM    C9S14274   2.456   4.059   6.178  0.0169 -0.1507 -0.3091
  132OSM    H9S14275   2.500   4.158   6.153  1.6714 -1.0044 -0.8671
  132OSM    H9T14276   2.449   4.000   6.085 -0.7635 -2.2763  1.0328
  132OSM   C10S14277   2.553   3.969   6.256  0.3888  0.4021 -0.2310
  132OSM   H10S14278   2.523   3.864   6.239  0.0957  0.5808 -0.8524
  132OSM   H10T14279   2.546   3.978   6.366  2.3038  0.4920 -0.0793
  132OSM   C11S14280   2.689   3.979   6.207 -0.6526 -0.2916  0.5766
  132OSM   H11S14281   2.752   3.903   6.258 -0.5203 -0.6848 -0.1623
  132OSM   H11T14282   2.724   4.082   6.233  1.8585 -0.0235 -3.0626
  132OSM   C12S14283   2.703   3.962   6.050 -0.3920  0.0372  0.4447
  132OSM   H12S14284   2.639   4.036   5.996  0.4248  0.0010 -0.6090
  132OSM   H12T14285   2.670   3.857   6.032  0.5505 -0.4454  1.4842
  132OSM   C13S14286   2.846   3.973   5.995 -0.9490 -0.2724 -0.8656
  132OSM   H13S14287   2.907   3.897   6.048  1.8887  1.3284 -1.5915
  132OSM   H13T14288   2.893   4.072   6.009 -0.9297 -0.4422  0.3631
  132OSM   C14S14289   2.851   3.942   5.843  0.3180  0.2365  0.4771
  132OSM   H14S14290   2.788   4.013   5.785 -0.4795 -2.6510 -2.5046
  132OSM   H14T14291   2.801   3.845   5.822  0.3401  0.1622  0.7604
  132OSM   C15S14292   2.997   3.944   5.804  0.4113  1.1213 -0.3336
  132OSM   H15S14293   3.043   3.858   5.856 -0.4009  1.0702  0.3362
  132OSM   H15T14294   3.046   4.035   5.846  0.2645  0.7541  0.6715
  132OSM   C16S14295   3.032   3.938   5.657  0.2392 -0.7908  0.5553
  132OSM   H16S14296   2.995   3.849   5.602 -1.1174 -0.7401  1.3273
  132OSM   H16T14297   3.141   3.934   5.640  0.3967  1.8616  0.5820
  132OSM   C17S14298   2.974   4.057   5.582  0.8684 -0.3750  0.1350
  132OSM   H17S14299   3.010   4.151   5.629  1.9477 -1.0715  0.7340
  132OSM   H17T14300   2.863   4.055   5.589  0.9564 -0.7833  1.9979
  132OSM   C18S14301   3.017   4.048   5.438  0.5898 -0.4389 -0.3212
  132OSM   H18S14302   2.971   4.134   5.385  1.1544 -0.1554 -0.3584
  132OSM   H18T14303   2.989   3.953   5.389  0.2878 -0.1773 -0.6617
  132OSM   H18U14304   3.126   4.067   5.430  0.5686  0.3744  1.0015
  132OSM    C1F14305   2.479   4.365   6.515 -0.0809 -0.7529 -0.1972
  132OSM     OF14306   2.546   4.319   6.607  0.7072 -0.4964  0.2670
  132OSM    C2F14307   2.535   4.421   6.390 -0.2455  0.1387 -0.1816
  132OSM    H2F14308   2.511   4.528   6.371 -1.2620  0.1450  0.9895
  132OSM    H2G14309   2.479   4.371   6.308 -0.3809  0.7592 -0.4716
  132OSM    C3F14310   2.686   4.399   6.377 -0.0399 -0.1309  0.0689
  132OSM    H3F14311   2.719   4.298   6.407 -0.1079  0.7062  3.3022
  132OSM    H3G14312   2.740   4.451   6.459 -0.4704 -0.3264  0.4810
  132OSM    C4F14313   2.733   4.455   6.242 -0.0171 -0.2972  0.1508
  132OSM    H4F14314   2.741   4.566   6.238  0.5919 -0.3715 -1.0016
  132OSM    H4G14315   2.652   4.442   6.167 -0.0423  0.0253  0.1200
  132OSM    C5F14316   2.853   4.379   6.190  0.4960 -0.3218 -0.1842
  132OSM    H5F14317   2.817   4.275   6.203 -2.3279  0.7092  0.9319
  132OSM    H5G14318   2.941   4.401   6.255  0.6026  0.4923 -0.5777
  132OSM    C6F14319   2.892   4.395   6.044 -0.5363 -0.9372 -0.0322
  132OSM    H6F14320   2.987   4.337   6.034  0.4002 -0.0114  2.7072
  132OSM    H6G14321   2.914   4.502   6.022 -0.8390 -0.9634 -0.4856
  132OSM    C7F14322   2.784   4.354   5.942  0.4586 -0.4600  0.3381
  132OSM    H7F14323   2.711   4.437   5.934 -0.9440 -1.4430  2.2264
  132OSM    H7G14324   2.745   4.255   5.972  1.5486 -1.4621 -1.3506
  132OSM    C8F14325   2.853   4.337   5.808  1.1582  0.0373 -0.8030
  132OSM    H8F14326   2.917   4.248   5.831 -0.3041 -0.7261  0.5091
  132OSM    H8G14327   2.918   4.421   5.779  1.5417  0.2777  0.6404
  132OSM    C9F14328   2.742   4.306   5.711 -0.5572  0.8499  0.1444
  132OSM    H9F14329   2.654   4.255   5.752 -1.6492  1.2921 -1.5450
  132OSM   C10F14330   2.733   4.348   5.583 -0.0805  1.2202  0.3649
  132OSM   H10F14331   2.654   4.307   5.518  0.7629 -0.4835  0.3414
  132OSM   C11F14332   2.825   4.443   5.516 -1.1368 -0.4741 -0.4224
  132OSM   H11F14333   2.920   4.387   5.499  0.8793  2.8504 -1.0656
  132OSM   H11G14334   2.848   4.528   5.584 -1.4219 -0.6623 -0.0825
  132OSM   C12F14335   2.772   4.495   5.382  0.0756  0.8370  0.1798
  132OSM   H12F14336   2.811   4.597   5.364  2.0749  0.0388 -0.2236
  132OSM   H12G14337   2.662   4.512   5.383 -0.0800 -0.1249  1.1492
  132OSM   C13F14338   2.787   4.402   5.257 -0.2482 -0.2096  0.6936
  132OSM   H13F14339   2.777   4.298   5.294 -1.9855 -0.5755 -0.7040
  132OSM   H13G14340   2.889   4.415   5.214 -0.7075 -2.5670 -1.3130
  132OSM   C14F14341   2.685   4.439   5.144  0.7235 -0.1855  0.1249
  132OSM   H14F14342   2.673   4.550   5.149 -0.8904 -0.3661  0.9093
  132OSM   H14G14343   2.587   4.400   5.178  0.7171  0.1852  0.5414
  132OSM   C15F14344   2.714   4.407   5.001  0.3327  0.1160 -0.6400
  132OSM   H15F14345   2.770   4.312   5.009  0.3325  0.0642 -1.2312
  132OSM   H15G14346   2.773   4.481   4.944 -1.9462  1.0265 -1.9723
  132OSM   C16F14347   2.586   4.394   4.917  0.5144  0.1624 -0.0849
  132OSM   H16F14348   2.525   4.479   4.953  0.3886 -0.4359  1.1622
  132OSM   H16G14349   2.528   4.303   4.940 -0.5904  0.4055 -1.7251
  132OSM   C17F14350   2.626   4.399   4.768 -0.8568 -0.9095  0.2238
  132OSM   H17F14351   2.697   4.484   4.758 -1.6521 -0.5133 -2.9477
  132OSM   H17G14352   2.536   4.417   4.706 -1.1918 -0.7571  0.7484
  132OSM   C18F14353   2.689   4.273   4.724 -1.4749  0.0018 -0.1818
  132OSM   H18F14354   2.614   4.192   4.736 -0.4213 -0.7650  1.7025
  132OSM   H18G14355   2.781   4.244   4.779  0.3977  0.3593 -2.8871
  132OSM   H18H14356   2.723   4.281   4.618 -0.9052 -0.4411 -0.0352
  133OSM      N14357   1.438   3.849   6.972 -0.0449  0.1404  0.2226
  133OSM    C1514358   1.538   3.811   7.079  0.0413 -0.7704 -0.8983
  133OSM   H15A14359   1.629   3.869   7.069 -2.6846  3.6902 -2.4223
  133OSM   H15B14360   1.555   3.704   7.073 -0.1907 -1.0178  1.8187
  133OSM   H15C14361   1.505   3.841   7.177  2.2955 -1.4160  0.1243
  133OSM    C1414362   1.312   3.779   6.997  0.6690  0.5097  0.1221
  133OSM   H14A14363   1.232   3.801   6.928  1.4896  2.7573 -0.1883
  133OSM   H14B14364   1.267   3.796   7.094  0.8370 -2.2142  0.7680
  133OSM   H14C14365   1.332   3.673   7.005  0.0270  0.3697 -0.0613
  133OSM    C1314366   1.419   3.995   6.984 -0.1501 -0.1043 -0.3197
  133OSM   H13A14367   1.349   4.014   6.904 -1.4530 -1.6211  0.4108
  133OSM   H13B14368   1.510   4.049   6.960  0.9426 -0.9114  1.7907
  133OSM   H13C14369   1.370   4.035   7.072 -1.2706  1.1439 -1.4545
  133OSM    C1214370   1.494   3.813   6.838  0.7505  0.9233  0.5445
  133OSM   H12A14371   1.500   3.705   6.847  1.3352  1.0239  1.5107
  133OSM   H12B14372   1.591   3.859   6.827  0.4725  1.4998  0.4920
  133OSM    C1114373   1.397   3.818   6.720 -0.0340  0.5557 -0.2848
  133OSM   H11A14374   1.308   3.756   6.746 -0.0518  0.8526  0.3864
  133OSM   H11B14375   1.447   3.762   6.638 -0.1695  0.5021 -0.3305
  133OSM      P14376   1.462   4.036   6.615 -0.1858  0.0794  0.2478
  133OSM    O1314377   1.387   4.157   6.570 -0.1692 -0.2296  0.8208
  133OSM    O1414378   1.575   4.062   6.705  0.1942 -0.5078  0.3773
  133OSM    O1114379   1.503   3.955   6.486 -0.1700  0.2733 -0.1358
  133OSM    O1214380   1.360   3.950   6.689 -0.0653  0.1712 -0.5664
  133OSM    C1S14381   1.436   3.963   6.359 -0.2697  0.1088  0.3294
  133OSM    H1S14382   1.330   3.997   6.364 -0.4518 -0.4764  0.4844
  133OSM    H1T14383   1.444   3.859   6.321  2.9584 -0.5854  2.4912
  133OSM     NF14384   1.451   4.059   6.124 -0.5004 -0.6831  0.2802
  133OSM    HNF14385   1.522   4.032   6.059 -0.2568 -2.2438  1.1357
  133OSM    C2S14386   1.507   4.073   6.262  0.0877  0.1353 -0.2284
  133OSM    H2S14387   1.476   4.171   6.302  1.4931  0.4491  0.1534
  133OSM    C3S14388   1.664   4.068   6.259  0.5800  0.1795 -0.3532
  133OSM    H3S14389   1.689   3.978   6.198 -0.8711 -0.7453  0.3584
  133OSM     O314390   1.725   4.073   6.391 -0.1374  0.3916  0.1840
  133OSM    HO314391   1.664   4.035   6.456 -0.0743  2.3712  1.4851
  133OSM    C4S14392   1.716   4.182   6.175 -0.3123  0.3096  0.5352
  133OSM    H4S14393   1.719   4.159   6.067 -0.9208 -2.2309  1.0091
  133OSM    C5S14394   1.762   4.304   6.201 -0.2779 -0.5996 -0.2917
  133OSM    H5S14395   1.754   4.345   6.303 -2.7035  2.2269 -1.4539
  133OSM    C6S14396   1.802   4.408   6.092  0.3411 -0.0665 -0.0697
  133OSM    H6S14397   1.908   4.440   6.100  0.3441  0.2762 -1.3451
  133OSM    H6T14398   1.734   4.495   6.104 -0.6916 -0.9298  0.5173
  133OSM    C7S14399   1.772   4.378   5.947 -0.2173  0.3010 -0.0081
  133OSM    H7S14400   1.764   4.476   5.896  1.0149  0.1739 -0.4800
  133OSM    H7T14401   1.668   4.338   5.940 -0.5493  0.9901  0.8298
  133OSM    C8S14402   1.875   4.290   5.884  0.0647  0.0302  0.5987
  133OSM    H8S14403   1.854   4.187   5.919 -0.4627  0.4055  1.4368
  133OSM    H8T14404   1.981   4.305   5.914  0.4887  1.5228 -1.4718
  133OSM    C9S14405   1.872   4.288   5.735 -0.4503  0.6261  0.3362
  133OSM    H9S14406   1.894   4.393   5.706  2.5457  0.1729  0.6717
  133OSM    H9T14407   1.772   4.254   5.702 -0.0246 -1.0023  0.6183
  133OSM   C10S14408   1.989   4.205   5.684 -0.4047 -0.2790  0.5821
  133OSM   H10S14409   1.993   4.100   5.719  1.8996  0.1244  1.6721
  133OSM   H10T14410   2.087   4.252   5.705 -0.5630 -0.5981  2.1743
  133OSM   C11S14411   1.977   4.203   5.532  0.3293  0.0980  0.5593
  133OSM   H11S14412   1.994   4.307   5.494  1.8035  0.4233  2.0014
  133OSM   H11T14413   1.877   4.171   5.496 -1.3067  3.7928  1.2776
  133OSM   C12S14414   2.090   4.121   5.465 -0.2488 -0.1645  0.4035
  133OSM   H12S14415   2.069   4.013   5.483 -0.4169 -0.4590 -1.3676
  133OSM   H12T14416   2.188   4.134   5.515 -0.6862  0.1371  1.2073
  133OSM   C13S14417   2.099   4.139   5.315 -0.7686 -0.1808  0.1425
  133OSM   H13S14418   2.129   4.245   5.300  0.9093 -0.6245  0.1978
  133OSM   H13T14419   2.002   4.129   5.261 -1.5688  1.2510  1.2464
  133OSM   C14S14420   2.198   4.039   5.247  0.0376  0.2702 -0.2464
  133OSM   H14S14421   2.175   3.944   5.300 -1.1095  1.3896  1.3583
  133OSM   H14T14422   2.298   4.061   5.290  0.4953  1.4237 -1.8253
  133OSM   C15S14423   2.185   4.031   5.094  0.9788 -0.0279 -0.3311
  133OSM   H15S14424   2.077   4.018   5.070  0.7156 -1.9003  1.4760
  133OSM   H15T14425   2.242   3.939   5.068 -0.5752 -1.0305 -0.3030
  133OSM   C16S14426   2.231   4.154   5.014  0.3213  0.3635  0.2229
  133OSM   H16S14427   2.341   4.163   5.017  0.6825 -2.3408 -1.3365
  133OSM   H16T14428   2.173   4.239   5.055 -1.5602 -1.2668  1.1628
  133OSM   C17S14429   2.175   4.136   4.878  0.2992  0.4351  1.0004
  133OSM   H17S14430   2.067   4.113   4.867  0.8667 -1.2202 -4.2184
  133OSM   H17T14431   2.221   4.043   4.838  1.4811  1.2593  0.3686
  133OSM   C18S14432   2.198   4.252   4.789 -0.3026 -0.3045  0.4705
  133OSM   H18S14433   2.303   4.283   4.805 -0.4527 -0.4289  1.8169
  133OSM   H18T14434   2.130   4.337   4.812 -0.9414 -0.7027  0.0974
  133OSM   H18U14435   2.192   4.241   4.679 -0.1858  0.4463  0.3829
  133OSM    C1F14436   1.326   4.067   6.096 -0.2342 -0.5026  0.6574
  133OSM     OF14437   1.255   4.116   6.177 -0.0168 -0.1572  0.0690
  133OSM    C2F14438   1.282   4.016   5.953  0.0919 -0.2309 -0.3463
  133OSM    H2F14439   1.291   3.905   5.951 -0.7258 -0.3235  0.3872
  133OSM    H2G14440   1.350   4.062   5.877  1.3224  0.7250  1.2648
  133OSM    C3F14441   1.133   4.066   5.927 -0.3334 -0.5310 -0.4357
  133OSM    H3F14442   1.126   4.175   5.944  0.2875 -0.4511 -0.6588
  133OSM    H3G14443   1.060   4.024   6.000  1.4492 -0.8756  1.2236
  133OSM    C4F14444   1.086   4.045   5.786 -0.9761 -0.0271 -0.6146
  133OSM    H4F14445   1.097   3.937   5.764 -3.2121 -0.5172  0.4176
  133OSM    H4G14446   1.156   4.107   5.725 -1.8182  2.3126  0.6535
  133OSM    C5F14447   0.942   4.083   5.773  0.0930 -0.1560  0.6086
  133OSM    H5F14448   0.921   4.191   5.789 -1.7837 -0.2589 -0.8251
  133OSM    H5G14449   0.881   4.027   5.847 -1.6906  0.4663 -0.3331
  133OSM    C6F14450   0.901   4.059   5.626  0.7692  0.3069  0.7893
  133OSM    H6F14451   0.801   4.011   5.623  0.6605  0.4082  2.3231
  133OSM    H6G14452   0.971   3.980   5.592 -1.3853 -1.9185  1.2777
  133OSM    C7F14453   0.912   4.169   5.524  0.5011  0.2898  0.3042
  133OSM    H7F14454   1.020   4.182   5.499  0.1490  0.3370 -1.2476
  133OSM    H7G14455   0.862   4.257   5.570  1.3345  0.4132  1.0120
  133OSM    C8F14456   0.847   4.138   5.387 -0.2141 -0.3740  0.8991
  133OSM    H8F14457   0.737   4.126   5.403 -0.6233  1.6039 -0.0698
  133OSM    H8G14458   0.896   4.044   5.354 -0.0566  0.0216 -0.0328
  133OSM    C9F14459   0.870   4.241   5.276  0.1308 -0.1235 -0.3739
  133OSM    H9F14460   0.942   4.323   5.292 -1.8135  1.4332  0.7856
  133OSM   C10F14461   0.820   4.236   5.149 -0.2588  0.4059  0.4273
  133OSM   H10F14462   0.824   4.320   5.078  0.5566 -0.8388 -1.0550
  133OSM   C11F14463   0.722   4.130   5.107  1.1847 -0.2502  0.0578
  133OSM   H11F14464   0.628   4.137   5.166  0.5288  0.9909 -1.0720
  133OSM   H11G14465   0.771   4.034   5.132  0.9763 -0.5842 -0.8020
  133OSM   C12F14466   0.695   4.141   4.952  0.0395 -0.5567  0.4602
  133OSM   H12F14467   0.651   4.241   4.934 -0.6220 -0.7710  0.8533
  133OSM   H12G14468   0.621   4.066   4.918 -0.4943 -0.0904  0.5824
  133OSM   C13F14469   0.814   4.113   4.854  0.1690 -0.3242 -0.4785
  133OSM   H13F14470   0.853   4.009   4.863 -0.3763 -0.5299 -0.4519
  133OSM   H13G14471   0.891   4.188   4.882 -0.6699  0.5702 -0.5323
  133OSM   C14F14472   0.765   4.141   4.711 -0.6627 -0.1385  0.5218
  133OSM   H14F14473   0.851   4.138   4.640 -2.4894 -0.2996 -1.7807
  133OSM   H14G14474   0.733   4.247   4.698  1.8025  0.6768  0.4219
  133OSM   C15F14475   0.653   4.048   4.651 -0.5957 -0.3968 -0.7711
  133OSM   H15F14476   0.557   4.059   4.707 -0.7237 -1.4914 -0.7572
  133OSM   H15G14477   0.677   3.942   4.672 -1.1656 -0.1329  1.4373
  133OSM   C16F14478   0.629   4.041   4.498  0.3394  0.0037 -0.1062
  133OSM   H16F14479   0.586   3.941   4.481 -0.3306  0.3548 -0.5259
  133OSM   H16G14480   0.720   4.059   4.436  0.0332 -2.7942 -1.5335
  133OSM   C17F14481   0.517   4.141   4.468 -0.2914 -0.1725 -0.6941
  133OSM   H17F14482   0.457   4.145   4.561  0.7780 -0.4670  0.0403
  133OSM   H17G14483   0.451   4.105   4.387 -0.5081 -2.2157  0.3349
  133OSM   C18F14484   0.554   4.286   4.443 -0.0449  0.3074  0.8590
  133OSM   H18F14485   0.466   4.351   4.423 -2.0931 -1.9202  2.1000
  133OSM   H18G14486   0.619   4.294   4.353 -0.6634 -1.2076  0.2346
  133OSM   H18H14487   0.604   4.344   4.522  1.1395  0.9417 -0.3115
  134OSM      N14488   0.388   2.845   6.757 -0.8212 -0.4704  0.1049
  134OSM    C1514489   0.503   2.751   6.781 -0.0171 -0.1080  0.9571
  134OSM   H15A14490   0.463   2.653   6.763 -0.6396  0.3293 -0.1124
  134OSM   H15B14491   0.539   2.746   6.883 -0.5226  0.0497  1.1438
  134OSM   H15C14492   0.581   2.760   6.707 -1.3033  0.3550 -0.3905
  134OSM    C1414493   0.254   2.800   6.806 -0.0727  0.0126 -0.0592
  134OSM   H14A14494   0.205   2.721   6.752 -2.5717  0.9165  0.7430
  134OSM   H14B14495   0.185   2.882   6.797  1.9194  2.0057  1.6174
  134OSM   H14C14496   0.258   2.769   6.909 -0.8956  1.1719  0.3394
  134OSM    C1314497   0.413   2.972   6.840 -0.4381 -1.0906  0.3512
  134OSM   H13A14498   0.333   3.045   6.841  1.1959  0.8163  0.1985
  134OSM   H13B14499   0.501   3.026   6.807 -1.7330  1.5058  0.8582
  134OSM   H13C14500   0.444   2.945   6.940  2.8171 -0.7449 -0.4652
  134OSM    C1214501   0.385   2.879   6.610 -0.0016  0.4207 -0.0505
  134OSM   H12A14502   0.484   2.910   6.582 -0.1401  0.2916 -0.6962
  134OSM   H12B14503   0.317   2.961   6.593  0.7418  0.6278 -2.3279
  134OSM    C1114504   0.336   2.769   6.504  0.6779 -1.0428  0.0303
  134OSM   H11A14505   0.333   2.820   6.406 -1.1038 -2.4552 -0.7024
  134OSM   H11B14506   0.229   2.746   6.521  1.0898 -2.8348  0.3678
  134OSM      P14507   0.558   2.637   6.447 -0.4036  0.1217 -0.4046
  134OSM    O1314508   0.665   2.726   6.501  0.3134 -0.1976  0.5321
  134OSM    O1414509   0.581   2.493   6.475  0.3830 -0.2072  0.7263
  134OSM    O1114510   0.535   2.664   6.300  0.4989 -0.2023 -0.1860
  134OSM    O1214511   0.412   2.650   6.501  0.1690 -0.4384 -0.3288
  134OSM    C1S14512   0.467   2.567   6.218 -0.0469  0.2976 -0.6413
  134OSM    H1S14513   0.359   2.569   6.247 -0.5407  1.9793 -2.3924
  134OSM    H1T14514   0.519   2.470   6.228  0.4371  0.5905 -0.2722
  134OSM     NF14515   0.378   2.542   5.983  0.0954  0.5727 -0.1026
  134OSM    HNF14516   0.410   2.462   5.933 -1.5206 -0.1796 -0.0052
  134OSM    C2S14517   0.473   2.605   6.064  0.1486 -0.5087 -0.2695
  134OSM    H2S14518   0.458   2.715   6.065 -0.4117 -0.5744 -0.8099
  134OSM    C3S14519   0.620   2.581   6.011 -0.3204  0.5900  0.0761
  134OSM    H3S14520   0.619   2.471   5.995 -0.7777  0.0320  3.1830
  134OSM     O314521   0.723   2.611   6.107  0.9293  0.6500 -0.0087
  134OSM    HO314522   0.678   2.639   6.187 -0.0974  1.4387 -0.8434
  134OSM    C4S14523   0.643   2.653   5.875 -0.8716  0.4906 -0.1545
  134OSM    H4S14524   0.639   2.590   5.785 -1.3412 -1.1904  0.9893
  134OSM    C5S14525   0.667   2.783   5.858 -0.2978 -0.5325 -0.5353
  134OSM    H5S14526   0.676   2.852   5.944  1.1973 -0.0042 -1.0807
  134OSM    C6S14527   0.675   2.855   5.723  0.1156 -0.4266  0.4424
  134OSM    H6S14528   0.780   2.886   5.705  0.1677  0.2773  1.8104
  134OSM    H6T14529   0.615   2.948   5.730  1.4745  0.7675 -2.3547
  134OSM    C7S14530   0.638   2.777   5.599  0.3813 -0.1251 -0.4673
  134OSM    H7S14531   0.540   2.728   5.615  0.7582 -0.7285  0.1081
  134OSM    H7T14532   0.707   2.692   5.578  0.5386  0.3584 -1.9650
  134OSM    C8S14533   0.646   2.864   5.473  0.2804 -0.3991  0.2562
  134OSM    H8S14534   0.737   2.926   5.485  0.9538 -1.6815  2.3065
  134OSM    H8T14535   0.558   2.931   5.469  0.7987  0.3773  1.4817
  134OSM    C9S14536   0.656   2.789   5.330  0.6983 -0.4459  0.1503
  134OSM    H9S14537   0.578   2.711   5.325  0.2810  0.0351 -2.2866
  134OSM    H9T14538   0.755   2.745   5.304  0.4252 -0.3075 -1.1749
  134OSM   C10S14539   0.639   2.886   5.212 -0.3146  0.1415  0.0207
  134OSM   H10S14540   0.703   2.973   5.240 -1.8007  0.8304  1.5120
  134OSM   H10T14541   0.536   2.930   5.213  1.2757  4.3781 -0.1886
  134OSM   C11S14542   0.679   2.837   5.073  0.4023  0.1100  0.4002
  134OSM   H11S14543   0.676   2.726   5.070 -3.9394  0.0933 -1.2213
  134OSM   H11T14544   0.784   2.871   5.057  0.3513  0.6719  1.2172
  134OSM   C12S14545   0.595   2.879   4.956  0.8299  0.2939  0.2062
  134OSM   H12S14546   0.639   2.827   4.868  1.3724 -0.3541  0.8462
  134OSM   H12T14547   0.606   2.986   4.925  0.7619 -0.0911 -1.2413
  134OSM   C13S14548   0.455   2.835   4.967  0.3136  0.1647 -0.3322
  134OSM   H13S14549   0.389   2.900   5.028 -1.3527 -1.5152 -0.2125
  134OSM   H13T14550   0.458   2.738   5.021  0.5360  1.0652  1.3422
  134OSM   C14S14551   0.382   2.816   4.827  0.1948  1.0857  0.0863
  134OSM   H14S14552   0.418   2.883   4.746  0.7068 -1.5058 -2.0017
  134OSM   H14T14553   0.277   2.846   4.841 -0.2616 -0.6099  0.5167
  134OSM   C15S14554   0.402   2.676   4.773  0.0027 -0.0892 -0.0048
  134OSM   H15S14555   0.349   2.601   4.836  1.8151 -0.7887  0.7735
  134OSM   H15T14556   0.507   2.644   4.791  0.4479  0.7423 -0.9893
  134OSM   C16S14557   0.372   2.656   4.622 -0.1404 -0.5382  0.1304
  134OSM   H16S14558   0.439   2.731   4.575  0.0539 -0.9006 -0.1801
  134OSM   H16T14559   0.266   2.683   4.599 -0.5879 -0.5316  2.0583
  134OSM   C17S14560   0.396   2.511   4.576 -0.4389 -0.4153  0.1973
  134OSM   H17S14561   0.344   2.501   4.478  1.3963 -0.5450 -0.8072
  134OSM   H17T14562   0.334   2.446   4.641 -3.3154  0.3700 -1.5544
  134OSM   C18S14563   0.541   2.473   4.554  0.2006 -0.7445  0.6003
  134OSM   H18S14564   0.576   2.550   4.482 -4.0114  0.9557  0.0713
  134OSM   H18T14565   0.555   2.372   4.512  0.9858  0.1444 -1.3977
  134OSM   H18U14566   0.600   2.486   4.648 -1.4600  0.0075  1.5880
  134OSM    C1F14567   0.249   2.561   6.013  0.2592 -0.4031  0.3218
  134OSM     OF14568   0.218   2.645   6.089 -0.4299  0.0014 -0.5048
  134OSM    C2F14569   0.160   2.486   5.924 -0.1525  0.3328  0.0772
  134OSM    H2F14570   0.218   2.407   5.872  0.7887 -0.0739  1.7017
  134OSM    H2G14571   0.108   2.539   5.841 -1.2710 -0.3112  0.3514
  134OSM    C3F14572   0.050   2.429   6.018  0.5627 -0.5115 -0.0176
  134OSM    H3F14573  -0.004   2.517   6.061 -0.1164 -1.6050  1.4328
  134OSM    H3G14574   0.094   2.370   6.101 -1.0845 -0.9284  0.5914
  134OSM    C4F14575  -0.062   2.345   5.956  0.4851 -0.0304  0.1290
  134OSM    H4F14576  -0.136   2.339   6.039 -1.3097  2.1409 -1.1908
  134OSM    H4G14577  -0.018   2.246   5.929  1.3213  0.3404  0.1053
  134OSM    C5F14578  -0.145   2.414   5.845 -0.1414  0.0284  0.1810
  134OSM    H5F14579  -0.141   2.524   5.858  1.7179  0.6315 -3.9302
  134OSM    H5G14580  -0.250   2.383   5.863  0.5066 -1.3733  1.8557
  134OSM    C6F14581  -0.102   2.393   5.694  0.1916  0.3376 -0.0314
  134OSM    H6F14582  -0.096   2.284   5.670 -0.9462 -0.2344  2.0164
  134OSM    H6G14583  -0.000   2.433   5.676  0.6235 -0.7679 -0.1390
  134OSM    C7F14584  -0.192   2.466   5.596  0.7129 -0.4812 -0.5800
  134OSM    H7F14585  -0.194   2.567   5.641  2.6025 -1.2118  1.3726
  134OSM    H7G14586  -0.297   2.431   5.595  0.7418 -0.6192  0.3715
  134OSM    C8F14587  -0.144   2.455   5.452  0.4421 -1.0240  0.0123
  134OSM    H8F14588  -0.148   2.348   5.424 -4.2232 -0.7964 -1.0086
  134OSM    H8G14589  -0.044   2.502   5.438  0.7781 -1.6037  0.4081
  134OSM    C9F14590  -0.240   2.537   5.362  0.5178 -1.4041 -0.1154
  134OSM    H9F14591  -0.202   2.639   5.345  0.2217 -1.2543  0.1235
  134OSM   C10F14592  -0.361   2.506   5.308 -0.2082  0.2650 -0.1774
  134OSM   H10F14593  -0.434   2.581   5.278 -3.2670 -1.5160  2.1786
  134OSM   C11F14594  -0.415   2.363   5.315 -0.2266 -0.4229  0.0246
  134OSM   H11F14595  -0.500   2.358   5.386  0.9917  0.7139  1.6102
  134OSM   H11G14596  -0.332   2.289   5.326 -0.4218 -0.6393  0.0472
  134OSM   C12F14597  -0.470   2.318   5.180  0.1515 -1.2598  0.4440
  134OSM   H12F14598  -0.433   2.216   5.155 -1.3933 -1.4273 -1.3624
  134OSM   H12G14599  -0.425   2.384   5.103  1.5592 -2.0232  0.5762
  134OSM   C13F14600  -0.626   2.317   5.175 -0.0397 -0.1522  0.5207
  134OSM   H13F14601  -0.657   2.424   5.182  2.5419  0.7731 -0.4986
  134OSM   H13G14602  -0.674   2.261   5.258  0.4711 -0.4949  0.5880
  134OSM   C14F14603  -0.671   2.257   5.044  0.1596 -0.0536 -0.5486
  134OSM   H14F14604  -0.628   2.155   5.033  0.8632  0.3589 -1.7122
  134OSM   H14G14605  -0.625   2.312   4.960 -0.3198  1.3096  0.0567
  134OSM   C15F14606  -0.819   2.273   5.018  0.0039 -0.6528  0.6146
  134OSM   H15F14607  -0.840   2.381   4.999 -0.5016 -1.0050 -0.8634
  134OSM   H15G14608  -0.875   2.230   5.104  0.0373 -1.8477  0.0440
  134OSM   C16F14609  -0.855   2.188   4.897  0.3132 -0.2774  0.2661
  134OSM   H16F14610  -0.838   2.078   4.896 -0.3244 -0.3748  0.0298
  134OSM   H16G14611  -0.804   2.223   4.805 -1.8436  1.5309 -0.3292
  134OSM   C17F14612  -1.012   2.216   4.865 -0.2201  0.1784  0.3190
  134OSM   H17F14613  -1.018   2.317   4.820  0.5600 -0.7203 -2.0101
  134OSM   H17G14614  -1.082   2.202   4.950 -2.0157 -2.3547 -1.3988
  134OSM   C18F14615  -1.064   2.116   4.753 -0.3080 -0.4588 -0.0567
  134OSM   H18F14616  -1.169   2.144   4.733  0.3063  1.3376 -1.0154
  134OSM   H18G14617  -1.054   2.011   4.789  0.3364 -0.1565  0.6674
  134OSM   H18H14618  -1.009   2.129   4.658 -2.9498 -0.0553 -1.6236
  135OSM      N14619   6.493   5.746   6.765 -0.3616  0.1035 -0.0961
  135OSM    C1514620   6.514   5.723   6.914  0.5018 -0.8886 -0.0887
  135OSM   H15A14621   6.475   5.807   6.970 -0.2717 -0.2678 -1.4952
  135OSM   H15B14622   6.618   5.712   6.939  0.3983 -0.0012  0.8007
  135OSM   H15C14623   6.465   5.633   6.948 -0.3854  0.3658  2.1572
  135OSM    C1414624   6.348   5.753   6.733  0.4312 -0.0043 -0.5324
  135OSM   H14A14625   6.301   5.659   6.754 -0.3809  0.1173 -1.6800
  135OSM   H14B14626   6.324   5.767   6.628 -1.0126 -0.4714 -0.2810
  135OSM   H14C14627   6.301   5.825   6.797  2.5511 -0.7014  1.9633
  135OSM    C1314628   6.563   5.875   6.736  0.7171  0.0518 -0.0001
  135OSM   H13A14629   6.536   5.908   6.636 -2.4514 -0.9264  0.4002
  135OSM   H13B14630   6.671   5.870   6.737  0.8380  0.9289 -2.2931
  135OSM   H13C14631   6.534   5.951   6.807 -1.2319  2.0698 -2.7376
  135OSM    C1214632   6.552   5.641   6.673 -0.1108 -0.0146 -0.4389
  135OSM   H12A14633   6.659   5.642   6.692  0.3435  0.5730 -2.7236
  135OSM   H12B14634   6.551   5.678   6.571  0.2745 -2.6603 -1.4926
  135OSM    C1114635   6.503   5.494   6.672  0.0372 -0.9166  0.6607
  135OSM   H11A14636   6.514   5.462   6.778 -0.1224 -0.7813  0.7194
  135OSM   H11B14637   6.565   5.425   6.610 -1.4372 -3.2577  1.6675
  135OSM      P14638   6.289   5.363   6.668 -0.0815 -0.1891  0.2574
  135OSM    O1314639   6.298   5.323   6.810 -0.0276 -0.7968  0.2500
  135OSM    O1414640   6.148   5.381   6.628  0.2975  0.2061  0.1719
  135OSM    O1114641   6.347   5.249   6.573 -0.2716  0.7134  0.0496
  135OSM    O1214642   6.359   5.493   6.640 -0.4864 -0.5261  0.0277
  135OSM    C1S14643   6.311   5.240   6.437 -0.3481 -0.3066  0.5368
  135OSM    H1S14644   6.213   5.290   6.418 -0.5401 -1.2943 -1.2918
  135OSM    H1T14645   6.299   5.132   6.411 -1.3520  0.4169 -2.4533
  135OSM     NF14646   6.347   5.331   6.211  0.0735  0.2656 -0.0373
  135OSM    HNF14647   6.366   5.269   6.136  0.4309 -1.4327  1.3732
  135OSM    C2S14648   6.415   5.307   6.341  1.1025  0.2732 -0.2669
  135OSM    H2S14649   6.455   5.405   6.372  1.5694 -0.0464  0.1548
  135OSM    C3S14650   6.533   5.208   6.326 -0.4779  0.0926 -0.5626
  135OSM    H3S14651   6.503   5.105   6.297  0.9095 -0.7567  0.8413
  135OSM     O314652   6.597   5.199   6.455 -0.0389  0.2310  0.2685
  135OSM    HO314653   6.536   5.217   6.527  1.0117  0.1793  1.1926
  135OSM    C4S14654   6.637   5.270   6.237 -0.3277  0.7852 -0.5445
  135OSM    H4S14655   6.694   5.357   6.273  0.3838 -0.2222  0.8497
  135OSM    C5S14656   6.677   5.219   6.122  0.6964 -0.1806  0.1904
  135OSM    H5S14657   6.633   5.128   6.079 -2.8591  0.3092  2.4095
  135OSM    C6S14658   6.776   5.280   6.032 -0.3827  0.8421 -0.7849
  135OSM    H6S14659   6.848   5.201   6.002 -2.5995 -1.4009 -0.5047
  135OSM    H6T14660   6.829   5.365   6.081 -1.1467  1.1378 -0.4645
  135OSM    C7S14661   6.708   5.349   5.908 -0.3435 -0.6494 -0.5479
  135OSM    H7S14662   6.648   5.438   5.937 -0.1299 -0.6209 -0.1868
  135OSM    H7T14663   6.630   5.277   5.874  1.5838 -3.1523  0.0538
  135OSM    C8S14664   6.806   5.385   5.796 -0.8314 -0.0567 -0.2436
  135OSM    H8S14665   6.860   5.296   5.756 -0.7126  1.3136 -3.4732
  135OSM    H8T14666   6.878   5.464   5.825 -0.1515 -0.7750  0.0751
  135OSM    C9S14667   6.743   5.435   5.667  0.0441  0.8239 -0.3202
  135OSM    H9S14668   6.711   5.541   5.671  1.3959  1.2504 -0.3770
  135OSM    H9T14669   6.649   5.377   5.654  0.4105 -0.5234  2.3662
  135OSM   C10S14670   6.824   5.421   5.541 -0.6855  0.2321 -0.6148
  135OSM   H10S14671   6.848   5.313   5.529  1.1824  0.3769  1.2956
  135OSM   H10T14672   6.917   5.482   5.547 -0.7002  0.1385  0.8203
  135OSM   C11S14673   6.737   5.468   5.423 -0.1526 -0.2666 -0.6232
  135OSM   H11S14674   6.715   5.576   5.432  0.6324 -0.0732 -1.0311
  135OSM   H11T14675   6.641   5.415   5.403 -0.2989  0.1551 -1.0365
  135OSM   C12S14676   6.809   5.454   5.293 -0.1765 -0.3133 -0.0515
  135OSM   H12S14677   6.829   5.345   5.299 -2.8288 -0.7622  2.9262
  135OSM   H12T14678   6.907   5.507   5.289 -1.2757  1.7042 -1.7629
  135OSM   C13S14679   6.739   5.491   5.172 -1.0457  0.5035  0.9670
  135OSM   H13S14680   6.735   5.601   5.157  3.4421  0.8037  0.6748
  135OSM   H13T14681   6.640   5.441   5.170  0.1584 -2.0416  1.0626
  135OSM   C14S14682   6.806   5.433   5.048  0.6568 -0.0837 -0.2353
  135OSM   H14S14683   6.735   5.423   4.963  0.8447  0.3463 -0.4466
  135OSM   H14T14684   6.850   5.333   5.068 -1.2661 -1.1950 -1.2364
  135OSM   C15S14685   6.916   5.520   5.003 -0.0029 -0.5427  0.6510
  135OSM   H15S14686   6.972   5.568   5.086 -0.0533 -0.6126  0.7258
  135OSM   H15T14687   6.868   5.608   4.955  0.4658 -0.4375  0.3676
  135OSM   C16S14688   7.027   5.456   4.907 -0.0900 -0.4761  0.5548
  135OSM   H16S14689   7.050   5.352   4.940  1.5566 -1.4258 -3.0556
  135OSM   H16T14690   7.115   5.521   4.925 -1.4522  1.5134  0.3100
  135OSM   C17S14691   6.977   5.454   4.764 -0.4505 -0.8170  0.2985
  135OSM   H17S14692   6.950   5.557   4.734  1.0121  0.8094  3.9979
  135OSM   H17T14693   6.881   5.398   4.760 -0.2826 -1.0485 -1.5312
  135OSM   C18S14694   7.071   5.403   4.648 -0.3815  0.1350 -0.1751
  135OSM   H18S14695   7.016   5.422   4.553  0.0357  3.4685  0.1541
  135OSM   H18T14696   7.102   5.297   4.663 -0.9814 -0.4898 -2.8501
  135OSM   H18U14697   7.162   5.466   4.652  1.1000 -1.8404 -0.8332
  135OSM    C1F14698   6.246   5.412   6.199  0.1840 -0.4762  0.0753
  135OSM     OF14699   6.237   5.501   6.284 -0.5380  0.1068 -0.1217
  135OSM    C2F14700   6.145   5.392   6.081 -0.4271  0.7676 -0.1515
  135OSM    H2F14701   6.110   5.287   6.091  2.4286 -0.2550 -0.1066
  135OSM    H2G14702   6.197   5.405   5.984 -0.1466 -0.5134 -0.1884
  135OSM    C3F14703   6.023   5.486   6.091 -0.6170 -0.2077  0.0039
  135OSM    H3F14704   6.038   5.590   6.055 -1.5736 -0.4146 -1.0457
  135OSM    H3G14705   5.982   5.499   6.193  0.6782 -0.2963  0.5581
  135OSM    C4F14706   5.902   5.430   6.020 -0.6700 -0.2175  0.2620
  135OSM    H4F14707   5.887   5.328   6.061 -1.3092  0.1570  0.9802
  135OSM    H4G14708   5.813   5.487   6.056 -0.6115 -1.7502  3.1374
  135OSM    C5F14709   5.922   5.415   5.868 -0.2590  0.5400  0.0059
  135OSM    H5F14710   5.977   5.319   5.856  0.5351  0.7579  1.6088
  135OSM    H5G14711   5.973   5.504   5.825  0.0085  1.2267  1.6430
  135OSM    C6F14712   5.791   5.399   5.791 -0.0760  0.5273  0.4986
  135OSM    H6F14713   5.738   5.495   5.804  1.8635  1.8121 -0.6710
  135OSM    H6G14714   5.727   5.325   5.843  0.8401 -0.4169  0.3201
  135OSM    C7F14715   5.807   5.343   5.647 -0.4318  0.2160  0.1236
  135OSM    H7F14716   5.701   5.315   5.630 -1.2268  2.9540  0.0347
  135OSM    H7G14717   5.849   5.240   5.649 -0.0031  0.3968  1.0058
  135OSM    C8F14718   5.874   5.437   5.548 -0.0921 -0.0748  0.0271
  135OSM    H8F14719   5.980   5.444   5.583 -0.7908 -0.9130  2.5057
  135OSM    H8G14720   5.829   5.537   5.537  0.6940  0.4083  0.9601
  135OSM    C9F14721   5.886   5.365   5.416 -0.1771 -1.3064  0.2416
  135OSM    H9F14722   5.942   5.271   5.426  0.2500 -1.0120  0.6370
  135OSM   C10F14723   5.837   5.409   5.294 -0.5658  0.3556 -0.1363
  135OSM   H10F14724   5.874   5.361   5.202  0.3924  1.6552 -0.4436
  135OSM   C11F14725   5.760   5.540   5.288  0.6077 -0.3087  0.3765
  135OSM   H11F14726   5.795   5.621   5.355  2.5873  0.5286 -1.5501
  135OSM   H11G14727   5.660   5.519   5.331  0.3579  1.0141  0.4884
  135OSM   C12F14728   5.746   5.581   5.135  0.5736  0.4434 -0.2156
  135OSM   H12F14729   5.844   5.603   5.088  0.4954  2.5400  0.5176
  135OSM   H12G14730   5.679   5.665   5.109  0.2161 -0.1983 -1.4550
  135OSM   C13F14731   5.675   5.467   5.053 -0.4781 -0.3986 -0.9541
  135OSM   H13F14732   5.581   5.445   5.108 -0.9375  1.3590 -0.9622
  135OSM   H13G14733   5.741   5.380   5.035  0.7608 -0.6491  3.6706
  135OSM   C14F14734   5.623   5.511   4.916 -0.0538 -0.3389  1.0886
  135OSM   H14F14735   5.704   5.531   4.843 -0.7153  1.6538  0.8534
  135OSM   H14G14736   5.565   5.605   4.926 -0.0586  0.0546 -1.8320
  135OSM   C15F14737   5.523   5.400   4.864 -0.0116 -0.1322 -0.1733
  135OSM   H15F14738   5.430   5.417   4.922  0.4556  1.4173  0.1799
  135OSM   H15G14739   5.560   5.295   4.864  1.0143  0.1924 -1.8433
  135OSM   C16F14740   5.491   5.418   4.720 -0.1738 -0.3968  0.3113
  135OSM   H16F14741   5.423   5.339   4.679 -1.0696  0.8452 -0.7118
  135OSM   H16G14742   5.570   5.435   4.644  0.9491 -2.5621  0.9116
  135OSM   C17F14743   5.412   5.542   4.695 -1.1075 -0.0519 -0.3558
  135OSM   H17F14744   5.486   5.622   4.716  0.5078 -1.5233 -0.1971
  135OSM   H17G14745   5.332   5.555   4.770 -1.0777 -0.9174 -0.1599
  135OSM   C18F14746   5.360   5.562   4.552 -0.1469  0.2992  0.3601
  135OSM   H18F14747   5.291   5.650   4.557 -0.9106 -0.2637 -0.0363
  135OSM   H18G14748   5.309   5.471   4.513  2.1499 -0.0348 -2.1925
  135OSM   H18H14749   5.441   5.589   4.482 -0.4261 -0.0983 -0.1264
  136OSM      N14750   1.910   1.440   6.764 -0.1497 -0.1336  0.2558
  136OSM    C1514751   2.052   1.469   6.741  0.2454  0.0709  0.0861
  136OSM   H15A14752   2.114   1.409   6.805 -0.5964 -1.1791 -0.2231
  136OSM   H15B14753   2.063   1.574   6.763  0.7193 -0.0087  0.2334
  136OSM   H15C14754   2.083   1.444   6.640  2.4313 -4.1719  1.5506
  136OSM    C1414755   1.873   1.483   6.901  0.1764  0.3650 -0.3214
  136OSM   H14A14756   1.910   1.584   6.907 -0.0624  0.4022  0.5904
  136OSM   H14B14757   1.909   1.422   6.983  2.8435  1.7243 -0.3610
  136OSM   H14C14758   1.767   1.486   6.916  0.4284 -0.7992  2.2625
  136OSM    C1314759   1.835   1.522   6.665 -0.1032 -0.8721 -0.6125
  136OSM   H13A14760   1.865   1.507   6.562 -0.5021 -1.0664 -0.6995
  136OSM   H13B14761   1.859   1.625   6.689  1.6815 -0.3554 -4.0108
  136OSM   H13C14762   1.729   1.507   6.675 -0.3455 -0.3962 -2.1978
  136OSM    C1214763   1.879   1.290   6.740 -0.0957 -0.0350  1.1162
  136OSM   H12A14764   1.781   1.275   6.782 -0.8070 -2.4873 -1.1110
  136OSM   H12B14765   1.941   1.232   6.806 -0.1564 -1.2686  0.1453
  136OSM    C1114766   1.897   1.208   6.610  0.5418  0.2407  0.1372
  136OSM   H11A14767   1.839   1.243   6.522 -0.0957 -1.5811 -0.2123
  136OSM   H11B14768   1.859   1.104   6.622  0.1603  0.2379 -0.9841
  136OSM      P14769   2.096   1.172   6.449 -0.2512 -0.1833 -0.0901
  136OSM    O1314770   2.233   1.221   6.466  0.2828  0.3922 -0.1214
  136OSM    O1414771   2.083   1.033   6.402 -0.9070  0.3804 -0.6140
  136OSM    O1114772   2.015   1.275   6.358  0.1501  0.4107  0.3978
  136OSM    O1214773   2.040   1.187   6.596 -0.4128 -0.0255 -0.2940
  136OSM    C1S14774   2.072   1.407   6.329 -0.3271 -0.8920  0.4661
  136OSM    H1S14775   2.177   1.393   6.296 -0.7797 -1.6793 -0.7139
  136OSM    H1T14776   2.062   1.473   6.418  1.5575  0.6120 -0.3638
  136OSM     NF14777   2.074   1.605   6.176 -0.1911  0.1208 -0.5546
  136OSM    HNF14778   2.028   1.693   6.189  2.5864  1.4301  1.4861
  136OSM    C2S14779   1.997   1.481   6.209  0.5322  0.5430 -0.5614
  136OSM    H2S14780   2.003   1.409   6.124 -3.0217 -1.3032  0.5317
  136OSM    C3S14781   1.852   1.507   6.229 -0.1762  0.4977 -0.5095
  136OSM    H3S14782   1.839   1.584   6.308 -0.5895 -2.9465  3.1096
  136OSM     O314783   1.780   1.402   6.294 -0.0573  0.6210  0.5920
  136OSM    HO314784   1.842   1.341   6.333  0.6254  0.4403 -0.7388
  136OSM    C4S14785   1.794   1.555   6.105  0.0018  0.1744 -0.1635
  136OSM    H4S14786   1.813   1.662   6.090 -0.5301  0.7461  2.6325
  136OSM    C5S14787   1.723   1.473   6.017 -0.3967 -0.1271 -0.5571
  136OSM    H5S14788   1.704   1.370   6.051 -2.6132  0.5169  0.3862
  136OSM    C6S14789   1.669   1.517   5.888  0.9250 -0.5836  0.2649
  136OSM    H6S14790   1.558   1.515   5.888  0.8696  0.9746  0.0763
  136OSM    H6T14791   1.716   1.453   5.810  0.9941  0.5915 -0.6818
  136OSM    C7S14792   1.703   1.661   5.853  0.1540  0.4059 -0.2019
  136OSM    H7S14793   1.809   1.693   5.851  0.2777 -0.0077 -1.8048
  136OSM    H7T14794   1.659   1.728   5.930 -0.5185  1.2605 -1.2811
  136OSM    C8S14795   1.641   1.708   5.717  0.3114 -0.2622  0.0656
  136OSM    H8S14796   1.645   1.819   5.724 -1.4368 -0.3046  2.8567
  136OSM    H8T14797   1.532   1.689   5.715  0.1979  0.3591  0.1221
  136OSM    C9S14798   1.695   1.641   5.588  0.2519 -0.2829 -1.2346
  136OSM    H9S14799   1.684   1.532   5.607  1.9074 -0.0900  1.4783
  136OSM    H9T14800   1.805   1.650   5.575  0.9768 -1.2311  2.7931
  136OSM   C10S14801   1.612   1.686   5.463 -0.4346 -0.1889 -0.9754
  136OSM   H10S14802   1.611   1.797   5.454  1.7296 -0.2088 -2.2187
  136OSM   H10T14803   1.505   1.660   5.473 -0.3057 -0.7701 -1.1027
  136OSM   C11S14804   1.660   1.632   5.329  0.0318  0.3049 -0.1202
  136OSM   H11S14805   1.633   1.527   5.308 -2.4222  1.0958 -1.3896
  136OSM   H11T14806   1.770   1.646   5.321  0.2333 -0.5021  1.0932
  136OSM   C12S14807   1.608   1.713   5.210  0.1521  0.1831 -0.2514
  136OSM   H12S14808   1.663   1.810   5.202  0.1483  0.5173  2.6644
  136OSM   H12T14809   1.501   1.734   5.228  0.0253 -1.6453  1.3709
  136OSM   C13S14810   1.624   1.636   5.078 -1.0535  0.7190  0.0747
  136OSM   H13S14811   1.581   1.534   5.080 -1.1674  0.7779  0.9498
  136OSM   H13T14812   1.735   1.633   5.070 -0.8064  4.3131  0.5584
  136OSM   C14S14813   1.567   1.707   4.954  0.0240 -0.0610 -0.4553
  136OSM   H14S14814   1.459   1.732   4.962 -0.3885 -2.2044  2.6220
  136OSM   H14T14815   1.584   1.628   4.878  1.6894 -1.1301  0.9526
  136OSM   C15S14816   1.654   1.831   4.918 -0.3131  0.5863 -0.2510
  136OSM   H15S14817   1.761   1.804   4.934 -0.6035 -0.2241  0.3970
  136OSM   H15T14818   1.618   1.909   4.988  0.9679 -0.0701  1.1935
  136OSM   C16S14819   1.648   1.874   4.765 -0.1932  0.6777 -0.4209
  136OSM   H16S14820   1.708   1.963   4.736 -2.2835  1.8780 -1.3050
  136OSM   H16T14821   1.545   1.906   4.738  0.1117  2.5871  0.4763
  136OSM   C17S14822   1.675   1.764   4.665  0.2405 -0.1328  0.9252
  136OSM   H17S14823   1.587   1.697   4.663 -1.4734  2.0330 -1.3443
  136OSM   H17T14824   1.770   1.711   4.686  0.1941 -0.1582  1.0762
  136OSM   C18S14825   1.692   1.834   4.524 -0.7987  0.2910  0.4194
  136OSM   H18S14826   1.717   1.755   4.450 -0.8799  2.3128 -1.8955
  136OSM   H18T14827   1.783   1.897   4.533 -0.1642 -0.9366  4.7224
  136OSM   H18U14828   1.603   1.891   4.489 -0.0634  0.2796 -1.5921
  136OSM    C1F14829   2.198   1.613   6.121 -0.1605 -0.0917  0.0324
  136OSM     OF14830   2.268   1.518   6.105  0.0086 -0.0687 -0.6293
  136OSM    C2F14831   2.238   1.745   6.084 -0.3705  0.0302  0.2062
  136OSM    H2F14832   2.273   1.818   6.159  2.2127 -0.4000 -0.4668
  136OSM    H2G14833   2.167   1.802   6.021 -0.4936 -0.7905 -0.4237
  136OSM    C3F14834   2.363   1.729   5.991  0.8365  0.6203 -0.4017
  136OSM    H3F14835   2.327   1.687   5.894 -1.7982  0.1789  0.6918
  136OSM    H3G14836   2.448   1.668   6.027 -0.4120  0.0539  1.7021
  136OSM    C4F14837   2.419   1.869   5.955 -0.8148  0.5934 -0.1854
  136OSM    H4F14838   2.526   1.865   5.924 -0.2624  1.6341  1.4544
  136OSM    H4G14839   2.423   1.934   6.045  0.1592  1.9430 -1.1646
  136OSM    C5F14840   2.347   1.950   5.847 -0.0560 -0.0967  0.7286
  136OSM    H5F14841   2.374   2.058   5.848  1.6400 -0.5010  1.9391
  136OSM    H5G14842   2.238   1.936   5.866 -0.2808 -0.3853 -0.6726
  136OSM    C6F14843   2.379   1.898   5.701  0.5008  0.5427 -0.3191
  136OSM    H6F14844   2.337   1.795   5.697 -1.3006  1.1294  1.4273
  136OSM    H6G14845   2.489   1.892   5.691  0.4383 -2.2736 -0.1592
  136OSM    C7F14846   2.318   1.977   5.588 -0.1202  0.1831 -0.6571
  136OSM    H7F14847   2.386   2.061   5.561  3.7271 -2.4682 -0.0040
  136OSM    H7G14848   2.228   2.019   5.638  1.3278  0.0444  2.3077
  136OSM    C8F14849   2.279   1.888   5.463 -0.8113 -0.4568  0.9470
  136OSM    H8F14850   2.376   1.834   5.451 -0.1417  1.0577 -1.0522
  136OSM    H8G14851   2.289   1.949   5.371 -1.0340 -0.4551  0.9251
  136OSM    C9F14852   2.169   1.790   5.460 -0.0811  0.2540  0.5183
  136OSM    H9F14853   2.189   1.717   5.540  2.0862  0.8350  0.5537
  136OSM   C10F14854   2.057   1.775   5.379  0.2145  0.0081 -0.0789
  136OSM   H10F14855   1.982   1.695   5.389  0.6781 -0.9345 -3.1196
  136OSM   C11F14856   2.025   1.872   5.261  0.0200 -0.2295 -0.1670
  136OSM   H11F14857   2.117   1.926   5.230  1.2096 -1.0701  1.7091
  136OSM   H11G14858   1.950   1.942   5.303  0.1430 -0.9776  1.3423
  136OSM   C12F14859   1.976   1.810   5.129  0.1565 -0.1385 -0.3310
  136OSM   H12F14860   1.964   1.894   5.057 -0.8323 -0.2668 -0.3275
  136OSM   H12G14861   1.870   1.781   5.148  0.3156 -0.2787  0.3896
  136OSM   C13F14862   2.071   1.714   5.072 -0.2557  0.3295  0.4147
  136OSM   H13F14863   2.076   1.628   5.142 -1.6810 -0.3793 -0.2909
  136OSM   H13G14864   2.173   1.757   5.075 -0.7018  1.3822  2.7598
  136OSM   C14F14865   2.049   1.660   4.932 -0.4310 -0.0758  0.5322
  136OSM   H14F14866   1.947   1.615   4.927 -1.1689  1.2350  2.5362
  136OSM   H14G14867   2.122   1.578   4.915 -0.8177 -0.0949 -1.3339
  136OSM   C15F14868   2.074   1.760   4.814 -0.2719 -0.0758 -0.3349
  136OSM   H15F14869   2.134   1.850   4.840 -1.4701  0.6167  0.1348
  136OSM   H15G14870   1.973   1.805   4.802 -0.1299  0.3278 -0.0698
  136OSM   C16F14871   2.104   1.695   4.669 -0.7495  0.9416  0.4300
  136OSM   H16F14872   2.101   1.772   4.589 -1.2372 -0.9842 -1.5146
  136OSM   H16G14873   2.019   1.628   4.645 -1.6162  3.0038 -2.9351
  136OSM   C17F14874   2.240   1.627   4.658 -0.6383 -0.6598  0.7516
  136OSM   H17F14875   2.236   1.582   4.557  0.1566  0.0106  0.4035
  136OSM   H17G14876   2.236   1.538   4.725 -0.5609  1.2060  3.3917
  136OSM   C18F14877   2.353   1.722   4.680 -0.5496 -0.0108 -0.5131
  136OSM   H18F14878   2.420   1.683   4.759 -0.3929  2.1616  0.4892
  136OSM   H18G14879   2.322   1.827   4.701  1.0642  0.6739 -1.2813
  136OSM   H18H14880   2.417   1.735   4.589  2.6920 -0.2208  1.5590
  137OSM      N14881   4.139   1.025   6.996  0.3162 -0.0833  0.8443
  137OSM    C1514882   4.021   1.072   6.921  0.3036 -0.0523  0.0512
  137OSM   H15A14883   4.017   1.172   6.882 -2.2506 -1.0122 -2.5035
  137OSM   H15B14884   3.935   1.069   6.987 -0.9100  1.1272 -1.3862
  137OSM   H15C14885   3.995   1.005   6.840  0.7876  1.3830 -1.3389
  137OSM    C1414886   4.120   1.059   7.141  1.4592  0.3886  0.3271
  137OSM   H14A14887   4.025   1.018   7.168  2.3531 -1.8753  0.2137
  137OSM   H14B14888   4.109   1.166   7.155 -0.8762  0.1021  0.9971
  137OSM   H14C14889   4.195   1.011   7.202  2.6000 -0.5278 -1.6948
  137OSM    C1314890   4.162   0.877   6.973 -0.2369  0.5078 -0.1905
  137OSM   H13A14891   4.182   0.855   6.869 -0.7772 -0.4009 -0.1176
  137OSM   H13B14892   4.069   0.824   6.988  0.9728 -2.0560 -1.0793
  137OSM   H13C14893   4.247   0.840   7.028 -0.4166  2.3661  1.4394
  137OSM    C1214894   4.268   1.100   6.948  0.1365  0.1557 -0.5398
  137OSM   H12A14895   4.352   1.086   7.014 -1.0303 -0.1228  0.9306
  137OSM   H12B14896   4.249   1.207   6.953 -1.3793 -0.1415  2.2331
  137OSM    C1114897   4.333   1.065   6.812 -0.3385  0.3674 -0.2342
  137OSM   H11A14898   4.419   1.135   6.801  0.9293 -1.1967 -0.4919
  137OSM   H11B14899   4.264   1.081   6.727  0.6206  1.2652 -0.8735
  137OSM      P14900   4.505   0.877   6.896  0.0497  0.4324  0.0130
  137OSM    O1314901   4.493   0.909   7.037  0.4797 -0.5862  0.1034
  137OSM    O1414902   4.521   0.734   6.858 -0.0394  0.2421  0.3621
  137OSM    O1114903   4.636   0.956   6.842  0.0981  0.1940 -0.0176
  137OSM    O1214904   4.380   0.932   6.810 -0.2073  0.4761 -0.2210
  137OSM    C1S14905   4.707   0.909   6.725  0.5032 -0.0964  0.0569
  137OSM    H1S14906   4.697   0.800   6.709  1.9366 -0.1920 -0.3106
  137OSM    H1T14907   4.816   0.921   6.743  0.4557  1.9592 -0.7411
  137OSM     NF14908   4.716   0.937   6.475  0.4571  0.5636 -0.0926
  137OSM    HNF14909   4.803   0.971   6.440  0.5334 -1.5814 -2.2685
  137OSM    C2S14910   4.665   0.989   6.599 -0.6632 -0.1217 -0.8139
  137OSM    H2S14911   4.555   0.979   6.584 -0.4368 -3.8336 -0.9293
  137OSM    C3S14912   4.697   1.145   6.615  0.1867  0.3689 -0.2140
  137OSM    H3S14913   4.806   1.164   6.606  0.6398 -1.3779  1.0200
  137OSM     O314914   4.680   1.190   6.743  0.3504  0.6042 -0.1023
  137OSM    HO314915   4.670   1.116   6.803  1.4373  0.2944 -0.2904
  137OSM    C4S14916   4.641   1.230   6.509 -0.0461 -0.1967  0.9039
  137OSM    H4S14917   4.711   1.247   6.426  0.4954  3.5760  1.9691
  137OSM    C5S14918   4.525   1.293   6.502 -0.1239  0.2565 -0.6168
  137OSM    H5S14919   4.463   1.300   6.593 -0.6040  0.4067 -0.9481
  137OSM    C6S14920   4.473   1.379   6.392 -0.7233  0.0805  0.3023
  137OSM    H6S14921   4.499   1.484   6.419  2.7513 -1.0837  2.1380
  137OSM    H6T14922   4.364   1.361   6.401 -0.2300 -3.2666  0.9742
  137OSM    C7S14923   4.519   1.329   6.254  0.1757 -0.3038 -1.0843
  137OSM    H7S14924   4.505   1.221   6.231 -0.1905  0.1516 -3.3213
  137OSM    H7T14925   4.629   1.342   6.246  0.2754  0.3501  0.9591
  137OSM    C8S14926   4.446   1.408   6.141 -0.0628 -0.1047  0.3050
  137OSM    H8S14927   4.435   1.517   6.163  0.3628 -0.0165  0.1045
  137OSM    H8T14928   4.339   1.386   6.120  0.1836 -0.2849 -0.8808
  137OSM    C9S14929   4.519   1.388   6.008 -0.7610 -0.1506  0.2798
  137OSM    H9S14930   4.529   1.279   5.991 -3.6527 -0.3583 -0.5816
  137OSM    H9T14931   4.620   1.434   6.004 -1.3247  1.1128 -0.0017
  137OSM   C10S14932   4.438   1.440   5.886 -0.1019  0.1024 -0.1569
  137OSM   H10S14933   4.435   1.551   5.884  2.0407  0.2844  2.3373
  137OSM   H10T14934   4.332   1.409   5.902 -0.1824 -1.6458 -3.2663
  137OSM   C11S14935   4.473   1.369   5.757 -0.4253  0.5306  0.3497
  137OSM   H11S14936   4.445   1.261   5.764  0.6961  0.2740  1.1953
  137OSM   H11T14937   4.584   1.362   5.750 -0.5897 -1.3620 -1.6093
  137OSM   C12S14938   4.416   1.432   5.630  0.4370 -0.0846  0.2158
  137OSM   H12S14939   4.460   1.531   5.606 -0.3436  0.5713  1.3826
  137OSM   H12T14940   4.306   1.446   5.641  0.1140 -1.0032 -1.4791
  137OSM   C13S14941   4.440   1.342   5.512  0.4925 -0.6565 -0.1137
  137OSM   H13S14942   4.387   1.246   5.526 -2.6616  1.1139  0.9439
  137OSM   H13T14943   4.549   1.321   5.521  0.3316 -1.2081  0.5948
  137OSM   C14S14944   4.399   1.406   5.374 -0.2174 -0.9559  0.4797
  137OSM   H14S14945   4.457   1.499   5.357 -2.0147  0.4486  1.6579
  137OSM   H14T14946   4.297   1.446   5.391  0.2237 -0.4541  2.0465
  137OSM   C15S14947   4.403   1.309   5.263 -0.4928  0.4410  0.2346
  137OSM   H15S14948   4.335   1.223   5.283  0.6813 -0.6625 -0.3757
  137OSM   H15T14949   4.506   1.276   5.236 -1.4097 -0.7105 -2.1478
  137OSM   C16S14950   4.353   1.384   5.134 -0.3469  0.4250 -0.6872
  137OSM   H16S14951   4.431   1.460   5.112  0.5803 -0.6081 -1.0694
  137OSM   H16T14952   4.260   1.438   5.163  0.2991  1.1606  0.0660
  137OSM   C17S14953   4.328   1.288   5.016  0.2389  0.2051 -0.6103
  137OSM   H17S14954   4.246   1.217   5.042 -1.5478  2.0921 -0.8140
  137OSM   H17T14955   4.421   1.229   5.001  0.1836 -0.2845  0.8526
  137OSM   C18S14956   4.300   1.360   4.884 -0.1894 -0.0327 -0.1552
  137OSM   H18S14957   4.302   1.291   4.796 -0.5866 -1.7407  1.1232
  137OSM   H18T14958   4.382   1.434   4.869 -1.7198  1.3027 -2.5244
  137OSM   H18U14959   4.204   1.415   4.884 -0.2751 -0.1503 -1.4871
  137OSM    C1F14960   4.677   0.818   6.423  0.0600  0.1005  1.2215
  137OSM     OF14961   4.587   0.752   6.474 -0.0121  0.1077 -0.1044
  137OSM    C2F14962   4.732   0.764   6.292  0.1073 -0.0008 -0.0935
  137OSM    H2F14963   4.829   0.715   6.314 -0.4780 -1.8307 -1.3283
  137OSM    H2G14964   4.738   0.852   6.225 -1.5916 -1.4600 -2.3063
  137OSM    C3F14965   4.645   0.652   6.224 -0.1295 -0.6966 -0.6247
  137OSM    H3F14966   4.540   0.686   6.211  0.3412  1.1259  0.0203
  137OSM    H3G14967   4.645   0.562   6.289  0.3996 -0.2981 -0.0675
  137OSM    C4F14968   4.707   0.603   6.086 -0.5532 -0.3526 -0.4442
  137OSM    H4F14969   4.632   0.531   6.045 -0.6162 -1.5554  1.6012
  137OSM    H4G14970   4.798   0.542   6.106  1.1838  1.3963 -2.5790
  137OSM    C5F14971   4.743   0.702   5.977  0.2005 -0.1051  0.1545
  137OSM    H5F14972   4.779   0.657   5.882 -2.3541 -1.3996 -0.2614
  137OSM    H5G14973   4.828   0.763   6.017 -0.8879  1.7881 -0.3057
  137OSM    C6F14974   4.617   0.801   5.954 -0.4416  0.2716  0.1467
  137OSM    H6F14975   4.616   0.885   6.026 -0.2582 -0.7101  1.3372
  137OSM    H6G14976   4.525   0.739   5.955  1.2464 -2.5657 -2.1888
  137OSM    C7F14977   4.618   0.878   5.821 -0.8016  0.3034 -0.1518
  137OSM    H7F14978   4.532   0.947   5.808 -0.3852  0.9778  0.5936
  137OSM    H7G14979   4.608   0.800   5.742 -1.0616 -0.3539  0.5119
  137OSM    C8F14980   4.751   0.942   5.794 -0.6517 -0.4795  0.0083
  137OSM    H8F14981   4.737   0.972   5.688  0.0677  1.5702  0.4351
  137OSM    H8G14982   4.834   0.868   5.798 -0.1741 -0.0028 -0.7905
  137OSM    C9F14983   4.771   1.058   5.885 -0.7065 -0.3456  0.1223
  137OSM    H9F14984   4.738   1.037   5.988 -1.9818 -0.0705 -0.2187
  137OSM   C10F14985   4.821   1.180   5.855  0.2234 -0.2179  0.2575
  137OSM   H10F14986   4.832   1.261   5.928  1.3070 -2.0024  2.1948
  137OSM   C11F14987   4.868   1.219   5.717 -0.0162  0.2644 -0.7756
  137OSM   H11F14988   4.859   1.330   5.710 -0.4035  0.2282 -0.9244
  137OSM   H11G14989   4.814   1.177   5.629 -0.1010  0.7486 -0.9583
  137OSM   C12F14990   5.018   1.197   5.700 -0.0834 -0.3167 -0.2832
  137OSM   H12F14991   5.042   1.089   5.696 -0.8591 -0.4731 -1.4680
  137OSM   H12G14992   5.085   1.237   5.779 -0.0638  0.5246 -0.7120
  137OSM   C13F14993   5.077   1.269   5.579  0.4280  0.1828 -0.2311
  137OSM   H13F14994   5.186   1.252   5.568  0.4289  0.3192 -0.4436
  137OSM   H13G14995   5.058   1.377   5.560  0.4328 -0.1378 -2.2972
  137OSM   C14F14996   5.039   1.209   5.448 -0.1931  0.1813 -0.0347
  137OSM   H14F14997   4.928   1.210   5.446 -0.2090  0.0297  0.4893
  137OSM   H14G14998   5.068   1.102   5.439 -0.2351  0.2502 -1.0700
  137OSM   C15F14999   5.103   1.289   5.333  0.5799  0.0747 -0.0527
  137OSM   H15F15000   5.213   1.297   5.345  0.4385  0.1884  1.3008
  137OSM   H15G15001   5.057   1.390   5.341  0.1353 -0.1167 -0.1923
  137OSM   C16F15002   5.088   1.213   5.196 -0.1061 -0.2733  0.0843
  137OSM   H16F15003   4.979   1.195   5.182 -0.4486  0.5834  1.4850
  137OSM   H16G15004   5.140   1.116   5.215  2.4685  1.3259  1.8498
  137OSM   C17F15005   5.150   1.297   5.085  0.8235 -0.1420  0.9142
  137OSM   H17F15006   5.258   1.319   5.101  0.4279  3.5243 -0.3882
  137OSM   H17G15007   5.097   1.393   5.065  0.1297 -0.6614  0.1732
  137OSM   C18F15008   5.133   1.219   4.952  0.1687  0.7647  0.2518
  137OSM   H18F15009   5.175   1.117   4.961 -0.5855  0.4835  0.6422
  137OSM   H18G15010   5.181   1.264   4.862 -0.4996  0.5362 -0.2262
  137OSM   H18H15011   5.026   1.197   4.933  0.6955 -1.2328 -0.6049
  138OSM      N15012   0.647   6.023   6.761  0.2877  0.4715  0.4549
  138OSM    C1515013   0.689   6.015   6.904 -0.0924 -0.4430  0.5424
  138OSM   H15A15014   0.753   6.096   6.937 -2.4449  1.0129  1.8188
  138OSM   H15B15015   0.745   5.926   6.926 -0.6435 -1.2126 -1.0170
  138OSM   H15C15016   0.606   6.020   6.973 -1.2427 -0.7990 -0.7744
  138OSM    C1415017   0.553   5.907   6.741  0.0871  0.3844 -0.4719
  138OSM   H14A15018   0.602   5.811   6.749 -0.8436 -0.0502  0.2220
  138OSM   H14B15019   0.512   5.898   6.641 -0.7148  0.0096 -0.1085
  138OSM   H14C15020   0.482   5.903   6.822  0.3022  0.9032 -0.2505
  138OSM    C1315021   0.581   6.151   6.732 -0.3600 -0.0704  0.2412
  138OSM   H13A15022   0.537   6.200   6.818 -2.0440  0.7571 -1.0302
  138OSM   H13B15023   0.505   6.128   6.658  0.5950 -2.0751 -0.1889
  138OSM   H13C15024   0.654   6.223   6.699 -1.8271  1.6401  0.5618
  138OSM    C1215025   0.770   6.006   6.674 -0.5968  0.0917 -0.2215
  138OSM   H12A15026   0.845   6.082   6.691  1.5265 -1.4628 -2.1646
  138OSM   H12B15027   0.741   6.011   6.570 -1.0055 -1.3595 -0.1891
  138OSM    C1115028   0.848   5.877   6.696 -0.6103  1.0785  0.1139
  138OSM   H11A15029   0.908   5.859   6.605  0.8944  0.6888  1.1389
  138OSM   H11B15030   0.784   5.791   6.725 -1.0221  0.9153 -1.2160
  138OSM      P15031   1.050   5.996   6.827 -0.2567 -0.5629 -0.2483
  138OSM    O1315032   0.994   6.116   6.902 -0.6796  0.2852  0.2352
  138OSM    O1415033   1.158   5.920   6.889  0.0488  0.0383  0.3690
  138OSM    O1115034   1.100   6.035   6.683 -0.3851  0.5849 -0.3553
  138OSM    O1215035   0.939   5.891   6.805 -0.4934 -0.7327 -0.1497
  138OSM    C1S15036   1.196   5.957   6.610  0.0118  0.4476 -0.1143
  138OSM    H1S15037   1.186   5.848   6.627  1.9136 -0.0021 -1.5121
  138OSM    H1T15038   1.300   5.982   6.640 -0.2779 -0.0548  1.4002
  138OSM     NF15039   1.279   5.893   6.382 -0.5716 -0.7867  0.0022
  138OSM    HNF15040   1.331   5.934   6.308 -0.0258  1.2848  1.4709
  138OSM    C2S15041   1.193   5.983   6.457 -0.1834  0.9099  0.6771
  138OSM    H2S15042   1.103   5.949   6.400  1.8382 -2.9214 -0.6499
  138OSM    C3S15043   1.199   6.135   6.430  0.2434 -0.4569  0.5289
  138OSM    H3S15044   1.290   6.166   6.486  0.0681 -2.3945  2.0189
  138OSM     O315045   1.087   6.217   6.480 -0.3960 -0.7381 -0.0688
  138OSM    HO315046   1.062   6.186   6.568 -1.1564  0.3149  0.1098
  138OSM    C4S15047   1.217   6.167   6.284 -0.0597 -0.2091 -0.1953
  138OSM    H4S15048   1.305   6.225   6.251 -1.3056  1.6061 -0.4282
  138OSM    C5S15049   1.125   6.158   6.189 -0.1220  1.1328 -0.2262
  138OSM    H5S15050   1.022   6.132   6.218 -1.2096  4.4958 -0.6189
  138OSM    C6S15051   1.157   6.210   6.049 -0.4550  0.4136  0.4757
  138OSM    H6S15052   1.132   6.318   6.045 -0.6012  0.3900  0.7115
  138OSM    H6T15053   1.089   6.154   5.981  2.4053 -1.1373 -1.2882
  138OSM    C7S15054   1.303   6.182   6.002  0.5989 -0.6385  0.0203
  138OSM    H7S15055   1.321   6.073   6.015 -1.8142 -0.9535  1.3923
  138OSM    H7T15056   1.386   6.234   6.054 -0.9021 -1.0102  3.0266
  138OSM    C8S15057   1.316   6.225   5.859 -0.0416 -0.2914  0.1791
  138OSM    H8S15058   1.302   6.335   5.850  0.3277 -0.3456 -1.1574
  138OSM    H8T15059   1.236   6.177   5.799 -0.2316 -0.7647  0.7955
  138OSM    C9S15060   1.457   6.181   5.807  0.1010  0.1458 -0.1507
  138OSM    H9S15061   1.462   6.075   5.773  1.2424  0.4303 -0.9241
  138OSM    H9T15062   1.528   6.195   5.892 -2.3399 -1.0980  2.2415
  138OSM   C10S15063   1.513   6.280   5.706 -0.1587  0.0447  0.2520
  138OSM   H10S15064   1.615   6.247   5.678 -1.5267 -2.9636 -1.7646
  138OSM   H10T15065   1.512   6.378   5.758  1.2392 -0.5835  1.5550
  138OSM   C11S15066   1.440   6.282   5.579  0.4170  0.6310  0.3556
  138OSM   H11S15067   1.350   6.347   5.586 -0.7805 -1.0310  0.9320
  138OSM   H11T15068   1.402   6.183   5.547 -1.0305  0.4428  2.4827
  138OSM   C12S15069   1.534   6.349   5.478 -0.3631 -0.7210 -0.7583
  138OSM   H12S15070   1.637   6.307   5.473 -0.0066  0.2866 -3.0154
  138OSM   H12T15071   1.542   6.450   5.525 -0.8454 -1.5190  1.1667
  138OSM   C13S15072   1.482   6.353   5.336 -0.2990  0.5125  0.8623
  138OSM   H13S15073   1.541   6.427   5.278  1.3969  0.3965  2.3496
  138OSM   H13T15074   1.376   6.387   5.337 -0.1814  0.9655 -0.4726
  138OSM   C14S15075   1.504   6.227   5.246 -0.1076  0.3343 -0.7385
  138OSM   H14S15076   1.475   6.143   5.313  3.4819  0.0141  0.6465
  138OSM   H14T15077   1.610   6.214   5.215  0.0893 -1.1386  0.4187
  138OSM   C15S15078   1.418   6.214   5.117 -0.2438 -0.4204  0.0781
  138OSM   H15S15079   1.450   6.292   5.045  1.5674 -1.3007 -0.1338
  138OSM   H15T15080   1.313   6.236   5.146 -0.2283  1.2399 -0.9766
  138OSM   C16S15081   1.434   6.083   5.045  0.2429  0.6466  0.0252
  138OSM   H16S15082   1.446   6.014   5.131  1.1949 -0.0275 -0.6249
  138OSM   H16T15083   1.534   6.079   4.996  1.2135 -0.0637  1.9512
  138OSM   C17S15084   1.320   6.059   4.954 -0.1638 -0.8811  0.4389
  138OSM   H17S15085   1.312   6.147   4.887 -2.6886 -0.7418  0.8199
  138OSM   H17T15086   1.219   6.050   5.001 -0.9951 -1.8605 -1.4131
  138OSM   C18S15087   1.332   5.936   4.870  0.4881  0.0812 -0.1013
  138OSM   H18S15088   1.424   5.945   4.808 -0.3390  2.2558 -1.0845
  138OSM   H18T15089   1.246   5.912   4.804  1.8087 -3.0743 -0.8977
  138OSM   H18U15090   1.340   5.854   4.945  1.6782  0.7488  0.5231
  138OSM    C1F15091   1.278   5.755   6.392 -0.8705 -0.5510 -0.7809
  138OSM     OF15092   1.180   5.696   6.433 -0.1316  0.1055  0.0570
  138OSM    C2F15093   1.391   5.682   6.338 -0.7316 -0.0743  0.7362
  138OSM    H2F15094   1.470   5.759   6.332  0.4480 -1.3494 -2.1980
  138OSM    H2G15095   1.365   5.636   6.240  0.7441  0.7538 -0.0721
  138OSM    C3F15096   1.445   5.583   6.440 -0.6044 -0.2565 -0.0496
  138OSM    H3F15097   1.377   5.502   6.472 -0.0496 -0.7744 -0.1661
  138OSM    H3G15098   1.462   5.641   6.533  1.8943 -0.0855 -0.5511
  138OSM    C4F15099   1.588   5.526   6.408 -0.3557  0.6821 -0.3012
  138OSM    H4F15100   1.610   5.455   6.491 -0.9124 -0.4393 -1.0858
  138OSM    H4G15101   1.657   5.612   6.419 -0.6636  0.9251 -0.2843
  138OSM    C5F15102   1.595   5.440   6.282 -0.2766 -0.0095 -0.5130
  138OSM    H5F15103   1.559   5.500   6.195  0.2677 -1.0944 -1.5069
  138OSM    H5G15104   1.518   5.362   6.293  1.1268 -1.3533  0.1922
  138OSM    C6F15105   1.731   5.374   6.261  0.3294  0.3651 -0.4624
  138OSM    H6F15106   1.713   5.285   6.196 -0.2627 -0.5096  0.8517
  138OSM    H6G15107   1.765   5.341   6.362 -0.1164  0.1352 -0.3862
  138OSM    C7F15108   1.851   5.465   6.224 -0.1259 -0.0700 -0.1703
  138OSM    H7F15109   1.949   5.412   6.213  0.0194  0.3955 -1.1993
  138OSM    H7G15110   1.867   5.535   6.309  0.6493  0.4348 -0.7189
  138OSM    C8F15111   1.844   5.556   6.096 -0.2942 -0.1342 -0.0735
  138OSM    H8F15112   1.747   5.610   6.106  0.4232  0.9895  1.1569
  138OSM    H8G15113   1.846   5.489   6.007 -0.3258 -2.6595  1.7147
  138OSM    C9F15114   1.954   5.662   6.107 -1.1122 -0.0711  0.4304
  138OSM    H9F15115   1.947   5.740   6.185  0.2304  1.3617 -0.8134
  138OSM   C10F15116   2.071   5.647   6.037 -0.1424  0.1125  1.0902
  138OSM   H10F15117   2.150   5.723   6.043 -0.2548  0.7616 -3.0274
  138OSM   C11F15118   2.108   5.550   5.929 -0.0903 -0.4266  0.6630
  138OSM   H11F15119   2.092   5.597   5.830 -2.2689 -0.6852  0.8625
  138OSM   H11G15120   2.058   5.451   5.936 -0.5936 -0.1609  0.8789
  138OSM   C12F15121   2.259   5.517   5.922 -0.3408 -0.2509 -0.4897
  138OSM   H12F15122   2.286   5.488   6.026 -0.7306  1.7828  0.2198
  138OSM   H12G15123   2.315   5.605   5.885  1.8120 -2.0409 -1.7284
  138OSM   C13F15124   2.284   5.394   5.828  0.0979  0.3456  0.5187
  138OSM   H13F15125   2.253   5.298   5.874 -0.0659  0.7880  1.3487
  138OSM   H13G15126   2.394   5.381   5.821  0.0675  0.1247  0.4578
  138OSM   C14F15127   2.235   5.420   5.687  0.2324 -0.0252 -0.0112
  138OSM   H14F15128   2.278   5.512   5.643 -0.6643  1.0044  1.1798
  138OSM   H14G15129   2.124   5.425   5.688  0.1586  0.1376 -2.5267
  138OSM   C15F15130   2.278   5.301   5.602  0.0963  0.4390 -0.3244
  138OSM   H15F15131   2.263   5.207   5.660  2.9384 -1.1415 -1.9516
  138OSM   H15G15132   2.388   5.304   5.588  0.0816 -1.2510 -1.0373
  138OSM   C16F15133   2.202   5.301   5.476 -0.4185 -1.4445  0.0867
  138OSM   H16F15134   2.240   5.389   5.421  1.1419 -1.1461  1.5551
  138OSM   H16G15135   2.094   5.320   5.495 -0.6345 -1.4925 -1.0055
  138OSM   C17F15136   2.218   5.170   5.395 -0.5337 -0.1149 -0.1266
  138OSM   H17F15137   2.189   5.079   5.451  0.2242 -0.1490  0.2152
  138OSM   H17G15138   2.325   5.171   5.364 -0.4547  0.1223  0.1539
  138OSM   C18F15139   2.130   5.178   5.269  0.4882  0.3597  0.5037
  138OSM   H18F15140   2.032   5.229   5.281  0.0903 -0.3541  0.3145
  138OSM   H18G15141   2.101   5.074   5.245 -3.6549  1.7654 -1.4671
  138OSM   H18H15142   2.183   5.229   5.185  0.2581 -0.4607 -0.1535
  139OSM      N15143   2.510   4.098   6.987  0.1089  0.0657 -0.2024
  139OSM    C1515144   2.481   4.119   7.140 -0.0247  0.1600  0.2474
  139OSM   H15A15145   2.379   4.157   7.145 -1.6820 -3.2983 -2.8956
  139OSM   H15B15146   2.567   4.168   7.184  2.5312 -2.2764 -1.7032
  139OSM   H15C15147   2.468   4.022   7.184 -0.5111  0.3972  0.6420
  139OSM    C1415148   2.388   4.037   6.922  0.4120  0.8403  0.5648
  139OSM   H14A15149   2.359   3.944   6.968  0.9703 -0.8151 -2.1991
  139OSM   H14B15150   2.409   4.005   6.821  0.8758 -1.3982  1.3263
  139OSM   H14C15151   2.309   4.109   6.935  0.8764  1.1624  1.7574
  139OSM    C1315152   2.550   4.224   6.930  0.3506 -0.8476  0.2803
  139OSM   H13A15153   2.585   4.216   6.828  1.4776 -0.5144  0.6269
  139OSM   H13B15154   2.634   4.267   6.984  2.5491 -2.1451 -1.8823
  139OSM   H13C15155   2.471   4.297   6.918  0.8227 -0.6385 -2.2074
  139OSM    C1215156   2.628   4.007   6.969  0.4693  0.4274 -0.0092
  139OSM   H12A15157   2.718   4.066   6.962  0.4771  0.3070 -1.0448
  139OSM   H12B15158   2.616   3.979   6.866 -0.6973  0.4146  0.1104
  139OSM    C1115159   2.647   3.886   7.068 -0.5313 -0.0310  0.0862
  139OSM   H11A15160   2.685   3.929   7.163  2.2457 -0.7522 -0.6045
  139OSM   H11B15161   2.734   3.836   7.020 -1.0327 -0.6564 -0.1986
  139OSM      P15162   2.503   3.693   6.960 -0.2819 -0.3282 -0.0391
  139OSM    O1315163   2.568   3.569   7.005 -0.0655  0.1709  0.0631
  139OSM    O1415164   2.357   3.699   6.948  0.3346 -0.1172 -0.0341
  139OSM    O1115165   2.576   3.744   6.829 -0.4641 -0.3074  0.3480
  139OSM    O1215166   2.537   3.798   7.077  0.2418  0.8693 -0.4239
  139OSM    C1S15167   2.559   3.660   6.710 -0.0875 -0.8421 -0.6091
  139OSM    H1S15168   2.473   3.697   6.651 -0.0858 -0.4865 -0.3899
  139OSM    H1T15169   2.529   3.555   6.731  0.7685 -1.0792 -0.5451
  139OSM     NF15170   2.667   3.603   6.502  0.1165  0.4583  0.0826
  139OSM    HNF15171   2.714   3.516   6.515 -2.3003 -0.6617  1.9577
  139OSM    C2S15172   2.681   3.686   6.621  0.2588  0.5406  0.1015
  139OSM    H2S15173   2.676   3.790   6.584  1.3448 -0.1422 -2.1607
  139OSM    C3S15174   2.817   3.673   6.699 -0.2868 -0.5586  0.3248
  139OSM    H3S15175   2.805   3.587   6.769 -3.8534  0.9770  1.8622
  139OSM     O315176   2.853   3.787   6.788 -0.4420  0.2907 -0.4578
  139OSM    HO315177   2.770   3.827   6.817 -0.0657 -1.3628  3.5655
  139OSM    C4S15178   2.928   3.655   6.600  0.5494  0.1785  0.4373
  139OSM    H4S15179   2.968   3.750   6.563 -0.0004 -0.1051 -0.9339
  139OSM    C5S15180   2.989   3.536   6.583  0.1026  0.2072 -0.6033
  139OSM    H5S15181   2.962   3.451   6.647  1.5828 -1.0118 -1.5262
  139OSM    C6S15182   3.115   3.528   6.502  0.0934 -0.3281  0.0054
  139OSM    H6S15183   3.195   3.485   6.566 -0.0638  0.4579  0.7389
  139OSM    H6T15184   3.140   3.625   6.454 -1.2608 -0.6782 -1.5003
  139OSM    C7S15185   3.092   3.412   6.399 -0.5879  0.2048  0.4825
  139OSM    H7S15186   2.999   3.439   6.344 -0.3689  0.6334  0.3200
  139OSM    H7T15187   3.069   3.311   6.440 -1.9214  0.3371  0.0908
  139OSM    C8S15188   3.210   3.405   6.307 -0.4426  0.1039 -0.5247
  139OSM    H8S15189   3.300   3.376   6.366 -1.5447 -4.5697 -0.7117
  139OSM    H8T15190   3.230   3.502   6.258 -0.8068  0.0736 -0.7323
  139OSM    C9S15191   3.198   3.289   6.205  0.6557 -0.2082 -0.1727
  139OSM    H9S15192   3.114   3.323   6.140  0.9374  0.4820 -0.1921
  139OSM    H9T15193   3.171   3.196   6.259  3.3264 -1.6963 -1.2036
  139OSM   C10S15194   3.322   3.260   6.117 -0.2039  0.6187  0.0840
  139OSM   H10S15195   3.403   3.233   6.188 -0.8620  0.5360  0.8254
  139OSM   H10T15196   3.360   3.361   6.090 -0.7434  2.4015  5.0068
  139OSM   C11S15197   3.315   3.161   6.007 -0.4845  0.7193 -0.8079
  139OSM   H11S15198   3.263   3.066   6.030  0.8668 -0.4857 -2.5096
  139OSM   H11T15199   3.419   3.132   5.980 -0.6710 -1.3684  0.5178
  139OSM   C12S15200   3.260   3.219   5.881 -0.1659  0.3048  0.3609
  139OSM   H12S15201   3.326   3.293   5.831 -0.3085  1.0804  1.2823
  139OSM   H12T15202   3.155   3.253   5.896 -0.0307  0.8056  0.1850
  139OSM   C13S15203   3.242   3.106   5.771 -0.8931 -0.0227 -0.1839
  139OSM   H13S15204   3.183   3.156   5.691  0.9017  1.1127 -0.8448
  139OSM   H13T15205   3.174   3.029   5.814 -2.0862  1.2453  0.2656
  139OSM   C14S15206   3.372   3.038   5.720 -0.2726 -0.0677 -0.2701
  139OSM   H14S15207   3.382   2.939   5.770 -2.5586 -1.2760 -1.9422
  139OSM   H14T15208   3.461   3.103   5.726 -0.3337  0.1074 -1.0859
  139OSM   C15S15209   3.365   2.990   5.577 -0.3517 -0.0253  0.7037
  139OSM   H15S15210   3.277   2.922   5.574 -0.3041 -0.0537 -0.6852
  139OSM   H15T15211   3.458   2.941   5.541  0.9364  2.7494 -0.0047
  139OSM   C16S15212   3.347   3.097   5.469  0.3534 -0.2577  0.3915
  139OSM   H16S15213   3.268   3.161   5.513  1.4828  1.0751  0.5267
  139OSM   H16T15214   3.310   3.048   5.376 -1.5397 -0.2804  1.1229
  139OSM   C17S15215   3.468   3.184   5.451 -0.4917 -0.2030  0.0510
  139OSM   H17S15216   3.553   3.133   5.400  0.0568  0.3719  0.3761
  139OSM   H17T15217   3.506   3.200   5.554 -1.9105 -1.6396  0.8359
  139OSM   C18S15218   3.437   3.327   5.390  0.8004  0.3433 -0.3238
  139OSM   H18S15219   3.421   3.312   5.281  1.6530  0.8700 -0.5309
  139OSM   H18T15220   3.519   3.392   5.426 -0.6565  1.3110  1.4027
  139OSM   H18U15221   3.342   3.354   5.440  0.8923 -1.0989  0.7000
  139OSM    C1F15222   2.567   3.614   6.407 -0.1085 -0.0714 -0.0521
  139OSM     OF15223   2.493   3.702   6.417 -0.0845 -0.3819  0.1778
  139OSM    C2F15224   2.547   3.513   6.302  0.6759  0.5197 -0.5455
  139OSM    H2F15225   2.440   3.492   6.287  0.5982 -1.1908  1.8748
  139OSM    H2G15226   2.593   3.421   6.344 -1.7092 -0.0085  1.1193
  139OSM    C3F15227   2.604   3.563   6.167  0.3637  0.1960 -0.1397
  139OSM    H3F15228   2.558   3.660   6.140  2.0258  0.3855 -2.6119
  139OSM    H3G15229   2.564   3.491   6.092 -1.8971 -1.3308  2.3230
  139OSM    C4F15230   2.754   3.571   6.162 -0.4532  0.1142 -0.4712
  139OSM    H4F15231   2.789   3.492   6.231  1.1673  3.2981  2.7037
  139OSM    H4G15232   2.782   3.670   6.204 -1.5677  1.0203 -1.7667
  139OSM    C5F15233   2.810   3.581   6.012 -0.6337  0.0981 -0.4732
  139OSM    H5F15234   2.772   3.667   5.954 -0.6137  2.2322  2.4503
  139OSM    H5G15235   2.772   3.491   5.960  0.7791 -0.1648 -1.0968
  139OSM    C6F15236   2.963   3.585   6.001 -0.3170 -0.0042  0.0344
  139OSM    H6F15237   3.011   3.505   6.061 -0.6118  1.2210  1.9973
  139OSM    H6G15238   2.999   3.683   6.038 -1.1789  0.1325  0.5600
  139OSM    C7F15239   3.011   3.569   5.859 -0.4394 -0.2034  0.8426
  139OSM    H7F15240   2.962   3.652   5.803  2.2886  0.4589 -0.7392
  139OSM    H7G15241   2.972   3.468   5.833 -0.2080 -0.6448  2.1551
  139OSM    C8F15242   3.164   3.574   5.829  0.0283 -0.1545 -0.1074
  139OSM    H8F15243   3.202   3.487   5.887  2.3205 -0.2708 -1.6413
  139OSM    H8G15244   3.207   3.667   5.874 -0.1030 -0.2982  0.3188
  139OSM    C9F15245   3.196   3.540   5.689 -0.4993 -0.1151  0.0627
  139OSM    H9F15246   3.156   3.440   5.669  0.7002 -0.7366  0.6834
  139OSM   C10F15247   3.281   3.596   5.600 -0.0060  0.7270  0.7510
  139OSM   H10F15248   3.281   3.555   5.498 -3.3191 -0.6803  1.1771
  139OSM   C11F15249   3.376   3.713   5.625  0.8288  0.5163  0.1350
  139OSM   H11F15250   3.383   3.728   5.734 -3.2519  0.6169  0.5328
  139OSM   H11G15251   3.327   3.808   5.595  2.5296  1.8260  1.3014
  139OSM   C12F15252   3.526   3.713   5.568  0.0746 -0.6005 -0.9466
  139OSM   H12F15253   3.587   3.637   5.621 -1.0237 -0.4481  0.6091
  139OSM   H12G15254   3.547   3.819   5.594 -2.8863 -0.1427 -0.0722
  139OSM   C13F15255   3.537   3.696   5.419  0.5575 -0.0604  0.2171
  139OSM   H13F15256   3.469   3.768   5.368  1.5590  1.2761  0.6845
  139OSM   H13G15257   3.505   3.591   5.408 -0.1237  0.0646  0.9180
  139OSM   C14F15258   3.685   3.699   5.377  0.4120 -0.7136 -0.8958
  139OSM   H14F15259   3.743   3.629   5.440  0.6823  1.9479  2.1080
  139OSM   H14G15260   3.712   3.805   5.397 -2.7780 -0.1044  0.9120
  139OSM   C15F15261   3.687   3.655   5.232  0.1623  0.0865 -0.3498
  139OSM   H15F15262   3.622   3.716   5.167  3.5221  1.3876 -2.7686
  139OSM   H15G15263   3.649   3.550   5.227 -1.2208  0.6255 -2.0012
  139OSM   C16F15264   3.827   3.667   5.180 -0.3397 -0.3227 -0.1059
  139OSM   H16F15265   3.890   3.580   5.206 -0.8633 -1.1899 -1.6298
  139OSM   H16G15266   3.863   3.748   5.247 -1.0351 -0.2946  0.2436
  139OSM   C17F15267   3.850   3.714   5.037  0.3174 -0.3834 -0.5661
  139OSM   H17F15268   3.940   3.778   5.035  0.0200  0.4211  3.7010
  139OSM   H17G15269   3.754   3.765   5.015  0.1373 -0.7216 -0.5866
  139OSM   C18F15270   3.869   3.597   4.954 -0.1511 -0.1820  0.0863
  139OSM   H18F15271   3.900   3.642   4.857  1.5229  1.1600  1.1862
  139OSM   H18G15272   3.775   3.538   4.954 -1.0173  1.1177 -1.5076
  139OSM   H18H15273   3.950   3.535   4.999  2.2243  2.0186 -0.8820
  140OSM      N15274   2.430   0.704   6.603 -0.1063 -0.3393  0.0094
  140OSM    C1515275   2.361   0.727   6.736 -0.0491  0.5530 -0.4099
  140OSM   H15A15276   2.415   0.684   6.819  0.4619  0.9451 -0.5385
  140OSM   H15B15277   2.261   0.686   6.728 -0.2896  1.0858 -0.1763
  140OSM   H15C15278   2.360   0.834   6.753 -1.0511  0.8235 -1.9724
  140OSM    C1415279   2.420   0.558   6.570  0.2578  0.6038  0.0936
  140OSM   H14A15280   2.316   0.527   6.575  0.5560 -0.5868 -0.5853
  140OSM   H14B15281   2.463   0.499   6.650 -1.0973  0.6775  0.9058
  140OSM   H14C15282   2.461   0.521   6.477 -0.1632 -1.4043  0.6500
  140OSM    C1315283   2.370   0.808   6.512  0.2159  0.1467 -0.4797
  140OSM   H13A15284   2.402   0.808   6.409 -1.3638  0.2238 -0.9938
  140OSM   H13B15285   2.385   0.908   6.551 -0.3281  0.1343 -0.2360
  140OSM   H13C15286   2.263   0.794   6.507  0.2014  0.0857 -0.0377
  140OSM    C1215287   2.573   0.740   6.617 -0.6545 -0.1082  0.2961
  140OSM   H12A15288   2.583   0.847   6.626 -0.3091 -0.2691  2.5289
  140OSM   H12B15289   2.606   0.714   6.518 -0.3348 -0.6209  0.5341
  140OSM    C1115290   2.659   0.669   6.722 -0.1234 -0.1778 -0.6964
  140OSM   H11A15291   2.612   0.650   6.820  2.0389 -1.7716  0.1143
  140OSM   H11B15292   2.746   0.734   6.747  1.5583 -2.6532  0.2603
  140OSM      P15293   2.821   0.532   6.566 -0.2840  0.0157 -0.5458
  140OSM    O1315294   2.907   0.651   6.573 -0.5629  0.1169 -0.7847
  140OSM    O1415295   2.882   0.395   6.574  0.4767 -0.0494 -0.2660
  140OSM    O1115296   2.733   0.544   6.434 -0.0121 -0.6236  0.0066
  140OSM    O1215297   2.704   0.547   6.676 -0.3952  0.2181 -0.4941
  140OSM    C1S15298   2.803   0.596   6.321  0.5748 -0.6030 -0.5369
  140OSM    H1S15299   2.914   0.595   6.311  0.4757 -1.3242 -1.8520
  140OSM    H1T15300   2.766   0.699   6.305  1.8639  0.0361  0.4275
  140OSM     NF15301   2.832   0.560   6.073 -0.1145 -0.4675  0.1118
  140OSM    HNF15302   2.780   0.624   6.016  0.1920 -0.1564  0.1819
  140OSM    C2S15303   2.765   0.513   6.188  0.9022 -0.7229 -0.4840
  140OSM    H2S15304   2.800   0.408   6.197  2.5966 -0.2314 -1.0996
  140OSM    C3S15305   2.609   0.511   6.173 -0.3676 -0.2120  0.3019
  140OSM    H3S15306   2.579   0.615   6.148 -0.5568 -0.3736 -0.1565
  140OSM     O315307   2.534   0.480   6.286 -0.4846  0.2133 -0.4984
  140OSM    HO315308   2.593   0.509   6.356 -1.8245 -1.2877  1.3457
  140OSM    C4S15309   2.556   0.434   6.053  0.4425  0.8641  0.2743
  140OSM    H4S15310   2.563   0.325   6.066  1.4574  0.7215 -1.2370
  140OSM    C5S15311   2.473   0.480   5.955  0.0148 -0.6633  0.2464
  140OSM    H5S15312   2.435   0.584   5.952  0.3472 -0.5218  0.8505
  140OSM    C6S15313   2.401   0.387   5.859  0.0275  0.3311  0.4378
  140OSM    H6S15314   2.294   0.414   5.854  0.0914  1.3418  3.0273
  140OSM    H6T15315   2.405   0.283   5.898 -0.4927  0.1057 -0.1095
  140OSM    C7S15316   2.458   0.392   5.711 -1.0110  0.5346 -0.4905
  140OSM    H7S15317   2.564   0.359   5.719 -0.4344  2.1641 -1.0610
  140OSM    H7T15318   2.469   0.495   5.672  0.9141  1.2314  1.6034
  140OSM    C8S15319   2.368   0.314   5.616  0.7447 -0.2581  0.2035
  140OSM    H8S15320   2.271   0.366   5.605  0.4475  0.0487  3.2887
  140OSM    H8T15321   2.360   0.211   5.658 -0.1963 -0.6673 -0.9342
  140OSM    C9S15322   2.425   0.319   5.476 -0.2582 -0.4308  0.1875
  140OSM    H9S15323   2.472   0.221   5.451 -2.0129 -1.1413 -0.4882
  140OSM    H9T15324   2.505   0.395   5.467 -0.3095 -0.5011 -1.1459
  140OSM   C10S15325   2.317   0.330   5.367  0.5407  0.3122 -0.0237
  140OSM   H10S15326   2.360   0.336   5.265 -0.4334 -1.1307 -0.5530
  140OSM   H10T15327   2.259   0.421   5.395 -2.3012 -1.3234 -0.1641
  140OSM   C11S15328   2.227   0.202   5.349 -0.6276 -0.1340 -0.2097
  140OSM   H11S15329   2.193   0.159   5.445 -1.2078 -1.4389 -0.9624
  140OSM   H11T15330   2.275   0.119   5.293 -0.5593  0.4151 -0.9821
  140OSM   C12S15331   2.099   0.232   5.268  0.3278 -0.2625 -0.1190
  140OSM   H12S15332   2.040   0.296   5.337  0.0309 -1.9367  1.2619
  140OSM   H12T15333   2.032   0.146   5.244 -2.6520  1.5132  1.2032
  140OSM   C13S15334   2.129   0.320   5.142 -0.3293  0.7838 -0.2965
  140OSM   H13S15335   2.194   0.410   5.151  1.3696 -0.2863 -1.2800
  140OSM   H13T15336   2.029   0.353   5.107 -0.0794  2.1631  0.1928
  140OSM   C14S15337   2.189   0.231   5.030  0.7737  0.4377 -0.5793
  140OSM   H14S15338   2.121   0.145   5.010 -1.6374  2.0471  0.2771
  140OSM   H14T15339   2.280   0.175   5.062 -0.3780 -1.2474 -0.0830
  140OSM   C15S15340   2.243   0.301   4.907  0.4287 -0.2125 -0.1600
  140OSM   H15S15341   2.330   0.245   4.868  1.5897  1.5621 -0.2128
  140OSM   H15T15342   2.278   0.407   4.916  1.4566 -0.2909 -2.6409
  140OSM   C16S15343   2.128   0.303   4.800 -0.2438  0.3312 -0.2727
  140OSM   H16S15344   2.042   0.361   4.841  0.6047  2.6437 -1.5809
  140OSM   H16T15345   2.097   0.198   4.784  2.1768 -0.4127 -0.5225
  140OSM   C17S15346   2.165   0.363   4.667  0.1214  0.0491 -0.5876
  140OSM   H17S15347   2.245   0.298   4.625  0.7845 -0.4080  1.2724
  140OSM   H17T15348   2.220   0.459   4.674  2.8217 -1.2904 -1.8454
  140OSM   C18S15349   2.041   0.371   4.576  0.0765  0.1262  0.3238
  140OSM   H18S15350   2.074   0.399   4.473 -0.5303  1.4476  0.4745
  140OSM   H18T15351   1.975   0.458   4.594 -1.4234 -0.5841 -1.3007
  140OSM   H18U15352   1.982   0.278   4.559  2.7956 -1.6356 -0.0485
  140OSM    C1F15353   2.958   0.542   6.052 -0.3009 -0.0111  0.1421
  140OSM     OF15354   3.029   0.475   6.129  0.2717  0.4651  0.0137
  140OSM    C2F15355   3.007   0.614   5.922  0.3643  0.3314 -0.3927
  140OSM    H2F15356   3.038   0.716   5.952 -1.0466 -0.1861  3.4123
  140OSM    H2G15357   2.920   0.623   5.854  2.3756  0.3986 -3.0936
  140OSM    C3F15358   3.133   0.542   5.859  0.5311  0.1185  0.0412
  140OSM    H3F15359   3.103   0.440   5.827 -0.2392  0.8100 -1.6158
  140OSM    H3G15360   3.210   0.532   5.938 -1.2946 -1.9799  1.6973
  140OSM    C4F15361   3.175   0.605   5.727 -0.2565 -0.8395  0.2957
  140OSM    H4F15362   3.183   0.715   5.738 -0.9381 -0.6436 -1.0522
  140OSM    H4G15363   3.097   0.591   5.650 -1.4313 -1.8860  1.6244
  140OSM    C5F15364   3.312   0.551   5.686  0.1194  0.2818  0.1020
  140OSM    H5F15365   3.281   0.450   5.653 -1.5120  1.0343 -0.7999
  140OSM    H5G15366   3.377   0.544   5.776 -0.4394  1.2285  0.5938
  140OSM    C6F15367   3.384   0.617   5.565 -0.1426  0.4091 -0.2845
  140OSM    H6F15368   3.483   0.568   5.558  0.5492  1.5460  0.9506
  140OSM    H6G15369   3.408   0.722   5.595  5.2024 -0.8205  0.8831
  140OSM    C7F15370   3.319   0.607   5.429 -0.3219 -0.7843  0.7292
  140OSM    H7F15371   3.236   0.681   5.436  0.2393 -0.0967  0.3015
  140OSM    H7G15372   3.284   0.505   5.404 -0.6947  0.1981 -3.5505
  140OSM    C8F15373   3.414   0.651   5.320  0.2638  0.0347  0.2824
  140OSM    H8F15374   3.486   0.566   5.325  1.0496  0.4969 -1.9172
  140OSM    H8G15375   3.467   0.745   5.346  1.2914 -0.6245  0.6492
  140OSM    C9F15376   3.339   0.641   5.189 -0.1174 -0.1574  0.5608
  140OSM    H9F15377   3.233   0.668   5.193 -0.1581 -0.1276 -0.6044
  140OSM   C10F15378   3.386   0.600   5.064  0.2041 -0.5578 -0.4011
  140OSM   H10F15379   3.326   0.622   4.975 -1.0338  0.9205  0.7317
  140OSM   C11F15380   3.529   0.552   5.045  0.5677 -0.1239 -0.4228
  140OSM   H11F15381   3.538   0.450   5.001  0.1815 -0.3881  0.1102
  140OSM   H11G15382   3.578   0.538   5.143  0.0567  0.6529 -0.0491
  140OSM   C12F15383   3.619   0.653   4.960 -0.4137  0.1327  0.0534
  140OSM   H12F15384   3.613   0.754   5.008  2.1175  0.8783 -1.0509
  140OSM   H12G15385   3.586   0.645   4.855  0.8104 -1.0659 -0.2624
  140OSM   C13F15386   3.769   0.621   4.936  0.0078  0.1278 -0.9049
  140OSM   H13F15387   3.782   0.518   4.897 -1.5568 -1.0685  1.4963
  140OSM   H13G15388   3.819   0.632   5.035 -0.8362 -2.3631 -0.1345
  140OSM   C14F15389   3.826   0.719   4.838 -0.1170  0.0978  0.5860
  140OSM   H14F15390   3.826   0.820   4.882 -0.6203  0.4003 -0.0851
  140OSM   H14G15391   3.763   0.720   4.747  0.6949 -0.8367 -0.0109
  140OSM   C15F15392   3.972   0.682   4.791 -0.4959 -0.1666 -0.6851
  140OSM   H15F15393   3.979   0.588   4.733  1.8780 -0.6173  0.2312
  140OSM   H15G15394   4.038   0.662   4.877  0.9092  0.4620 -1.5785
  140OSM   C16F15395   4.047   0.797   4.721 -0.3372  0.1743  0.0771
  140OSM   H16F15396   4.048   0.882   4.793 -2.3646 -0.6602  1.1501
  140OSM   H16G15397   3.989   0.837   4.635 -1.4462 -1.4987  0.0145
  140OSM   C17F15398   4.198   0.769   4.676  0.4535  0.6065  0.1147
  140OSM   H17F15399   4.173   0.695   4.597 -0.9141  1.2143 -0.0605
  140OSM   H17G15400   4.250   0.712   4.756 -0.1689 -2.4875 -1.5346
  140OSM   C18F15401   4.279   0.889   4.635 -0.6402  0.0417  0.0154
  140OSM   H18F15402   4.308   0.951   4.722  2.6571  1.2710 -1.7903
  140OSM   H18G15403   4.221   0.960   4.572 -0.3349  1.8235  1.6653
  140OSM   H18H15404   4.373   0.861   4.583 -0.6191  0.0357  0.0566
  141OSM      N15405   3.336   0.605   6.549 -0.7352  0.4417  1.2428
  141OSM    C1515406   3.319   0.610   6.697  0.3466  0.4230  0.5502
  141OSM   H15A15407   3.254   0.538   6.744  2.1314 -2.6417 -1.3683
  141OSM   H15B15408   3.278   0.707   6.723  0.5261  0.8397 -0.6779
  141OSM   H15C15409   3.418   0.615   6.741  1.6765  0.5984 -2.2686
  141OSM    C1415410   3.387   0.468   6.513  0.3403  0.0647  0.3490
  141OSM   H14A15411   3.389   0.453   6.406 -0.8247  1.0641  0.1589
  141OSM   H14B15412   3.332   0.396   6.572  0.9694 -0.5331  0.2234
  141OSM   H14C15413   3.488   0.452   6.545  1.4947  2.6844 -1.6678
  141OSM    C1315414   3.200   0.621   6.486  0.1329 -0.0556 -0.0955
  141OSM   H13A15415   3.132   0.542   6.515  0.1664 -0.0878 -0.1053
  141OSM   H13B15416   3.206   0.619   6.378  0.5777 -0.1641 -0.0727
  141OSM   H13C15417   3.156   0.716   6.512 -1.9731 -1.5687  2.3111
  141OSM    C1215418   3.440   0.711   6.492  0.7363 -0.1579  0.2894
  141OSM   H12A15419   3.396   0.808   6.511 -2.4345 -1.6330  1.2938
  141OSM   H12B15420   3.453   0.702   6.385  0.7297  2.5497 -0.0089
  141OSM    C1115421   3.586   0.710   6.549 -0.3177  0.5833  0.2780
  141OSM   H11A15422   3.642   0.787   6.492 -2.7596  1.5180 -1.0132
  141OSM   H11B15423   3.632   0.610   6.532 -0.6327  0.4891 -0.0211
  141OSM      P15424   3.683   0.848   6.761  0.0277  0.1449 -0.2079
  141OSM    O1315425   3.593   0.966   6.788 -0.3163 -0.6563  0.0395
  141OSM    O1415426   3.738   0.792   6.889 -0.3622 -0.2280  0.5302
  141OSM    O1115427   3.799   0.892   6.656 -0.3332  0.1429  0.3061
  141OSM    O1215428   3.594   0.739   6.693 -0.3095  0.1460  0.2609
  141OSM    C1S15429   3.907   0.802   6.622  0.1958  0.7244 -0.2927
  141OSM    H1S15430   3.876   0.698   6.602  0.7310  0.8653 -2.0405
  141OSM    H1T15431   3.982   0.788   6.702  0.9053  2.0943 -0.6759
  141OSM     NF15432   4.091   0.749   6.474 -0.6294  0.2267 -0.4009
  141OSM    HNF15433   4.184   0.783   6.490 -0.5991  0.2387 -0.5985
  141OSM    C2S15434   3.977   0.834   6.488  0.4337 -0.4655 -0.9172
  141OSM    H2S15435   3.919   0.819   6.395  0.9508 -1.7231 -1.0533
  141OSM    C3S15436   4.021   0.986   6.485 -0.2243  0.3475  0.4661
  141OSM    H3S15437   4.085   1.022   6.568  0.3963 -0.5497  0.3854
  141OSM     O315438   3.916   1.076   6.502 -0.0776 -0.2682  0.1947
  141OSM    HO315439   3.860   1.033   6.568  0.4327 -0.4232  0.5349
  141OSM    C4S15440   4.076   1.018   6.347  0.3056 -0.4652 -0.5984
  141OSM    H4S15441   4.003   1.001   6.267  0.7666  0.4150 -1.2236
  141OSM    C5S15442   4.208   1.060   6.317  0.0529 -0.4516  0.8458
  141OSM    H5S15443   4.281   1.063   6.399 -0.8792  0.9859  1.6684
  141OSM    C6S15444   4.260   1.085   6.179  0.1262  0.0292 -0.3308
  141OSM    H6S15445   4.352   1.023   6.179 -0.6304 -1.1266  0.3835
  141OSM    H6T15446   4.278   1.192   6.154  2.0643 -0.2283 -0.1891
  141OSM    C7S15447   4.176   1.029   6.057 -0.4767 -0.5209  0.1121
  141OSM    H7S15448   4.073   1.070   6.057 -0.2726  0.0797 -1.7955
  141OSM    H7T15449   4.174   0.919   6.075 -0.3162 -0.9172 -2.0137
  141OSM    C8S15450   4.233   1.056   5.919 -0.0901  0.3794 -0.4993
  141OSM    H8S15451   4.321   0.990   5.906 -0.4347 -0.1683 -0.0981
  141OSM    H8T15452   4.259   1.164   5.907  0.9879  0.0700 -1.0599
  141OSM    C9S15453   4.138   0.999   5.814  0.2555 -0.2331 -0.6500
  141OSM    H9S15454   4.050   1.065   5.808 -0.1763 -0.6926  0.4693
  141OSM    H9T15455   4.091   0.900   5.832  0.6853 -0.4829 -0.8552
  141OSM   C10S15456   4.191   0.993   5.670 -0.0620  0.2795 -0.3356
  141OSM   H10S15457   4.276   0.921   5.669 -0.1059  0.2057  0.4300
  141OSM   H10T15458   4.215   1.097   5.640 -0.6125  0.0837 -1.4998
  141OSM   C11S15459   4.074   0.945   5.570 -0.3705 -0.9825 -0.3945
  141OSM   H11S15460   4.004   1.030   5.555  0.2039 -0.9431 -3.4014
  141OSM   H11T15461   4.028   0.856   5.618 -0.0164 -0.9091  0.0816
  141OSM   C12S15462   4.137   0.924   5.431  0.0819 -0.0277 -0.4433
  141OSM   H12S15463   4.222   0.853   5.431  1.1770  1.1980  0.7031
  141OSM   H12T15464   4.193   1.016   5.403  1.3843 -0.2087  1.3197
  141OSM   C13S15465   4.030   0.877   5.329 -0.5150 -0.1266  0.3634
  141OSM   H13S15466   3.989   0.973   5.290  0.5094  0.4554  0.6728
  141OSM   H13T15467   3.947   0.834   5.388 -0.9394  1.0852  0.6967
  141OSM   C14S15468   4.080   0.775   5.224  0.3346 -0.4518  0.8944
  141OSM   H14S15469   3.991   0.746   5.164  0.6952  0.0304  0.1053
  141OSM   H14T15470   4.137   0.688   5.261  2.4481  0.4709  0.0069
  141OSM   C15S15471   4.168   0.845   5.112  0.8009  0.4316  0.4367
  141OSM   H15S15472   4.152   0.953   5.133 -1.7534  0.2812 -0.3110
  141OSM   H15T15473   4.127   0.821   5.011 -0.6573  0.7729  0.9156
  141OSM   C16S15474   4.315   0.813   5.124 -0.9122 -0.3292  0.4929
  141OSM   H16S15475   4.325   0.705   5.101  1.8414 -0.3388  1.2901
  141OSM   H16T15476   4.347   0.823   5.230  0.6144 -0.0115  0.0309
  141OSM   C17S15477   4.412   0.887   5.026  0.0190 -0.9954 -0.5485
  141OSM   H17S15478   4.415   0.990   5.067  0.8790 -1.2960  0.1875
  141OSM   H17T15479   4.357   0.879   4.929  0.1760  0.1230 -0.7412
  141OSM   C18S15480   4.557   0.836   5.010  0.0007 -0.0271  1.2982
  141OSM   H18S15481   4.602   0.881   4.919  0.1731  0.5032  1.6399
  141OSM   H18T15482   4.562   0.726   4.995  1.7855  0.1725  0.0909
  141OSM   H18U15483   4.615   0.869   5.098  0.2396  2.4525  0.2813
  141OSM    C1F15484   4.076   0.615   6.449  0.6412  0.3775 -0.5177
  141OSM     OF15485   3.967   0.559   6.423 -0.0846 -0.2152 -0.1156
  141OSM    C2F15486   4.202   0.542   6.449  0.5706 -0.1378 -0.1599
  141OSM    H2F15487   4.211   0.483   6.542 -0.4060 -0.1700 -0.0758
  141OSM    H2G15488   4.284   0.617   6.456  0.9373 -0.4486 -0.9264
  141OSM    C3F15489   4.219   0.453   6.322  0.2681 -0.0264 -0.2192
  141OSM    H3F15490   4.139   0.379   6.305  0.9184 -0.0503 -4.1236
  141OSM    H3G15491   4.309   0.388   6.320 -1.0133 -1.8777  0.1960
  141OSM    C4F15492   4.217   0.534   6.189  0.6572 -0.1300 -0.4156
  141OSM    H4F15493   4.294   0.612   6.207  2.0554 -1.0976 -1.8506
  141OSM    H4G15494   4.114   0.572   6.177  0.8993  0.2095 -1.4910
  141OSM    C5F15495   4.248   0.448   6.062  0.1621  0.2003  0.1623
  141OSM    H5F15496   4.178   0.362   6.073  1.9680 -1.3078  0.5026
  141OSM    H5G15497   4.347   0.397   6.066  0.4133  0.4091 -2.3344
  141OSM    C6F15498   4.224   0.496   5.925 -0.2267  0.0134 -0.2578
  141OSM    H6F15499   4.144   0.574   5.927  0.0615  0.3332 -0.9352
  141OSM    H6G15500   4.190   0.410   5.863  0.7734 -1.0223  0.5907
  141OSM    C7F15501   4.344   0.571   5.861  0.0897  0.6846 -0.7502
  141OSM    H7F15502   4.448   0.540   5.880 -0.5062 -0.3528  0.9970
  141OSM    H7G15503   4.341   0.666   5.918  2.7211 -0.5466  1.7023
  141OSM    C8F15504   4.317   0.607   5.718 -0.0970  0.1935 -0.5936
  141OSM    H8F15505   4.389   0.683   5.682  0.5300 -0.3299 -0.4627
  141OSM    H8G15506   4.219   0.657   5.706  0.1163  0.1469 -3.0297
  141OSM    C9F15507   4.327   0.488   5.620  0.3093 -0.3013  0.1080
  141OSM    H9F15508   4.233   0.440   5.588  0.5930 -0.6844 -0.1435
  141OSM   C10F15509   4.436   0.423   5.590  0.3259 -0.2517 -0.1743
  141OSM   H10F15510   4.424   0.343   5.515 -2.1796  1.2338 -1.4775
  141OSM   C11F15511   4.571   0.441   5.665 -0.0549 -0.2100  0.7365
  141OSM   H11F15512   4.569   0.382   5.760  2.3336  0.5024  1.3133
  141OSM   H11G15513   4.585   0.547   5.696  0.7267  0.2038 -0.8963
  141OSM   C12F15514   4.685   0.391   5.578  0.1321  0.0643  0.2269
  141OSM   H12F15515   4.660   0.305   5.513 -0.7568  1.0546 -0.7910
  141OSM   H12G15516   4.781   0.365   5.627  0.1721 -0.6612 -0.2303
  141OSM   C13F15517   4.722   0.498   5.470 -0.1766 -0.1227 -1.0177
  141OSM   H13F15518   4.645   0.577   5.460  0.2086  0.1627 -1.8118
  141OSM   H13G15519   4.719   0.454   5.368  0.4763  0.7521 -1.4303
  141OSM   C14F15520   4.862   0.568   5.491  1.0065 -0.4502 -0.3228
  141OSM   H14F15521   4.943   0.503   5.453 -0.2823 -1.3541 -1.6423
  141OSM   H14G15522   4.869   0.581   5.601  4.7095 -1.5165 -0.3124
  141OSM   C15F15523   4.886   0.699   5.412 -0.0180  0.2120  0.4508
  141OSM   H15F15524   4.879   0.674   5.304  0.3237 -0.3612  0.5598
  141OSM   H15G15525   4.987   0.735   5.441  0.5798 -1.1473  0.1607
  141OSM   C16F15526   4.775   0.806   5.441 -1.0959  0.0180  0.3494
  141OSM   H16F15527   4.765   0.821   5.550  0.6145 -1.7366  0.7839
  141OSM   H16G15528   4.687   0.765   5.385 -1.5447  3.1672 -1.4759
  141OSM   C17F15529   4.820   0.935   5.371  0.6433 -0.4764 -0.3799
  141OSM   H17F15530   4.838   0.909   5.265 -1.2240 -0.0873 -0.8271
  141OSM   H17G15531   4.917   0.970   5.411  0.3767 -0.4140  0.2349
  141OSM   C18F15532   4.719   1.047   5.384 -0.0030  0.0549  0.2272
  141OSM   H18F15533   4.623   1.011   5.342  0.6100 -0.0851 -1.0997
  141OSM   H18G15534   4.754   1.133   5.323 -0.5606  1.2112  1.4974
  141OSM   H18H15535   4.703   1.083   5.488  0.0363  0.4346  0.1030
  142OSM      N15536   4.826   6.735   6.849  0.7861 -0.8704 -0.3864
  142OSM    C1515537   4.779   6.873   6.904  0.6165  0.0420 -0.1157
  142OSM   H15A15538   4.676   6.868   6.936 -0.0771  0.6586 -2.1228
  142OSM   H15B15539   4.781   6.951   6.829 -0.0025  0.2667  0.0959
  142OSM   H15C15540   4.845   6.916   6.978 -0.5095 -0.2058  1.0647
  142OSM    C1415541   4.968   6.718   6.822  0.5767  0.1094 -0.1885
  142OSM   H14A15542   5.033   6.763   6.895 -1.8932  0.9099  1.6500
  142OSM   H14B15543   4.992   6.742   6.719  0.6702  0.4902 -0.0792
  142OSM   H14C15544   4.992   6.613   6.821  0.6337  0.1241 -0.9949
  142OSM    C1315545   4.787   6.639   6.949 -0.2973  0.3403  0.2875
  142OSM   H13A15546   4.689   6.653   6.993 -0.2352 -0.9527  0.8934
  142OSM   H13B15547   4.860   6.648   7.028  0.7794  0.9625 -0.7449
  142OSM   H13C15548   4.795   6.543   6.901 -1.5043  0.9819 -1.2816
  142OSM    C1215549   4.748   6.717   6.722  0.0755 -0.2889  0.5747
  142OSM   H12A15550   4.776   6.786   6.644 -0.3742 -1.4233 -0.6341
  142OSM   H12B15551   4.648   6.752   6.745  0.9859  1.1091  2.6934
  142OSM    C1115552   4.759   6.575   6.649  0.2382 -1.1192 -0.1852
  142OSM   H11A15553   4.863   6.539   6.635  0.4777 -0.6542  0.3475
  142OSM   H11B15554   4.715   6.595   6.549 -3.3579 -1.8321  1.1162
  142OSM      P15555   4.526   6.454   6.721 -0.5191  0.2231 -0.0187
  142OSM    O1315556   4.504   6.307   6.716  0.5858  0.1248  0.3979
  142OSM    O1415557   4.457   6.536   6.819  0.2143 -0.3180  0.7705
  142OSM    O1115558   4.476   6.500   6.577 -0.2981 -0.0208  0.4512
  142OSM    O1215559   4.687   6.477   6.715  0.1071 -0.0529  0.5798
  142OSM    C1S15560   4.446   6.637   6.548 -0.4994 -0.1837  0.2329
  142OSM    H1S15561   4.514   6.705   6.604 -0.2008  1.6276 -2.1384
  142OSM    H1T15562   4.340   6.668   6.562  0.4465  4.6189 -1.2961
  142OSM     NF15563   4.479   6.824   6.368  0.1584  0.8145  0.1879
  142OSM    HNF15564   4.388   6.863   6.351  0.1585  0.9649  0.5197
  142OSM    C2S15565   4.471   6.675   6.393 -0.7188 -0.1296 -0.7364
  142OSM    H2S15566   4.571   6.637   6.363 -0.7833 -0.0180 -1.0941
  142OSM    C3S15567   4.370   6.602   6.308  0.0025 -0.5064 -0.6758
  142OSM    H3S15568   4.273   6.648   6.338  0.7978  0.3657  0.6682
  142OSM     O315569   4.355   6.469   6.345  0.3078 -0.4337  0.4943
  142OSM    HO315570   4.405   6.470   6.427  2.2623  3.8360 -0.4571
  142OSM    C4S15571   4.379   6.626   6.160  0.6187  0.0063  0.0405
  142OSM    H4S15572   4.328   6.718   6.126 -0.0874 -0.6574 -0.7167
  142OSM    C5S15573   4.452   6.561   6.070 -0.4636  0.0663 -0.2851
  142OSM    H5S15574   4.518   6.482   6.107  0.8369  1.0080 -0.5098
  142OSM    C6S15575   4.451   6.592   5.929 -0.3319  0.5080 -0.6339
  142OSM    H6S15576   4.362   6.654   5.906 -1.6497 -0.8907  0.5296
  142OSM    H6T15577   4.437   6.503   5.864  0.2086  0.0302 -0.1130
  142OSM    C7S15578   4.568   6.672   5.877  0.1012  0.3370  0.3453
  142OSM    H7S15579   4.641   6.588   5.883 -0.9622 -0.7377 -1.0212
  142OSM    H7T15580   4.590   6.757   5.944 -1.6072  0.4514  0.8244
  142OSM    C8S15581   4.550   6.726   5.733  0.2000  0.4424 -0.0098
  142OSM    H8S15582   4.451   6.776   5.736  0.0615  0.2426 -0.9185
  142OSM    H8T15583   4.528   6.637   5.670  2.8563  0.6191 -1.3516
  142OSM    C9S15584   4.661   6.827   5.690 -0.3041  0.0118  0.4112
  142OSM    H9S15585   4.749   6.767   5.658 -0.5738  0.3176 -0.9705
  142OSM    H9T15586   4.674   6.899   5.773 -0.4159  2.1926 -1.3484
  142OSM   C10S15587   4.630   6.922   5.569 -0.4083  0.0733  0.3964
  142OSM   H10S15588   4.727   6.973   5.550  0.5949 -1.2857  1.6369
  142OSM   H10T15589   4.558   6.996   5.608  1.5905  0.6823  3.2703
  142OSM   C11S15590   4.591   6.842   5.448 -0.5001 -0.0308  0.3971
  142OSM   H11S15591   4.499   6.782   5.469  1.3068 -3.2470 -0.2678
  142OSM   H11T15592   4.672   6.767   5.436 -1.5112 -1.0398 -0.4085
  142OSM   C12S15593   4.585   6.915   5.321 -0.3241  0.4722  0.2386
  142OSM   H12S15594   4.546   6.845   5.244 -2.0922  2.8630 -1.1603
  142OSM   H12T15595   4.682   6.959   5.291 -1.4806  1.8897 -1.6383
  142OSM   C13S15596   4.501   7.037   5.325  0.1589 -0.0130  0.2284
  142OSM   H13S15597   4.567   7.113   5.372  0.6023 -0.2543  0.0044
  142OSM   H13T15598   4.414   7.019   5.391  1.7850 -1.1147  2.1945
  142OSM   C14S15599   4.440   7.084   5.194  0.6508 -0.0667 -0.1189
  142OSM   H14S15600   4.363   7.159   5.219  2.1417  1.6957 -0.6211
  142OSM   H14T15601   4.384   7.005   5.140 -2.9938  2.6703 -0.7143
  142OSM   C15S15602   4.537   7.146   5.092  0.6380  0.6439  0.7241
  142OSM   H15S15603   4.592   7.061   5.047  0.7676  0.8554  0.4769
  142OSM   H15T15604   4.615   7.211   5.136  3.9297 -0.9759 -2.1928
  142OSM   C16S15605   4.462   7.232   4.997 -0.2212  0.4681  0.9268
  142OSM   H16S15606   4.455   7.336   5.035 -2.0151  1.5216 -1.9673
  142OSM   H16T15607   4.363   7.183   4.990  0.8576 -1.5540 -2.1091
  142OSM   C17S15608   4.515   7.252   4.852 -0.1976  0.0527 -0.0571
  142OSM   H17S15609   4.449   7.333   4.814 -0.9272 -0.4273  0.1661
  142OSM   H17T15610   4.508   7.167   4.781  2.5296  1.2630 -1.9739
  142OSM   C18S15611   4.657   7.312   4.841  0.4353 -0.1819 -0.7720
  142OSM   H18S15612   4.682   7.344   4.738 -1.3772  1.5698 -0.7353
  142OSM   H18T15613   4.730   7.240   4.883  1.0011  1.6735  1.6742
  142OSM   H18U15614   4.667   7.401   4.908  0.9870 -0.8148 -0.0031
  142OSM    C1F15615   4.579   6.892   6.416 -0.1093  0.2530  0.1360
  142OSM     OF15616   4.679   6.832   6.462  0.6240 -0.1692 -0.5425
  142OSM    C2F15617   4.567   7.040   6.417 -0.0376 -0.3121  0.8114
  142OSM    H2F15618   4.610   7.075   6.514  0.4481  0.4177  0.3388
  142OSM    H2G15619   4.461   7.075   6.417  0.7048  2.1118  0.5302
  142OSM    C3F15620   4.651   7.104   6.302 -0.3866 -0.9855  0.2480
  142OSM    H3F15621   4.758   7.081   6.323 -0.3677 -0.2380  0.9958
  142OSM    H3G15622   4.640   7.214   6.305 -2.4224 -1.1888  2.3787
  142OSM    C4F15623   4.617   7.061   6.156 -0.7873  0.2079  0.0091
  142OSM    H4F15624   4.640   6.954   6.142 -1.8201 -0.1256  0.7842
  142OSM    H4G15625   4.675   7.126   6.087  0.9325 -1.2411  0.0319
  142OSM    C5F15626   4.471   7.080   6.124 -0.3879 -0.2942  0.3522
  142OSM    H5F15627   4.427   7.173   6.165 -1.5819 -0.2382 -1.0064
  142OSM    H5G15628   4.411   7.002   6.174 -2.0412  1.1164  0.6512
  142OSM    C6F15629   4.426   7.087   5.978 -0.7066  0.1751  0.0588
  142OSM    H6F15630   4.488   7.018   5.917 -1.9199 -1.9568  1.1415
  142OSM    H6G15631   4.418   7.189   5.932 -1.5956  0.4470  0.7793
  142OSM    C7F15632   4.294   7.008   5.950 -0.5925  0.5492 -0.0932
  142OSM    H7F15633   4.219   7.053   6.019 -0.5640  0.7026 -0.1620
  142OSM    H7G15634   4.306   6.899   5.969  0.1437  0.6261 -0.0944
  142OSM    C8F15635   4.245   7.023   5.807 -0.1521  0.0612  0.0224
  142OSM    H8F15636   4.329   6.984   5.745 -1.3852  0.6420 -2.1471
  142OSM    H8G15637   4.241   7.131   5.780  0.2703 -0.5958 -3.1025
  142OSM    C9F15638   4.115   6.953   5.780 -0.1178  0.3686 -0.1384
  142OSM    H9F15639   4.020   6.982   5.827  0.0091 -0.6876  0.8036
  142OSM   C10F15640   4.104   6.851   5.695  0.4491 -0.1343  0.5248
  142OSM   H10F15641   4.000   6.814   5.688  0.1081  0.8419  0.3815
  142OSM   C11F15642   4.204   6.788   5.598  0.6624 -0.8444 -0.3099
  142OSM   H11F15643   4.213   6.680   5.621 -0.4197 -0.8795 -0.0215
  142OSM   H11G15644   4.303   6.838   5.608  1.1323 -1.9674  1.0576
  142OSM   C12F15645   4.166   6.796   5.451 -0.3017 -0.2054  0.2830
  142OSM   H12F15646   4.248   6.758   5.386 -1.3380 -0.9891 -0.6116
  142OSM   H12G15647   4.159   6.899   5.409  0.2090  0.3685  1.5462
  142OSM   C13F15648   4.032   6.731   5.418  0.8795 -0.3376  0.3253
  142OSM   H13F15649   3.947   6.783   5.468  1.7702  0.8649  0.6276
  142OSM   H13G15650   4.038   6.628   5.460 -0.1350  0.3973  2.4219
  142OSM   C14F15651   4.014   6.714   5.264 -0.0669  0.0825  0.3924
  142OSM   H14F15652   4.112   6.706   5.214  1.2582 -0.7009  2.9575
  142OSM   H14G15653   3.975   6.809   5.222 -1.3146 -1.1383 -1.4078
  142OSM   C15F15654   3.929   6.596   5.221  0.6923 -0.1041  0.1562
  142OSM   H15F15655   3.843   6.594   5.292  0.4498  1.1804 -0.0755
  142OSM   H15G15656   3.983   6.500   5.235 -0.1163 -0.6258 -0.2475
  142OSM   C16F15657   3.887   6.596   5.074  0.0041 -0.1079 -0.1913
  142OSM   H16F15658   3.842   6.693   5.042  1.6304  0.5157 -0.7032
  142OSM   H16G15659   3.799   6.530   5.060  0.2299 -0.6886  1.0444
  142OSM   C17F15660   3.993   6.534   4.980  0.9293 -0.1959  0.0185
  142OSM   H17F15661   4.041   6.444   5.023 -2.7803 -1.4322  2.0110
  142OSM   H17G15662   4.072   6.611   4.963 -0.0240  0.8314  0.1690
  142OSM   C18F15663   3.934   6.485   4.851 -0.1752 -0.2090  0.9538
  142OSM   H18F15664   3.887   6.574   4.803 -2.3159 -1.4241  0.6340
  142OSM   H18G15665   3.850   6.413   4.861 -0.6644  0.3514  0.9329
  142OSM   H18H15666   4.022   6.452   4.792 -0.2282  1.8815 -0.4180
  143OSM      N15667   3.287   3.368   7.126  0.1110 -0.2912 -0.1611
  143OSM    C1515668   3.265   3.399   7.267 -0.0048 -0.3729  0.4404
  143OSM   H15A15669   3.309   3.493   7.296  0.7547 -0.0683 -1.5487
  143OSM   H15B15670   3.296   3.317   7.330 -0.1705 -0.3344  0.5734
  143OSM   H15C15671   3.158   3.405   7.285  0.1310 -0.6472  1.3898
  143OSM    C1415672   3.431   3.333   7.107 -0.1328 -0.1892 -0.3113
  143OSM   H14A15673   3.450   3.247   7.169 -0.1976  0.2579  0.3396
  143OSM   H14B15674   3.502   3.408   7.140  0.3372 -1.2701  1.2483
  143OSM   H14C15675   3.452   3.317   7.003 -1.5892  2.0121 -1.0302
  143OSM    C1315676   3.215   3.241   7.085  0.0169 -0.8883 -0.0154
  143OSM   H13A15677   3.109   3.237   7.105  0.0678 -1.8754  0.0720
  143OSM   H13B15678   3.260   3.161   7.143  1.9296 -0.1598 -0.4175
  143OSM   H13C15679   3.233   3.215   6.982 -1.2355  1.5976 -0.9448
  143OSM    C1215680   3.250   3.491   7.036  0.3670 -0.2507 -0.0479
  143OSM   H12A15681   3.312   3.571   7.074 -0.2117 -0.6561  1.8774
  143OSM   H12B15682   3.145   3.515   7.037  0.7833  1.9752 -1.8406
  143OSM    C1115683   3.280   3.471   6.882  0.3282 -0.2466 -0.6928
  143OSM   H11A15684   3.209   3.532   6.822  0.0351  0.1675  0.0584
  143OSM   H11B15685   3.267   3.363   6.856  0.6199 -0.2821 -0.6928
  143OSM      P15686   3.466   3.652   6.846  0.4887  0.1747 -0.0635
  143OSM    O1315687   3.385   3.747   6.928 -0.0749  0.3784  0.3905
  143OSM    O1415688   3.609   3.654   6.871  0.2749 -0.0261  0.2638
  143OSM    O1115689   3.444   3.677   6.694  0.2315 -0.1751  0.0768
  143OSM    O1215690   3.426   3.498   6.857  0.3169  0.2044  0.0670
  143OSM    C1S15691   3.538   3.641   6.591  0.3888 -0.0984 -0.2020
  143OSM    H1S15692   3.569   3.536   6.609 -0.2470 -0.2562 -0.0110
  143OSM    H1T15693   3.616   3.720   6.592 -2.3084  2.7640  0.3900
  143OSM     NF15694   3.590   3.647   6.356 -0.4545  0.4406 -0.3681
  143OSM    HNF15695   3.615   3.726   6.301  5.1217 -0.3107  0.4754
  143OSM    C2S15696   3.477   3.660   6.446 -0.7555  0.0951  0.4747
  143OSM    H2S15697   3.400   3.583   6.424 -1.5685  0.6625  1.3050
  143OSM    C3S15698   3.422   3.799   6.441  0.8754  0.4804 -0.7881
  143OSM    H3S15699   3.497   3.871   6.480 -1.0260  2.4966 -0.6386
  143OSM     O315700   3.310   3.823   6.533  0.2035 -0.3328 -0.6501
  143OSM    HO315701   3.322   3.751   6.596 -0.4664 -0.7516 -0.9848
  143OSM    C4S15702   3.388   3.844   6.305  0.7344  0.1079  0.3926
  143OSM    H4S15703   3.463   3.902   6.249 -2.5022  1.2482 -3.2403
  143OSM    C5S15704   3.275   3.839   6.238 -0.1842 -0.0025  0.2189
  143OSM    H5S15705   3.188   3.793   6.287 -0.0795  1.5086  1.8982
  143OSM    C6S15706   3.244   3.891   6.099 -0.0306 -0.7510  0.5965
  143OSM    H6S15707   3.197   3.988   6.124  0.2030 -0.8238  1.3683
  143OSM    H6T15708   3.183   3.817   6.043  1.3894 -2.2603  0.9270
  143OSM    C7S15709   3.370   3.934   6.029 -0.4412  0.0993 -0.0423
  143OSM    H7S15710   3.433   3.845   6.008 -0.6225 -0.0526  0.0453
  143OSM    H7T15711   3.432   4.009   6.082 -0.3572  1.0447 -1.4207
  143OSM    C8S15712   3.335   3.995   5.895  0.0028  0.1089  0.4824
  143OSM    H8S15713   3.281   4.089   5.923  0.9157  0.3757  1.4132
  143OSM    H8T15714   3.277   3.926   5.831  0.9374  0.6797 -1.0402
  143OSM    C9S15715   3.463   4.030   5.818  0.0531 -0.3620 -0.1983
  143OSM    H9S15716   3.522   3.937   5.809 -1.2274 -1.2700  0.4718
  143OSM    H9T15717   3.524   4.102   5.877 -0.6089  0.2148 -0.2015
  143OSM   C10S15718   3.432   4.101   5.680  0.0103  0.1696 -0.0787
  143OSM   H10S15719   3.378   4.196   5.697 -0.4386 -0.1880  0.5256
  143OSM   H10T15720   3.364   4.034   5.623  2.3395 -2.8273  0.3628
  143OSM   C11S15721   3.546   4.114   5.585  0.0983  0.4320 -0.1210
  143OSM   H11S15722   3.605   4.019   5.583 -0.8711 -0.2180  0.8800
  143OSM   H11T15723   3.623   4.189   5.613  0.6737 -0.4398  0.7167
  143OSM   C12S15724   3.502   4.143   5.443  0.5284  0.3820  1.1104
  143OSM   H12S15725   3.416   4.212   5.457  1.0369  0.5977  3.8089
  143OSM   H12T15726   3.467   4.048   5.399 -2.2951  1.8458 -0.0725
  143OSM   C13S15727   3.607   4.206   5.355 -0.8627  0.5353 -0.4573
  143OSM   H13S15728   3.693   4.136   5.368 -1.6792 -1.0020 -2.6711
  143OSM   H13T15729   3.623   4.314   5.372 -0.4118  0.0502  2.7355
  143OSM   C14S15730   3.561   4.188   5.213  0.4137 -0.1831 -0.2456
  143OSM   H14S15731   3.609   4.271   5.156  0.9027 -0.2518  0.0611
  143OSM   H14T15732   3.450   4.194   5.209  0.3848  0.4637  0.9966
  143OSM   C15S15733   3.593   4.054   5.138 -0.3531 -0.4213  0.1069
  143OSM   H15S15734   3.519   3.980   5.175  0.2916 -1.6815 -1.0382
  143OSM   H15T15735   3.687   4.015   5.183 -0.9681  0.4263  2.2394
  143OSM   C16S15736   3.593   4.058   4.981 -0.6496  0.5599 -0.7634
  143OSM   H16S15737   3.603   3.952   4.950 -0.6403 -0.1868  1.5577
  143OSM   H16T15738   3.675   4.113   4.930  0.9097 -1.5256 -0.6553
  143OSM   C17S15739   3.462   4.119   4.927  0.4980  0.8774  0.0672
  143OSM   H17S15740   3.447   4.225   4.958  2.4211  0.6867  1.9111
  143OSM   H17T15741   3.371   4.071   4.968 -1.4298  3.9415 -0.3201
  143OSM   C18S15742   3.445   4.112   4.776  0.2058  0.0906  0.3167
  143OSM   H18S15743   3.345   4.160   4.764 -0.2078 -0.8819 -0.1983
  143OSM   H18T15744   3.449   4.005   4.748  1.4322  0.0926  0.4304
  143OSM   H18U15745   3.522   4.168   4.718  0.8731 -0.6606  0.4663
  143OSM    C1F15746   3.650   3.528   6.337 -0.2833  0.4920 -0.0415
  143OSM     OF15747   3.602   3.423   6.386 -0.4875  0.8160  0.8683
  143OSM    C2F15748   3.776   3.525   6.254  0.2619 -0.2408  0.3794
  143OSM    H2F15749   3.840   3.441   6.290 -0.9527 -1.4138 -0.1381
  143OSM    H2G15750   3.834   3.620   6.264  0.3018 -0.2868  0.5925
  143OSM    C3F15751   3.754   3.495   6.109  0.1534  0.2859  1.2290
  143OSM    H3F15752   3.709   3.580   6.055 -1.6493 -0.6911  1.1245
  143OSM    H3G15753   3.691   3.405   6.092 -0.8568  0.7380  2.4535
  143OSM    C4F15754   3.892   3.461   6.048  0.1384 -0.6400 -0.3175
  143OSM    H4F15755   3.943   3.380   6.105  2.1555  1.1860  0.6191
  143OSM    H4G15756   3.947   3.555   6.069  0.2971 -0.2990 -2.1001
  143OSM    C5F15757   3.896   3.441   5.896  0.0384  0.4096 -0.2220
  143OSM    H5F15758   3.844   3.524   5.845 -0.0299  0.0799 -0.7028
  143OSM    H5G15759   3.822   3.359   5.879 -0.5437  0.9058 -0.0792
  143OSM    C6F15760   4.033   3.406   5.829 -0.1179 -0.0291 -0.0399
  143OSM    H6F15761   4.078   3.313   5.871  2.2155  0.2118 -1.8290
  143OSM    H6G15762   4.116   3.478   5.844  1.1090 -1.4042  0.0161
  143OSM    C7F15763   4.018   3.382   5.674  0.0960 -0.0891  0.0058
  143OSM    H7F15764   3.935   3.312   5.648  0.4050  0.3259 -2.3713
  143OSM    H7G15765   4.112   3.336   5.636  0.0707  1.2499 -1.8287
  143OSM    C8F15766   3.999   3.511   5.588  0.6224 -0.1810 -0.1142
  143OSM    H8F15767   3.893   3.542   5.601  0.9196 -0.3388  3.8859
  143OSM    H8G15768   3.995   3.480   5.481 -0.2853  0.0516 -0.1573
  143OSM    C9F15769   4.099   3.623   5.597  0.0767 -0.0975  0.3660
  143OSM    H9F15770   4.085   3.681   5.690  0.1626 -0.2884  0.4984
  143OSM   C10F15771   4.189   3.658   5.503 -0.8037 -0.4831 -0.5547
  143OSM   H10F15772   4.256   3.744   5.518  2.7293 -2.4449 -3.2489
  143OSM   C11F15773   4.204   3.601   5.366  0.7546 -0.0836  0.2254
  143OSM   H11F15774   4.098   3.587   5.334  0.4396 -1.3532  1.6947
  143OSM   H11G15775   4.267   3.510   5.364  1.8540  0.6653 -0.2524
  143OSM   C12F15776   4.260   3.702   5.267 -0.1867  0.1437 -0.5569
  143OSM   H12F15777   4.363   3.735   5.293 -0.2188 -0.3658  0.2606
  143OSM   H12G15778   4.199   3.795   5.262 -1.1889 -0.1860  2.7005
  143OSM   C13F15779   4.259   3.652   5.113 -0.0438  0.4431 -0.6684
  143OSM   H13F15780   4.269   3.742   5.049  0.7896 -1.4172 -3.3873
  143OSM   H13G15781   4.163   3.597   5.103  0.3949 -1.2270  2.8070
  143OSM   C14F15782   4.375   3.556   5.073 -0.5786 -0.0741  0.1177
  143OSM   H14F15783   4.371   3.463   5.134 -1.3194 -0.5939 -0.7082
  143OSM   H14G15784   4.469   3.607   5.104 -1.8387  1.0742  2.3579
  143OSM   C15F15785   4.379   3.538   4.925 -0.7147  0.2127 -0.1757
  143OSM   H15F15786   4.398   3.634   4.871 -1.1966  0.7578  0.6021
  143OSM   H15G15787   4.278   3.502   4.897 -1.3360 -1.5933  3.7054
  143OSM   C16F15788   4.481   3.434   4.874 -0.1520  0.2751 -0.3112
  143OSM   H16F15789   4.445   3.332   4.900  1.0567  0.1512  0.9410
  143OSM   H16G15790   4.579   3.448   4.924 -0.0204  1.6656 -0.9124
  143OSM   C17F15791   4.508   3.435   4.722  0.1415  0.5694 -0.3689
  143OSM   H17F15792   4.588   3.358   4.712 -0.9225 -0.5979 -0.0567
  143OSM   H17G15793   4.545   3.535   4.691  0.1272 -0.0418 -2.5716
  143OSM   C18F15794   4.383   3.392   4.648 -0.3833 -0.3970  0.0982
  143OSM   H18F15795   4.391   3.421   4.542 -0.3114 -0.8507 -0.0233
  143OSM   H18G15796   4.298   3.450   4.692 -1.6468 -2.1798  0.1229
  143OSM   H18H15797   4.369   3.282   4.659  0.5914 -0.4553  0.8416
  144OSM      N15798   4.968   3.024   7.014  0.0404 -0.2764 -0.4417
  144OSM    C1515799   5.037   2.886   7.016 -0.0174  0.4742  0.0387
  144OSM   H15A15800   5.134   2.886   6.967  0.1902  1.2655  0.4213
  144OSM   H15B15801   4.972   2.810   6.976  0.3757 -0.8980  1.8684
  144OSM   H15C15802   5.053   2.863   7.120 -1.7733 -0.6886  0.0775
  144OSM    C1415803   4.849   3.017   7.102  0.2880 -0.3906 -0.0363
  144OSM   H14A15804   4.794   3.107   7.126  1.3502 -0.0500  1.2066
  144OSM   H14B15805   4.883   2.989   7.200  0.1418 -0.3430  0.0276
  144OSM   H14C15806   4.778   2.944   7.065 -2.4429  1.3764  1.3573
  144OSM    C1315807   5.070   3.118   7.074  0.3706  0.3263 -0.2067
  144OSM   H13A15808   5.112   3.082   7.166  1.0961  2.1952  0.2397
  144OSM   H13B15809   5.034   3.220   7.081 -1.8863 -0.1808 -2.6073
  144OSM   H13C15810   5.151   3.126   7.004 -0.1594  1.7774 -0.7039
  144OSM    C1215811   4.931   3.070   6.878  0.2992  0.6503 -0.0141
  144OSM   H12A15812   5.015   3.085   6.812  0.2445 -1.4427 -0.6165
  144OSM   H12B15813   4.875   3.163   6.884 -0.4642  0.1335  1.3937
  144OSM    C1115814   4.828   2.981   6.794 -0.3664  0.2594  0.1379
  144OSM   H11A15815   4.881   2.884   6.801 -2.5008 -0.8977  0.8969
  144OSM   H11B15816   4.823   3.009   6.687  1.2096 -3.5278 -1.0809
  144OSM      P15817   4.608   3.089   6.847  0.2272  0.2362  0.2002
  144OSM    O1315818   4.497   3.063   6.940  0.3145 -0.1971 -0.0485
  144OSM    O1415819   4.684   3.215   6.870 -0.2837 -0.3066  0.1476
  144OSM    O1115820   4.570   3.080   6.695  0.1232 -0.0564 -0.1361
  144OSM    O1215821   4.706   2.969   6.857  0.1294 -0.7289  0.4657
  144OSM    C1S15822   4.461   2.991   6.661  0.1564  0.3965  0.4250
  144OSM    H1S15823   4.371   3.022   6.719  0.1559 -1.9171  1.8151
  144OSM    H1T15824   4.488   2.888   6.694  1.6889  0.6355 -0.0146
  144OSM     NF15825   4.307   2.926   6.495  0.1439 -0.3689  0.5099
  144OSM    HNF15826   4.298   2.827   6.508 -1.7609 -0.3636 -0.4921
  144OSM    C2S15827   4.437   2.978   6.510 -0.1050 -0.2828 -0.4356
  144OSM    H2S15828   4.450   3.077   6.462  0.0498  0.0059  0.1787
  144OSM    C3S15829   4.545   2.892   6.444  0.3306 -0.3198 -0.0579
  144OSM    H3S15830   4.531   2.791   6.488 -0.6750  0.1962  0.8798
  144OSM     O315831   4.681   2.927   6.471 -0.1074  0.2724  0.6374
  144OSM    HO315832   4.676   2.963   6.559 -0.7318 -1.5174  1.3902
  144OSM    C4S15833   4.526   2.871   6.296  0.2069 -0.2048  0.1243
  144OSM    H4S15834   4.513   2.963   6.237 -2.2798 -0.9593 -0.6115
  144OSM    C5S15835   4.552   2.760   6.227 -0.2035  0.2470  0.2677
  144OSM    H5S15836   4.582   2.669   6.282  1.0425  1.1678  1.1425
  144OSM    C6S15837   4.544   2.744   6.078 -0.3139 -0.3294  0.1390
  144OSM    H6S15838   4.525   2.637   6.055 -0.7294 -1.0599  3.4166
  144OSM    H6T15839   4.639   2.777   6.030 -1.8765  1.5320 -1.9527
  144OSM    C7S15840   4.431   2.834   6.013  0.0623  0.0670 -0.6003
  144OSM    H7S15841   4.447   2.940   6.042  1.5785 -0.0278 -0.9948
  144OSM    H7T15842   4.330   2.801   6.045 -0.4547  1.0570 -1.1745
  144OSM    C8S15843   4.441   2.825   5.860  0.0443  0.5320 -0.3721
  144OSM    H8S15844   4.404   2.725   5.830 -0.2013  0.7918 -0.9443
  144OSM    H8T15845   4.544   2.841   5.823 -0.5562 -0.6705 -2.7620
  144OSM    C9S15846   4.367   2.940   5.797  0.3296  0.2052 -0.5457
  144OSM    H9S15847   4.406   3.036   5.838 -1.2972  1.5387 -1.9301
  144OSM    H9T15848   4.270   2.944   5.851  0.0266 -0.5573 -1.0184
  144OSM   C10S15849   4.360   2.947   5.645 -0.3288  0.3487  0.3864
  144OSM   H10S15850   4.339   2.844   5.608  2.8310 -0.5727  0.8184
  144OSM   H10T15851   4.463   2.973   5.612 -0.4547  1.7872  1.0574
  144OSM   C11S15852   4.271   3.050   5.580  0.2175 -0.5508  0.1572
  144OSM   H11S15853   4.288   3.147   5.633  0.1238 -1.4554  1.9052
  144OSM   H11T15854   4.163   3.028   5.597 -0.5158  2.9923  0.9117
  144OSM   C12S15855   4.286   3.053   5.434  0.4456 -0.0535  0.3747
  144OSM   H12S15856   4.265   2.955   5.384 -0.9072  0.8323 -0.8778
  144OSM   H12T15857   4.391   3.080   5.414  1.0873 -1.2385  1.9403
  144OSM   C13S15858   4.185   3.155   5.363 -0.3895  0.3947  0.4811
  144OSM   H13S15859   4.199   3.256   5.409 -1.9021  1.0267 -0.3462
  144OSM   H13T15860   4.081   3.118   5.380 -0.7550  2.0009  2.0328
  144OSM   C14S15861   4.207   3.184   5.218 -0.3018  0.4430  0.6681
  144OSM   H14S15862   4.200   3.093   5.155 -0.3761  1.0041 -0.1406
  144OSM   H14T15863   4.310   3.213   5.190 -0.7111 -1.2395 -3.1293
  144OSM   C15S15864   4.111   3.290   5.164  0.1174 -0.4993 -0.1584
  144OSM   H15S15865   4.166   3.343   5.084  2.1967 -3.2732 -0.7369
  144OSM   H15T15866   4.097   3.372   5.238 -1.2216 -1.1575  0.3632
  144OSM   C16S15867   3.988   3.227   5.108  0.3179  0.4280  0.6643
  144OSM   H16S15868   3.987   3.117   5.119 -1.5663  0.1211 -1.7800
  144OSM   H16T15869   3.987   3.249   4.999  0.1169 -1.9335  0.1383
  144OSM   C17S15870   3.852   3.280   5.157  0.2714 -0.0182  0.2500
  144OSM   H17S15871   3.869   3.389   5.151  1.8405  0.1335  4.4268
  144OSM   H17T15872   3.845   3.252   5.264  0.0017  0.2480  0.3031
  144OSM   C18S15873   3.727   3.234   5.080  0.1334 -0.6705  0.1671
  144OSM   H18S15874   3.741   3.269   4.975  1.2795 -0.1454  0.4808
  144OSM   H18T15875   3.644   3.296   5.118  1.6753  2.6797 -1.4807
  144OSM   H18U15876   3.702   3.127   5.097 -0.9125  0.0769  4.1307
  144OSM    C1F15877   4.191   2.992   6.533 -0.5944 -0.5424  0.3700
  144OSM     OF15878   4.113   2.934   6.598  0.1994  0.2938  0.2106
  144OSM    C2F15879   4.185   3.142   6.509 -0.1197 -0.4464  0.1041
  144OSM    H2F15880   4.250   3.166   6.422 -0.0407  0.7544  0.4675
  144OSM    H2G15881   4.234   3.185   6.599  0.3704 -0.2453 -0.2583
  144OSM    C3F15882   4.046   3.207   6.501  0.6036  0.2905  0.2802
  144OSM    H3F15883   4.050   3.312   6.464  1.9206 -0.9474 -3.6206
  144OSM    H3G15884   3.991   3.208   6.598 -1.5390  0.7543 -0.8623
  144OSM    C4F15885   3.956   3.147   6.392 -0.1497  0.4651  0.4035
  144OSM    H4F15886   3.870   3.211   6.361  0.6411  1.9703  1.2230
  144OSM    H4G15887   3.923   3.049   6.433  1.8672 -0.2275  0.4645
  144OSM    C5F15888   4.034   3.131   6.257 -0.0897  0.5969  0.5453
  144OSM    H5F15889   4.108   3.050   6.271 -0.4305  0.0161 -0.8653
  144OSM    H5G15890   4.093   3.220   6.225  1.1258  0.0635  1.2413
  144OSM    C6F15891   3.948   3.083   6.140  0.8172 -0.0442 -0.5417
  144OSM    H6F15892   3.880   3.166   6.109 -0.4057  0.0656  2.1487
  144OSM    H6G15893   3.878   3.003   6.172  0.1860  1.0674  0.9757
  144OSM    C7F15894   4.030   3.047   6.018 -0.0806 -0.1200 -0.2571
  144OSM    H7F15895   4.117   2.984   6.046  0.3873  1.2117  1.4729
  144OSM    H7G15896   4.075   3.139   5.974  0.0416  0.1799  0.4840
  144OSM    C8F15897   3.965   2.970   5.907  0.5537 -0.1363 -0.3405
  144OSM    H8F15898   3.920   2.873   5.938 -0.1073  0.8549  2.0424
  144OSM    H8G15899   4.036   2.940   5.828  2.8605 -0.1541  1.6340
  144OSM    C9F15900   3.856   3.059   5.853 -0.6744 -0.1113  0.6099
  144OSM    H9F15901   3.832   3.155   5.900  0.0343  0.2289  0.2945
  144OSM   C10F15902   3.783   3.024   5.743 -0.2420  0.9326  0.2376
  144OSM   H10F15903   3.720   3.100   5.696  0.0034 -0.0112 -1.7456
  144OSM   C11F15904   3.802   2.893   5.663  0.3703  0.6395 -0.2700
  144OSM   H11F15905   3.702   2.845   5.650 -0.6023  0.5609  5.2705
  144OSM   H11G15906   3.865   2.826   5.724 -1.7338 -0.0921  1.2221
  144OSM   C12F15907   3.872   2.915   5.533  0.6638  0.2839 -0.5141
  144OSM   H12F15908   3.977   2.949   5.546  0.7997  0.8834 -2.6885
  144OSM   H12G15909   3.825   3.003   5.483  0.2634 -1.0945 -2.6978
  144OSM   C13F15910   3.875   2.794   5.430  0.6218  0.0406 -0.3357
  144OSM   H13F15911   3.772   2.765   5.404  0.7047 -0.8832  0.3347
  144OSM   H13G15912   3.924   2.710   5.484 -1.4202 -0.9961 -0.0147
  144OSM   C14F15913   3.951   2.833   5.304  0.2285  0.7070 -0.6380
  144OSM   H14F15914   4.061   2.836   5.319  0.1123 -0.8403  0.7127
  144OSM   H14G15915   3.911   2.934   5.280 -0.7547  0.4133 -0.3059
  144OSM   C15F15916   3.929   2.738   5.187  0.2001 -0.0779  0.0197
  144OSM   H15F15917   3.822   2.716   5.170 -0.2556  0.8410  1.5548
  144OSM   H15G15918   3.980   2.641   5.208 -0.1675 -0.4168 -0.6295
  144OSM   C16F15919   3.973   2.780   5.053  0.0827  0.1353  0.5960
  144OSM   H16F15920   3.904   2.862   5.023  1.1680  0.3639 -1.4206
  144OSM   H16G15921   3.955   2.706   4.972  0.1139  1.2403 -0.4412
  144OSM   C17F15922   4.112   2.838   5.047  0.0403  0.6247 -0.7597
  144OSM   H17F15923   4.182   2.752   5.057  1.2598  1.8252  2.2757
  144OSM   H17G15924   4.125   2.908   5.132 -2.3854  1.6623 -1.1580
  144OSM   C18F15925   4.138   2.917   4.919  0.0560  0.7797 -1.1966
  144OSM   H18F15926   4.107   2.849   4.837 -1.2852  0.4107 -0.4075
  144OSM   H18G15927   4.246   2.944   4.912 -0.0854  1.1511 -2.1083
  144OSM   H18H15928   4.069   3.004   4.911 -1.0503 -0.0128 -0.5360
  145OSM      N15929   4.339   4.421   6.872 -0.0708 -0.2896  0.3213
  145OSM    C1515930   4.284   4.298   6.939 -0.2617 -0.1111 -0.1443
  145OSM   H15A15931   4.184   4.273   6.907 -0.4647 -1.0376  1.1413
  145OSM   H15B15932   4.278   4.312   7.046 -0.1207 -0.9524 -0.0273
  145OSM   H15C15933   4.345   4.212   6.915  0.8118  0.2570  1.1120
  145OSM    C1415934   4.260   4.536   6.935 -0.3590  0.6385  0.2821
  145OSM   H14A15935   4.286   4.560   7.037  0.6294 -2.3709  0.8474
  145OSM   H14B15936   4.157   4.504   6.925 -0.5673  1.3880 -0.0800
  145OSM   H14C15937   4.250   4.628   6.879 -0.0037 -0.0666 -0.9986
  145OSM    C1315938   4.480   4.435   6.912 -0.1171 -0.0725  0.2690
  145OSM   H13A15939   4.521   4.524   6.867 -1.7663  0.4551 -0.2292
  145OSM   H13B15940   4.545   4.358   6.874 -0.4968  0.8600 -2.5233
  145OSM   H13C15941   4.481   4.440   7.020 -2.0807  1.6570  0.2749
  145OSM    C1215942   4.328   4.410   6.723 -0.3274  0.0802 -0.0048
  145OSM   H12A15943   4.381   4.497   6.686 -1.7879  1.5746  1.2471
  145OSM   H12B15944   4.226   4.420   6.692 -0.1452  2.7847  0.0285
  145OSM    C1115945   4.405   4.286   6.655 -0.0457 -0.4963 -0.7496
  145OSM   H11A15946   4.507   4.268   6.695  0.2472  0.5325 -1.0093
  145OSM   H11B15947   4.409   4.310   6.546  0.4509 -0.6895 -0.7771
  145OSM      P15948   4.215   4.124   6.576 -0.1134 -0.3758  0.3667
  145OSM    O1315949   4.169   3.987   6.609  0.1513 -0.6579 -0.2204
  145OSM    O1415950   4.125   4.242   6.590  0.1032  0.4086 -0.0384
  145OSM    O1115951   4.270   4.140   6.429 -0.4685  0.3612 -0.1959
  145OSM    O1215952   4.336   4.163   6.663  0.1183 -0.0804 -0.0507
  145OSM    C1S15953   4.331   4.033   6.362 -0.2253  0.3792 -0.4780
  145OSM    H1S15954   4.307   3.931   6.399  0.2939 -0.0030 -1.1743
  145OSM    H1T15955   4.441   4.039   6.373  0.0548 -4.6280  1.7231
  145OSM     NF15956   4.376   3.924   6.147 -0.7113  0.3861 -0.0827
  145OSM    HNF15957   4.470   3.914   6.116 -0.9261 -0.4045 -0.4985
  145OSM    C2S15958   4.325   4.046   6.207 -0.0667 -0.3980 -0.1501
  145OSM    H2S15959   4.215   4.054   6.190  0.1024  1.7380 -0.5226
  145OSM    C3S15960   4.392   4.174   6.158 -0.2008  0.3059  0.3340
  145OSM    H3S15961   4.496   4.148   6.127 -0.1804  2.0617 -1.2755
  145OSM     O315962   4.432   4.277   6.244  0.0775  0.2373 -0.1357
  145OSM    HO315963   4.416   4.246   6.333 -1.4864 -1.8136 -1.0682
  145OSM    C4S15964   4.320   4.221   6.034 -0.2199 -0.9148  0.4480
  145OSM    H4S15965   4.368   4.176   5.946 -2.6582  0.1253 -1.5493
  145OSM    C5S15966   4.205   4.299   6.022 -0.5202  0.0469 -0.3553
  145OSM    H5S15967   4.150   4.329   6.112 -2.8730 -0.8969 -1.3907
  145OSM    C6S15968   4.146   4.342   5.897 -0.2899 -0.0500  0.5797
  145OSM    H6S15969   4.088   4.436   5.908  0.4178  0.3824  0.6041
  145OSM    H6T15970   4.083   4.261   5.852  0.3109 -0.4771  0.4959
  145OSM    C7S15971   4.246   4.358   5.782 -0.4789 -0.0086 -0.2682
  145OSM    H7S15972   4.294   4.260   5.762 -1.0951 -0.3156 -0.2703
  145OSM    H7T15973   4.333   4.422   5.810  0.2042 -1.0169 -0.0192
  145OSM    C8S15974   4.186   4.413   5.650 -0.5456  0.3096 -0.1686
  145OSM    H8S15975   4.184   4.524   5.659 -0.9439  0.2210  0.9527
  145OSM    H8T15976   4.078   4.384   5.647 -0.6244  0.3917  1.2572
  145OSM    C9S15977   4.267   4.365   5.529 -0.0510 -0.3443 -0.2205
  145OSM    H9S15978   4.257   4.257   5.505 -1.4451  0.5194 -4.4387
  145OSM    H9T15979   4.371   4.398   5.546  0.8048 -1.6270 -2.4997
  145OSM   C10S15980   4.220   4.451   5.417 -0.5008  0.8715  0.4444
  145OSM   H10S15981   4.206   4.554   5.456 -2.9098  1.1302 -0.9075
  145OSM   H10T15982   4.119   4.419   5.382 -0.5924  0.6170  0.9371
  145OSM   C11S15983   4.312   4.440   5.297 -0.1060 -0.7313  0.0609
  145OSM   H11S15984   4.313   4.341   5.247  0.3278 -0.8779  0.3497
  145OSM   H11T15985   4.413   4.466   5.337 -0.8362  1.5167  0.5908
  145OSM   C12S15986   4.283   4.550   5.186  0.2000 -0.2157 -0.4592
  145OSM   H12S15987   4.289   4.656   5.220  1.5392 -0.6117  0.6217
  145OSM   H12T15988   4.189   4.529   5.132  1.6724 -0.5183 -3.0397
  145OSM   C13S15989   4.386   4.545   5.075  0.0871  0.2157  0.2166
  145OSM   H13S15990   4.485   4.576   5.114  1.0671 -0.8600 -1.2972
  145OSM   H13T15991   4.349   4.623   5.005 -1.5601 -2.5130 -2.2408
  145OSM   C14S15992   4.400   4.416   4.996 -0.5262  0.4824  1.1714
  145OSM   H14S15993   4.302   4.382   4.956  0.3454 -0.4777 -0.2336
  145OSM   H14T15994   4.456   4.334   5.046  2.3633  2.0239  0.6278
  145OSM   C15S15995   4.484   4.425   4.871 -0.0699 -0.4466 -0.5990
  145OSM   H15S15996   4.535   4.326   4.869 -0.5789 -0.9745  3.9492
  145OSM   H15T15997   4.558   4.502   4.902 -2.5615  2.2355 -0.8784
  145OSM   C16S15998   4.425   4.476   4.746 -0.3012  0.2226 -0.2181
  145OSM   H16S15999   4.354   4.558   4.773 -2.1869 -1.0458 -1.1243
  145OSM   H16T16000   4.380   4.399   4.680  1.0019  0.2816 -1.2258
  145OSM   C17S16001   4.537   4.537   4.661 -0.6840 -1.0858 -0.3513
  145OSM   H17S16002   4.604   4.461   4.615  2.5161  1.1497  0.2846
  145OSM   H17T16003   4.596   4.591   4.738 -2.6752  0.9564 -0.1673
  145OSM   C18S16004   4.494   4.624   4.550  0.1649  0.0657 -0.3046
  145OSM   H18S16005   4.418   4.699   4.578  0.6543  0.8504 -1.0313
  145OSM   H18T16006   4.459   4.550   4.474 -0.8584 -1.4315  1.5435
  145OSM   H18U16007   4.587   4.671   4.510 -0.9899  0.1930 -3.0582
  145OSM    C1F16008   4.307   3.809   6.176 -0.7078 -0.1473  0.4113
  145OSM     OF16009   4.186   3.823   6.196  0.0299 -0.2892  0.2351
  145OSM    C2F16010   4.374   3.676   6.170 -0.0182  0.1585  0.5275
  145OSM    H2F16011   4.389   3.629   6.269  1.5910  1.8116  1.1208
  145OSM    H2G16012   4.469   3.692   6.115 -0.9370  0.6462 -1.0008
  145OSM    C3F16013   4.284   3.580   6.100 -0.0175  0.8657 -0.2121
  145OSM    H3F16014   4.226   3.635   6.023  2.9393  0.8125 -2.6373
  145OSM    H3G16015   4.212   3.531   6.169 -0.1750 -1.0625 -1.6631
  145OSM    C4F16016   4.354   3.459   6.032 -0.3934  0.9160 -0.2538
  145OSM    H4F16017   4.283   3.373   6.033  0.5466  0.1219 -0.0343
  145OSM    H4G16018   4.438   3.443   6.104 -0.4940 -0.7311 -0.4532
  145OSM    C5F16019   4.406   3.491   5.892  0.2751  0.1293 -0.1069
  145OSM    H5F16020   4.495   3.557   5.904  0.3438 -0.3237  2.1119
  145OSM    H5G16021   4.338   3.553   5.829  0.9780  0.6113 -0.4193
  145OSM    C6F16022   4.431   3.359   5.812 -0.3994  0.1946  0.1545
  145OSM    H6F16023   4.348   3.341   5.741 -0.4113  0.4766  0.0935
  145OSM    H6G16024   4.444   3.277   5.885  0.2163  0.9820  0.9609
  145OSM    C7F16025   4.563   3.367   5.736  0.2535 -0.1271  0.4759
  145OSM    H7F16026   4.636   3.340   5.816  1.6519 -0.0951 -0.7398
  145OSM    H7G16027   4.568   3.474   5.708 -0.7390  0.0701  0.9981
  145OSM    C8F16028   4.582   3.277   5.611  0.5426 -0.6659 -0.3235
  145OSM    H8F16029   4.502   3.299   5.537  2.1085  1.2036 -1.5219
  145OSM    H8G16030   4.572   3.173   5.649  0.2517 -1.5147 -2.5796
  145OSM    C9F16031   4.713   3.299   5.548 -0.5488 -0.6643  0.0947
  145OSM    H9F16032   4.792   3.310   5.624 -0.9843  1.6818  0.2832
  145OSM   C10F16033   4.730   3.331   5.419 -0.1099  0.1487 -0.2481
  145OSM   H10F16034   4.835   3.344   5.388  0.0940 -1.3369 -0.2881
  145OSM   C11F16035   4.633   3.315   5.304 -0.1461 -0.3773 -0.2148
  145OSM   H11F16036   4.603   3.408   5.251  0.5132 -1.2006 -2.1077
  145OSM   H11G16037   4.537   3.260   5.321 -0.0933 -0.7393 -1.0430
  145OSM   C12F16038   4.710   3.234   5.194  0.5433 -0.6632 -0.8305
  145OSM   H12F16039   4.794   3.295   5.155 -0.7572  0.0444 -2.6661
  145OSM   H12G16040   4.642   3.214   5.108  0.1625 -0.8764 -0.4804
  145OSM   C13F16041   4.758   3.097   5.247 -0.3352  0.3971 -0.7658
  145OSM   H13F16042   4.686   3.048   5.317  2.0608  0.1959  1.7248
  145OSM   H13G16043   4.847   3.114   5.310 -1.8561  1.8080  1.1447
  145OSM   C14F16044   4.785   2.994   5.134 -0.2486 -0.5484 -0.5679
  145OSM   H14F16045   4.702   2.993   5.060 -0.8182  0.8589  0.0159
  145OSM   H14G16046   4.804   2.894   5.179 -0.2828  0.0472  0.8286
  145OSM   C15F16047   4.908   3.043   5.056 -0.8325  0.5028  0.1261
  145OSM   H15F16048   4.989   3.064   5.129 -0.1383 -2.1752  0.2016
  145OSM   H15G16049   4.868   3.137   5.011  0.4159  2.3509  2.6280
  145OSM   C16F16050   4.966   2.938   4.961 -0.1109 -0.3568  0.0957
  145OSM   H16F16051   4.992   2.856   5.031  1.9515  0.8665  0.8621
  145OSM   H16G16052   5.058   2.983   4.918 -2.3726  2.2876 -2.3746
  145OSM   C17F16053   4.873   2.895   4.844 -0.3753  0.2410  0.0937
  145OSM   H17F16054   4.785   2.839   4.883 -2.7657  3.2517 -0.6459
  145OSM   H17G16055   4.932   2.824   4.781  0.0078  2.8026 -2.6419
  145OSM   C18F16056   4.833   3.000   4.752 -0.4048  0.5399  0.6864
  145OSM   H18F16057   4.801   2.957   4.655  0.3540  1.3144  0.0819
  145OSM   H18G16058   4.924   3.058   4.724 -0.4691  2.1915  3.4792
  145OSM   H18H16059   4.754   3.068   4.790 -0.7044  0.6814 -0.1772
  146OSM      N16060   3.915   5.918   6.961 -0.4172 -0.3429 -0.7253
  146OSM    C1516061   3.999   5.806   6.901  0.1528 -0.0975 -0.2340
  146OSM   H15A16062   3.933   5.739   6.847  0.5740 -0.3974 -0.3792
  146OSM   H15B16063   4.052   5.752   6.977 -1.3867  0.4645  1.3001
  146OSM   H15C16064   4.070   5.834   6.824  0.7528 -3.2435 -0.9492
  146OSM    C1416065   3.825   5.865   7.067 -0.4685  0.5273  0.3999
  146OSM   H14A16066   3.766   5.937   7.122 -0.9105  0.0593  0.5427
  146OSM   H14B16067   3.877   5.806   7.142  0.9073  0.7180 -0.3657
  146OSM   H14C16068   3.773   5.785   7.017  0.0518  1.4938 -1.7653
  146OSM    C1316069   4.013   6.006   7.035  0.6904 -0.2396  0.5931
  146OSM   H13A16070   3.969   6.094   7.078 -1.4088 -1.3373  0.8184
  146OSM   H13B16071   4.079   6.046   6.959  0.1980  0.4910  0.5426
  146OSM   H13C16072   4.081   5.948   7.096  0.1570 -0.4028  1.0389
  146OSM    C1216073   3.843   5.997   6.848  0.3595  0.0191  0.6660
  146OSM   H12A16074   3.783   6.073   6.897 -0.5906  1.5091 -2.4955
  146OSM   H12B16075   3.774   5.932   6.796  0.0483  0.6651  0.2580
  146OSM    C1116076   3.926   6.083   6.748 -0.4156 -0.1346  0.5828
  146OSM   H11A16077   3.845   6.128   6.687 -1.9159 -0.2072  2.4386
  146OSM   H11B16078   3.983   6.007   6.689 -1.4655 -1.6880  1.5113
  146OSM      P16079   3.949   6.333   6.807  0.4042  0.2912 -0.0390
  146OSM    O1316080   3.824   6.338   6.884  0.1993  0.5804  0.3671
  146OSM    O1416081   4.061   6.427   6.848 -0.0965 -0.1858 -0.1663
  146OSM    O1116082   3.912   6.358   6.658 -0.0738 -0.0993  0.6201
  146OSM    O1216083   4.001   6.186   6.814  0.5852 -0.0680 -0.2150
  146OSM    C1S16084   4.020   6.332   6.572  0.1394  0.5317  0.7193
  146OSM    H1S16085   4.024   6.225   6.545 -0.2162  0.9980 -1.3611
  146OSM    H1T16086   4.124   6.366   6.593  0.3362  1.0655 -0.9165
  146OSM     NF16087   4.086   6.362   6.332  0.1314  0.4133 -0.1799
  146OSM    HNF16088   4.171   6.412   6.314 -0.0756  0.7769 -0.1455
  146OSM    C2S16089   3.991   6.399   6.430  0.7245 -0.0774  0.2652
  146OSM    H2S16090   3.889   6.366   6.401  0.2163  1.7261 -0.1108
  146OSM    C3S16091   3.967   6.556   6.450  0.2384  0.3996 -0.3729
  146OSM    H3S16092   4.065   6.598   6.481  0.5573 -1.2886  1.0248
  146OSM     O316093   3.866   6.592   6.543 -0.3587  0.0397  0.1407
  146OSM    HO316094   3.863   6.520   6.606 -0.4377  1.5266  1.9360
  146OSM    C4S16095   3.943   6.620   6.315  0.2346  0.4173  0.2796
  146OSM    H4S16096   4.032   6.665   6.267  0.8180  0.1398  1.0910
  146OSM    C5S16097   3.826   6.649   6.250 -0.0625 -0.4868  0.0993
  146OSM    H5S16098   3.730   6.621   6.294 -0.4696  0.2188 -0.3158
  146OSM    C6S16099   3.808   6.718   6.117 -0.0310  0.2179  0.0500
  146OSM    H6S16100   3.901   6.699   6.059 -0.4085  0.4731 -0.6419
  146OSM    H6T16101   3.806   6.826   6.145  0.0582  0.0570  0.7019
  146OSM    C7S16102   3.689   6.685   6.030 -0.0592 -0.7331  0.0261
  146OSM    H7S16103   3.600   6.735   6.073 -1.2852 -0.4555 -2.6714
  146OSM    H7T16104   3.672   6.576   6.034 -0.5699 -0.6744 -0.4802
  146OSM    C8S16105   3.712   6.732   5.890  0.3476  0.3405 -0.1617
  146OSM    H8S16106   3.781   6.660   5.842 -3.0454 -0.8287 -3.9179
  146OSM    H8T16107   3.758   6.833   5.884 -0.8362  0.8902 -0.4464
  146OSM    C9S16108   3.593   6.719   5.795  0.5364 -0.4377  0.4074
  146OSM    H9S16109   3.524   6.805   5.806  0.8771  0.5177 -3.5457
  146OSM    H9T16110   3.545   6.621   5.817  0.0858 -0.8263 -2.0050
  146OSM   C10S16111   3.641   6.725   5.648  0.3536  0.1563  0.2375
  146OSM   H10S16112   3.733   6.662   5.650  1.4979  1.7627  1.4336
  146OSM   H10T16113   3.673   6.829   5.627  1.9842 -0.1708  0.9195
  146OSM   C11S16114   3.538   6.699   5.536  0.0127 -0.6620  0.6776
  146OSM   H11S16115   3.459   6.774   5.556 -1.1306 -1.8051  0.5174
  146OSM   H11T16116   3.498   6.599   5.562 -0.7670 -0.6776 -0.5130
  146OSM   C12S16117   3.597   6.699   5.398 -0.7581  0.3887  0.1504
  146OSM   H12S16118   3.652   6.603   5.393  0.0252  0.8137  0.3934
  146OSM   H12T16119   3.671   6.780   5.380  0.1601 -0.6701 -1.0051
  146OSM   C13S16120   3.494   6.701   5.291  0.4643  0.4983  0.2191
  146OSM   H13S16121   3.425   6.788   5.296  0.1564  0.2517  0.2892
  146OSM   H13T16122   3.424   6.614   5.298 -0.3512  0.9598 -1.5216
  146OSM   C14S16123   3.557   6.692   5.144  0.0155  0.1795 -0.2612
  146OSM   H14S16124   3.613   6.596   5.139 -0.2075 -0.0487  1.3150
  146OSM   H14T16125   3.636   6.770   5.144  2.6184 -2.2882  0.0276
  146OSM   C15S16126   3.459   6.702   5.031  0.6107 -0.6677 -0.0779
  146OSM   H15S16127   3.388   6.782   5.061  0.8078 -1.1135  1.7000
  146OSM   H15T16128   3.400   6.608   5.035  1.1633 -0.9816  1.1539
  146OSM   C16S16129   3.517   6.752   4.902 -0.4017  0.4512 -0.3609
  146OSM   H16S16130   3.588   6.678   4.859 -1.9444 -3.1248  2.6802
  146OSM   H16T16131   3.576   6.846   4.907  0.4075  0.0019 -1.2200
  146OSM   C17S16132   3.418   6.785   4.794  0.2475  0.1944 -0.1960
  146OSM   H17S16133   3.350   6.699   4.774  0.7810 -0.0440 -1.0282
  146OSM   H17T16134   3.478   6.798   4.701  1.5744 -2.5018  0.1929
  146OSM   C18S16135   3.329   6.902   4.831 -0.7630  0.1888 -0.4688
  146OSM   H18S16136   3.393   6.990   4.853 -0.1287 -0.1927 -0.7876
  146OSM   H18T16137   3.263   6.876   4.918 -0.5627 -2.3181 -0.9994
  146OSM   H18U16138   3.252   6.921   4.753  0.0458  1.0033 -1.0913
  146OSM    C1F16139   4.093   6.246   6.276 -0.0354 -0.0523 -0.4886
  146OSM     OF16140   4.015   6.156   6.312 -0.0237 -0.2473  0.5245
  146OSM    C2F16141   4.208   6.219   6.178 -0.8770  0.1474  0.5137
  146OSM    H2F16142   4.268   6.134   6.216 -0.3600  0.4381  0.3714
  146OSM    H2G16143   4.251   6.320   6.163  0.4029 -0.1704  1.7820
  146OSM    C3F16144   4.160   6.162   6.036  0.3909  0.0228 -0.4176
  146OSM    H3F16145   4.117   6.060   6.037  0.1101  0.0779 -2.5270
  146OSM    H3G16146   4.247   6.140   5.971 -0.6537 -0.0212 -1.8408
  146OSM    C4F16147   4.053   6.240   5.966  0.5844 -0.8322  0.1361
  146OSM    H4F16148   3.973   6.270   6.037 -0.0210  0.2043 -0.9519
  146OSM    H4G16149   4.016   6.173   5.885  0.3724 -1.7005  0.9309
  146OSM    C5F16150   4.107   6.362   5.897 -0.8094  0.2685  0.5111
  146OSM    H5F16151   4.195   6.336   5.834  0.6102  3.0577  1.1895
  146OSM    H5G16152   4.156   6.415   5.981 -0.3050 -0.2108  0.5234
  146OSM    C6F16153   4.010   6.463   5.826 -0.3214 -0.4140 -0.6535
  146OSM    H6F16154   4.041   6.558   5.875  0.6138 -1.2562  0.4610
  146OSM    H6G16155   3.905   6.449   5.859  0.4192 -1.2494  1.6131
  146OSM    C7F16156   4.025   6.453   5.676  0.7529  0.0514  0.4885
  146OSM    H7F16157   4.128   6.441   5.637  0.5981  1.6464 -0.4902
  146OSM    H7G16158   3.975   6.547   5.643  2.2590  1.3338  1.7169
  146OSM    C8F16159   3.963   6.321   5.625  0.2591 -0.0932 -0.1451
  146OSM    H8F16160   4.028   6.234   5.647  0.2228 -0.0974 -0.0565
  146OSM    H8G16161   3.969   6.329   5.514  1.9903 -0.4236 -0.0943
  146OSM    C9F16162   3.817   6.305   5.654 -0.3611  0.1928  0.1728
  146OSM    H9F16163   3.800   6.293   5.762 -3.3041 -1.4408 -0.3658
  146OSM   C10F16164   3.711   6.302   5.578  0.3199  0.9102  0.6020
  146OSM   H10F16165   3.615   6.284   5.629 -0.2686  0.1710 -0.7189
  146OSM   C11F16166   3.701   6.309   5.427  0.2797 -0.5095  0.8441
  146OSM   H11F16167   3.794   6.345   5.378  0.0954  0.3787  1.1153
  146OSM   H11G16168   3.621   6.380   5.398  0.4916 -0.3122  0.7347
  146OSM   C12F16169   3.677   6.176   5.363 -0.2609 -0.4967  1.1904
  146OSM   H12F16170   3.578   6.135   5.394 -1.3733  0.1790 -1.2005
  146OSM   H12G16171   3.760   6.107   5.388  0.2120 -0.6508 -0.6940
  146OSM   C13F16172   3.675   6.202   5.213 -0.0733  0.1049  0.5176
  146OSM   H13F16173   3.689   6.102   5.166  0.4407  0.3420  0.1550
  146OSM   H13G16174   3.767   6.257   5.182  1.8896 -3.1551  0.0735
  146OSM   C14F16175   3.537   6.242   5.173  0.3351  0.2738 -0.3098
  146OSM   H14F16176   3.461   6.186   5.231 -0.0600  1.1107 -0.0144
  146OSM   H14G16177   3.514   6.348   5.193 -2.0103 -0.3054  0.4062
  146OSM   C15F16178   3.495   6.202   5.030 -0.2991 -0.3093 -0.0044
  146OSM   H15F16179   3.385   6.215   5.016 -0.2010 -1.3317 -2.0061
  146OSM   H15G16180   3.524   6.097   5.008  0.0421 -0.8220  2.5072
  146OSM   C16F16181   3.543   6.305   4.925  0.3097 -0.4622 -0.3396
  146OSM   H16F16182   3.653   6.295   4.918  0.3058 -1.4613  0.6145
  146OSM   H16G16183   3.532   6.409   4.961 -1.9374 -0.3606 -1.2061
  146OSM   C17F16184   3.478   6.299   4.788 -0.0572  0.0343 -0.9965
  146OSM   H17F16185   3.368   6.310   4.800  0.0528 -1.4417  2.5049
  146OSM   H17G16186   3.490   6.202   4.736 -0.9737 -0.7396  0.1656
  146OSM   C18F16187   3.516   6.405   4.686 -0.7627  0.6496  0.3133
  146OSM   H18F16188   3.471   6.501   4.716  0.8621  1.9900 -1.2898
  146OSM   H18G16189   3.464   6.381   4.591 -0.4451  4.8788 -1.1439
  146OSM   H18H16190   3.626   6.401   4.666 -1.1608  1.2615 -2.4604
  147OSM      N16191   0.735   6.815   2.176 -0.4210  0.5910 -0.1952
  147OSM    C1516192   0.627   6.886   2.111 -0.3255 -0.3142  0.8118
  147OSM   H15A16193   0.562   6.826   2.049 -1.0259  1.7444 -0.5623
  147OSM   H15B16194   0.675   6.971   2.065  1.0259 -0.3327  2.1314
  147OSM   H15C16195   0.560   6.934   2.181 -0.0836 -0.5914  1.2309
  147OSM    C1416196   0.791   6.730   2.068 -0.6567 -0.7674  0.0588
  147OSM   H14A16197   0.705   6.681   2.025 -1.0461  0.9351 -1.2020
  147OSM   H14B16198   0.854   6.652   2.109 -2.7883 -2.8468 -0.4371
  147OSM   H14C16199   0.852   6.792   2.004 -1.6733  1.8496  1.4759
  147OSM    C1316200   0.843   6.912   2.225 -1.0679 -0.0181 -0.0504
  147OSM   H13A16201   0.929   6.850   2.248  1.0708  2.4753 -0.7229
  147OSM   H13B16202   0.808   6.970   2.309  0.1493  1.0196 -0.2315
  147OSM   H13C16203   0.862   6.984   2.146  1.5825  0.6673  1.0895
  147OSM    C1216204   0.681   6.732   2.280  0.2974 -0.6481 -0.9589
  147OSM   H12A16205   0.609   6.669   2.231 -3.9104  2.0396  1.1750
  147OSM   H12B16206   0.618   6.803   2.331  1.9877  0.9844 -1.0529
  147OSM    C1116207   0.776   6.657   2.374  0.3061 -0.2595  1.2790
  147OSM   H11A16208   0.712   6.604   2.448 -1.0995 -0.4995 -0.0410
  147OSM   H11B16209   0.846   6.723   2.430  0.1177  1.4417 -0.3874
  147OSM      P16210   0.823   6.431   2.276 -0.2177 -0.4649  0.0103
  147OSM    O1316211   0.678   6.422   2.259  0.2699 -0.4035  0.8923
  147OSM    O1416212   0.902   6.387   2.163  0.4108  0.0956 -0.7580
  147OSM    O1116213   0.874   6.351   2.406  0.4273  0.2326 -0.6827
  147OSM    O1216214   0.862   6.578   2.303 -0.0408  0.5663 -0.4612
  147OSM    C1S16215   1.014   6.339   2.444  0.0949 -0.3074  0.6041
  147OSM    H1S16216   1.070   6.412   2.381  1.8663 -0.3848  2.0114
  147OSM    H1T16217   1.048   6.234   2.429  0.0118 -0.1957 -0.4655
  147OSM     NF16218   1.189   6.371   2.618  0.3011 -0.6797  0.5966
  147OSM    HNF16219   1.224   6.294   2.670 -2.6984 -1.4649  1.6570
  147OSM    C2S16220   1.039   6.370   2.598 -0.5970  0.6282 -0.7877
  147OSM    H2S16221   1.003   6.474   2.612 -1.7612  0.0439  0.8912
  147OSM    C3S16222   0.965   6.271   2.684  0.5771  0.0316 -1.1624
  147OSM    H3S16223   1.003   6.172   2.650 -0.5703 -0.6356 -0.5761
  147OSM     O316224   0.826   6.262   2.664 -0.3541 -0.2321 -0.8030
  147OSM    HO316225   0.816   6.301   2.577 -1.1286  1.7657  0.1222
  147OSM    C4S16226   1.000   6.306   2.831 -0.6960  0.3590  0.4600
  147OSM    H4S16227   1.092   6.259   2.869  2.3268  1.3356 -4.7787
  147OSM    C5S16228   0.938   6.392   2.910 -0.1680 -0.1811 -0.4866
  147OSM    H5S16229   0.851   6.448   2.873  0.5926 -0.8934 -3.6428
  147OSM    C6S16230   0.978   6.418   3.049  0.0594 -0.4186 -0.0020
  147OSM    H6S16231   0.968   6.527   3.068 -1.4813 -0.1902 -1.8521
  147OSM    H6T16232   1.085   6.398   3.070 -0.1404 -0.3181  1.1987
  147OSM    C7S16233   0.895   6.353   3.166  0.1889  0.1872  0.1884
  147OSM    H7S16234   0.915   6.244   3.159 -0.9437 -0.0077 -0.3247
  147OSM    H7T16235   0.784   6.365   3.167  0.0153 -1.1982 -0.4795
  147OSM    C8S16236   0.946   6.386   3.303  0.2361 -0.2130 -0.1834
  147OSM    H8S16237   0.920   6.491   3.328  2.8224  0.7771 -1.2731
  147OSM    H8T16238   1.057   6.382   3.302  0.1964 -1.8402 -0.5214
  147OSM    C9S16239   0.901   6.298   3.421 -0.0790  0.1513 -0.3716
  147OSM    H9S16240   0.964   6.208   3.431  0.1128  0.2864 -0.3531
  147OSM    H9T16241   0.796   6.263   3.407  0.2787 -0.9931 -0.2725
  147OSM   C10S16242   0.920   6.374   3.557 -0.1060 -0.0316  0.4168
  147OSM   H10S16243   0.849   6.458   3.569 -1.3342 -0.6217 -2.0503
  147OSM   H10T16244   1.022   6.416   3.542 -0.8460  1.6238 -0.2095
  147OSM   C11S16245   0.903   6.288   3.685  0.0240  0.1206  0.5020
  147OSM   H11S16246   0.948   6.188   3.669 -0.5088 -0.1505  0.6649
  147OSM   H11T16247   0.796   6.277   3.715  0.3627 -0.1137  1.6857
  147OSM   C12S16248   0.972   6.347   3.808  0.3623 -1.0621 -0.4676
  147OSM   H12S16249   0.949   6.456   3.797  1.8983 -0.7959 -1.4398
  147OSM   H12T16250   1.082   6.347   3.797  0.6693 -3.6524  1.7358
  147OSM   C13S16251   0.927   6.296   3.945  0.1195  0.5611  0.2960
  147OSM   H13S16252   0.911   6.187   3.928 -0.5312  0.8168 -0.8317
  147OSM   H13T16253   0.834   6.348   3.975 -0.1194  0.4596 -0.2682
  147OSM   C14S16254   1.036   6.303   4.047 -0.4840  0.0209 -0.0082
  147OSM   H14S16255   1.067   6.410   4.049 -1.3616  0.4960 -3.8027
  147OSM   H14T16256   1.126   6.243   4.020 -0.5890  0.5494 -1.6971
  147OSM   C15S16257   0.977   6.250   4.178  0.3880 -0.0239  0.0013
  147OSM   H15S16258   0.968   6.140   4.172 -0.0769  0.0316 -0.3841
  147OSM   H15T16259   0.875   6.291   4.197 -0.3572 -1.2156 -1.3261
  147OSM   C16S16260   1.069   6.278   4.297  0.0329  0.0580  0.5068
  147OSM   H16S16261   1.025   6.248   4.395 -0.5314  1.3995  0.6853
  147OSM   H16T16262   1.082   6.388   4.304 -1.2075  0.4293 -1.9215
  147OSM   C17S16263   1.207   6.216   4.276  0.0765  0.2606 -0.1284
  147OSM   H17S16264   1.243   6.264   4.182  0.1416  0.4610 -0.0011
  147OSM   H17T16265   1.198   6.106   4.263  1.8653  0.1706 -0.8902
  147OSM   C18S16266   1.315   6.242   4.383  0.5553  0.1535  0.0329
  147OSM   H18S16267   1.411   6.196   4.351  0.9614  2.0193 -1.6180
  147OSM   H18T16268   1.280   6.199   4.480 -3.8975 -0.3837 -1.5807
  147OSM   H18U16269   1.343   6.348   4.399  0.6487  0.1463 -0.0866
  147OSM    C1F16270   1.266   6.468   2.570 -0.7178  0.1543  0.3908
  147OSM     OF16271   1.224   6.573   2.519  0.0096 -0.0325 -0.4261
  147OSM    C2F16272   1.414   6.445   2.590  0.9894 -0.5135  0.1649
  147OSM    H2F16273   1.456   6.411   2.493 -0.9145 -1.7897 -0.2831
  147OSM    H2G16274   1.434   6.368   2.667 -0.8645  0.1903  1.4224
  147OSM    C3F16275   1.496   6.571   2.646 -0.3838  0.1931  0.1422
  147OSM    H3F16276   1.505   6.653   2.572  3.1135 -0.4444 -0.2894
  147OSM    H3G16277   1.594   6.529   2.674 -0.3774 -0.0653 -0.2475
  147OSM    C4F16278   1.424   6.636   2.768  0.3610  0.3550  0.2276
  147OSM    H4F16279   1.314   6.649   2.758  0.4095  1.6286  1.1126
  147OSM    H4G16280   1.471   6.735   2.790  0.8937  0.3596 -0.8433
  147OSM    C5F16281   1.442   6.556   2.903 -0.0479 -0.1383 -0.3727
  147OSM    H5F16282   1.547   6.520   2.907  0.7827  2.2063  2.6015
  147OSM    H5G16283   1.370   6.472   2.899 -2.3474  1.7045  0.3376
  147OSM    C6F16284   1.419   6.648   3.027  0.4449  0.0774 -0.2791
  147OSM    H6F16285   1.314   6.683   3.028  0.8660  1.3555  0.1525
  147OSM    H6G16286   1.481   6.739   3.023  1.8791 -0.8473  0.0278
  147OSM    C7F16287   1.450   6.562   3.154  0.1183  0.3001  0.5840
  147OSM    H7F16288   1.552   6.519   3.160 -0.8681 -2.0344  2.3539
  147OSM    H7G16289   1.392   6.467   3.150  0.7079 -0.0433 -2.8482
  147OSM    C8F16290   1.432   6.640   3.280  0.3103 -0.6300  0.0249
  147OSM    H8F16291   1.484   6.738   3.268 -0.6892  0.2656  2.3291
  147OSM    H8G16292   1.499   6.597   3.358  2.1237 -1.0754 -1.7110
  147OSM    C9F16293   1.286   6.675   3.323  0.3341 -0.2753  0.9747
  147OSM    H9F16294   1.216   6.696   3.240  1.6320 -1.1442 -0.3815
  147OSM   C10F16295   1.230   6.666   3.448 -0.0824  1.0110  0.1835
  147OSM   H10F16296   1.125   6.689   3.470 -0.4950 -0.6653  0.0803
  147OSM   C11F16297   1.309   6.631   3.570  0.1271  1.2568 -0.3181
  147OSM   H11F16298   1.393   6.562   3.549  1.5155  2.7736  0.0706
  147OSM   H11G16299   1.263   6.562   3.643 -3.2140  0.3722 -3.0011
  147OSM   C12F16300   1.341   6.757   3.655 -0.4554 -0.2531 -0.4274
  147OSM   H12F16301   1.411   6.828   3.607  1.6822 -0.5057  2.0931
  147OSM   H12G16302   1.398   6.711   3.739  2.0148 -1.8186 -2.7694
  147OSM   C13F16303   1.215   6.819   3.704 -0.5315  0.5270 -0.5449
  147OSM   H13F16304   1.146   6.734   3.721  0.2468 -0.0393 -0.1177
  147OSM   H13G16305   1.164   6.890   3.635 -1.3793  0.4719  0.0112
  147OSM   C14F16306   1.224   6.902   3.835 -0.6665 -0.0874  0.2379
  147OSM   H14F16307   1.120   6.916   3.870 -0.5682 -2.7611  1.9096
  147OSM   H14G16308   1.272   6.997   3.804  1.5784 -0.9900  0.7091
  147OSM   C15F16309   1.313   6.843   3.946  0.0116  0.5555  0.0553
  147OSM   H15F16310   1.309   6.916   4.031 -1.8544 -1.0148  1.3997
  147OSM   H15G16311   1.422   6.841   3.923  0.7276  0.0017  3.0131
  147OSM   C16F16312   1.265   6.699   3.988  0.0530 -0.2559  0.1840
  147OSM   H16F16313   1.237   6.641   3.898  0.8812 -1.2351  0.5353
  147OSM   H16G16314   1.167   6.707   4.039 -0.2893 -1.9890 -0.1473
  147OSM   C17F16315   1.366   6.618   4.069 -0.1521  0.3254 -0.2537
  147OSM   H17F16316   1.469   6.650   4.042  0.3193 -2.0645 -1.6698
  147OSM   H17G16317   1.366   6.510   4.041  0.6111 -0.4886  2.5760
  147OSM   C18F16318   1.348   6.631   4.220  0.8134  0.0640 -0.7047
  147OSM   H18F16319   1.424   6.570   4.274  1.1131  0.3121 -0.8492
  147OSM   H18G16320   1.246   6.591   4.241  1.1038  0.1351  0.9813
  147OSM   H18H16321   1.353   6.731   4.267 -0.7948 -0.4517  0.7117
  148OSM      N16322   0.938   0.542   1.768  0.4675  0.2552  0.0837
  148OSM    C1516323   1.001   0.609   1.648 -0.2987  0.2012 -0.1147
  148OSM   H15A16324   1.078   0.550   1.600 -1.5683  1.0561 -3.4853
  148OSM   H15B16325   1.048   0.702   1.678 -0.3611  0.0754  0.3792
  148OSM   H15C16326   0.933   0.641   1.571 -0.1951 -0.6193 -0.5608
  148OSM    C1416327   0.845   0.433   1.712 -0.4350  0.1856 -0.0521
  148OSM   H14A16328   0.783   0.471   1.633 -2.1116 -1.3290  0.4594
  148OSM   H14B16329   0.786   0.402   1.797  0.3242 -1.5358 -0.1088
  148OSM   H14C16330   0.905   0.356   1.665 -0.5578  0.5940 -0.8908
  148OSM    C1316331   1.045   0.474   1.848 -0.1884  0.1555  0.1920
  148OSM   H13A16332   1.085   0.388   1.796  0.8579  1.7808 -1.8469
  148OSM   H13B16333   1.009   0.441   1.944  1.9216  0.0698  1.0032
  148OSM   H13C16334   1.130   0.537   1.868  0.3760 -0.0427 -1.4223
  148OSM    C1216335   0.861   0.639   1.853  0.6431 -0.4106 -0.5024
  148OSM   H12A16336   0.773   0.674   1.801  1.7919  1.2867 -1.4048
  148OSM   H12B16337   0.927   0.725   1.857 -0.7576  0.8074 -2.1783
  148OSM    C1116338   0.817   0.611   2.002  0.5109 -0.6503  0.9551
  148OSM   H11A16339   0.755   0.697   2.036 -1.9914 -1.3219 -1.5236
  148OSM   H11B16340   0.911   0.606   2.060  0.1186 -2.0421  1.5076
  148OSM      P16341   0.789   0.376   2.109 -0.0382  0.0692 -0.1135
  148OSM    O1316342   0.750   0.247   2.047  0.1149 -0.0138  0.2218
  148OSM    O1416343   0.930   0.392   2.139  0.7979 -0.2737 -0.3231
  148OSM    O1116344   0.685   0.400   2.225  0.3024  0.0354 -0.4004
  148OSM    O1216345   0.741   0.491   2.012  0.4172  0.0702  0.4729
  148OSM    C1S16346   0.692   0.311   2.342  0.2420  0.1388  0.1262
  148OSM    H1S16347   0.740   0.215   2.314 -0.4144  0.0394 -0.7209
  148OSM    H1T16348   0.590   0.282   2.375  0.4120 -1.5344 -0.6893
  148OSM     NF16349   0.772   0.271   2.584  0.7877  0.1935  0.2215
  148OSM    HNF16350   0.727   0.297   2.669 -0.3339 -0.3400 -0.1904
  148OSM    C2S16351   0.769   0.366   2.469  0.4236  0.0450 -0.2996
  148OSM    H2S16352   0.871   0.382   2.429  0.8343  1.4590  1.2139
  148OSM    C3S16353   0.719   0.506   2.508  0.8273  0.4184 -0.2544
  148OSM    H3S16354   0.611   0.502   2.536  1.0521  1.9898  0.9502
  148OSM     O316355   0.717   0.603   2.402  0.2963 -0.1726  0.2009
  148OSM    HO316356   0.715   0.556   2.318  0.9776  1.2157 -0.6327
  148OSM    C4S16357   0.797   0.560   2.620 -0.8850 -0.3618  0.1996
  148OSM    H4S16358   0.872   0.635   2.590 -0.9118 -0.7170 -0.7794
  148OSM    C5S16359   0.763   0.562   2.751 -0.6155  0.3901 -0.1630
  148OSM    H5S16360   0.662   0.526   2.778 -0.6449  2.3370  2.7830
  148OSM    C6S16361   0.852   0.622   2.853  0.0024  0.1314 -0.1261
  148OSM    H6S16362   0.819   0.726   2.877 -1.3832 -0.2298 -0.4393
  148OSM    H6T16363   0.957   0.612   2.817 -0.5755 -5.0500 -1.0846
  148OSM    C7S16364   0.829   0.556   2.994 -0.3526  0.1367  0.0637
  148OSM    H7S16365   0.721   0.557   3.018 -0.7422  1.1247 -1.5876
  148OSM    H7T16366   0.886   0.623   3.061 -1.0711  0.2542  0.5674
  148OSM    C8S16367   0.884   0.412   3.009  0.1093 -0.7431 -0.0587
  148OSM    H8S16368   0.981   0.398   2.958  0.7668 -2.2853  1.5126
  148OSM    H8T16369   0.812   0.345   2.957 -1.9193  1.1804  0.1097
  148OSM    C9S16370   0.888   0.349   3.151  0.4615  0.3880 -0.5741
  148OSM    H9S16371   0.921   0.243   3.142 -2.9054 -0.8223 -0.0241
  148OSM    H9T16372   0.784   0.346   3.189 -0.4186 -0.5904 -2.8719
  148OSM   C10S16373   0.983   0.405   3.262 -0.3077 -0.1874 -0.4643
  148OSM   H10S16374   0.971   0.515   3.265  0.1725 -0.1670  0.8807
  148OSM   H10T16375   1.089   0.398   3.232  1.4340  3.0031  4.0365
  148OSM   C11S16376   0.961   0.338   3.395 -0.0346  0.0276  1.2462
  148OSM   H11S16377   1.005   0.237   3.383 -1.5970 -0.7633  1.8631
  148OSM   H11T16378   0.853   0.315   3.399  0.5463 -3.3962  0.2852
  148OSM   C12S16379   1.017   0.414   3.517  0.1895 -0.2545  0.5872
  148OSM   H12S16380   0.955   0.504   3.539  1.1909  1.1101 -1.7542
  148OSM   H12T16381   1.112   0.461   3.483 -0.9603  1.3275 -0.6033
  148OSM   C13S16382   1.034   0.334   3.644 -0.0948 -0.1513  0.6034
  148OSM   H13S16383   1.111   0.257   3.622 -1.1237 -1.3065  0.9215
  148OSM   H13T16384   0.944   0.272   3.667  0.1845 -0.2150  1.5586
  148OSM   C14S16385   1.081   0.432   3.748 -0.2343  0.7503 -0.3800
  148OSM   H14S16386   1.012   0.514   3.777 -1.3170 -0.5365  0.8604
  148OSM   H14T16387   1.170   0.487   3.711  0.3247 -0.6956 -1.2883
  148OSM   C15S16388   1.097   0.368   3.887 -0.0288  0.0163  0.0478
  148OSM   H15S16389   1.172   0.287   3.886 -0.5358 -0.4565 -0.3853
  148OSM   H15T16390   1.001   0.318   3.915  0.5186 -0.7355  0.6155
  148OSM   C16S16391   1.106   0.461   4.005  0.4584 -0.3948 -0.2101
  148OSM   H16S16392   1.036   0.546   3.993 -1.1414 -1.3496  1.8056
  148OSM   H16T16393   1.209   0.503   4.008  0.0468  0.6214  1.3010
  148OSM   C17S16394   1.077   0.399   4.141  0.3126 -0.3707  0.2803
  148OSM   H17S16395   0.971   0.369   4.134  0.9866 -3.1747  0.9962
  148OSM   H17T16396   1.082   0.470   4.227 -1.0126  0.3348 -0.2014
  148OSM   C18S16397   1.152   0.273   4.184 -0.4950  0.1676 -0.7868
  148OSM   H18S16398   1.261   0.288   4.191 -0.4749 -0.6052  0.9517
  148OSM   H18T16399   1.141   0.186   4.116  1.4481 -0.9263  0.2353
  148OSM   H18U16400   1.114   0.249   4.285 -1.6069  2.2665 -0.6374
  148OSM    C1F16401   0.843   0.161   2.591  0.2270 -0.7544  0.3787
  148OSM     OF16402   0.898   0.117   2.495 -0.5585 -0.1083  0.4892
  148OSM    C2F16403   0.852   0.104   2.726 -0.5369 -0.1063  0.1903
  148OSM    H2F16404   0.753   0.054   2.733 -1.9858  2.2194 -1.9502
  148OSM    H2G16405   0.849   0.190   2.797 -2.6697  1.0006 -1.1374
  148OSM    C3F16406   0.981   0.016   2.743  0.1592  0.0828  0.3285
  148OSM    H3F16407   1.075   0.068   2.713 -0.8723  1.5955 -0.4585
  148OSM    H3G16408   0.962  -0.068   2.675 -0.9562 -1.3863  2.3472
  148OSM    C4F16409   1.009  -0.027   2.889 -0.6949 -0.2502 -0.6469
  148OSM    H4F16410   1.074   0.031   2.958  1.4037 -4.7047  1.6123
  148OSM    H4G16411   1.084  -0.109   2.877 -0.1979  0.0685  0.1709
  148OSM    C5F16412   0.890  -0.057   2.972 -0.0300  0.1905 -0.6067
  148OSM    H5F16413   0.832  -0.146   2.939 -1.3702  1.2140 -1.0946
  148OSM    H5G16414   0.817   0.026   2.960 -0.8745 -0.6357 -1.3807
  148OSM    C6F16415   0.922  -0.090   3.117 -0.1681 -0.1965 -0.1242
  148OSM    H6F16416   0.966   0.004   3.156 -1.9483  0.4508  0.3994
  148OSM    H6G16417   0.998  -0.170   3.129  1.2366  1.1526  0.3837
  148OSM    C7F16418   0.810  -0.128   3.214 -0.3167  0.4004  0.9563
  148OSM    H7F16419   0.760  -0.219   3.176  1.0131 -0.0340  0.1895
  148OSM    H7G16420   0.720  -0.066   3.193 -0.7310 -1.0658 -2.1144
  148OSM    C8F16421   0.851  -0.155   3.359 -0.2511 -0.1215 -0.3192
  148OSM    H8F16422   0.945  -0.214   3.354  0.8931  1.3112  2.0992
  148OSM    H8G16423   0.768  -0.214   3.403 -0.4416  0.2290 -0.1980
  148OSM    C9F16424   0.870  -0.032   3.438  0.3133  0.6646 -0.1688
  148OSM    H9F16425   0.944   0.033   3.390 -1.1325  1.5237 -1.3257
  148OSM   C10F16426   0.832  -0.011   3.569 -0.7245  0.4407 -0.5745
  148OSM   H10F16427   0.844   0.082   3.626 -1.3839 -1.0371  2.1752
  148OSM   C11F16428   0.754  -0.108   3.656  0.2685  0.5158 -1.1813
  148OSM   H11F16429   0.773  -0.214   3.629 -2.1992 -0.4709  0.6634
  148OSM   H11G16430   0.645  -0.090   3.644 -0.4907 -2.1199  0.7571
  148OSM   C12F16431   0.807  -0.099   3.801  0.1053  0.8789 -0.4104
  148OSM   H12F16432   0.787   0.004   3.838 -1.0301  0.0717  1.3636
  148OSM   H12G16433   0.916  -0.115   3.791 -0.3170 -1.7981 -1.6187
  148OSM   C13F16434   0.756  -0.206   3.904  0.4715  0.8190 -0.1089
  148OSM   H13F16435   0.769  -0.311   3.870 -3.3209  0.2160 -0.2026
  148OSM   H13G16436   0.648  -0.197   3.928  0.8360  1.2561  1.4677
  148OSM   C14F16437   0.828  -0.189   4.035  0.6287 -0.1662 -0.3034
  148OSM   H14F16438   0.841  -0.081   4.058 -2.5160  0.3304 -0.4406
  148OSM   H14G16439   0.928  -0.237   4.028  0.4233 -0.4954 -1.1422
  148OSM   C15F16440   0.754  -0.248   4.157 -0.9536 -0.3077  0.5944
  148OSM   H15F16441   0.703  -0.337   4.115 -1.5970  0.3721 -0.0840
  148OSM   H15G16442   0.671  -0.178   4.182 -1.7428 -0.0667 -2.4007
  148OSM   C16F16443   0.831  -0.302   4.276  0.0423  0.1210  0.0141
  148OSM   H16F16444   0.903  -0.378   4.238 -0.6748 -1.0580  0.9139
  148OSM   H16G16445   0.757  -0.361   4.335 -0.2019 -1.9410 -2.2366
  148OSM   C17F16446   0.918  -0.201   4.351  0.0029 -0.7350  0.8819
  148OSM   H17F16447   0.846  -0.136   4.406  0.3034  2.9430 -2.6142
  148OSM   H17G16448   0.985  -0.138   4.289  0.9301 -3.1087 -0.6477
  148OSM   C18F16449   1.021  -0.271   4.446  0.5512 -0.0354  0.2070
  148OSM   H18F16450   1.029  -0.382   4.439  3.4633  0.1530 -0.9729
  148OSM   H18G16451   0.973  -0.256   4.545 -1.0229  5.0107 -1.0562
  148OSM   H18H16452   1.120  -0.222   4.437  1.3276 -1.6644 -0.6038
  149OSM      N16453   1.014   6.085   2.034  0.2043  0.0890  0.0110
  149OSM    C1516454   1.006   6.203   1.938  0.2060 -0.1249  0.2363
  149OSM   H15A16455   0.943   6.285   1.967 -0.9906 -1.5333  1.8471
  149OSM   H15B16456   0.966   6.160   1.848  0.8535 -0.8480  0.2768
  149OSM   H15C16457   1.104   6.247   1.924  0.3715 -0.7687 -0.7446
  149OSM    C1416458   0.879   6.034   2.050  0.1136 -0.6471  0.2679
  149OSM   H14A16459   0.847   6.014   1.949  1.0639  1.9227 -0.6288
  149OSM   H14B16460   0.817   6.112   2.090  0.7936  0.1571 -0.2236
  149OSM   H14C16461   0.876   5.949   2.117  1.6203 -1.1708 -0.2815
  149OSM    C1316462   1.109   5.985   1.976  0.2212 -0.2631  0.1485
  149OSM   H13A16463   1.107   5.891   2.028 -1.3314 -0.0749  0.4741
  149OSM   H13B16464   1.212   6.013   1.961 -0.1927  1.9831  1.0948
  149OSM   H13C16465   1.076   5.958   1.877 -1.5688  1.4048  0.2207
  149OSM    C1216466   1.070   6.146   2.159 -0.7907 -0.3378  0.8590
  149OSM   H12A16467   1.070   6.072   2.237 -1.5623 -1.8379 -0.4952
  149OSM   H12B16468   1.000   6.222   2.190  0.6258  1.7037 -0.6447
  149OSM    C1116469   1.212   6.223   2.153  0.2386  0.0124  0.4766
  149OSM   H11A16470   1.236   6.285   2.242  2.4373 -0.0946  0.0161
  149OSM   H11B16471   1.211   6.297   2.070  0.6281 -0.5795 -0.0681
  149OSM      P16472   1.363   6.020   2.230 -0.1123  0.2694  0.0368
  149OSM    O1316473   1.353   5.889   2.157 -0.2812  0.0092  0.0869
  149OSM    O1416474   1.494   6.046   2.296 -0.4623 -0.6271  0.8391
  149OSM    O1116475   1.256   6.023   2.346 -0.3360 -0.2751 -0.3138
  149OSM    O1216476   1.322   6.132   2.133  0.2286  0.3903  0.6917
  149OSM    C1S16477   1.299   5.986   2.479  0.0072 -0.6176  0.5884
  149OSM    H1S16478   1.337   6.082   2.519 -1.1050  0.1427 -0.1179
  149OSM    H1T16479   1.367   5.898   2.482  0.4325 -0.3672 -0.8059
  149OSM     NF16480   1.221   5.925   2.706 -0.0234  0.0503 -0.7748
  149OSM    HNF16481   1.236   5.831   2.738 -0.8438 -1.1218 -3.5619
  149OSM    C2S16482   1.173   5.946   2.569  0.1165  0.6274  0.0315
  149OSM    H2S16483   1.110   6.037   2.561  0.0459  0.5855  0.1099
  149OSM    C3S16484   1.080   5.833   2.508 -0.2153  0.2889  0.0932
  149OSM    H3S16485   1.134   5.737   2.525  2.0512  1.5257  0.3165
  149OSM     O316486   1.060   5.845   2.367  0.4106  0.3188 -0.5090
  149OSM    HO316487   1.137   5.887   2.327  1.5164 -1.7442 -0.6679
  149OSM    C4S16488   0.960   5.817   2.595  0.9499 -0.5861 -0.3524
  149OSM    H4S16489   0.954   5.736   2.670 -1.7422  0.7274  0.9944
  149OSM    C5S16490   0.857   5.906   2.598 -0.1829 -0.8598 -0.1202
  149OSM    H5S16491   0.848   5.991   2.529 -1.4208  1.1742  2.3632
  149OSM    C6S16492   0.738   5.888   2.694 -0.7325 -1.0036  0.0234
  149OSM    H6S16493   0.658   5.831   2.643 -1.3039 -0.2281  0.0508
  149OSM    H6T16494   0.685   5.982   2.719  0.3719 -0.3106 -0.1531
  149OSM    C7S16495   0.766   5.812   2.821 -0.1951  0.4939  0.3112
  149OSM    H7S16496   0.808   5.712   2.796 -0.5386  0.0581  1.4192
  149OSM    H7T16497   0.668   5.790   2.868 -1.3970 -0.1165 -2.3123
  149OSM    C8S16498   0.843   5.881   2.931  0.3906  0.2680  0.0885
  149OSM    H8S16499   0.781   5.971   2.950 -1.1764 -0.6000 -0.7576
  149OSM    H8T16500   0.948   5.912   2.911  0.0279  3.2767  2.1803
  149OSM    C9S16501   0.842   5.787   3.057 -0.4812  0.3406  0.1559
  149OSM    H9S16502   0.924   5.714   3.040 -1.6708 -0.9122 -0.4233
  149OSM    H9T16503   0.744   5.735   3.063 -0.4120  0.1754 -0.0872
  149OSM   C10S16504   0.878   5.868   3.188  0.4043 -0.4317 -0.6944
  149OSM   H10S16505   0.808   5.953   3.197 -0.0834 -0.7992 -0.9401
  149OSM   H10T16506   0.977   5.918   3.187 -0.9323  2.4185 -1.1118
  149OSM   C11S16507   0.855   5.787   3.317  0.0843  0.9007  0.2961
  149OSM   H11S16508   0.921   5.698   3.326 -1.2557 -0.1710 -0.1494
  149OSM   H11T16509   0.752   5.748   3.323 -0.1208  1.5681  1.6186
  149OSM   C12S16510   0.868   5.870   3.447  0.2990  0.5164  0.7851
  149OSM   H12S16511   0.800   5.957   3.436  0.3172  0.5290  0.7746
  149OSM   H12T16512   0.975   5.899   3.444  0.5067 -0.1016 -2.6783
  149OSM   C13S16513   0.837   5.780   3.569  0.0520 -0.4477  0.2180
  149OSM   H13S16514   0.854   5.672   3.551  0.6282 -0.4024  0.4933
  149OSM   H13T16515   0.728   5.783   3.594  0.0969 -1.7715  0.6568
  149OSM   C14S16516   0.920   5.817   3.688 -0.0225  0.3347 -0.0426
  149OSM   H14S16517   0.900   5.921   3.722  1.4926  0.7506 -0.3597
  149OSM   H14T16518   1.029   5.808   3.666  0.2071 -1.2547  1.4458
  149OSM   C15S16519   0.889   5.724   3.803  0.0155  0.8749 -0.6779
  149OSM   H15S16520   0.984   5.716   3.860  0.1313  2.1855 -0.6678
  149OSM   H15T16521   0.868   5.624   3.757  2.3777 -0.4320  0.8726
  149OSM   C16S16522   0.776   5.776   3.882  0.8905 -0.5530  0.2487
  149OSM   H16S16523   0.687   5.775   3.816  0.2382 -3.5370  1.0403
  149OSM   H16T16524   0.798   5.882   3.908  3.3211 -0.5901 -1.3032
  149OSM   C17S16525   0.742   5.685   4.002 -0.4079  0.6580  0.1401
  149OSM   H17S16526   0.656   5.731   4.055 -1.6862 -1.0096 -0.3790
  149OSM   H17T16527   0.830   5.696   4.068 -0.8995  1.1682  0.7144
  149OSM   C18S16528   0.705   5.533   3.975 -0.0518 -0.0357  0.1974
  149OSM   H18S16529   0.793   5.471   3.948  2.1492  1.6719  2.8687
  149OSM   H18T16530   0.632   5.525   3.891  0.4394  1.9503 -0.4925
  149OSM   H18U16531   0.672   5.510   4.078 -1.7150  0.8750 -0.1005
  149OSM    C1F16532   1.273   6.021   2.784  0.2012  0.7072 -0.5461
  149OSM     OF16533   1.278   6.140   2.747 -0.0006 -0.4064 -0.1222
  149OSM    C2F16534   1.336   5.984   2.915  0.2145  0.3881  0.4217
  149OSM    H2F16535   1.447   5.981   2.905  0.1993 -0.6193  0.4374
  149OSM    H2G16536   1.311   5.877   2.931 -0.6088  0.6451  0.8901
  149OSM    C3F16537   1.313   6.095   3.020  0.4457 -0.1453  0.0710
  149OSM    H3F16538   1.207   6.129   3.011  0.4913  0.0589  0.3078
  149OSM    H3G16539   1.378   6.175   2.977  0.5610 -0.4864 -0.4026
  149OSM    C4F16540   1.359   6.056   3.158 -0.6079  0.7935  0.1016
  149OSM    H4F16541   1.469   6.050   3.148 -0.7930  1.3745 -3.9382
  149OSM    H4G16542   1.316   5.960   3.192 -1.7426  1.2178 -0.0751
  149OSM    C5F16543   1.320   6.158   3.268 -0.2790 -0.3892  0.0599
  149OSM    H5F16544   1.211   6.142   3.280 -0.2926 -0.9422 -0.7352
  149OSM    H5G16545   1.333   6.260   3.226 -1.0081  0.1740  1.1569
  149OSM    C6F16546   1.377   6.140   3.404 -0.5865 -0.2160 -0.3358
  149OSM    H6F16547   1.460   6.213   3.417  0.3126 -1.5738  2.1875
  149OSM    H6G16548   1.404   6.034   3.423  1.0730  0.0921 -0.8633
  149OSM    C7F16549   1.278   6.177   3.516  0.6175  0.0917 -0.8376
  149OSM    H7F16550   1.182   6.123   3.500 -0.5572  1.7598  0.2628
  149OSM    H7G16551   1.255   6.286   3.513  2.6765  0.5984  0.1963
  149OSM    C8F16552   1.334   6.139   3.655 -0.6357 -0.2217 -0.3989
  149OSM    H8F16553   1.318   6.030   3.669 -1.2033  0.0299  1.1362
  149OSM    H8G16554   1.283   6.186   3.742  0.3346 -1.1266  0.7058
  149OSM    C9F16555   1.482   6.138   3.685 -0.1678 -0.4764 -0.1434
  149OSM    H9F16556   1.542   6.108   3.598  0.4257  0.2337  0.0140
  149OSM   C10F16557   1.539   6.194   3.792  1.0068 -0.1664 -0.0409
  149OSM   H10F16558   1.648   6.197   3.807  0.7676  0.2584  1.8489
  149OSM   C11F16559   1.470   6.241   3.918  0.0524 -0.1933 -0.3958
  149OSM   H11F16560   1.361   6.221   3.916 -0.1391  0.3918  1.8863
  149OSM   H11G16561   1.465   6.352   3.931 -0.1721 -0.5231  3.1011
  149OSM   C12F16562   1.524   6.176   4.047  0.0694 -0.3330 -0.5410
  149OSM   H12F16563   1.519   6.066   4.036  0.6562 -0.3427 -0.7545
  149OSM   H12G16564   1.452   6.216   4.122  0.1378 -2.3749  0.6798
  149OSM   C13F16565   1.666   6.230   4.080  0.2773 -0.2917 -0.5157
  149OSM   H13F16566   1.665   6.341   4.085  2.7647 -0.2356  0.1170
  149OSM   H13G16567   1.740   6.197   4.003  1.1020 -2.4644  1.1117
  149OSM   C14F16568   1.730   6.182   4.213 -0.2318  0.4458 -0.2015
  149OSM   H14F16569   1.734   6.071   4.211 -1.0452  0.4246 -1.0593
  149OSM   H14G16570   1.658   6.215   4.291 -1.4669  0.6246 -1.3755
  149OSM   C15F16571   1.863   6.238   4.232  0.2708 -0.2168 -0.0560
  149OSM   H15F16572   1.852   6.347   4.249 -0.3347 -0.6479  2.9906
  149OSM   H15G16573   1.925   6.226   4.141  0.4857  1.2446 -0.1231
  149OSM   C16F16574   1.934   6.185   4.359 -0.3699 -0.5953 -0.3005
  149OSM   H16F16575   1.948   6.075   4.354 -3.2105 -1.0511  0.1473
  149OSM   H16G16576   1.860   6.209   4.438 -0.9883 -0.5828 -0.8855
  149OSM   C17F16577   2.073   6.248   4.402 -0.3514 -0.0443  0.3013
  149OSM   H17F16578   2.074   6.358   4.382  1.5334 -0.1825 -0.5922
  149OSM   H17G16579   2.143   6.211   4.324  0.7951  0.0725  1.2535
  149OSM   C18F16580   2.131   6.229   4.542 -0.4121  0.0119 -0.1291
  149OSM   H18F16581   2.073   6.288   4.616  1.4708 -0.0605  1.4831
  149OSM   H18G16582   2.236   6.265   4.541  0.3600 -2.0681  0.6657
  149OSM   H18H16583   2.132   6.122   4.568  3.1619  0.2063  0.9696
  150OSM      N16584   6.672   0.089   2.353 -0.4531 -0.5684  0.6886
  150OSM    C1516585   6.665   0.044   2.210 -0.4710 -1.0585 -0.7283
  150OSM   H15A16586   6.747  -0.018   2.177  0.5153 -0.0858 -0.1926
  150OSM   H15B16587   6.652   0.121   2.135 -0.6647 -1.0342 -0.6709
  150OSM   H15C16588   6.577  -0.018   2.209 -0.0664 -1.6369 -1.7168
  150OSM    C1416589   6.779   0.192   2.375 -0.4200  0.6742 -0.3628
  150OSM   H14A16590   6.778   0.283   2.316  1.9982  0.1429 -1.3300
  150OSM   H14B16591   6.875   0.146   2.363 -0.1274  0.5783  1.9066
  150OSM   H14C16592   6.796   0.221   2.477  0.2163  0.5480 -0.4312
  150OSM    C1316593   6.543   0.146   2.393  0.1555 -0.6021  0.2486
  150OSM   H13A16594   6.548   0.192   2.490  0.9714 -0.0088 -0.0602
  150OSM   H13B16595   6.462   0.074   2.396 -1.3581  0.9810 -0.7271
  150OSM   H13C16596   6.511   0.227   2.330  0.2341 -2.3722 -2.2423
  150OSM    C1216597   6.701  -0.028   2.445  0.0388 -0.7929  0.3556
  150OSM   H12A16598   6.641  -0.108   2.405  0.2325 -0.6277 -0.2797
  150OSM   H12B16599   6.670   0.004   2.543 -0.5640 -0.3215  0.0190
  150OSM    C1116600   6.840  -0.094   2.452 -0.6782 -0.1344 -0.2708
  150OSM   H11A16601   6.846  -0.181   2.521  1.0598  0.0531 -0.1616
  150OSM   H11B16602   6.909  -0.010   2.477  1.3573 -2.0284  0.7268
  150OSM      P16603   6.871  -0.285   2.266 -0.0451 -0.0088  0.3200
  150OSM    O1316604   6.745  -0.309   2.198 -0.2022 -0.8264 -0.4326
  150OSM    O1416605   6.992  -0.320   2.186  0.7405  0.6801 -0.0995
  150OSM    O1116606   6.877  -0.379   2.388 -0.2568  0.2481 -0.0952
  150OSM    O1216607   6.874  -0.131   2.319 -0.0966  0.4799 -0.3215
  150OSM    C1S16608   6.990  -0.384   2.467 -0.2147  0.3820  0.0777
  150OSM    H1S16609   7.031  -0.285   2.493  2.7686 -0.2592 -1.7195
  150OSM    H1T16610   7.076  -0.434   2.416  1.3544  1.9467  1.0867
  150OSM     NF16611   7.070  -0.450   2.695  0.1589 -0.2659 -0.0213
  150OSM    HNF16612   7.115  -0.532   2.730 -0.9824 -0.8772  0.0529
  150OSM    C2S16613   6.966  -0.466   2.595 -0.8566  0.5958  0.1411
  150OSM    H2S16614   6.875  -0.430   2.648 -1.8314 -0.6536 -0.6139
  150OSM    C3S16615   6.936  -0.613   2.553  0.1574  0.6653  0.4285
  150OSM    H3S16616   7.033  -0.664   2.536  0.7504  1.9047 -0.0186
  150OSM     O316617   6.860  -0.636   2.434  0.2751  0.0632 -0.2640
  150OSM    HO316618   6.852  -0.548   2.398  0.3020  0.0889 -0.2071
  150OSM    C4S16619   6.886  -0.690   2.664 -0.3582 -0.7124 -0.1317
  150OSM    H4S16620   6.959  -0.748   2.723 -0.9461 -1.2856  0.0405
  150OSM    C5S16621   6.761  -0.696   2.712 -0.9130 -0.6452  0.6087
  150OSM    H5S16622   6.683  -0.638   2.659 -0.4552  0.5219  1.1804
  150OSM    C6S16623   6.724  -0.753   2.845 -0.1587  0.2007  0.3098
  150OSM    H6S16624   6.809  -0.777   2.912 -2.3169 -0.9907  2.7934
  150OSM    H6T16625   6.677  -0.851   2.822 -0.1177  0.1677  0.3650
  150OSM    C7S16626   6.628  -0.661   2.922  0.0219  0.5373  0.4552
  150OSM    H7S16627   6.534  -0.664   2.862  1.5603  0.1061 -2.0924
  150OSM    H7T16628   6.669  -0.558   2.919 -2.6346  1.6532 -0.8510
  150OSM    C8S16629   6.605  -0.709   3.060  0.5381  0.1961 -0.0799
  150OSM    H8S16630   6.581  -0.817   3.067  0.2707  0.1486 -1.4012
  150OSM    H8T16631   6.524  -0.648   3.105 -0.3501 -0.7044 -0.4227
  150OSM    C9S16632   6.726  -0.705   3.159 -0.4789 -0.7799 -0.4572
  150OSM    H9S16633   6.755  -0.598   3.162  0.1627 -0.9665  0.4765
  150OSM    H9T16634   6.807  -0.772   3.124 -0.5371 -0.7891 -0.5748
  150OSM   C10S16635   6.691  -0.745   3.304  0.1181 -0.7266  0.1427
  150OSM   H10S16636   6.596  -0.694   3.334  0.6204  0.2676  0.0742
  150OSM   H10T16637   6.766  -0.695   3.369  0.5980 -1.0548 -0.1567
  150OSM   C11S16638   6.688  -0.894   3.328 -0.3960  0.2535  0.3305
  150OSM   H11S16639   6.791  -0.936   3.323  0.0525  1.1507  1.6140
  150OSM   H11T16640   6.638  -0.935   3.237  1.3871  1.5463 -1.3172
  150OSM   C12S16641   6.605  -0.932   3.444 -0.4089 -0.0918  0.0377
  150OSM   H12S16642   6.501  -0.892   3.437 -0.8728 -0.9207  1.6968
  150OSM   H12T16643   6.645  -0.894   3.540 -0.7729 -0.6757  0.4333
  150OSM   C13S16644   6.618  -1.084   3.462 -0.3914 -0.6350  0.1798
  150OSM   H13S16645   6.593  -1.143   3.372 -0.1579  2.1615 -1.8392
  150OSM   H13T16646   6.542  -1.115   3.537 -0.3135 -0.1119  0.4828
  150OSM   C14S16647   6.751  -1.144   3.513  0.3695  0.1751 -0.3180
  150OSM   H14S16648   6.805  -1.056   3.554 -0.7475  2.9704 -4.2431
  150OSM   H14T16649   6.810  -1.191   3.432  0.4021 -0.8063  0.2489
  150OSM   C15S16650   6.731  -1.248   3.619 -0.2539 -0.0728 -0.7020
  150OSM   H15S16651   6.822  -1.311   3.623 -1.2944 -1.6113 -0.6474
  150OSM   H15T16652   6.645  -1.312   3.591 -2.1330  2.1987 -0.4432
  150OSM   C16S16653   6.701  -1.185   3.757 -0.1665  0.5920 -0.1082
  150OSM   H16S16654   6.618  -1.112   3.750 -0.3841  0.3801  0.2287
  150OSM   H16T16655   6.793  -1.134   3.795  0.9431 -3.1391  2.8085
  150OSM   C17S16656   6.645  -1.292   3.848  0.0869 -0.1542  0.4306
  150OSM   H17S16657   6.724  -1.366   3.870  0.1277 -0.6912 -1.3578
  150OSM   H17T16658   6.568  -1.349   3.791 -0.5426  2.4122 -1.4890
  150OSM   C18S16659   6.584  -1.238   3.972  0.0250 -0.1735 -0.9498
  150OSM   H18S16660   6.482  -1.199   3.954 -0.4835 -1.1228 -0.2407
  150OSM   H18T16661   6.638  -1.152   4.015  0.4963 -0.9901  0.1438
  150OSM   H18U16662   6.571  -1.319   4.047 -0.3550 -0.6433 -1.5074
  150OSM    C1F16663   7.108  -0.331   2.740  0.0230  0.0395  0.8222
  150OSM     OF16664   7.024  -0.239   2.744 -0.6539  0.1342  0.1906
  150OSM    C2F16665   7.252  -0.307   2.790 -0.4039  0.4920 -0.7979
  150OSM    H2F16666   7.295  -0.223   2.731 -0.2468  0.3586 -0.8751
  150OSM    H2G16667   7.326  -0.390   2.785  1.7750  2.0525  2.1891
  150OSM    C3F16668   7.237  -0.271   2.937  0.0495  0.0419 -0.1325
  150OSM    H3F16669   7.199  -0.360   2.992 -0.0688  0.6514  0.7982
  150OSM    H3G16670   7.154  -0.197   2.937 -0.0500  0.2882 -5.0173
  150OSM    C4F16671   7.367  -0.227   3.006  0.1212  0.5392  0.0131
  150OSM    H4F16672   7.353  -0.130   3.058 -1.5774  0.6524 -0.5915
  150OSM    H4G16673   7.426  -0.211   2.914 -3.6293  2.7891 -2.2506
  150OSM    C5F16674   7.430  -0.335   3.090  0.0069  0.0049 -0.0967
  150OSM    H5F16675   7.540  -0.320   3.090 -0.2709  2.6748 -1.4399
  150OSM    H5G16676   7.401  -0.431   3.044 -0.9686  0.0316  0.4324
  150OSM    C6F16677   7.386  -0.334   3.234 -0.5309 -0.4305 -0.2778
  150OSM    H6F16678   7.275  -0.341   3.238 -0.4778 -0.7148  0.8689
  150OSM    H6G16679   7.422  -0.239   3.280  0.9880 -0.9084 -0.4259
  150OSM    C7F16680   7.438  -0.452   3.316  0.3562 -0.7419  0.8765
  150OSM    H7F16681   7.547  -0.439   3.329  0.2915  2.3462 -0.5684
  150OSM    H7G16682   7.414  -0.546   3.263 -0.1560  0.2685 -0.7552
  150OSM    C8F16683   7.386  -0.462   3.462 -0.2449  0.2475 -0.3964
  150OSM    H8F16684   7.425  -0.552   3.513  2.0000  0.3783 -1.7749
  150OSM    H8G16685   7.278  -0.486   3.458 -0.4719  1.2806 -0.8349
  150OSM    C9F16686   7.414  -0.340   3.548  0.1343  0.4542 -0.2362
  150OSM    H9F16687   7.505  -0.284   3.522  1.2064  0.2791  2.7456
  150OSM   C10F16688   7.351  -0.300   3.662 -0.3632 -0.3953 -0.6705
  150OSM   H10F16689   7.393  -0.210   3.710 -0.2333 -0.9670  0.3004
  150OSM   C11F16690   7.232  -0.365   3.730 -0.1235  1.2313 -0.6505
  150OSM   H11F16691   7.212  -0.453   3.665 -0.6855  2.4954 -2.2477
  150OSM   H11G16692   7.143  -0.298   3.733 -1.7089 -0.8003 -0.4126
  150OSM   C12F16693   7.281  -0.409   3.871 -0.0229 -1.1202 -0.2340
  150OSM   H12F16694   7.371  -0.473   3.859 -0.2118 -0.9999 -3.1021
  150OSM   H12G16695   7.213  -0.484   3.916 -2.2521  0.2890 -1.0627
  150OSM   C13F16696   7.281  -0.295   3.972  0.3788 -0.4231  1.2359
  150OSM   H13F16697   7.195  -0.227   3.956 -0.0362 -1.2374 -0.2327
  150OSM   H13G16698   7.372  -0.233   3.958 -1.6233  2.6335  0.7594
  150OSM   C14F16699   7.269  -0.333   4.123  0.5242 -0.9560 -0.6324
  150OSM   H14F16700   7.329  -0.427   4.130  1.7370 -0.0926  2.3063
  150OSM   H14G16701   7.165  -0.357   4.152  1.1753 -0.3557  2.6868
  150OSM   C15F16702   7.318  -0.232   4.222  0.3803  0.4393  0.2890
  150OSM   H15F16703   7.419  -0.206   4.182 -0.1790  1.2315 -0.6602
  150OSM   H15G16704   7.321  -0.277   4.323  0.5896 -1.6988 -0.6200
  150OSM   C16F16705   7.223  -0.112   4.227  0.1774  0.0610 -0.1036
  150OSM   H16F16706   7.122  -0.154   4.247  0.6535 -1.1636 -0.1819
  150OSM   H16G16707   7.227  -0.066   4.126  2.5395  0.3035  0.0480
  150OSM   C17F16708   7.271   0.012   4.310  0.0580 -0.1117  0.4161
  150OSM   H17F16709   7.262  -0.012   4.418  0.5457 -2.3548 -0.0061
  150OSM   H17G16710   7.212   0.101   4.280  1.5019  0.8037  0.1663
  150OSM   C18F16711   7.412   0.059   4.275 -0.1081  0.6327 -0.0524
  150OSM   H18F16712   7.427   0.085   4.168 -0.2718  0.2154 -0.1782
  150OSM   H18G16713   7.493  -0.013   4.297  0.0303  0.7332 -0.2304
  150OSM   H18H16714   7.439   0.150   4.334  1.8297  0.5692 -0.7509
  151OSM      N16715   1.367   1.980   1.839 -0.2548  0.3194  0.3320
  151OSM    C1516716   1.427   2.109   1.876  0.1213  0.4590 -0.4153
  151OSM   H15A16717   1.377   2.184   1.816  0.9657  0.2219 -1.4479
  151OSM   H15B16718   1.534   2.114   1.863  0.6731 -0.6702  2.8660
  151OSM   H15C16719   1.413   2.133   1.980 -0.7698 -1.2457 -0.1094
  151OSM    C1416720   1.428   1.946   1.710 -0.1408  0.3391  0.7058
  151OSM   H14A16721   1.436   2.031   1.645  2.3620  0.1330  0.6608
  151OSM   H14B16722   1.369   1.865   1.668  0.7145 -0.3046  0.7149
  151OSM   H14C16723   1.527   1.905   1.725  0.5218  1.9333  0.8424
  151OSM    C1316724   1.402   1.866   1.938  0.2004 -0.7893 -1.1610
  151OSM   H13A16725   1.386   1.769   1.893  0.2931 -0.6829 -1.4244
  151OSM   H13B16726   1.346   1.871   2.030  2.6048 -1.5582  0.4683
  151OSM   H13C16727   1.506   1.861   1.969 -0.8499 -1.1429  2.9071
  151OSM    C1216728   1.220   1.998   1.825  0.0671  0.0739 -0.1778
  151OSM   H12A16729   1.172   2.044   1.910  0.5814  0.3990 -0.0585
  151OSM   H12B16730   1.186   1.896   1.820  0.1596 -0.2517  3.3886
  151OSM    C1116731   1.171   2.088   1.708 -0.4178  0.0660  0.0361
  151OSM   H11A16732   1.066   2.058   1.689 -0.1558 -1.7309  1.1626
  151OSM   H11B16733   1.223   2.062   1.614  1.8631  0.0764  1.2348
  151OSM      P16734   1.099   2.304   1.830 -0.0204 -0.1479  0.4497
  151OSM    O1316735   1.137   2.444   1.844 -0.2271 -0.3247 -0.3818
  151OSM    O1416736   0.959   2.282   1.790  0.3009  0.0482 -0.0510
  151OSM    O1116737   1.122   2.232   1.967  0.8544 -0.0747  0.7135
  151OSM    O1216738   1.190   2.228   1.729  0.3154  0.4770 -0.1816
  151OSM    C1S16739   1.014   2.222   2.066  0.3575 -0.4573  0.0276
  151OSM    H1S16740   0.939   2.148   2.031  0.7146 -1.6035  1.5418
  151OSM    H1T16741   0.963   2.321   2.072 -0.2868 -0.7784 -0.0832
  151OSM     NF16742   0.978   2.134   2.293 -0.7809  0.0546 -0.3367
  151OSM    HNF16743   0.957   2.187   2.375 -0.9921  1.1665 -1.0838
  151OSM    C2S16744   1.080   2.176   2.203 -0.0136  0.1187  0.0909
  151OSM    H2S16745   1.148   2.092   2.178 -0.3186  0.6053 -2.7401
  151OSM    C3S16746   1.169   2.286   2.267 -0.2230 -0.6041  0.3686
  151OSM    H3S16747   1.114   2.379   2.292  0.6734  0.6405 -1.9695
  151OSM     O316748   1.264   2.342   2.179 -0.0207 -0.0459 -0.0299
  151OSM    HO316749   1.231   2.310   2.095 -0.8691 -2.2801  1.0901
  151OSM    C4S16750   1.232   2.236   2.387  0.1017  0.4584 -0.4057
  151OSM    H4S16751   1.182   2.280   2.475 -0.8286  0.7207 -1.0492
  151OSM    C5S16752   1.330   2.151   2.400  0.3671  0.3048 -0.2060
  151OSM    H5S16753   1.375   2.105   2.311  1.2519  0.8366 -0.0391
  151OSM    C6S16754   1.393   2.109   2.534  1.1492 -0.1123  0.7778
  151OSM    H6S16755   1.484   2.172   2.542 -0.0458  1.9301 -1.0065
  151OSM    H6T16756   1.415   2.001   2.519  0.9697  0.1370 -1.5443
  151OSM    C7S16757   1.304   2.132   2.661  0.4583  0.5704 -0.4931
  151OSM    H7S16758   1.210   2.072   2.655 -0.5481  2.0862 -0.5750
  151OSM    H7T16759   1.284   2.241   2.669 -1.8499  0.1927 -0.4044
  151OSM    C8S16760   1.369   2.090   2.793  0.2408 -0.5125 -0.2576
  151OSM    H8S16761   1.465   2.144   2.806  0.7436 -0.9122 -2.0299
  151OSM    H8T16762   1.402   1.985   2.780  0.5912 -0.3381 -0.8424
  151OSM    C9S16763   1.267   2.122   2.899 -0.2327  0.1681 -0.0733
  151OSM    H9S16764   1.171   2.071   2.876 -1.0863  1.8825 -0.5380
  151OSM    H9T16765   1.265   2.233   2.896 -2.1439  0.2156  1.1468
  151OSM   C10S16766   1.328   2.081   3.036 -0.1024 -0.3032  0.4133
  151OSM   H10S16767   1.416   2.148   3.050  2.0106 -2.9134  0.4700
  151OSM   H10T16768   1.361   1.975   3.041  0.1697 -0.3015 -0.9912
  151OSM   C11S16769   1.225   2.109   3.150 -0.2412  0.4642 -0.5785
  151OSM   H11S16770   1.125   2.063   3.141 -1.0289  1.6691  1.3928
  151OSM   H11T16771   1.227   2.220   3.150 -0.2296  0.4739 -1.9379
  151OSM   C12S16772   1.286   2.077   3.286 -0.5749 -0.4672 -0.2773
  151OSM   H12S16773   1.367   2.150   3.305 -0.8500 -0.5970  1.5870
  151OSM   H12T16774   1.321   1.972   3.295  2.4333  0.5583  1.2075
  151OSM   C13S16775   1.185   2.100   3.402 -0.3741  0.3281 -0.4132
  151OSM   H13S16776   1.119   2.014   3.380 -0.3969  0.9431 -3.0502
  151OSM   H13T16777   1.132   2.197   3.392 -2.0460 -0.6346 -1.2754
  151OSM   C14S16778   1.242   2.068   3.542 -0.2576 -0.3185 -0.0088
  151OSM   H14S16779   1.324   2.138   3.571 -0.7101  0.5230 -0.7307
  151OSM   H14T16780   1.294   1.969   3.537  1.1282  0.4335 -1.7211
  151OSM   C15S16781   1.136   2.073   3.658  0.4536 -0.1594 -0.2780
  151OSM   H15S16782   1.074   1.982   3.648 -0.3281  0.1174  1.5597
  151OSM   H15T16783   1.078   2.168   3.651  1.3887  0.4710  0.2646
  151OSM   C16S16784   1.208   2.068   3.794  0.7895  0.1377 -0.2739
  151OSM   H16S16785   1.303   2.127   3.800  1.6353 -1.0215 -1.6989
  151OSM   H16T16786   1.249   1.965   3.790 -0.2869 -0.2724 -2.4739
  151OSM   C17S16787   1.119   2.098   3.915 -0.1210  0.1024  0.0145
  151OSM   H17S16788   1.016   2.059   3.897  0.1846 -0.6065 -0.2310
  151OSM   H17T16789   1.087   2.204   3.910 -0.1252  0.1454  0.8860
  151OSM   C18S16790   1.194   2.081   4.045 -0.7709  0.4292  0.1867
  151OSM   H18S16791   1.295   2.126   4.038 -0.4190 -0.3452  0.1125
  151OSM   H18T16792   1.226   1.975   4.060  0.0441  0.9341  2.3422
  151OSM   H18U16793   1.144   2.115   4.139  1.2219 -1.3265  1.9927
  151OSM    C1F16794   0.897   2.031   2.275  0.1742 -0.0874 -0.3431
  151OSM     OF16795   0.913   1.953   2.184  0.5831  0.3552 -0.2452
  151OSM    C2F16796   0.788   2.017   2.380 -0.3255 -0.0485  0.1001
  151OSM    H2F16797   0.722   2.103   2.353  0.7542  0.3516 -1.4365
  151OSM    H2G16798   0.821   2.057   2.478 -1.5074  1.5396 -0.1000
  151OSM    C3F16799   0.717   1.875   2.375  0.0711 -0.3671  0.3188
  151OSM    H3F16800   0.792   1.793   2.369  0.6579  0.2233 -4.8957
  151OSM    H3G16801   0.655   1.864   2.283 -0.4044 -0.2630  0.6209
  151OSM    C4F16802   0.638   1.848   2.505 -0.2992 -0.7734  0.0679
  151OSM    H4F16803   0.548   1.913   2.514  0.5989  0.3085  1.6420
  151OSM    H4G16804   0.704   1.879   2.589  0.3755 -0.3697 -0.5934
  151OSM    C5F16805   0.599   1.700   2.516 -1.1465  0.2654  0.0828
  151OSM    H5F16806   0.684   1.640   2.554 -0.9601  0.6793  0.3203
  151OSM    H5G16807   0.567   1.659   2.418 -0.3128 -0.0980 -0.0441
  151OSM    C6F16808   0.483   1.676   2.614 -0.0628  0.6617  0.3393
  151OSM    H6F16809   0.433   1.577   2.617 -0.8028  0.9458 -1.3200
  151OSM    H6G16810   0.398   1.742   2.586 -0.9790 -0.3646  0.6281
  151OSM    C7F16811   0.548   1.689   2.760  0.3928 -0.0825  0.4889
  151OSM    H7F16812   0.612   1.780   2.756 -0.3678  0.4265 -0.5009
  151OSM    H7G16813   0.607   1.599   2.788 -0.9660 -0.8484  1.0076
  151OSM    C8F16814   0.444   1.700   2.876 -0.0513 -0.6744 -0.0412
  151OSM    H8F16815   0.499   1.688   2.972  0.0076  0.8430  0.1314
  151OSM    H8G16816   0.365   1.622   2.871 -0.6157 -0.3070  1.9212
  151OSM    C9F16817   0.382   1.838   2.861  0.6281 -0.1751  1.0223
  151OSM    H9F16818   0.434   1.911   2.798 -3.7319  2.3713 -0.0242
  151OSM   C10F16819   0.265   1.873   2.902  0.0843 -0.0406 -0.0410
  151OSM   H10F16820   0.236   1.978   2.887 -0.1857  0.3587  2.6884
  151OSM   C11F16821   0.167   1.796   2.990 -0.2536  1.0151 -0.0354
  151OSM   H11F16822   0.201   1.699   3.033 -0.6186 -0.3922 -2.7019
  151OSM   H11G16823   0.078   1.771   2.929  0.2001 -0.9926  0.0613
  151OSM   C12F16824   0.122   1.891   3.100 -0.7987 -0.3284 -0.0104
  151OSM   H12F16825   0.025   1.866   3.148 -1.0092  0.9076  0.2445
  151OSM   H12G16826   0.109   1.996   3.066  0.9320 -0.5202 -1.4722
  151OSM   C13F16827   0.226   1.888   3.215  0.3411  0.8004 -0.0236
  151OSM   H13F16828   0.195   1.963   3.292 -0.3789  1.6380 -1.0946
  151OSM   H13G16829   0.324   1.893   3.163  0.1596  0.7790 -0.3736
  151OSM   C14F16830   0.225   1.758   3.296 -0.7970 -0.0153  0.2195
  151OSM   H14F16831   0.251   1.670   3.235  1.1608  0.0587  0.8599
  151OSM   H14G16832   0.119   1.745   3.326 -0.8286 -2.2123 -0.6840
  151OSM   C15F16833   0.330   1.756   3.414  0.5703 -0.1146 -0.2097
  151OSM   H15F16834   0.335   1.862   3.449 -0.0162 -0.2582  0.3423
  151OSM   H15G16835   0.412   1.726   3.346 -0.4319  0.1751 -1.5763
  151OSM   C16F16836   0.304   1.666   3.526  0.1764  0.3204 -0.9579
  151OSM   H16F16837   0.284   1.561   3.493  2.0815  0.1292 -1.6568
  151OSM   H16G16838   0.226   1.696   3.599  2.2362  1.9736  0.6706
  151OSM   C17F16839   0.434   1.644   3.617  0.1059 -0.4987 -0.0804
  151OSM   H17F16840   0.525   1.645   3.552  1.1536  0.7863  1.3379
  151OSM   H17G16841   0.426   1.550   3.676  0.6029  1.1418  2.7519
  151OSM   C18F16842   0.448   1.762   3.706 -0.0350 -0.3315 -0.7238
  151OSM   H18F16843   0.454   1.862   3.658 -1.1912  0.0955 -0.0419
  151OSM   H18G16844   0.533   1.751   3.777 -0.0558 -2.9248 -1.0081
  151OSM   H18H16845   0.358   1.761   3.773  0.5749  3.6834  0.4395
  152OSM      N16846   2.824   0.607   2.162  0.3787 -0.0505  0.1231
  152OSM    C1516847   2.781   0.463   2.158 -0.6912  0.0831 -0.1452
  152OSM   H15A16848   2.700   0.446   2.087  1.4806 -1.5552 -2.4172
  152OSM   H15B16849   2.766   0.417   2.255  0.1448 -1.3782 -0.6734
  152OSM   H15C16850   2.854   0.394   2.117 -2.1772 -1.6266 -0.0617
  152OSM    C1416851   2.949   0.628   2.249  0.4143 -0.0222 -0.1803
  152OSM   H14A16852   2.973   0.732   2.266  0.6097 -0.0846 -0.0746
  152OSM   H14B16853   3.039   0.594   2.199  2.9395  0.8496  3.3485
  152OSM   H14C16854   2.944   0.582   2.347  1.6360  0.3361  0.0689
  152OSM    C1316855   2.858   0.651   2.023 -0.7057 -0.0955 -0.3280
  152OSM   H13A16856   2.921   0.574   1.982 -0.6879  0.1296 -0.7300
  152OSM   H13B16857   2.916   0.742   2.017  0.6123 -0.9174 -0.1876
  152OSM   H13C16858   2.772   0.670   1.960  0.8163 -0.1290 -2.5377
  152OSM    C1216859   2.702   0.687   2.213 -0.2460 -0.1200 -0.2153
  152OSM   H12A16860   2.752   0.782   2.229  2.0507 -1.0459 -1.4099
  152OSM   H12B16861   2.657   0.660   2.307 -1.6027  0.1328 -0.7663
  152OSM    C1116862   2.590   0.724   2.109  0.2249 -0.3669 -0.3124
  152OSM   H11A16863   2.637   0.771   2.020  0.0546  0.5554  0.0642
  152OSM   H11B16864   2.525   0.802   2.155  1.6877  0.9608 -0.4300
  152OSM      P16865   2.416   0.531   2.161 -0.2417 -0.1351  0.0709
  152OSM    O1316866   2.285   0.575   2.111 -0.8083  0.2312 -0.0447
  152OSM    O1416867   2.456   0.390   2.159  0.4306 -0.1500  0.1387
  152OSM    O1116868   2.434   0.601   2.304  0.1305 -0.2392 -0.2635
  152OSM    O1216869   2.527   0.608   2.070 -0.2299 -0.2328 -0.1311
  152OSM    C1S16870   2.458   0.512   2.418 -0.3345 -0.4005  0.3880
  152OSM    H1S16871   2.558   0.463   2.416 -0.3512 -0.4199 -0.0756
  152OSM    H1T16872   2.391   0.425   2.430  2.3690 -2.5419  1.1809
  152OSM     NF16873   2.485   0.486   2.661 -0.6202 -0.2914 -0.2639
  152OSM    HNF16874   2.406   0.440   2.701 -0.7806 -0.7617 -1.1070
  152OSM    C2S16875   2.450   0.588   2.558 -0.2945 -0.0715  0.1099
  152OSM    H2S16876   2.534   0.660   2.561  1.8726 -2.4820  0.8036
  152OSM    C3S16877   2.306   0.657   2.573 -0.1775 -0.4362 -0.5799
  152OSM    H3S16878   2.232   0.575   2.560  0.1703 -0.5670 -1.8976
  152OSM     O316879   2.273   0.739   2.465  0.4090 -0.4632  0.6229
  152OSM    HO316880   2.342   0.730   2.399  0.1331 -1.7927  0.4877
  152OSM    C4S16881   2.287   0.724   2.714  0.2078  0.3448  0.9741
  152OSM    H4S16882   2.222   0.667   2.782 -2.1560  0.7290 -0.8268
  152OSM    C5S16883   2.337   0.838   2.751 -0.9906 -0.8313  0.3221
  152OSM    H5S16884   2.373   0.909   2.675 -0.4408 -0.7958  0.6098
  152OSM    C6S16885   2.312   0.898   2.883 -0.2824 -0.4850  0.1711
  152OSM    H6S16886   2.217   0.955   2.876 -0.0051  0.1283  1.2179
  152OSM    H6T16887   2.392   0.969   2.912 -1.4396  0.7024  0.5609
  152OSM    C7S16888   2.298   0.801   3.001  0.8728  0.6006  0.4373
  152OSM    H7S16889   2.376   0.722   2.997  0.7589  0.4140  1.4535
  152OSM    H7T16890   2.203   0.748   2.979  2.0318 -1.1452 -0.5890
  152OSM    C8S16891   2.288   0.878   3.133 -0.6958 -0.1248 -0.8858
  152OSM    H8S16892   2.189   0.920   3.160 -1.3236 -2.4390  0.7377
  152OSM    H8T16893   2.368   0.955   3.131 -1.1496  0.3482 -0.9032
  152OSM    C9S16894   2.318   0.785   3.255 -0.1012 -0.0878 -0.9286
  152OSM    H9S16895   2.411   0.729   3.230 -1.2283 -3.1032  1.1002
  152OSM    H9T16896   2.233   0.714   3.253  2.0862 -2.8372 -1.5676
  152OSM   C10S16897   2.332   0.859   3.392  0.1212  0.2146 -0.5736
  152OSM   H10S16898   2.253   0.937   3.399 -0.9912 -0.9360  0.4138
  152OSM   H10T16899   2.435   0.899   3.398  0.8604 -1.6808  0.4543
  152OSM   C11S16900   2.329   0.768   3.516  0.2218  0.4145 -0.1361
  152OSM   H11S16901   2.429   0.720   3.520 -0.9764 -2.2890  0.0765
  152OSM   H11T16902   2.251   0.689   3.503  0.8955 -0.2085 -0.5006
  152OSM   C12S16903   2.306   0.855   3.636 -0.1626 -0.5349 -0.7402
  152OSM   H12S16904   2.388   0.929   3.643 -0.5169 -0.1625 -0.4610
  152OSM   H12T16905   2.307   0.795   3.730  0.4028 -0.2804 -0.5824
  152OSM   C13S16906   2.170   0.926   3.642  0.1751  0.4006 -0.4575
  152OSM   H13S16907   2.083   0.870   3.602  0.4851 -0.5837  0.2053
  152OSM   H13T16908   2.179   1.016   3.578 -0.4248 -0.2173 -1.4409
  152OSM   C14S16909   2.136   0.976   3.791  0.4395  1.0684  0.5024
  152OSM   H14S16910   2.144   0.888   3.859 -0.0854  0.1077 -0.6307
  152OSM   H14T16911   2.029   1.008   3.786 -0.6273 -1.9218  1.5150
  152OSM   C15S16912   2.211   1.109   3.817  0.4714  0.0719  0.9345
  152OSM   H15S16913   2.203   1.186   3.737 -1.7254  0.1926  1.2096
  152OSM   H15T16914   2.320   1.093   3.824  0.7032  0.7849 -0.6597
  152OSM   C16S16915   2.173   1.157   3.959  0.3972  0.6231  0.0478
  152OSM   H16S16916   2.212   1.077   4.026 -2.3298 -2.0372 -1.2898
  152OSM   H16T16917   2.063   1.157   3.974  0.4034  1.1743  0.1149
  152OSM   C17S16918   2.232   1.291   3.993  0.4418  0.5040  0.2742
  152OSM   H17S16919   2.210   1.357   3.906  1.0701  1.0373  0.5195
  152OSM   H17T16920   2.342   1.288   4.006  0.6602  1.6270 -1.0616
  152OSM   C18S16921   2.178   1.361   4.120  0.2067  0.2218  0.1600
  152OSM   H18S16922   2.068   1.358   4.105 -0.0732 -0.4129  2.0931
  152OSM   H18T16923   2.225   1.461   4.130  0.4839  0.2435 -1.1790
  152OSM   H18U16924   2.196   1.298   4.210  2.3220  0.3068 -0.1617
  152OSM    C1F16925   2.608   0.430   2.672 -0.1675  0.9712 -0.3842
  152OSM     OF16926   2.711   0.461   2.612 -0.3605 -0.1534  0.6286
  152OSM    C2F16927   2.606   0.297   2.740  0.2817 -0.0596  0.0133
  152OSM    H2F16928   2.590   0.210   2.673  2.8058 -0.2317 -0.4714
  152OSM    H2G16929   2.524   0.297   2.815 -1.3977  0.7636 -1.7247
  152OSM    C3F16930   2.729   0.295   2.828 -0.3671 -0.3609 -0.6725
  152OSM    H3F16931   2.757   0.380   2.894  2.8133 -0.8751 -1.2139
  152OSM    H3G16932   2.815   0.286   2.758  0.0320 -0.9348 -0.1171
  152OSM    C4F16933   2.738   0.176   2.926 -0.0042  0.6348 -0.3558
  152OSM    H4F16934   2.725   0.073   2.886  0.1744 -0.9049  3.1671
  152OSM    H4G16935   2.670   0.207   3.009  3.3583  3.4332  1.6437
  152OSM    C5F16936   2.877   0.177   2.998  0.1624 -0.3125 -0.1818
  152OSM    H5F16937   2.883   0.281   3.039 -0.7706 -0.1283 -0.4984
  152OSM    H5G16938   2.962   0.181   2.926  0.7161  2.0922  0.4841
  152OSM    C6F16939   2.886   0.088   3.125 -0.2158 -0.1839  0.1797
  152OSM    H6F16940   2.894  -0.017   3.089  0.6161 -0.4185  1.0228
  152OSM    H6G16941   2.794   0.112   3.183 -0.8879 -1.1032 -0.4640
  152OSM    C7F16942   3.012   0.104   3.207  0.9075 -0.1300 -0.3011
  152OSM    H7F16943   3.009   0.205   3.255 -1.3805  0.8399 -2.2471
  152OSM    H7G16944   3.103   0.096   3.143  1.5865 -1.1450  0.7707
  152OSM    C8F16945   3.017   0.000   3.316  0.2648  0.3199 -0.0997
  152OSM    H8F16946   3.010  -0.103   3.277 -1.5519 -0.3276  1.7518
  152OSM    H8G16947   2.927   0.013   3.379  1.3595  2.4744  1.1834
  152OSM    C9F16948   3.136   0.008   3.404  0.0093  0.0480  1.0275
  152OSM    H9F16949   3.225   0.038   3.347 -0.7252  0.1864 -0.0638
  152OSM   C10F16950   3.154  -0.016   3.530 -0.3235 -0.4996 -0.0969
  152OSM   H10F16951   3.254   0.004   3.572 -0.7620 -0.3490  0.9128
  152OSM   C11F16952   3.048  -0.065   3.629 -0.5873 -0.6263 -0.2792
  152OSM   H11F16953   3.029  -0.175   3.631  1.1967 -0.9746 -0.8092
  152OSM   H11G16954   2.946  -0.021   3.622 -0.1688  1.0938  2.7197
  152OSM   C12F16955   3.102  -0.026   3.769 -0.2970  0.1744 -0.2111
  152OSM   H12F16956   3.111   0.085   3.776 -1.3953  0.3756 -1.5298
  152OSM   H12G16957   3.201  -0.074   3.785 -0.4592  0.0386  0.4128
  152OSM   C13F16958   3.007  -0.073   3.877  0.9125 -0.1227  0.2514
  152OSM   H13F16959   2.999  -0.183   3.889 -2.1417 -0.0665 -0.4346
  152OSM   H13G16960   2.902  -0.044   3.858  0.7287 -0.8295  0.1414
  152OSM   C14F16961   3.041  -0.012   4.013 -0.3004 -0.1745 -0.6432
  152OSM   H14F16962   2.965  -0.040   4.089 -1.0977  0.8146 -1.0486
  152OSM   H14G16963   3.029   0.098   4.004 -0.4602 -0.3152 -2.6742
  152OSM   C15F16964   3.174  -0.055   4.072  0.9656  0.6971  0.8103
  152OSM   H15F16965   3.262  -0.022   4.012  0.8966  1.4307  1.1038
  152OSM   H15G16966   3.172  -0.166   4.061  0.6916  0.7661  0.1636
  152OSM   C16F16967   3.197  -0.017   4.221  0.3339  0.6296 -0.4922
  152OSM   H16F16968   3.116  -0.043   4.293  0.9003  0.1272 -0.0195
  152OSM   H16G16969   3.199   0.094   4.221 -2.5244  0.7584  0.2850
  152OSM   C17F16970   3.321  -0.084   4.282  0.6431  0.0307 -0.5179
  152OSM   H17F16971   3.410  -0.054   4.223 -2.1229  3.2200 -3.5056
  152OSM   H17G16972   3.301  -0.193   4.278 -4.3869  0.6535  0.3638
  152OSM   C18F16973   3.333  -0.048   4.431  0.5296  0.2359  0.0220
  152OSM   H18F16974   3.243  -0.093   4.478 -0.2088  1.1187 -0.5333
  152OSM   H18G16975   3.330   0.062   4.440 -1.0224  0.2157  0.0192
  152OSM   H18H16976   3.430  -0.086   4.470  0.5999  1.1807  0.7921
  153OSM      N16977   2.816   1.467   2.068  0.3458  0.1499 -0.0597
  153OSM    C1516978   2.686   1.407   2.029 -0.8548  0.3979 -0.2750
  153OSM   H15A16979   2.659   1.440   1.930 -0.4932  0.9139 -0.2018
  153OSM   H15B16980   2.614   1.442   2.101  0.1862  0.3356  0.8328
  153OSM   H15C16981   2.693   1.299   2.032 -1.0322  0.1500 -4.0306
  153OSM    C1416982   2.914   1.407   1.973 -0.2997  0.3673  0.1249
  153OSM   H14A16983   2.913   1.299   1.978 -1.9322  0.3139 -0.4955
  153OSM   H14B16984   3.013   1.438   1.999  0.4394 -2.4851  1.0934
  153OSM   H14C16985   2.900   1.441   1.871 -0.3464 -1.5399 -0.5510
  153OSM    C1316986   2.811   1.617   2.061  0.0446 -0.2356 -0.1154
  153OSM   H13A16987   2.907   1.661   2.085  0.0650  0.7868 -1.8111
  153OSM   H13B16988   2.741   1.664   2.128  2.8698  1.6396  1.7338
  153OSM   H13C16989   2.797   1.637   1.955 -1.0300 -1.8264 -0.3069
  153OSM    C1216990   2.852   1.419   2.206 -0.5031  0.3911  0.6388
  153OSM   H12A16991   2.797   1.480   2.276 -0.9944  1.6526 -0.8040
  153OSM   H12B16992   2.954   1.443   2.231 -0.5884  0.6572  0.7352
  153OSM    C1116993   2.829   1.265   2.238  0.0729 -0.2406  0.3073
  153OSM   H11A16994   2.723   1.233   2.238  0.7510 -2.6469  0.7828
  153OSM   H11B16995   2.869   1.260   2.342  0.2678 -0.8753  0.2070
  153OSM      P16996   2.866   1.031   2.128 -0.0525 -0.1040  0.0196
  153OSM    O1316997   2.742   1.031   2.048  0.2724  0.3376  0.3835
  153OSM    O1416998   2.980   0.954   2.074  0.2230 -0.8399 -0.0882
  153OSM    O1116999   2.842   0.974   2.270  0.2059  0.3809  0.4572
  153OSM    O1217000   2.908   1.182   2.157  0.1203  0.6880 -0.5132
  153OSM    C1S17001   2.933   0.981   2.376 -0.0234 -0.1983 -0.3361
  153OSM    H1S17002   2.998   1.071   2.372  0.0578 -0.2294  0.1956
  153OSM    H1T17003   2.984   0.883   2.388  0.8568  0.1328 -1.2399
  153OSM     NF17004   2.950   1.004   2.626 -0.2389 -0.9744  0.2563
  153OSM    HNF17005   2.978   0.918   2.669  0.8466 -1.0730 -0.5889
  153OSM    C2S17006   2.856   0.991   2.516 -0.0595 -0.2520 -0.7893
  153OSM    H2S17007   2.796   1.084   2.520 -0.0281 -0.0917 -2.9947
  153OSM    C3S17008   2.755   0.868   2.531  0.7899 -0.1421 -0.1080
  153OSM    H3S17009   2.807   0.773   2.506 -0.5746 -0.5314 -1.6789
  153OSM     O317010   2.637   0.881   2.446  0.0811  0.1959 -0.1647
  153OSM    HO317011   2.651   0.961   2.394 -1.6396  0.7290  0.1169
  153OSM    C4S17012   2.697   0.866   2.665 -0.0183 -0.1129 -1.1855
  153OSM    H4S17013   2.645   0.957   2.696 -0.3424 -0.4367 -0.7723
  153OSM    C5S17014   2.717   0.767   2.754  0.1955 -0.0231 -0.3164
  153OSM    H5S17015   2.782   0.690   2.709  1.7819  0.9524  0.1928
  153OSM    C6S17016   2.667   0.775   2.894  0.5329  0.3383 -0.0460
  153OSM    H6S17017   2.591   0.695   2.909 -0.1110  1.0132  0.3348
  153OSM    H6T17018   2.609   0.868   2.910 -0.6897 -0.0737 -1.8715
  153OSM    C7S17019   2.764   0.756   3.007 -0.1664  0.7705  0.6616
  153OSM    H7S17020   2.843   0.835   3.011 -1.7809  2.5663 -0.8452
  153OSM    H7T17021   2.819   0.660   3.003 -1.6667 -0.0994  0.0570
  153OSM    C8S17022   2.703   0.768   3.150 -0.3726  0.5779 -0.6454
  153OSM    H8S17023   2.633   0.686   3.177 -0.6892  1.3697  1.0134
  153OSM    H8T17024   2.649   0.864   3.158 -2.6722 -0.6179 -0.9759
  153OSM    C9S17025   2.817   0.771   3.257 -0.3552  1.0400  0.7944
  153OSM    H9S17026   2.895   0.840   3.219  0.1752 -0.9575 -2.1387
  153OSM    H9T17027   2.861   0.669   3.260 -2.2277  0.2077  1.5149
  153OSM   C10S17028   2.776   0.820   3.393 -0.3798  0.0054  0.1170
  153OSM   H10S17029   2.686   0.886   3.390  0.0179  0.5509  0.0524
  153OSM   H10T17030   2.850   0.879   3.451 -2.4265  2.5962  0.2795
  153OSM   C11S17031   2.731   0.702   3.488  0.1644  0.6393 -0.1478
  153OSM   H11S17032   2.806   0.621   3.503  1.7238  1.6774 -1.9413
  153OSM   H11T17033   2.641   0.651   3.446  0.1235  1.0243 -0.5278
  153OSM   C12S17034   2.685   0.764   3.627  0.2692  0.7354  1.0792
  153OSM   H12S17035   2.590   0.814   3.599  1.4626  2.2547 -0.4209
  153OSM   H12T17036   2.774   0.823   3.654  2.1506 -0.4059 -2.0905
  153OSM   C13S17037   2.664   0.654   3.734 -0.6576  0.8212  0.4953
  153OSM   H13S17038   2.764   0.609   3.750 -0.8608  0.6029  1.1988
  153OSM   H13T17039   2.598   0.571   3.698  0.4623  0.8370 -1.7712
  153OSM   C14S17040   2.610   0.716   3.867 -0.3012 -0.5182 -0.0492
  153OSM   H14S17041   2.523   0.779   3.837 -0.4132 -0.0416  1.2351
  153OSM   H14T17042   2.687   0.789   3.900  1.0929 -0.4619 -3.0147
  153OSM   C15S17043   2.584   0.620   3.980 -0.0746  0.7612 -0.2092
  153OSM   H15S17044   2.594   0.679   4.073  0.1466  3.0710 -1.6133
  153OSM   H15T17045   2.673   0.553   3.980  0.4457  1.4435  0.1349
  153OSM   C16S17046   2.454   0.551   3.958 -0.1107  0.0336  0.4163
  153OSM   H16S17047   2.461   0.500   3.860  0.2734  2.6634 -1.0152
  153OSM   H16T17048   2.382   0.636   3.959  1.8919  1.8176  0.4479
  153OSM   C17S17049   2.436   0.448   4.067  0.7396 -0.1148 -0.7809
  153OSM   H17S17050   2.414   0.498   4.165  1.2218  2.6432 -1.9728
  153OSM   H17T17051   2.528   0.392   4.093  1.4050  0.8802 -0.9317
  153OSM   C18S17052   2.321   0.345   4.035  0.1339  0.4114 -0.0332
  153OSM   H18S17053   2.347   0.301   3.937 -0.8196 -1.1581  0.3736
  153OSM   H18T17054   2.223   0.396   4.022 -1.2723 -1.0418  3.5412
  153OSM   H18U17055   2.312   0.266   4.113  0.0010  0.8059  0.3530
  153OSM    C1F17056   3.029   1.110   2.653  0.0264 -0.0510  0.3451
  153OSM     OF17057   3.015   1.211   2.590  0.3396 -0.8435  0.4348
  153OSM    C2F17058   3.135   1.088   2.765 -0.4202 -0.2688  0.1922
  153OSM    H2F17059   3.204   1.171   2.739 -0.4992 -0.1622  0.3223
  153OSM    H2G17060   3.183   0.991   2.741 -0.1760 -0.0419 -0.2397
  153OSM    C3F17061   3.082   1.074   2.902 -0.4374  0.4333 -0.3132
  153OSM    H3F17062   3.174   1.070   2.965 -1.0770  0.3055  0.6438
  153OSM    H3G17063   3.019   0.983   2.900  0.8656 -0.5222  0.4709
  153OSM    C4F17064   2.988   1.193   2.943  0.3351  0.4657  0.6359
  153OSM    H4F17065   2.908   1.184   2.866  0.1465 -1.9933  1.0303
  153OSM    H4G17066   3.038   1.292   2.935  0.9796  0.0024 -3.4262
  153OSM    C5F17067   2.922   1.168   3.081  0.3940  0.4340 -0.1718
  153OSM    H5F17068   2.881   1.064   3.083  1.2782  0.0885  0.4824
  153OSM    H5G17069   2.851   1.250   3.102  1.2480  1.2332 -0.3709
  153OSM    C6F17070   3.022   1.178   3.200  0.0181  0.0264 -0.4884
  153OSM    H6F17071   3.067   1.277   3.178  1.9979 -0.6553  0.3214
  153OSM    H6G17072   3.107   1.106   3.199 -0.1970 -0.2647 -2.2121
  153OSM    C7F17073   2.959   1.186   3.340  0.0137 -0.6693 -0.2829
  153OSM    H7F17074   2.904   1.092   3.359 -3.6822  1.4637  0.4669
  153OSM    H7G17075   2.885   1.268   3.337 -1.3011 -1.8229 -0.3512
  153OSM    C8F17076   3.066   1.220   3.448  0.4361  0.6674  0.1074
  153OSM    H8F17077   3.142   1.295   3.418  1.7111 -0.4385  0.4663
  153OSM    H8G17078   3.134   1.133   3.461  0.1667  0.5718  0.9450
  153OSM    C9F17079   3.005   1.252   3.585  0.0423  0.9758  0.2617
  153OSM    H9F17080   2.919   1.187   3.608 -0.4063  1.2292 -0.6829
  153OSM   C10F17081   3.038   1.347   3.670 -0.1401 -0.3489 -0.0151
  153OSM   H10F17082   2.990   1.355   3.769 -2.6077  0.5233 -1.1890
  153OSM   C11F17083   3.146   1.449   3.650  0.1847 -0.0613 -0.0837
  153OSM   H11F17084   3.111   1.536   3.590  0.7405 -0.4348 -0.9659
  153OSM   H11G17085   3.223   1.397   3.590 -0.3456 -0.8170 -0.1144
  153OSM   C12F17086   3.212   1.492   3.787 -0.1610  0.4053 -0.3239
  153OSM   H12F17087   3.299   1.547   3.744  0.1379 -0.0976 -0.3662
  153OSM   H12G17088   3.244   1.399   3.837 -2.7908 -0.0150  0.7005
  153OSM   C13F17089   3.122   1.579   3.878  0.5757 -0.1991  0.4983
  153OSM   H13F17090   3.025   1.532   3.904  0.3695 -0.6566 -1.0268
  153OSM   H13G17091   3.088   1.663   3.814 -0.0753 -0.3928  0.5815
  153OSM   C14F17092   3.189   1.636   4.002  0.2498 -0.1350  1.0349
  153OSM   H14F17093   3.273   1.706   3.983  0.6353 -0.9804 -0.5368
  153OSM   H14G17094   3.249   1.558   4.054  0.3198 -1.0826 -0.4086
  153OSM   C15F17095   3.087   1.697   4.103 -0.9727  0.1747 -0.3520
  153OSM   H15F17096   3.148   1.707   4.195  1.4738 -1.1294 -1.7392
  153OSM   H15G17097   2.998   1.631   4.114 -1.1904  0.2717 -1.4590
  153OSM   C16F17098   3.038   1.836   4.065 -0.2409 -0.0444  0.6246
  153OSM   H16F17099   3.027   1.816   3.956  1.4234 -2.9811  0.9061
  153OSM   H16G17100   3.116   1.914   4.078  1.9678 -2.0451  0.0239
  153OSM   C17F17101   2.906   1.888   4.137  0.0539 -0.7317 -0.8966
  153OSM   H17F17102   2.821   1.818   4.118 -1.7824  1.7121 -2.2028
  153OSM   H17G17103   2.869   1.986   4.102 -2.6692 -1.2966  0.1590
  153OSM   C18F17104   2.918   1.906   4.289  1.0441  0.1104 -0.5318
  153OSM   H18F17105   2.937   1.811   4.343 -0.3856 -0.6620 -1.3315
  153OSM   H18G17106   2.826   1.960   4.319  2.6880  2.1968  1.0886
  153OSM   H18H17107   3.001   1.977   4.312  1.5179 -0.7127  0.3687
  154OSM      N17108   2.293   1.604   1.831  0.3854 -0.1095 -0.0144
  154OSM    C1517109   2.256   1.731   1.763  0.5029 -0.9557 -0.4524
  154OSM   H15A17110   2.158   1.730   1.717 -0.5659  1.9796  1.4618
  154OSM   H15B17111   2.334   1.757   1.693  0.6122 -1.2970 -0.4583
  154OSM   H15C17112   2.245   1.810   1.836 -0.1153 -1.2171 -0.2547
  154OSM    C1417113   2.322   1.500   1.726  0.3845  0.0776 -0.0128
  154OSM   H14A17114   2.400   1.533   1.659 -1.4393 -0.0119 -2.2847
  154OSM   H14B17115   2.236   1.492   1.662 -0.3541 -1.8674  1.1339
  154OSM   H14C17116   2.329   1.402   1.770 -0.3498 -0.1646 -0.4257
  154OSM    C1317117   2.406   1.630   1.922 -0.6809 -0.7157 -0.0802
  154OSM   H13A17118   2.436   1.535   1.961  0.2459  0.1664  1.4478
  154OSM   H13B17119   2.381   1.689   2.009 -0.4194 -0.7869  0.0415
  154OSM   H13C17120   2.494   1.671   1.874  1.3890 -2.6272  1.8813
  154OSM    C1217121   2.171   1.553   1.904  0.1037  0.3955 -0.9590
  154OSM   H12A17122   2.088   1.561   1.835  0.5721 -0.4952 -1.6518
  154OSM   H12B17123   2.168   1.606   1.997  3.7209 -1.8247  0.6255
  154OSM    C1117124   2.164   1.407   1.964 -0.4831  0.2293 -0.8074
  154OSM   H11A17125   2.103   1.414   2.057  2.5868 -0.2430  1.4304
  154OSM   H11B17126   2.264   1.392   2.011 -1.2640 -0.3519  0.7573
  154OSM      P17127   1.966   1.324   1.828 -0.0404  0.0211 -0.1377
  154OSM    O1317128   1.925   1.456   1.783  0.4345 -0.2497  0.4001
  154OSM    O1417129   1.932   1.209   1.742  0.2796  0.5867 -0.1523
  154OSM    O1117130   1.899   1.302   1.967  0.0978 -0.3694  0.4474
  154OSM    O1217131   2.117   1.315   1.866 -0.7341 -0.4201  0.5926
  154OSM    C1S17132   1.915   1.184   2.043  0.5347  0.7940 -0.1739
  154OSM    H1S17133   2.021   1.152   2.040  0.6082  0.8569  1.1043
  154OSM    H1T17134   1.853   1.104   1.997 -1.0335  0.6127  2.0712
  154OSM     NF17135   1.907   1.119   2.281 -0.4080  0.3854  0.4221
  154OSM    HNF17136   1.854   1.036   2.299  0.5063 -0.4893 -0.7342
  154OSM    C2S17137   1.849   1.204   2.181 -0.0808 -0.2556 -0.3044
  154OSM    H2S17138   1.863   1.311   2.209 -1.4668 -0.1761  0.1717
  154OSM    C3S17139   1.698   1.185   2.174  0.3630 -0.3019  0.0354
  154OSM    H3S17140   1.675   1.077   2.160  2.0280 -0.5823 -0.9081
  154OSM     O317141   1.646   1.260   2.063 -0.5689  0.0112 -0.2112
  154OSM    HO317142   1.720   1.275   2.003  0.5380  0.6880  1.2597
  154OSM    C4S17143   1.627   1.231   2.300  0.7465  0.2888 -0.5051
  154OSM    H4S17144   1.618   1.340   2.304 -1.8055  0.1464 -0.6199
  154OSM    C5S17145   1.573   1.167   2.403  0.7903 -0.2567 -0.6403
  154OSM    H5S17146   1.591   1.059   2.414  0.2486 -0.3515 -0.6360
  154OSM    C6S17147   1.505   1.239   2.515  0.1805 -0.7491 -0.1301
  154OSM    H6S17148   1.438   1.167   2.566 -1.2061  0.4582 -0.1812
  154OSM    H6T17149   1.452   1.323   2.465  1.9610 -0.4352 -1.6184
  154OSM    C7S17150   1.605   1.307   2.607 -0.2360 -0.1175 -0.3498
  154OSM    H7S17151   1.658   1.391   2.558 -0.9588 -0.0319 -0.9880
  154OSM    H7T17152   1.697   1.252   2.638  0.4115  1.3577  0.4121
  154OSM    C8S17153   1.543   1.351   2.737  0.1458 -0.3485  0.1189
  154OSM    H8S17154   1.452   1.410   2.714  1.2658  1.1947 -0.5547
  154OSM    H8T17155   1.620   1.413   2.788  1.0886  0.0045 -1.6679
  154OSM    C9S17156   1.504   1.236   2.845 -0.6297  0.1491 -0.0482
  154OSM    H9S17157   1.601   1.190   2.869 -0.9584 -1.1227 -1.0468
  154OSM    H9T17158   1.440   1.156   2.801 -0.6660 -0.7016  1.4869
  154OSM   C10S17159   1.446   1.282   2.976 -0.1062 -0.3927 -0.2977
  154OSM   H10S17160   1.491   1.380   3.002 -0.2576 -0.3733 -0.1040
  154OSM   H10T17161   1.488   1.212   3.052 -0.2057  0.5351  0.6256
  154OSM   C11S17162   1.295   1.299   2.989  0.4317 -0.2599  0.0639
  154OSM   H11S17163   1.247   1.204   2.956  1.5420 -1.3172  1.3440
  154OSM   H11T17164   1.276   1.394   2.934  0.6944 -0.8502 -1.0759
  154OSM   C12S17165   1.245   1.324   3.136  0.0372  0.0783 -0.1070
  154OSM   H12S17166   1.135   1.314   3.127 -0.0023 -1.0227  1.2547
  154OSM   H12T17167   1.275   1.428   3.160 -1.1357  0.5898 -0.7573
  154OSM   C13S17168   1.297   1.236   3.254  0.2033  1.5540 -0.1045
  154OSM   H13S17169   1.407   1.218   3.255 -0.2873 -2.5452  1.5526
  154OSM   H13T17170   1.243   1.139   3.246  2.8094  0.1464 -3.7083
  154OSM   C14S17171   1.243   1.288   3.385  0.4043 -0.2852 -0.6321
  154OSM   H14S17172   1.136   1.317   3.374  0.6590  0.5045 -1.0582
  154OSM   H14T17173   1.307   1.375   3.411 -1.3089  0.8193  0.0636
  154OSM   C15S17174   1.263   1.194   3.507 -0.2573  0.4884 -0.2993
  154OSM   H15S17175   1.368   1.160   3.514 -1.2166 -2.7694 -0.3192
  154OSM   H15T17176   1.200   1.103   3.499  0.3168 -0.1517  1.9421
  154OSM   C16S17177   1.225   1.253   3.645 -0.4098  0.1389 -0.2020
  154OSM   H16S17178   1.132   1.312   3.628  0.3440  1.6459  0.6605
  154OSM   H16T17179   1.301   1.329   3.674  1.7202 -1.8102 -0.4333
  154OSM   C17S17180   1.216   1.145   3.756 -0.5108 -0.1272  0.1050
  154OSM   H17S17181   1.315   1.095   3.762 -1.5158 -2.0592  2.5667
  154OSM   H17T17182   1.136   1.074   3.728 -0.9453  1.1706 -2.2074
  154OSM   C18S17183   1.183   1.210   3.893  0.2036  0.5137  0.2361
  154OSM   H18S17184   1.261   1.284   3.922  1.7339 -0.8787 -0.1487
  154OSM   H18T17185   1.186   1.128   3.968 -1.8318  0.0499 -0.1205
  154OSM   H18U17186   1.079   1.248   3.891  0.0992  0.2603  0.8852
  154OSM    C1F17187   2.029   1.140   2.333  0.0284  0.1756 -0.1547
  154OSM     OF17188   2.095   1.237   2.299 -0.2782  0.4315 -0.5687
  154OSM    C2F17189   2.078   1.055   2.443 -0.0116 -0.2964  0.1627
  154OSM    H2F17190   2.145   0.977   2.402  0.4765  1.1290 -1.9605
  154OSM    H2G17191   1.988   1.010   2.491 -0.6327  1.6166  0.8863
  154OSM    C3F17192   2.154   1.140   2.550 -0.1317 -0.1770  0.6792
  154OSM    H3F17193   2.216   1.206   2.486 -1.7925  0.1709 -0.6332
  154OSM    H3G17194   2.222   1.070   2.604  0.4664 -0.6734 -0.6615
  154OSM    C4F17195   2.057   1.218   2.636 -0.1740 -0.3443 -0.1568
  154OSM    H4F17196   1.982   1.149   2.681 -0.2244 -0.4029 -0.3264
  154OSM    H4G17197   2.014   1.302   2.576 -0.7212 -0.2804  0.3180
  154OSM    C5F17198   2.136   1.273   2.746 -0.5274  0.0091 -0.2590
  154OSM    H5F17199   2.220   1.335   2.709 -0.4282 -0.9548 -1.7373
  154OSM    H5G17200   2.176   1.196   2.816 -0.5628 -0.3902 -0.6761
  154OSM    C6F17201   2.059   1.371   2.835  0.4555 -0.2629 -0.0588
  154OSM    H6F17202   2.017   1.453   2.773  1.0037  0.0203 -0.0620
  154OSM    H6G17203   2.139   1.412   2.901  1.6811 -1.0370 -1.0225
  154OSM    C7F17204   1.943   1.318   2.922 -0.1089  1.0726 -0.6224
  154OSM    H7F17205   1.854   1.270   2.875 -0.8279 -1.7620  3.0704
  154OSM    H7G17206   1.910   1.403   2.985 -0.2501  1.2875 -0.9843
  154OSM    C8F17207   1.986   1.208   3.022 -0.2745 -0.4605  0.3874
  154OSM    H8F17208   2.025   1.118   2.969  1.1740  1.1079 -1.3344
  154OSM    H8G17209   1.896   1.179   3.080 -0.6645 -1.6573 -0.7686
  154OSM    C9F17210   2.095   1.252   3.117 -0.7102  0.2147  0.0792
  154OSM    H9F17211   2.179   1.302   3.068  1.3254 -3.5729 -0.6993
  154OSM   C10F17212   2.119   1.201   3.235  0.2726 -0.0873  0.0190
  154OSM   H10F17213   2.198   1.242   3.299 -0.8311  2.7089 -0.2764
  154OSM   C11F17214   2.018   1.122   3.311 -0.0022  0.0544  0.1121
  154OSM   H11F17215   2.062   1.039   3.371 -1.7502  0.5143  2.1453
  154OSM   H11G17216   1.942   1.075   3.244  1.3869 -0.8573 -0.8881
  154OSM   C12F17217   1.939   1.214   3.405  0.6067 -0.3561 -0.4812
  154OSM   H12F17218   1.888   1.288   3.339 -1.8928 -2.9108 -1.6314
  154OSM   H12G17219   2.003   1.257   3.484 -0.4936 -2.7011  1.8259
  154OSM   C13F17220   1.821   1.146   3.479  0.0746  0.1186 -1.0151
  154OSM   H13F17221   1.871   1.107   3.570 -0.0156  2.4769  0.1304
  154OSM   H13G17222   1.786   1.058   3.421 -1.0296 -1.7713  2.3022
  154OSM   C14F17223   1.696   1.238   3.507 -0.0566  0.0083  0.2422
  154OSM   H14F17224   1.638   1.249   3.413  1.1395 -0.8338 -0.6292
  154OSM   H14G17225   1.730   1.344   3.511 -1.7266  0.6970 -1.9443
  154OSM   C15F17226   1.609   1.205   3.621 -0.1223  0.7061 -0.2197
  154OSM   H15F17227   1.566   1.103   3.615 -0.3164  0.4558  3.2128
  154OSM   H15G17228   1.526   1.278   3.633 -1.1383 -0.7320  2.1637
  154OSM   C16F17229   1.670   1.210   3.759 -0.1094  0.1608  0.4661
  154OSM   H16F17230   1.740   1.123   3.765 -0.1433 -0.0824 -1.7905
  154OSM   H16G17231   1.601   1.208   3.846  0.5693  1.9158  1.0958
  154OSM   C17F17232   1.747   1.343   3.774 -0.2539  0.3391 -0.1765
  154OSM   H17F17233   1.687   1.428   3.735  0.2216  1.6059  1.7039
  154OSM   H17G17234   1.843   1.344   3.718  0.4691 -0.7328  1.0118
  154OSM   C18F17235   1.788   1.376   3.912  0.5141  0.3353 -0.2534
  154OSM   H18F17236   1.883   1.337   3.954  0.1226 -0.4605 -0.0809
  154OSM   H18G17237   1.711   1.337   3.982  0.7321 -0.6835 -0.5583
  154OSM   H18H17238   1.787   1.487   3.917  0.5170  0.2997  0.6539
  155OSM      N17239   3.501   1.510   1.963 -0.0113  0.1574 -0.4303
  155OSM    C1517240   3.442   1.398   1.887  0.2179 -0.5061  0.0045
  155OSM   H15A17241   3.338   1.374   1.907 -0.3151 -0.2679 -2.2114
  155OSM   H15B17242   3.516   1.319   1.884  1.4877  0.6614 -0.4433
  155OSM   H15C17243   3.426   1.420   1.782  2.4760 -0.8262 -0.4503
  155OSM    C1417244   3.517   1.465   2.109  0.2658  0.6851  0.2571
  155OSM   H14A17245   3.588   1.387   2.132  0.6081  1.2636  1.2642
  155OSM   H14B17246   3.422   1.436   2.152  0.6799 -1.5430 -0.2535
  155OSM   H14C17247   3.551   1.557   2.155  1.4894  0.4160 -0.0964
  155OSM    C1317248   3.643   1.542   1.925  0.2179  0.6274  0.6013
  155OSM   H13A17249   3.680   1.618   1.991  0.8563 -0.7929  1.9458
  155OSM   H13B17250   3.645   1.588   1.828 -1.7283 -1.7528 -0.6933
  155OSM   H13C17251   3.710   1.457   1.923  0.7857  1.0882 -0.8681
  155OSM    C1217252   3.408   1.634   1.952 -0.2552 -0.1939 -0.6949
  155OSM   H12A17253   3.381   1.655   1.850 -2.0721 -3.5564 -1.0535
  155OSM   H12B17254   3.466   1.720   1.982 -0.3670  0.5032 -2.3926
  155OSM    C1117255   3.286   1.648   2.051  0.2142  0.7059 -0.3898
  155OSM   H11A17256   3.221   1.558   2.049  0.6330  0.1177  3.4644
  155OSM   H11B17257   3.221   1.728   2.009  1.5723  2.2455  0.3174
  155OSM      P17258   3.383   1.804   2.228 -0.2155  0.4007 -0.0836
  155OSM    O1317259   3.488   1.843   2.130  0.1002 -0.5105  0.4986
  155OSM    O1417260   3.272   1.893   2.240  0.2254  0.1192 -1.3545
  155OSM    O1117261   3.452   1.787   2.363 -0.4718  0.3601  0.1888
  155OSM    O1217262   3.327   1.663   2.187 -0.2542 -0.2847  0.5858
  155OSM    C1S17263   3.407   1.689   2.460  0.0243  0.0327 -0.7654
  155OSM    H1S17264   3.444   1.594   2.415  2.0067 -0.0620  0.9013
  155OSM    H1T17265   3.297   1.693   2.474 -0.2958  0.4968 -3.0159
  155OSM     NF17266   3.415   1.597   2.694  0.3160  0.2142 -0.8551
  155OSM    HNF17267   3.331   1.624   2.740  1.2161  0.3149  0.7767
  155OSM    C2S17268   3.463   1.702   2.604  0.0540 -0.0662 -0.5350
  155OSM    H2S17269   3.571   1.681   2.593 -0.2405 -2.3295  0.3336
  155OSM    C3S17270   3.449   1.844   2.663 -0.0191  1.1178 -0.6539
  155OSM    H3S17271   3.340   1.852   2.682  0.1948  1.5776  0.4186
  155OSM     O317272   3.474   1.951   2.576 -0.5825  0.1162  0.4469
  155OSM    HO317273   3.502   1.914   2.492 -0.9495 -0.0765  0.4032
  155OSM    C4S17274   3.519   1.854   2.798 -0.0795 -0.5169 -0.4533
  155OSM    H4S17275   3.606   1.786   2.806  1.0363  0.8135 -0.9530
  155OSM    C5S17276   3.483   1.917   2.915  0.6538 -0.6823 -0.0565
  155OSM    H5S17277   3.387   1.970   2.922  1.9409  1.6332  1.4590
  155OSM    C6S17278   3.549   1.907   3.044 -0.4591  0.1897 -0.4440
  155OSM    H6S17279   3.480   1.949   3.121 -1.5660  1.0069 -1.8278
  155OSM    H6T17280   3.645   1.962   3.046  0.1217 -0.4724  5.1726
  155OSM    C7S17281   3.595   1.764   3.084  0.8227  0.9731  0.2471
  155OSM    H7S17282   3.641   1.713   2.997  1.1820 -1.2593  1.6653
  155OSM    H7T17283   3.504   1.704   3.104  1.3877  0.3198  0.9450
  155OSM    C8S17284   3.687   1.772   3.209  0.4966  0.2810  0.0379
  155OSM    H8S17285   3.753   1.859   3.190 -0.4127  1.2663  1.2963
  155OSM    H8T17286   3.757   1.687   3.227  0.5433  0.5265  1.0578
  155OSM    C9S17287   3.588   1.778   3.327 -0.1053  0.2208 -0.2086
  155OSM    H9S17288   3.529   1.684   3.321 -1.8091  1.2152  0.4641
  155OSM    H9T17289   3.513   1.860   3.329  0.1790  0.5034 -0.7844
  155OSM   C10S17290   3.661   1.796   3.461 -0.0354  0.1912 -0.0483
  155OSM   H10S17291   3.734   1.874   3.429 -0.0046 -0.5704 -2.0250
  155OSM   H10T17292   3.724   1.710   3.493 -2.3617 -1.6651 -0.1688
  155OSM   C11S17293   3.564   1.836   3.576 -0.0896  0.1715 -0.7249
  155OSM   H11S17294   3.508   1.741   3.595 -2.4742  1.7096  0.4209
  155OSM   H11T17295   3.491   1.916   3.553 -0.7687 -0.7483 -1.8581
  155OSM   C12S17296   3.648   1.871   3.702 -0.1634 -0.2488 -0.0741
  155OSM   H12S17297   3.709   1.961   3.681 -0.0849 -0.1031  0.7504
  155OSM   H12T17298   3.707   1.784   3.739 -1.6888 -1.7493 -0.9621
  155OSM   C13S17299   3.552   1.909   3.817  0.5440  0.9501 -0.2274
  155OSM   H13S17300   3.495   1.817   3.840  1.2745 -0.5126 -3.5669
  155OSM   H13T17301   3.488   1.989   3.775  1.5917  0.4423 -3.0474
  155OSM   C14S17302   3.621   1.952   3.949  0.2222  0.5721  0.2162
  155OSM   H14S17303   3.694   2.030   3.919 -0.7062  2.0104  1.4943
  155OSM   H14T17304   3.684   1.869   3.987 -0.7119 -0.0213  0.5175
  155OSM   C15S17305   3.522   1.987   4.064  0.2461 -0.0138  0.4344
  155OSM   H15S17306   3.462   1.899   4.095 -0.6009 -0.0098 -1.0592
  155OSM   H15T17307   3.451   2.062   4.021  0.3891 -0.0071  0.2088
  155OSM   C16S17308   3.582   2.051   4.183 -0.0474 -0.1659 -0.0011
  155OSM   H16S17309   3.648   2.134   4.148 -1.5277  1.9658  1.9796
  155OSM   H16T17310   3.633   1.972   4.243  0.5600  0.7455  0.7140
  155OSM   C17S17311   3.481   2.125   4.275  0.0655 -0.0190 -0.3354
  155OSM   H17S17312   3.418   2.196   4.217 -2.6699 -2.6496 -0.8035
  155OSM   H17T17313   3.537   2.188   4.348 -2.0885  2.9610 -1.0501
  155OSM   C18S17314   3.400   2.034   4.358  0.2012  0.2575  0.1732
  155OSM   H18S17315   3.349   2.088   4.441  2.6923  0.8935  1.4039
  155OSM   H18T17316   3.462   1.957   4.408  0.0330 -1.1313 -1.6679
  155OSM   H18U17317   3.329   1.971   4.300  0.6624 -1.8694  1.7961
  155OSM    C1F17318   3.463   1.474   2.696  0.1234  0.2313  0.8782
  155OSM     OF17319   3.532   1.429   2.604 -0.1071 -0.0814 -0.4462
  155OSM    C2F17320   3.417   1.394   2.818  0.1272 -0.7020 -0.0408
  155OSM    H2F17321   3.358   1.312   2.773 -1.2209 -0.9496  2.0283
  155OSM    H2G17322   3.349   1.456   2.880  2.3786  0.0514  1.8296
  155OSM    C3F17323   3.531   1.324   2.885 -0.6114  0.4083  0.1213
  155OSM    H3F17324   3.594   1.401   2.934  1.1517  0.7962 -2.5679
  155OSM    H3G17325   3.582   1.250   2.819 -0.4074 -0.3094  1.0582
  155OSM    C4F17326   3.474   1.223   2.988  0.6761  0.2078 -0.3520
  155OSM    H4F17327   3.510   1.120   2.966 -0.6839 -0.1395 -1.0872
  155OSM    H4G17328   3.363   1.229   2.993  0.7267  0.2367  1.1382
  155OSM    C5F17329   3.511   1.256   3.135 -0.5298 -0.6257  0.4599
  155OSM    H5F17330   3.452   1.192   3.204 -0.8860 -1.2559 -0.4132
  155OSM    H5G17331   3.490   1.363   3.156  1.7025  0.3998 -2.0270
  155OSM    C6F17332   3.660   1.242   3.166 -0.0306 -1.0345 -0.2392
  155OSM    H6F17333   3.715   1.321   3.112 -0.1975 -0.9097 -0.2289
  155OSM    H6G17334   3.677   1.141   3.122 -1.8389 -2.5114  2.1502
  155OSM    C7F17335   3.702   1.242   3.317 -0.4403  0.2470  0.2722
  155OSM    H7F17336   3.811   1.222   3.327 -0.2652  1.7047  1.6607
  155OSM    H7G17337   3.654   1.169   3.386  0.4378 -0.3869  0.2240
  155OSM    C8F17338   3.664   1.374   3.370  0.0338 -1.2730 -1.0391
  155OSM    H8F17339   3.557   1.364   3.398  0.0843 -1.2743 -0.8463
  155OSM    H8G17340   3.660   1.452   3.291  1.4970 -0.6264 -0.5245
  155OSM    C9F17341   3.755   1.424   3.478  0.4545  0.2350  0.2933
  155OSM    H9F17342   3.858   1.410   3.441  0.3325 -1.8010  0.5826
  155OSM   C10F17343   3.735   1.450   3.603 -0.1109 -0.2013 -0.3558
  155OSM   H10F17344   3.822   1.488   3.659 -1.0323 -2.5293  2.9491
  155OSM   C11F17345   3.608   1.451   3.674  0.3618  0.1908 -0.1898
  155OSM   H11F17346   3.531   1.396   3.617 -0.3153  0.2333  0.6659
  155OSM   H11G17347   3.575   1.557   3.667  1.5369  0.5264 -0.9714
  155OSM   C12F17348   3.615   1.401   3.821 -0.0761  0.2086  0.3987
  155OSM   H12F17349   3.676   1.308   3.821  4.3316  2.7386 -1.3977
  155OSM   H12G17350   3.506   1.388   3.838 -0.2577  1.1505  0.0612
  155OSM   C13F17351   3.671   1.502   3.914  0.1837  0.3482  0.0335
  155OSM   H13F17352   3.619   1.593   3.878 -1.0313 -0.3817 -0.1171
  155OSM   H13G17353   3.782   1.501   3.909  0.2648 -0.6081  1.4948
  155OSM   C14F17354   3.643   1.465   4.057 -0.2951  0.1936 -0.3997
  155OSM   H14F17355   3.682   1.363   4.074 -2.2184 -0.1594  2.7686
  155OSM   H14G17356   3.533   1.464   4.071 -0.4207  1.2705 -1.1471
  155OSM   C15F17357   3.688   1.564   4.162  0.3533 -0.0382 -0.0726
  155OSM   H15F17358   3.657   1.669   4.143  1.6507  0.9187  2.4635
  155OSM   H15G17359   3.798   1.549   4.176  0.0671 -2.1337  0.2757
  155OSM   C16F17360   3.607   1.554   4.293 -0.2749  0.0221 -0.6548
  155OSM   H16F17361   3.649   1.467   4.349 -0.5514  0.9215  1.0375
  155OSM   H16G17362   3.499   1.533   4.277 -0.3673 -1.3549  1.3579
  155OSM   C17F17363   3.626   1.668   4.392  0.4434  0.8394  0.3615
  155OSM   H17F17364   3.580   1.639   4.489  1.3363 -0.7645  0.3240
  155OSM   H17G17365   3.575   1.752   4.340  1.0973  1.4277  0.6545
  155OSM   C18F17366   3.768   1.705   4.416  0.0917 -0.3138  0.3670
  155OSM   H18F17367   3.827   1.732   4.326  0.9066  0.4626  1.1105
  155OSM   H18G17368   3.808   1.606   4.447 -0.3298 -0.3920  0.6646
  155OSM   H18H17369   3.795   1.787   4.487  2.5873 -1.9965  1.5293
  156OSM      N17370   5.171   1.216   2.007 -0.5236  0.4963 -0.6262
  156OSM    C1517371   5.039   1.149   2.033  0.5433  0.1606  0.1865
  156OSM   H15A17372   4.977   1.205   2.102 -0.7485  0.1253 -0.9191
  156OSM   H15B17373   5.050   1.047   2.067  1.5167 -0.9574 -3.1553
  156OSM   H15C17374   4.984   1.136   1.942  2.5258  0.6170 -1.1453
  156OSM    C1417375   5.250   1.136   1.900  0.0412  0.0068 -0.2548
  156OSM   H14A17376   5.354   1.162   1.887  0.0809  0.1763  0.3775
  156OSM   H14B17377   5.202   1.139   1.803 -1.9122  0.8993  0.6823
  156OSM   H14C17378   5.254   1.035   1.937  1.2635  0.8483  2.1562
  156OSM    C1317379   5.154   1.364   1.967 -0.4966  0.4497  0.3619
  156OSM   H13A17380   5.251   1.411   1.961 -0.5744  0.6817  0.8449
  156OSM   H13B17381   5.108   1.426   2.043 -2.3173  0.1109 -0.4200
  156OSM   H13C17382   5.101   1.381   1.875  0.3287 -0.4007 -0.2867
  156OSM    C1217383   5.245   1.200   2.143  0.0416  0.0738 -0.5962
  156OSM   H12A17384   5.190   1.241   2.227 -0.4663 -0.1082 -0.8368
  156OSM   H12B17385   5.334   1.261   2.137  0.6574 -0.8195 -0.7184
  156OSM    C1117386   5.295   1.055   2.203 -0.9142 -0.3516  0.0239
  156OSM   H11A17387   5.375   1.077   2.276 -0.7153 -2.5008  0.5384
  156OSM   H11B17388   5.350   1.010   2.118  1.3427 -0.1548  1.3070
  156OSM      P17389   5.100   1.027   2.374  0.5469 -0.2564 -0.0149
  156OSM    O1317390   5.169   1.150   2.424  0.3344 -0.8766  0.2314
  156OSM    O1417391   4.961   1.033   2.328  0.3296  0.1724  0.2161
  156OSM    O1117392   5.113   0.916   2.483  0.1849  0.9118  0.6394
  156OSM    O1217393   5.190   0.969   2.250 -0.2769 -0.5684  0.0013
  156OSM    C1S17394   5.191   0.920   2.598 -0.1487  0.5485  0.2027
  156OSM    H1S17395   5.285   0.978   2.591  1.5570 -2.1373 -0.7089
  156OSM    H1T17396   5.228   0.816   2.615  0.8637  0.8923  0.1772
  156OSM     NF17397   5.185   0.983   2.853  0.3042 -0.6722  0.7240
  156OSM    HNF17398   5.165   0.921   2.929 -0.3468 -0.3062  0.8539
  156OSM    C2S17399   5.103   0.959   2.725 -0.2910 -0.4411  0.1373
  156OSM    H2S17400   5.061   1.057   2.693 -0.6717 -0.6682 -0.0620
  156OSM    C3S17401   4.981   0.866   2.753 -0.6371  0.3022  0.1088
  156OSM    H3S17402   5.031   0.773   2.788  0.2274  1.0731  0.9887
  156OSM     O317403   4.914   0.836   2.631  0.1472 -0.4571 -0.3749
  156OSM    HO317404   4.973   0.879   2.569 -0.3136  0.0363 -0.4838
  156OSM    C4S17405   4.896   0.929   2.861 -0.5615  0.1105  0.0345
  156OSM    H4S17406   4.933   0.908   2.963 -0.2384  3.1940  0.6518
  156OSM    C5S17407   4.782   0.998   2.843 -0.3752  0.3032 -0.3699
  156OSM    H5S17408   4.744   1.000   2.740  0.3717 -2.7810 -0.8393
  156OSM    C6S17409   4.707   1.072   2.952  0.2058 -0.4055 -0.2569
  156OSM    H6S17410   4.608   1.023   2.965 -0.5521  0.6979 -1.5838
  156OSM    H6T17411   4.691   1.180   2.933 -0.9753 -0.4090  0.5466
  156OSM    C7S17412   4.779   1.067   3.092 -0.2821  0.3272 -0.1511
  156OSM    H7S17413   4.883   1.106   3.099  0.0101 -0.4868  0.1460
  156OSM    H7T17414   4.777   0.958   3.113 -1.7100 -0.4988 -3.8527
  156OSM    C8S17415   4.696   1.125   3.212 -1.5861 -0.3584  0.0325
  156OSM    H8S17416   4.590   1.093   3.210 -1.7869 -0.0784  2.4896
  156OSM    H8T17417   4.701   1.234   3.196  0.1461 -0.5575 -1.0365
  156OSM    C9S17418   4.755   1.100   3.346 -0.4977  0.0016 -0.6880
  156OSM    H9S17419   4.860   1.136   3.351 -0.1057 -0.9566 -1.7057
  156OSM    H9T17420   4.762   0.991   3.367 -1.0324  0.1110  0.1121
  156OSM   C10S17421   4.678   1.167   3.464 -0.9118 -0.6572  0.2513
  156OSM   H10S17422   4.569   1.164   3.439 -1.0151 -0.5731  0.6788
  156OSM   H10T17423   4.702   1.275   3.466 -0.9959 -0.6359  0.0958
  156OSM   C11S17424   4.716   1.112   3.602  0.4365  0.1272 -0.2514
  156OSM   H11S17425   4.827   1.103   3.611  0.5114  1.0868 -0.0995
  156OSM   H11T17426   4.684   1.006   3.613  0.8990 -0.3183 -2.6977
  156OSM   C12S17427   4.675   1.208   3.713  0.4906 -0.3089  0.5456
  156OSM   H12S17428   4.566   1.227   3.704  0.7265  0.2484 -1.9273
  156OSM   H12T17429   4.732   1.302   3.698  0.1963 -0.0840  0.8181
  156OSM   C13S17430   4.713   1.147   3.850 -0.2652  0.8800  0.1282
  156OSM   H13S17431   4.822   1.131   3.859 -0.6869 -2.1363  0.8230
  156OSM   H13T17432   4.661   1.050   3.869  3.6499 -1.2245  1.0690
  156OSM   C14S17433   4.674   1.245   3.964  0.7393  0.0940 -0.1892
  156OSM   H14S17434   4.567   1.274   3.962  1.3352  2.7854  1.5932
  156OSM   H14T17435   4.731   1.340   3.966  0.6689  0.1219  0.6892
  156OSM   C15S17436   4.692   1.177   4.105  0.0778 -0.1631  0.4756
  156OSM   H15S17437   4.800   1.151   4.104  0.0343 -0.5270 -2.1590
  156OSM   H15T17438   4.631   1.087   4.124 -1.7689  0.4885 -1.8987
  156OSM   C16S17439   4.656   1.268   4.222 -0.7154 -0.7148 -0.4197
  156OSM   H16S17440   4.545   1.272   4.235 -0.5213  2.0691  1.2133
  156OSM   H16T17441   4.697   1.369   4.198 -1.7187  0.0420  0.8962
  156OSM   C17S17442   4.728   1.230   4.351 -0.0308 -0.3420 -0.1942
  156OSM   H17S17443   4.730   1.121   4.376 -0.1274 -0.0027  1.4348
  156OSM   H17T17444   4.673   1.277   4.436  3.3744  0.1668  1.9213
  156OSM   C18S17445   4.875   1.285   4.375  0.0429 -0.2316  0.4064
  156OSM   H18S17446   4.923   1.271   4.474  0.2028  0.5563  0.4470
  156OSM   H18T17447   4.893   1.391   4.347  0.3497 -0.2017  0.7136
  156OSM   H18U17448   4.930   1.219   4.305 -1.3739 -2.4608  1.2864
  156OSM    C1F17449   5.285   1.075   2.854 -0.8727 -0.1316 -0.0445
  156OSM     OF17450   5.306   1.153   2.760  0.5089  0.2625  0.2569
  156OSM    C2F17451   5.373   1.074   2.975 -0.1568  0.3958 -0.0321
  156OSM    H2F17452   5.462   1.014   2.947  0.7091  1.0116  1.2548
  156OSM    H2G17453   5.310   1.037   3.059 -1.3270  0.3056 -0.9191
  156OSM    C3F17454   5.423   1.212   3.024  0.8098 -0.3381 -0.5115
  156OSM    H3F17455   5.339   1.271   3.067  1.1393 -0.5190  0.4098
  156OSM    H3G17456   5.468   1.267   2.939  0.9080  2.2345  1.1106
  156OSM    C4F17457   5.528   1.188   3.134 -0.3017 -0.0922 -0.6868
  156OSM    H4F17458   5.589   1.279   3.152  1.2549 -1.4741  1.5002
  156OSM    H4G17459   5.600   1.120   3.084  1.3568  1.1583 -0.0929
  156OSM    C5F17460   5.480   1.135   3.268 -0.4347 -0.0973 -0.4828
  156OSM    H5F17461   5.457   1.028   3.250  0.5822 -1.0875  3.1610
  156OSM    H5G17462   5.386   1.181   3.308  1.3751  1.6036  2.1298
  156OSM    C6F17463   5.581   1.153   3.388  0.4892  0.3874  0.4222
  156OSM    H6F17464   5.632   1.252   3.387 -1.6029  1.5376 -1.2477
  156OSM    H6G17465   5.645   1.063   3.379 -0.5935 -0.4590  0.9452
  156OSM    C7F17466   5.509   1.132   3.526 -0.4964 -0.3884  0.5134
  156OSM    H7F17467   5.425   1.061   3.512 -2.2358  1.1769  2.3571
  156OSM    H7G17468   5.449   1.221   3.557 -0.8108  0.4395 -2.1872
  156OSM    C8F17469   5.596   1.070   3.635 -0.1545 -0.4482  0.4280
  156OSM    H8F17470   5.671   1.004   3.587  0.6523 -0.0191  1.0734
  156OSM    H8G17471   5.526   1.014   3.701 -1.1456 -0.3452 -0.5019
  156OSM    C9F17472   5.661   1.185   3.713 -0.0749  0.2218  0.1795
  156OSM    H9F17473   5.745   1.236   3.662 -0.8287  1.1757 -0.1330
  156OSM   C10F17474   5.633   1.230   3.835 -0.5408 -0.0550  0.3540
  156OSM   H10F17475   5.706   1.290   3.890 -0.0008 -1.4850  1.2595
  156OSM   C11F17476   5.523   1.179   3.925 -0.5714 -0.0178  0.1780
  156OSM   H11F17477   5.509   1.069   3.922 -0.7917 -0.0734  2.1529
  156OSM   H11G17478   5.430   1.219   3.879  0.7255  0.2200 -2.4594
  156OSM   C12F17479   5.544   1.218   4.069 -0.4023  0.6463 -0.4970
  156OSM   H12F17480   5.455   1.179   4.121  1.0740  0.1028  1.7618
  156OSM   H12G17481   5.579   1.319   4.098  1.5041 -0.3928  1.0581
  156OSM   C13F17482   5.656   1.120   4.122 -0.6074  0.3361 -0.1432
  156OSM   H13F17483   5.756   1.155   4.089 -0.4168 -0.1008 -0.0288
  156OSM   H13G17484   5.633   1.017   4.090  2.1118  0.0610 -1.4540
  156OSM   C14F17485   5.659   1.117   4.278  0.3550  0.2071 -0.4886
  156OSM   H14F17486   5.691   1.016   4.313 -0.7777  0.0816  0.2018
  156OSM   H14G17487   5.556   1.130   4.317 -0.4875 -1.6562 -1.9104
  156OSM   C15F17488   5.758   1.228   4.331  1.2944  0.4595  0.2014
  156OSM   H15F17489   5.795   1.288   4.245  1.5567 -0.9139 -0.6846
  156OSM   H15G17490   5.838   1.174   4.386  0.9971 -1.9249 -1.5333
  156OSM   C16F17491   5.684   1.317   4.433  0.6639 -0.5195  0.0975
  156OSM   H16F17492   5.639   1.241   4.502 -0.0209  1.0750  1.4823
  156OSM   H16G17493   5.608   1.380   4.382 -1.1748 -2.8113 -0.2003
  156OSM   C17F17494   5.784   1.397   4.522 -0.2437  0.8329  0.5449
  156OSM   H17F17495   5.837   1.325   4.587  1.3881  0.7580 -0.8071
  156OSM   H17G17496   5.715   1.464   4.578 -0.4241  2.1569 -1.1765
  156OSM   C18F17497   5.882   1.476   4.447  0.2467  0.3487 -0.9500
  156OSM   H18F17498   5.956   1.413   4.395  1.7606  0.3413  1.0999
  156OSM   H18G17499   5.934   1.542   4.520  0.7708 -3.2188  2.1886
  156OSM   H18H17500   5.834   1.532   4.363  3.0695 -0.9620 -3.6452
  157OSM      N17501   5.416   2.239   2.197 -0.2432  0.5611  0.4744
  157OSM    C1517502   5.501   2.356   2.205 -0.8011 -0.7183 -0.1663
  157OSM   H15A17503   5.455   2.444   2.163  0.1306 -0.6486 -1.0722
  157OSM   H15B17504   5.590   2.334   2.149 -0.9906 -0.3150 -0.6296
  157OSM   H15C17505   5.524   2.381   2.308  1.5197 -1.0690 -0.5395
  157OSM    C1417506   5.368   2.222   2.057 -0.0915  0.4157  0.3094
  157OSM   H14A17507   5.329   2.314   2.016 -2.6294 -0.6167  0.2369
  157OSM   H14B17508   5.284   2.154   2.055 -0.3637  0.5784  2.9206
  157OSM   H14C17509   5.448   2.194   1.990 -0.1048  0.7532  0.1514
  157OSM    C1317510   5.501   2.121   2.236  0.1097 -0.0296 -0.3348
  157OSM   H13A17511   5.588   2.104   2.174 -0.4583 -3.0064 -0.4723
  157OSM   H13B17512   5.443   2.031   2.219 -0.3079 -0.0169  0.9353
  157OSM   H13C17513   5.535   2.124   2.338  1.3708  2.7105 -0.7506
  157OSM    C1217514   5.290   2.237   2.288 -0.2725 -0.2833  1.1234
  157OSM   H12A17515   5.228   2.323   2.268 -0.0797 -0.1881  0.9232
  157OSM   H12B17516   5.322   2.266   2.387 -1.5704  1.8790  0.9865
  157OSM    C1117517   5.193   2.118   2.296  0.2899 -0.0592  0.1117
  157OSM   H11A17518   5.121   2.143   2.377 -0.5903  1.9362 -1.1910
  157OSM   H11B17519   5.253   2.030   2.327 -0.8973 -1.1606 -0.6087
  157OSM      P17520   5.008   1.973   2.177  0.4637  0.3248  0.1579
  157OSM    O1317521   4.894   2.030   2.100  0.1554 -0.3315 -0.1326
  157OSM    O1417522   5.066   1.851   2.118  0.0105  0.0462  0.3199
  157OSM    O1117523   4.964   1.948   2.329 -0.2543  0.0946  0.3216
  157OSM    O1217524   5.125   2.087   2.178  0.3897 -0.5491  0.5641
  157OSM    C1S17525   5.023   1.836   2.405 -0.0013  0.3537  1.0022
  157OSM    H1S17526   5.123   1.815   2.363 -1.1381  0.2472 -1.8354
  157OSM    H1T17527   4.962   1.744   2.394  2.2578 -1.2472  1.2343
  157OSM     NF17528   5.129   1.780   2.628 -0.2888  0.3853 -0.1014
  157OSM    HNF17529   5.093   1.715   2.694  1.7520 -2.1338 -1.2691
  157OSM    C2S17530   5.032   1.864   2.557  0.1745 -0.1674 -0.0827
  157OSM    H2S17531   5.065   1.969   2.573  0.8473 -0.3807 -0.0406
  157OSM    C3S17532   4.882   1.866   2.615  0.4266  0.1038 -0.5796
  157OSM    H3S17533   4.828   1.769   2.615  0.7982 -0.1137  0.1992
  157OSM     O317534   4.798   1.947   2.543  0.4323  0.3345  0.6057
  157OSM    HO317535   4.854   1.971   2.469  0.0004  0.1526  0.2140
  157OSM    C4S17536   4.886   1.902   2.763 -0.5602 -0.0722 -0.5395
  157OSM    H4S17537   4.896   1.814   2.827  0.4280 -1.9278 -3.0550
  157OSM    C5S17538   4.875   2.017   2.827  0.0741  1.0428 -0.6228
  157OSM    H5S17539   4.864   2.107   2.765  0.1370  0.9123 -0.8270
  157OSM    C6S17540   4.880   2.035   2.976  0.2972  0.2525  0.0636
  157OSM    H6S17541   4.775   2.045   3.012  0.1413  1.0712 -0.5813
  157OSM    H6T17542   4.929   2.132   2.997  2.2152 -0.5265 -0.6140
  157OSM    C7S17543   4.944   1.923   3.061 -0.2176 -0.3242  0.3182
  157OSM    H7S17544   5.049   1.915   3.026 -0.0741  2.2824 -0.0726
  157OSM    H7T17545   4.893   1.826   3.042  2.9135 -1.7173 -1.9530
  157OSM    C8S17546   4.949   1.970   3.204 -0.1673 -0.3399 -0.0412
  157OSM    H8S17547   4.840   1.978   3.223 -0.7312 -1.3524 -2.4416
  157OSM    H8T17548   4.995   2.071   3.201 -0.6541 -0.1201 -0.2109
  157OSM    C9S17549   5.001   1.868   3.308 -0.1935 -0.0755  0.6829
  157OSM    H9S17550   5.084   1.815   3.257 -0.2266 -0.0625  0.6155
  157OSM    H9T17551   4.916   1.800   3.330 -1.1361  0.8106 -0.0910
  157OSM   C10S17552   5.051   1.929   3.441  0.4860 -0.3202 -0.2084
  157OSM   H10S17553   5.139   1.998   3.433  0.8122 -0.6161  0.7236
  157OSM   H10T17554   5.095   1.845   3.498 -0.9864 -2.3130 -1.8862
  157OSM   C11S17555   4.944   2.001   3.521  0.2633 -0.3139  0.3312
  157OSM   H11S17556   4.850   1.949   3.552 -0.0863 -0.1607 -0.4570
  157OSM   H11T17557   4.932   2.099   3.471 -2.1990 -1.7284 -2.1420
  157OSM   C12S17558   5.004   2.053   3.655  0.6475 -0.4176  0.2638
  157OSM   H12S17559   4.920   2.120   3.682 -1.4581 -2.1133 -1.7255
  157OSM   H12T17560   5.088   2.123   3.639  0.8872 -0.2038  2.2244
  157OSM   C13S17561   5.040   1.958   3.765  0.6401  0.2872 -0.0587
  157OSM   H13S17562   5.124   1.891   3.737 -0.0198 -0.5996  0.0422
  157OSM   H13T17563   4.950   1.899   3.794  2.1730 -1.6889  0.9497
  157OSM   C14S17564   5.077   2.034   3.889 -0.0159 -0.2772  0.4728
  157OSM   H14S17565   4.988   2.086   3.931 -0.1627  0.9442 -1.2163
  157OSM   H14T17566   5.154   2.113   3.871 -2.7692  2.3144 -0.7847
  157OSM   C15S17567   5.130   1.931   3.990 -0.0661  0.6646  0.1680
  157OSM   H15S17568   5.221   1.874   3.961 -0.7852  0.2724 -1.4453
  157OSM   H15T17569   5.052   1.852   3.992  1.1523 -0.7038 -2.0157
  157OSM   C16S17570   5.136   1.998   4.130  0.1323 -0.5505  0.5891
  157OSM   H16S17571   5.044   2.061   4.134 -0.3380 -1.0762 -1.1739
  157OSM   H16T17572   5.222   2.069   4.130 -1.2585  1.2071  0.4485
  157OSM   C17S17573   5.128   1.901   4.250 -0.6805 -0.3883  0.4586
  157OSM   H17S17574   5.220   1.840   4.257  1.1138  1.8619 -1.8650
  157OSM   H17T17575   5.045   1.829   4.233  0.2032 -0.9191 -2.0341
  157OSM   C18S17576   5.107   1.969   4.382  0.3226  0.4592  1.1158
  157OSM   H18S17577   5.104   1.895   4.465 -0.7412 -1.9061 -0.9246
  157OSM   H18T17578   5.019   2.035   4.366 -0.3448 -1.1659 -3.3659
  157OSM   H18U17579   5.192   2.040   4.398  4.1161 -3.5899  0.8169
  157OSM    C1F17580   5.258   1.771   2.601 -0.9085 -0.2305 -0.2941
  157OSM     OF17581   5.313   1.860   2.541 -0.4921  0.2508 -0.5544
  157OSM    C2F17582   5.335   1.651   2.650  0.5719 -0.3553  0.3411
  157OSM    H2F17583   5.366   1.582   2.569 -1.4897  0.7485 -1.5122
  157OSM    H2G17584   5.265   1.598   2.717 -0.6397 -0.7201 -1.1498
  157OSM    C3F17585   5.478   1.690   2.718  0.1713 -0.4291  0.1070
  157OSM    H3F17586   5.509   1.778   2.657 -2.0498  0.4322  0.1152
  157OSM    H3G17587   5.548   1.605   2.713 -0.3963 -0.8256 -2.2844
  157OSM    C4F17588   5.467   1.749   2.860 -0.0178  0.1294 -0.2497
  157OSM    H4F17589   5.474   1.683   2.949  0.1156  2.2343  1.4091
  157OSM    H4G17590   5.374   1.810   2.867  1.8711  2.9962  3.2441
  157OSM    C5F17591   5.574   1.856   2.898  0.6029  0.3127  0.2424
  157OSM    H5F17592   5.569   1.935   2.820  1.2974 -1.6031 -1.8548
  157OSM    H5G17593   5.672   1.806   2.887 -0.5696 -2.3545  0.9864
  157OSM    C6F17594   5.545   1.922   3.038  0.2563  0.3603 -0.4079
  157OSM    H6F17595   5.632   1.990   3.052 -0.6398  1.2375  1.1929
  157OSM    H6G17596   5.563   1.849   3.120  0.4801  0.8523 -0.0165
  157OSM    C7F17597   5.414   2.017   3.054  0.1013  0.9551 -0.3324
  157OSM    H7F17598   5.325   1.955   3.031 -1.1010  2.1446  0.9354
  157OSM    H7G17599   5.424   2.101   2.983 -1.9133 -0.3945 -2.3312
  157OSM    C8F17600   5.408   2.069   3.197 -0.2177  0.6736  0.3778
  157OSM    H8F17601   5.325   2.140   3.218 -1.1056  0.0303 -0.8541
  157OSM    H8G17602   5.501   2.117   3.234  0.3263  0.9315 -1.2510
  157OSM    C9F17603   5.372   1.956   3.290  0.8810 -0.7719  0.7068
  157OSM    H9F17604   5.285   1.893   3.267  0.5274 -1.7481  4.2010
  157OSM   C10F17605   5.430   1.918   3.402 -1.0548 -0.4118 -0.1499
  157OSM   H10F17606   5.387   1.837   3.463 -0.0690 -1.0781 -0.3198
  157OSM   C11F17607   5.550   1.987   3.469 -0.0459 -0.8281  0.0154
  157OSM   H11F17608   5.594   2.062   3.400  1.3958 -1.8133 -0.1854
  157OSM   H11G17609   5.630   1.911   3.482  0.5294 -0.4073 -0.9627
  157OSM   C12F17610   5.537   2.053   3.612 -0.8418  0.4040  0.0490
  157OSM   H12F17611   5.470   2.141   3.613  0.7475  1.6573  1.3790
  157OSM   H12G17612   5.643   2.080   3.633 -0.0212 -0.3924 -2.5903
  157OSM   C13F17613   5.492   1.956   3.718  0.0109  0.0659 -0.0541
  157OSM   H13F17614   5.535   1.854   3.708 -0.6406 -0.3050  0.8129
  157OSM   H13G17615   5.383   1.937   3.720 -0.6371  2.6955 -2.6228
  157OSM   C14F17616   5.519   2.016   3.856  0.0591 -0.5302  0.2047
  157OSM   H14F17617   5.628   2.018   3.876  0.2115  1.5038 -0.5908
  157OSM   H14G17618   5.467   1.948   3.927 -0.4788 -0.0838  0.2446
  157OSM   C15F17619   5.485   2.162   3.883 -0.5981 -0.1680 -0.6264
  157OSM   H15F17620   5.384   2.189   3.846 -1.0716 -0.8641  0.1303
  157OSM   H15G17621   5.558   2.216   3.819  1.1019 -0.5288  0.8933
  157OSM   C16F17622   5.506   2.184   4.029  0.1566 -0.5372 -0.6044
  157OSM   H16F17623   5.608   2.177   4.071 -1.0289 -0.4107  2.5919
  157OSM   H16G17624   5.443   2.107   4.080  2.3126 -1.0387  1.4503
  157OSM   C17F17625   5.461   2.325   4.073  0.6145 -0.4134 -0.8284
  157OSM   H17F17626   5.354   2.337   4.045 -0.2151 -0.5094  1.9586
  157OSM   H17G17627   5.514   2.401   4.013 -0.5343 -0.9207 -2.5712
  157OSM   C18F17628   5.479   2.347   4.228 -0.7769  0.0890 -0.1752
  157OSM   H18F17629   5.556   2.288   4.283 -0.3375  0.8302  0.0222
  157OSM   H18G17630   5.380   2.333   4.276 -0.1873 -0.9519  0.7785
  157OSM   H18H17631   5.500   2.454   4.248 -3.1721  0.2230  2.1413
  158OSM      N17632   3.203   6.902   1.854 -0.2081 -0.0213 -0.2108
  158OSM    C1517633   3.261   7.035   1.832 -0.2966 -0.5462  0.1384
  158OSM   H15A17634   3.369   7.033   1.832 -0.1839  2.0404  0.4643
  158OSM   H15B17635   3.239   7.112   1.904 -1.5977 -1.0409  0.2916
  158OSM   H15C17636   3.225   7.064   1.734  1.6595  0.0202 -0.4563
  158OSM    C1417637   3.060   6.920   1.840  0.2312  0.6155  0.3934
  158OSM   H14A17638   3.001   6.834   1.871 -1.0946  1.9009  1.6317
  158OSM   H14B17639   3.023   6.945   1.742  0.7774  2.7365  0.6824
  158OSM   H14C17640   3.024   6.995   1.909 -0.2461  0.8284 -0.0785
  158OSM    C1317641   3.257   6.805   1.746  0.5081 -0.9893  0.1025
  158OSM   H13A17642   3.214   6.706   1.743 -0.3062 -0.7163 -4.1127
  158OSM   H13B17643   3.365   6.800   1.753  1.0695  4.2772 -0.5139
  158OSM   H13C17644   3.252   6.838   1.643  0.4301 -0.7804  0.1725
  158OSM    C1217645   3.242   6.850   1.989  0.3934  0.1383 -0.1470
  158OSM   H12A17646   3.226   6.744   1.978  2.0230 -0.0687 -1.0132
  158OSM   H12B17647   3.179   6.895   2.063  0.3069 -0.5923  0.2306
  158OSM    C1117648   3.391   6.871   2.032  0.1810 -1.5496 -0.5587
  158OSM   H11A17649   3.466   6.823   1.965  1.3245 -2.2988  1.1691
  158OSM   H11B17650   3.394   6.812   2.126  0.5836  0.1161  0.5161
  158OSM      P17651   3.351   7.085   2.171 -0.0164 -0.1516 -0.5293
  158OSM    O1317652   3.414   7.217   2.186 -0.2907  0.5679  0.0559
  158OSM    O1417653   3.207   7.085   2.149 -0.3190  0.4256  0.5609
  158OSM    O1117654   3.385   6.999   2.293  0.0433  0.0335  0.6599
  158OSM    O1217655   3.427   7.009   2.053  0.2717  0.4802 -0.0199
  158OSM    C1S17656   3.390   7.059   2.423 -0.6555  0.2554  0.4370
  158OSM    H1S17657   3.301   7.124   2.437 -0.9973  0.2133 -1.3176
  158OSM    H1T17658   3.481   7.123   2.433  0.2067 -0.7058 -0.9057
  158OSM     NF17659   3.387   6.988   2.665  0.1747 -0.1855 -0.6551
  158OSM    HNF17660   3.458   6.962   2.730  1.3621  0.7795 -1.5081
  158OSM    C2S17661   3.407   6.947   2.530  0.2396  0.3800  0.2183
  158OSM    H2S17662   3.318   6.882   2.518 -1.1842  2.0474  1.2988
  158OSM    C3S17663   3.538   6.860   2.493 -0.4918 -0.7137  0.0985
  158OSM    H3S17664   3.631   6.918   2.511 -0.3548 -1.0212  0.3924
  158OSM     O317665   3.552   6.817   2.355  0.0681  0.2932  0.6092
  158OSM    HO317666   3.484   6.872   2.315 -1.0005  0.7233  2.8444
  158OSM    C4S17667   3.546   6.739   2.584 -0.0696  0.3939 -0.0628
  158OSM    H4S17668   3.464   6.666   2.578 -0.1304  0.4933 -0.4369
  158OSM    C5S17669   3.647   6.719   2.673  0.2610  0.0720  0.7903
  158OSM    H5S17670   3.720   6.800   2.690  2.0375 -1.3979  0.4123
  158OSM    C6S17671   3.660   6.602   2.765  0.1558 -0.0585 -0.3855
  158OSM    H6S17672   3.756   6.548   2.749  0.3334 -0.0693  0.6294
  158OSM    H6T17673   3.578   6.531   2.745 -0.9920  0.7667  1.1625
  158OSM    C7S17674   3.660   6.638   2.912  0.0990 -0.5803 -0.3685
  158OSM    H7S17675   3.554   6.657   2.938 -0.6571 -5.0271  0.5792
  158OSM    H7T17676   3.722   6.728   2.930 -0.9557  0.2384 -0.7045
  158OSM    C8S17677   3.693   6.532   3.002 -0.0503  0.9496  0.2847
  158OSM    H8S17678   3.774   6.464   2.967 -0.2907  0.6163  0.3686
  158OSM    H8T17679   3.605   6.466   3.018  1.3873 -0.5296  2.6984
  158OSM    C9S17680   3.734   6.588   3.143  0.0388 -0.4297  0.3368
  158OSM    H9S17681   3.657   6.662   3.173 -0.7192 -0.7433 -0.7648
  158OSM    H9T17682   3.830   6.642   3.132  0.2296 -0.9106 -0.4776
  158OSM   C10S17683   3.744   6.481   3.250 -0.2384 -0.0738 -0.1343
  158OSM   H10S17684   3.845   6.436   3.240 -0.3756 -1.0245  2.2748
  158OSM   H10T17685   3.676   6.395   3.231  1.2121 -0.9806 -1.4972
  158OSM   C11S17686   3.715   6.532   3.392  0.4784 -0.0177 -0.2079
  158OSM   H11S17687   3.607   6.545   3.413  0.8626  1.5339  1.0651
  158OSM   H11T17688   3.767   6.628   3.416 -0.9319  0.5178  0.8655
  158OSM   C12S17689   3.774   6.427   3.493 -0.9442  0.2480  0.1528
  158OSM   H12S17690   3.792   6.336   3.431 -1.6148 -0.7720  1.3981
  158OSM   H12T17691   3.687   6.396   3.554 -1.5367  3.0422  0.8275
  158OSM   C13S17692   3.880   6.475   3.581 -0.0090 -0.4315  0.0086
  158OSM   H13S17693   3.959   6.519   3.516 -2.1690  1.3714 -1.5716
  158OSM   H13T17694   3.927   6.401   3.649  0.5859 -1.9862 -2.0033
  158OSM   C14S17695   3.833   6.592   3.671  0.5980 -0.5240 -0.4513
  158OSM   H14S17696   3.747   6.563   3.734  0.1074  1.7818  0.0452
  158OSM   H14T17697   3.801   6.683   3.616  1.0779 -1.0970 -1.7243
  158OSM   C15S17698   3.943   6.628   3.767  0.8377  0.1518 -0.2561
  158OSM   H15S17699   4.027   6.678   3.713 -0.4419  0.2856 -2.2212
  158OSM   H15T17700   3.978   6.537   3.820 -0.5585 -0.3424 -0.1419
  158OSM   C16S17701   3.894   6.720   3.880 -0.1610 -0.7357  0.2507
  158OSM   H16S17702   3.817   6.663   3.936 -0.6634 -0.7594 -0.4465
  158OSM   H16T17703   3.851   6.809   3.829 -2.5638 -1.3396  1.0797
  158OSM   C17S17704   3.991   6.767   3.987 -0.5966  0.0273 -1.1476
  158OSM   H17S17705   4.090   6.794   3.946  0.1950 -0.5578  0.2854
  158OSM   H17T17706   4.017   6.680   4.051 -0.2253 -0.0342 -1.3854
  158OSM   C18S17707   3.929   6.874   4.082  0.2372 -0.2025  0.0617
  158OSM   H18S17708   4.002   6.911   4.157 -1.1002 -2.0936  2.4354
  158OSM   H18T17709   3.855   6.828   4.150  1.7777  0.7347  2.4729
  158OSM   H18U17710   3.880   6.957   4.027  2.3317  0.6367 -0.6369
  158OSM    C1F17711   3.282   7.058   2.703  0.0895  0.7326 -0.5087
  158OSM     OF17712   3.178   7.056   2.637 -0.3281 -0.0374 -0.2024
  158OSM    C2F17713   3.303   7.143   2.828  0.6410  0.1592 -0.2617
  158OSM    H2F17714   3.409   7.176   2.822  1.2436 -1.8605 -1.8393
  158OSM    H2G17715   3.286   7.074   2.913  0.6331 -2.5707 -2.3178
  158OSM    C3F17716   3.210   7.270   2.839  0.4591 -0.1078 -0.0477
  158OSM    H3F17717   3.102   7.245   2.847  0.1516  1.4400  1.1108
  158OSM    H3G17718   3.217   7.342   2.754 -0.8393 -0.6800 -0.6698
  158OSM    C4F17719   3.243   7.349   2.968  0.2645 -0.1218 -0.4575
  158OSM    H4F17720   3.343   7.396   2.965  0.3839  0.2064  3.6770
  158OSM    H4G17721   3.236   7.271   3.047  0.4420 -0.1444 -0.4637
  158OSM    C5F17722   3.143   7.463   2.993  1.3531 -0.3846 -0.3130
  158OSM    H5F17723   3.041   7.425   2.970  2.3484 -3.8495  0.4179
  158OSM    H5G17724   3.174   7.545   2.926  1.8844  1.3763  1.9445
  158OSM    C6F17725   3.151   7.511   3.143  0.4956  0.5457 -0.2090
  158OSM    H6F17726   3.077   7.594   3.148 -1.1763 -0.9272  0.8781
  158OSM    H6G17727   3.253   7.546   3.169  0.6532  1.4553 -1.8976
  158OSM    C7F17728   3.104   7.413   3.248  0.4934  0.9582 -0.1213
  158OSM    H7F17729   3.174   7.326   3.253 -0.2168  0.2273 -2.1376
  158OSM    H7G17730   3.003   7.372   3.231  0.0247  1.0593  2.1025
  158OSM    C8F17731   3.091   7.479   3.387 -0.4848  0.6483 -0.6487
  158OSM    H8F17732   3.020   7.421   3.450 -0.7351  2.6342  0.9985
  158OSM    H8G17733   3.051   7.583   3.380 -1.1016  0.6951  2.4469
  158OSM    C9F17734   3.226   7.487   3.460  0.5030  1.0098 -0.2407
  158OSM    H9F17735   3.309   7.531   3.402  0.7603  1.0075  0.1155
  158OSM   C10F17736   3.238   7.463   3.591 -0.0424  0.1959  0.6892
  158OSM   H10F17737   3.339   7.473   3.634  0.6603 -0.6999 -0.7061
  158OSM   C11F17738   3.125   7.423   3.688  0.5675 -0.8260  0.3783
  158OSM   H11F17739   3.167   7.392   3.786  0.7367 -0.9843  0.2569
  158OSM   H11G17740   3.056   7.343   3.653 -0.3322 -0.9432  2.2895
  158OSM   C12F17741   3.027   7.540   3.718  0.6600  0.1925 -0.6494
  158OSM   H12F17742   2.944   7.488   3.770  1.9991  1.5627  3.1918
  158OSM   H12G17743   2.996   7.578   3.618 -0.1584 -0.3770 -0.6227
  158OSM   C13F17744   3.083   7.645   3.809 -0.5687  0.2934 -0.1088
  158OSM   H13F17745   3.166   7.708   3.769  0.0579  1.1836  2.4013
  158OSM   H13G17746   3.115   7.590   3.900 -1.8253  0.1479  0.2731
  158OSM   C14F17747   2.974   7.732   3.870  0.3719 -0.4711 -0.6103
  158OSM   H14F17748   2.915   7.675   3.945 -2.1352 -0.4996 -2.4787
  158OSM   H14G17749   2.903   7.747   3.786  0.9742  0.9811 -0.8939
  158OSM   C15F17750   3.038   7.866   3.912 -0.3436 -0.0813  0.9751
  158OSM   H15F17751   3.049   7.929   3.822 -1.6097  1.0440  1.5693
  158OSM   H15G17752   3.137   7.844   3.957  0.4987 -2.9879 -1.9151
  158OSM   C16F17753   2.947   7.954   4.000  0.0449 -0.3368 -0.1038
  158OSM   H16F17754   2.974   7.918   4.101  0.5090  0.4211  0.0465
  158OSM   H16G17755   2.840   7.927   3.982  0.2997 -2.2453  0.9289
  158OSM   C17F17756   2.981   8.104   3.988  0.1800 -0.2742 -0.1758
  158OSM   H17F17757   2.932   8.155   4.074  1.5593  0.4208  0.2312
  158OSM   H17G17758   2.931   8.147   3.899 -1.3151  0.0427  0.7757
  158OSM   C18F17759   3.130   8.136   3.992  0.5061  0.0607  0.4453
  158OSM   H18F17760   3.188   8.099   3.906  0.4276 -0.8971  0.7955
  158OSM   H18G17761   3.175   8.083   4.079  0.3147 -0.8653 -0.0159
  158OSM   H18H17762   3.144   8.244   4.014 -1.7155  0.2268  1.3310
  159OSM      N17763   5.741   1.724   2.132 -0.0889 -0.7199  0.1137
  159OSM    C1517764   5.641   1.810   2.060 -0.3999  0.4981 -0.0088
  159OSM   H15A17765   5.676   1.809   1.957  1.4405  1.9181  0.5529
  159OSM   H15B17766   5.655   1.915   2.081 -0.5757  0.4882  0.1542
  159OSM   H15C17767   5.539   1.777   2.070 -0.0603 -0.5670  0.0888
  159OSM    C1417768   5.694   1.686   2.266  0.3148  0.2439 -0.3598
  159OSM   H14A17769   5.669   1.774   2.325  1.0380  2.3093 -2.9293
  159OSM   H14B17770   5.781   1.647   2.317  1.6458  1.5779 -1.5001
  159OSM   H14C17771   5.614   1.615   2.259  1.3843 -0.8475 -2.0213
  159OSM    C1317772   5.768   1.596   2.057  0.5241  0.7225  0.3632
  159OSM   H13A17773   5.678   1.542   2.033  0.0331  1.0172  1.4306
  159OSM   H13B17774   5.837   1.532   2.110 -0.5796 -0.6211  0.2241
  159OSM   H13C17775   5.821   1.625   1.968  0.6883  0.1481  0.2708
  159OSM    C1217776   5.880   1.795   2.147  0.2948 -0.1985 -0.0862
  159OSM   H12A17777   5.921   1.793   2.047 -0.7565 -0.3018 -0.5313
  159OSM   H12B17778   5.948   1.738   2.208 -0.5554 -0.4451  0.6517
  159OSM    C1117779   5.873   1.932   2.213  0.3626 -0.1094 -0.2306
  159OSM   H11A17780   5.975   1.961   2.244  0.7116 -1.3300 -0.1789
  159OSM   H11B17781   5.806   1.940   2.301 -1.1792  5.0489 -1.5592
  159OSM      P17782   5.847   2.178   2.119  0.1429  0.2649  0.0711
  159OSM    O1317783   5.993   2.197   2.094 -0.2172  0.3506 -0.2983
  159OSM    O1417784   5.752   2.241   2.029 -0.7201  0.1976  0.4255
  159OSM    O1117785   5.805   2.228   2.261 -0.5137 -0.5296 -0.2776
  159OSM    O1217786   5.817   2.021   2.119  0.4210 -0.0651  0.2685
  159OSM    C1S17787   5.864   2.360   2.306 -0.0952  0.3213 -0.2372
  159OSM    H1S17788   5.821   2.439   2.241 -0.5987 -0.0826 -0.4102
  159OSM    H1T17789   5.974   2.369   2.293  0.0086  1.9289  1.3602
  159OSM     NF17790   5.874   2.503   2.499  0.5257 -0.0429  0.1982
  159OSM    HNF17791   5.969   2.518   2.527 -0.1744  0.3071  2.6240
  159OSM    C2S17792   5.829   2.370   2.455  0.4035 -0.0738  0.2817
  159OSM    H2S17793   5.722   2.345   2.472  0.4074 -1.0093 -0.9595
  159OSM    C3S17794   5.886   2.258   2.547 -0.7280 -0.1975  0.8640
  159OSM    H3S17795   5.995   2.281   2.543 -1.0681  1.4552 -1.1019
  159OSM     O317796   5.881   2.124   2.497  0.2450 -0.5412 -0.0681
  159OSM    HO317797   5.849   2.131   2.407  0.4237  2.0044 -0.0200
  159OSM    C4S17798   5.829   2.269   2.680  0.0162 -0.0352 -0.3676
  159OSM    H4S17799   5.904   2.307   2.752 -0.4477 -2.1862  1.3589
  159OSM    C5S17800   5.704   2.234   2.714 -0.2387 -0.8296 -0.3273
  159OSM    H5S17801   5.636   2.192   2.638  0.0540 -1.2026 -0.3852
  159OSM    C6S17802   5.643   2.256   2.850  0.5572 -0.6989  0.6687
  159OSM    H6S17803   5.632   2.156   2.896 -2.2972 -0.2971  0.9974
  159OSM    H6T17804   5.540   2.296   2.838  0.5936 -1.0745 -1.1366
  159OSM    C7S17805   5.715   2.345   2.948 -0.9332  0.0922 -0.4063
  159OSM    H7S17806   5.736   2.448   2.912  1.5478 -0.2693 -0.2126
  159OSM    H7T17807   5.815   2.296   2.951 -1.4926 -1.1209 -1.1269
  159OSM    C8S17808   5.656   2.346   3.094  0.1721 -0.9985 -0.0877
  159OSM    H8S17809   5.623   2.245   3.125 -3.2371 -1.0252 -3.1962
  159OSM    H8T17810   5.580   2.426   3.094 -1.2983 -2.3467  0.9218
  159OSM    C9S17811   5.758   2.394   3.197  0.2654 -0.2282 -0.3631
  159OSM    H9S17812   5.789   2.496   3.165  1.4187 -0.1670  0.8367
  159OSM    H9T17813   5.855   2.339   3.207 -0.5031 -1.4325  0.8158
  159OSM   C10S17814   5.681   2.400   3.328  0.7890  0.5280  0.3611
  159OSM   H10S17815   5.616   2.311   3.340  2.3506 -0.4563  2.0462
  159OSM   H10T17816   5.601   2.477   3.324 -0.8120 -0.7701  3.6160
  159OSM   C11S17817   5.775   2.421   3.439  0.1329 -0.6632 -0.2145
  159OSM   H11S17818   5.807   2.526   3.428  0.4209 -0.6332  0.8012
  159OSM   H11T17819   5.863   2.354   3.429 -0.1253 -0.9444 -0.6145
  159OSM   C12S17820   5.707   2.397   3.577  0.6803 -0.0721  0.1208
  159OSM   H12S17821   5.696   2.289   3.602  1.9453  0.2767  2.5643
  159OSM   H12T17822   5.611   2.451   3.564  0.6684 -0.4774 -1.7233
  159OSM   C13S17823   5.799   2.449   3.689  0.4768 -0.3349  0.2200
  159OSM   H13S17824   5.833   2.554   3.676 -1.4377  0.2800 -0.2459
  159OSM   H13T17825   5.890   2.385   3.688  0.4887 -0.3279  0.9361
  159OSM   C14S17826   5.736   2.452   3.832 -0.5991  0.2453  0.7156
  159OSM   H14S17827   5.721   2.347   3.866 -1.0447  0.4561  1.1895
  159OSM   H14T17828   5.639   2.506   3.834 -2.0607 -2.2041  0.4581
  159OSM   C15S17829   5.837   2.517   3.934 -0.1183  0.3118  0.4368
  159OSM   H15S17830   5.858   2.625   3.919  0.5476  0.3047  1.2592
  159OSM   H15T17831   5.933   2.463   3.918 -0.3979 -0.5305  1.5158
  159OSM   C16S17832   5.785   2.493   4.079 -0.6014 -0.6170  0.3685
  159OSM   H16S17833   5.749   2.391   4.104 -1.3377  0.1515  2.6346
  159OSM   H16T17834   5.696   2.559   4.081  0.7636  1.2762  1.8684
  159OSM   C17S17835   5.892   2.528   4.184  0.2043  0.2175 -0.0378
  159OSM   H17S17836   5.971   2.451   4.172 -0.3278 -0.2753 -0.4970
  159OSM   H17T17837   5.838   2.526   4.281 -0.6586 -1.0429 -0.5056
  159OSM   C18S17838   5.963   2.659   4.175  0.1684 -0.3847 -0.2660
  159OSM   H18S17839   6.006   2.687   4.273  0.1850  0.6001 -0.5441
  159OSM   H18T17840   5.915   2.752   4.138  2.8727  0.0809 -3.1595
  159OSM   H18U17841   6.044   2.650   4.099  0.8536 -1.9090  0.5973
  159OSM    C1F17842   5.808   2.613   2.466 -0.3009  0.4515 -0.5449
  159OSM     OF17843   5.699   2.602   2.419 -0.1883  0.1243  0.1972
  159OSM    C2F17844   5.884   2.744   2.488  0.2200 -0.6628 -0.0853
  159OSM    H2F17845   5.888   2.792   2.388  0.5341  1.0982  0.7174
  159OSM    H2G17846   5.990   2.722   2.514 -0.5191 -2.2281  1.7742
  159OSM    C3F17847   5.820   2.834   2.591 -0.6652  0.2772  0.1269
  159OSM    H3F17848   5.724   2.877   2.555 -0.8588  0.1697  0.5129
  159OSM    H3G17849   5.887   2.918   2.617  0.6516 -0.7405  0.1053
  159OSM    C4F17850   5.815   2.758   2.728  0.1196 -0.8241 -0.9766
  159OSM    H4F17851   5.912   2.706   2.745  0.8531  0.7840 -0.0167
  159OSM    H4G17852   5.738   2.678   2.725 -1.5173  0.7109 -1.6021
  159OSM    C5F17853   5.779   2.854   2.838  0.3308 -0.5423 -0.0674
  159OSM    H5F17854   5.704   2.928   2.802 -0.6633 -0.8857  1.2282
  159OSM    H5G17855   5.866   2.918   2.861 -0.5099  0.2224  1.0773
  159OSM    C6F17856   5.720   2.779   2.958 -0.2578 -0.7297 -0.3601
  159OSM    H6F17857   5.799   2.712   2.999  1.6402  0.7728 -1.3552
  159OSM    H6G17858   5.627   2.728   2.926 -2.3938  2.9605 -0.6758
  159OSM    C7F17859   5.685   2.883   3.068 -0.3020  0.0789 -0.4981
  159OSM    H7F17860   5.615   2.957   3.025 -0.7482  0.6004  1.0518
  159OSM    H7G17861   5.771   2.941   3.108 -0.5194 -0.9858  1.7062
  159OSM    C8F17862   5.607   2.819   3.182 -0.5717 -0.4328 -0.4192
  159OSM    H8F17863   5.667   2.737   3.228 -0.0349  0.2340  0.0943
  159OSM    H8G17864   5.520   2.777   3.127 -1.5129  0.7406  0.1205
  159OSM    C9F17865   5.557   2.907   3.293  0.1918 -0.8021 -0.2709
  159OSM    H9F17866   5.451   2.934   3.292  0.2640 -0.5269 -1.1645
  159OSM   C10F17867   5.632   2.950   3.390  0.6122 -0.2537 -0.2408
  159OSM   H10F17868   5.593   3.017   3.469  2.4370  1.0007 -0.3548
  159OSM   C11F17869   5.782   2.928   3.416  1.1727 -0.2055  0.6358
  159OSM   H11F17870   5.832   3.027   3.415 -1.2487  1.1415  2.6808
  159OSM   H11G17871   5.824   2.868   3.332 -1.2564  0.7021 -1.3811
  159OSM   C12F17872   5.816   2.857   3.545  0.1002 -0.5429 -0.3203
  159OSM   H12F17873   5.913   2.805   3.536 -0.2220 -1.2684  0.2834
  159OSM   H12G17874   5.737   2.780   3.553 -1.3002  0.9103  0.4575
  159OSM   C13F17875   5.819   2.945   3.671 -0.2324  0.2335  0.4084
  159OSM   H13F17876   5.720   2.995   3.675 -0.0455  0.5580  1.3869
  159OSM   H13G17877   5.891   3.027   3.651 -1.3678  0.8936 -1.1474
  159OSM   C14F17878   5.823   2.857   3.797  0.7558  0.1436 -0.3137
  159OSM   H14F17879   5.913   2.793   3.794 -0.3556 -1.4802 -0.7241
  159OSM   H14G17880   5.735   2.789   3.789  0.0912  1.0953 -1.4239
  159OSM   C15F17881   5.819   2.935   3.936  0.5969  0.3763 -0.1994
  159OSM   H15F17882   5.794   2.863   4.017  1.3321  1.3765  0.9580
  159OSM   H15G17883   5.741   3.010   3.912  2.4043  3.1088  1.7030
  159OSM   C16F17884   5.949   3.010   3.963 -0.5093 -0.3244 -0.7502
  159OSM   H16F17885   5.957   3.084   3.881  0.9282 -1.3445 -1.5696
  159OSM   H16G17886   6.033   2.937   3.964 -3.1302 -3.6965 -2.3100
  159OSM   C17F17887   5.948   3.071   4.103  0.1046 -0.3907  0.5344
  159OSM   H17F17888   5.925   2.992   4.178  0.3242 -1.3384 -0.3643
  159OSM   H17G17889   5.861   3.139   4.105 -0.2644 -0.6468 -2.3080
  159OSM   C18F17890   6.089   3.129   4.135 -0.1172 -0.0455 -0.2023
  159OSM   H18F17891   6.099   3.151   4.244  1.4296  1.7016 -0.6433
  159OSM   H18G17892   6.103   3.225   4.081  2.1201 -0.8835 -1.2415
  159OSM   H18H17893   6.166   3.061   4.093 -1.5779 -1.7934 -0.1685
  160OSM      N17894   2.617   3.058   1.877 -0.2689  0.1941 -0.3730
  160OSM    C1517895   2.514   3.056   1.769 -0.2709 -0.4449 -0.0328
  160OSM   H15A17896   2.454   3.146   1.761  0.0843  0.0358  2.0324
  160OSM   H15B17897   2.442   2.976   1.772 -0.3075 -0.3927  0.5085
  160OSM   H15C17898   2.571   3.065   1.678 -1.8028 -0.2511 -1.0064
  160OSM    C1417899   2.665   2.913   1.881 -1.1275 -0.3094 -0.5208
  160OSM   H14A17900   2.719   2.902   1.974  0.2060  0.7385 -1.1310
  160OSM   H14B17901   2.722   2.879   1.796  0.7649  0.5381  0.3579
  160OSM   H14C17902   2.590   2.838   1.900 -1.9959  0.6745  0.0359
  160OSM    C1317903   2.732   3.149   1.834  0.0494 -0.5638  0.3298
  160OSM   H13A17904   2.761   3.122   1.734  0.8845  2.7920 -0.4680
  160OSM   H13B17905   2.820   3.141   1.896 -0.4404 -2.2812  0.8494
  160OSM   H13C17906   2.702   3.253   1.833 -0.7858 -0.7037  2.7462
  160OSM    C1217907   2.557   3.107   2.010  0.2024  0.2043  0.6136
  160OSM   H12A17908   2.509   3.022   2.054 -1.0923  0.9700  0.7293
  160OSM   H12B17909   2.473   3.173   1.992  1.6683  1.9667 -0.1808
  160OSM    C1117910   2.644   3.171   2.116 -0.5626 -0.0883  0.4177
  160OSM   H11A17911   2.750   3.140   2.111  0.6724  3.8400 -2.4565
  160OSM   H11B17912   2.607   3.140   2.216  0.4069 -3.2993 -0.1102
  160OSM      P17913   2.520   3.392   2.154 -0.1830 -0.6624 -0.0791
  160OSM    O1317914   2.557   3.532   2.148 -0.6573  0.0624  0.2270
  160OSM    O1417915   2.389   3.354   2.093 -0.0932  0.1635  0.0788
  160OSM    O1117916   2.519   3.344   2.310  0.4212 -0.3989  0.0386
  160OSM    O1217917   2.639   3.311   2.089  1.0843  0.5006  0.0337
  160OSM    C1S17918   2.451   3.429   2.401  0.2306  0.1529  0.2558
  160OSM    H1S17919   2.346   3.432   2.363  0.9116  0.3722 -1.7556
  160OSM    H1T17920   2.490   3.533   2.411  1.4925 -0.1403 -1.1692
  160OSM     NF17921   2.347   3.406   2.635  0.2705 -0.0783 -0.5338
  160OSM    HNF17922   2.368   3.436   2.728 -1.0654  2.0565 -0.8439
  160OSM    C2S17923   2.453   3.362   2.537 -0.5164 -0.7040 -0.1629
  160OSM    H2S17924   2.430   3.256   2.513 -0.9795 -0.8474  0.8664
  160OSM    C3S17925   2.598   3.368   2.593 -0.3229 -0.1573 -0.2577
  160OSM    H3S17926   2.621   3.472   2.625 -1.4028  0.1607 -0.4483
  160OSM     O317927   2.685   3.328   2.493  0.1219 -0.0309  0.0810
  160OSM    HO317928   2.632   3.346   2.415 -2.1389  0.7782  1.6979
  160OSM    C4S17929   2.611   3.289   2.717 -0.2595  0.1184  0.0861
  160OSM    H4S17930   2.652   3.187   2.711  1.5512  0.8193 -0.1713
  160OSM    C5S17931   2.590   3.332   2.844 -0.5348  0.3395  0.1679
  160OSM    H5S17932   2.565   3.438   2.862  3.8668  1.2969  1.7770
  160OSM    C6S17933   2.618   3.261   2.970  0.1115 -0.1862 -0.4639
  160OSM    H6S17934   2.708   3.199   2.952  0.7520  0.6242 -0.0673
  160OSM    H6T17935   2.534   3.203   3.016  1.4279 -2.0741 -0.3038
  160OSM    C7S17936   2.657   3.349   3.090  0.1666 -0.1908  0.1807
  160OSM    H7S17937   2.573   3.412   3.124 -0.2305 -1.1647  1.0818
  160OSM    H7T17938   2.732   3.426   3.062 -0.3011  0.0547 -0.3926
  160OSM    C8S17939   2.686   3.270   3.222 -0.2315 -0.3598 -0.0671
  160OSM    H8S17940   2.788   3.227   3.222 -0.8125 -1.8276  1.0005
  160OSM    H8T17941   2.623   3.179   3.232 -0.3067 -0.3367 -0.3095
  160OSM    C9S17942   2.668   3.357   3.337 -0.2418  0.0027 -0.2218
  160OSM    H9S17943   2.559   3.377   3.342 -0.0485  1.0448 -0.0857
  160OSM    H9T17944   2.719   3.455   3.326 -1.1680  0.5468  0.2744
  160OSM   C10S17945   2.704   3.290   3.470  0.2836  0.0625  0.4105
  160OSM   H10S17946   2.811   3.261   3.460  0.7427  1.8422 -0.2663
  160OSM   H10T17947   2.628   3.213   3.494 -1.5571  1.3399 -0.9958
  160OSM   C11S17948   2.686   3.402   3.575  0.1684  0.0401  0.3318
  160OSM   H11S17949   2.582   3.439   3.571 -1.0232 -3.0981 -1.1920
  160OSM   H11T17950   2.757   3.487   3.568 -1.0838  1.0065 -1.4356
  160OSM   C12S17951   2.689   3.341   3.712 -0.0978 -0.8703 -0.2694
  160OSM   H12S17952   2.789   3.292   3.725 -0.1395 -1.6944 -2.6317
  160OSM   H12T17953   2.611   3.262   3.714  0.4811 -1.4403  0.4332
  160OSM   C13S17954   2.659   3.431   3.831 -0.3286  0.0847 -0.3192
  160OSM   H13S17955   2.579   3.506   3.809 -0.4874 -0.1677 -0.6037
  160OSM   H13T17956   2.737   3.509   3.846 -2.3731  1.9242  1.4620
  160OSM   C14S17957   2.640   3.354   3.963  0.5625  0.8535  0.4609
  160OSM   H14S17958   2.724   3.298   4.010  0.0850 -0.3918 -0.1565
  160OSM   H14T17959   2.571   3.270   3.941  1.2407  0.0633  1.2866
  160OSM   C15S17960   2.571   3.449   4.070  0.7577 -0.0651 -0.3697
  160OSM   H15S17961   2.471   3.487   4.042  1.3742  2.2539  0.3477
  160OSM   H15T17962   2.642   3.535   4.071  1.4057 -0.5823  0.8707
  160OSM   C16S17963   2.559   3.380   4.210 -0.5851  0.5567 -0.3978
  160OSM   H16S17964   2.650   3.320   4.233 -0.8546  0.6382  0.9511
  160OSM   H16T17965   2.481   3.306   4.181 -1.9348  1.5586  0.5628
  160OSM   C17S17966   2.529   3.479   4.320  0.3958  0.3457  0.4636
  160OSM   H17S17967   2.451   3.547   4.279  0.0445 -0.2366  0.1561
  160OSM   H17T17968   2.619   3.542   4.334  0.3372  1.3070 -2.6373
  160OSM   C18S17969   2.483   3.421   4.446  0.4762  0.7975  0.5823
  160OSM   H18S17970   2.392   3.358   4.436  0.1685  1.5239 -1.9925
  160OSM   H18T17971   2.462   3.497   4.523 -0.1034  1.5339 -0.2872
  160OSM   H18U17972   2.563   3.355   4.486  0.9974  0.3118 -1.1369
  160OSM    C1F17973   2.218   3.422   2.608 -0.4721 -0.0197  0.0282
  160OSM     OF17974   2.170   3.375   2.506  0.1555 -0.0479 -0.1496
  160OSM    C2F17975   2.146   3.485   2.713  0.4847 -0.3625 -0.0387
  160OSM    H2F17976   2.095   3.571   2.665 -1.8117 -0.5930  1.7884
  160OSM    H2G17977   2.213   3.527   2.791 -0.9953  1.6797  0.2108
  160OSM    C3F17978   2.044   3.398   2.782 -0.1147  0.2531  0.1621
  160OSM    H3F17979   1.963   3.355   2.719 -0.0074 -0.5717  0.5738
  160OSM    H3G17980   1.997   3.456   2.863  1.4345  0.4081  0.9867
  160OSM    C4F17981   2.089   3.274   2.862 -0.7967  0.1006  0.8927
  160OSM    H4F17982   2.120   3.187   2.799 -0.6821  0.8967 -0.1671
  160OSM    H4G17983   2.005   3.234   2.923  0.0036 -0.6021  1.5678
  160OSM    C5F17984   2.195   3.309   2.968  0.6012  0.2322  0.1238
  160OSM    H5F17985   2.154   3.383   3.040  2.0120  0.7262  0.4446
  160OSM    H5G17986   2.291   3.349   2.928 -0.2183  1.1692 -0.9729
  160OSM    C6F17987   2.227   3.197   3.069 -0.1604  0.3907  0.1114
  160OSM    H6F17988   2.317   3.229   3.126 -2.1632  1.0021  3.1795
  160OSM    H6G17989   2.252   3.107   3.009 -1.1571 -1.2605  2.0496
  160OSM    C7F17990   2.115   3.163   3.173 -0.0242 -0.9704 -0.6370
  160OSM    H7F17991   2.035   3.120   3.109 -0.3639  1.1644 -1.7580
  160OSM    H7G17992   2.085   3.256   3.226 -1.8575 -1.5635 -0.5623
  160OSM    C8F17993   2.149   3.053   3.276 -1.4841 -0.0832 -0.4933
  160OSM    H8F17994   2.153   2.958   3.218  0.0915 -1.4743  1.7491
  160OSM    H8G17995   2.074   3.045   3.358  1.2544  2.1993  2.4845
  160OSM    C9F17996   2.284   3.080   3.333 -0.4818  0.0498  0.9368
  160OSM    H9F17997   2.362   3.044   3.263 -0.4778 -1.2512  1.5680
  160OSM   C10F17998   2.318   3.145   3.442 -0.7777  0.3612 -0.0508
  160OSM   H10F17999   2.425   3.148   3.468 -0.5264 -2.1942 -0.4910
  160OSM   C11F18000   2.217   3.200   3.545  0.7009  0.3816 -0.5231
  160OSM   H11F18001   2.116   3.181   3.502  1.2164 -1.2438 -1.0723
  160OSM   H11G18002   2.218   3.310   3.563 -0.8369  0.3858 -0.2791
  160OSM   C12F18003   2.221   3.128   3.679  0.0676 -0.2430 -0.1173
  160OSM   H12F18004   2.324   3.100   3.708  0.2147  0.7930  0.4264
  160OSM   H12G18005   2.169   3.030   3.667 -2.2237  0.7898  0.6995
  160OSM   C13F18006   2.131   3.203   3.773 -0.8990 -0.0076 -0.7270
  160OSM   H13F18007   2.023   3.182   3.757 -0.6077 -1.0942 -1.3662
  160OSM   H13G18008   2.141   3.314   3.773 -1.3263  0.1013 -3.3085
  160OSM   C14F18009   2.171   3.162   3.917 -0.3216 -0.2077  0.6189
  160OSM   H14F18010   2.278   3.184   3.937 -0.2998  1.9270 -1.4685
  160OSM   H14G18011   2.165   3.053   3.940  1.8594 -0.2363  1.3191
  160OSM   C15F18012   2.094   3.244   4.024  0.0685  0.4259 -0.1447
  160OSM   H15F18013   1.990   3.203   4.021  0.5192 -0.7429 -0.0504
  160OSM   H15G18014   2.105   3.352   3.998 -0.5295  0.6268  0.3940
  160OSM   C16F18015   2.166   3.222   4.164 -0.1122 -0.1019  0.4621
  160OSM   H16F18016   2.228   3.313   4.173 -2.4030  1.4933  1.1267
  160OSM   H16G18017   2.233   3.135   4.174 -0.3551 -0.1515  1.8813
  160OSM   C17F18018   2.053   3.215   4.271 -0.3203 -0.5300 -0.4602
  160OSM   H17F18019   1.978   3.139   4.238 -0.7759  0.4187 -1.7269
  160OSM   H17G18020   2.011   3.318   4.273 -0.7020 -0.6234 -2.2064
  160OSM   C18F18021   2.116   3.174   4.407  0.0122 -0.3646  0.0879
  160OSM   H18F18022   2.174   3.083   4.382 -1.7000 -0.8179 -2.6917
  160OSM   H18G18023   2.036   3.161   4.483 -1.0191  2.1605 -0.4538
  160OSM   H18H18024   2.194   3.249   4.433  0.3864 -0.7309  0.0303
  161OSM      N18025   5.218   0.617   2.172 -0.7091  0.5382 -0.1541
  161OSM    C1518026   5.335   0.563   2.095  0.4451 -0.2002 -0.4938
  161OSM   H15A18027   5.416   0.514   2.146  0.2163 -0.0724  0.0042
  161OSM   H15B18028   5.369   0.648   2.037 -1.9637  0.2436 -1.3974
  161OSM   H15C18029   5.295   0.497   2.020  1.0955  0.1787 -1.1910
  161OSM    C1418030   5.143   0.713   2.093 -0.7333  0.6000  0.2492
  161OSM   H14A18031   5.121   0.685   1.991 -1.4523  0.8931  0.3177
  161OSM   H14B18032   5.208   0.799   2.091 -0.7049  0.6376  1.7217
  161OSM   H14C18033   5.056   0.750   2.144 -0.6710  4.8477 -2.1728
  161OSM    C1318034   5.129   0.508   2.212  0.1037  0.6644 -0.4135
  161OSM   H13A18035   5.125   0.441   2.127 -0.2451  0.0458  0.0857
  161OSM   H13B18036   5.029   0.540   2.235 -0.6462 -1.9345  0.2884
  161OSM   H13C18037   5.170   0.451   2.294 -3.3512  0.5094  1.3852
  161OSM    C1218038   5.257   0.691   2.306 -0.0447 -0.5783 -0.1073
  161OSM   H12A18039   5.173   0.753   2.334  0.2981  0.7754 -1.8489
  161OSM   H12B18040   5.342   0.755   2.288 -2.0942  2.2362 -0.3521
  161OSM    C1118041   5.306   0.598   2.428 -0.9117 -0.0896  0.2850
  161OSM   H11A18042   5.220   0.528   2.443  0.0133 -1.1423  0.8128
  161OSM   H11B18043   5.332   0.653   2.521  1.8381  1.7487 -1.4362
  161OSM      P18044   5.570   0.578   2.411  0.1780 -0.2311  0.0587
  161OSM    O1318045   5.671   0.483   2.352 -0.0155 -0.6464 -0.1100
  161OSM    O1418046   5.566   0.716   2.352 -0.7994 -0.5119 -0.5468
  161OSM    O1118047   5.588   0.591   2.563  0.0363 -0.1555  0.9164
  161OSM    O1218048   5.428   0.523   2.385  0.3049 -0.0469  0.7395
  161OSM    C1S18049   5.548   0.480   2.647 -0.2894 -0.0234 -0.1386
  161OSM    H1S18050   5.610   0.389   2.626 -0.7453 -0.0715 -1.3756
  161OSM    H1T18051   5.449   0.437   2.621  0.6031 -1.7486 -0.8522
  161OSM     NF18052   5.497   0.368   2.863  0.3628 -0.5754  0.1497
  161OSM    HNF18053   5.422   0.375   2.929 -0.0705 -1.2387 -0.2649
  161OSM    C2S18054   5.535   0.500   2.803  0.0351 -0.0754 -0.3353
  161OSM    H2S18055   5.633   0.540   2.837 -0.5943  0.9528  0.3432
  161OSM    C3S18056   5.440   0.622   2.837 -0.0885  0.1690  0.2766
  161OSM    H3S18057   5.336   0.595   2.810  0.1750  0.9917 -1.8143
  161OSM     O318058   5.450   0.739   2.760 -0.1557  0.0755  0.2201
  161OSM    HO318059   5.485   0.715   2.674 -2.3195 -0.4801 -0.5581
  161OSM    C4S18060   5.453   0.649   2.981  0.2474 -0.7124 -0.1589
  161OSM    H4S18061   5.382   0.593   3.043 -0.1802 -0.8871 -0.7931
  161OSM    C5S18062   5.533   0.737   3.054  0.0556  0.8518  0.5736
  161OSM    H5S18063   5.609   0.796   3.002 -0.4744  2.4520  1.5542
  161OSM    C6S18064   5.536   0.735   3.205  0.2003  0.2195 -0.2594
  161OSM    H6S18065   5.480   0.645   3.240  0.5656  0.5442  1.2189
  161OSM    H6T18066   5.477   0.815   3.255 -2.4777 -0.7279 -1.6624
  161OSM    C7S18067   5.670   0.745   3.282  0.5290  0.0719  0.3783
  161OSM    H7S18068   5.735   0.833   3.263  3.2438 -2.3876 -3.3500
  161OSM    H7T18069   5.726   0.661   3.234 -2.4061 -2.3385  0.8323
  161OSM    C8S18070   5.655   0.723   3.432  0.1694  0.0065 -0.7787
  161OSM    H8S18071   5.591   0.636   3.458  2.0819 -0.9729  0.9427
  161OSM    H8T18072   5.601   0.811   3.472 -0.6559 -1.2703  1.0540
  161OSM    C9S18073   5.777   0.690   3.516 -0.0967  0.0437  0.3431
  161OSM    H9S18074   5.853   0.770   3.509 -0.3118  0.0980 -2.9108
  161OSM    H9T18075   5.830   0.600   3.478 -0.1611  0.8138 -1.7120
  161OSM   C10S18076   5.739   0.681   3.665  0.2327  0.1274 -0.3333
  161OSM   H10S18077   5.641   0.632   3.685 -0.5603  2.3967  1.8196
  161OSM   H10T18078   5.711   0.785   3.694  2.4254  1.6941 -3.1922
  161OSM   C11S18079   5.854   0.619   3.747  0.3060  0.2926  0.4616
  161OSM   H11S18080   5.954   0.663   3.726 -0.3753  2.0584  0.8164
  161OSM   H11T18081   5.859   0.508   3.736 -1.8752  0.1423  0.6092
  161OSM   C12S18082   5.837   0.663   3.897 -0.1756  0.1567  0.7083
  161OSM   H12S18083   5.737   0.625   3.926 -0.2785 -0.9044 -0.8931
  161OSM   H12T18084   5.848   0.773   3.904  4.5432 -0.1551  1.2389
  161OSM   C13S18085   5.936   0.613   4.001 -0.0120  0.6333  0.2490
  161OSM   H13S18086   6.041   0.643   3.977 -0.4384  0.1538 -2.5130
  161OSM   H13T18087   5.923   0.503   3.994 -1.9033  0.9442 -2.3253
  161OSM   C14S18088   5.910   0.650   4.144 -0.0999  0.2910  0.0582
  161OSM   H14S18089   5.960   0.583   4.218  0.6706  0.9637  0.1694
  161OSM   H14T18090   5.801   0.646   4.165 -0.2431 -0.3781 -0.7571
  161OSM   C15S18091   5.956   0.790   4.172 -0.7272  0.3137  0.2885
  161OSM   H15S18092   5.881   0.858   4.126 -1.5917 -0.5660  0.3758
  161OSM   H15T18093   6.050   0.800   4.113 -1.9757  0.2605 -1.8126
  161OSM   C16S18094   5.976   0.817   4.323 -0.3555  0.0230  0.1435
  161OSM   H16S18095   5.999   0.926   4.328 -0.1715 -0.0095  0.0075
  161OSM   H16T18096   6.056   0.754   4.366 -1.4724 -1.1884  0.5036
  161OSM   C17S18097   5.861   0.789   4.420  0.0727 -0.1823 -0.3618
  161OSM   H17S18098   5.864   0.679   4.431  0.4844 -0.1350 -0.0035
  161OSM   H17T18099   5.766   0.821   4.371 -0.3223  0.3975  0.7588
  161OSM   C18S18100   5.882   0.875   4.549  0.1579 -0.5633 -0.3973
  161OSM   H18S18101   5.882   0.982   4.518 -0.9326 -0.3826  0.1815
  161OSM   H18T18102   5.973   0.840   4.603  0.5746 -1.6991 -1.7638
  161OSM   H18U18103   5.797   0.846   4.613 -0.2213 -1.2605 -1.1986
  161OSM    C1F18104   5.566   0.254   2.854  0.6714 -0.5354  0.6450
  161OSM     OF18105   5.683   0.254   2.815  0.2777 -0.3279  0.0230
  161OSM    C2F18106   5.501   0.126   2.892 -0.0713  0.6846 -0.1319
  161OSM    H2F18107   5.500   0.057   2.805  0.5270 -0.4738  0.7447
  161OSM    H2G18108   5.395   0.135   2.926 -0.0108  0.7620  0.0335
  161OSM    C3F18109   5.593   0.064   3.001  0.5133 -0.3916 -0.2419
  161OSM    H3F18110   5.699   0.084   2.974  0.4849  1.8044  0.9898
  161OSM    H3G18111   5.578  -0.045   3.015 -0.3928 -0.0958  1.4041
  161OSM    C4F18112   5.578   0.132   3.137 -0.6039 -0.1642 -0.4815
  161OSM    H4F18113   5.474   0.119   3.172 -0.3808 -1.9934 -0.4372
  161OSM    H4G18114   5.589   0.239   3.109  0.3505  0.1202  0.8800
  161OSM    C5F18115   5.682   0.084   3.239  0.0892 -0.5292  0.4885
  161OSM    H5F18116   5.776   0.083   3.181  0.1451 -1.6935  0.5607
  161OSM    H5G18117   5.664  -0.020   3.276 -0.4244 -1.9194 -3.2856
  161OSM    C6F18118   5.696   0.192   3.349 -0.2415  0.3615 -0.1670
  161OSM    H6F18119   5.693   0.293   3.301  1.1244  0.9357  0.9020
  161OSM    H6G18120   5.797   0.170   3.391  0.3800 -1.0189 -2.2245
  161OSM    C7F18121   5.600   0.177   3.468  0.1542 -0.0541 -0.5458
  161OSM    H7F18122   5.639   0.096   3.532 -0.0202 -1.1726 -1.8099
  161OSM    H7G18123   5.509   0.136   3.418  0.1896 -1.3155  0.3886
  161OSM    C8F18124   5.568   0.310   3.534 -0.7572 -0.0866  0.8798
  161OSM    H8F18125   5.549   0.388   3.458 -0.0945 -3.7863 -3.5059
  161OSM    H8G18126   5.658   0.351   3.585  0.1066  0.4523 -0.9931
  161OSM    C9F18127   5.450   0.310   3.630  0.2682  0.1527  0.1788
  161OSM    H9F18128   5.353   0.312   3.577 -0.4061 -0.1394  1.3672
  161OSM   C10F18129   5.458   0.326   3.762 -0.3408  0.1660 -0.1929
  161OSM   H10F18130   5.364   0.317   3.817 -0.7478 -0.0953 -0.9186
  161OSM   C11F18131   5.590   0.325   3.834  0.0376 -0.1318 -0.0375
  161OSM   H11F18132   5.658   0.405   3.798  1.3472 -1.3386 -0.3318
  161OSM   H11G18133   5.642   0.230   3.812 -0.0826 -0.6437  1.7017
  161OSM   C12F18134   5.563   0.352   3.985 -0.5326 -0.2893  0.0744
  161OSM   H12F18135   5.485   0.431   3.999 -0.3080 -0.4072  2.5227
  161OSM   H12G18136   5.651   0.400   4.033  0.3727 -0.3865 -1.4457
  161OSM   C13F18137   5.531   0.224   4.065 -0.1752  0.1710 -0.1642
  161OSM   H13F18138   5.595   0.142   4.026 -2.3757 -2.5760  1.6339
  161OSM   H13G18139   5.433   0.185   4.030  0.1895  1.8284 -3.4121
  161OSM   C14F18140   5.559   0.230   4.212 -0.2636  0.0990 -0.5515
  161OSM   H14F18141   5.520   0.324   4.256 -0.2804  0.1625 -0.7010
  161OSM   H14G18142   5.670   0.237   4.223 -0.2113 -0.2277 -0.8493
  161OSM   C15F18143   5.495   0.112   4.289 -0.0842 -0.4474  0.3591
  161OSM   H15F18144   5.534   0.107   4.393 -0.4751 -0.0445  0.5311
  161OSM   H15G18145   5.528   0.017   4.241  2.2334 -0.2705  1.4822
  161OSM   C16F18146   5.347   0.128   4.293  0.0562 -0.0193  0.1749
  161OSM   H16F18147   5.315   0.113   4.188 -1.6396  2.4769  0.2306
  161OSM   H16G18148   5.317   0.234   4.312 -0.2044  0.1228 -0.9460
  161OSM   C17F18149   5.271   0.025   4.375 -0.3193 -0.6769 -0.1176
  161OSM   H17F18150   5.313  -0.076   4.355 -1.1584 -1.0882  0.1450
  161OSM   H17G18151   5.164   0.029   4.345 -0.2786 -1.6572 -0.4200
  161OSM   C18F18152   5.294   0.047   4.533  0.9955 -0.4575  0.2501
  161OSM   H18F18153   5.402   0.068   4.549  0.7777  1.4432 -0.5787
  161OSM   H18G18154   5.266  -0.045   4.589 -0.1983 -1.0083 -1.2009
  161OSM   H18H18155   5.242   0.140   4.564 -3.3799 -1.8863 -1.9835
  162OSM      N18156   0.399   0.420   2.003 -0.1506  0.3658 -0.2130
  162OSM    C1518157   0.257   0.447   1.953  0.1514  0.2119 -0.8041
  162OSM   H15A18158   0.263   0.541   1.899  2.8989  0.5934 -0.0191
  162OSM   H15B18159   0.193   0.455   2.039 -0.2794 -1.9434 -0.8670
  162OSM   H15C18160   0.218   0.371   1.888  0.5219 -0.9035  0.2415
  162OSM    C1418161   0.423   0.276   2.048  0.0175 -0.1232 -0.1928
  162OSM   H14A18162   0.382   0.212   1.972 -0.0426 -1.4632  0.9277
  162OSM   H14B18163   0.377   0.261   2.144  2.4405  2.1848  1.4839
  162OSM   H14C18164   0.527   0.255   2.070 -0.2192  0.1134  1.2412
  162OSM    C1318165   0.485   0.443   1.880 -0.1685 -0.1591 -1.2606
  162OSM   H13A18166   0.465   0.377   1.796 -1.9441  0.2065 -1.1666
  162OSM   H13B18167   0.590   0.430   1.901 -0.3520 -0.4103 -0.4794
  162OSM   H13C18168   0.458   0.541   1.844 -0.8401  0.4673  0.8090
  162OSM    C1218169   0.444   0.519   2.109  0.7840  0.6516 -0.0886
  162OSM   H12A18170   0.416   0.615   2.068  0.8649  0.9477  0.5414
  162OSM   H12B18171   0.551   0.523   2.121  1.0890 -0.0302 -2.1757
  162OSM    C1118172   0.374   0.518   2.247  0.1590  0.3101 -0.0215
  162OSM   H11A18173   0.411   0.600   2.312 -3.3586 -0.6831  3.6374
  162OSM   H11B18174   0.393   0.424   2.305 -0.1734 -0.8653 -1.7376
  162OSM      P18175   0.165   0.682   2.245  0.1141  0.4330 -0.2157
  162OSM    O1318176   0.221   0.773   2.144  0.0400  0.3200 -0.2995
  162OSM    O1418177   0.022   0.655   2.240 -0.2218  0.3704 -0.0839
  162OSM    O1118178   0.192   0.742   2.389  0.6306  0.1172 -0.4529
  162OSM    O1218179   0.232   0.537   2.245  0.3148  0.0577  0.4566
  162OSM    C1S18180   0.137   0.677   2.507  0.2765  0.0058 -0.3043
  162OSM    H1S18181   0.078   0.584   2.491 -0.1294 -0.2686  2.2565
  162OSM    H1T18182   0.068   0.742   2.565 -1.1671 -0.8439 -1.0268
  162OSM     NF18183   0.182   0.578   2.722 -1.5834  0.1584 -0.4196
  162OSM    HNF18184   0.143   0.639   2.790  1.4061 -0.1956  1.8280
  162OSM    C2S18185   0.252   0.645   2.613 -0.2598  0.0957 -0.8830
  162OSM    H2S18186   0.333   0.583   2.570 -0.9130  0.5328 -2.8950
  162OSM    C3S18187   0.329   0.777   2.645  0.7900 -0.6295  0.0964
  162OSM    H3S18188   0.257   0.849   2.690  0.0888  0.1251 -2.1226
  162OSM     O318189   0.386   0.849   2.535  0.7253 -0.4975  0.2715
  162OSM    HO318190   0.333   0.824   2.459  0.5300  0.9550 -0.1192
  162OSM    C4S18191   0.439   0.776   2.745 -0.0556  0.1798 -0.8380
  162OSM    H4S18192   0.521   0.705   2.724 -0.1832 -1.1788  2.5263
  162OSM    C5S18193   0.431   0.846   2.857  0.0378 -0.6030  0.7401
  162OSM    H5S18194   0.344   0.902   2.893 -1.2654 -3.4991  2.5161
  162OSM    C6S18195   0.539   0.839   2.962 -0.1427 -0.1431 -0.6015
  162OSM    H6S18196   0.573   0.940   2.995  1.4051 -0.8882  0.1917
  162OSM    H6T18197   0.627   0.787   2.919 -0.5049  1.4535 -3.5426
  162OSM    C7S18198   0.486   0.766   3.090  0.1123 -0.3221 -0.5124
  162OSM    H7S18199   0.480   0.657   3.069  0.7756 -0.5164  0.2485
  162OSM    H7T18200   0.395   0.807   3.137  2.1063  1.0378  2.4609
  162OSM    C8S18201   0.602   0.787   3.198  0.4345  0.5107  0.1876
  162OSM    H8S18202   0.605   0.897   3.215 -1.5868  0.6813 -0.3591
  162OSM    H8T18203   0.705   0.761   3.163  0.1769  0.6388 -0.6965
  162OSM    C9S18204   0.574   0.729   3.339 -0.0463 -0.2951 -0.4485
  162OSM    H9S18205   0.476   0.760   3.379 -0.1210  2.3316 -2.4005
  162OSM    H9T18206   0.651   0.773   3.407  1.6796 -3.2538 -0.2995
  162OSM   C10S18207   0.597   0.579   3.343  0.7586  1.0457  0.2681
  162OSM   H10S18208   0.682   0.550   3.277 -0.0289  1.2217 -0.8658
  162OSM   H10T18209   0.519   0.513   3.299  2.5349 -1.3880  0.5856
  162OSM   C11S18210   0.626   0.517   3.478 -0.1443  0.1382 -0.6877
  162OSM   H11S18211   0.728   0.539   3.517 -1.4203  1.2586  2.2547
  162OSM   H11T18212   0.620   0.406   3.476 -2.1864  0.2090 -0.4543
  162OSM   C12S18213   0.535   0.558   3.591  0.0146 -0.3310  0.8318
  162OSM   H12S18214   0.433   0.520   3.570  0.9663 -1.7661 -1.6839
  162OSM   H12T18215   0.532   0.668   3.598  1.4852 -0.1675 -0.5962
  162OSM   C13S18216   0.584   0.497   3.716  0.0622 -0.4272 -0.0373
  162OSM   H13S18217   0.676   0.552   3.743  0.0704 -0.1214 -0.6727
  162OSM   H13T18218   0.610   0.389   3.713  2.4111  0.1097 -1.1205
  162OSM   C14S18219   0.475   0.512   3.828  0.6964 -0.3935  0.0725
  162OSM   H14S18220   0.382   0.458   3.801 -0.5579  1.1712  1.0792
  162OSM   H14T18221   0.456   0.621   3.837  0.7317 -0.3374 -0.4983
  162OSM   C15S18222   0.514   0.474   3.968 -0.1273 -0.3374  0.1390
  162OSM   H15S18223   0.612   0.520   3.990 -0.5191 -0.6279  2.8933
  162OSM   H15T18224   0.519   0.364   3.979  1.3295 -0.3203 -0.1565
  162OSM   C16S18225   0.425   0.527   4.078  0.5886  0.0963  0.2416
  162OSM   H16S18226   0.319   0.493   4.068  0.1973  1.2157  0.4913
  162OSM   H16T18227   0.433   0.637   4.079  1.2817  0.0467  0.5010
  162OSM   C17S18228   0.462   0.469   4.216  0.0106  0.3640 -0.2857
  162OSM   H17S18229   0.565   0.502   4.245 -1.1815  3.0151  1.3194
  162OSM   H17T18230   0.452   0.359   4.205 -3.3845  0.4713  0.7861
  162OSM   C18S18231   0.370   0.510   4.326  0.2772 -0.1175  0.5823
  162OSM   H18S18232   0.402   0.451   4.415  0.2191 -1.7943 -0.4763
  162OSM   H18T18233   0.265   0.492   4.298  0.1612  1.3164 -0.0109
  162OSM   H18U18234   0.372   0.617   4.359  0.1404  0.5711 -1.5136
  162OSM    C1F18235   0.139   0.455   2.713 -0.4336 -0.0621 -0.4040
  162OSM     OF18236   0.170   0.381   2.618 -0.3969  0.0545 -0.2249
  162OSM    C2F18237   0.055   0.414   2.830 -0.0233 -0.0622  0.0396
  162OSM    H2F18238   0.054   0.491   2.910  1.1384  0.0141 -0.0018
  162OSM    H2G18239   0.097   0.325   2.881 -0.3061 -0.8934 -1.1277
  162OSM    C3F18240  -0.094   0.403   2.781 -0.6336 -0.1141 -0.5092
  162OSM    H3F18241  -0.106   0.337   2.692  0.0610 -1.4517  0.3496
  162OSM    H3G18242  -0.133   0.503   2.754 -0.2800 -0.1752 -1.2634
  162OSM    C4F18243  -0.175   0.339   2.895  0.0574  0.3344 -0.3059
  162OSM    H4F18244  -0.118   0.250   2.926 -1.0913  0.1215  1.3242
  162OSM    H4G18245  -0.275   0.303   2.864  0.8490 -4.7007  1.9935
  162OSM    C5F18246  -0.192   0.424   3.021 -0.0222 -0.2340 -0.9765
  162OSM    H5F18247  -0.273   0.498   3.006  1.2927  1.1841 -1.3038
  162OSM    H5G18248  -0.100   0.483   3.041  1.3403 -2.7097  0.7022
  162OSM    C6F18249  -0.212   0.350   3.150 -0.1094 -0.5951  0.2946
  162OSM    H6F18250  -0.183   0.422   3.229  1.6210 -0.1005 -0.7286
  162OSM    H6G18251  -0.134   0.272   3.164 -0.5173 -1.2010 -0.7109
  162OSM    C7F18252  -0.338   0.280   3.185  0.2643 -0.2256  0.7572
  162OSM    H7F18253  -0.377   0.207   3.110 -1.8142  1.1510  0.4230
  162OSM    H7G18254  -0.424   0.351   3.182  0.9775  0.6390 -1.0110
  162OSM    C8F18255  -0.335   0.234   3.335 -0.4144 -0.7132  0.5234
  162OSM    H8F18256  -0.304   0.323   3.394 -1.4795 -0.7674  1.1922
  162OSM    H8G18257  -0.258   0.153   3.332  0.2121 -0.1125  0.1790
  162OSM    C9F18258  -0.461   0.165   3.369 -0.3181 -0.5115  0.6464
  162OSM    H9F18259  -0.549   0.220   3.335  1.3607  0.6974 -2.0767
  162OSM   C10F18260  -0.480   0.056   3.444 -0.6537  1.2959 -0.9582
  162OSM   H10F18261  -0.579   0.014   3.468 -0.0877  0.4184 -0.0837
  162OSM   C11F18262  -0.369  -0.039   3.491 -1.2578 -0.2408  0.7721
  162OSM   H11F18263  -0.277  -0.018   3.433 -2.9171  1.9458 -1.2432
  162OSM   H11G18264  -0.398  -0.143   3.466 -0.5044 -0.0274 -1.1029
  162OSM   C12F18265  -0.333  -0.021   3.638 -0.5560 -0.0859  0.1833
  162OSM   H12F18266  -0.306   0.082   3.669  1.5355 -0.9885  1.5687
  162OSM   H12G18267  -0.241  -0.077   3.664  1.6822  3.8490  1.5790
  162OSM   C13F18268  -0.449  -0.054   3.729  0.1735 -0.2269 -0.7160
  162OSM   H13F18269  -0.493  -0.150   3.694  4.7535 -2.4677 -1.0672
  162OSM   H13G18270  -0.527   0.024   3.715  1.0500  0.5007 -1.7150
  162OSM   C14F18271  -0.416  -0.046   3.880 -1.5703 -0.3405 -0.6537
  162OSM   H14F18272  -0.373   0.056   3.891 -1.7176 -0.4551  1.2701
  162OSM   H14G18273  -0.338  -0.123   3.900 -2.7628 -1.4923 -0.2877
  162OSM   C15F18274  -0.548  -0.060   3.966  0.4790 -0.8772 -0.3990
  162OSM   H15F18275  -0.594  -0.156   3.936  1.0309 -1.1922 -0.2499
  162OSM   H15G18276  -0.619   0.023   3.946  1.5261  0.0918 -0.1598
  162OSM   C16F18277  -0.519  -0.052   4.115  0.4596  0.0665  0.0424
  162OSM   H16F18278  -0.444  -0.130   4.143  1.2126  0.4544 -0.8568
  162OSM   H16G18279  -0.603  -0.090   4.177  1.0334  0.4997  1.1184
  162OSM   C17F18280  -0.466   0.080   4.166  0.2888  0.7444  0.1774
  162OSM   H17F18281  -0.541   0.153   4.130 -2.1449 -1.3166  0.7887
  162OSM   H17G18282  -0.370   0.108   4.118 -0.6898  2.1148 -1.0576
  162OSM   C18F18283  -0.445   0.098   4.318 -0.3377  0.1835 -0.3135
  162OSM   H18F18284  -0.370   0.174   4.346 -1.5570  0.9221  1.0788
  162OSM   H18G18285  -0.401   0.003   4.355 -0.5089  0.0000 -0.5718
  162OSM   H18H18286  -0.546   0.108   4.365 -0.8438  1.7933 -1.6538
  163OSM      N18287   5.761   0.935   2.640 -0.5497 -0.1811  0.7867
  163OSM    C1518288   5.660   0.999   2.727 -0.1461 -0.0627 -0.0533
  163OSM   H15A18289   5.684   0.997   2.832  1.8533 -1.2757 -0.4733
  163OSM   H15B18290   5.563   0.952   2.729 -0.7811  1.2207  0.5873
  163OSM   H15C18291   5.626   1.100   2.709 -2.1192 -0.6841  0.0094
  163OSM    C1418292   5.893   1.008   2.659  0.3813  0.1764  0.0866
  163OSM   H14A18293   5.906   1.029   2.764 -2.7661 -3.5825  1.5205
  163OSM   H14B18294   5.884   1.091   2.591 -0.2278 -0.5956 -0.8161
  163OSM   H14C18295   5.972   0.941   2.629  0.6931 -1.2262  3.5934
  163OSM    C1318296   5.764   0.795   2.687 -0.2056  0.5545 -0.2787
  163OSM   H13A18297   5.663   0.757   2.678 -0.6601  2.1624 -2.8188
  163OSM   H13B18298   5.798   0.777   2.788 -2.0670  1.8038  0.6375
  163OSM   H13C18299   5.815   0.730   2.617 -0.0462  2.1151 -1.6601
  163OSM    C1218300   5.720   0.932   2.492  0.5092 -0.2806  0.4810
  163OSM   H12A18301   5.623   0.886   2.490  1.5790 -2.6525 -0.3004
  163OSM   H12B18302   5.785   0.876   2.426 -0.9585 -1.5893  0.0688
  163OSM    C1118303   5.706   1.074   2.439 -0.3909 -1.0161 -0.2362
  163OSM   H11A18304   5.661   1.138   2.518 -0.5090  0.3418 -1.3532
  163OSM   H11B18305   5.641   1.069   2.350  0.2353  1.1415 -0.8947
  163OSM      P18306   5.844   1.287   2.367  0.0586  0.4123  0.2303
  163OSM    O1318307   5.972   1.318   2.294 -0.5253  0.8855 -0.4474
  163OSM    O1418308   5.722   1.329   2.298  0.2043 -0.1225 -0.3252
  163OSM    O1118309   5.848   1.357   2.510  0.0993 -0.2956 -0.0924
  163OSM    O1218310   5.839   1.133   2.407  0.0487 -0.1730 -0.3388
  163OSM    C1S18311   5.961   1.344   2.598  0.2856  0.0198  0.1818
  163OSM    H1S18312   6.048   1.393   2.550 -1.7251  0.1836 -3.6510
  163OSM    H1T18313   5.982   1.236   2.613 -1.2955 -0.3054  0.2270
  163OSM     NF18314   6.052   1.428   2.806  0.5476 -0.2398 -0.0500
  163OSM    HNF18315   6.069   1.370   2.885  2.2258  0.2531 -0.0281
  163OSM    C2S18316   5.929   1.410   2.727 -0.8007  0.5661 -0.1975
  163OSM    H2S18317   5.891   1.511   2.700 -0.3600  1.5821  2.6497
  163OSM    C3S18318   5.817   1.343   2.802  0.1493  0.3684  0.6807
  163OSM    H3S18319   5.842   1.236   2.819  1.2498  0.3064 -1.1215
  163OSM     O318320   5.693   1.345   2.733 -0.0081 -0.2966  0.0482
  163OSM    HO318321   5.708   1.395   2.653  1.2488  0.5874  0.8127
  163OSM    C4S18322   5.796   1.410   2.938 -0.4619  0.9599 -0.4215
  163OSM    H4S18323   5.829   1.348   3.023 -1.4703  0.8093 -0.1226
  163OSM    C5S18324   5.726   1.521   2.966 -0.0205  0.1446  0.4779
  163OSM    H5S18325   5.676   1.573   2.884 -2.5060 -0.3266  1.6030
  163OSM    C6S18326   5.695   1.578   3.101  0.2113 -0.2488  0.2627
  163OSM    H6S18327   5.586   1.582   3.120 -0.1703  0.6550 -1.8503
  163OSM    H6T18328   5.731   1.683   3.108  0.0553 -0.1450 -0.4406
  163OSM    C7S18329   5.766   1.518   3.225  0.0493 -0.1749  0.4267
  163OSM    H7S18330   5.873   1.495   3.206  0.1177  0.3639  0.1389
  163OSM    H7T18331   5.711   1.426   3.251 -1.2866  0.7543  0.9865
  163OSM    C8S18332   5.750   1.607   3.350  0.5844  0.3172  0.3345
  163OSM    H8S18333   5.644   1.634   3.338  0.0572 -1.6691  0.1264
  163OSM    H8T18334   5.816   1.694   3.330  2.2072 -1.2220 -1.4035
  163OSM    C9S18335   5.773   1.544   3.487  0.2950  0.2408 -0.4607
  163OSM    H9S18336   5.877   1.505   3.495  0.2221  0.3580  1.5176
  163OSM    H9T18337   5.704   1.459   3.506  0.5657 -0.1909 -1.3653
  163OSM   C10S18338   5.764   1.650   3.600  0.1829  0.3415  0.4290
  163OSM   H10S18339   5.664   1.699   3.604  0.6720  1.4418 -0.1115
  163OSM   H10T18340   5.837   1.730   3.576  0.3559 -0.3619 -1.6194
  163OSM   C11S18341   5.779   1.577   3.739 -0.5055  0.1966 -0.1435
  163OSM   H11S18342   5.864   1.507   3.755 -0.8988  0.0237  1.3593
  163OSM   H11T18343   5.685   1.519   3.746 -1.0107  0.7872 -1.6395
  163OSM   C12S18344   5.773   1.688   3.839  0.2611  0.6558 -0.2640
  163OSM   H12S18345   5.711   1.762   3.785 -0.1858 -1.1167 -2.3500
  163OSM   H12T18346   5.868   1.742   3.859  1.2283 -0.1297 -2.4036
  163OSM   C13S18347   5.703   1.651   3.972  0.4016 -0.2885 -0.1104
  163OSM   H13S18348   5.766   1.567   4.010  0.2182 -0.4991 -0.2625
  163OSM   H13T18349   5.602   1.612   3.947  0.8893  0.7852 -4.7688
  163OSM   C14S18350   5.704   1.766   4.069  0.2200  0.1056 -0.4010
  163OSM   H14S18351   5.656   1.855   4.022  1.4730  1.6792  1.1486
  163OSM   H14T18352   5.809   1.790   4.098 -0.3377 -0.2360  2.1894
  163OSM   C15S18353   5.625   1.744   4.198 -0.1393 -0.1936  0.6433
  163OSM   H15S18354   5.679   1.659   4.243  0.5613  0.5119  1.1676
  163OSM   H15T18355   5.524   1.713   4.163  0.3966  0.4797 -1.6394
  163OSM   C16S18356   5.625   1.869   4.279  0.6055  0.0802  0.5144
  163OSM   H16S18357   5.584   1.951   4.215  0.3276 -0.4349  0.0215
  163OSM   H16T18358   5.731   1.897   4.296  0.6854 -0.5176  1.0241
  163OSM   C17S18359   5.546   1.858   4.410  0.0801  0.0275  0.4444
  163OSM   H17S18360   5.607   1.784   4.467 -1.8576  0.0066  2.6292
  163OSM   H17T18361   5.442   1.820   4.397  0.4328 -0.5772 -0.7598
  163OSM   C18S18362   5.547   1.985   4.489  0.0746  0.3378  0.3732
  163OSM   H18S18363   5.480   1.956   4.573 -1.9247 -1.7664 -1.7697
  163OSM   H18T18364   5.485   2.068   4.449  0.3921 -0.9519 -3.1666
  163OSM   H18U18365   5.650   2.017   4.517  1.7612 -0.2507 -4.3475
  163OSM    C1F18366   6.148   1.506   2.764 -0.7290  0.9351 -0.3375
  163OSM     OF18367   6.135   1.584   2.672  0.1481 -0.8436  0.4390
  163OSM    C2F18368   6.283   1.478   2.823 -0.0450  0.2454 -0.3600
  163OSM    H2F18369   6.347   1.426   2.749  1.0442 -0.6859  1.1829
  163OSM    H2G18370   6.253   1.408   2.903 -1.6936  0.4057 -0.8028
  163OSM    C3F18371   6.373   1.599   2.874  0.1867  0.4362 -1.2521
  163OSM    H3F18372   6.362   1.681   2.799  2.1171  1.2480 -0.6805
  163OSM    H3G18373   6.479   1.571   2.888 -0.0776 -1.0172 -1.9504
  163OSM    C4F18374   6.328   1.649   3.011  0.6707  0.2339 -0.5075
  163OSM    H4F18375   6.218   1.657   3.024  0.9263  0.7750  1.6935
  163OSM    H4G18376   6.375   1.747   3.033  0.1762  0.1984  0.7897
  163OSM    C5F18377   6.380   1.563   3.126 -0.0300 -0.5272  0.4967
  163OSM    H5F18378   6.485   1.525   3.118  0.5115  1.2693 -2.0719
  163OSM    H5G18379   6.326   1.466   3.124 -1.7958  0.4044  1.1573
  163OSM    C6F18380   6.368   1.621   3.269  0.3019  0.5082 -0.2044
  163OSM    H6F18381   6.441   1.702   3.293  0.4985  0.1667  0.3904
  163OSM    H6G18382   6.403   1.547   3.345  0.5893 -0.5294 -1.3231
  163OSM    C7F18383   6.226   1.663   3.291 -0.1019 -0.8975  0.0125
  163OSM    H7F18384   6.164   1.575   3.260  2.2272 -2.5111 -0.3019
  163OSM    H7G18385   6.196   1.745   3.223  1.2769 -2.6277 -2.8396
  163OSM    C8F18386   6.194   1.701   3.433 -0.2170 -0.9217  0.1813
  163OSM    H8F18387   6.089   1.735   3.444 -0.3068 -1.3334  0.6209
  163OSM    H8G18388   6.259   1.788   3.459 -0.2253 -0.6857 -0.5649
  163OSM    C9F18389   6.208   1.587   3.538 -0.6042 -0.2190 -0.1714
  163OSM    H9F18390   6.208   1.483   3.502  2.9372  0.2073 -1.8668
  163OSM   C10F18391   6.234   1.612   3.670 -0.3754 -0.1594 -0.1653
  163OSM   H10F18392   6.244   1.522   3.731  0.4420  0.4223  0.5757
  163OSM   C11F18393   6.254   1.741   3.744 -0.6940 -0.0254  0.4640
  163OSM   H11F18394   6.174   1.747   3.821 -0.5674 -0.7214  0.6517
  163OSM   H11G18395   6.237   1.827   3.675  0.5796  0.2193  0.4368
  163OSM   C12F18396   6.402   1.748   3.796 -0.5919 -0.7364 -0.5552
  163OSM   H12F18397   6.423   1.837   3.859 -2.1273 -0.2413 -0.7185
  163OSM   H12G18398   6.477   1.757   3.714 -0.8352 -2.0156 -0.9425
  163OSM   C13F18399   6.438   1.651   3.910 -0.4870  0.2364 -0.0331
  163OSM   H13F18400   6.416   1.547   3.877 -0.6617  0.3076 -0.1467
  163OSM   H13G18401   6.353   1.675   3.977 -0.6823 -0.3708 -0.0532
  163OSM   C14F18402   6.573   1.680   3.969 -0.5087  0.3117  1.0380
  163OSM   H14F18403   6.590   1.787   3.995  1.6966  0.8065 -1.8348
  163OSM   H14G18404   6.643   1.683   3.882 -0.3270  1.3147  1.2060
  163OSM   C15F18405   6.611   1.582   4.080 -0.1005  0.8252  0.5542
  163OSM   H15F18406   6.585   1.485   4.033 -0.7681  1.1536  0.2281
  163OSM   H15G18407   6.541   1.586   4.166 -3.0981  1.0021 -1.7665
  163OSM   C16F18408   6.757   1.585   4.127  0.0629  0.1572  0.3787
  163OSM   H16F18409   6.794   1.682   4.166  0.4185 -0.3046  1.2111
  163OSM   H16G18410   6.818   1.561   4.037 -2.0212  0.1457 -1.1206
  163OSM   C17F18411   6.787   1.478   4.236  0.3322 -0.2656 -0.3169
  163OSM   H17F18412   6.732   1.516   4.325  0.7799  1.7909 -0.8685
  163OSM   H17G18413   6.893   1.479   4.269  0.2352  3.0025  0.2542
  163OSM   C18F18414   6.730   1.335   4.205  0.4076  0.0525 -0.3486
  163OSM   H18F18415   6.623   1.332   4.176 -0.1122  3.3426  0.7388
  163OSM   H18G18416   6.737   1.273   4.298 -1.4305  0.3827  0.0480
  163OSM   H18H18417   6.793   1.291   4.125 -2.2180 -0.1606 -2.4164
  164OSM      N18418   1.789   2.675   1.991 -0.0807  0.8821  0.3746
  164OSM    C1518419   1.819   2.640   2.135  0.0365  0.1396  0.3777
  164OSM   H15A18420   1.916   2.594   2.137  0.8945  1.7962 -0.6258
  164OSM   H15B18421   1.745   2.567   2.164 -1.2173  0.6624 -1.2789
  164OSM   H15C18422   1.806   2.723   2.202  0.9050 -0.0275  0.7713
  164OSM    C1418423   1.787   2.553   1.906 -0.4775  0.5158  0.2622
  164OSM   H14A18424   1.724   2.483   1.959 -1.6058 -0.6710 -2.4520
  164OSM   H14B18425   1.888   2.513   1.910 -0.3640  0.7552 -0.1601
  164OSM   H14C18426   1.754   2.567   1.804  0.6301 -0.9368 -0.3241
  164OSM    C1318427   1.646   2.732   1.981 -0.7019 -0.2981  0.4960
  164OSM   H13A18428   1.569   2.662   2.009 -2.7634  0.5625 -2.5816
  164OSM   H13B18429   1.622   2.768   1.882 -0.2887 -1.3153  0.0136
  164OSM   H13C18430   1.644   2.821   2.043  0.4663  0.3530 -0.3578
  164OSM    C1218431   1.892   2.773   1.935  0.6188 -0.4988 -0.3941
  164OSM   H12A18432   1.863   2.873   1.966 -1.5896 -1.5520  1.2565
  164OSM   H12B18433   1.887   2.774   1.827 -3.3193 -0.8110 -0.3540
  164OSM    C1118434   2.031   2.754   1.988 -0.7479  0.9080 -0.3096
  164OSM   H11A18435   2.049   2.776   2.095  0.8475 -0.3287 -0.2782
  164OSM   H11B18436   2.103   2.821   1.935  1.9233 -1.2059  0.4171
  164OSM      P18437   2.157   2.523   2.061  0.4375 -0.0218  0.2683
  164OSM    O1318438   2.135   2.383   2.007  0.2600 -0.1256  0.3513
  164OSM    O1418439   2.295   2.568   2.089  0.3572 -0.1654  0.1315
  164OSM    O1118440   2.093   2.533   2.201  0.4523 -0.2292  0.2202
  164OSM    O1218441   2.080   2.622   1.968  0.0691  0.0387  0.0530
  164OSM    C1S18442   2.137   2.610   2.309 -1.2677 -0.1121  0.4429
  164OSM    H1S18443   2.137   2.718   2.281 -0.9838 -0.2576 -0.1272
  164OSM    H1T18444   2.237   2.581   2.348 -0.6869  0.9453 -0.2185
  164OSM     NF18445   2.065   2.694   2.528  0.2254 -0.0261 -0.2624
  164OSM    HNF18446   2.104   2.665   2.615  1.1326  2.1345  0.1086
  164OSM    C2S18447   2.038   2.595   2.427 -0.7725  0.4173 -0.2590
  164OSM    H2S18448   1.936   2.615   2.389 -2.1905  0.2263  3.0910
  164OSM    C3S18449   2.041   2.455   2.477  0.4397  0.8228  0.2437
  164OSM    H3S18450   2.139   2.434   2.525 -0.0417  0.3668  1.0440
  164OSM     O318451   2.042   2.348   2.380  0.5114 -0.1522 -0.0020
  164OSM    HO318452   2.046   2.392   2.295  2.1555  1.8081  0.9876
  164OSM    C4S18453   1.931   2.431   2.574 -0.6945  0.0384 -0.2008
  164OSM    H4S18454   1.972   2.428   2.676  1.1666  0.3813 -0.8915
  164OSM    C5S18455   1.807   2.382   2.546 -0.3821 -0.3317  0.3448
  164OSM    H5S18456   1.786   2.358   2.441  0.5976 -0.4987  0.1733
  164OSM    C6S18457   1.721   2.325   2.656 -0.5683  0.0005 -0.0194
  164OSM    H6S18458   1.694   2.220   2.633  2.1970 -0.3069 -2.5690
  164OSM    H6T18459   1.628   2.384   2.659  0.2102  1.2443  0.3049
  164OSM    C7S18460   1.773   2.330   2.798 -0.3522  0.7986 -0.2586
  164OSM    H7S18461   1.798   2.432   2.834 -0.6646 -0.4645  4.1233
  164OSM    H7T18462   1.865   2.268   2.810 -0.5066  0.3730 -1.1883
  164OSM    C8S18463   1.680   2.278   2.915  0.5833  0.0175  0.3226
  164OSM    H8S18464   1.642   2.180   2.879 -0.1987 -0.6447  2.7614
  164OSM    H8T18465   1.602   2.354   2.936  2.2307  1.3286  2.0194
  164OSM    C9S18466   1.753   2.266   3.049  0.8013 -0.3685 -0.3182
  164OSM    H9S18467   1.797   2.366   3.069  0.8412 -0.8895  2.7726
  164OSM    H9T18468   1.845   2.207   3.026 -0.1002 -2.5131  1.2304
  164OSM   C10S18469   1.669   2.204   3.163 -0.2894 -0.1873  0.2773
  164OSM   H10S18470   1.620   2.113   3.122 -0.0565  0.3121 -1.1637
  164OSM   H10T18471   1.583   2.273   3.174  0.4329  0.6833  0.6116
  164OSM   C11S18472   1.758   2.180   3.282 -0.6146  0.8653 -0.7454
  164OSM   H11S18473   1.809   2.274   3.313  1.6051 -0.4830 -0.0838
  164OSM   H11T18474   1.836   2.108   3.250 -0.6328  0.4924  0.0192
  164OSM   C12S18475   1.687   2.122   3.405  0.6362  0.5641 -0.2883
  164OSM   H12S18476   1.638   2.024   3.383  1.9978 -0.5743  1.4246
  164OSM   H12T18477   1.610   2.197   3.435  0.6980 -0.3754  2.5735
  164OSM   C13S18478   1.781   2.107   3.524 -0.1927  0.1260  0.1254
  164OSM   H13S18479   1.837   2.201   3.540 -0.8092  0.2920  1.4660
  164OSM   H13T18480   1.853   2.023   3.510  0.4679  0.5243  1.0777
  164OSM   C14S18481   1.719   2.081   3.667  0.3478  0.4272  0.3212
  164OSM   H14S18482   1.809   2.086   3.731  0.8374 -0.1188 -0.3033
  164OSM   H14T18483   1.675   1.979   3.676 -1.8252  1.4244  1.6344
  164OSM   C15S18484   1.624   2.186   3.724 -0.0190 -0.5361 -0.6275
  164OSM   H15S18485   1.529   2.192   3.667 -0.5025 -0.6546  0.1599
  164OSM   H15T18486   1.676   2.283   3.705 -1.7886  0.2747 -1.5244
  164OSM   C16S18487   1.603   2.178   3.877  0.2251  0.2841  0.6710
  164OSM   H16S18488   1.683   2.118   3.927  0.3664 -1.3733 -1.4000
  164OSM   H16T18489   1.513   2.118   3.900  0.7204 -1.0711 -0.7422
  164OSM   C17S18490   1.595   2.319   3.930  0.1762 -0.3228 -0.2505
  164OSM   H17S18491   1.536   2.390   3.868 -0.0958  0.9080  1.3313
  164OSM   H17T18492   1.695   2.366   3.930 -0.5302  1.2631 -0.1912
  164OSM   C18S18493   1.514   2.317   4.061 -0.2631  0.5249  0.8457
  164OSM   H18S18494   1.538   2.412   4.114 -0.4312  0.9925  0.0986
  164OSM   H18T18495   1.542   2.228   4.121 -1.2141  0.7411  1.6318
  164OSM   H18U18496   1.407   2.302   4.035  0.5876 -2.8489 -1.4536
  164OSM    C1F18497   2.057   2.824   2.497 -0.4816 -0.0061 -0.2562
  164OSM     OF18498   2.000   2.867   2.399  0.0362 -0.1202 -0.6295
  164OSM    C2F18499   2.143   2.921   2.579 -0.0558  0.8319 -0.3666
  164OSM    H2F18500   2.134   2.886   2.684  0.1209  0.6800 -0.4015
  164OSM    H2G18501   2.099   3.021   2.561 -1.9058  0.0542 -0.4305
  164OSM    C3F18502   2.289   2.924   2.541 -0.1131  0.4221  0.6887
  164OSM    H3F18503   2.299   2.955   2.435  2.1245  1.3502  1.1353
  164OSM    H3G18504   2.325   2.819   2.546  0.2626  0.5975  2.0334
  164OSM    C4F18505   2.370   3.025   2.628  0.1243 -0.2700  0.4083
  164OSM    H4F18506   2.318   3.122   2.617  0.3971 -0.3623 -2.3161
  164OSM    H4G18507   2.468   3.054   2.584 -1.9342  1.3585 -3.6396
  164OSM    C5F18508   2.374   2.994   2.779  0.7930 -0.7692 -0.2700
  164OSM    H5F18509   2.275   2.960   2.816  1.5536 -2.4932  0.2692
  164OSM    H5G18510   2.397   3.089   2.832 -0.5702 -0.4801 -0.1609
  164OSM    C6F18511   2.474   2.889   2.822 -0.1738  0.3079 -0.9078
  164OSM    H6F18512   2.582   2.916   2.822  0.2203 -1.0747  0.6442
  164OSM    H6G18513   2.464   2.806   2.749 -0.0282  1.2343 -2.0092
  164OSM    C7F18514   2.438   2.829   2.962  0.7565  0.7372  0.3913
  164OSM    H7F18515   2.485   2.729   2.965  0.9390  0.7889 -0.4843
  164OSM    H7G18516   2.328   2.816   2.978  0.8395 -0.5562 -0.0229
  164OSM    C8F18517   2.491   2.907   3.085  0.0947 -0.4728  0.2567
  164OSM    H8F18518   2.439   2.854   3.167  1.0728 -0.6727  0.7606
  164OSM    H8G18519   2.470   3.016   3.085 -0.9418 -0.6691 -0.1702
  164OSM    C9F18520   2.644   2.920   3.105  0.8685  0.1095 -0.1368
  164OSM    H9F18521   2.689   2.999   3.042 -0.5128  3.0046  2.2220
  164OSM   C10F18522   2.711   2.860   3.203 -0.5208 -0.1497  0.0124
  164OSM   H10F18523   2.818   2.882   3.204 -1.1025  3.2693  0.2699
  164OSM   C11F18524   2.673   2.764   3.307 -0.1281 -0.1015  0.0717
  164OSM   H11F18525   2.699   2.661   3.274  1.1887 -0.0391  0.8460
  164OSM   H11G18526   2.562   2.773   3.316  0.0915  1.3542  2.3488
  164OSM   C12F18527   2.739   2.780   3.446  0.3899 -0.5404  0.1141
  164OSM   H12F18528   2.850   2.780   3.442  0.3807  1.4535 -2.0685
  164OSM   H12G18529   2.714   2.693   3.511  2.5245 -0.9013  0.5305
  164OSM   C13F18530   2.695   2.910   3.509  0.2728 -0.3042  0.1949
  164OSM   H13F18531   2.586   2.920   3.488  0.2418  0.0233  0.5049
  164OSM   H13G18532   2.745   2.995   3.458 -2.3364  2.0512  1.2855
  164OSM   C14F18533   2.723   2.929   3.659 -0.3475 -0.3168  0.4184
  164OSM   H14F18534   2.760   3.031   3.681 -2.6428  0.3834  1.3620
  164OSM   H14G18535   2.803   2.859   3.692  1.6397  1.3944 -0.5837
  164OSM   C15F18536   2.594   2.902   3.741  0.6744 -0.2945  0.0332
  164OSM   H15F18537   2.552   2.803   3.712  0.7442 -0.3501  0.1231
  164OSM   H15G18538   2.512   2.965   3.699  0.0375 -2.0679 -1.5407
  164OSM   C16F18539   2.621   2.928   3.891  0.0560 -0.1705  0.0406
  164OSM   H16F18540   2.675   3.025   3.899  2.0894 -1.3722  1.9429
  164OSM   H16G18541   2.699   2.852   3.911  0.8219  0.0542 -1.9325
  164OSM   C17F18542   2.485   2.935   3.973 -0.3237 -0.3962 -0.1966
  164OSM   H17F18543   2.414   2.854   3.944 -2.6712  1.7953 -0.9657
  164OSM   H17G18544   2.424   3.026   3.953 -0.2935 -0.0746  1.0999
  164OSM   C18F18545   2.515   2.935   4.120 -0.3558 -0.5527 -0.0241
  164OSM   H18F18546   2.575   2.845   4.141  0.5931 -0.5941 -2.5703
  164OSM   H18G18547   2.434   2.942   4.196  0.0460 -0.0838  0.3666
  164OSM   H18H18548   2.581   3.021   4.145 -1.3237  0.2781 -0.2316
  165SAPS     N18549   6.684   1.164   7.314 -0.1603 -0.2484 -0.0962
  165SAPS   HN118550   6.705   1.064   7.337 -2.5866 -0.8315 -0.1224
  165SAPS   HN218551   6.779   1.205   7.303  0.1854  0.0493  2.9620
  165SAPS   HN318552   6.656   1.212   7.402 -2.9373 -0.5146 -0.7672
  165SAPS   C1218553   6.581   1.180   7.209 -0.1620  1.0998 -0.2225
  165SAPS  H12A18554   6.619   1.118   7.129 -1.0973  2.2027 -1.5597
  165SAPS   C1318555   6.444   1.130   7.236  0.2479 -0.1387  0.1472
  165SAPS  O13A18556   6.425   1.071   7.348 -0.2082  0.1795  0.1821
  165SAPS  O13B18557   6.358   1.125   7.145  0.4475 -0.1617  0.7641
  165SAPS   C1118558   6.586   1.329   7.150 -0.5817  0.4980  0.6908
  165SAPS  H11A18559   6.586   1.397   7.238  0.7677  0.7909  0.4867
  165SAPS  H11B18560   6.489   1.341   7.098 -0.8491 -0.9141  0.8207
  165SAPS     P18561   6.727   1.448   6.964  0.1015  0.0738  0.0780
  165SAPS   O1318562   6.758   1.578   7.033 -0.8017 -0.0663  0.3969
  165SAPS   O1418563   6.818   1.400   6.850 -0.2254 -0.5189 -0.4370
  165SAPS   O1218564   6.700   1.336   7.067 -0.7231  0.4096  0.7695
  165SAPS   O1118565   6.587   1.468   6.888  0.3863 -0.3314 -0.2182
  165SAPS    C118566   6.523   1.350   6.832 -0.2457 -0.1421  0.3591
  165SAPS    HA18567   6.547   1.255   6.884 -1.9160  0.1030  1.6724
  165SAPS    HB18568   6.412   1.357   6.829 -0.2623 -0.5494 -0.6703
  165SAPS    C218569   6.567   1.332   6.683 -0.0506  0.2444 -0.1187
  165SAPS    HS18570   6.678   1.318   6.685  0.1794  1.9468  0.3552
  165SAPS   O2118571   6.522   1.450   6.609 -0.0356 -0.4120  0.3383
  165SAPS   C2118572   6.601   1.498   6.512  0.8337 -0.2564  1.1739
  165SAPS   O2218573   6.707   1.452   6.483  0.0125  0.1182 -0.5215
  165SAPS   C2218574   6.533   1.605   6.426  0.0440 -0.0166 -0.3936
  165SAPS   H2R18575   6.461   1.658   6.492 -0.1609  2.2387 -2.3203
  165SAPS   H2S18576   6.599   1.688   6.393 -0.9463  0.6406 -0.7331
  165SAPS    C318577   6.499   1.210   6.613 -0.5753  0.7452 -0.2463
  165SAPS    HX18578   6.389   1.222   6.608 -0.8824 -1.5396  0.1411
  165SAPS    HY18579   6.507   1.115   6.671 -1.8615  0.1502 -1.0180
  165SAPS   O3118580   6.552   1.192   6.477 -0.2593 -0.7950  0.1771
  165SAPS   C3118581   6.663   1.132   6.455 -1.0335 -0.1747  0.5084
  165SAPS   O3218582   6.718   1.053   6.531 -0.2109 -0.8740  0.6206
  165SAPS   C3218583   6.709   1.169   6.318 -0.3706  0.7688  0.1702
  165SAPS   H2X18584   6.765   1.265   6.319  0.7992  0.1085  1.2710
  165SAPS   H2Y18585   6.617   1.174   6.256  0.6597 -0.7073 -1.5812
  165SAPS   C2318586   6.457   1.544   6.311 -0.6838 -0.1470 -0.1568
  165SAPS   H3R18587   6.376   1.606   6.267 -1.2872 -0.2451  0.7785
  165SAPS   H3S18588   6.410   1.450   6.346  0.5526 -1.1512 -1.0614
  165SAPS   C2418589   6.557   1.509   6.201  0.4897  0.6191 -0.2501
  165SAPS   H4R18590   6.638   1.443   6.238 -1.8022 -3.1395 -1.3049
  165SAPS   H4S18591   6.598   1.606   6.166  1.6395  0.9147  1.7847
  165SAPS   C2518592   6.503   1.410   6.100 -0.4049  0.5337 -0.6207
  165SAPS   H5R18593   6.472   1.313   6.142  0.2466  0.3610 -0.5310
  165SAPS   C2618594   6.491   1.425   5.969  0.3250  0.3166 -0.3850
  165SAPS   H6R18595   6.425   1.351   5.923  2.2994 -2.3112  0.7652
  165SAPS   C2718596   6.535   1.536   5.884 -0.0422  0.4875 -0.1222
  165SAPS   H7R18597   6.623   1.495   5.830 -0.0451 -1.2653  1.1080
  165SAPS   H7S18598   6.577   1.623   5.939 -0.4078  2.2040 -2.4284
  165SAPS   C2818599   6.436   1.588   5.784 -0.3575  0.4125 -0.1887
  165SAPS   H8R18600   6.349   1.634   5.833 -1.5237 -1.2302 -0.6209
  165SAPS   C2918601   6.450   1.602   5.648  0.5790 -0.2912 -0.5527
  165SAPS   H9R18602   6.367   1.650   5.596  0.0791  2.2951  2.2840
  165SAPS  C21018603   6.564   1.544   5.562  0.1705  0.2069  0.0093
  165SAPS  H10R18604   6.657   1.542   5.622  0.2283 -1.5468 -0.0837
  165SAPS  H10S18605   6.566   1.621   5.482 -1.3808 -1.1836 -1.4499
  165SAPS  C21118606   6.548   1.401   5.509  0.4877 -0.2614 -0.5187
  165SAPS  H11R18607   6.610   1.334   5.571  3.1989  2.5736  0.0826
  165SAPS  C21218608   6.477   1.357   5.410 -0.0066 -0.2353 -0.0375
  165SAPS  H12R18609   6.479   1.248   5.399 -1.2833 -0.3212  0.3772
  165SAPS  C21318610   6.401   1.442   5.308  0.1041  0.0330  0.9382
  165SAPS  H13R18611   6.463   1.443   5.216 -0.7915  0.2091  0.3239
  165SAPS  H13S18612   6.403   1.549   5.338 -0.4177  0.4821 -0.5222
  165SAPS  C21418613   6.255   1.403   5.278  0.3206  0.1463 -0.3735
  165SAPS  H14R18614   6.179   1.422   5.355 -0.3975 -2.7160 -0.2709
  165SAPS  C21518615   6.231   1.322   5.175  0.3266 -0.2358 -0.3632
  165SAPS  H15R18616   6.129   1.283   5.163  0.1632  0.3868 -1.0578
  165SAPS  C21618617   6.327   1.302   5.055 -0.3683  0.0060 -0.4516
  165SAPS  H16R18618   6.398   1.224   5.088  0.0587  1.0929  1.3925
  165SAPS  H16S18619   6.373   1.397   5.022 -2.6600  0.5764 -2.2558
  165SAPS  C21718620   6.251   1.252   4.930 -1.2460  0.4795 -0.0721
  165SAPS  H17R18621   6.156   1.306   4.910 -2.1509 -0.9481  0.2290
  165SAPS  H17S18622   6.215   1.148   4.943 -0.4682 -0.0639 -1.9869
  165SAPS  C21818623   6.337   1.257   4.804  0.2205 -0.2143  0.2064
  165SAPS  H18R18624   6.432   1.198   4.805  0.5037  0.2275  1.2738
  165SAPS  H18S18625   6.378   1.359   4.788 -1.3989  0.5532  0.7301
  165SAPS  C21918626   6.262   1.225   4.679  0.1333 -0.0444  0.1035
  165SAPS  H19R18627   6.222   1.122   4.692 -0.3212 -0.4172 -3.3564
  165SAPS  H19S18628   6.332   1.216   4.594  0.3843 -2.0694  0.4769
  165SAPS  C22018629   6.136   1.309   4.647 -0.3259 -0.0223  0.2483
  165SAPS  H20R18630   6.152   1.418   4.640  0.1665  0.1086  2.5345
  165SAPS  H20S18631   6.052   1.286   4.717  0.8535 -2.5806  0.9513
  165SAPS  H20T18632   6.089   1.270   4.554 -0.7783  0.5759  0.2205
  165SAPS   C3318633   6.805   1.055   6.260  0.0352 -0.3190  0.1608
  165SAPS   H3X18634   6.744   0.962   6.263  2.0466 -1.8481 -2.5234
  165SAPS   H3Y18635   6.894   1.051   6.326  1.4429  2.3056 -1.3857
  165SAPS   C3418636   6.850   1.082   6.113  0.5233  0.9563 -0.8652
  165SAPS   H4X18637   6.912   0.993   6.087 -0.4727 -0.3184  0.8618
  165SAPS   H4Y18638   6.913   1.173   6.113  2.3783 -0.2194  1.6312
  165SAPS   C3518639   6.737   1.106   6.006 -0.4616  0.3720  0.6793
  165SAPS   H5X18640   6.687   1.204   6.024  1.2345  1.4114 -0.0184
  165SAPS   H5Y18641   6.661   1.027   6.023  1.2645 -1.6868 -0.6272
  165SAPS   C3618642   6.783   1.124   5.863 -0.1950  0.5075 -0.7553
  165SAPS   H6X18643   6.685   1.134   5.810  0.1491  0.2799 -1.4511
  165SAPS   H6Y18644   6.821   1.025   5.831  1.2949  1.1488 -1.0870
  165SAPS   C3718645   6.894   1.223   5.830 -0.2185 -0.2747  0.8931
  165SAPS   H7X18646   6.977   1.211   5.903 -0.9331 -0.3793  1.7145
  165SAPS   H7Y18647   6.851   1.324   5.847 -2.5651 -0.8329 -1.1935
  165SAPS   C3818648   6.963   1.230   5.683  0.6800 -0.1642 -0.5503
  165SAPS   H8X18649   7.012   1.131   5.666  1.0788 -0.0593 -0.0189
  165SAPS   H8Y18650   7.047   1.300   5.698  0.6946 -0.3080  0.0429
  165SAPS   C3918651   6.873   1.278   5.570  0.3944  0.2735  0.3346
  165SAPS   H9X18652   6.829   1.376   5.597  1.4558  0.8989 -0.1518
  165SAPS   H9Y18653   6.786   1.210   5.557  1.5295 -1.0153 -0.8701
  165SAPS  C31018654   6.947   1.295   5.437  0.0831 -0.5703 -0.2822
  165SAPS  H10X18655   7.016   1.207   5.440  1.7683  0.6815 -0.4497
  165SAPS  H10Y18656   7.010   1.387   5.433  1.7546 -1.6648 -0.5168
  165SAPS  C31118657   6.848   1.287   5.326  0.5713 -0.3162 -0.1671
  165SAPS  H11X18658   6.783   1.377   5.329  0.9217 -0.0905  1.4584
  165SAPS  H11Y18659   6.779   1.200   5.335 -0.2831  0.4950  1.7221
  165SAPS  C31218660   6.909   1.298   5.182  0.1025 -0.2018  0.6913
  165SAPS  H12X18661   6.916   1.194   5.143  1.8332 -0.1810  0.8575
  165SAPS  H12Y18662   7.008   1.348   5.178  0.2115 -0.4843 -0.4037
  165SAPS  C31318663   6.811   1.364   5.085  0.0797 -0.1644  0.5689
  165SAPS  H13X18664   6.801   1.467   5.124 -0.2443 -0.0945  0.3025
  165SAPS  H13Y18665   6.706   1.329   5.081  0.3079 -1.1063  1.9121
  165SAPS  C31418666   6.873   1.385   4.946 -0.2221 -0.1359 -0.1475
  165SAPS  H14X18667   6.879   1.285   4.898 -1.8138 -0.1857 -0.2772
  165SAPS  H14Y18668   6.975   1.431   4.949  0.0611 -0.7715 -0.0221
  165SAPS  C31518669   6.788   1.471   4.850 -0.5797 -0.3240 -0.2387
  165SAPS  H15X18670   6.782   1.568   4.903  1.4932 -0.7700  0.9452
  165SAPS  H15Y18671   6.688   1.422   4.850 -0.7457 -0.0221  1.0013
  165SAPS  C31618672   6.835   1.501   4.708  0.0737  0.0891  0.4910
  165SAPS  H16X18673   6.849   1.403   4.657  1.7833 -0.3435  1.6908
  165SAPS  H16Y18674   6.936   1.548   4.717 -0.1305  0.8824 -1.1012
  165SAPS  C31718675   6.743   1.600   4.632  0.8703 -0.9388  0.6366
  165SAPS  H17X18676   6.791   1.620   4.534  2.6002  0.2397  1.6637
  165SAPS  H17Y18677   6.747   1.697   4.687  1.3522 -1.5520  1.7180
  165SAPS  C31818678   6.597   1.551   4.618  0.8224 -0.2501  0.3786
  165SAPS  H18X18679   6.556   1.539   4.720 -0.9717 -0.1237 -0.2970
  165SAPS  H18Y18680   6.593   1.452   4.566  1.0009  0.3648 -0.8477
  165SAPS  H18Z18681   6.532   1.624   4.565  1.7432  0.2442 -0.0952
  166SAPS     N18682   0.635   3.598   6.425  0.0927 -0.4168  0.3897
  166SAPS   HN118683   0.549   3.619   6.371 -0.3328 -0.2762  1.1012
  166SAPS   HN218684   0.691   3.686   6.429 -0.5980  0.0839 -0.6251
  166SAPS   HN318685   0.684   3.530   6.363 -0.7587  1.6361 -2.7808
  166SAPS   C1218686   0.597   3.555   6.560  0.1754  0.0776 -0.4480
  166SAPS  H12A18687   0.686   3.520   6.609  0.0190  0.4946  0.1431
  166SAPS   C1318688   0.548   3.658   6.664 -0.4988 -1.0895 -0.2344
  166SAPS  O13A18689   0.553   3.776   6.632  0.1544  0.0921 -0.7418
  166SAPS  O13B18690   0.498   3.618   6.771  0.3610  0.0499 -0.0885
  166SAPS   C1118691   0.488   3.438   6.542 -0.1136  0.5742 -0.1826
  166SAPS  H11A18692   0.402   3.482   6.487  0.5902  0.5901 -1.2827
  166SAPS  H11B18693   0.454   3.403   6.642  0.8878  0.0775 -0.0021
  166SAPS     P18694   0.470   3.196   6.459 -0.0050 -0.0247  0.1874
  166SAPS   O1318695   0.578   3.093   6.456 -0.0171  0.1421  0.0910
  166SAPS   O1418696   0.366   3.186   6.564  0.6405  0.2038 -0.4860
  166SAPS   O1218697   0.546   3.338   6.471 -0.0575 -0.6637  1.2382
  166SAPS   O1118698   0.408   3.204   6.312 -0.5214  1.0403  0.1349
  166SAPS    C118699   0.444   3.304   6.219 -0.5377 -1.1850  0.0463
  166SAPS    HA18700   0.412   3.405   6.252  0.3749 -1.3137  1.3740
  166SAPS    HB18701   0.555   3.302   6.209 -0.2409 -1.6167  2.6894
  166SAPS    C218702   0.390   3.282   6.071  0.4002  0.2803  0.4359
  166SAPS    HS18703   0.430   3.362   6.005 -0.2218 -0.7374 -1.2053
  166SAPS   O2118704   0.241   3.278   6.079 -0.5960 -0.2048 -0.2723
  166SAPS   C2118705   0.171   3.364   5.997 -0.9312 -0.4462  0.4904
  166SAPS   O2218706   0.223   3.435   5.916 -0.4681  0.3493  0.7497
  166SAPS   C2218707   0.026   3.340   6.027  0.1199 -0.4250 -0.3701
  166SAPS   H2R18708   0.011   3.259   6.101 -2.4651 -0.0542 -0.3804
  166SAPS   H2S18709  -0.017   3.434   6.069  0.7739  0.2225 -1.1106
  166SAPS    C318710   0.438   3.139   6.014  0.3284  0.0920  0.2760
  166SAPS    HX18711   0.386   3.062   6.075 -0.0242  0.9672  1.1198
  166SAPS    HY18712   0.548   3.143   6.033  1.1052 -0.8705 -3.3557
  166SAPS   O3118713   0.409   3.112   5.872 -0.7662 -0.0644  0.2474
  166SAPS   C3118714   0.491   3.171   5.790  0.0401 -0.4425  0.0163
  166SAPS   O3218715   0.598   3.214   5.822 -0.2651 -0.0740 -0.5912
  166SAPS   C3218716   0.426   3.172   5.656 -0.4560 -0.2168 -0.1360
  166SAPS   H2X18717   0.339   3.239   5.670 -0.5313 -0.7804  2.6990
  166SAPS   H2Y18718   0.383   3.071   5.639  0.7917 -0.5400 -1.6402
  166SAPS   C2318719  -0.051   3.309   5.892 -0.0086  0.0846  0.2466
  166SAPS   H3R18720  -0.037   3.395   5.822  2.3402 -0.2550  0.1998
  166SAPS   H3S18721  -0.160   3.306   5.909 -0.1064  0.5526 -0.2625
  166SAPS   C2418722  -0.006   3.174   5.838 -0.4289  0.0282 -0.0808
  166SAPS   H4R18723   0.099   3.192   5.809  0.4508 -0.6375  2.3922
  166SAPS   H4S18724  -0.061   3.156   5.743  0.2746  1.0003 -0.6976
  166SAPS   C2518725  -0.004   3.060   5.933 -0.2598 -0.6647 -0.7089
  166SAPS   H5R18726  -0.063   3.062   6.026  1.8889  0.7942  0.7347
  166SAPS   C2618727   0.056   2.944   5.912  0.7639 -0.5647 -0.2327
  166SAPS   H6R18728   0.060   2.864   5.988 -2.2189 -0.2790  0.3602
  166SAPS   C2718729   0.134   2.919   5.790  0.1716 -0.5845 -0.1823
  166SAPS   H7R18730   0.222   2.866   5.831  1.4516  1.3152 -0.3629
  166SAPS   H7S18731   0.163   3.013   5.737 -0.2570 -1.5545 -2.2681
  166SAPS   C2818732   0.058   2.829   5.694  0.0372 -0.1304  0.3469
  166SAPS   H8R18733  -0.004   2.748   5.734 -1.2389  0.6133 -0.0645
  166SAPS   C2918734   0.079   2.818   5.560 -0.6699 -0.1833  0.2238
  166SAPS   H9R18735   0.014   2.750   5.504  1.4210  0.0794 -2.7590
  166SAPS  C21018736   0.174   2.909   5.473  0.3381  0.6458  0.2694
  166SAPS  H10R18737   0.230   2.845   5.401 -1.5598 -2.6647  1.5199
  166SAPS  H10S18738   0.258   2.955   5.530  1.2226 -0.5024 -0.0646
  166SAPS  C21118739   0.110   3.020   5.391 -0.5291 -0.3520 -0.3618
  166SAPS  H11R18740   0.078   3.110   5.445  1.5306  0.3697 -0.2347
  166SAPS  C21218741   0.072   3.009   5.260  0.1226  0.1775  0.0225
  166SAPS  H12R18742   0.032   3.094   5.203 -0.3004 -0.8251 -1.2210
  166SAPS  C21318743   0.093   2.898   5.160  1.1066  0.0065  0.3377
  166SAPS  H13R18744   0.159   2.826   5.212  1.1819  1.7286  2.8105
  166SAPS  H13S18745   0.156   2.941   5.079  2.4083  0.6723  1.6513
  166SAPS  C21418746  -0.040   2.845   5.104 -0.7118 -0.0699 -0.4834
  166SAPS  H14R18747  -0.091   2.780   5.177  1.0850 -2.3058 -1.0704
  166SAPS  C21518748  -0.095   2.856   4.983 -0.6760  0.1674  0.4153
  166SAPS  H15R18749  -0.191   2.805   4.968 -1.3158  1.3780  0.2603
  166SAPS  C21618750  -0.044   2.925   4.864 -0.1570 -0.5149 -0.3056
  166SAPS  H16R18751   0.055   2.971   4.883  1.1143 -2.0478 -2.6871
  166SAPS  H16S18752  -0.118   3.006   4.847  1.9118  1.3009 -1.1785
  166SAPS  C21718753  -0.026   2.841   4.734 -0.2071  0.3151  0.3147
  166SAPS  H17R18754   0.059   2.770   4.745 -0.6784 -0.5420 -1.2094
  166SAPS  H17S18755   0.009   2.908   4.653  0.5664  1.6160  1.6787
  166SAPS  C21818756  -0.149   2.774   4.686  0.5517  0.2349  0.0322
  166SAPS  H18R18757  -0.218   2.857   4.658  0.7885  0.7035  0.8100
  166SAPS  H18S18758  -0.193   2.707   4.763  0.7312  0.2773  0.1705
  166SAPS  C21918759  -0.109   2.688   4.554  0.5914 -0.7007 -0.0043
  166SAPS  H19R18760  -0.022   2.628   4.590 -1.2538 -2.0202  2.5704
  166SAPS  H19S18761  -0.083   2.761   4.475  0.6259 -1.0168 -0.2843
  166SAPS  C22018762  -0.225   2.607   4.504 -0.9954  0.1259 -0.2843
  166SAPS  H20R18763  -0.195   2.545   4.418  3.2411  0.2996  0.8366
  166SAPS  H20S18764  -0.313   2.665   4.468 -1.3650  0.7887  1.5468
  166SAPS  H20T18765  -0.270   2.542   4.582 -1.2148  0.7400  0.1159
  166SAPS   C3318766   0.527   3.212   5.553 -0.1132 -0.5465 -0.8317
  166SAPS   H3X18767   0.610   3.138   5.549 -0.7504 -1.3681  0.3787
  166SAPS   H3Y18768   0.581   3.302   5.589  1.5055 -1.6493 -0.3634
  166SAPS   C3418769   0.474   3.237   5.414  0.7920  0.4776 -0.5601
  166SAPS   H4X18770   0.378   3.289   5.429  0.2314 -1.0303  1.6512
  166SAPS   H4Y18771   0.456   3.135   5.372 -1.9711  0.4833  0.4405
  166SAPS   C3518772   0.586   3.299   5.320  0.2828 -0.1301 -0.0909
  166SAPS   H5X18773   0.665   3.227   5.291  2.0270  0.7478  2.2006
  166SAPS   H5Y18774   0.627   3.392   5.366  0.7563  1.1618 -2.9126
  166SAPS   C3618775   0.531   3.357   5.186 -0.2649 -0.7710  0.3469
  166SAPS   H6X18776   0.605   3.363   5.104 -2.6692 -0.4282 -1.9286
  166SAPS   H6Y18777   0.498   3.463   5.193 -2.3400 -0.9043 -3.9525
  166SAPS   C3718778   0.411   3.274   5.144 -0.0487 -0.3461  0.8728
  166SAPS   H7X18779   0.328   3.285   5.216 -2.0463  1.5422 -1.5277
  166SAPS   H7Y18780   0.436   3.166   5.131 -0.9492 -0.3977 -0.7698
  166SAPS   C3818781   0.357   3.327   5.008 -0.0518  0.3913  0.4284
  166SAPS   H8X18782   0.436   3.308   4.933  1.0817 -1.0884  1.9247
  166SAPS   H8Y18783   0.353   3.437   5.013  1.5131  0.5460 -0.8719
  166SAPS   C3918784   0.230   3.268   4.956 -0.1288 -0.3662 -0.0968
  166SAPS   H9X18785   0.156   3.284   5.037  1.2406 -0.0585  1.1482
  166SAPS   H9Y18786   0.245   3.159   4.939  0.2924 -0.6107  1.6382
  166SAPS  C31018787   0.172   3.338   4.832  0.4580  0.2096  0.1049
  166SAPS  H10X18788   0.213   3.441   4.829  1.4169 -0.1611  0.2073
  166SAPS  H10Y18789   0.062   3.342   4.845  0.3170 -0.2123 -0.8712
  166SAPS  C31118790   0.203   3.262   4.704 -0.2975 -0.2026 -0.5281
  166SAPS  H11X18791   0.137   3.173   4.699 -1.7051  0.7945 -0.2361
  166SAPS  H11Y18792   0.312   3.242   4.702 -0.0215  1.1645 -0.2005
  166SAPS  C31218793   0.163   3.341   4.582 -0.1277  0.2133 -0.3805
  166SAPS  H12X18794   0.241   3.418   4.568  0.9649 -0.3701  1.9084
  166SAPS  H12Y18795   0.070   3.394   4.610 -1.2276 -2.0663  0.5613
  166SAPS  C31318796   0.138   3.254   4.457 -0.5195 -0.6580 -0.1390
  166SAPS  H13X18797   0.226   3.186   4.457  0.5633  0.6745  1.8121
  166SAPS  H13Y18798   0.126   3.324   4.372 -1.0374  0.3738  0.7654
  166SAPS  C31418799   0.011   3.173   4.462  0.3971 -0.1837  0.6831
  166SAPS  H14X18800  -0.070   3.246   4.444  0.9882  0.6744  1.4399
  166SAPS  H14Y18801  -0.019   3.133   4.562 -0.0733  1.7098  1.3356
  166SAPS  C31518802   0.014   3.059   4.357 -0.0044 -0.1404 -0.9703
  166SAPS  H15X18803  -0.067   2.985   4.378  0.0441  0.3620  1.2070
  166SAPS  H15Y18804   0.105   3.001   4.380  0.9062  1.7323  0.4091
  166SAPS  C31618805  -0.011   3.102   4.210  0.6553  0.7652  0.6075
  166SAPS  H16X18806   0.078   3.141   4.157 -0.1029 -0.6066 -1.8316
  166SAPS  H16Y18807  -0.098   3.171   4.217  2.7714  3.9089 -1.4884
  166SAPS  C31718808  -0.065   2.978   4.136  0.5576 -0.3962  1.2173
  166SAPS  H17X18809  -0.162   2.954   4.185 -0.1405  0.2355  0.1763
  166SAPS  H17Y18810   0.004   2.892   4.152  2.4402  0.6653 -0.7550
  166SAPS  C31818811  -0.075   2.993   3.984 -0.0258 -0.8688  0.1846
  166SAPS  H18X18812  -0.164   3.056   3.963  0.7242  0.0144 -0.4626
  166SAPS  H18Y18813  -0.098   2.895   3.938  0.1051 -0.9556  0.3060
  166SAPS  H18Z18814   0.017   3.032   3.935  0.5318 -0.1481  1.7565
  167SAPS     N18815   3.413   2.003   6.944  0.0017  0.0649 -0.2284
  167SAPS   HN118816   3.507   2.049   6.948 -0.5738  1.7717 -3.2694
  167SAPS   HN218817   3.406   1.957   7.037 -0.1793 -1.0974 -0.7972
  167SAPS   HN318818   3.418   1.923   6.879  1.6673 -0.2577  0.2589
  167SAPS   C1218819   3.305   2.099   6.915  0.7465 -0.0867  0.1724
  167SAPS  H12A18820   3.310   2.137   6.814  0.7501 -1.2309 -0.2701
  167SAPS   C1318821   3.161   2.037   6.929 -0.4376 -0.0505  0.1589
  167SAPS  O13A18822   3.139   1.927   6.987 -0.0081  0.2062  0.0555
  167SAPS  O13B18823   3.069   2.113   6.891 -0.3512  0.0581  0.6409
  167SAPS   C1118824   3.304   2.224   7.007 -0.0210 -0.3023 -0.5224
  167SAPS  H11A18825   3.310   2.188   7.112 -0.4287  0.4144 -0.2460
  167SAPS  H11B18826   3.213   2.286   6.992  0.2132 -0.0226 -0.7793
  167SAPS     P18827   3.421   2.458   6.963 -0.0781  0.2094 -0.4622
  167SAPS   O1318828   3.288   2.520   6.977 -0.3315 -0.0894 -0.4609
  167SAPS   O1418829   3.531   2.512   7.043  0.8022 -0.1537  0.2608
  167SAPS   O1218830   3.415   2.300   6.992 -0.3052 -0.3906  0.1950
  167SAPS   O1118831   3.474   2.470   6.818  0.2012 -0.4700 -0.8650
  167SAPS    C118832   3.397   2.418   6.706 -0.3985 -0.9489 -0.4452
  167SAPS    HA18833   3.446   2.330   6.659  0.7999  0.3039 -1.6826
  167SAPS    HB18834   3.297   2.373   6.724 -0.5507 -1.0420 -1.4611
  167SAPS    C218835   3.398   2.526   6.594 -0.2853  0.8153  0.0164
  167SAPS    HS18836   3.316   2.504   6.523  0.1352 -0.7990 -0.0161
  167SAPS   O2118837   3.532   2.516   6.529 -0.2272 -0.3512 -0.1630
  167SAPS   C2118838   3.523   2.445   6.415 -0.5975 -0.1807  0.1729
  167SAPS   O2218839   3.421   2.412   6.362  0.7252 -0.2725  0.3306
  167SAPS   C2218840   3.665   2.411   6.366 -0.8299 -0.1972 -0.1364
  167SAPS   H2R18841   3.714   2.509   6.350 -0.1022 -0.5744 -0.2537
  167SAPS   H2S18842   3.717   2.356   6.447  0.9342 -0.7936 -1.5983
  167SAPS    C318843   3.365   2.669   6.653 -0.8376 -0.6207  0.5020
  167SAPS    HX18844   3.454   2.718   6.697 -0.2733  0.1291 -1.3654
  167SAPS    HY18845   3.293   2.644   6.734  0.9057  1.8438  2.9891
  167SAPS   O3118846   3.320   2.754   6.548  0.6130 -0.7516  0.5919
  167SAPS   C3118847   3.184   2.783   6.554 -0.1195  0.4607  0.1159
  167SAPS   O3218848   3.110   2.750   6.647 -0.2307  0.3730 -0.3524
  167SAPS   C3218849   3.136   2.854   6.428 -0.1185  0.1604 -0.5404
  167SAPS   H2X18850   3.227   2.909   6.394  0.8728  0.9815  3.0328
  167SAPS   H2Y18851   3.050   2.918   6.455 -0.6515 -0.7394 -0.0524
  167SAPS   C2318852   3.682   2.342   6.234  0.0620  0.3937 -0.1098
  167SAPS   H3R18853   3.791   2.326   6.217 -0.4811 -2.4251 -1.6549
  167SAPS   H3S18854   3.651   2.397   6.143 -1.7541  0.7583  0.6974
  167SAPS   C2418855   3.620   2.201   6.229  0.0999 -0.6281 -0.3780
  167SAPS   H4R18856   3.514   2.205   6.264  0.8696 -1.0407  2.2361
  167SAPS   H4S18857   3.667   2.144   6.312  2.4991  1.3838 -0.2506
  167SAPS   C2518858   3.631   2.131   6.094 -0.5692 -0.8806  0.0700
  167SAPS   H5R18859   3.714   2.058   6.090  0.8211  0.5426  1.5201
  167SAPS   C2618860   3.532   2.138   6.003  0.2842 -1.0500 -0.3506
  167SAPS   H6R18861   3.536   2.076   5.912  0.5605 -0.6544 -0.6117
  167SAPS   C2718862   3.422   2.247   6.005 -0.4108 -0.1791  0.3861
  167SAPS   H7R18863   3.454   2.315   5.923  0.0211 -2.2466 -1.2436
  167SAPS   H7S18864   3.423   2.298   6.104 -3.3972  0.2601  0.2973
  167SAPS   C2818865   3.282   2.195   5.984 -0.5803 -0.4640  0.2531
  167SAPS   H8R18866   3.230   2.181   6.080  0.7014 -3.0787  0.6466
  167SAPS   C2918867   3.217   2.163   5.868  0.1783 -0.8372 -0.3251
  167SAPS   H9R18868   3.114   2.123   5.871 -0.0063 -0.3556 -0.1465
  167SAPS  C21018869   3.278   2.193   5.731  1.0894 -0.1311  0.0993
  167SAPS  H10R18870   3.388   2.186   5.731  1.3038  1.9530 -2.3101
  167SAPS  H10S18871   3.258   2.298   5.701  0.0465 -0.4525 -0.4042
  167SAPS  C21118872   3.201   2.106   5.628  0.5141  0.1201 -0.3886
  167SAPS  H11R18873   3.113   2.051   5.666  0.6414  1.7530  2.5489
  167SAPS  C21218874   3.228   2.114   5.497 -0.1551  0.4485 -0.1486
  167SAPS  H12R18875   3.182   2.045   5.425  1.7960 -0.3333 -0.7028
  167SAPS  C21318876   3.337   2.199   5.436 -0.0041 -0.1373 -0.8908
  167SAPS  H13R18877   3.425   2.135   5.415  0.0635 -0.7868  1.1477
  167SAPS  H13S18878   3.373   2.266   5.517  1.0751 -0.6872 -0.9116
  167SAPS  C21418879   3.290   2.286   5.327 -0.1289  0.1175  0.0890
  167SAPS  H14R18880   3.250   2.385   5.353 -0.2236 -0.1640  1.0555
  167SAPS  C21518881   3.293   2.254   5.198 -0.5088 -0.4323  0.1123
  167SAPS  H15R18882   3.267   2.340   5.135  0.1699 -0.9027 -0.8355
  167SAPS  C21618883   3.360   2.140   5.128 -0.1911  0.3499  0.7600
  167SAPS  H16R18884   3.369   2.052   5.196  1.7363 -0.2006 -0.1345
  167SAPS  H16S18885   3.467   2.164   5.107 -0.1447  0.3440  0.9900
  167SAPS  C21718886   3.290   2.083   5.000 -0.3476 -0.3648 -0.8993
  167SAPS  H17R18887   3.203   2.015   5.014 -0.3796 -0.6417 -2.2771
  167SAPS  H17S18888   3.366   2.014   4.956 -0.0810  0.5180 -1.8514
  167SAPS  C21818889   3.246   2.191   4.896 -0.4898  0.5987  0.2208
  167SAPS  H18R18890   3.325   2.269   4.901  0.2203 -0.1402  0.6872
  167SAPS  H18S18891   3.151   2.236   4.933 -0.9630 -0.2591  0.0697
  167SAPS  C21918892   3.216   2.115   4.771 -0.2854 -0.7962  0.3774
  167SAPS  H19R18893   3.125   2.056   4.796  0.4824 -2.6113 -0.8681
  167SAPS  H19S18894   3.293   2.039   4.747  1.7695  1.2271  0.2374
  167SAPS  C22018895   3.191   2.214   4.650  0.4362 -0.1353  0.5493
  167SAPS  H20R18896   3.148   2.151   4.569  0.7184  0.0168  0.2793
  167SAPS  H20S18897   3.282   2.274   4.627  2.0623 -2.3131  0.9275
  167SAPS  H20T18898   3.105   2.279   4.676 -0.3577 -1.1919  0.5991
  167SAPS   C3318899   3.100   2.763   6.306 -0.9563 -0.2250 -0.7048
  167SAPS   H3X18900   2.990   2.779   6.299 -0.9543  1.0285  1.3544
  167SAPS   H3Y18901   3.115   2.658   6.336 -0.3895 -0.3501 -1.3999
  167SAPS   C3418902   3.181   2.792   6.177  0.6014 -0.0854  0.0926
  167SAPS   H4X18903   3.283   2.751   6.186  0.7311 -0.1306 -1.3021
  167SAPS   H4Y18904   3.195   2.902   6.169  2.7617 -0.2969  0.3550
  167SAPS   C3518905   3.114   2.747   6.050  0.3664  0.0320  1.2092
  167SAPS   H5X18906   3.169   2.783   5.961 -0.7718  0.9688  0.8603
  167SAPS   H5Y18907   3.014   2.794   6.042  0.2534 -0.0069  2.1682
  167SAPS   C3618908   3.106   2.594   6.039 -0.4671 -0.5690 -0.0184
  167SAPS   H6X18909   3.068   2.545   6.131 -2.9212 -2.2550 -1.7652
  167SAPS   H6Y18910   3.212   2.564   6.024 -0.3972  0.6849 -2.6372
  167SAPS   C3718911   3.034   2.543   5.913  0.5763 -0.1433  0.2851
  167SAPS   H7X18912   2.926   2.571   5.916 -0.1867 -2.4466 -1.9198
  167SAPS   H7Y18913   3.025   2.432   5.904  2.3606 -0.1478 -3.5592
  167SAPS   C3818914   3.104   2.572   5.782 -1.4507 -0.0754  0.6981
  167SAPS   H8X18915   3.210   2.541   5.780 -1.3330  0.0270  2.9687
  167SAPS   H8Y18916   3.127   2.680   5.781  1.5703 -0.6456  0.1127
  167SAPS   C3918917   3.027   2.538   5.656  0.4090  0.7612  0.4198
  167SAPS   H9X18918   2.922   2.574   5.652  0.1590  0.0093 -2.4490
  167SAPS   H9Y18919   3.018   2.428   5.653 -1.1347  0.8864 -1.4125
  167SAPS  C31018920   3.101   2.585   5.530 -0.3746  1.2655  0.3616
  167SAPS  H10X18921   3.197   2.534   5.510 -1.2116  0.1289 -0.9313
  167SAPS  H10Y18922   3.121   2.694   5.540 -0.9719  1.4144 -0.0064
  167SAPS  C31118923   3.012   2.582   5.402 -0.3199  0.4161  0.7213
  167SAPS  H11X18924   2.907   2.595   5.437 -0.0719  0.6339  1.3927
  167SAPS  H11Y18925   3.034   2.485   5.351  2.3414  0.3246  1.8927
  167SAPS  C31218926   3.050   2.687   5.293  0.4567 -0.5186 -0.1008
  167SAPS  H12X18927   3.037   2.791   5.329 -0.1461 -0.2061 -1.1666
  167SAPS  H12Y18928   2.977   2.679   5.209  1.0299  1.6125 -0.8682
  167SAPS  C31318929   3.190   2.667   5.241 -0.4830 -0.1929  0.9689
  167SAPS  H13X18930   3.212   2.559   5.225 -1.7767 -0.4372  0.7339
  167SAPS  H13Y18931   3.256   2.708   5.320 -1.2278 -0.2161  1.6086
  167SAPS  C31418932   3.213   2.745   5.107  0.7318  0.1574  0.0884
  167SAPS  H14X18933   3.121   2.725   5.048  1.2558 -1.5213 -0.2281
  167SAPS  H14Y18934   3.310   2.717   5.061  1.0906  1.0514  0.2792
  167SAPS  C31518935   3.227   2.900   5.127  0.0258  0.4902 -0.2080
  167SAPS  H15X18936   3.322   2.919   5.182  0.1547 -2.0271  0.5622
  167SAPS  H15Y18937   3.141   2.938   5.186 -1.8595 -1.9908 -1.2089
  167SAPS  C31618938   3.217   2.974   4.993  0.4330  0.1685  0.2614
  167SAPS  H16X18939   3.116   2.964   4.948 -0.1946 -1.3276  1.8600
  167SAPS  H16Y18940   3.279   2.922   4.917  2.5311  0.9342  1.3675
  167SAPS  C31718941   3.275   3.116   5.005  0.5102  0.2739 -0.5432
  167SAPS  H17X18942   3.378   3.101   5.042 -0.3520 -5.3379  0.4031
  167SAPS  H17Y18943   3.217   3.181   5.074 -0.2038 -1.7641  0.8747
  167SAPS  C31818944   3.269   3.177   4.867  0.3555  0.6646 -0.4694
  167SAPS  H18X18945   3.169   3.215   4.836  0.1441 -0.3866 -1.1686
  167SAPS  H18Y18946   3.302   3.103   4.791  1.4945  2.3083 -1.6136
  167SAPS  H18Z18947   3.342   3.260   4.866  2.4133 -1.0056  1.1686
  168SAPS     N18948   2.005   5.330   7.068 -0.6836  0.3316 -0.4380
  168SAPS   HN118949   1.986   5.426   7.105 -1.3100  0.4235 -0.9965
  168SAPS   HN218950   1.936   5.258   7.096  0.1913 -0.3599  0.0168
  168SAPS   HN318951   2.091   5.299   7.119 -2.2558 -1.4030  1.2921
  168SAPS   C1218952   2.017   5.340   6.922  0.3385  0.2698  0.2707
  168SAPS  H12A18953   1.915   5.314   6.895  0.5998 -1.9927  1.1670
  168SAPS   C1318954   2.049   5.478   6.865  1.2233 -0.1505  0.5391
  168SAPS  O13A18955   2.064   5.575   6.941  0.3637  0.7116  0.5426
  168SAPS  O13B18956   2.036   5.497   6.741 -0.1627 -0.2202  0.3637
  168SAPS   C1118957   2.113   5.234   6.861  0.6611  0.6984  0.1766
  168SAPS  H11A18958   2.215   5.258   6.898  1.4448  0.5086 -1.7411
  168SAPS  H11B18959   2.102   5.239   6.751 -2.8091 -2.8471  0.1092
  168SAPS     P18960   2.201   4.997   6.921  0.0283  0.0197  0.1498
  168SAPS   O1318961   2.291   5.037   7.032 -0.8392 -0.5652  0.2633
  168SAPS   O1418962   2.149   4.854   6.927  0.0994 -0.7367 -0.3426
  168SAPS   O1218963   2.077   5.102   6.910 -0.2930 -0.0652  0.1693
  168SAPS   O1118964   2.263   5.003   6.782  0.4314  0.5938 -0.1413
  168SAPS    C118965   2.202   4.924   6.677  0.2407 -0.1799 -0.0256
  168SAPS    HA18966   2.241   4.820   6.686 -0.2181 -0.5780 -2.1228
  168SAPS    HB18967   2.091   4.924   6.673  0.1872  2.9048 -3.0772
  168SAPS    C218968   2.247   4.964   6.532 -0.2355  0.4238  0.3626
  168SAPS    HS18969   2.200   4.882   6.473 -0.2452 -0.1415  1.1478
  168SAPS   O2118970   2.386   4.968   6.528 -0.2747  0.2233 -0.0914
  168SAPS   C2118971   2.456   4.871   6.471  0.0343  0.0542  0.1458
  168SAPS   O2218972   2.412   4.767   6.426 -0.3606 -0.7645 -0.6344
  168SAPS   C2218973   2.603   4.917   6.468  1.0516  0.2327  0.0601
  168SAPS   H2R18974   2.599   5.003   6.398 -0.6343 -0.9522 -1.3649
  168SAPS   H2S18975   2.625   4.944   6.574 -1.6935 -0.0416  0.7565
  168SAPS    C318976   2.203   5.101   6.475 -0.1354  0.2526 -0.3075
  168SAPS    HX18977   2.248   5.183   6.536 -1.0293  0.5634 -0.0461
  168SAPS    HY18978   2.095   5.120   6.495 -0.6430 -0.7170 -1.9905
  168SAPS   O3118979   2.225   5.113   6.339  0.2803  0.1068  0.3510
  168SAPS   C3118980   2.140   5.054   6.253  0.0435 -0.4648 -0.3694
  168SAPS   O3218981   2.041   4.983   6.284 -0.2116 -0.4135 -0.4960
  168SAPS   C3218982   2.199   5.081   6.114  0.2319  0.5229 -0.5691
  168SAPS   H2X18983   2.287   5.014   6.106  1.1429  1.5113  0.7387
  168SAPS   H2Y18984   2.233   5.186   6.096 -1.0674  1.1265  0.3498
  168SAPS   C2318985   2.697   4.810   6.399  0.5121 -0.0717  0.1852
  168SAPS   H3R18986   2.654   4.760   6.310  1.4137 -0.2282 -0.1817
  168SAPS   H3S18987   2.721   4.744   6.485  1.1319  0.0788  0.1390
  168SAPS   C2418988   2.825   4.875   6.341 -0.6205 -0.0818 -0.0562
  168SAPS   H4R18989   2.858   4.939   6.426 -0.4495  0.1217 -0.2744
  168SAPS   H4S18990   2.808   4.941   6.254  0.9159 -0.3627 -0.5922
  168SAPS   C2518991   2.943   4.779   6.319 -0.4256  0.1686 -0.5514
  168SAPS   H5R18992   2.960   4.709   6.402 -2.2684  0.8790  0.4905
  168SAPS   C2618993   3.037   4.780   6.221 -0.0336 -0.2086  0.2757
  168SAPS   H6R18994   3.125   4.716   6.234 -1.3882 -1.6602  3.3230
  168SAPS   C2718995   3.033   4.883   6.107  0.0816  0.8240  0.4521
  168SAPS   H7R18996   3.118   4.951   6.130  1.3513 -0.6612  0.3905
  168SAPS   H7S18997   2.937   4.937   6.095 -1.9581 -2.2462  1.5770
  168SAPS   C2818998   3.060   4.809   5.976 -0.4233 -0.2747  0.2116
  168SAPS   H8R18999   3.040   4.702   5.967  0.0720 -0.2617 -1.4030
  168SAPS   C2919000   3.102   4.865   5.860  0.6597 -0.0437  0.0945
  168SAPS   H9R19001   3.105   4.804   5.768 -3.1689 -0.5548  0.1356
  168SAPS  C21019002   3.145   5.009   5.834 -0.4395 -0.0189 -0.6325
  168SAPS  H10R19003   3.211   4.999   5.745 -0.6177 -1.3924 -0.6330
  168SAPS  H10S19004   3.201   5.044   5.923  0.9205  0.2875 -1.5700
  168SAPS  C21119005   3.038   5.105   5.795  0.1488 -0.8369  0.0383
  168SAPS  H11R19006   2.986   5.145   5.883  1.7709 -1.5897  1.3773
  168SAPS  C21219007   2.972   5.122   5.678  0.2333 -0.9346  0.4246
  168SAPS  H12R19008   2.891   5.195   5.675  1.1593  0.0898 -0.4022
  168SAPS  C21319009   3.007   5.067   5.544 -0.0001 -0.0306  0.2191
  168SAPS  H13R19010   2.922   4.998   5.522 -1.0650  0.6024  2.1968
  168SAPS  H13S19011   3.097   5.002   5.542  2.7776  3.5170  0.5660
  168SAPS  C21419012   3.012   5.168   5.433  0.2228  0.2177  0.4396
  168SAPS  H14R19013   3.059   5.264   5.456 -2.0347  1.9230 -1.5981
  168SAPS  C21519014   2.974   5.140   5.306  0.3181  0.0576  0.3767
  168SAPS  H15R19015   2.997   5.220   5.235  3.5167  1.3064  2.5787
  168SAPS  C21619016   2.895   5.024   5.253  0.3174 -0.1658  0.5248
  168SAPS  H16R19017   2.794   5.060   5.224  0.4595  0.5658  0.9241
  168SAPS  H16S19018   2.882   4.950   5.335  1.1806 -0.3596  0.4906
  168SAPS  C21719019   2.958   4.940   5.141  0.6641 -0.3927 -0.2528
  168SAPS  H17R19020   2.964   4.995   5.044 -0.5512 -1.2317 -0.8287
  168SAPS  H17S19021   2.888   4.858   5.114 -2.5729  2.0189  0.1239
  168SAPS  C21819022   3.099   4.897   5.174 -0.0536 -0.1706  0.1191
  168SAPS  H18R19023   3.085   4.845   5.272  1.8919  1.0520  1.1094
  168SAPS  H18S19024   3.163   4.984   5.201  0.3227 -0.0464 -1.1179
  168SAPS  C21919025   3.174   4.818   5.065 -0.0304  0.3790 -0.1003
  168SAPS  H19R19026   3.104   4.742   5.027 -1.6838  1.7203  0.1452
  168SAPS  H19S19027   3.253   4.758   5.115 -0.6857 -1.1905 -0.8971
  168SAPS  C22019028   3.231   4.914   4.965 -0.6126  0.1610 -0.1482
  168SAPS  H20R19029   3.314   4.867   4.908 -3.4787 -2.3674 -2.6074
  168SAPS  H20S19030   3.273   5.000   5.021 -0.1897  0.4948 -0.9623
  168SAPS  H20T19031   3.148   4.947   4.898 -0.3778 -0.5233 -0.7885
  168SAPS   C3319032   2.093   5.055   6.002 -0.5143 -0.0912  0.6008
  168SAPS   H3X19033   2.057   4.952   6.020 -0.7427  0.0379  0.8894
  168SAPS   H3Y19034   2.135   5.084   5.903 -0.9313  2.1012  0.9979
  168SAPS   C3419035   1.972   5.139   6.002  0.8609 -0.3260  0.2369
  168SAPS   H4X19036   1.992   5.245   5.974 -0.2803 -0.5888 -1.8493
  168SAPS   H4Y19037   1.921   5.141   6.101  0.3243  1.8766 -0.0178
  168SAPS   C3519038   1.880   5.082   5.889  0.3892 -0.2280  0.0025
  168SAPS   H5X19039   1.773   5.106   5.907  0.8003 -0.1155  2.5765
  168SAPS   H5Y19040   1.881   4.971   5.893  0.5929 -0.2144  0.3290
  168SAPS   C3619041   1.905   5.119   5.737  0.3106 -0.4929 -0.4012
  168SAPS   H6X19042   1.998   5.078   5.692  0.6098  0.6869 -0.8913
  168SAPS   H6Y19043   1.910   5.229   5.733 -0.0819 -0.4366  0.5212
  168SAPS   C3719044   1.789   5.083   5.648 -0.7774  0.3536 -1.0559
  168SAPS   H7X19045   1.707   5.157   5.663  0.6743  2.2348 -2.1053
  168SAPS   H7Y19046   1.750   4.986   5.686 -1.3917  0.8013 -0.5225
  168SAPS   C3819047   1.834   5.075   5.500 -0.3424  0.2914  0.1962
  168SAPS   H8X19048   1.913   4.997   5.488 -1.3903 -0.5527 -1.7492
  168SAPS   H8Y19049   1.881   5.175   5.482 -3.8698  2.3419  1.4320
  168SAPS   C3919050   1.722   5.045   5.398 -0.0455 -0.2099 -0.0005
  168SAPS   H9X19051   1.655   5.131   5.419 -0.6799 -0.2818 -1.5986
  168SAPS   H9Y19052   1.682   4.947   5.430  2.3600 -0.4081  2.8833
  168SAPS  C31019053   1.778   5.032   5.260 -0.3153 -0.8162  0.0281
  168SAPS  H10X19054   1.869   4.968   5.262 -2.1982 -3.6474 -0.1293
  168SAPS  H10Y19055   1.810   5.134   5.229  0.7612 -1.4538 -1.0539
  168SAPS  C31119056   1.687   4.983   5.146  0.3412  0.6363 -0.0759
  168SAPS  H11X19057   1.603   5.050   5.119 -1.5012 -1.9396 -1.1796
  168SAPS  H11Y19058   1.643   4.885   5.175  4.0259 -1.0853  0.3017
  168SAPS  C31219059   1.772   4.945   5.018  0.2487 -0.1209  0.1574
  168SAPS  H12X19060   1.708   4.902   4.938  1.5942 -0.5285 -0.7306
  168SAPS  H12Y19061   1.833   4.859   5.052 -0.7723 -0.6316  0.7744
  168SAPS  C31319062   1.872   5.054   4.967  0.1468 -0.4152 -0.5920
  168SAPS  H13X19063   1.954   5.072   5.039 -0.0271 -1.7622 -0.0131
  168SAPS  H13Y19064   1.822   5.148   4.938  0.1732  0.1307  1.0220
  168SAPS  C31419065   1.923   5.006   4.832 -0.0008 -0.6628  0.1291
  168SAPS  H14X19066   1.839   4.993   4.760 -0.5802 -2.5954  1.0829
  168SAPS  H14Y19067   1.962   4.903   4.846  1.2665 -0.2417 -0.1953
  168SAPS  C31519068   2.042   5.088   4.771  0.4864 -0.0050  0.1402
  168SAPS  H15X19069   2.005   5.193   4.769 -1.8058 -0.7617  0.3347
  168SAPS  H15Y19070   2.066   5.049   4.670 -0.5756  0.1840 -0.2050
  168SAPS  C31619071   2.164   5.077   4.857  0.3238 -0.3927  0.2285
  168SAPS  H16X19072   2.175   4.969   4.882 -2.8847 -1.2590 -1.4780
  168SAPS  H16Y19073   2.150   5.137   4.949 -2.8218 -1.4253  0.5351
  168SAPS  C31719074   2.299   5.115   4.792  1.0206 -0.7911 -0.2011
  168SAPS  H17X19075   2.315   5.043   4.710  0.7321  0.1108 -1.0624
  168SAPS  H17Y19076   2.366   5.107   4.881 -0.4351 -2.0718  0.8253
  168SAPS  C31819077   2.310   5.266   4.746 -0.0957  0.6137  0.5002
  168SAPS  H18X19078   2.389   5.281   4.669 -0.3119  1.1910  0.3888
  168SAPS  H18Y19079   2.336   5.328   4.835 -0.3225  0.9909  0.3006
  168SAPS  H18Z19080   2.217   5.316   4.713 -0.7929  0.3825  2.0284
  169SAPS     N19081   5.546   4.446   6.663 -0.2262 -0.0684 -0.3567
  169SAPS   HN119082   5.576   4.533   6.614  2.1499 -1.0827 -0.8046
  169SAPS   HN219083   5.555   4.450   6.767  1.5252  0.0962 -0.4957
  169SAPS   HN319084   5.593   4.358   6.636 -0.0804 -0.2248  0.3831
  169SAPS   C1219085   5.402   4.433   6.626  0.3093  0.1897 -1.2099
  169SAPS  H12A19086   5.361   4.343   6.672 -2.6086  2.3054  0.6747
  169SAPS   C1319087   5.311   4.550   6.662  0.5477 -0.3773 -0.1077
  169SAPS  O13A19088   5.358   4.663   6.686  0.1707 -0.8440 -0.2005
  169SAPS  O13B19089   5.187   4.536   6.638  0.3821 -0.0440  0.4532
  169SAPS   C1119090   5.400   4.423   6.475  0.6159 -0.0509 -0.0725
  169SAPS  H11A19091   5.433   4.525   6.445 -0.1658  0.9555  2.2030
  169SAPS  H11B19092   5.294   4.415   6.443  0.0896  0.9163  1.3183
  169SAPS     P19093   5.427   4.186   6.382  0.4932  0.1675 -0.3156
  169SAPS   O1319094   5.530   4.097   6.324  0.0250 -0.2180 -0.1835
  169SAPS   O1419095   5.357   4.135   6.507  0.2075  0.2998  0.6931
  169SAPS   O1219096   5.489   4.327   6.417 -0.2226 -0.1408 -0.2209
  169SAPS   O1119097   5.319   4.220   6.265  0.0175  0.1732 -0.3088
  169SAPS    C119098   5.358   4.324   6.170 -0.0579  0.2091 -0.1605
  169SAPS    HA19099   5.348   4.420   6.224 -0.5098 -0.2950  0.6649
  169SAPS    HB19100   5.461   4.309   6.131 -0.6900 -1.3643 -1.3455
  169SAPS    C219101   5.260   4.315   6.043 -0.2585 -0.5318 -0.1394
  169SAPS    HS19102   5.283   4.403   5.979 -1.9706  0.6192  0.7394
  169SAPS   O2119103   5.124   4.310   6.092  0.0744  0.1508  0.0057
  169SAPS   C2119104   5.063   4.405   6.145  0.3076  0.2381 -0.1698
  169SAPS   O2219105   5.109   4.506   6.192  0.1048 -0.0723 -0.3469
  169SAPS   C2219106   4.910   4.378   6.137  0.2286 -0.1985  0.4565
  169SAPS   H2R19107   4.887   4.297   6.209  0.5562  0.3988  1.2483
  169SAPS   H2S19108   4.866   4.477   6.165  0.5959  0.6034 -1.5735
  169SAPS    C319109   5.297   4.180   5.967 -0.2362 -0.7062 -0.2606
  169SAPS    HX19110   5.299   4.093   6.037  0.9548  0.0072  0.6443
  169SAPS    HY19111   5.399   4.192   5.924  0.7486  1.7709  2.3933
  169SAPS   O3119112   5.203   4.149   5.861 -0.4242 -0.3040  0.2174
  169SAPS   C3119113   5.150   4.029   5.854  0.0881 -0.4479  0.1606
  169SAPS   O3219114   5.171   3.935   5.926  0.2617 -0.0948  0.4146
  169SAPS   C3219115   5.048   4.039   5.742  0.1121 -0.0739 -0.1200
  169SAPS   H2X19116   4.976   4.120   5.767 -0.9794 -1.3919  1.1442
  169SAPS   H2Y19117   4.986   3.948   5.757  1.2339 -0.7196  0.8041
  169SAPS   C2319118   4.855   4.326   6.001 -0.4281 -0.5305 -0.5109
  169SAPS   H3R19119   4.747   4.350   5.990 -0.0940  0.5555 -1.7473
  169SAPS   H3S19120   4.865   4.216   6.002 -2.1136 -0.7074  0.4142
  169SAPS   C2419121   4.916   4.378   5.869 -0.5845 -0.0710  0.2783
  169SAPS   H4R19122   4.842   4.342   5.794 -1.9797  1.4348  0.8497
  169SAPS   H4S19123   5.011   4.327   5.844 -2.4417 -2.4555 -2.6435
  169SAPS   C2519124   4.915   4.528   5.866 -0.5745 -0.1338 -0.4467
  169SAPS   H5R19125   4.825   4.576   5.905  0.5962  1.1937  0.7509
  169SAPS   C2619126   5.015   4.600   5.810 -0.9122 -0.6688 -0.1127
  169SAPS   H6R19127   5.008   4.706   5.836  1.0172 -0.2484 -1.1637
  169SAPS   C2719128   5.144   4.552   5.750 -0.5217  0.1346 -0.4693
  169SAPS   H7R19129   5.129   4.473   5.673  2.0096  0.5833 -1.5099
  169SAPS   H7S19130   5.210   4.515   5.832 -0.2069  1.8103  0.0739
  169SAPS   C2819131   5.200   4.674   5.691 -0.1220  0.2385 -0.4896
  169SAPS   H8R19132   5.259   4.726   5.769 -1.8905 -0.4375  1.3961
  169SAPS   C2919133   5.197   4.718   5.563  0.1494 -0.1802 -0.7082
  169SAPS   H9R19134   5.247   4.806   5.520 -1.2326 -0.0211 -2.1040
  169SAPS  C21019135   5.107   4.642   5.468 -0.0737 -0.2368  0.1768
  169SAPS  H10R19136   5.002   4.633   5.503  0.7734 -2.1654  2.4933
  169SAPS  H10S19137   5.133   4.535   5.454 -2.1364 -0.5145 -2.4073
  169SAPS  C21119138   5.119   4.708   5.331  0.0307  0.4336 -0.3098
  169SAPS  H11R19139   5.188   4.655   5.264  0.0834  0.4207 -0.2455
  169SAPS  C21219140   5.060   4.818   5.283 -0.0149 -0.1972 -0.3220
  169SAPS  H12R19141   5.082   4.846   5.179  0.5858 -1.1990 -0.4780
  169SAPS  C21319142   4.952   4.896   5.363  0.7488  0.4158  1.0872
  169SAPS  H13R19143   4.899   4.835   5.439  1.0922 -3.1246 -1.2657
  169SAPS  H13S19144   4.874   4.932   5.293 -0.1159  2.4117  2.9427
  169SAPS  C21419145   5.021   5.009   5.433  0.7341  0.7581  0.4867
  169SAPS  H14R19146   5.067   4.974   5.527  0.8542  1.3298  0.6499
  169SAPS  C21519147   5.029   5.142   5.400  0.1769  0.2168 -0.2319
  169SAPS  H15R19148   5.092   5.208   5.461 -0.3600  1.9290 -1.4407
  169SAPS  C21619149   4.970   5.203   5.278 -0.4101 -0.1056  0.4022
  169SAPS  H16R19150   4.923   5.130   5.208  1.8403 -0.8833 -0.3708
  169SAPS  H16S19151   5.051   5.259   5.227 -0.3442  0.1921  0.8310
  169SAPS  C21719152   4.857   5.304   5.307  0.4139  0.0300 -0.0355
  169SAPS  H17R19153   4.900   5.376   5.380 -0.2376  1.2358 -0.8159
  169SAPS  H17S19154   4.776   5.241   5.350  1.9835 -0.1153  2.9847
  169SAPS  C21819155   4.792   5.371   5.186  0.3070  0.5512 -0.4492
  169SAPS  H18R19156   4.861   5.433   5.124 -0.2277  0.8305 -0.7755
  169SAPS  H18S19157   4.707   5.435   5.219 -1.1099  0.2132 -3.1567
  169SAPS  C21919158   4.732   5.266   5.088 -0.4015  0.2638 -0.6403
  169SAPS  H19R19159   4.668   5.198   5.148  0.1323 -0.0872 -0.4655
  169SAPS  H19S19160   4.820   5.214   5.045  0.5863  1.2529  0.1427
  169SAPS  C22019161   4.653   5.333   4.979  0.1441 -0.9601 -0.4871
  169SAPS  H20R19162   4.718   5.417   4.945  0.9391 -1.0466  0.7594
  169SAPS  H20S19163   4.565   5.391   5.014  0.5565 -0.8138  0.3299
  169SAPS  H20T19164   4.627   5.263   4.897 -1.2071  0.3159 -1.1790
  169SAPS   C3319165   5.127   4.024   5.610 -0.2865  0.1569 -0.1000
  169SAPS   H3X19166   5.061   3.964   5.544  1.2735 -1.8871  0.0940
  169SAPS   H3Y19167   5.220   3.966   5.626 -0.7724 -0.0430  2.3676
  169SAPS   C3419168   5.158   4.159   5.539 -0.0957  0.0037 -0.6816
  169SAPS   H4X19169   5.241   4.211   5.591 -1.8004  0.6739  1.5056
  169SAPS   H4Y19170   5.061   4.213   5.539 -0.5959 -0.8627  0.4883
  169SAPS   C3519171   5.192   4.126   5.398  0.2814 -0.1090  0.3587
  169SAPS   H5X19172   5.107   4.079   5.344  0.2569  0.2220  0.1052
  169SAPS   H5Y19173   5.287   4.068   5.396  0.1794 -0.2614 -0.0981
  169SAPS   C3619174   5.238   4.249   5.324  0.4359  0.1789  0.0841
  169SAPS   H6X19175   5.329   4.294   5.370  0.6852 -1.9550  1.8311
  169SAPS   H6Y19176   5.156   4.322   5.341 -1.2929 -1.9316  1.4258
  169SAPS   C3719177   5.261   4.231   5.175  0.0250 -0.7353 -0.7940
  169SAPS   H7X19178   5.266   4.334   5.133  0.5810 -0.0520  0.8732
  169SAPS   H7Y19179   5.175   4.174   5.134 -0.0596 -0.0625 -1.5906
  169SAPS   C3819180   5.389   4.148   5.148 -0.1754  0.6610  0.1332
  169SAPS   H8X19181   5.378   4.052   5.202  0.1406  1.0343  0.8884
  169SAPS   H8Y19182   5.483   4.196   5.183  0.0471 -0.4536  1.1140
  169SAPS   C3919183   5.403   4.120   4.991  0.1326  0.0780 -1.2723
  169SAPS   H9X19184   5.311   4.079   4.945  0.7423 -0.5245 -1.9798
  169SAPS   H9Y19185   5.475   4.039   4.967  0.2197 -0.4638  0.6727
  169SAPS  C31019186   5.453   4.242   4.909 -0.0699 -0.6202 -0.7974
  169SAPS  H10X19187   5.555   4.277   4.937  0.3675 -3.1375  1.0994
  169SAPS  H10Y19188   5.381   4.323   4.933 -1.1647 -1.9691  0.7107
  169SAPS  C31119189   5.444   4.206   4.751 -0.1461  0.0766  0.2639
  169SAPS  H11X19190   5.508   4.120   4.723 -0.4301  0.3666 -1.3407
  169SAPS  H11Y19191   5.470   4.300   4.697 -3.3453 -0.3654 -2.3370
  169SAPS  C31219192   5.291   4.183   4.702 -0.0894  0.2133  0.4372
  169SAPS  H12X19193   5.215   4.260   4.728 -0.8886 -1.1524  2.4066
  169SAPS  H12Y19194   5.242   4.094   4.747 -2.6582  1.3447  0.0722
  169SAPS  C31319195   5.290   4.161   4.551 -0.3328 -0.4383  0.4250
  169SAPS  H13X19196   5.205   4.091   4.535 -1.3606  0.7992  0.3564
  169SAPS  H13Y19197   5.380   4.102   4.523  0.0766  0.8739 -1.1720
  169SAPS  C31419198   5.287   4.288   4.465 -0.2904  0.0367  0.0890
  169SAPS  H14X19199   5.372   4.355   4.491 -1.0685  0.4475  1.6459
  169SAPS  H14Y19200   5.193   4.337   4.498 -1.2513 -2.3027  0.9728
  169SAPS  C31519201   5.290   4.264   4.315 -1.3366  0.2406 -0.0294
  169SAPS  H15X19202   5.385   4.208   4.298 -1.1916  0.4786 -0.0147
  169SAPS  H15Y19203   5.300   4.364   4.265  1.3073 -0.1816 -0.4910
  169SAPS  C31619204   5.170   4.182   4.252 -0.4748  0.1090 -0.4598
  169SAPS  H16X19205   5.076   4.235   4.276  0.6622  0.9634  2.6219
  169SAPS  H16Y19206   5.175   4.083   4.302  1.4226  1.4073  2.1837
  169SAPS  C31719207   5.176   4.167   4.098  0.0053 -0.0689 -0.2634
  169SAPS  H17X19208   5.207   4.263   4.051  1.8184 -0.3020  0.3837
  169SAPS  H17Y19209   5.070   4.145   4.073 -0.3544  2.2754 -1.0842
  169SAPS  C31819210   5.282   4.065   4.044 -0.2060 -0.2038  0.6120
  169SAPS  H18X19211   5.387   4.099   4.057  0.6811 -2.4776 -0.2281
  169SAPS  H18Y19212   5.270   4.053   3.934  1.5020  0.6515  0.2916
  169SAPS  H18Z19213   5.265   3.965   4.089 -2.2057  0.8061  2.2724
  170SAPS     N19214   3.586   4.649   6.885 -0.1657 -0.7822 -0.5056
  170SAPS   HN119215   3.550   4.644   6.982  0.0289 -1.2486 -0.4552
  170SAPS   HN219216   3.499   4.664   6.830 -1.0787  0.2888  1.1632
  170SAPS   HN319217   3.629   4.560   6.854  2.0524 -0.0466  0.2672
  170SAPS   C1219218   3.681   4.761   6.865 -0.1448  0.0051  0.6175
  170SAPS  H12A19219   3.702   4.800   6.964  2.5143 -1.1798  0.6013
  170SAPS   C1319220   3.826   4.724   6.813 -0.6767 -0.1412  0.4532
  170SAPS  O13A19221   3.851   4.609   6.758  0.1944 -0.2067 -0.0694
  170SAPS  O13B19222   3.922   4.806   6.829  0.1235  0.0396  0.7949
  170SAPS   C1119223   3.617   4.876   6.770 -0.0093  0.1520  0.5527
  170SAPS  H11A19224   3.620   4.842   6.664 -0.7664  0.1849  0.5175
  170SAPS  H11B19225   3.683   4.965   6.777 -0.0003  0.4663 -2.2557
  170SAPS     P19226   3.442   4.988   6.940 -0.0141  0.0250 -0.0667
  170SAPS   O1319227   3.438   4.894   7.052  0.0269 -0.3522  0.2943
  170SAPS   O1419228   3.540   5.101   6.955  0.4821 -0.0336  0.0313
  170SAPS   O1219229   3.479   4.904   6.810  0.2921  0.0232 -0.5799
  170SAPS   O1119230   3.299   5.048   6.919 -0.0791  0.0198  0.2202
  170SAPS    C119231   3.208   4.972   6.831  0.6568  0.0671 -0.0873
  170SAPS    HA19232   3.245   4.870   6.806  1.4725  0.6030 -1.1693
  170SAPS    HB19233   3.108   4.969   6.878 -0.3060  3.0865 -1.6845
  170SAPS    C219234   3.195   5.048   6.699  0.0450  0.0040  0.0291
  170SAPS    HS19235   3.107   5.004   6.647  0.8069 -0.0858 -1.2117
  170SAPS   O2119236   3.314   5.031   6.615  0.5440  0.1565 -0.4864
  170SAPS   C2119237   3.334   4.923   6.561  0.3836  0.6681 -0.2642
  170SAPS   O2219238   3.266   4.817   6.570 -0.2355 -0.2789  0.4942
  170SAPS   C2219239   3.429   4.943   6.451  0.1741 -0.2054  0.2242
  170SAPS   H2R19240   3.520   4.998   6.483 -0.7840  0.9412  1.1022
  170SAPS   H2S19241   3.466   4.841   6.429 -1.6211 -0.8467  0.0610
  170SAPS    C319242   3.169   5.197   6.714  0.5130  0.1232 -0.1817
  170SAPS    HX19243   3.241   5.250   6.781  1.8130 -1.9434  0.1363
  170SAPS    HY19244   3.080   5.207   6.780  1.8355  1.2606  1.5361
  170SAPS   O3119245   3.141   5.260   6.582 -0.5837  0.0443  0.0048
  170SAPS   C3119246   3.246   5.306   6.513  0.0503  0.0454  0.4959
  170SAPS   O3219247   3.358   5.313   6.557  0.3378 -0.0128 -0.0104
  170SAPS   C3219248   3.190   5.343   6.375  0.6032  0.4334 -0.5150
  170SAPS   H2X19249   3.115   5.421   6.398  0.3834  1.2055 -3.4327
  170SAPS   H2Y19250   3.138   5.253   6.336 -1.6698  0.4524  2.2011
  170SAPS   C2319251   3.358   5.014   6.334 -0.2124 -0.5373 -0.5929
  170SAPS   H3R19252   3.366   5.124   6.352  0.0424 -0.6098 -0.2499
  170SAPS   H3S19253   3.250   4.990   6.338 -0.1209 -2.8372 -5.2718
  170SAPS   C2419254   3.407   4.975   6.197  0.4500 -0.5165 -0.4570
  170SAPS   H4R19255   3.351   5.037   6.123  0.6435  2.2170  1.5224
  170SAPS   H4S19256   3.392   4.867   6.177  3.9785 -1.4266  1.0878
  170SAPS   C2519257   3.553   5.017   6.176 -0.5291  0.4416 -0.5261
  170SAPS   H5R19258   3.616   5.036   6.265  0.7438  0.2960 -1.3627
  170SAPS   C2619259   3.606   5.048   6.052 -1.2008 -1.4320  0.3012
  170SAPS   H6R19260   3.711   5.073   6.036 -0.9090 -1.9275  1.3745
  170SAPS   C2719261   3.530   5.040   5.920  0.3140 -0.2415  0.7109
  170SAPS   H7R19262   3.604   5.069   5.842 -0.0723  0.9371  0.7635
  170SAPS   H7S19263   3.451   5.117   5.924 -0.1939 -0.7828  1.2936
  170SAPS   C2819264   3.473   4.901   5.874  0.0940 -0.2587 -0.7722
  170SAPS   H8R19265   3.436   4.838   5.956  0.1754 -0.7093 -1.0761
  170SAPS   C2919266   3.473   4.856   5.749  0.1680 -0.2836 -0.1775
  170SAPS   H9R19267   3.414   4.766   5.727 -0.1759  0.4200 -2.3848
  170SAPS  C21019268   3.528   4.925   5.628 -0.3532  0.1950 -0.3525
  170SAPS  H10R19269   3.638   4.917   5.640 -0.1732  0.4126 -1.7173
  170SAPS  H10S19270   3.498   5.032   5.623  1.9668  0.9453  0.5136
  170SAPS  C21119271   3.478   4.862   5.501 -0.5672 -1.0495 -0.1971
  170SAPS  H11R19272   3.370   4.880   5.506 -0.2390  1.2170 -0.0641
  170SAPS  C21219273   3.541   4.807   5.400 -0.3510  0.2397  0.0935
  170SAPS  H12R19274   3.487   4.771   5.311  0.9495 -1.8815  0.0894
  170SAPS  C21319275   3.692   4.794   5.386 -0.0611  0.4509 -0.1209
  170SAPS  H13R19276   3.748   4.828   5.475  2.2483  0.3564 -1.4371
  170SAPS  H13S19277   3.733   4.860   5.306  0.3999 -1.6989 -1.7541
  170SAPS  C21419278   3.728   4.650   5.338 -0.7258  0.0508 -0.3538
  170SAPS  H14R19279   3.706   4.637   5.231  0.7462  1.6609 -0.8896
  170SAPS  C21519280   3.778   4.548   5.407 -0.4043  0.1265  0.3230
  170SAPS  H15R19281   3.801   4.458   5.348 -0.0245  1.3164 -1.4300
  170SAPS  C21619282   3.807   4.553   5.549 -0.3507 -0.2098 -0.5808
  170SAPS  H16R19283   3.761   4.645   5.590  2.1890  1.0962 -0.4254
  170SAPS  H16S19284   3.916   4.566   5.569 -0.6214 -0.1157  0.9732
  170SAPS  C21719285   3.739   4.452   5.634  0.1728 -0.1423 -0.3845
  170SAPS  H17R19286   3.784   4.352   5.613  1.1852  0.2017  0.1002
  170SAPS  H17S19287   3.635   4.437   5.600 -0.5062  0.3734  1.3822
  170SAPS  C21819288   3.747   4.471   5.792 -0.1722  0.5813 -0.1839
  170SAPS  H18R19289   3.701   4.566   5.828 -1.5477 -0.4211  0.8358
  170SAPS  H18S19290   3.856   4.486   5.804  0.1835 -2.0284  0.2925
  170SAPS  C21919291   3.702   4.348   5.874 -0.4633 -0.0438 -0.8660
  170SAPS  H19R19292   3.745   4.260   5.822  0.0419  1.0404 -2.3371
  170SAPS  H19S19293   3.591   4.351   5.871 -0.5030 -0.6951 -0.2111
  170SAPS  C22019294   3.753   4.355   6.016  0.3927 -0.6236 -0.3854
  170SAPS  H20R19295   3.729   4.264   6.076 -1.3764  0.6079  0.8815
  170SAPS  H20S19296   3.713   4.443   6.070  4.1444  0.6191  0.6455
  170SAPS  H20T19297   3.863   4.369   6.014  0.1609  1.6992  0.5864
  170SAPS   C3319298   3.299   5.378   6.272  0.3699 -0.5019  0.8573
  170SAPS   H3X19299   3.363   5.290   6.249 -0.9135 -1.3867  0.5956
  170SAPS   H3Y19300   3.359   5.464   6.310  0.3623 -0.6646  1.2415
  170SAPS   C3419301   3.232   5.425   6.141 -0.4025  0.1871 -0.1273
  170SAPS   H4X19302   3.234   5.536   6.133 -3.9186  0.4441  0.6218
  170SAPS   H4Y19303   3.122   5.413   6.149 -0.3884  0.8504  1.4360
  170SAPS   C3519304   3.276   5.354   6.016 -0.2692 -0.1672 -0.2418
  170SAPS   H5X19305   3.250   5.246   6.024 -2.3883  0.1287 -2.1479
  170SAPS   H5Y19306   3.385   5.335   6.003  0.4210  2.6173  0.9319
  170SAPS   C3619307   3.215   5.416   5.893 -0.0389  0.1424  0.7998
  170SAPS   H6X19308   3.220   5.527   5.900 -0.3735  0.2528 -0.4648
  170SAPS   H6Y19309   3.108   5.385   5.893  0.3334 -1.1984  1.2384
  170SAPS   C3719310   3.275   5.365   5.758  0.2785 -0.0754  0.7615
  170SAPS   H7X19311   3.197   5.392   5.683  1.2601 -0.0632 -0.2813
  170SAPS   H7Y19312   3.295   5.256   5.770  1.8170  0.2681  1.6233
  170SAPS   C3819313   3.406   5.439   5.713  0.3544  0.2991 -0.4994
  170SAPS   H8X19314   3.495   5.401   5.769 -0.7657 -1.9205 -0.1439
  170SAPS   H8Y19315   3.390   5.549   5.724 -0.3130  0.2382 -0.8451
  170SAPS   C3919316   3.430   5.438   5.561  0.5959 -0.2080 -0.0446
  170SAPS   H9X19317   3.518   5.496   5.528  0.2210  0.1351 -0.4526
  170SAPS   H9Y19318   3.339   5.493   5.528  0.6570  1.1542  1.8528
  170SAPS  C31019319   3.449   5.292   5.517  0.9258  0.3883  0.0012
  170SAPS  H10X19320   3.366   5.223   5.544  0.3214  0.2540 -2.0456
  170SAPS  H10Y19321   3.536   5.260   5.579  1.0231 -0.8385 -0.7295
  170SAPS  C31119322   3.463   5.256   5.370 -0.3752  0.0931  0.2714
  170SAPS  H11X19323   3.488   5.149   5.350  0.5052  0.5288 -1.1228
  170SAPS  H11Y19324   3.550   5.306   5.323 -0.4293 -0.3643 -0.3268
  170SAPS  C31219325   3.342   5.301   5.283 -0.0564 -0.3886  0.7683
  170SAPS  H12X19326   3.311   5.404   5.311  0.1001 -0.1980  0.2660
  170SAPS  H12Y19327   3.257   5.232   5.304 -0.5216  0.0647  0.4121
  170SAPS  C31319328   3.369   5.294   5.128 -0.1827 -0.0958 -0.3426
  170SAPS  H13X19329   3.410   5.193   5.108  3.3044  0.4819  2.8302
  170SAPS  H13Y19330   3.448   5.368   5.103 -2.5195  2.3069 -1.0971
  170SAPS  C31419331   3.250   5.316   5.045 -0.3253 -0.3065 -0.2942
  170SAPS  H14X19332   3.234   5.426   5.040  1.2564  0.0241  1.2370
  170SAPS  H14Y19333   3.166   5.269   5.100 -1.9144 -0.3554 -2.6142
  170SAPS  C31519334   3.266   5.275   4.898 -0.1806 -0.1005 -0.6431
  170SAPS  H15X19335   3.301   5.170   4.893  0.1652  0.0341 -1.0157
  170SAPS  H15Y19336   3.337   5.346   4.851 -1.4151  0.6528 -1.4324
  170SAPS  C31619337   3.140   5.292   4.818  0.3663 -0.0044 -0.8194
  170SAPS  H16X19338   3.110   5.398   4.826  0.9744  0.0561  1.5623
  170SAPS  H16Y19339   3.054   5.229   4.850 -0.1793  0.5614 -1.1399
  170SAPS  C31719340   3.153   5.259   4.669 -0.1244  0.3357 -0.3570
  170SAPS  H17X19341   3.057   5.280   4.617 -0.8540 -1.8857 -0.0388
  170SAPS  H17Y19342   3.166   5.148   4.664 -0.0701  0.0056  3.7509
  170SAPS  C31819343   3.267   5.332   4.603 -0.6322  0.9376 -0.0940
  170SAPS  H18X19344   3.362   5.283   4.633 -1.7180 -1.6648 -0.5852
  170SAPS  H18Y19345   3.253   5.441   4.616  2.1043  1.7227 -2.6200
  170SAPS  H18Z19346   3.257   5.319   4.493  1.5882 -0.4436 -0.1941
  171SAPS     N19347   4.508   2.728   7.215 -0.4108 -0.5349  0.3717
  171SAPS   HN119348   4.460   2.648   7.260  0.9018 -2.7930 -1.9924
  171SAPS   HN219349   4.438   2.795   7.176 -0.4141 -2.2140 -2.8867
  171SAPS   HN319350   4.560   2.687   7.134  0.5056  1.7061 -0.2644
  171SAPS   C1219351   4.612   2.799   7.297  0.0762 -0.0823  0.0032
  171SAPS  H12A19352   4.652   2.887   7.248  0.4876 -0.0120  0.4543
  171SAPS   C1319353   4.572   2.837   7.446 -0.0746  0.0848  0.0571
  171SAPS  O13A19354   4.481   2.780   7.506  0.8075 -0.3630  0.4980
  171SAPS  O13B19355   4.663   2.895   7.512  0.1617 -0.1033  0.5677
  171SAPS   C1119356   4.734   2.699   7.308 -0.1164 -0.0753 -0.4400
  171SAPS  H11A19357   4.700   2.619   7.377 -0.2745 -1.0025 -1.5719
  171SAPS  H11B19358   4.818   2.761   7.346  0.3002 -0.5188 -0.6371
  171SAPS     P19359   4.882   2.540   7.179 -0.2025  0.1843  0.2709
  171SAPS   O1319360   4.980   2.570   7.283  0.0938  0.6187  0.4608
  171SAPS   O1419361   4.819   2.410   7.182  0.2472  0.1491 -0.3465
  171SAPS   O1219362   4.776   2.652   7.178 -0.4458 -0.1853 -0.7052
  171SAPS   O1119363   4.950   2.563   7.036  0.0411  0.7123  0.3009
  171SAPS    C119364   4.887   2.534   6.915  0.4635  1.0473  0.2582
  171SAPS    HA19365   4.849   2.430   6.920  1.8455  0.4254 -1.2373
  171SAPS    HB19366   4.812   2.614   6.899 -0.1605  0.5391  0.5589
  171SAPS    C219367   4.981   2.557   6.801  0.5989 -0.0710 -0.4117
  171SAPS    HS19368   5.027   2.658   6.814 -0.5579  0.3920  0.3040
  171SAPS   O2119369   4.896   2.556   6.687  0.5996 -0.6179 -0.1664
  171SAPS   C2119370   4.944   2.631   6.586 -0.0913  0.0773 -0.0040
  171SAPS   O2219371   5.046   2.694   6.593 -0.4205  0.0464  0.1411
  171SAPS   C2219372   4.839   2.630   6.482  0.9139  0.2529  0.4313
  171SAPS   H2R19373   4.815   2.525   6.453  0.2609  0.0825  1.5248
  171SAPS   H2S19374   4.751   2.681   6.528  2.7179  2.0324  2.1328
  171SAPS    C319375   5.105   2.460   6.793  0.1448  0.2165 -0.2786
  171SAPS    HX19376   5.148   2.459   6.895 -0.4891  1.6589  0.0356
  171SAPS    HY19377   5.192   2.495   6.733  1.3003 -2.2987 -0.1781
  171SAPS   O3119378   5.067   2.324   6.758 -0.6849  0.3182  0.4559
  171SAPS   C3119379   5.097   2.287   6.633  0.0471  0.8334 -0.4378
  171SAPS   O3219380   5.145   2.357   6.551 -0.1287 -0.0717  0.0797
  171SAPS   C3219381   5.067   2.135   6.623  0.2419 -0.3073  0.7021
  171SAPS   H2X19382   4.961   2.112   6.648 -0.3040  0.7698 -0.4571
  171SAPS   H2Y19383   5.135   2.078   6.690 -0.5725 -2.6226 -0.3344
  171SAPS   C2319384   4.888   2.708   6.356  0.1656  1.0717 -0.2817
  171SAPS   H3R19385   4.965   2.785   6.380  1.1966 -0.4616  1.6340
  171SAPS   H3S19386   4.806   2.770   6.314 -1.8039 -2.0652 -1.3992
  171SAPS   C2419387   4.929   2.619   6.236  0.1158 -0.3998 -0.3160
  171SAPS   H4R19388   4.915   2.683   6.146  4.3895 -1.7097 -2.1687
  171SAPS   H4S19389   4.869   2.527   6.219  1.4642 -1.1321 -1.2800
  171SAPS   C2519390   5.074   2.592   6.245 -0.7264 -0.2347 -0.5625
  171SAPS   H5R19391   5.108   2.583   6.349 -1.2851  0.1889 -0.3384
  171SAPS   C2619392   5.146   2.574   6.137 -0.5005  0.0038  0.4593
  171SAPS   H6R19393   5.251   2.542   6.151 -0.7414 -0.5683  1.0005
  171SAPS   C2719394   5.089   2.564   5.992 -0.2095 -0.7263 -0.9402
  171SAPS   H7R19395   4.982   2.533   5.983 -0.3238 -1.0904  1.1549
  171SAPS   H7S19396   5.137   2.478   5.942 -0.4035  0.0284 -2.4667
  171SAPS   C2819397   5.123   2.694   5.914 -0.4824  0.7057  0.3159
  171SAPS   H8R19398   5.110   2.787   5.973 -3.2516  0.8127 -0.3585
  171SAPS   C2919399   5.200   2.696   5.804 -0.1710 -0.2607 -0.0055
  171SAPS   H9R19400   5.206   2.792   5.751  2.7348 -2.2772 -3.8979
  171SAPS  C21019401   5.242   2.581   5.719  0.7358  0.1526  0.1458
  171SAPS  H10R19402   5.163   2.522   5.667  2.3103  0.5865 -2.9618
  171SAPS  H10S19403   5.301   2.510   5.781  2.5756  0.2231 -1.4427
  171SAPS  C21119404   5.337   2.628   5.611 -0.3914  0.0616 -0.9527
  171SAPS  H11R19405   5.408   2.705   5.645 -0.1352 -1.2543  1.7632
  171SAPS  C21219406   5.352   2.587   5.483 -0.5624  0.6126 -0.3105
  171SAPS  H12R19407   5.421   2.646   5.420 -0.3496 -2.9104 -3.7829
  171SAPS  C21319408   5.275   2.484   5.412  0.2600  0.6371 -0.3248
  171SAPS  H13R19409   5.264   2.516   5.306  0.2621 -1.9515 -1.1594
  171SAPS  H13S19410   5.171   2.476   5.449 -0.2406 -2.7670 -2.1510
  171SAPS  C21419411   5.354   2.358   5.428 -0.0812  0.0473  0.1176
  171SAPS  H14R19412   5.407   2.353   5.524 -0.9979  1.7991  0.7537
  171SAPS  C21519413   5.338   2.244   5.351  0.1544 -1.2111  0.7003
  171SAPS  H15R19414   5.407   2.158   5.350  1.6936 -0.0357 -1.3595
  171SAPS  C21619415   5.259   2.227   5.223 -0.5580  0.2627  0.5671
  171SAPS  H16R19416   5.167   2.290   5.227 -0.9666 -0.2438 -0.5481
  171SAPS  H16S19417   5.239   2.119   5.208  1.9234 -0.1707 -0.0086
  171SAPS  C21719418   5.343   2.257   5.099  0.4193 -0.6048  0.3938
  171SAPS  H17R19419   5.378   2.363   5.100 -0.5505 -0.2809  0.9426
  171SAPS  H17S19420   5.280   2.249   5.008  0.8152 -2.4648  0.2443
  171SAPS  C21819421   5.462   2.161   5.066  0.5090  0.0809 -0.5289
  171SAPS  H18R19422   5.413   2.064   5.043 -2.2283  0.6988  1.9886
  171SAPS  H18S19423   5.528   2.140   5.152 -1.0339  2.6053  1.3961
  171SAPS  C21919424   5.543   2.209   4.946  0.3847 -0.5193 -1.2219
  171SAPS  H19R19425   5.476   2.210   4.858  1.3939 -0.8755 -2.0116
  171SAPS  H19S19426   5.625   2.135   4.935  0.4945 -1.0692  2.2403
  171SAPS  C22019427   5.610   2.338   4.954 -0.1628  0.1104  0.2245
  171SAPS  H20R19428   5.689   2.350   5.031 -0.2348  0.0512  0.3084
  171SAPS  H20S19429   5.545   2.422   4.988  0.8947  1.0066  0.0791
  171SAPS  H20T19430   5.658   2.359   4.856  0.7562 -0.7268  0.4857
  171SAPS   C3319431   5.090   2.088   6.475 -1.3493 -0.0773 -0.0775
  171SAPS   H3X19432   5.097   1.980   6.501  0.6601  0.4015  1.6482
  171SAPS   H3Y19433   5.192   2.114   6.440 -1.4384 -0.8660 -0.9639
  171SAPS   C3419434   4.978   2.119   6.386  0.0074 -0.7078  0.7548
  171SAPS   H4X19435   4.968   2.229   6.378 -0.2326 -0.5506  2.7935
  171SAPS   H4Y19436   4.878   2.095   6.429 -0.9490  0.6150 -0.6343
  171SAPS   C3519437   5.016   2.057   6.248  0.1934  0.0263  0.1177
  171SAPS   H5X19438   5.041   1.949   6.258 -2.1781 -0.7181 -1.0983
  171SAPS   H5Y19439   5.104   2.110   6.206 -0.4317  2.0153  1.2384
  171SAPS   C3619440   4.904   2.073   6.141 -0.2261 -0.3931 -0.0630
  171SAPS   H6X19441   4.815   2.021   6.184 -1.1882 -0.1067 -1.6287
  171SAPS   H6Y19442   4.938   2.021   6.049 -3.1701 -0.0903 -1.4360
  171SAPS   C3719443   4.851   2.220   6.118 -0.1187 -0.5131 -0.0738
  171SAPS   H7X19444   4.933   2.289   6.090  0.2352 -0.4705  1.0098
  171SAPS   H7Y19445   4.802   2.245   6.215  1.9269  1.7417  0.4808
  171SAPS   C3819446   4.743   2.237   6.009  0.5528  0.2166 -0.0447
  171SAPS   H8X19447   4.662   2.162   6.022 -0.0711  0.1489 -3.4275
  171SAPS   H8Y19448   4.791   2.198   5.917 -0.8856 -2.4294  0.2378
  171SAPS   C3919449   4.678   2.371   5.982 -0.2863  0.8390  0.3141
  171SAPS   H9X19450   4.753   2.454   5.977  0.8145 -0.0947  0.7608
  171SAPS   H9Y19451   4.620   2.394   6.075  0.6800  0.0887  1.1273
  171SAPS  C31019452   4.585   2.374   5.857 -0.1072 -0.5919 -0.0660
  171SAPS  H10X19453   4.519   2.463   5.859 -0.4378 -0.8136 -0.6412
  171SAPS  H10Y19454   4.516   2.287   5.865  0.3535 -1.2709 -2.5886
  171SAPS  C31119455   4.653   2.359   5.720  0.5430  0.1416  0.0356
  171SAPS  H11X19456   4.588   2.386   5.634  1.6657  2.6919 -0.1038
  171SAPS  H11Y19457   4.690   2.255   5.706  0.4816  0.3601 -2.2371
  171SAPS  C31219458   4.786   2.440   5.706 -0.1971 -0.0108 -0.3044
  171SAPS  H12X19459   4.832   2.418   5.607  0.6913 -2.3307  0.5763
  171SAPS  H12Y19460   4.846   2.392   5.786  0.2844  1.7535  0.4544
  171SAPS  C31319461   4.781   2.593   5.732 -0.2698 -0.6841 -0.1513
  171SAPS  H13X19462   4.880   2.605   5.782 -0.0656 -0.4421 -0.5953
  171SAPS  H13Y19463   4.703   2.620   5.806 -0.9336 -1.0141 -0.7171
  171SAPS  C31419464   4.760   2.668   5.596  0.0489  0.3001 -0.2944
  171SAPS  H14X19465   4.852   2.646   5.537  0.0448 -1.6987  0.3773
  171SAPS  H14Y19466   4.776   2.777   5.612  2.9528  0.3204 -2.4478
  171SAPS  C31519467   4.626   2.642   5.529  0.2344 -0.6014 -0.1447
  171SAPS  H15X19468   4.538   2.684   5.583  1.0417  1.4461 -0.2979
  171SAPS  H15Y19469   4.614   2.536   5.500 -0.9858  0.3950 -4.0486
  171SAPS  C31619470   4.622   2.725   5.405 -0.2204  0.1856 -0.3779
  171SAPS  H16X19471   4.704   2.683   5.343 -1.4115 -1.3108 -0.9895
  171SAPS  H16Y19472   4.640   2.834   5.422  1.0580  0.3489 -2.4595
  171SAPS  C31719473   4.494   2.701   5.332 -0.1059 -0.1306 -0.2497
  171SAPS  H17X19474   4.405   2.740   5.387 -0.1272  0.7988 -0.9075
  171SAPS  H17Y19475   4.476   2.592   5.330  1.6649 -0.4775  0.6813
  171SAPS  C31819476   4.492   2.764   5.192  0.4134 -0.5254 -0.2910
  171SAPS  H18X19477   4.568   2.710   5.131  1.0451  1.1801 -1.0896
  171SAPS  H18Y19478   4.502   2.874   5.187  0.4621 -0.4156  1.6260
  171SAPS  H18Z19479   4.388   2.742   5.159  0.4471 -1.1740  0.0186
  172SAPS     N19480   6.555   4.765   6.744  0.2326 -0.1073  0.5337
  172SAPS   HN119481   6.521   4.672   6.713  3.7648 -1.2502 -0.4153
  172SAPS   HN219482   6.572   4.828   6.663 -2.7368  0.0491 -0.0872
  172SAPS   HN319483   6.638   4.752   6.805  1.0971  1.2643 -0.2892
  172SAPS   C1219484   6.448   4.822   6.822  0.2547 -0.6439  0.1258
  172SAPS  H12A19485   6.382   4.737   6.836 -0.3973  0.0838  1.7182
  172SAPS   C1319486   6.508   4.882   6.949 -0.6509 -0.3021 -0.1730
  172SAPS  O13A19487   6.619   4.940   6.946 -0.0523 -0.1000  1.2151
  172SAPS  O13B19488   6.418   4.925   7.028  0.1246 -0.3948 -0.4419
  172SAPS   C1119489   6.391   4.938   6.740  0.1096  0.2155  0.4225
  172SAPS  H11A19490   6.466   5.018   6.722 -1.3002  0.9846 -2.5521
  172SAPS  H11B19491   6.311   4.984   6.802  0.8080  1.8104  0.1783
  172SAPS     P19492   6.211   4.846   6.555 -0.2355 -0.0525 -0.2543
  172SAPS   O1319493   6.156   4.748   6.651 -0.5465  0.0261 -0.3509
  172SAPS   O1419494   6.133   4.969   6.525  0.2609  0.6168 -0.4105
  172SAPS   O1219495   6.349   4.893   6.611  0.1455 -0.2466  0.5799
  172SAPS   O1119496   6.233   4.770   6.425 -0.0709  0.5944 -0.6053
  172SAPS    C119497   6.347   4.780   6.343 -0.4408 -0.6044 -0.5690
  172SAPS    HA19498   6.429   4.846   6.378 -0.0755 -0.1268 -2.2434
  172SAPS    HB19499   6.406   4.686   6.332 -0.5815 -0.8284  0.4345
  172SAPS    C219500   6.307   4.828   6.203 -0.6216 -0.5287  0.9546
  172SAPS    HS19501   6.255   4.926   6.212 -0.6201 -0.7158  4.5411
  172SAPS   O2119502   6.216   4.735   6.146 -0.4623  0.0704 -0.5363
  172SAPS   C2119503   6.118   4.771   6.064 -0.7439  0.0868 -0.7295
  172SAPS   O2219504   6.105   4.881   6.018  0.0603 -0.1927  0.3412
  172SAPS   C2219505   6.035   4.647   6.027 -0.0129  0.6005  0.1236
  172SAPS   H2R19506   6.118   4.575   6.010  0.1203  0.1269  2.4770
  172SAPS   H2S19507   5.982   4.612   6.118 -1.9878  0.3097 -1.0693
  172SAPS    C319508   6.431   4.858   6.119 -0.5520  0.7614  0.1647
  172SAPS    HX19509   6.493   4.766   6.122 -1.1050  0.4085  2.0323
  172SAPS    HY19510   6.494   4.938   6.164  0.0871  1.1340 -1.3172
  172SAPS   O3119511   6.417   4.903   5.981  0.4409 -0.2276  0.0013
  172SAPS   C3119512   6.380   5.033   5.959 -0.1349 -0.1550  0.6304
  172SAPS   O3219513   6.362   5.117   6.041  0.2622 -0.1705  0.7084
  172SAPS   C3219514   6.360   5.055   5.805  0.3166 -0.3553 -0.3087
  172SAPS   H2X19515   6.276   4.987   5.781  0.0614 -0.4422  0.7823
  172SAPS   H2Y19516   6.450   5.018   5.751  0.8469 -0.1848  0.4498
  172SAPS   C2319517   5.944   4.663   5.905 -0.1088  0.3701 -0.1857
  172SAPS   H3R19518   5.893   4.761   5.913  1.1350  0.9881  0.4346
  172SAPS   H3S19519   5.866   4.585   5.917 -1.9702  2.1039 -0.3589
  172SAPS   C2419520   6.002   4.633   5.767 -0.6632 -0.9750 -0.4354
  172SAPS   H4R19521   6.056   4.536   5.775  0.8139 -0.0447  2.7718
  172SAPS   H4S19522   6.078   4.714   5.764 -2.5954  1.4383  4.4819
  172SAPS   C2519523   5.898   4.630   5.652 -0.4190  0.2193  0.3373
  172SAPS   H5R19524   5.814   4.565   5.683  0.7100 -0.8514  1.2590
  172SAPS   C2619525   5.904   4.713   5.548  0.0202 -0.4352 -0.0793
  172SAPS   H6R19526   5.819   4.709   5.478 -0.0260 -1.2367  0.0205
  172SAPS   C2719527   6.001   4.826   5.507 -0.5405  0.4600 -0.2486
  172SAPS   H7R19528   6.044   4.795   5.409 -0.6923  1.1701 -0.5505
  172SAPS   H7S19529   6.095   4.834   5.566  1.3055 -2.0347 -2.6222
  172SAPS   C2819530   5.928   4.959   5.485 -0.1638  0.0043 -0.0365
  172SAPS   H8R19531   5.926   5.024   5.573  0.2690 -0.6047  0.4333
  172SAPS   C2919532   5.866   4.999   5.377 -0.2802  0.1585  0.5125
  172SAPS   H9R19533   5.815   5.097   5.371 -2.6066 -0.8014  2.7295
  172SAPS  C21019534   5.852   4.918   5.248  0.0120  0.1493  0.6785
  172SAPS  H10R19535   5.753   4.928   5.198  0.8017  0.0625 -1.0008
  172SAPS  H10S19536   5.857   4.809   5.271  0.5208  0.0563  0.1617
  172SAPS  C21119537   5.966   4.913   5.149 -0.2084  0.3371 -0.6858
  172SAPS  H11R19538   6.059   4.862   5.179  0.1743 -0.8141 -3.5566
  172SAPS  C21219539   5.973   4.964   5.031 -0.0626 -0.0510  0.3142
  172SAPS  H12R19540   6.066   4.941   4.977 -0.7134 -1.5923 -0.1965
  172SAPS  C21319541   5.863   5.036   4.961  0.2766 -0.0600  0.4211
  172SAPS  H13R19542   5.900   5.087   4.870 -1.5752 -0.8281 -0.8431
  172SAPS  H13S19543   5.827   5.121   5.023 -2.2960 -0.5193 -0.2867
  172SAPS  C21419544   5.746   4.950   4.916  0.2624 -0.1166 -0.6258
  172SAPS  H14R19545   5.663   4.936   4.987 -1.3709 -2.1230 -2.7624
  172SAPS  C21519546   5.741   4.889   4.798  0.2190  0.2483  0.0216
  172SAPS  H15R19547   5.656   4.828   4.764  0.4094  0.3179 -0.5780
  172SAPS  C21619548   5.851   4.905   4.695 -0.3292  0.6203 -0.0480
  172SAPS  H16R19549   5.868   4.807   4.648  1.1869  0.1252  1.4069
  172SAPS  H16S19550   5.955   4.924   4.731 -0.1319  1.2694 -0.9286
  172SAPS  C21719551   5.818   5.011   4.590 -1.0256  0.4056 -0.5056
  172SAPS  H17R19552   5.801   5.104   4.648 -1.1823  0.0334  0.0544
  172SAPS  H17S19553   5.734   4.971   4.530 -0.0272 -2.3780 -0.2095
  172SAPS  C21819554   5.932   5.027   4.490 -0.0682  0.8487 -0.1674
  172SAPS  H18R19555   5.970   4.924   4.474  0.1828  0.7422  1.0872
  172SAPS  H18S19556   6.011   5.082   4.545  0.3339 -0.8447  1.0135
  172SAPS  C21919557   5.886   5.107   4.370 -0.1293 -0.6160  0.0679
  172SAPS  H19R19558   5.867   5.206   4.415 -0.6271 -0.4964 -0.3880
  172SAPS  H19S19559   5.794   5.066   4.323  1.5325  0.0446 -4.2457
  172SAPS  C22019560   5.984   5.101   4.258  0.0858  0.0034  0.0825
  172SAPS  H20R19561   5.970   5.173   4.174 -0.4251 -0.0343  0.1340
  172SAPS  H20S19562   5.980   5.005   4.202 -0.3405  1.1957 -2.0699
  172SAPS  H20T19563   6.085   5.118   4.302  1.3560 -2.7999 -1.4739
  172SAPS   C3319564   6.330   5.198   5.755  0.0535  0.0385  0.3505
  172SAPS   H3X19565   6.419   5.255   5.721  0.6276 -1.3292 -0.5350
  172SAPS   H3Y19566   6.281   5.252   5.838 -1.3158 -1.4460  0.5632
  172SAPS   C3419567   6.238   5.187   5.635 -0.1833 -0.1404 -0.5780
  172SAPS   H4X19568   6.184   5.283   5.645 -1.3200 -0.7077 -1.0700
  172SAPS   H4Y19569   6.163   5.106   5.648 -0.8662  0.5835  0.0630
  172SAPS   C3519570   6.319   5.178   5.503  0.5589 -0.0880 -0.8234
  172SAPS   H5X19571   6.351   5.073   5.490 -1.8569 -0.8609 -0.9054
  172SAPS   H5Y19572   6.406   5.248   5.507  1.5670 -1.3261 -0.4466
  172SAPS   C3619573   6.222   5.224   5.397 -0.3852  0.0702  0.0314
  172SAPS   H6X19574   6.183   5.325   5.420 -0.3216  0.0052  0.4294
  172SAPS   H6Y19575   6.134   5.156   5.404  0.3602 -0.9208 -0.0734
  172SAPS   C3719576   6.278   5.208   5.255 -0.3169 -0.2071  0.0663
  172SAPS   H7X19577   6.325   5.108   5.250  0.9630  0.3124  1.0993
  172SAPS   H7Y19578   6.369   5.271   5.243 -1.5551  1.7406  0.3418
  172SAPS   C3819579   6.187   5.219   5.131  0.3894 -0.0996 -0.9838
  172SAPS   H8X19580   6.084   5.178   5.136 -0.9301  2.7027 -2.2643
  172SAPS   H8Y19581   6.237   5.173   5.043  0.8103  0.8533 -1.2582
  172SAPS   C3919582   6.160   5.368   5.106 -0.2056  0.8170  0.6609
  172SAPS   H9X19583   6.253   5.429   5.103  0.1518  0.2854  0.7466
  172SAPS   H9Y19584   6.099   5.419   5.183  0.1438  0.3558  1.2578
  172SAPS  C31019585   6.086   5.386   4.973  0.2949 -0.1027  0.0519
  172SAPS  H10X19586   6.067   5.494   4.960 -1.9635 -0.2468  1.5699
  172SAPS  H10Y19587   5.983   5.343   4.966 -0.0545  0.8195 -0.5244
  172SAPS  C31119588   6.148   5.333   4.848  0.0835 -0.4724  0.0085
  172SAPS  H11X19589   6.136   5.222   4.846  0.9859 -0.5800 -0.2094
  172SAPS  H11Y19590   6.257   5.341   4.869 -0.1469 -0.8614  1.4964
  172SAPS  C31219591   6.127   5.415   4.724  0.1148 -0.2875 -0.9251
  172SAPS  H12X19592   6.188   5.372   4.642 -0.8448  2.6639 -3.3656
  172SAPS  H12Y19593   6.162   5.516   4.755  4.5924 -1.6310 -0.8423
  172SAPS  C31319594   5.982   5.415   4.671  0.3357 -0.1837 -0.5902
  172SAPS  H13X19595   5.903   5.433   4.747 -0.5129  2.5136 -1.9940
  172SAPS  H13Y19596   5.962   5.314   4.628  2.3654 -1.4585  1.2518
  172SAPS  C31419597   5.971   5.534   4.569 -0.1861 -0.1708  0.1610
  172SAPS  H14X19598   6.041   5.524   4.482 -0.3524  0.8050 -0.0869
  172SAPS  H14Y19599   6.005   5.624   4.624  1.9079  0.4554 -1.9876
  172SAPS  C31519600   5.830   5.558   4.516  0.2660 -0.4574 -0.5754
  172SAPS  H15X19601   5.756   5.585   4.595  2.5362  0.9018  1.2164
  172SAPS  H15Y19602   5.792   5.467   4.465 -0.8362 -0.7407  0.6831
  172SAPS  C31619603   5.814   5.673   4.418  0.4776  0.1516  0.6165
  172SAPS  H16X19604   5.708   5.691   4.389  0.4524 -0.3711  0.3892
  172SAPS  H16Y19605   5.861   5.766   4.458 -3.0112  1.5329  1.8816
  172SAPS  C31719606   5.878   5.644   4.278 -0.3253  0.4655 -0.0458
  172SAPS  H17X19607   5.845   5.541   4.254 -0.1905  0.1989  0.8678
  172SAPS  H17Y19608   5.983   5.626   4.307 -1.2790  0.8913  4.3973
  172SAPS  C31819609   5.855   5.743   4.164  0.6119  0.0491 -0.6352
  172SAPS  H18X19610   5.905   5.837   4.193  0.9607 -0.5164  0.6950
  172SAPS  H18Y19611   5.749   5.775   4.153  0.0231 -1.8389 -0.8259
  172SAPS  H18Z19612   5.897   5.712   4.066  0.9230 -2.1045  0.0998
  173SAPS     N19613   4.281   3.685   2.233 -0.1038  0.5029  0.1647
  173SAPS   HN119614   4.334   3.686   2.323  0.8115  0.5912 -0.3629
  173SAPS   HN219615   4.182   3.701   2.258 -0.2888  0.3141 -0.4297
  173SAPS   HN319616   4.286   3.585   2.203  1.6983  1.0371 -1.6059
  173SAPS   C1219617   4.332   3.783   2.135 -0.5803  0.9352  0.1072
  173SAPS  H12A19618   4.418   3.735   2.089 -0.5358 -0.1973  1.3250
  173SAPS   C1319619   4.243   3.814   2.016 -1.1470  0.6685 -0.3723
  173SAPS  O13A19620   4.124   3.765   2.023 -0.1797 -0.3889 -0.0342
  173SAPS  O13B19621   4.281   3.889   1.926  0.0579  0.0491  0.4877
  173SAPS   C1119622   4.374   3.912   2.204 -0.6119  0.4956  0.6958
  173SAPS  H11A19623   4.425   3.973   2.126 -1.6240 -1.0682 -1.2734
  173SAPS  H11B19624   4.447   3.894   2.286  1.3283 -0.8691 -1.2161
  173SAPS     P19625   4.257   4.126   2.278  0.2439  0.2764 -0.6189
  173SAPS   O1319626   4.348   4.198   2.190 -0.0258 -0.1640 -0.3058
  173SAPS   O1419627   4.112   4.160   2.256 -0.7122 -0.0874  0.7020
  173SAPS   O1219628   4.265   3.971   2.267  0.2389  0.0274  0.4499
  173SAPS   O1119629   4.282   4.160   2.433  0.0408 -0.1026  0.4481
  173SAPS    C119630   4.373   4.090   2.528  0.4095  0.2837 -0.5883
  173SAPS    HA19631   4.454   4.043   2.467  0.0811  0.5296 -1.2215
  173SAPS    HB19632   4.415   4.162   2.600 -0.3777  0.3063 -0.1404
  173SAPS    C219633   4.303   3.976   2.604  0.3823 -0.7260  0.2763
  173SAPS    HS19634   4.279   3.890   2.538  0.1896 -2.6196  2.6522
  173SAPS   O2119635   4.187   4.030   2.680  0.1625  0.4857  1.0348
  173SAPS   C2119636   4.095   3.944   2.719  0.4706  0.5438  0.7299
  173SAPS   O2219637   4.086   3.829   2.677  0.5839  0.5544  0.2892
  173SAPS   C2219638   3.994   3.997   2.819 -1.1290  0.1451 -0.6096
  173SAPS   H2R19639   3.953   4.090   2.772  1.3990  0.4729 -2.3931
  173SAPS   H2S19640   3.919   3.918   2.835  0.5311 -0.8620  3.2731
  173SAPS    C319641   4.410   3.907   2.701 -0.2646 -0.2661 -0.1671
  173SAPS    HX19642   4.456   3.987   2.762  1.5758 -0.8977 -0.6500
  173SAPS    HY19643   4.490   3.864   2.637  0.8880  2.1157 -0.4142
  173SAPS   O3119644   4.353   3.807   2.790  0.3738 -0.5420 -0.4649
  173SAPS   C3119645   4.421   3.694   2.802  0.7866  0.5612 -0.5998
  173SAPS   O3219646   4.521   3.654   2.737  0.7355 -0.5204  0.1496
  173SAPS   C3219647   4.353   3.618   2.911 -0.3282 -0.2605 -0.2120
  173SAPS   H2X19648   4.387   3.512   2.905 -1.9002 -0.8055 -0.0242
  173SAPS   H2Y19649   4.244   3.615   2.892 -0.2125 -0.3738 -0.9044
  173SAPS   C2319650   4.038   4.027   2.964 -0.1481 -0.0828 -0.1617
  173SAPS   H3R19651   3.948   4.060   3.021  0.9757 -0.4524  1.9376
  173SAPS   H3S19652   4.103   4.116   2.969 -2.0610  1.3363  3.9009
  173SAPS   C2419653   4.094   3.899   3.034 -0.3094  0.0807 -0.0829
  173SAPS   H4R19654   4.177   3.856   2.974 -1.1351 -0.3175 -0.9755
  173SAPS   H4S19655   4.009   3.828   3.040 -1.1765  0.6386 -3.4700
  173SAPS   C2519656   4.147   3.948   3.169  0.6872 -0.4674  0.5739
  173SAPS   H5R19657   4.256   3.951   3.184  0.9568 -3.1969 -0.2032
  173SAPS   C2619658   4.067   3.958   3.282 -0.3669  0.0396 -0.3155
  173SAPS   H6R19659   4.122   3.995   3.369 -0.0766 -0.3411 -0.3325
  173SAPS   C2719660   3.916   3.942   3.286 -0.8650  0.4298  0.2349
  173SAPS   H7R19661   3.895   3.840   3.326  0.9244 -0.1217 -0.0992
  173SAPS   H7S19662   3.889   3.925   3.179  1.2733  1.4262 -0.5232
  173SAPS   C2819663   3.829   4.051   3.350 -1.0589  0.2104 -0.2300
  173SAPS   H8R19664   3.788   4.129   3.284 -1.4758 -0.8317 -1.2510
  173SAPS   C2919665   3.787   4.053   3.478 -0.0985  0.5219 -0.2322
  173SAPS   H9R19666   3.719   4.131   3.515  1.9472  2.0332  0.5721
  173SAPS  C21019667   3.809   3.928   3.565  0.0155 -0.3245  0.0802
  173SAPS  H10R19668   3.795   3.837   3.503 -0.2491 -0.2442  0.0202
  173SAPS  H10S19669   3.722   3.923   3.634  1.4030  3.0710  2.3906
  173SAPS  C21119670   3.937   3.908   3.643  0.0719 -0.5596  0.4309
  173SAPS  H11R19671   4.019   3.871   3.581  2.1643 -0.6879  3.1074
  173SAPS  C21219672   3.959   3.913   3.774  0.3495  0.5270  0.2633
  173SAPS  H12R19673   4.062   3.898   3.810  0.2484 -0.7698  0.0903
  173SAPS  C21319674   3.860   3.947   3.874  0.3512  0.6059 -0.5341
  173SAPS  H13R19675   3.849   3.856   3.937 -1.1517  0.0250 -1.5830
  173SAPS  H13S19676   3.758   3.947   3.831  0.5175  1.7690 -0.9626
  173SAPS  C21419677   3.869   4.087   3.935  0.3341  0.1420 -0.4925
  173SAPS  H14R19678   3.896   4.169   3.866 -0.6585 -0.9333 -2.2395
  173SAPS  C21519679   3.844   4.117   4.066  0.2168  0.2520 -0.4240
  173SAPS  H15R19680   3.851   4.221   4.099  0.5322 -0.0794  0.5882
  173SAPS  C21619681   3.810   4.022   4.174 -0.0060 -0.2082 -0.0670
  173SAPS  H16R19682   3.810   3.923   4.123  1.8217  0.1250 -0.7856
  173SAPS  H16S19683   3.707   4.044   4.209 -0.4897 -1.2447 -0.7470
  173SAPS  C21719684   3.915   4.030   4.277 -0.2874 -0.4959  0.9457
  173SAPS  H17R19685   3.922   4.138   4.302  0.6363  0.1336 -1.6253
  173SAPS  H17S19686   4.014   4.002   4.233 -0.6262 -0.6057  0.2386
  173SAPS  C21819687   3.892   3.951   4.401 -0.7158 -0.8498 -0.1767
  173SAPS  H18R19688   3.990   3.958   4.453  0.1189 -1.1654 -1.6567
  173SAPS  H18S19689   3.874   3.844   4.376  0.9242 -1.5144  1.2540
  173SAPS  C21919690   3.784   3.990   4.501  0.1008 -0.1895 -0.1923
  173SAPS  H19R19691   3.682   3.968   4.463 -1.0076  5.0820 -1.0508
  173SAPS  H19S19692   3.774   4.101   4.509  0.2635 -0.0463 -1.7190
  173SAPS  C22019693   3.800   3.933   4.643 -0.5892 -0.0697  0.5779
  173SAPS  H20R19694   3.708   3.929   4.705  0.8317 -0.4915  2.7549
  173SAPS  H20S19695   3.879   3.973   4.709 -1.7254 -0.0286  1.9506
  173SAPS  H20T19696   3.823   3.825   4.632 -0.0467 -0.2611  3.0280
  173SAPS   C3319697   4.404   3.661   3.051 -0.2083 -0.0679  0.2798
  173SAPS   H3X19698   4.364   3.763   3.067 -0.6591 -0.1047 -0.5691
  173SAPS   H3Y19699   4.515   3.652   3.050  0.0177  2.0027 -1.4547
  173SAPS   C3419700   4.336   3.582   3.159  0.5349 -0.6827  0.3003
  173SAPS   H4X19701   4.328   3.472   3.147 -1.8656 -0.3769 -1.5513
  173SAPS   H4Y19702   4.230   3.614   3.167  0.1724 -1.9707  0.9530
  173SAPS   C3519703   4.397   3.601   3.296 -0.9397 -0.6707 -0.2944
  173SAPS   H5X19704   4.407   3.709   3.320  0.2250 -0.8933  0.3018
  173SAPS   H5Y19705   4.502   3.565   3.300 -0.4945  0.5837  3.3621
  173SAPS   C3619706   4.321   3.530   3.401 -0.5158  0.0909 -0.6702
  173SAPS   H6X19707   4.362   3.564   3.498  0.2226  0.1947 -1.0124
  173SAPS   H6Y19708   4.343   3.421   3.391 -1.4042 -0.0890 -0.7482
  173SAPS   C3719709   4.172   3.553   3.411  0.5265  0.1034  0.5202
  173SAPS   H7X19710   4.111   3.504   3.333 -1.1219 -0.9302  2.3656
  173SAPS   H7Y19711   4.136   3.657   3.393  0.6674  0.4790  2.1891
  173SAPS   C3819712   4.108   3.509   3.543 -0.1036 -0.1815  0.8638
  173SAPS   H8X19713   4.126   3.585   3.622 -2.3291 -0.8047  2.0678
  173SAPS   H8Y19714   4.155   3.418   3.585  0.7990  0.2716  0.8498
  173SAPS   C3919715   3.955   3.514   3.540 -0.0234 -0.2506 -0.1196
  173SAPS   H9X19716   3.907   3.423   3.498  0.1186  0.5054 -2.0040
  173SAPS   H9Y19717   3.909   3.600   3.486 -1.7878 -0.8104  0.3997
  173SAPS  C31019718   3.892   3.553   3.679 -0.0631  0.3945 -0.3897
  173SAPS  H10X19719   3.782   3.569   3.677 -0.4900 -1.8666  0.8785
  173SAPS  H10Y19720   3.936   3.650   3.708  0.4269 -0.0141  0.2829
  173SAPS  C31119721   3.930   3.457   3.790 -0.7157  0.8380 -0.1599
  173SAPS  H11X19722   4.038   3.436   3.809 -1.0673 -1.5660 -0.4534
  173SAPS  H11Y19723   3.886   3.356   3.776  0.7135 -0.1373  1.8132
  173SAPS  C31219724   3.892   3.525   3.920 -0.3330 -0.8348 -0.4691
  173SAPS  H12X19725   3.782   3.538   3.921 -0.2374  1.0669  3.5902
  173SAPS  H12Y19726   3.944   3.623   3.912 -1.6582 -0.1290 -0.7992
  173SAPS  C31319727   3.928   3.461   4.063 -0.4767  0.2305  0.1305
  173SAPS  H13X19728   4.039   3.453   4.062 -0.4986 -0.0674 -0.2922
  173SAPS  H13Y19729   3.887   3.358   4.075 -1.1168  0.5326  0.6363
  173SAPS  C31419730   3.904   3.541   4.197  0.2842  0.0812 -0.7132
  173SAPS  H14X19731   3.802   3.579   4.219  0.9570  0.8889  1.1315
  173SAPS  H14Y19732   3.967   3.632   4.200 -1.9135  1.6414  0.7945
  173SAPS  C31519733   3.943   3.465   4.333  0.3508 -0.5769  0.5957
  173SAPS  H15X19734   4.054   3.468   4.338  0.2885 -0.2124  2.2899
  173SAPS  H15Y19735   3.899   3.363   4.339  1.0940 -1.1007 -1.7869
  173SAPS  C31619736   3.890   3.543   4.449 -0.2731  0.6020  0.1460
  173SAPS  H16X19737   3.779   3.547   4.456 -0.2144  0.4805  1.3347
  173SAPS  H16Y19738   3.932   3.645   4.436  1.9388 -0.2337  0.4189
  173SAPS  C31719739   3.944   3.499   4.587 -0.0613  0.4099  0.3228
  173SAPS  H17X19740   3.925   3.576   4.665  1.4952 -1.8752  3.1535
  173SAPS  H17Y19741   4.054   3.487   4.581 -0.2413 -0.7449 -1.7414
  173SAPS  C31819742   3.884   3.368   4.636  0.2071 -0.6453  0.0439
  173SAPS  H18X19743   3.928   3.361   4.738  0.0733 -0.6273  0.1028
  173SAPS  H18Y19744   3.911   3.275   4.582  0.2900 -0.0264 -1.0058
  173SAPS  H18Z19745   3.774   3.374   4.654  0.2476  0.9316 -0.1335
  174SAPS     N19746   1.060   4.152   2.723 -0.0290  0.1573 -0.4371
  174SAPS   HN119747   1.161   4.159   2.746 -0.2584  1.0605  0.2978
  174SAPS   HN219748   1.020   4.217   2.793 -0.6128 -0.9695  0.3116
  174SAPS   HN319749   1.016   4.060   2.745 -1.8928  1.0668 -0.1256
  174SAPS   C1219750   1.045   4.211   2.582 -0.2866 -0.7683 -0.0957
  174SAPS  H12A19751   1.078   4.314   2.592 -0.0793 -0.9623  1.3560
  174SAPS   C1319752   1.131   4.143   2.477 -0.2566  0.1047  0.1000
  174SAPS  O13A19753   1.198   4.048   2.517 -0.1323  0.5283 -0.0138
  174SAPS  O13B19754   1.151   4.189   2.363 -0.1615  0.7513 -0.3852
  174SAPS   C1119755   0.895   4.219   2.548  0.0365 -0.2552  0.2774
  174SAPS  H11A19756   0.857   4.123   2.588  0.1716 -0.2076  0.5217
  174SAPS  H11B19757   0.884   4.211   2.438 -0.5285 -1.2304  0.4031
  174SAPS     P19758   0.780   4.446   2.525 -0.1137 -0.2171 -0.0086
  174SAPS   O1319759   0.907   4.518   2.486  0.3002 -0.5189 -0.3149
  174SAPS   O1419760   0.680   4.415   2.417  0.6935  0.3380 -0.0560
  174SAPS   O1219761   0.820   4.323   2.606 -0.0916  0.6631 -0.6574
  174SAPS   O1119762   0.708   4.537   2.628  0.3153 -0.1114 -0.1146
  174SAPS    C119763   0.603   4.502   2.721  0.3202 -0.2604  0.4644
  174SAPS    HA19764   0.562   4.597   2.762  1.0870  0.3599 -0.2015
  174SAPS    HB19765   0.522   4.445   2.672 -1.1099 -1.0513  3.4683
  174SAPS    C219766   0.642   4.406   2.836  0.4556  0.0129 -0.4408
  174SAPS    HS19767   0.657   4.306   2.792 -0.1969 -0.2633 -0.0456
  174SAPS   O2119768   0.532   4.418   2.926  0.8412  0.6490  0.0260
  174SAPS   C2119769   0.422   4.340   2.904  0.6607 -0.6619 -0.4419
  174SAPS   O2219770   0.411   4.257   2.815 -0.4402 -0.2000  0.1592
  174SAPS   C2219771   0.328   4.382   3.014 -0.0816  1.1369 -0.0837
  174SAPS   H2R19772   0.379   4.355   3.109 -0.1649  1.1229 -0.0427
  174SAPS   H2S19773   0.308   4.491   3.016 -1.9744  0.8353 -0.3342
  174SAPS    C319774   0.766   4.473   2.902 -0.4744  0.1519 -0.3070
  174SAPS    HX19775   0.747   4.581   2.917  2.3068  0.5587  0.8486
  174SAPS    HY19776   0.839   4.468   2.818 -1.2977 -2.3965 -0.9755
  174SAPS   O3119777   0.805   4.416   3.030  0.7447  0.7365  0.2694
  174SAPS   C3119778   0.895   4.320   3.024 -0.2102 -0.2082 -0.6699
  174SAPS   O3219779   0.941   4.271   2.926  0.2837 -0.0314  0.8037
  174SAPS   C3219780   0.929   4.281   3.171  0.8858 -0.8337 -0.7411
  174SAPS   H2X19781   0.998   4.194   3.162  0.1324 -1.2218 -4.4195
  174SAPS   H2Y19782   0.838   4.234   3.215 -0.0136  0.8630 -0.6936
  174SAPS   C2319783   0.188   4.332   2.972  0.4321  0.3140 -0.4169
  174SAPS   H3R19784   0.187   4.221   2.971 -2.2294  0.1357  3.0085
  174SAPS   H3S19785   0.168   4.364   2.867  0.3348 -1.4326 -0.9687
  174SAPS   C2419786   0.085   4.389   3.067 -0.1177 -0.3689 -0.1626
  174SAPS   H4R19787   0.086   4.500   3.072 -0.7641 -0.4256  2.3170
  174SAPS   H4S19788   0.090   4.368   3.176 -1.8995 -2.1830 -0.3678
  174SAPS   C2519789  -0.051   4.338   3.028 -0.3101  0.1205 -0.0653
  174SAPS   H5R19790  -0.054   4.229   3.025  2.4467 -0.0153 -0.7232
  174SAPS   C2619791  -0.150   4.416   2.992 -0.3259 -0.0654  0.2143
  174SAPS   H6R19792  -0.247   4.375   2.962  0.1996 -1.9061  0.9112
  174SAPS   C2719793  -0.149   4.565   2.976 -0.0165 -0.2751  0.3540
  174SAPS   H7R19794  -0.068   4.596   2.907  1.6688 -2.5198  1.1984
  174SAPS   H7S19795  -0.130   4.620   3.070 -1.2041  1.4635 -0.3644
  174SAPS   C2819796  -0.282   4.619   2.919 -0.2438  0.1516 -0.2218
  174SAPS   H8R19797  -0.294   4.612   2.810 -0.7071  2.1817 -0.3234
  174SAPS   C2919798  -0.386   4.657   2.988 -0.6427  0.0276  0.3629
  174SAPS   H9R19799  -0.481   4.654   2.932 -0.8091 -1.0460  0.6711
  174SAPS  C21019800  -0.403   4.663   3.130  0.1639 -0.3197  0.4496
  174SAPS  H10R19801  -0.312   4.704   3.178 -0.9558 -0.3641  2.7564
  174SAPS  H10S19802  -0.407   4.557   3.165 -0.6225 -0.9229 -1.3493
  174SAPS  C21119803  -0.530   4.736   3.181 -0.2289 -0.4623  0.2005
  174SAPS  H11R19804  -0.593   4.783   3.105  1.5854 -0.8341 -1.6150
  174SAPS  C21219805  -0.578   4.743   3.313  0.5572  0.3879  0.0920
  174SAPS  H12R19806  -0.675   4.792   3.329 -0.1844 -0.7425 -0.6982
  174SAPS  C21319807  -0.500   4.677   3.425 -0.0912  0.0431 -0.0377
  174SAPS  H13R19808  -0.403   4.729   3.430 -0.8673  1.6323 -0.8886
  174SAPS  H13S19809  -0.490   4.570   3.397 -1.6257 -1.1279  3.2657
  174SAPS  C21419810  -0.571   4.678   3.558  0.5643 -0.4923  0.2534
  174SAPS  H14R19811  -0.659   4.613   3.556 -0.9786  1.5263 -0.7773
  174SAPS  C21519812  -0.541   4.737   3.676 -0.1653 -0.4407  0.3756
  174SAPS  H15R19813  -0.599   4.720   3.769  0.5772 -0.7822  0.7802
  174SAPS  C21619814  -0.429   4.835   3.702 -0.3861 -0.3501  0.5231
  174SAPS  H16R19815  -0.397   4.867   3.600  1.0761  1.9488  1.6030
  174SAPS  H16S19816  -0.340   4.774   3.729 -0.7116 -0.4387  1.4275
  174SAPS  C21719817  -0.454   4.957   3.786  0.1809 -1.1017 -0.0784
  174SAPS  H17R19818  -0.486   4.926   3.887 -1.9573 -0.8326 -0.6225
  174SAPS  H17S19819  -0.545   5.009   3.749  0.6274  0.1465  0.4982
  174SAPS  C21819820  -0.343   5.057   3.799  0.3950  0.3472 -0.0443
  174SAPS  H18R19821  -0.326   5.087   3.693 -0.2960  3.9632  0.7447
  174SAPS  H18S19822  -0.250   5.005   3.833  0.4058  1.9309  2.6153
  174SAPS  C21919823  -0.375   5.160   3.901 -0.5515 -0.6240  0.4968
  174SAPS  H19R19824  -0.357   5.124   4.005  1.5896 -2.2683 -0.3812
  174SAPS  H19S19825  -0.481   5.193   3.905 -0.2600  0.5275 -0.6469
  174SAPS  C22019826  -0.291   5.289   3.869  0.7157  0.2183  0.1273
  174SAPS  H20R19827  -0.181   5.279   3.881  0.7830  0.2476 -0.4371
  174SAPS  H20S19828  -0.312   5.363   3.950 -1.4196 -0.6553  0.4339
  174SAPS  H20T19829  -0.318   5.326   3.768  2.4421 -0.1360 -0.4980
  174SAPS   C3319830   0.982   4.398   3.252  0.8106 -0.3324 -0.6669
  174SAPS   H3X19831   0.916   4.486   3.267  4.8562  2.7123  1.5661
  174SAPS   H3Y19832   1.073   4.438   3.202  0.1377  0.5749 -1.2004
  174SAPS   C3419833   1.019   4.352   3.392  0.4236  0.5302 -0.0195
  174SAPS   H4X19834   1.083   4.429   3.438  1.0720  0.2976 -0.5252
  174SAPS   H4Y19835   1.085   4.263   3.383  0.2521  0.4728 -0.7911
  174SAPS   C3519836   0.902   4.314   3.476 -1.4638 -0.0126  0.1130
  174SAPS   H5X19837   0.841   4.228   3.440 -2.6768  0.2801  1.3930
  174SAPS   H5Y19838   0.842   4.407   3.477 -0.0427  1.0352 -2.4131
  174SAPS   C3619839   0.938   4.280   3.619 -1.0169  0.6071  0.7328
  174SAPS   H6X19840   1.020   4.340   3.664  0.4294 -0.0998 -0.8572
  174SAPS   H6Y19841   0.980   4.177   3.622  1.5141  1.4412 -1.6835
  174SAPS   C3719842   0.816   4.260   3.711 -0.1774 -0.5316 -0.3917
  174SAPS   H7X19843   0.738   4.191   3.671  0.7646 -2.0783  0.3308
  174SAPS   H7Y19844   0.769   4.360   3.723 -1.0034 -1.0281  0.8735
  174SAPS   C3819845   0.854   4.218   3.858 -0.0046 -0.7672  0.2215
  174SAPS   H8X19846   0.923   4.298   3.892 -0.7881 -0.6168  1.5282
  174SAPS   H8Y19847   0.913   4.124   3.858  1.5551  0.1630 -0.0790
  174SAPS   C3919848   0.730   4.212   3.946 -0.2414  0.4784 -0.0949
  174SAPS   H9X19849   0.657   4.141   3.902  0.9023 -0.4144 -0.6227
  174SAPS   H9Y19850   0.700   4.318   3.956 -0.5473  0.3418  0.4617
  174SAPS  C31019851   0.764   4.169   4.088 -0.1620  0.0893 -0.3756
  174SAPS  H10X19852   0.682   4.202   4.155 -0.1195  2.1331 -1.2331
  174SAPS  H10Y19853   0.852   4.221   4.133 -0.5361 -2.0015  3.1093
  174SAPS  C31119854   0.778   4.017   4.118 -0.2684  0.0549 -0.9525
  174SAPS  H11X19855   0.818   3.990   4.218  0.9311  2.6077 -0.6663
  174SAPS  H11Y19856   0.857   3.977   4.051  1.3639 -0.1449  1.0024
  174SAPS  C31219857   0.646   3.936   4.112  0.4024 -0.7959  0.4052
  174SAPS  H12X19858   0.600   3.960   4.014 -0.9281 -1.2461  0.8943
  174SAPS  H12Y19859   0.577   3.970   4.192  0.6065  0.0630  0.2258
  174SAPS  C31319860   0.655   3.782   4.134  0.4957 -0.7345  0.3855
  174SAPS  H13X19861   0.713   3.767   4.227 -0.4084 -1.3857  0.8546
  174SAPS  H13Y19862   0.714   3.733   4.053  0.5502  1.2059 -0.8269
  174SAPS  C31419863   0.508   3.731   4.139 -0.7163 -0.7848  0.0638
  174SAPS  H14X19864   0.449   3.749   4.047  0.7756 -2.5535 -1.3345
  174SAPS  H14Y19865   0.467   3.788   4.225  1.3528 -1.3101  1.4866
  174SAPS  C31519866   0.495   3.583   4.165 -0.1240  0.1624 -0.5891
  174SAPS  H15X19867   0.560   3.543   4.085  0.0888  2.2681 -1.5455
  174SAPS  H15Y19868   0.390   3.549   4.158  0.0283 -0.3193 -0.5632
  174SAPS  C31619869   0.533   3.545   4.308 -0.0523  0.2428  0.4117
  174SAPS  H16X19870   0.510   3.628   4.378  0.4044  1.2390 -0.5628
  174SAPS  H16Y19871   0.643   3.528   4.317  0.2585  0.2294 -2.4269
  174SAPS  C31719872   0.469   3.421   4.370 -0.3962 -0.1914  0.4947
  174SAPS  H17X19873   0.459   3.341   4.294  1.8097  1.1587 -1.3812
  174SAPS  H17Y19874   0.364   3.454   4.385 -0.4616 -0.1517 -0.0173
  174SAPS  C31819875   0.527   3.366   4.502  0.2819  0.3211 -0.0888
  174SAPS  H18X19876   0.460   3.283   4.532 -1.1220  1.6749  0.6464
  174SAPS  H18Y19877   0.511   3.446   4.577 -1.2627  1.4754 -1.5887
  174SAPS  H18Z19878   0.636   3.347   4.493  0.1052 -2.2643  1.9128
  175SAPS     N19879   4.608   5.115   2.197 -0.1319 -0.3492  0.1263
  175SAPS   HN119880   4.661   5.189   2.249  1.3252  0.3627 -2.1733
  175SAPS   HN219881   4.670   5.058   2.136  1.4294 -0.6667  1.9103
  175SAPS   HN319882   4.545   5.170   2.134  1.4340  0.9644 -0.3792
  175SAPS   C1219883   4.540   5.027   2.292  0.0710 -0.4208  0.4023
  175SAPS  H12A19884   4.468   4.967   2.238  0.5396  0.2680 -1.0379
  175SAPS   C1319885   4.639   4.934   2.371  0.4975  0.0807 -0.2137
  175SAPS  O13A19886   4.766   4.938   2.343  0.8913 -0.1857 -0.0914
  175SAPS  O13B19887   4.592   4.854   2.456  0.3773  0.0305  0.3303
  175SAPS   C1119888   4.467   5.113   2.392 -0.0290  0.6311  0.2887
  175SAPS  H11A19889   4.536   5.200   2.398 -1.1507  1.6406 -0.8076
  175SAPS  H11B19890   4.466   5.064   2.492 -1.4846 -1.8573 -0.8377
  175SAPS     P19891   4.262   5.277   2.382 -0.0195 -0.1644  0.3009
  175SAPS   O1319892   4.349   5.392   2.349  0.6219 -0.0268  0.3992
  175SAPS   O1419893   4.125   5.261   2.326 -0.2139  0.4139  0.3439
  175SAPS   O1219894   4.341   5.152   2.337 -0.5509  0.0200  0.1294
  175SAPS   O1119895   4.252   5.254   2.534  0.1894  0.0070  0.2047
  175SAPS    C119896   4.157   5.313   2.618 -0.5472  0.2096  0.0350
  175SAPS    HA19897   4.174   5.422   2.635  0.4757  0.1396 -0.4152
  175SAPS    HB19898   4.059   5.297   2.569 -0.0147 -1.6322 -0.4990
  175SAPS    C219899   4.155   5.241   2.763  0.1284  0.3037 -0.4916
  175SAPS    HS19900   4.081   5.302   2.818 -1.2252  0.8162 -2.7673
  175SAPS   O2119901   4.281   5.223   2.826 -0.4062 -0.7339  0.5827
  175SAPS   C2119902   4.321   5.329   2.891  0.0927 -0.3230  0.0424
  175SAPS   O2219903   4.246   5.424   2.922 -0.7044  0.0014 -0.5373
  175SAPS   C2219904   4.467   5.318   2.922  0.1823  0.2008  0.6411
  175SAPS   H2R19905   4.500   5.215   2.898 -1.4194 -0.0847 -0.5370
  175SAPS   H2S19906   4.518   5.378   2.844  0.9887 -1.0893  0.1573
  175SAPS    C319907   4.093   5.103   2.750  0.0542 -0.4938 -0.6903
  175SAPS    HX19908   4.153   5.037   2.685 -0.1834 -0.0325 -1.3908
  175SAPS    HY19909   3.996   5.127   2.702 -0.7997 -1.0453  0.7048
  175SAPS   O3119910   4.078   5.045   2.878  0.0687  0.2648  0.4002
  175SAPS   C3119911   3.963   5.064   2.942 -0.2749  0.3575  0.3577
  175SAPS   O3219912   3.867   5.123   2.907  0.2779  0.4225 -0.0974
  175SAPS   C3219913   3.969   4.979   3.073 -0.3913  0.7098 -0.1821
  175SAPS   H2X19914   4.074   4.957   3.103 -0.7523 -1.6315 -0.4588
  175SAPS   H2Y19915   3.930   4.876   3.058  0.5860  0.0535  1.5433
  175SAPS   C2319916   4.522   5.372   3.059  0.5808 -0.1070 -0.2106
  175SAPS   H3R19917   4.469   5.464   3.090  0.2601  0.5083 -2.4220
  175SAPS   H3S19918   4.629   5.394   3.042  0.4047  2.2699  1.2646
  175SAPS   C2419919   4.510   5.266   3.171 -0.2743 -0.0401 -0.7119
  175SAPS   H4R19920   4.549   5.321   3.259 -1.5825  1.5579 -1.0729
  175SAPS   H4S19921   4.565   5.172   3.149 -2.1908 -1.5362  0.6118
  175SAPS   C2519922   4.361   5.225   3.195 -0.6570  0.4807 -0.1352
  175SAPS   H5R19923   4.306   5.309   3.241  0.4439  0.6137  0.9931
  175SAPS   C2619924   4.306   5.106   3.176 -0.0863 -0.4936  0.2549
  175SAPS   H6R19925   4.199   5.096   3.197 -0.2632 -1.6540 -1.0808
  175SAPS   C2719926   4.369   4.978   3.126 -0.5918 -0.3608  0.6213
  175SAPS   H7R19927   4.466   5.005   3.079 -0.6594 -0.4300  0.4421
  175SAPS   H7S19928   4.307   4.937   3.043 -1.0605  0.7785  0.3802
  175SAPS   C2819929   4.404   4.869   3.226 -0.2768 -0.1594  0.2221
  175SAPS   H8R19930   4.495   4.881   3.286 -0.0308  1.5477 -0.4302
  175SAPS   C2919931   4.328   4.763   3.259 -0.2787 -0.4359  0.1511
  175SAPS   H9R19932   4.369   4.697   3.337  0.9985  1.5203  1.2219
  175SAPS  C21019933   4.196   4.719   3.205  0.3885  0.0203 -0.2323
  175SAPS  H10R19934   4.179   4.775   3.110  0.2449 -0.0658 -0.2590
  175SAPS  H10S19935   4.121   4.755   3.278 -0.3342  0.3630 -1.1175
  175SAPS  C21119936   4.202   4.571   3.181  0.1210  0.6589  0.1084
  175SAPS  H11R19937   4.242   4.561   3.079  0.7674  0.0705  0.4078
  175SAPS  C21219938   4.187   4.461   3.265 -0.4019  0.0165  0.3724
  175SAPS  H12R19939   4.213   4.362   3.224  0.8825  0.8114 -0.8356
  175SAPS  C21319940   4.139   4.468   3.407  0.3968 -0.0511 -0.3270
  175SAPS  H13R19941   4.082   4.562   3.423 -0.4915 -0.9265  2.0635
  175SAPS  H13S19942   4.221   4.477   3.480  0.4101  1.3460 -0.4838
  175SAPS  C21419943   4.049   4.345   3.454  0.7108 -0.4118 -0.0638
  175SAPS  H14R19944   3.950   4.339   3.406  1.5418 -1.1521 -1.7899
  175SAPS  C21519945   4.064   4.263   3.555  0.2140  0.6003 -0.7537
  175SAPS  H15R19946   3.985   4.187   3.569 -1.1016  2.3143  1.7843
  175SAPS  C21619947   4.165   4.272   3.674 -1.0485  0.3409 -0.5099
  175SAPS  H16R19948   4.105   4.285   3.766  1.1499  0.0528  1.0301
  175SAPS  H16S19949   4.226   4.365   3.675 -0.6961  0.1153  0.7800
  175SAPS  C21719950   4.268   4.152   3.682  0.0188 -0.3979 -0.2995
  175SAPS  H17R19951   4.213   4.057   3.698 -0.0179 -0.2889  0.2568
  175SAPS  H17S19952   4.340   4.165   3.766 -1.9396 -1.3412  1.6378
  175SAPS  C21819953   4.351   4.142   3.560  0.7598 -0.6911 -0.0890
  175SAPS  H18R19954   4.429   4.220   3.570 -1.0262  0.9466  2.3488
  175SAPS  H18S19955   4.293   4.147   3.465  0.4345 -0.9341  0.0974
  175SAPS  C21919956   4.424   4.007   3.563 -0.1334  0.2308 -0.4523
  175SAPS  H19R19957   4.360   3.935   3.619 -1.4074  1.4284 -0.3270
  175SAPS  H19S19958   4.518   4.019   3.621  0.4194 -0.4183 -1.1741
  175SAPS  C22019959   4.457   3.954   3.430 -0.6431 -0.7243 -0.4548
  175SAPS  H20R19960   4.495   4.033   3.361 -3.9047 -0.2092 -1.8350
  175SAPS  H20S19961   4.365   3.908   3.389 -0.5907 -0.1290 -1.2514
  175SAPS  H20T19962   4.527   3.867   3.435  0.2890 -0.0304 -1.0222
  175SAPS   C3319963   3.903   5.045   3.201  0.3533 -0.0706 -0.5264
  175SAPS   H3X19964   3.796   5.067   3.179  0.1388  0.4119  0.8414
  175SAPS   H3Y19965   3.957   5.135   3.239  1.9460 -2.2284  2.7827
  175SAPS   C3419966   3.889   4.944   3.323  0.4831  0.3729 -0.1816
  175SAPS   H4X19967   3.988   4.895   3.323  0.0225 -0.5901 -0.2562
  175SAPS   H4Y19968   3.808   4.875   3.289 -0.3014  1.9956 -1.7564
  175SAPS   C3519969   3.854   5.019   3.450 -0.0614  0.1666 -0.5611
  175SAPS   H5X19970   3.750   5.057   3.454  0.0700  0.4663  0.6726
  175SAPS   H5Y19971   3.927   5.102   3.461  2.2644 -1.8299 -0.0369
  175SAPS   C3619972   3.888   4.921   3.569 -0.2107 -0.2206  0.0910
  175SAPS   H6X19973   3.993   4.891   3.553  0.0425  0.9313 -0.4968
  175SAPS   H6Y19974   3.819   4.833   3.564 -1.5184  0.7909 -0.1206
  175SAPS   C3719975   3.881   4.990   3.708 -0.0826  0.3175  0.0688
  175SAPS   H7X19976   3.779   4.977   3.751  0.3248 -0.2982  0.8676
  175SAPS   H7Y19977   3.900   5.095   3.678 -0.0388  0.9260  2.0749
  175SAPS   C3819978   3.974   4.932   3.818  0.1354  0.9578 -0.5714
  175SAPS   H8X19979   4.072   4.892   3.788 -0.6576 -2.4135  0.9066
  175SAPS   H8Y19980   3.915   4.853   3.870  0.2863  0.5534 -1.0124
  175SAPS   C3919981   3.991   5.046   3.918  0.1035  0.2880  0.2993
  175SAPS   H9X19982   3.893   5.088   3.950 -0.7044 -0.9464 -0.4923
  175SAPS   H9Y19983   4.046   5.136   3.881  0.6482  0.7498  2.1310
  175SAPS  C31019984   4.077   4.998   4.039  0.1086  0.0391  0.4701
  175SAPS  H10X19985   4.060   4.889   4.055  3.7112 -0.6399  0.3464
  175SAPS  H10Y19986   4.048   5.052   4.131  2.1476 -0.3621  1.3985
  175SAPS  C31119987   4.229   5.015   4.025  0.2445 -0.3527 -0.8771
  175SAPS  H11X19988   4.249   5.123   4.042 -1.3423 -0.1681 -0.0356
  175SAPS  H11Y19989   4.257   4.989   3.921 -1.8854  3.5724 -2.6569
  175SAPS  C31219990   4.312   4.928   4.120  0.6662  0.1692 -0.0586
  175SAPS  H12X19991   4.296   4.819   4.108 -1.3948  0.6823 -3.0469
  175SAPS  H12Y19992   4.280   4.949   4.224  1.7002 -0.3372  0.3726
  175SAPS  C31319993   4.463   4.966   4.109 -0.3601  0.7499  0.2295
  175SAPS  H13X19994   4.468   5.076   4.124  0.3267  0.6215  1.0462
  175SAPS  H13Y19995   4.502   4.944   4.007 -1.9106  0.4925 -0.3263
  175SAPS  C31419996   4.564   4.892   4.201 -0.0339 -0.3693  0.1612
  175SAPS  H14X19997   4.548   4.783   4.189  0.3515 -0.5704  1.3716
  175SAPS  H14Y19998   4.556   4.929   4.305 -0.3474 -2.3087  0.8761
  175SAPS  C31519999   4.716   4.918   4.171 -0.1281 -0.1518 -0.1805
  175SAPS  H15X20000   4.764   4.992   4.238 -0.4954  1.4781 -1.6420
  175SAPS  H15Y20001   4.728   4.958   4.068  0.6440  0.9360  0.3210
  175SAPS  C31620002   4.802   4.793   4.165 -0.1755  0.2222 -0.1532
  175SAPS  H16X20003   4.890   4.821   4.104 -1.4680  0.1352 -2.1908
  175SAPS  H16Y20004   4.753   4.717   4.100 -0.4952  0.0647  0.2694
  175SAPS  C31720005   4.826   4.722   4.300 -0.3113 -0.6300 -0.1623
  175SAPS  H17X20006   4.732   4.702   4.354  1.0258 -1.3728  2.0257
  175SAPS  H17Y20007   4.878   4.797   4.363  1.2077 -0.8055 -1.1414
  175SAPS  C31820008   4.898   4.578   4.286  0.4473  0.2530 -0.0981
  175SAPS  H18X20009   4.927   4.533   4.383 -0.3706 -1.2613 -0.5177
  175SAPS  H18Y20010   4.979   4.604   4.214 -0.2273  0.8940 -0.6420
  175SAPS  H18Z20011   4.843   4.496   4.234  0.4232 -0.8726  1.6357
  176SAPS     N20012   4.779   2.270   2.191 -0.1322 -0.1725  0.3520
  176SAPS   HN120013   4.826   2.197   2.133 -1.2142 -1.0165  0.5152
  176SAPS   HN220014   4.823   2.276   2.285  1.6740 -0.9921 -0.3785
  176SAPS   HN320015   4.681   2.238   2.190 -0.8800  1.9787 -0.0001
  176SAPS   C1220016   4.772   2.401   2.117  0.6887 -0.2164  0.3098
  176SAPS  H12A20017   4.872   2.426   2.083  0.1196 -0.6604 -1.8502
  176SAPS   C1320018   4.681   2.396   1.992  0.9224  0.4480 -0.2957
  176SAPS  O13A20019   4.623   2.283   1.971  0.2962 -1.2052 -0.3640
  176SAPS  O13B20020   4.668   2.492   1.915  0.0038 -0.1921 -0.2080
  176SAPS   C1120021   4.729   2.510   2.213 -0.2505 -0.8289  0.7006
  176SAPS  H11A20022   4.622   2.500   2.241 -0.8223  2.9148  0.4009
  176SAPS  H11B20023   4.731   2.601   2.149 -0.2304 -1.2948  0.0242
  176SAPS     P20024   4.793   2.644   2.429 -0.2611 -0.3996 -0.2122
  176SAPS   O1320025   4.927   2.706   2.459 -0.5017 -0.3107 -0.0756
  176SAPS   O1420026   4.688   2.733   2.376  0.6874 -0.0870 -0.3163
  176SAPS   O1220027   4.817   2.526   2.326  0.2555 -0.2109  0.0170
  176SAPS   O1120028   4.744   2.558   2.547 -0.0253 -0.9326 -0.3974
  176SAPS    C120029   4.770   2.605   2.682  0.1133 -0.0003 -0.6727
  176SAPS    HA20030   4.744   2.522   2.751  2.5247 -0.2526  0.0380
  176SAPS    HB20031   4.873   2.630   2.715 -0.3040  2.4214 -1.0440
  176SAPS    C220032   4.681   2.728   2.721  0.8287  0.5147 -0.0093
  176SAPS    HS20033   4.588   2.718   2.660  1.1224  0.1282 -0.3987
  176SAPS   O2120034   4.748   2.847   2.694 -0.0986  0.2458  0.2700
  176SAPS   C2120035   4.673   2.947   2.642 -0.4499  0.3091 -0.6245
  176SAPS   O2220036   4.557   2.967   2.657  0.7434 -0.1557  0.4775
  176SAPS   C2220037   4.764   3.055   2.574 -0.0716 -0.2901  0.0687
  176SAPS   H2R20038   4.865   3.011   2.585  0.2188  0.6649  1.5862
  176SAPS   H2S20039   4.737   3.060   2.467  0.6799 -0.3301 -0.1266
  176SAPS    C320040   4.653   2.729   2.876 -0.8562  0.5081 -0.4095
  176SAPS    HX20041   4.603   2.825   2.902  1.2172  2.1043 -1.9610
  176SAPS    HY20042   4.753   2.720   2.923 -0.2121  1.0396 -1.6434
  176SAPS   O3120043   4.567   2.621   2.920 -0.3363  0.0758  0.5101
  176SAPS   C3120044   4.437   2.642   2.900 -1.1480 -0.6086 -0.4807
  176SAPS   O3220045   4.396   2.738   2.839  0.1377 -0.5159 -0.4803
  176SAPS   C3220046   4.350   2.543   2.972 -0.0908  0.0307  0.4094
  176SAPS   H2X20047   4.349   2.442   2.926 -1.9626 -0.4358  1.3854
  176SAPS   H2Y20048   4.250   2.586   2.953  0.8144  2.0483 -0.1371
  176SAPS   C2320049   4.743   3.188   2.647 -0.3377 -1.1368  0.1297
  176SAPS   H3R20050   4.645   3.203   2.698 -0.1843  0.9790 -0.0837
  176SAPS   H3S20051   4.758   3.268   2.571  0.2782 -1.8598 -0.5181
  176SAPS   C2420052   4.850   3.203   2.749  0.0085  0.1320  0.1906
  176SAPS   H4R20053   4.956   3.201   2.716  0.3764 -0.2445  1.3620
  176SAPS   H4S20054   4.842   3.122   2.825  0.0783 -0.6953 -0.6624
  176SAPS   C2520055   4.835   3.340   2.809 -0.4788  0.4835  0.0256
  176SAPS   H5R20056   4.882   3.420   2.750 -0.1785 -0.1872 -0.6604
  176SAPS   C2620057   4.746   3.380   2.900 -0.4038  0.1826 -0.5174
  176SAPS   H6R20058   4.750   3.486   2.927 -1.7614  0.3695 -0.9654
  176SAPS   C2720059   4.650   3.295   2.987 -0.2722 -0.0995 -0.4631
  176SAPS   H7R20060   4.561   3.277   2.923 -0.0841  1.0542 -1.0807
  176SAPS   H7S20061   4.615   3.374   3.058  0.1765  0.1340 -0.4966
  176SAPS   C2820062   4.690   3.172   3.054  0.4315  0.6851 -0.7829
  176SAPS   H8R20063   4.756   3.107   2.995 -1.0711 -0.0583 -1.7180
  176SAPS   C2920064   4.642   3.118   3.171  0.4444  0.1275 -0.4189
  176SAPS   H9R20065   4.685   3.024   3.207  2.9985  1.4954  0.3343
  176SAPS  C21020066   4.539   3.180   3.262  0.7788  1.0892  0.2481
  176SAPS  H10R20067   4.468   3.243   3.204 -2.2417 -0.5561  1.9128
  176SAPS  H10S20068   4.582   3.240   3.345  0.8031 -1.2509  2.0278
  176SAPS  C21120069   4.440   3.082   3.318 -0.0962  0.5190  0.0134
  176SAPS  H11R20070   4.371   3.038   3.244  0.3351 -2.0468  1.0377
  176SAPS  C21220071   4.429   3.049   3.452  0.0717  0.3621  0.0000
  176SAPS  H12R20072   4.354   2.977   3.487  0.4034 -0.7901 -1.5495
  176SAPS  C21320073   4.502   3.110   3.574  0.1431 -0.3288  0.9633
  176SAPS  H13R20074   4.610   3.117   3.548  0.8420  5.0581  3.7512
  176SAPS  H13S20075   4.483   3.029   3.647 -3.0304 -1.2418 -0.7009
  176SAPS  C21420076   4.452   3.249   3.609  0.0060 -0.2143  0.2538
  176SAPS  H14R20077   4.449   3.330   3.535 -0.7937  0.1427  0.6641
  176SAPS  C21520078   4.413   3.288   3.728 -0.0937  0.2478  0.6207
  176SAPS  H15R20079   4.367   3.387   3.732  0.4023  0.6803 -2.3330
  176SAPS  C21620080   4.403   3.208   3.855 -0.5468 -0.3150 -0.1711
  176SAPS  H16R20081   4.430   3.101   3.843 -2.8363 -1.2052  1.8510
  176SAPS  H16S20082   4.295   3.212   3.880 -0.7535 -0.2993 -1.0342
  176SAPS  C21720083   4.495   3.274   3.960  0.1204 -0.4169 -0.3199
  176SAPS  H17R20084   4.490   3.385   3.958 -1.3401 -0.4748 -1.5068
  176SAPS  H17S20085   4.601   3.258   3.933  1.2659 -0.4036  3.5177
  176SAPS  C21820086   4.469   3.220   4.101  0.4681  0.8322  0.8340
  176SAPS  H18R20087   4.498   3.112   4.098  4.4232  1.7347  0.8558
  176SAPS  H18S20088   4.359   3.228   4.117  0.4862  2.8880  0.1861
  176SAPS  C21920089   4.549   3.289   4.214  0.1865  0.7394 -1.0475
  176SAPS  H19R20090   4.658   3.271   4.218 -0.0058 -0.5344 -1.3527
  176SAPS  H19S20091   4.510   3.248   4.310 -0.3576 -0.5783 -1.8131
  176SAPS  C22020092   4.502   3.436   4.222 -0.8902 -0.2488 -1.0401
  176SAPS  H20R20093   4.520   3.486   4.319 -0.6191 -0.1355 -1.1455
  176SAPS  H20S20094   4.394   3.450   4.199 -0.9067  2.8056  0.3730
  176SAPS  H20T20095   4.566   3.491   4.149 -1.0277  1.9055  0.3752
  176SAPS   C3320096   4.374   2.519   3.126 -0.3120 -0.5298  1.4226
  176SAPS   H3X20097   4.474   2.474   3.142 -0.7059 -0.9877  2.8233
  176SAPS   H3Y20098   4.297   2.441   3.148 -1.3298 -0.1259 -0.4823
  176SAPS   C3420099   4.367   2.642   3.214  0.1833  0.2088  0.2266
  176SAPS   H4X20100   4.277   2.705   3.202 -0.4956 -0.9786 -1.2035
  176SAPS   H4Y20101   4.458   2.698   3.183  0.0934 -0.2548 -0.9134
  176SAPS   C3520102   4.383   2.589   3.356 -0.0240  0.6485 -0.7820
  176SAPS   H5X20103   4.477   2.532   3.372 -1.2959 -1.1516  0.6926
  176SAPS   H5Y20104   4.300   2.518   3.379  0.9726 -0.0399  0.8950
  176SAPS   C3620105   4.374   2.692   3.465 -0.2006  0.3910 -0.5561
  176SAPS   H6X20106   4.271   2.732   3.459 -0.4213  0.1153  1.0605
  176SAPS   H6Y20107   4.437   2.782   3.447 -0.1090  0.2737 -0.8314
  176SAPS   C3720108   4.407   2.651   3.606  0.2216 -0.1852  0.2056
  176SAPS   H7X20109   4.373   2.545   3.617 -0.0212 -0.2834 -1.2842
  176SAPS   H7Y20110   4.332   2.708   3.664 -1.4516  0.1418 -2.1235
  176SAPS   C3820111   4.555   2.662   3.648 -0.0795  0.2767  0.1650
  176SAPS   H8X20112   4.586   2.768   3.645  0.5445  0.1939  2.1097
  176SAPS   H8Y20113   4.608   2.587   3.586 -3.6004 -1.6225 -0.8229
  176SAPS   C3920114   4.584   2.629   3.797 -0.2903 -0.8306  0.0319
  176SAPS   H9X20115   4.689   2.652   3.825 -1.3745  2.6156  1.9087
  176SAPS   H9Y20116   4.551   2.527   3.824  1.0892 -1.0708  0.8889
  176SAPS  C31020117   4.495   2.723   3.889 -0.3516  0.2550 -1.1036
  176SAPS  H10X20118   4.392   2.683   3.877  0.1763 -0.5300 -3.6184
  176SAPS  H10Y20119   4.493   2.825   3.847  0.6214  0.7152 -0.0672
  176SAPS  C31120120   4.545   2.705   4.037 -0.2200 -0.6806  0.3930
  176SAPS  H11X20121   4.641   2.762   4.046 -0.0625 -0.4994 -1.7592
  176SAPS  H11Y20122   4.563   2.597   4.054  1.6445 -0.3474  0.8613
  176SAPS  C31220123   4.441   2.762   4.127  0.6821 -0.4326  0.7572
  176SAPS  H12X20124   4.341   2.722   4.103  1.3082 -0.7207 -1.6105
  176SAPS  H12Y20125   4.425   2.871   4.109  0.8604 -0.4975  0.1869
  176SAPS  C31320126   4.469   2.724   4.270  0.8905  0.2253  0.2364
  176SAPS  H13X20127   4.564   2.773   4.299  0.4304  2.2133 -1.4448
  176SAPS  H13Y20128   4.489   2.615   4.276 -2.2724 -0.4257  0.6427
  176SAPS  C31420129   4.355   2.768   4.372 -0.2700 -0.1000 -0.4101
  176SAPS  H14X20130   4.255   2.728   4.345  0.0778 -1.9118  0.7392
  176SAPS  H14Y20131   4.360   2.878   4.361  0.7779 -0.2630 -1.6930
  176SAPS  C31520132   4.377   2.736   4.523 -0.0064 -0.2813  0.6384
  176SAPS  H15X20133   4.407   2.629   4.532  0.6116 -0.3803 -1.7087
  176SAPS  H15Y20134   4.279   2.740   4.574 -0.7623  0.3505 -0.7848
  176SAPS  C31620135   4.481   2.833   4.586 -1.0375 -0.0867 -0.1731
  176SAPS  H16X20136   4.446   2.936   4.560  2.4953  1.2683 -0.0315
  176SAPS  H16Y20137   4.578   2.818   4.536 -1.8094 -3.6038 -0.8461
  176SAPS  C31720138   4.493   2.813   4.739 -0.5434 -0.8646  1.3648
  176SAPS  H17X20139   4.406   2.859   4.790 -0.8936  1.1103 -0.8338
  176SAPS  H17Y20140   4.579   2.875   4.772  0.4583 -0.2335 -1.9582
  176SAPS  C31820141   4.517   2.668   4.776  0.4165 -0.0669 -0.2492
  176SAPS  H18X20142   4.532   2.652   4.885  0.0730  0.5106 -0.1142
  176SAPS  H18Y20143   4.601   2.619   4.722 -0.6716 -2.6085  0.2142
  176SAPS  H18Z20144   4.433   2.598   4.759 -0.8159  1.0029  1.2155
  177SAPS     N20145   6.593   5.155   1.989  0.0283 -0.0320  0.7809
  177SAPS   HN120146   6.505   5.155   2.045 -0.6550  3.0557 -0.1067
  177SAPS   HN220147   6.627   5.253   1.987  0.7341 -0.1666  2.9929
  177SAPS   HN320148   6.564   5.128   1.893 -0.5922  2.1117  0.3232
  177SAPS   C1220149   6.692   5.063   2.050 -0.4259  0.1487 -0.2918
  177SAPS  H12A20150   6.660   5.051   2.152 -2.3760  1.6887 -0.6444
  177SAPS   C1320151   6.703   4.924   1.978 -0.6219 -0.3616 -0.3636
  177SAPS  O13A20152   6.607   4.882   1.912  0.0143 -0.4480 -0.0125
  177SAPS  O13B20153   6.787   4.839   2.020 -0.1972 -0.5238  0.1760
  177SAPS   C1120154   6.823   5.152   2.052  0.1020  0.4106 -0.1299
  177SAPS  H11A20155   6.827   5.190   1.948 -1.4332 -0.4483 -0.5368
  177SAPS  H11B20156   6.907   5.086   2.086  0.1512  0.6722  0.2562
  177SAPS     P20157   6.905   5.388   2.134 -0.1014  0.2738  0.0023
  177SAPS   O1320158   7.043   5.342   2.106  0.0056 -0.3920  0.4990
  177SAPS   O1420159   6.832   5.472   2.037 -0.3557  0.2610 -0.2784
  177SAPS   O1220160   6.813   5.261   2.151  0.1716  0.2600 -0.0082
  177SAPS   O1120161   6.892   5.457   2.273 -0.0760 -0.6192 -0.0567
  177SAPS    C120162   6.814   5.418   2.384 -0.4541  0.3691 -0.0354
  177SAPS    HA20163   6.712   5.462   2.385  0.1685  2.1035 -2.5302
  177SAPS    HB20164   6.798   5.308   2.392  0.3299  0.3077  0.9040
  177SAPS    C220165   6.883   5.437   2.522 -0.3751 -0.5075 -0.2896
  177SAPS    HS20166   6.832   5.370   2.595  0.3531 -1.1126 -0.3252
  177SAPS   O2120167   6.873   5.575   2.558 -0.3649 -0.4092 -0.1956
  177SAPS   C2120168   6.753   5.621   2.604 -0.2198 -0.1503 -0.8287
  177SAPS   O2220169   6.653   5.555   2.631 -0.2642 -0.4162  0.2078
  177SAPS   C2220170   6.766   5.777   2.633 -0.1048 -0.3216 -0.3535
  177SAPS   H2R20171   6.831   5.815   2.552  1.0955  0.3815  0.9042
  177SAPS   H2S20172   6.663   5.818   2.640  0.7256  1.6925  1.2182
  177SAPS    C320173   7.041   5.395   2.524 -0.0954  0.5646  0.3592
  177SAPS    HX20174   7.093   5.431   2.432 -1.1412 -0.4505 -0.6688
  177SAPS    HY20175   7.038   5.284   2.516  1.0817  0.6067 -1.0501
  177SAPS   O3120176   7.113   5.437   2.639 -0.1184 -0.6528 -0.2750
  177SAPS   C3120177   7.146   5.568   2.651  0.2165 -0.2733  0.1933
  177SAPS   O3220178   7.138   5.653   2.563 -0.1781 -0.5975 -0.2781
  177SAPS   C3220179   7.183   5.598   2.800  0.0336  0.3962 -0.4280
  177SAPS   H2X20180   7.263   5.522   2.814  0.2214  0.8147  0.8706
  177SAPS   H2Y20181   7.100   5.567   2.867  0.8595 -0.6885  0.1327
  177SAPS   C2320182   6.842   5.818   2.760  0.6029  0.4115  0.7359
  177SAPS   H3R20183   6.845   5.928   2.773  0.5978  0.5551 -0.3861
  177SAPS   H3S20184   6.945   5.777   2.751  1.0721  1.7864 -0.6711
  177SAPS   C2420185   6.761   5.736   2.867  0.8330 -0.9085 -0.4440
  177SAPS   H4R20186   6.768   5.625   2.863 -0.4608 -1.1192  1.4668
  177SAPS   H4S20187   6.654   5.755   2.845 -0.0068 -3.8916  0.5113
  177SAPS   C2520188   6.790   5.793   3.008 -0.3770  0.6788 -0.3224
  177SAPS   H5R20189   6.765   5.900   3.012  0.1077  0.8144 -0.8872
  177SAPS   C2620190   6.833   5.717   3.115  0.3261 -0.1911  0.0599
  177SAPS   H6R20191   6.865   5.770   3.206 -1.4883  1.2710 -0.1083
  177SAPS   C2720192   6.844   5.571   3.109  0.4594 -0.5957  0.1267
  177SAPS   H7R20193   6.914   5.543   3.027 -0.4360  0.8889 -1.1995
  177SAPS   H7S20194   6.737   5.548   3.086  0.9107 -1.4525 -1.2896
  177SAPS   C2820195   6.894   5.514   3.236  0.8976  0.0898  1.1540
  177SAPS   H8R20196   7.001   5.538   3.246  1.0451  1.2357 -1.9211
  177SAPS   C2920197   6.836   5.440   3.337  0.3828  0.3858  0.5059
  177SAPS   H9R20198   6.901   5.394   3.413  1.9929  0.7803 -0.5922
  177SAPS  C21020199   6.690   5.408   3.340  0.0847 -0.1936 -0.5618
  177SAPS  H10R20200   6.679   5.328   3.263 -1.1135 -0.9179  0.3323
  177SAPS  H10S20201   6.639   5.503   3.315 -0.2746 -0.5834 -1.3671
  177SAPS  C21120202   6.622   5.355   3.469 -0.2582 -0.2596  0.3404
  177SAPS  H11R20203   6.678   5.270   3.511  0.1550  0.5120  1.3968
  177SAPS  C21220204   6.494   5.372   3.509 -0.3249 -0.1426  0.1952
  177SAPS  H12R20205   6.470   5.342   3.612  0.8783  1.1535  0.8892
  177SAPS  C21320206   6.395   5.465   3.445  0.7416  0.6661 -0.3647
  177SAPS  H13R20207   6.371   5.416   3.348 -1.4237  0.9531 -0.0385
  177SAPS  H13S20208   6.434   5.567   3.420 -0.0274  0.8646 -0.7999
  177SAPS  C21420209   6.269   5.485   3.530  0.8349  0.1460 -0.0291
  177SAPS  H14R20210   6.280   5.486   3.640  0.1367 -0.3440  0.0507
  177SAPS  C21520211   6.145   5.501   3.475  0.1766 -0.0088  0.0953
  177SAPS  H15R20212   6.058   5.526   3.538 -0.3987  0.3037 -0.7924
  177SAPS  C21620213   6.126   5.509   3.328  0.1891  0.2974  0.5851
  177SAPS  H16R20214   6.152   5.419   3.268  0.0973  1.1696 -0.8132
  177SAPS  H16S20215   6.198   5.582   3.285 -1.1634  0.4662 -1.5610
  177SAPS  C21720216   5.979   5.544   3.289 -0.1698 -0.5033 -0.9026
  177SAPS  H17R20217   5.961   5.648   3.322 -0.2959 -0.3567 -1.4331
  177SAPS  H17S20218   5.909   5.485   3.352  1.4454 -0.4032  1.0984
  177SAPS  C21820219   5.949   5.520   3.144  0.3141  0.0842 -0.0798
  177SAPS  H18R20220   5.983   5.421   3.107  0.7853  0.0102  0.5377
  177SAPS  H18S20221   6.005   5.589   3.077 -0.7195 -0.4561 -1.5777
  177SAPS  C21920222   5.798   5.537   3.111  0.8186  0.6416  0.1622
  177SAPS  H19R20223   5.788   5.524   3.001  0.5321  0.3322  0.2257
  177SAPS  H19S20224   5.766   5.641   3.136  2.2066  1.3589 -0.8916
  177SAPS  C22020225   5.697   5.437   3.180 -0.6256 -0.6169 -0.6527
  177SAPS  H20R20226   5.587   5.453   3.168 -0.9151 -1.0249  1.2077
  177SAPS  H20S20227   5.709   5.447   3.290 -1.4355 -1.9092 -0.4254
  177SAPS  H20T20228   5.719   5.329   3.165 -2.0010 -0.9589 -0.3630
  177SAPS   C3320229   7.232   5.741   2.833 -0.2960  0.4266  0.1143
  177SAPS   H3X20230   7.148   5.813   2.845  1.4573  2.8010 -1.0405
  177SAPS   H3Y20231   7.289   5.781   2.746 -0.1750  0.7497  0.3421
  177SAPS   C3420232   7.313   5.755   2.958 -0.5998  0.0310  0.3480
  177SAPS   H4X20233   7.350   5.856   2.983  0.0658 -0.0331 -0.3381
  177SAPS   H4Y20234   7.403   5.693   2.941  0.4741  2.0404 -1.8760
  177SAPS   C3520235   7.256   5.699   3.092  0.1138  0.7608 -0.1389
  177SAPS   H5X20236   7.201   5.604   3.078  0.2546  0.9707 -2.5827
  177SAPS   H5Y20237   7.183   5.774   3.128 -0.5132  0.0166  0.1651
  177SAPS   C3620238   7.359   5.689   3.200  0.3461 -0.5382 -0.6872
  177SAPS   H6X20239   7.401   5.787   3.227 -1.6169  0.5047 -1.1947
  177SAPS   H6Y20240   7.440   5.616   3.178  2.1281  0.8564  0.9395
  177SAPS   C3720241   7.302   5.623   3.333  0.1898  0.0233  0.0628
  177SAPS   H7X20242   7.243   5.533   3.306 -0.6011  0.0345  1.6255
  177SAPS   H7Y20243   7.236   5.706   3.367 -0.2571 -0.6364  0.8273
  177SAPS   C3820244   7.407   5.591   3.438 -0.4805 -0.6099  1.1592
  177SAPS   H8X20245   7.457   5.686   3.465  0.0367 -0.0773 -1.4543
  177SAPS   H8Y20246   7.486   5.532   3.386 -0.9303 -1.0704  0.9852
  177SAPS   C3920247   7.362   5.501   3.556 -0.4953  0.6649 -1.1319
  177SAPS   H9X20248   7.442   5.475   3.629  0.2079 -1.1450 -2.4705
  177SAPS   H9Y20249   7.321   5.406   3.517 -2.6130  1.4339 -0.9152
  177SAPS  C31020250   7.244   5.559   3.640 -1.0429  0.7802 -0.0983
  177SAPS  H10X20251   7.171   5.593   3.564  0.9433  2.1054 -1.5237
  177SAPS  H10Y20252   7.286   5.643   3.700 -0.4259  0.4639 -0.0782
  177SAPS  C31120253   7.178   5.456   3.734  0.5742 -0.0267 -0.6591
  177SAPS  H11X20254   7.145   5.375   3.666  0.5068 -0.2199 -0.3979
  177SAPS  H11Y20255   7.090   5.502   3.784  0.0718  0.2022 -1.7423
  177SAPS  C31220256   7.283   5.406   3.845  0.0684 -0.1513  0.8065
  177SAPS  H12X20257   7.319   5.494   3.903 -0.5654  0.4897  0.2374
  177SAPS  H12Y20258   7.361   5.352   3.787 -0.6852  3.2021 -3.8896
  177SAPS  C31320259   7.212   5.302   3.932  0.3489 -0.1479  0.0170
  177SAPS  H13X20260   7.177   5.225   3.860 -2.0610  1.1495 -0.3083
  177SAPS  H13Y20261   7.126   5.358   3.975 -0.3309 -1.2295  0.1001
  177SAPS  C31420262   7.306   5.245   4.040 -0.0188  0.9046  0.3599
  177SAPS  H14X20263   7.354   5.328   4.096  1.9595 -0.4306  0.7506
  177SAPS  H14Y20264   7.393   5.189   4.000 -0.5130 -0.1078  0.6792
  177SAPS  C31520265   7.240   5.148   4.144 -0.9589  0.3146 -0.3843
  177SAPS  H15X20266   7.170   5.088   4.083  0.9520 -0.3594 -2.0005
  177SAPS  H15Y20267   7.195   5.214   4.222 -1.8061  0.9635 -1.3777
  177SAPS  C31620268   7.341   5.048   4.205 -0.1358 -0.3850  0.1139
  177SAPS  H16X20269   7.427   5.108   4.241 -0.7782  1.0600 -0.7023
  177SAPS  H16Y20270   7.378   4.977   4.128  0.0893 -1.3920  1.1208
  177SAPS  C31720271   7.291   4.975   4.327  0.2567  0.5518 -0.0219
  177SAPS  H17X20272   7.186   4.948   4.304  0.9867 -2.5809 -0.1346
  177SAPS  H17Y20273   7.282   5.055   4.404 -1.2105  1.0890 -0.7229
  177SAPS  C31820274   7.372   4.866   4.387 -0.5855 -0.7823  0.3354
  177SAPS  H18X20275   7.474   4.905   4.405 -1.0371  1.1394 -0.9260
  177SAPS  H18Y20276   7.387   4.777   4.322  3.2641 -0.6513  0.8385
  177SAPS  H18Z20277   7.328   4.831   4.483 -0.8544 -2.6736 -0.4182
  178SAPS     N20278   4.889   6.133   2.621 -0.3532 -0.0182 -0.6150
  178SAPS   HN120279   4.871   6.036   2.653 -2.7726  0.0236 -1.6778
  178SAPS   HN220280   4.923   6.181   2.707 -0.0767  0.8958 -1.2168
  178SAPS   HN320281   4.803   6.174   2.580 -1.1778  1.2541  2.1195
  178SAPS   C1220282   4.992   6.136   2.514 -0.1088  0.3112  0.4900
  178SAPS  H12A20283   4.942   6.111   2.421  1.6795  0.6582 -0.6133
  178SAPS   C1320284   5.083   6.260   2.498  0.2782 -0.3282 -0.4306
  178SAPS  O13A20285   5.061   6.369   2.565 -0.7067 -0.0074 -0.0380
  178SAPS  O13B20286   5.165   6.263   2.406 -0.1642 -0.1267  0.2381
  178SAPS   C1120287   5.080   6.014   2.536  0.0367  0.2464  0.0178
  178SAPS  H11A20288   5.123   6.014   2.639 -1.5652 -0.3769  0.7127
  178SAPS  H11B20289   5.167   6.015   2.467 -0.9393 -2.0606 -1.3293
  178SAPS     P20290   5.068   5.751   2.540 -0.2401 -0.2099  0.1928
  178SAPS   O1320291   4.956   5.650   2.545 -0.5685 -0.0704  0.3932
  178SAPS   O1420292   5.177   5.727   2.448  0.7829  0.4546 -0.1195
  178SAPS   O1220293   4.999   5.894   2.517 -0.1647  1.6327 -0.0111
  178SAPS   O1120294   5.130   5.778   2.684  0.4035 -0.0028  0.1650
  178SAPS    C120295   5.052   5.804   2.800  0.1546  0.0691 -0.0605
  178SAPS    HA20296   5.107   5.874   2.865 -1.4637  2.3931 -1.0652
  178SAPS    HB20297   4.967   5.867   2.767  0.2423  0.2841  0.1218
  178SAPS    C220298   5.012   5.682   2.886  0.2495  0.4631  0.2047
  178SAPS    HS20299   4.957   5.613   2.817  0.7070  1.6106 -1.3621
  178SAPS   O2120300   4.933   5.731   2.997 -0.1243 -0.4522 -0.4734
  178SAPS   C2120301   4.888   5.635   3.072  0.3310  0.1053  0.4997
  178SAPS   O2220302   4.880   5.520   3.031 -0.0594 -0.5374  0.6365
  178SAPS   C2220303   4.842   5.693   3.204 -0.3285 -0.8259 -0.7024
  178SAPS   H2R20304   4.922   5.690   3.281  0.1627 -1.4114 -1.2290
  178SAPS   H2S20305   4.815   5.801   3.198  0.2925 -0.5231  1.1437
  178SAPS    C320306   5.148   5.619   2.934  0.1139 -0.7406 -0.2187
  178SAPS    HX20307   5.222   5.613   2.851  0.4583 -0.3970  0.0540
  178SAPS    HY20308   5.133   5.513   2.964  1.8801 -0.6963  1.0027
  178SAPS   O3120309   5.206   5.687   3.051 -1.0274  0.3594  0.1580
  178SAPS   C3120310   5.323   5.637   3.099 -0.0343  0.3099  0.4039
  178SAPS   O3220311   5.384   5.538   3.048 -0.0654  0.4092 -0.5253
  178SAPS   C3220312   5.388   5.732   3.206  0.8786 -0.0695 -0.6115
  178SAPS   H2X20313   5.318   5.818   3.213 -0.0849 -0.8949  0.6529
  178SAPS   H2Y20314   5.489   5.762   3.171 -0.0908  4.8417  0.0748
  178SAPS   C2320315   4.719   5.638   3.259  0.4821 -0.0228  0.0908
  178SAPS   H3R20316   4.751   5.541   3.302  0.5670  0.4430  1.1148
  178SAPS   H3S20317   4.648   5.612   3.177  1.9540  1.9119 -1.9332
  178SAPS   C2420318   4.651   5.725   3.366 -0.1966 -0.9886  0.8647
  178SAPS   H4R20319   4.634   5.821   3.314  3.5724 -0.3299  0.5366
  178SAPS   H4S20320   4.723   5.746   3.448 -1.1103 -1.8507  1.9299
  178SAPS   C2520321   4.531   5.664   3.431  0.0052 -0.7407 -0.1448
  178SAPS   H5R20322   4.445   5.668   3.362  0.3916 -0.1345 -0.6008
  178SAPS   C2620323   4.539   5.609   3.549 -0.4510  0.0303  0.2217
  178SAPS   H6R20324   4.446   5.559   3.581  0.1967 -0.3263  1.6584
  178SAPS   C2720325   4.657   5.599   3.648  0.2679 -0.1366 -0.0946
  178SAPS   H7R20326   4.753   5.651   3.625  0.1533  0.6733  1.1538
  178SAPS   H7S20327   4.676   5.491   3.661  0.7355 -0.0022  0.3717
  178SAPS   C2820328   4.609   5.651   3.780  0.3283 -0.7171 -0.0192
  178SAPS   H8R20329   4.621   5.759   3.798 -0.9687 -0.4491 -0.6137
  178SAPS   C2920330   4.561   5.571   3.878 -0.5459  0.0262  0.5746
  178SAPS   H9R20331   4.538   5.612   3.978 -1.1632 -2.3196  1.4684
  178SAPS  C21020332   4.524   5.424   3.876  0.4189 -0.0766  0.1566
  178SAPS  H10R20333   4.551   5.355   3.792  0.6475 -0.0828  0.2340
  178SAPS  H10S20334   4.414   5.435   3.865  0.5269  0.6305 -0.3038
  178SAPS  C21120335   4.554   5.353   3.999 -0.1718 -0.5593  0.1691
  178SAPS  H11R20336   4.641   5.287   3.985  1.5661  1.1741  2.0694
  178SAPS  C21220337   4.503   5.370   4.119  0.2243  0.4367  0.7175
  178SAPS  H12R20338   4.522   5.290   4.192 -1.6203 -0.7813 -0.0569
  178SAPS  C21320339   4.382   5.461   4.151  0.5017  0.3845 -0.1062
  178SAPS  H13R20340   4.317   5.483   4.063 -2.2418 -1.5384  1.3197
  178SAPS  H13S20341   4.414   5.561   4.187 -2.8286  1.0678  1.3167
  178SAPS  C21420342   4.286   5.389   4.239  0.7058  0.2119 -0.3366
  178SAPS  H14R20343   4.259   5.291   4.197  2.6732  0.1752 -1.6370
  178SAPS  C21520344   4.239   5.432   4.359 -0.1020  0.0881  0.2705
  178SAPS  H15R20345   4.179   5.364   4.421  0.3203 -0.5572 -0.0066
  178SAPS  C21620346   4.286   5.559   4.425  0.8223  0.1663 -0.2559
  178SAPS  H16R20347   4.209   5.639   4.412  0.3859  0.0157  1.1947
  178SAPS  H16S20348   4.386   5.588   4.386  1.6089 -1.8565  0.1056
  178SAPS  C21720349   4.322   5.543   4.576  0.1915 -0.1935  0.0431
  178SAPS  H17R20350   4.389   5.455   4.592 -0.6040 -0.8207 -0.0151
  178SAPS  H17S20351   4.233   5.518   4.638  0.6483  1.3308  1.3598
  178SAPS  C21820352   4.373   5.675   4.637  0.1195  0.3350  0.1433
  178SAPS  H18R20353   4.306   5.690   4.725 -1.8093 -0.8395 -1.0458
  178SAPS  H18S20354   4.363   5.766   4.574 -2.3583 -0.4177 -0.6804
  178SAPS  C21920355   4.519   5.651   4.692  0.6182  0.3707 -0.2199
  178SAPS  H19R20356   4.597   5.636   4.614  0.0005 -1.8824 -0.4711
  178SAPS  H19S20357   4.517   5.556   4.750 -2.1612  0.4753 -0.0165
  178SAPS  C22020358   4.548   5.779   4.762  0.3204 -0.0397  0.2004
  178SAPS  H20R20359   4.653   5.784   4.797  0.5226  0.4895 -0.4590
  178SAPS  H20S20360   4.484   5.784   4.852 -0.0699 -2.3578  0.1290
  178SAPS  H20T20361   4.515   5.866   4.702  1.1312 -0.7139 -1.2763
  178SAPS   C3320362   5.395   5.655   3.339  0.4252 -0.7854  1.1670
  178SAPS   H3X20363   5.464   5.712   3.406 -0.9168  1.8567  0.4149
  178SAPS   H3Y20364   5.428   5.552   3.313 -4.8430 -2.1496 -1.4769
  178SAPS   C3420365   5.258   5.637   3.408 -0.6677  0.4819  0.3086
  178SAPS   H4X20366   5.209   5.552   3.356  2.3595 -1.6217  0.6318
  178SAPS   H4Y20367   5.196   5.729   3.406 -1.5607 -0.0208  2.1978
  178SAPS   C3520368   5.274   5.591   3.549  0.4899 -0.3541  0.1961
  178SAPS   H5X20369   5.351   5.651   3.602  0.6103 -0.9607  0.7349
  178SAPS   H5Y20370   5.302   5.484   3.539  0.0904 -0.2590 -2.8664
  178SAPS   C3620371   5.145   5.587   3.635  0.2752 -0.6522 -0.4626
  178SAPS   H6X20372   5.072   5.510   3.603  0.1287 -1.0985  0.8524
  178SAPS   H6Y20373   5.086   5.681   3.636  1.3393  0.0650 -2.0882
  178SAPS   C3720374   5.177   5.569   3.781 -0.5486 -0.5520 -0.0679
  178SAPS   H7X20375   5.218   5.668   3.810 -1.4005 -0.1763 -0.1364
  178SAPS   H7Y20376   5.247   5.485   3.802  1.7148  1.1740 -0.2544
  178SAPS   C3820377   5.048   5.571   3.867 -0.0903 -0.2639 -0.1540
  178SAPS   H8X20378   4.962   5.628   3.825 -0.6751 -1.7914 -1.1362
  178SAPS   H8Y20379   5.084   5.635   3.950  1.1714  0.5150 -1.2572
  178SAPS   C3920380   5.018   5.435   3.928 -0.4766 -0.0646 -0.4801
  178SAPS   H9X20381   5.114   5.392   3.964 -0.4024 -0.2515 -0.8932
  178SAPS   H9Y20382   4.997   5.369   3.841  0.6793  1.1640 -1.7471
  178SAPS  C31020383   4.925   5.437   4.052 -0.3080 -0.1805  0.4092
  178SAPS  H10X20384   4.829   5.485   4.025  0.1588  1.1975  1.1043
  178SAPS  H10Y20385   4.976   5.484   4.139  0.7068 -0.1945 -0.1574
  178SAPS  C31120386   4.896   5.296   4.101 -0.1540  0.6314 -0.0554
  178SAPS  H11X20387   4.887   5.240   4.005  0.7068  0.9284 -0.3211
  178SAPS  H11Y20388   4.798   5.294   4.151 -0.3839 -3.5082 -0.3311
  178SAPS  C31220389   5.007   5.249   4.196  0.1460  0.1126 -0.2609
  178SAPS  H12X20390   5.005   5.318   4.283 -1.7869 -0.6190  0.3052
  178SAPS  H12Y20391   5.100   5.281   4.144  1.0599 -2.1898 -0.1463
  178SAPS  C31320392   5.008   5.095   4.216 -0.1302 -0.0918 -0.9886
  178SAPS  H13X20393   4.951   5.047   4.134 -0.4996  0.2703 -0.9498
  178SAPS  H13Y20394   4.956   5.073   4.311  1.5124  1.0669  0.2355
  178SAPS  C31420395   5.156   5.050   4.219  0.5155  0.1436  0.0690
  178SAPS  H14X20396   5.202   5.068   4.119  0.7666 -0.4215  0.0785
  178SAPS  H14Y20397   5.158   4.940   4.232 -3.0560 -0.2885 -1.8811
  178SAPS  C31520398   5.247   5.126   4.317 -0.0487 -0.2087  0.0356
  178SAPS  H15X20399   5.192   5.116   4.413  0.7321 -0.4502  0.4621
  178SAPS  H15Y20400   5.259   5.234   4.297  0.8867  0.0764  1.9297
  178SAPS  C31620401   5.394   5.079   4.311  0.5601 -0.3014 -0.1789
  178SAPS  H16X20402   5.442   5.094   4.212 -1.2628  0.5713 -0.9968
  178SAPS  H16Y20403   5.388   4.969   4.328 -1.1961 -0.1719  0.3193
  178SAPS  C31720404   5.489   5.136   4.419  1.0367 -0.3048 -0.1545
  178SAPS  H17X20405   5.493   5.246   4.411 -0.9574 -0.0460  1.5859
  178SAPS  H17Y20406   5.588   5.095   4.390  1.0405  0.9138 -1.9938
  178SAPS  C31820407   5.438   5.099   4.563  0.0890 -0.8587  0.0487
  178SAPS  H18X20408   5.347   5.157   4.589  1.5679  0.8929  1.5872
  178SAPS  H18Y20409   5.524   5.117   4.631 -1.7213  0.7704  2.0579
  178SAPS  H18Z20410   5.410   4.992   4.558 -2.2968 -0.3106  0.4397
  179SAPS     N20411   0.060   1.371   1.887  0.5272 -0.3669 -0.3042
  179SAPS   HN120412  -0.015   1.376   1.959  2.1780 -0.3642  1.4946
  179SAPS   HN220413   0.067   1.270   1.863 -0.1296 -0.5126  0.0820
  179SAPS   HN320414   0.152   1.409   1.915  0.5155 -0.0145 -0.7312
  179SAPS   C1220415   0.027   1.451   1.769  0.2382 -0.3644 -0.2590
  179SAPS  H12A20416   0.113   1.443   1.704 -0.5674 -2.7059 -1.1214
  179SAPS   C1320417  -0.106   1.417   1.689 -0.4202 -0.6183 -0.1208
  179SAPS  O13A20418  -0.168   1.312   1.726 -0.5050  0.2289  0.7357
  179SAPS  O13B20419  -0.120   1.472   1.577 -0.4679 -0.1974  0.3400
  179SAPS   C1120420   0.019   1.605   1.810 -0.7721 -0.0030 -0.2538
  179SAPS  H11A20421  -0.052   1.619   1.895  0.1658  0.6180  0.4420
  179SAPS  H11B20422  -0.013   1.657   1.718 -1.6673  0.0884  0.0975
  179SAPS     P20423   0.177   1.798   1.884  0.2087  0.2076 -0.1568
  179SAPS   O1320424   0.315   1.839   1.854  0.3020 -0.7775 -0.1006
  179SAPS   O1420425   0.060   1.877   1.839 -0.4344 -0.2476  0.9146
  179SAPS   O1220426   0.155   1.647   1.839  0.1885  0.4015 -0.3592
  179SAPS   O1120427   0.156   1.792   2.039 -0.3608  0.4468  0.2455
  179SAPS    C120428   0.236   1.703   2.125  0.1821 -0.2913  0.9821
  179SAPS    HA20429   0.184   1.606   2.140 -0.1267 -0.6055 -1.6198
  179SAPS    HB20430   0.331   1.673   2.075 -0.3230  0.1766 -0.2951
  179SAPS    C220431   0.280   1.778   2.254 -0.2972  0.5385  0.5739
  179SAPS    HS20432   0.373   1.726   2.287  2.0843  3.5817 -0.8959
  179SAPS   O2120433   0.179   1.770   2.346  0.0614 -0.3661  0.8754
  179SAPS   C2120434   0.149   1.657   2.396  0.0004  0.9338  0.7239
  179SAPS   O2220435   0.208   1.554   2.382 -0.2705  0.6528  0.0455
  179SAPS   C2220436   0.041   1.675   2.504  0.7294 -0.5621  0.3869
  179SAPS   H2R20437   0.066   1.760   2.571 -2.9825  0.4205  0.7588
  179SAPS   H2S20438  -0.046   1.697   2.438  0.9236 -0.2111  0.2474
  179SAPS    C320439   0.326   1.917   2.220  0.3798 -0.1717 -0.4056
  179SAPS    HX20440   0.239   1.977   2.187  0.3366  0.4397  0.7547
  179SAPS    HY20441   0.401   1.917   2.138  2.5727 -2.6251  1.3992
  179SAPS   O3120442   0.391   1.982   2.340  0.6067  0.5722  0.4977
  179SAPS   C3120443   0.347   2.101   2.371 -0.1066 -0.0386  0.3498
  179SAPS   O3220444   0.258   2.164   2.314 -0.6671  0.1479  0.0178
  179SAPS   C3220445   0.404   2.161   2.492  0.4924  0.4729  0.0805
  179SAPS   H2X20446   0.476   2.239   2.457  1.1412 -0.6047 -1.0514
  179SAPS   H2Y20447   0.464   2.087   2.549  2.9776  1.6009 -0.8968
  179SAPS   C2320448   0.030   1.543   2.585 -0.0195 -0.4843 -0.0935
  179SAPS   H3R20449   0.130   1.521   2.629 -0.4641 -0.6528  0.8812
  179SAPS   H3S20450  -0.007   1.455   2.529 -1.9778  0.6618 -0.6874
  179SAPS   C2420451  -0.060   1.551   2.719 -0.0796 -0.1636  0.1399
  179SAPS   H4R20452  -0.040   1.637   2.785 -0.8392 -0.0825  0.2701
  179SAPS   H4S20453  -0.021   1.477   2.791  0.5296  1.7740  1.8955
  179SAPS   C2520454  -0.207   1.546   2.676 -0.1737  0.2837  0.1680
  179SAPS   H5R20455  -0.251   1.638   2.634  1.1113  1.5704  1.4893
  179SAPS   C2620456  -0.292   1.445   2.684  0.3065  0.0586  0.1386
  179SAPS   H6R20457  -0.397   1.458   2.653  0.5710  0.1235 -0.7541
  179SAPS   C2720458  -0.270   1.304   2.730 -0.3352  0.1036 -0.0167
  179SAPS   H7R20459  -0.163   1.298   2.758 -0.1489  2.1548 -0.1629
  179SAPS   H7S20460  -0.305   1.230   2.655  0.8264  0.6345 -1.1309
  179SAPS   C2820461  -0.359   1.292   2.847  0.3401 -0.0897  0.1454
  179SAPS   H8R20462  -0.462   1.281   2.808  0.7691 -1.0638 -0.7865
  179SAPS   C2920463  -0.335   1.282   2.978 -0.6879 -0.0397 -0.2969
  179SAPS   H9R20464  -0.416   1.266   3.051  0.9443 -1.0372  1.3949
  179SAPS  C21020465  -0.200   1.302   3.044 -0.2244  0.0792  1.5038
  179SAPS  H10R20466  -0.192   1.412   3.061 -2.6187  0.4397  0.5661
  179SAPS  H10S20467  -0.114   1.263   2.985 -0.0204 -1.3188  2.6550
  179SAPS  C21120468  -0.193   1.208   3.165  0.6110  0.6131 -0.0686
  179SAPS  H11R20469  -0.267   1.127   3.172 -2.0778  2.9273 -0.1804
  179SAPS  C21220470  -0.121   1.236   3.275 -0.9018 -0.2135 -0.0675
  179SAPS  H12R20471  -0.122   1.168   3.362  0.5800 -0.5764 -0.3153
  179SAPS  C21320472  -0.030   1.356   3.303  1.0649 -0.0099 -0.0089
  179SAPS  H13R20473   0.018   1.397   3.212 -0.2114 -0.2083 -0.7985
  179SAPS  H13S20474   0.057   1.329   3.366 -0.9068 -1.4851  2.2520
  179SAPS  C21420475  -0.109   1.467   3.368 -0.2954  0.0687 -0.4295
  179SAPS  H14R20476  -0.156   1.535   3.296 -0.5228  0.1670 -0.1884
  179SAPS  C21520477  -0.133   1.493   3.499  0.5517 -0.1329  0.1501
  179SAPS  H15R20478  -0.177   1.590   3.527 -0.8924 -0.4891 -0.8110
  179SAPS  C21620479  -0.083   1.414   3.611  0.1268 -0.7836 -0.1032
  179SAPS  H16R20480  -0.034   1.324   3.567  1.6342 -1.2278  2.2559
  179SAPS  H16S20481  -0.168   1.375   3.670  0.3409 -1.0249  0.0506
  179SAPS  C21720482   0.019   1.485   3.697  0.0994  0.3361  0.0270
  179SAPS  H17R20483  -0.020   1.584   3.727  1.6262  0.5641  1.4378
  179SAPS  H17S20484   0.116   1.516   3.653  0.9981 -0.0992  1.5910
  179SAPS  C21820485   0.049   1.415   3.833 -0.0757  0.0728 -0.6288
  179SAPS  H18R20486  -0.028   1.431   3.912  1.9130  3.6410  0.8292
  179SAPS  H18S20487   0.144   1.447   3.880  0.4998 -1.6749 -0.5314
  179SAPS  C21920488   0.072   1.265   3.810  0.5967 -0.3840  0.0310
  179SAPS  H19R20489   0.157   1.252   3.740  1.6015 -3.0005  1.6172
  179SAPS  H19S20490  -0.022   1.230   3.761 -2.0317  3.6067  1.6547
  179SAPS  C22020491   0.097   1.190   3.946  0.4546 -0.3391  0.6314
  179SAPS  H20R20492   0.007   1.196   4.010  0.5350 -0.8310  0.7925
  179SAPS  H20S20493   0.178   1.242   4.002 -1.1932  1.9482  1.0312
  179SAPS  H20T20494   0.116   1.081   3.935  0.9302 -0.3789  1.7696
  179SAPS   C3320495   0.298   2.228   2.577  0.0952 -0.5757  0.6755
  179SAPS   H3X20496   0.203   2.173   2.597 -1.7993  2.0038 -0.5619
  179SAPS   H3Y20497   0.271   2.323   2.526  2.5313  0.9614  2.0886
  179SAPS   C3420498   0.353   2.274   2.719  0.0475  0.1026  0.3581
  179SAPS   H4X20499   0.446   2.335   2.715  1.9235 -2.5833  0.2802
  179SAPS   H4Y20500   0.390   2.181   2.768 -0.1740 -1.0311 -1.5204
  179SAPS   C3520501   0.249   2.351   2.799 -0.3847 -0.0765  0.2215
  179SAPS   H5X20502   0.163   2.283   2.819 -0.2040 -0.1639  0.7114
  179SAPS   H5Y20503   0.217   2.435   2.734  1.1271 -1.1935 -2.1071
  179SAPS   C3620504   0.298   2.410   2.931 -0.9410  0.3886  0.4953
  179SAPS   H6X20505   0.236   2.494   2.967 -0.5423  1.7988 -1.8855
  179SAPS   H6Y20506   0.404   2.442   2.917 -0.7762 -0.1477  0.4612
  179SAPS   C3720507   0.310   2.302   3.036 -0.0942 -0.5241  0.2218
  179SAPS   H7X20508   0.401   2.318   3.098  0.1443 -3.4638  0.7556
  179SAPS   H7Y20509   0.327   2.205   2.985  3.8196 -0.0089  0.2428
  179SAPS   C3820510   0.188   2.276   3.126 -0.2298 -0.0473  0.7414
  179SAPS   H8X20511   0.205   2.178   3.175  1.0409 -0.2524 -0.0671
  179SAPS   H8Y20512   0.098   2.255   3.065  0.0751 -1.4801  0.7557
  179SAPS   C3920513   0.169   2.379   3.238  0.3214 -0.5207 -0.8954
  179SAPS   H9X20514   0.164   2.483   3.197 -0.6394 -1.5426 -3.5977
  179SAPS   H9Y20515   0.260   2.380   3.302  0.6488 -0.4555 -1.3520
  179SAPS  C31020516   0.050   2.335   3.325  0.0142 -0.2398  0.0440
  179SAPS  H10X20517   0.065   2.225   3.334  1.2200 -0.2045 -1.2269
  179SAPS  H10Y20518  -0.050   2.358   3.282  0.4163 -0.8713 -1.2700
  179SAPS  C31120519   0.048   2.425   3.450  0.4778 -0.2117 -0.1387
  179SAPS  H11X20520   0.037   2.531   3.421 -1.7442 -0.5187 -0.5453
  179SAPS  H11Y20521   0.148   2.419   3.499  0.5568  1.3777 -0.0571
  179SAPS  C31220522  -0.066   2.397   3.548  0.1328  0.1224 -0.6675
  179SAPS  H12X20523  -0.056   2.293   3.586  0.0413  0.0844 -0.7467
  179SAPS  H12Y20524  -0.168   2.391   3.503 -0.0424 -0.4304 -0.2062
  179SAPS  C31320525  -0.072   2.495   3.666 -0.4947  0.1048 -0.6293
  179SAPS  H13X20526  -0.073   2.602   3.636  4.5416 -0.4476 -3.9190
  179SAPS  H13Y20527   0.016   2.473   3.730  0.2727  1.9770 -0.9926
  179SAPS  C31420528  -0.200   2.466   3.751  0.4788  1.4140 -0.7303
  179SAPS  H14X20529  -0.286   2.478   3.682 -0.5918 -1.0720  0.0546
  179SAPS  H14Y20530  -0.204   2.538   3.836 -2.1751  0.1201  0.3407
  179SAPS  C31520531  -0.217   2.324   3.803 -0.6408  0.2088  0.1733
  179SAPS  H15X20532  -0.118   2.281   3.834 -2.0841 -2.6257  1.2689
  179SAPS  H15Y20533  -0.237   2.257   3.717  1.1243 -1.0646  0.6641
  179SAPS  C31620534  -0.315   2.304   3.914  0.2978  0.0526 -1.0312
  179SAPS  H16X20535  -0.421   2.321   3.885  0.2740  1.3167 -0.2771
  179SAPS  H16Y20536  -0.297   2.380   3.993 -0.3734  0.1824 -1.0020
  179SAPS  C31720537  -0.311   2.158   3.958  0.0039  1.5451  0.1177
  179SAPS  H17X20538  -0.203   2.136   3.975  0.0053  0.2999 -1.3346
  179SAPS  H17Y20539  -0.337   2.086   3.878 -2.0213  0.9531  1.2214
  179SAPS  C31820540  -0.403   2.123   4.074 -0.0553 -0.1342 -0.2463
  179SAPS  H18X20541  -0.390   2.018   4.110  2.0328 -0.2464 -1.1507
  179SAPS  H18Y20542  -0.509   2.135   4.041 -0.2492 -1.3108 -0.1122
  179SAPS  H18Z20543  -0.382   2.206   4.144 -2.5907  1.5881 -1.3689
  180SAPS     N20544   0.804   1.301   1.853  0.9048 -0.1453  0.5495
  180SAPS   HN120545   0.760   1.390   1.886 -0.9049  0.1963 -2.3679
  180SAPS   HN220546   0.795   1.310   1.750  1.6782  2.2017  0.6210
  180SAPS   HN320547   0.754   1.219   1.891  4.5260 -1.4641  2.9958
  180SAPS   C1220548   0.942   1.293   1.893 -0.4906  0.3424 -0.0824
  180SAPS  H12A20549   0.978   1.219   1.823 -2.1022 -0.5795 -0.0052
  180SAPS   C1320550   1.021   1.425   1.885 -0.2455  0.2140  0.5933
  180SAPS  O13A20551   0.978   1.528   1.828  0.1675 -0.0494  0.0520
  180SAPS  O13B20552   1.143   1.407   1.902 -0.2237  0.3172  0.2817
  180SAPS   C1120553   0.958   1.242   2.044  0.4564 -0.4545  0.2329
  180SAPS  H11A20554   0.904   1.317   2.104 -0.4651 -0.3569 -0.6987
  180SAPS  H11B20555   1.065   1.238   2.075  0.2200  1.2210  1.3715
  180SAPS     P20556   0.948   0.975   2.006  0.1026 -0.0341 -0.7046
  180SAPS   O1320557   0.857   0.904   1.913  0.2813 -0.5782  0.2889
  180SAPS   O1420558   1.097   0.982   1.987 -0.0676 -0.2652  0.0932
  180SAPS   O1220559   0.882   1.116   2.049  0.2736 -0.4317 -0.3424
  180SAPS   O1120560   0.938   0.880   2.130  0.2852 -0.4700  0.1597
  180SAPS    C120561   0.821   0.884   2.213  0.6777 -0.6871  0.6529
  180SAPS    HA20562   0.727   0.886   2.154 -0.1034 -0.2964  1.8581
  180SAPS    HB20563   0.826   0.783   2.259  3.4015 -0.5468  0.8626
  180SAPS    C220564   0.823   0.982   2.327 -0.1909 -0.0159 -0.8151
  180SAPS    HS20565   0.797   1.080   2.281 -0.9399 -0.3691 -1.1692
  180SAPS   O2120566   0.956   0.985   2.385  0.5048  0.0370  0.7238
  180SAPS   C2120567   0.991   1.108   2.434 -0.2050  0.2139 -0.5923
  180SAPS   O2220568   0.927   1.212   2.433  0.0791 -0.1130 -0.1864
  180SAPS   C2220569   1.134   1.088   2.490  0.3848 -0.1410 -0.2722
  180SAPS   H2R20570   1.189   1.012   2.430  2.0429 -0.5698  1.6982
  180SAPS   H2S20571   1.179   1.189   2.487 -0.4627  0.2444 -0.2988
  180SAPS    C320572   0.713   0.950   2.428  1.0897 -0.5534 -0.9865
  180SAPS    HX20573   0.747   0.858   2.479 -1.3691 -0.7279  0.5081
  180SAPS    HY20574   0.619   0.942   2.368 -0.7156  0.2022  1.5377
  180SAPS   O3120575   0.695   1.052   2.524 -0.0790 -0.6501 -0.6489
  180SAPS   C3120576   0.638   1.171   2.490  0.1548 -1.2135  1.1431
  180SAPS   O3220577   0.599   1.207   2.381 -0.9589 -0.3033  0.2782
  180SAPS   C3220578   0.638   1.265   2.611  0.0831  0.1504 -0.5532
  180SAPS   H2X20579   0.672   1.364   2.572  0.2271  1.7018  3.0876
  180SAPS   H2Y20580   0.708   1.228   2.689 -0.6175 -0.8062 -0.3588
  180SAPS   C2320581   1.148   1.073   2.643  0.7429 -0.7078  1.2012
  180SAPS   H3R20582   1.111   1.170   2.683  0.4057 -0.1981 -0.2827
  180SAPS   H3S20583   1.257   1.069   2.664  1.0886 -0.5836 -0.4561
  180SAPS   C2420584   1.081   0.951   2.706  0.0450  0.1513  0.5552
  180SAPS   H4R20585   1.124   0.954   2.809 -0.3440  1.3931  0.7015
  180SAPS   H4S20586   1.123   0.864   2.651  0.2117 -0.1327  1.1221
  180SAPS   C2520587   0.929   0.928   2.714 -0.4172 -0.3307 -0.5376
  180SAPS   H5R20588   0.889   0.868   2.631  0.1173 -2.4974  0.7137
  180SAPS   C2620589   0.847   0.968   2.817 -0.8619 -0.2315 -0.0718
  180SAPS   H6R20590   0.740   0.946   2.824 -1.0928  1.3498  2.8958
  180SAPS   C2720591   0.902   1.032   2.944  0.6388  0.8706 -0.4830
  180SAPS   H7R20592   0.828   1.107   2.979  0.7071  0.0444  1.6474
  180SAPS   H7S20593   0.991   1.091   2.915  2.4313 -1.1052  0.6823
  180SAPS   C2820594   0.938   0.932   3.058 -0.1436 -0.0563 -0.3575
  180SAPS   H8R20595   0.956   0.826   3.036  1.9082  0.4645 -1.4254
  180SAPS   C2920596   0.942   0.967   3.190  0.0829  0.3979  0.4916
  180SAPS   H9R20597   0.972   0.886   3.259  0.0068  1.4298  1.7787
  180SAPS  C21020598   0.924   1.095   3.267  0.1250  0.1387  0.4188
  180SAPS  H10R20599   0.910   1.170   3.185  0.8396  0.1432  0.2938
  180SAPS  H10S20600   1.015   1.112   3.328 -0.5796  2.1107  1.0163
  180SAPS  C21120601   0.794   1.084   3.347  0.1855 -0.3525  0.5966
  180SAPS  H11R20602   0.704   1.107   3.289  2.3055 -0.2312 -2.9250
  180SAPS  C21220603   0.790   1.041   3.476  0.1192  0.0932  0.1223
  180SAPS  H12R20604   0.686   1.030   3.513  0.7382 -0.2507  1.8471
  180SAPS  C21320605   0.904   0.996   3.564  0.0147 -0.6785 -0.6415
  180SAPS  H13R20606   0.902   1.050   3.662 -0.4713  0.7351 -1.3941
  180SAPS  H13S20607   1.001   1.033   3.525  1.1002  0.4317  2.7581
  180SAPS  C21420608   0.901   0.851   3.585 -0.0103  0.7054  0.5955
  180SAPS  H14R20609   0.919   0.791   3.495 -0.5023 -0.7198  1.4056
  180SAPS  C21520610   0.869   0.783   3.699  0.1963  0.7663 -0.3578
  180SAPS  H15R20611   0.876   0.674   3.689 -0.5469  0.6088  0.6574
  180SAPS  C21620612   0.826   0.838   3.835  0.4799  0.5207 -0.6715
  180SAPS  H16R20613   0.741   0.778   3.875  1.8454 -1.8802 -1.1605
  180SAPS  H16S20614   0.782   0.940   3.832 -3.0173 -0.8241 -0.7542
  180SAPS  C21720615   0.938   0.844   3.940  0.3417  0.5043  0.5431
  180SAPS  H17R20616   1.018   0.912   3.904 -0.4523  2.1507  1.7222
  180SAPS  H17S20617   0.982   0.742   3.949  1.2429  0.4244 -3.2434
  180SAPS  C21820618   0.887   0.882   4.081  0.4061 -0.0438 -0.5234
  180SAPS  H18R20619   0.849   0.787   4.124 -0.8801 -0.1344 -1.8006
  180SAPS  H18S20620   0.795   0.945   4.075  0.9525  1.0461  1.5515
  180SAPS  C21920621   0.989   0.943   4.175  0.0609 -0.2825 -0.6302
  180SAPS  H19R20622   0.946   0.981   4.270 -1.1256 -0.4963 -1.0610
  180SAPS  H19S20623   1.020   1.037   4.123 -2.0563  0.3310 -0.8742
  180SAPS  C22020624   1.098   0.855   4.225 -0.1532  0.1056 -1.1623
  180SAPS  H20R20625   1.181   0.853   4.151  1.5148 -0.3286  0.6314
  180SAPS  H20S20626   1.143   0.890   4.321 -1.7289 -0.5282 -0.1461
  180SAPS  H20T20627   1.077   0.751   4.257  1.4604  0.3516  1.0058
  180SAPS   C3320628   0.497   1.303   2.663 -0.4355  0.0895 -0.2277
  180SAPS   H3X20629   0.437   1.330   2.574  0.5189  1.9537 -0.3480
  180SAPS   H3Y20630   0.522   1.382   2.737  2.5534 -3.9164  3.5597
  180SAPS   C3420631   0.433   1.190   2.742 -0.0632 -0.1574  0.2608
  180SAPS   H4X20632   0.509   1.142   2.806  1.5987  0.6782 -0.9971
  180SAPS   H4Y20633   0.408   1.111   2.668 -1.2085 -1.4290  1.9513
  180SAPS   C3520634   0.297   1.237   2.808 -0.4070  0.0556 -0.1930
  180SAPS   H5X20635   0.218   1.161   2.828 -2.1141  2.3833  2.9284
  180SAPS   H5Y20636   0.262   1.311   2.734  1.4829  0.8181 -0.3684
  180SAPS   C3620637   0.314   1.298   2.947 -0.1941 -0.8614 -0.4414
  180SAPS   H6X20638   0.222   1.352   2.977 -1.6033 -2.7557 -1.1794
  180SAPS   H6Y20639   0.400   1.366   2.932 -0.1476 -0.2230  2.2737
  180SAPS   C3720640   0.342   1.186   3.051 -0.3340  0.2643  0.1945
  180SAPS   H7X20641   0.420   1.126   3.000  0.3851  0.4469  1.0515
  180SAPS   H7Y20642   0.248   1.129   3.064  0.1991 -0.2843  1.9863
  180SAPS   C3820643   0.402   1.232   3.189 -0.3570  0.0979 -0.3876
  180SAPS   H8X20644   0.343   1.321   3.220  0.4476  0.6079 -0.2659
  180SAPS   H8Y20645   0.509   1.264   3.187 -0.0890 -0.7674 -0.4298
  180SAPS   C3920646   0.383   1.124   3.297 -0.9936  0.5958 -0.2529
  180SAPS   H9X20647   0.434   1.029   3.269  0.0443  0.9234  0.4444
  180SAPS   H9Y20648   0.273   1.110   3.299 -0.8377 -0.9597 -0.9659
  180SAPS  C31020649   0.430   1.156   3.443 -0.4410 -0.1376 -0.7811
  180SAPS  H10X20650   0.395   1.253   3.484 -0.8138 -0.4712 -0.2907
  180SAPS  H10Y20651   0.539   1.174   3.435  0.2254 -2.2300  2.1642
  180SAPS  C31120652   0.418   1.035   3.538  0.1235  0.3293 -0.4876
  180SAPS  H11X20653   0.480   0.949   3.504  2.3602  1.5042  0.3694
  180SAPS  H11Y20654   0.317   0.991   3.545  0.1347  0.4117  0.2473
  180SAPS  C31220655   0.453   1.064   3.680  0.2412  0.3912 -0.3035
  180SAPS  H12X20656   0.381   1.139   3.717 -0.9209 -0.8513  0.0318
  180SAPS  H12Y20657   0.558   1.101   3.679  0.5186 -0.3570 -1.8861
  180SAPS  C31320658   0.424   0.945   3.767  0.4109  1.1966 -0.5309
  180SAPS  H13X20659   0.459   0.856   3.711 -1.0932  0.9845 -1.1601
  180SAPS  H13Y20660   0.314   0.933   3.774  0.5622 -0.4105 -0.6146
  180SAPS  C31420661   0.479   0.950   3.918  0.2218 -0.2078  0.1856
  180SAPS  H14X20662   0.576   1.005   3.917  0.4149 -0.5040 -1.7155
  180SAPS  H14Y20663   0.509   0.844   3.932  0.4961 -0.2038 -0.3482
  180SAPS  C31520664   0.370   0.998   4.020 -1.0468  0.1742 -0.0735
  180SAPS  H15X20665   0.277   0.938   4.026 -0.7494 -0.1452  2.2112
  180SAPS  H15Y20666   0.339   1.098   3.982  0.0456  0.8749  0.8093
  180SAPS  C31620667   0.440   1.020   4.157 -0.1898  0.4517  0.6144
  180SAPS  H16X20668   0.378   1.087   4.221 -0.2694  1.1527 -0.1891
  180SAPS  H16Y20669   0.532   1.082   4.148  1.3123 -1.9596 -2.0346
  180SAPS  C31720670   0.468   0.888   4.227  0.0745  0.0799 -0.1708
  180SAPS  H17X20671   0.547   0.840   4.165  0.2017  0.3403 -0.2117
  180SAPS  H17Y20672   0.383   0.817   4.223  0.2784 -0.1844  0.1000
  180SAPS  C31820673   0.513   0.914   4.371  0.1015 -0.2658  0.6949
  180SAPS  H18X20674   0.435   0.961   4.435 -1.8800 -0.7602 -1.2379
  180SAPS  H18Y20675   0.605   0.976   4.371  0.0953 -0.2170 -1.2326
  180SAPS  H18Z20676   0.542   0.821   4.424 -0.4126  0.0178  1.5061
  181POPC     N20677   2.304   2.492   6.891 -0.4202 -0.1258  0.3750
  181POPC   C1220678   2.230   2.381   6.813 -0.2478  0.3173 -0.1292
  181POPC  H12A20679   2.130   2.416   6.791 -1.1616 -2.4388 -0.6550
  181POPC  H12B20680   2.229   2.301   6.886 -1.3092  0.4718  0.0432
  181POPC   C1320681   2.219   2.548   7.009 -0.3240  0.1644  0.5427
  181POPC  H13A20682   2.126   2.588   6.972  0.3437 -0.1087 -1.6028
  181POPC  H13B20683   2.197   2.465   7.074  1.3246  0.1072  1.0943
  181POPC  H13C20684   2.273   2.633   7.050  2.2429 -0.7045 -0.7643
  181POPC   C1420685   2.427   2.432   6.951 -0.2550 -0.1305  0.2805
  181POPC  H14A20686   2.460   2.478   7.043  0.6002  1.3508 -0.7255
  181POPC  H14B20687   2.401   2.332   6.983  3.7508 -1.2186  0.7206
  181POPC  H14C20688   2.504   2.424   6.876  1.2652  1.6206  1.5694
  181POPC   C1520689   2.341   2.609   6.810  0.0488  0.3101  0.6298
  181POPC  H15A20690   2.381   2.575   6.715 -1.4673  0.2697 -0.0167
  181POPC  H15B20691   2.423   2.667   6.848 -0.5264  0.5717  1.5013
  181POPC  H15C20692   2.257   2.671   6.783 -1.1634 -2.2364 -1.9047
  181POPC   C1120693   2.299   2.319   6.692 -0.3297 -0.1369  0.3939
  181POPC  H11A20694   2.403   2.284   6.711 -0.5984 -1.5941 -0.6411
  181POPC  H11B20695   2.303   2.392   6.609 -2.3398 -1.0516 -0.5512
  181POPC     P20696   2.120   2.215   6.536 -0.1359 -0.2530 -0.1738
  181POPC   O1320697   2.092   2.354   6.493 -0.3515  0.4069 -0.1844
  181POPC   O1420698   1.999   2.150   6.590 -0.0088  0.1368  0.1529
  181POPC   O1220699   2.221   2.212   6.659  0.4194 -0.0097 -0.2027
  181POPC   O1120700   2.187   2.127   6.425  0.2518  0.1210 -0.0387
  181POPC    C120701   2.313   2.060   6.437  0.0664  0.3489  0.0009
  181POPC    HA20702   2.300   1.959   6.391  0.0903  0.9339 -1.3257
  181POPC    HB20703   2.337   2.046   6.544 -1.8029  2.5267  0.7728
  181POPC    C220704   2.425   2.131   6.362  0.2394  0.8496 -0.4789
  181POPC    HS20705   2.449   2.222   6.422  1.1320 -0.6423  1.5115
  181POPC   O2120706   2.371   2.155   6.235  0.4128  0.3196  0.6479
  181POPC   C2120707   2.332   2.275   6.216  0.1508 -0.6199  0.1596
  181POPC   O2220708   2.350   2.378   6.279  0.0895 -0.0096  0.2092
  181POPC   C2220709   2.293   2.277   6.063  0.1965  0.0714  0.5345
  181POPC   H2R20710   2.216   2.198   6.053 -1.1899  1.3114  0.9344
  181POPC   H2S20711   2.390   2.255   6.014 -0.1548  0.4631 -0.3645
  181POPC    C320712   2.547   2.039   6.355  0.1786  0.3578 -0.3869
  181POPC    HX20713   2.517   1.963   6.279  2.3111 -1.6284  0.6547
  181POPC    HY20714   2.554   1.992   6.455  1.2977  0.8190 -0.2390
  181POPC   O3120715   2.665   2.101   6.312 -0.5789  0.1155  0.1535
  181POPC   C3120716   2.717   2.188   6.397  0.5686  0.0049  0.1479
  181POPC   O3220717   2.676   2.203   6.509  0.1752  0.2300 -0.0454
  181POPC   C3220718   2.843   2.261   6.336 -1.0348  0.0229 -0.2553
  181POPC   H2X20719   2.829   2.260   6.226  2.4522 -0.5144 -0.8062
  181POPC   H2Y20720   2.938   2.212   6.367 -1.1861  0.9996  1.9301
  181POPC   C2320721   2.234   2.418   6.024 -0.3762  0.0053 -0.1552
  181POPC   H3R20722   2.308   2.500   6.033 -3.5982  3.2148 -0.9446
  181POPC   H3S20723   2.150   2.446   6.091  0.9917 -0.3544  1.7997
  181POPC   C2420724   2.196   2.405   5.877 -0.4379  0.0316 -0.1109
  181POPC   H4R20725   2.099   2.457   5.860  0.4631  2.0336  0.5920
  181POPC   H4S20726   2.186   2.299   5.846 -0.2396  0.0035 -0.0791
  181POPC   C2520727   2.306   2.475   5.785  0.6134 -0.2257 -0.3077
  181POPC   H5R20728   2.411   2.446   5.808  0.8649 -0.9171 -2.1571
  181POPC   H5S20729   2.291   2.579   5.821  1.2724  1.5394 -4.5397
  181POPC   C2620730   2.276   2.475   5.635 -0.1275  0.1873 -0.3434
  181POPC   H6R20731   2.171   2.511   5.628  0.3951  1.9810  0.2911
  181POPC   H6S20732   2.285   2.374   5.590  2.0821 -0.1046  0.6407
  181POPC   C2720733   2.351   2.574   5.551 -0.4691  0.2396 -0.5742
  181POPC   H7R20734   2.457   2.540   5.560  0.0215  1.8604  0.1082
  181POPC   H7S20735   2.341   2.680   5.581  1.5727  0.2931  0.0837
  181POPC   C2820736   2.306   2.564   5.405 -0.6609 -0.8889  0.0102
  181POPC   H8R20737   2.325   2.668   5.370 -0.4594  0.1151  2.8901
  181POPC   H8S20738   2.195   2.564   5.402 -0.6998  1.5325 -1.1505
  181POPC   C2920739   2.376   2.455   5.324 -0.3726 -0.4049 -0.3420
  181POPC   H9120740   2.482   2.461   5.296 -0.0733 -0.6222  0.6760
  181POPC  C21020741   2.314   2.335   5.297  0.3215 -0.2433 -0.0930
  181POPC  H10120742   2.377   2.271   5.234  1.6571  1.3487 -0.4521
  181POPC  C21120743   2.171   2.290   5.340  0.5528  0.0400 -0.2913
  181POPC  H11R20744   2.109   2.366   5.391 -0.1280  0.2990 -1.4824
  181POPC  H11S20745   2.179   2.197   5.401 -1.2467 -0.8820 -1.3542
  181POPC  C21220746   2.089   2.241   5.221 -0.3377 -0.7507  0.3304
  181POPC  H12R20747   1.987   2.213   5.257 -0.0346 -0.3308  1.5786
  181POPC  H12S20748   2.144   2.154   5.180  1.7324  0.5862  0.1149
  181POPC  C21320749   2.066   2.351   5.123  0.2498  0.1198 -0.3015
  181POPC  H13R20750   2.156   2.390   5.071 -1.2558  0.0199 -3.2136
  181POPC  H13S20751   2.019   2.434   5.180 -0.0268 -0.1012 -0.2035
  181POPC  C21420752   1.962   2.311   5.014 -0.2786 -0.5126  0.1715
  181POPC  H14R20753   1.867   2.268   5.054 -0.0657 -0.4750  0.7231
  181POPC  H14S20754   2.020   2.245   4.947 -1.6193  0.5916 -2.2264
  181POPC  C21520755   1.919   2.435   4.929 -0.2113 -0.2845 -0.4871
  181POPC  H15R20756   2.012   2.488   4.899 -0.3501 -0.5108 -1.3644
  181POPC  H15S20757   1.867   2.509   4.992  0.3434 -0.9057  0.7321
  181POPC  C21620758   1.826   2.403   4.812 -0.6498  0.0024  0.2541
  181POPC  H16R20759   1.720   2.374   4.832 -0.7978 -1.5489 -2.3189
  181POPC  H16S20760   1.872   2.319   4.756  2.1479  0.8662  1.1300
  181POPC  C21720761   1.819   2.516   4.713  0.2062 -0.5171  0.7660
  181POPC  H17R20762   1.788   2.470   4.617 -1.1213 -0.6163  1.2145
  181POPC  H17S20763   1.924   2.541   4.688 -0.0437 -0.6524 -0.4841
  181POPC  C21820764   1.727   2.638   4.751 -0.7563  0.4730 -0.0817
  181POPC  H18R20765   1.777   2.718   4.810 -0.5640 -0.4158  1.0013
  181POPC  H18S20766   1.649   2.609   4.825  1.2932  1.7530  2.7815
  181POPC  H18T20767   1.690   2.689   4.660 -1.1925 -0.7309 -0.6113
  181POPC   C3320768   2.867   2.411   6.363  0.1376  0.1221 -0.4143
  181POPC   H3X20769   2.957   2.449   6.310  0.8709 -0.2502  0.5519
  181POPC   H3Y20770   2.890   2.426   6.470  0.5000  1.9110 -0.7039
  181POPC   C3420771   2.749   2.507   6.328  0.1474 -0.0814  0.0302
  181POPC   H4X20772   2.795   2.607   6.345 -0.0177  0.2225 -1.1858
  181POPC   H4Y20773   2.655   2.501   6.387 -0.1775  1.3808 -0.2955
  181POPC   C3520774   2.696   2.506   6.187  0.4704  0.2182 -0.5537
  181POPC   H5X20775   2.634   2.416   6.167 -2.4585  2.5362 -2.8767
  181POPC   H5Y20776   2.772   2.511   6.106  1.9159 -0.0314  0.7339
  181POPC   C3620777   2.598   2.625   6.151 -0.4647 -0.6444 -0.0485
  181POPC   H6X20778   2.663   2.712   6.175 -1.5244  0.4611 -1.0611
  181POPC   H6Y20779   2.515   2.626   6.225  0.5598  0.9869  1.1388
  181POPC   C3720780   2.557   2.635   6.007  0.2216  0.0417  0.8394
  181POPC   H7X20781   2.497   2.546   5.978  1.5339 -0.8438  0.7670
  181POPC   H7Y20782   2.640   2.631   5.934 -0.6228 -0.2008 -0.1467
  181POPC   C3820783   2.465   2.749   5.977 -1.0501  0.2665  0.0609
  181POPC   H8X20784   2.484   2.820   6.060  2.0623  0.3516 -0.6200
  181POPC   H8Y20785   2.357   2.731   5.957 -1.4132  2.2417  0.0527
  181POPC   C3920786   2.512   2.816   5.846 -0.1172  0.6846  0.6692
  181POPC   H9X20787   2.532   2.737   5.771  0.7958  0.7235  0.8638
  181POPC   H9Y20788   2.613   2.857   5.869  1.7801 -2.7402 -0.7524
  181POPC  C31020789   2.405   2.921   5.809  0.1152 -0.1120 -0.2152
  181POPC  H10X20790   2.406   2.988   5.897 -3.4793  1.7624 -1.3924
  181POPC  H10Y20791   2.301   2.885   5.792 -0.0933  0.3365  0.1051
  181POPC  C31120792   2.448   3.007   5.692 -0.7698 -0.7892 -0.1120
  181POPC  H11X20793   2.551   3.049   5.700 -1.1642  0.6144 -1.8003
  181POPC  H11Y20794   2.386   3.099   5.687 -1.7557 -1.4179  0.3643
  181POPC  C31220795   2.449   2.937   5.556  0.2966 -0.4769 -0.7764
  181POPC  H12X20796   2.340   2.926   5.539 -0.4434  2.1391  1.4964
  181POPC  H12Y20797   2.488   2.836   5.578 -0.0200 -0.1516  1.5460
  181POPC  C31320798   2.530   3.008   5.450  0.2576  0.3355  0.6262
  181POPC  H13X20799   2.635   3.012   5.487  0.5616  0.4959 -0.2290
  181POPC  H13Y20800   2.478   3.106   5.448 -1.5639 -0.5211  2.1127
  181POPC  C31420801   2.508   2.928   5.318  0.0750  0.3466  0.1212
  181POPC  H14X20802   2.540   2.996   5.237 -0.3989 -0.2086 -0.5421
  181POPC  H14Y20803   2.399   2.909   5.310  0.1419  0.5645 -1.6874
  181POPC  C31520804   2.579   2.793   5.305  0.3498  0.1928 -0.0227
  181POPC  H15X20805   2.546   2.727   5.388  1.8068  1.0983  1.3416
  181POPC  H15Y20806   2.688   2.800   5.324  0.0369 -2.0156  3.6875
  181POPC  C31620807   2.561   2.735   5.163 -0.1032 -0.0141 -0.2447
  181POPC  H16X20808   2.620   2.802   5.097 -0.7119  0.2582 -0.5277
  181POPC  H16Y20809   2.455   2.740   5.130  0.2670 -0.2165 -1.5135
  181POPC  H16Z20810   2.602   2.633   5.149 -2.1704 -0.6717 -2.1036
  182POPC     N20811   5.530   1.575   6.942 -0.0810  0.4846 -0.1293
  182POPC   C1220812   5.396   1.513   6.947  0.1772  0.3191  0.0524
  182POPC  H12A20813   5.342   1.557   6.864  0.1949 -1.7093 -1.0978
  182POPC  H12B20814   5.337   1.534   7.035  1.4065  4.5073  0.1327
  182POPC   C1320815   5.537   1.722   6.974  0.2118  0.3060 -0.3109
  182POPC  H13A20816   5.641   1.753   6.972  0.2728  0.0953 -2.1138
  182POPC  H13B20817   5.480   1.778   6.903  2.3200 -1.2234 -3.4546
  182POPC  H13C20818   5.499   1.751   7.071  2.4406 -1.3567  1.1732
  182POPC   C1420819   5.622   1.500   7.032 -0.0887  0.4594  0.7919
  182POPC  H14A20820   5.596   1.533   7.132 -1.4563  0.9596  0.2966
  182POPC  H14B20821   5.593   1.397   7.026 -0.5417  0.6420 -0.2728
  182POPC  H14C20822   5.723   1.515   6.997 -0.6366 -0.1550 -1.1759
  182POPC   C1520823   5.595   1.556   6.808 -0.5528 -0.7785  0.1020
  182POPC  H15A20824   5.697   1.591   6.814 -0.3217 -1.2858 -0.6926
  182POPC  H15B20825   5.525   1.610   6.746 -1.2589  1.1573  2.4400
  182POPC  H15C20826   5.590   1.452   6.778  2.6535 -0.8850 -0.3903
  182POPC   C1120827   5.391   1.363   6.934  0.1553  0.3561 -0.0163
  182POPC  H11A20828   5.283   1.334   6.933 -0.7879  3.4426 -0.7667
  182POPC  H11B20829   5.427   1.323   7.032  0.5375 -0.8688 -0.6350
  182POPC     P20830   5.442   1.150   6.801 -0.3716 -0.4858  0.0118
  182POPC   O1320831   5.355   1.085   6.903 -0.1451 -0.1704  0.5744
  182POPC   O1420832   5.569   1.083   6.765 -0.3691  0.1696  0.5844
  182POPC   O1220833   5.466   1.303   6.836  0.0812  0.0282  0.5861
  182POPC   O1120834   5.356   1.145   6.671 -0.3446 -0.5031  0.1195
  182POPC    C120835   5.314   1.266   6.599 -0.7154  0.4881 -0.0201
  182POPC    HA20836   5.326   1.352   6.669  3.0389 -0.8368  1.2070
  182POPC    HB20837   5.209   1.260   6.562  0.0437  2.9952 -3.0676
  182POPC    C220838   5.391   1.298   6.481 -0.8079 -0.4661 -0.2518
  182POPC    HS20839   5.358   1.396   6.439  0.4351  0.5223  1.0144
  182POPC   O2120840   5.400   1.200   6.380  0.4551 -0.0216  0.7572
  182POPC   C2120841   5.290   1.158   6.321  0.4356  0.3056  0.8468
  182POPC   O2220842   5.179   1.202   6.333 -0.0484 -0.4667 -0.0546
  182POPC   C2220843   5.329   1.048   6.225  0.7865  0.9332 -0.5011
  182POPC   H2R20844   5.361   0.968   6.295 -0.7039  0.7863  0.0531
  182POPC   H2S20845   5.412   1.068   6.154  0.5649 -1.2198 -1.4432
  182POPC    C320846   5.534   1.341   6.514  0.1311 -0.1543  0.2218
  182POPC    HX20847   5.592   1.265   6.571 -0.8043 -0.2061  1.1311
  182POPC    HY20848   5.533   1.439   6.566 -1.4443 -0.4888  0.8935
  182POPC   O3120849   5.611   1.371   6.396  0.2148  0.0894  0.3059
  182POPC   C3120850   5.670   1.277   6.328 -0.3968 -0.0830  0.1618
  182POPC   O3220851   5.697   1.160   6.363  0.3354 -0.1683 -0.4254
  182POPC   C3220852   5.721   1.332   6.190 -0.0065  0.1868  0.9112
  182POPC   H2X20853   5.796   1.255   6.160 -0.7095  0.0901 -0.7126
  182POPC   H2Y20854   5.752   1.436   6.213 -0.6633  0.8589 -1.0267
  182POPC   C2320855   5.202   1.006   6.142  0.0305 -0.3298  0.5184
  182POPC   H3R20856   5.151   1.093   6.096 -0.1508 -0.3555  0.6690
  182POPC   H3S20857   5.127   0.952   6.205 -0.7477 -0.5744 -0.5953
  182POPC   C2420858   5.235   0.899   6.037 -1.1883  0.5192 -0.1640
  182POPC   H4R20859   5.275   0.808   6.087  0.4365 -0.0182 -2.2872
  182POPC   H4S20860   5.319   0.950   5.985 -1.4429  3.4606  2.0802
  182POPC   C2520861   5.118   0.857   5.952 -0.0147  0.4142  0.4645
  182POPC   H5R20862   5.109   0.937   5.875 -1.8529  0.6472  0.8789
  182POPC   H5S20863   5.032   0.845   6.020 -0.5164  0.9815 -0.0529
  182POPC   C2620864   5.153   0.731   5.870  0.9608  0.3031 -0.1902
  182POPC   H6R20865   5.066   0.694   5.812  0.6917 -1.7489  1.4252
  182POPC   H6S20866   5.173   0.643   5.934  0.5731 -1.3695 -2.2844
  182POPC   C2720867   5.271   0.750   5.778 -0.6940  0.2311 -0.1146
  182POPC   H7R20868   5.368   0.762   5.830 -0.8340  1.6825 -0.1326
  182POPC   H7S20869   5.265   0.847   5.723  2.2846  0.9679  0.6858
  182POPC   C2820870   5.290   0.644   5.664 -0.4055 -0.6127  0.0144
  182POPC   H8R20871   5.192   0.635   5.612  0.6292  0.1622 -2.1691
  182POPC   H8S20872   5.315   0.553   5.722  2.9880 -0.0972 -0.4364
  182POPC   C2920873   5.415   0.677   5.580 -0.6761  0.8427 -0.1846
  182POPC   H9120874   5.504   0.669   5.644  0.2570  2.6431 -1.1817
  182POPC  C21020875   5.436   0.689   5.449  0.3793  0.8012  0.3991
  182POPC  H10120876   5.532   0.732   5.416 -0.7907  1.9935 -1.6016
  182POPC  C21120877   5.327   0.696   5.345  0.1785  0.3715  0.4028
  182POPC  H11R20878   5.227   0.687   5.392  0.1984 -1.1347  0.1990
  182POPC  H11S20879   5.335   0.610   5.275 -2.9525  0.1037  0.2301
  182POPC  C21220880   5.335   0.830   5.266  0.1323 -0.8160  0.7747
  182POPC  H12R20881   5.330   0.908   5.344  2.4694 -2.3540  2.6194
  182POPC  H12S20882   5.244   0.833   5.203  0.7270 -1.4057 -0.1427
  182POPC  C21320883   5.461   0.846   5.170 -0.0694 -0.1140  0.3128
  182POPC  H13R20884   5.552   0.884   5.220  1.9352 -0.9844 -2.4133
  182POPC  H13S20885   5.435   0.931   5.103  1.6457  0.0105 -0.2360
  182POPC  C21420886   5.491   0.720   5.081  0.2895  0.1706  0.1402
  182POPC  H14R20887   5.409   0.705   5.008  1.5747 -0.2601 -1.2876
  182POPC  H14S20888   5.484   0.630   5.145 -0.7370  0.0274 -0.1546
  182POPC  C21520889   5.629   0.711   5.021  0.0456  0.0010 -0.7806
  182POPC  H15R20890   5.707   0.687   5.096  0.8694 -0.7582 -1.8377
  182POPC  H15S20891   5.655   0.813   4.984  1.6409  0.4446  1.3188
  182POPC  C21620892   5.651   0.613   4.909  1.1880  0.0914 -0.2196
  182POPC  H16R20893   5.583   0.642   4.826  0.1183  0.5729  0.7977
  182POPC  H16S20894   5.629   0.509   4.941  0.5104  0.5042  0.7024
  182POPC  C21720895   5.793   0.630   4.846  0.2295  0.1330  0.5776
  182POPC  H17R20896   5.792   0.739   4.824  2.3238  0.1843  0.5362
  182POPC  H17S20897   5.799   0.575   4.750 -3.4669  1.7342 -0.7311
  182POPC  C21820898   5.915   0.607   4.934 -0.4082 -0.3088  0.0982
  182POPC  H18R20899   5.929   0.672   5.023  1.1080  0.5463 -0.7161
  182POPC  H18S20900   6.016   0.619   4.888 -0.2712  0.2132  0.5233
  182POPC  H18T20901   5.908   0.505   4.978  1.7691 -0.4649  0.1947
  182POPC   C3320902   5.610   1.324   6.084 -0.9364 -0.4343 -0.6450
  182POPC   H3X20903   5.525   1.390   6.110 -2.4511 -2.4113 -0.2939
  182POPC   H3Y20904   5.574   1.219   6.078  0.7297 -1.2814  2.1665
  182POPC   C3420905   5.659   1.368   5.941 -0.3439 -0.3410 -0.2621
  182POPC   H4X20906   5.596   1.305   5.873 -0.4924 -0.5789  0.0919
  182POPC   H4Y20907   5.764   1.343   5.916  0.3907  1.2205  1.1457
  182POPC   C3520908   5.631   1.514   5.905  0.0423 -0.3177  0.7846
  182POPC   H5X20909   5.698   1.588   5.956  1.1938 -1.4948  1.0238
  182POPC   H5Y20910   5.528   1.531   5.943 -0.4333 -1.6204  0.1296
  182POPC   C3620911   5.634   1.550   5.758  0.2163  0.1646 -0.5476
  182POPC   H6X20912   5.608   1.457   5.704 -1.1103 -0.0868  0.4725
  182POPC   H6Y20913   5.734   1.577   5.717  0.2934 -1.5625 -1.5697
  182POPC   C3720914   5.541   1.661   5.724 -0.3363  0.1301  0.1060
  182POPC   H7X20915   5.591   1.758   5.746  1.0688  0.2116 -2.9957
  182POPC   H7Y20916   5.447   1.652   5.783 -1.0712  1.1103 -0.8737
  182POPC   C3820917   5.496   1.649   5.577  1.1201  0.2896 -0.2306
  182POPC   H8X20918   5.455   1.547   5.559 -0.0493  0.5665  0.6935
  182POPC   H8Y20919   5.572   1.665   5.497  0.0646 -1.8472 -1.7581
  182POPC   C3920920   5.376   1.737   5.548 -0.0006  0.8830 -0.1768
  182POPC   H9X20921   5.407   1.844   5.546  0.9084  0.6162 -1.2206
  182POPC   H9Y20922   5.320   1.729   5.643 -0.4716 -2.5344 -0.6432
  182POPC  C31020923   5.282   1.699   5.435 -0.0181  0.0404  0.2411
  182POPC  H10X20924   5.214   1.786   5.427  2.6309  2.1704 -0.7607
  182POPC  H10Y20925   5.231   1.601   5.446  2.0851 -1.1545 -0.1548
  182POPC  C31120926   5.361   1.674   5.305 -0.2959  0.1397  0.6010
  182POPC  H11X20927   5.419   1.580   5.311 -0.3881  0.1046  0.9289
  182POPC  H11Y20928   5.434   1.751   5.274 -1.1235  0.7553  0.1219
  182POPC  C31220929   5.272   1.656   5.187  0.1585 -0.0434  0.4235
  182POPC  H12X20930   5.198   1.575   5.203  0.7762 -0.7621 -0.2702
  182POPC  H12Y20931   5.326   1.623   5.096  0.0322 -3.2755  1.3949
  182POPC  C31320932   5.193   1.789   5.153 -0.3943  0.2280  0.0802
  182POPC  H13X20933   5.269   1.869   5.152 -0.6729  0.5183  1.0858
  182POPC  H13Y20934   5.113   1.804   5.228 -0.1502  0.6252  0.2655
  182POPC  C31420935   5.111   1.784   5.020  0.1425  0.1681 -0.0190
  182POPC  H14X20936   5.063   1.685   5.003  0.7374 -0.1574  0.1607
  182POPC  H14Y20937   5.183   1.789   4.936  0.5718  3.9195  0.4037
  182POPC  C31520938   5.005   1.897   5.007 -0.4034  0.7805 -0.2401
  182POPC  H15X20939   5.046   1.988   5.057  1.1534 -0.9043  1.7524
  182POPC  H15Y20940   4.914   1.852   5.052 -0.3100  0.3208 -0.5031
  182POPC  C31620941   4.968   1.936   4.867  0.9031 -0.5047  0.3710
  182POPC  H16X20942   4.893   2.018   4.876  0.6300 -0.5973 -0.8283
  182POPC  H16Y20943   4.937   1.848   4.806  2.7553 -0.7492 -0.2857
  182POPC  H16Z20944   5.051   1.974   4.803  1.4358 -1.3920  0.5268
  183POPC     N20945   1.075   1.846   6.744 -0.4735  0.6108  0.1024
  183POPC   C1220946   1.192   1.865   6.642 -0.6792 -0.1340  0.1980
  183POPC  H12A20947   1.182   1.786   6.569 -0.4772  0.9251 -1.0220
  183POPC  H12B20948   1.289   1.849   6.688 -0.7921  2.7389  1.6618
  183POPC   C1320949   1.078   1.700   6.787 -0.3155  0.3003  1.0493
  183POPC  H13A20950   1.062   1.645   6.695 -2.8910 -1.9521  2.7017
  183POPC  H13B20951   1.174   1.676   6.831 -0.3876  0.2642  1.1874
  183POPC  H13C20952   0.999   1.683   6.859  0.3907 -0.0213  1.7714
  183POPC   C1420953   1.086   1.924   6.869 -0.8900  0.9552  0.9639
  183POPC  H14A20954   1.174   1.904   6.929 -1.6808  1.5167  2.3808
  183POPC  H14B20955   1.093   2.031   6.859 -1.1615  0.7753 -1.7768
  183POPC  H14C20956   0.999   1.901   6.929 -2.6247 -0.8356 -2.0111
  183POPC   C1520957   0.943   1.866   6.682  1.4440  0.4075  0.1316
  183POPC  H15A20958   0.875   1.849   6.764  0.4384 -0.2910 -0.8264
  183POPC  H15B20959   0.927   1.791   6.606 -3.5454 -1.0017  2.1504
  183POPC  H15C20960   0.925   1.966   6.647  0.6920  1.2228  2.6412
  183POPC   C1120961   1.201   2.001   6.567  0.6868 -0.4828 -0.0687
  183POPC  H11A20962   1.120   2.002   6.490 -0.3120 -1.6473  0.9232
  183POPC  H11B20963   1.300   2.004   6.517  0.2595 -2.7228 -1.1361
  183POPC     P20964   1.294   2.188   6.737  0.3991 -0.5257 -0.0298
  183POPC   O1320965   1.409   2.101   6.764  0.2113 -0.4990  0.0370
  183POPC   O1420966   1.229   2.254   6.853  0.4166 -0.2738  0.0273
  183POPC   O1220967   1.174   2.112   6.654  0.1901 -0.8484 -0.3592
  183POPC   O1120968   1.332   2.309   6.637 -0.2094  0.0125 -0.1811
  183POPC    C120969   1.226   2.377   6.561 -0.4387  0.4527 -0.1372
  183POPC    HA20970   1.259   2.482   6.548  2.7462 -0.3372  0.6844
  183POPC    HB20971   1.128   2.366   6.611 -0.6970  1.4912 -0.3872
  183POPC    C220972   1.202   2.328   6.410 -0.0951  0.3755 -0.9961
  183POPC    HS20973   1.147   2.231   6.409 -1.6227  1.1909 -0.2037
  183POPC   O2120974   1.329   2.333   6.337  0.1290  0.7101 -0.3612
  183POPC   C2120975   1.361   2.219   6.275  0.4564 -0.0599  0.5012
  183POPC   O2220976   1.285   2.119   6.271 -0.1655 -0.0765 -0.3711
  183POPC   C2220977   1.498   2.222   6.202  0.2998  0.1205 -0.4621
  183POPC   H2R20978   1.547   2.129   6.236 -0.2731 -1.2170 -2.9854
  183POPC   H2S20979   1.552   2.314   6.231  1.7051 -0.1148 -2.1389
  183POPC    C320980   1.099   2.423   6.343 -0.6068 -0.1973 -0.0055
  183POPC    HX20981   1.149   2.521   6.325  1.4802 -1.4209 -1.4450
  183POPC    HY20982   1.010   2.432   6.408 -1.4506 -2.0980 -0.8361
  183POPC   O3120983   1.065   2.372   6.211  0.3306 -0.3555 -0.4027
  183POPC   C3120984   0.979   2.265   6.222 -0.1487  0.0143  0.1237
  183POPC   O3220985   0.932   2.219   6.328  0.0960  0.3707  0.0841
  183POPC   C3220986   0.957   2.206   6.083 -0.1564  0.1511  0.1381
  183POPC   H2X20987   1.036   2.131   6.064  0.6331  1.0222 -0.1301
  183POPC   H2Y20988   0.978   2.289   6.012  1.9286  0.5873  1.1798
  183POPC   C2320989   1.488   2.217   6.043  0.4562 -0.3018 -0.8592
  183POPC   H3R20990   1.586   2.247   6.000  0.5422 -1.3726 -1.4467
  183POPC   H3S20991   1.415   2.294   6.010  1.8438  1.9205  0.9960
  183POPC   C2420992   1.468   2.076   5.991 -0.1579  0.0251 -0.5028
  183POPC   H4R20993   1.385   2.030   6.048  2.1285 -1.7920  1.6156
  183POPC   H4S20994   1.562   2.018   6.003  1.1572  2.0793 -0.4232
  183POPC   C2520995   1.435   2.080   5.837  0.0621  0.9758  0.3446
  183POPC   H5R20996   1.448   1.980   5.792 -0.4333  2.1190 -2.5629
  183POPC   H5S20997   1.507   2.143   5.781  0.5636  1.2580  1.2787
  183POPC   C2620998   1.295   2.120   5.810 -0.1549  0.5128 -0.5377
  183POPC   H6R20999   1.241   2.131   5.906  0.1552  0.7321 -0.3880
  183POPC   H6S21000   1.224   2.044   5.771 -1.5838  0.4526  1.9649
  183POPC   C2721001   1.285   2.252   5.730  0.7533  0.2435  0.3967
  183POPC   H7R21002   1.338   2.247   5.632  2.5091  0.3741  1.3141
  183POPC   H7S21003   1.335   2.334   5.786  0.7712  0.6872 -0.2564
  183POPC   C2821004   1.138   2.300   5.707 -0.9977  0.8932  0.3003
  183POPC   H8R21005   1.072   2.272   5.792 -1.8183 -4.2637 -1.6894
  183POPC   H8S21006   1.103   2.225   5.633 -0.6115 -0.4720  1.4406
  183POPC   C2921007   1.139   2.447   5.678 -0.0502  0.3103  0.4317
  183POPC   H9121008   1.204   2.506   5.744  0.2258 -1.2987  1.6629
  183POPC  C21021009   1.077   2.504   5.573 -0.6145 -0.4174 -0.3946
  183POPC  H10121010   1.082   2.614   5.562 -2.1916  0.1468  3.0879
  183POPC  C21121011   0.995   2.446   5.454 -0.5739 -0.5734 -0.2888
  183POPC  H11R21012   0.991   2.335   5.454 -0.8138 -0.5658 -1.0653
  183POPC  H11S21013   1.035   2.492   5.362  1.4926 -0.7605  0.4648
  183POPC  C21221014   0.847   2.488   5.476  0.2530 -0.2861  0.5666
  183POPC  H12R21015   0.857   2.598   5.469  1.2075 -0.2893  1.5248
  183POPC  H12S21016   0.813   2.446   5.573  0.4170 -1.2594  0.2115
  183POPC  C21321017   0.754   2.431   5.366  0.2482  0.1634  0.2110
  183POPC  H13R21018   0.653   2.475   5.381 -0.6410 -1.8664  0.5425
  183POPC  H13S21019   0.724   2.324   5.367 -1.3681  0.4539 -3.2100
  183POPC  C21421020   0.797   2.449   5.212  0.9458  0.2556 -0.1062
  183POPC  H14R21021   0.883   2.380   5.199  0.9191  0.7126 -3.3330
  183POPC  H14S21022   0.826   2.554   5.191  1.9851 -0.2902 -1.5027
  183POPC  C21521023   0.671   2.417   5.129  0.1196  0.0706 -0.0527
  183POPC  H15R21024   0.597   2.495   5.154  0.0022  0.4527 -1.5362
  183POPC  H15S21025   0.629   2.317   5.154 -1.3610  1.0871  1.7475
  183POPC  C21621026   0.704   2.411   4.976  0.8647  0.1162  0.8339
  183POPC  H16R21027   0.697   2.514   4.937  2.6272 -0.1068 -0.2148
  183POPC  H16S21028   0.617   2.361   4.928  1.7167  0.4317 -1.1477
  183POPC  C21721029   0.827   2.331   4.929 -0.2648 -0.2763  0.1586
  183POPC  H17R21030   0.832   2.235   4.985 -0.6646 -0.3079  0.1402
  183POPC  H17S21031   0.925   2.380   4.950  1.0818 -2.7621  0.0402
  183POPC  C21821032   0.824   2.304   4.779 -1.1078 -0.0782  0.2807
  183POPC  H18R21033   0.903   2.229   4.756 -0.1885  0.2144  2.2450
  183POPC  H18S21034   0.830   2.401   4.726  0.8836  0.4005  1.2736
  183POPC  H18T21035   0.735   2.247   4.746  0.1245 -1.8284 -0.2090
  183POPC   C3321036   0.811   2.140   6.064  0.0447 -0.1623 -0.2038
  183POPC   H3X21037   0.734   2.217   6.083 -0.6822 -0.2403 -2.5411
  183POPC   H3Y21038   0.815   2.061   6.142 -0.3134 -0.9860 -1.0048
  183POPC   C3421039   0.792   2.075   5.929 -0.3184 -0.0425 -0.2364
  183POPC   H4X21040   0.801   2.156   5.853  1.3293  0.9052  0.9021
  183POPC   H4Y21041   0.695   2.021   5.924 -0.6547  0.5662 -0.3856
  183POPC   C3521042   0.902   1.973   5.907 -0.1716 -0.0455  0.7952
  183POPC   H5X21043   0.920   1.914   5.999  0.8537 -1.6302 -0.3730
  183POPC   H5Y21044   1.001   2.019   5.883  0.3898 -1.5753  0.0724
  183POPC   C3621045   0.880   1.880   5.781  0.2665  0.7738  0.0546
  183POPC   H6X21046   0.802   1.805   5.805  0.6183  1.0313  2.1078
  183POPC   H6Y21047   0.974   1.820   5.776  0.2552  0.4835  2.3653
  183POPC   C3721048   0.864   1.952   5.647 -0.0263 -0.3608 -0.2195
  183POPC   H7X21049   0.942   2.027   5.625 -1.0086  0.9427  0.5824
  183POPC   H7Y21050   0.772   2.011   5.669 -0.3387 -1.6464  2.3262
  183POPC   C3821051   0.843   1.865   5.528  0.3111 -0.0923 -0.6535
  183POPC   H8X21052   0.765   1.791   5.557 -0.3086  0.5328 -0.7079
  183POPC   H8Y21053   0.933   1.802   5.513  1.2626  0.6766  1.4312
  183POPC   C3921054   0.801   1.950   5.408  0.9523 -0.3819  0.4785
  183POPC   H9X21055   0.883   2.013   5.368  0.5847 -2.1739 -3.5628
  183POPC   H9Y21056   0.719   2.019   5.439  0.7922 -0.3839  0.0619
  183POPC  C31021057   0.755   1.865   5.288 -0.0915  0.4833 -0.7092
  183POPC  H10X21058   0.668   1.801   5.314 -0.7875  0.3819 -3.0948
  183POPC  H10Y21059   0.832   1.793   5.252  0.9564  0.2227  1.8175
  183POPC  C31121060   0.711   1.951   5.174  0.1053 -0.0228 -0.5431
  183POPC  H11X21061   0.795   2.019   5.147  0.4278 -0.4226 -0.5571
  183POPC  H11Y21062   0.618   2.007   5.196 -0.2851  0.5358 -3.2705
  183POPC  C31221063   0.678   1.872   5.048  0.3790 -0.5892  0.2556
  183POPC  H12X21064   0.593   1.802   5.065 -2.0994  1.5297 -2.4295
  183POPC  H12Y21065   0.764   1.812   5.012  1.1490  0.6549 -0.0208
  183POPC  C31321066   0.644   1.958   4.925 -0.3248 -0.5252  0.4221
  183POPC  H13X21067   0.726   2.030   4.904  1.6059 -2.4153  1.1233
  183POPC  H13Y21068   0.554   2.022   4.940  0.7636  0.8207  1.4145
  183POPC  C31421069   0.612   1.874   4.802 -0.0750  0.4790  0.1964
  183POPC  H14X21070   0.508   1.838   4.820 -0.4389  1.3966  0.0040
  183POPC  H14Y21071   0.685   1.790   4.798  0.7981  1.2426 -0.0480
  183POPC  C31521072   0.607   1.957   4.672  0.1011  0.6400  0.3380
  183POPC  H15X21073   0.583   1.886   4.590  2.5212  0.0443  0.0577
  183POPC  H15Y21074   0.705   2.005   4.652  0.5862 -0.2052  0.6225
  183POPC  C31621075   0.506   2.070   4.676  0.3070 -0.4623  0.1297
  183POPC  H16X21076   0.543   2.174   4.678 -0.6710 -0.1046  0.4717
  183POPC  H16Y21077   0.442   2.062   4.767  0.4690 -1.7840  0.1459
  183POPC  H16Z21078   0.436   2.063   4.590  0.9180 -2.8451 -0.2602
  184POPC     N21079   0.957   4.798   7.080 -0.1018  0.0293 -0.1732
  184POPC   C1221080   1.043   4.714   6.979 -0.2500 -0.1527  0.3271
  184POPC  H12A21081   0.980   4.627   6.964 -0.9698  0.2711  0.8947
  184POPC  H12B21082   1.130   4.673   7.029  0.5342 -1.3724 -1.8763
  184POPC   C1321083   1.047   4.896   7.151  0.0072 -0.3169  0.2120
  184POPC  H13A21084   1.121   4.854   7.218 -0.3392 -0.4696  0.5046
  184POPC  H13B21085   1.095   4.959   7.078  0.2635 -0.0710  0.5925
  184POPC  H13C21086   0.983   4.963   7.206 -0.6563 -0.8075  0.0552
  184POPC   C1421087   0.849   4.864   6.998 -0.6813 -0.5197 -0.1123
  184POPC  H14A21088   0.809   4.953   7.045  1.2406  1.0782 -1.3665
  184POPC  H14B21089   0.897   4.894   6.906 -2.0549  0.4303 -0.5530
  184POPC  H14C21090   0.772   4.790   6.978  0.3276 -1.3155 -1.1633
  184POPC   C1521091   0.885   4.721   7.182  0.0571 -0.1762 -0.1976
  184POPC  H15A21092   0.806   4.656   7.146 -2.3945  1.6651  1.4807
  184POPC  H15B21093   0.833   4.786   7.251 -0.1685  1.1127 -1.5441
  184POPC  H15C21094   0.954   4.667   7.245 -0.9151  0.9320  1.9305
  184POPC   C1121095   1.090   4.768   6.844  0.5975 -0.3459 -0.8503
  184POPC  H11A21096   1.165   4.703   6.795 -0.2650 -2.1169  0.0988
  184POPC  H11B21097   1.147   4.856   6.881  0.9878 -0.9722  0.0577
  184POPC     P21098   0.914   4.707   6.672  0.2171 -0.2017  0.1325
  184POPC   O1321099   0.818   4.767   6.578  0.0570 -0.3379  0.2420
  184POPC   O1421100   0.862   4.600   6.762  0.3243 -0.5150  0.3895
  184POPC   O1221101   0.993   4.822   6.752 -0.3005  0.1153 -0.9814
  184POPC   O1121102   1.031   4.631   6.596  0.5843  0.3183 -0.3746
  184POPC    C121103   1.143   4.700   6.537 -0.0111  0.1305  0.4638
  184POPC    HA21104   1.236   4.642   6.558 -0.3619 -0.8316 -0.5584
  184POPC    HB21105   1.151   4.800   6.583 -0.2755  0.1769  0.4114
  184POPC    C221106   1.145   4.693   6.384  0.1698 -0.0085  0.2004
  184POPC    HS21107   1.243   4.726   6.344  0.8498 -3.0362 -0.8929
  184POPC   O2121108   1.030   4.759   6.328 -0.0462 -0.0898  0.0452
  184POPC   C2121109   1.037   4.890   6.329  0.2957  0.8375  0.2309
  184POPC   O2221110   1.121   4.956   6.382  0.0220 -0.6422  0.4374
  184POPC   C2221111   0.925   4.945   6.233 -0.5197 -0.0612 -0.8485
  184POPC   H2R21112   0.884   5.042   6.270  0.0790 -0.6840  1.6299
  184POPC   H2S21113   0.847   4.869   6.252  0.6521 -1.1443 -0.2489
  184POPC    C321114   1.133   4.545   6.341  0.5577  0.3224  0.4581
  184POPC    HX21115   1.027   4.525   6.368 -0.3643  2.8841 -0.9667
  184POPC    HY21116   1.210   4.491   6.401  0.9795  1.6173  1.1382
  184POPC   O3121117   1.145   4.542   6.195  0.4549 -0.5271 -0.1878
  184POPC   C3121118   1.259   4.515   6.151 -0.2667 -0.0932 -0.0877
  184POPC   O3221119   1.361   4.510   6.216  0.0441  0.3288  0.0285
  184POPC   C3221120   1.250   4.490   6.001 -0.2070 -0.1867  1.1798
  184POPC   H2X21121   1.228   4.590   5.957 -0.5334 -1.2618 -1.2800
  184POPC   H2Y21122   1.157   4.435   5.976 -0.0225  0.2350 -0.6156
  184POPC   C2321123   0.960   4.965   6.090  0.1871 -0.1666 -0.2318
  184POPC   H3R21124   1.002   4.871   6.047 -1.2275 -1.5420  1.2284
  184POPC   H3S21125   1.050   5.031   6.087 -0.1210  0.4989  2.5831
  184POPC   C2421126   0.841   5.024   6.012  0.0731 -0.2092  0.1537
  184POPC   H4R21127   0.843   5.135   6.004  0.7945 -0.2873 -0.9096
  184POPC   H4S21128   0.747   4.988   6.059 -1.8479  1.5114 -2.1459
  184POPC   C2521129   0.840   4.983   5.866  1.3785 -0.7246 -0.3453
  184POPC   H5R21130   0.843   4.874   5.844 -1.6546 -0.3554 -3.2942
  184POPC   H5S21131   0.928   5.021   5.810 -0.1936 -1.0978 -3.3178
  184POPC   C2621132   0.713   5.032   5.800 -0.0726  0.1669  0.1267
  184POPC   H6R21133   0.690   5.139   5.814 -2.8534 -0.4063  0.6480
  184POPC   H6S21134   0.627   4.979   5.848  0.0049 -0.6848 -0.6548
  184POPC   C2721135   0.716   4.999   5.656  0.3254  0.0711  0.5404
  184POPC   H7R21136   0.752   4.895   5.642  0.6658 -0.0480  2.1143
  184POPC   H7S21137   0.786   5.078   5.621 -1.6967  3.3030  3.2392
  184POPC   C2821138   0.588   5.026   5.574 -0.2828  0.2496 -0.2024
  184POPC   H8R21139   0.613   5.008   5.468 -2.4522  1.7583 -1.0328
  184POPC   H8S21140   0.570   5.136   5.567  0.9911  0.5279  0.5021
  184POPC   C2921141   0.465   4.945   5.605  0.2644  0.3894  0.0264
  184POPC   H9121142   0.475   4.836   5.601  2.0877  0.4118  1.8666
  184POPC  C21021143   0.337   4.999   5.615 -0.4451 -0.2607 -0.0326
  184POPC  H10121144   0.247   4.938   5.634 -0.9951 -0.1362 -1.9713
  184POPC  C21121145   0.304   5.147   5.634 -0.5104 -0.7615 -0.0902
  184POPC  H11R21146   0.379   5.187   5.705 -0.7165  1.7353 -1.1898
  184POPC  H11S21147   0.211   5.158   5.694 -1.6937 -1.8978 -1.6277
  184POPC  C21221148   0.306   5.237   5.512  0.1623 -0.3751  0.6704
  184POPC  H12R21149   0.404   5.225   5.461  0.2997  2.7310 -0.0090
  184POPC  H12S21150   0.294   5.336   5.562  0.4594  0.7084 -1.2711
  184POPC  C21321151   0.193   5.205   5.417  0.5977  0.0810  0.6920
  184POPC  H13R21152   0.105   5.223   5.483  0.7166  1.3419  0.5301
  184POPC  H13S21153   0.207   5.096   5.398 -2.1900 -0.3068  0.3314
  184POPC  C21421154   0.197   5.276   5.284  0.5571  0.2017  0.1639
  184POPC  H14R21155   0.195   5.387   5.297  0.5195  0.1243  0.8408
  184POPC  H14S21156   0.113   5.246   5.217  0.3468  2.1067 -0.4966
  184POPC  C21521157   0.314   5.250   5.193 -0.6597 -0.1824 -0.9361
  184POPC  H15R21158   0.405   5.272   5.253 -0.6821 -0.1960 -0.8965
  184POPC  H15S21159   0.312   5.309   5.099 -1.1471 -2.1490 -2.1993
  184POPC  C21621160   0.334   5.111   5.142 -1.0102  0.5287  0.7896
  184POPC  H16R21161   0.242   5.072   5.093  0.9722 -0.9801 -1.9719
  184POPC  H16S21162   0.362   5.043   5.226  3.8747  1.0759 -0.1155
  184POPC  C21721163   0.456   5.083   5.046  0.4827 -0.1094 -0.1562
  184POPC  H17R21164   0.449   5.162   4.968 -4.2817 -0.1426 -0.0250
  184POPC  H17S21165   0.454   4.983   4.997  1.2393  0.6899 -1.9173
  184POPC  C21821166   0.582   5.088   5.128  0.5094 -0.7002  0.5190
  184POPC  H18R21167   0.619   5.188   5.159 -1.9465  0.4053  0.0717
  184POPC  H18S21168   0.663   5.028   5.080  3.0243  3.0300 -0.3195
  184POPC  H18T21169   0.567   5.029   5.220 -0.6113 -1.3296 -0.0469
  184POPC   C3321170   1.368   4.414   5.942 -0.1875  0.1379 -0.4097
  184POPC   H3X21171   1.404   4.335   6.013  0.6544  0.5167 -0.3992
  184POPC   H3Y21172   1.449   4.489   5.954 -0.5211  0.2479  1.4670
  184POPC   C3421173   1.350   4.385   5.795  0.7925  0.6540  0.5134
  184POPC   H4X21174   1.309   4.470   5.737  3.5497  0.9855 -1.1869
  184POPC   H4Y21175   1.279   4.300   5.788  0.6495  0.7640  0.6527
  184POPC   C3521176   1.476   4.333   5.722  0.3272  0.1710 -0.9755
  184POPC   H5X21177   1.521   4.244   5.772 -0.9392 -0.4038 -0.8297
  184POPC   H5Y21178   1.549   4.417   5.716 -0.7700  1.1838 -0.3226
  184POPC   C3621179   1.440   4.307   5.571 -0.5692  0.0808  0.8210
  184POPC   H6X21180   1.391   4.398   5.531 -0.5225  0.1426  0.9065
  184POPC   H6Y21181   1.373   4.221   5.550 -0.7572  0.6950 -1.3644
  184POPC   C3721182   1.567   4.277   5.496 -0.9858  0.3844  0.8081
  184POPC   H7X21183   1.615   4.189   5.544  0.0629 -0.5817 -1.8112
  184POPC   H7Y21184   1.638   4.362   5.499  1.4504 -1.5174  1.0005
  184POPC   C3821185   1.547   4.241   5.348 -0.0088 -0.0692  0.1591
  184POPC   H8X21186   1.508   4.321   5.282 -0.9835 -0.1739  0.5900
  184POPC   H8Y21187   1.475   4.157   5.345 -3.5138  2.6503  1.3400
  184POPC   C3921188   1.680   4.224   5.283 -0.1459  0.1370 -0.0335
  184POPC   H9X21189   1.726   4.141   5.340 -0.4076  1.5965  2.4557
  184POPC   H9Y21190   1.743   4.314   5.302  0.7917 -0.8876  2.0892
  184POPC  C31021191   1.660   4.185   5.138 -0.0271 -0.7181  0.2839
  184POPC  H10X21192   1.623   4.273   5.081  1.3793 -1.0055 -1.1172
  184POPC  H10Y21193   1.591   4.098   5.137 -1.3784  0.2940 -1.4286
  184POPC  C31121194   1.774   4.123   5.057 -0.4009  0.2112 -0.4153
  184POPC  H11X21195   1.812   4.037   5.117 -1.0641 -0.0016 -0.2962
  184POPC  H11Y21196   1.858   4.196   5.061  1.1303 -1.4820 -0.2260
  184POPC  C31221197   1.733   4.066   4.921 -0.4576 -0.0224 -0.3374
  184POPC  H12X21198   1.641   4.011   4.950 -0.9652  0.2994 -1.2841
  184POPC  H12Y21199   1.795   3.992   4.867  1.7971 -0.6147  2.8192
  184POPC  C31321200   1.699   4.175   4.811  0.7149 -0.0856 -0.3394
  184POPC  H13X21201   1.630   4.250   4.855 -0.0402  0.5965 -2.5809
  184POPC  H13Y21202   1.643   4.118   4.734 -0.8803  0.4266  0.4118
  184POPC  C31421203   1.820   4.244   4.749  0.4536  0.1298  0.4593
  184POPC  H14X21204   1.891   4.171   4.705  1.5801  2.1535 -1.3205
  184POPC  H14Y21205   1.872   4.291   4.835 -0.8041 -0.2321  1.4344
  184POPC  C31521206   1.784   4.353   4.649 -0.7447 -0.1184  0.0208
  184POPC  H15X21207   1.701   4.314   4.586 -1.5004 -1.7286  1.9024
  184POPC  H15Y21208   1.875   4.382   4.593 -1.3170 -1.2915 -1.5991
  184POPC  C31621209   1.732   4.476   4.719  0.3160  0.3482  0.1456
  184POPC  H16X21210   1.711   4.560   4.649 -0.0653 -1.2816 -1.7850
  184POPC  H16Y21211   1.811   4.505   4.792 -0.8005 -1.3435  2.1373
  184POPC  H16Z21212   1.648   4.449   4.786 -1.6607 -1.1462 -2.7215
  185POPC     N21213   1.673   6.377   2.167 -0.2190 -0.6073 -0.7154
  185POPC   C1221214   1.749   6.498   2.200  0.5535  0.0708  0.5784
  185POPC  H12A21215   1.671   6.572   2.189 -0.1064 -0.6258  0.5361
  185POPC  H12B21216   1.833   6.513   2.134 -0.2315 -1.6141 -0.8579
  185POPC   C1321217   1.558   6.359   2.263  0.1007  0.4040  0.1314
  185POPC  H13A21218   1.583   6.330   2.364  1.0576  1.5342  0.2441
  185POPC  H13B21219   1.493   6.445   2.268 -1.0754 -0.5342  2.6699
  185POPC  H13C21220   1.496   6.278   2.227  0.5397  0.3554 -0.5378
  185POPC   C1421221   1.618   6.385   2.028  0.9019  0.6408 -0.1191
  185POPC  H14A21222   1.536   6.455   2.019  0.6892  0.4132  0.0255
  185POPC  H14B21223   1.701   6.406   1.962  1.4375  2.3290  1.0319
  185POPC  H14C21224   1.575   6.291   1.996 -0.2273  1.3206 -0.6738
  185POPC   C1521225   1.762   6.258   2.170 -0.0485 -0.1385  0.0916
  185POPC  H15A21226   1.801   6.239   2.269  1.8298  0.4296 -0.4942
  185POPC  H15B21227   1.834   6.265   2.090  0.1763 -1.2930  0.1785
  185POPC  H15C21228   1.708   6.168   2.143 -1.0923 -0.1494  2.0512
  185POPC   C1121229   1.798   6.507   2.341 -0.1055 -0.5965 -0.5307
  185POPC  H11A21230   1.729   6.474   2.421  1.1385  1.0288  1.2947
  185POPC  H11B21231   1.805   6.612   2.377 -2.3453 -0.9485  1.1339
  185POPC     P21232   2.059   6.502   2.291  0.2621 -0.1569 -0.1103
  185POPC   O1321233   2.036   6.542   2.153 -0.2064 -0.6969 -0.0667
  185POPC   O1421234   2.178   6.419   2.314 -0.0378 -0.7722 -0.6959
  185POPC   O1221235   1.926   6.435   2.352  0.2184 -0.6888 -0.9874
  185POPC   O1121236   2.058   6.630   2.372 -0.2506 -0.1854 -0.2269
  185POPC    C121237   2.137   6.633   2.492  0.4208 -0.4555 -1.0830
  185POPC    HA21238   2.245   6.616   2.472  0.0468 -1.8047 -2.1162
  185POPC    HB21239   2.113   6.548   2.559  0.0189 -0.9488 -1.8382
  185POPC    C221240   2.127   6.774   2.577  0.2564  0.0317 -0.0571
  185POPC    HS21241   2.149   6.852   2.500 -0.9770 -0.9497 -1.4594
  185POPC   O2121242   2.229   6.771   2.679  0.1245 -0.5402 -0.2992
  185POPC   C2121243   2.236   6.890   2.744  0.2142 -0.0238  0.1707
  185POPC   O2221244   2.171   6.989   2.721 -0.2403 -0.5649  0.3286
  185POPC   C2221245   2.339   6.881   2.855  0.2532 -0.0141 -0.7162
  185POPC   H2R21246   2.415   6.961   2.843 -0.4975  0.7384 -0.6007
  185POPC   H2S21247   2.379   6.778   2.857  0.3357  0.0083 -1.2899
  185POPC    C321248   1.979   6.796   2.633  0.0062  0.2375  0.1280
  185POPC    HX21249   1.912   6.763   2.551  1.0165 -0.5822 -0.3862
  185POPC    HY21250   1.977   6.906   2.653  1.8772  0.4471 -0.6633
  185POPC   O3121251   1.950   6.709   2.746  0.1814  0.3556  0.1436
  185POPC   C3121252   1.840   6.756   2.802 -0.3943  0.1610 -0.3683
  185POPC   O3221253   1.769   6.837   2.746  0.2022 -0.1145 -0.2215
  185POPC   C3221254   1.825   6.704   2.945  0.0777 -0.1512  0.4479
  185POPC   H2X21255   1.923   6.657   2.968  0.4756  1.1472  1.5557
  185POPC   H2Y21256   1.746   6.626   2.955  1.0340 -1.0569  1.1634
  185POPC   C2321257   2.255   6.899   2.988  0.0406  0.8792 -0.2677
  185POPC   H3R21258   2.173   6.825   3.004 -0.5035  1.5470  0.0899
  185POPC   H3S21259   2.208   6.999   2.993 -1.5222  0.1005  2.2679
  185POPC   C2421260   2.341   6.883   3.111  0.3967  0.3775 -0.5202
  185POPC   H4R21261   2.373   6.777   3.120 -1.1617 -0.0898 -0.2000
  185POPC   H4S21262   2.277   6.906   3.199 -1.4767  1.7193 -2.1518
  185POPC   C2521263   2.465   6.969   3.134 -1.0244  0.0237 -0.8527
  185POPC   H5R21264   2.450   7.077   3.113 -0.0574  0.2027 -0.6846
  185POPC   H5S21265   2.553   6.950   3.070  3.2501 -0.4070  4.4023
  185POPC   C2621266   2.528   6.960   3.277  0.0713  0.2637  0.0120
  185POPC   H6R21267   2.455   6.999   3.351 -0.3264 -3.6649  1.9302
  185POPC   H6S21268   2.615   7.029   3.281  0.0486  0.2248  1.9426
  185POPC   C2721269   2.573   6.817   3.331 -1.1160  0.3548 -1.4341
  185POPC   H7R21270   2.661   6.783   3.271 -0.4804 -1.5746  0.4790
  185POPC   H7S21271   2.501   6.735   3.312  1.4968 -2.5297  0.1503
  185POPC   C2821272   2.603   6.811   3.481  0.7466 -0.2383  0.1531
  185POPC   H8R21273   2.504   6.798   3.530  0.0829  1.0948 -0.7640
  185POPC   H8S21274   2.638   6.915   3.499 -1.8542  0.9304 -0.9814
  185POPC   C2921275   2.705   6.710   3.531 -0.2252  0.3271 -0.6529
  185POPC   H9121276   2.783   6.680   3.459 -0.8151  0.2183 -1.2582
  185POPC  C21021277   2.694   6.635   3.639 -0.4939 -0.2043  0.3885
  185POPC  H10121278   2.782   6.572   3.657  1.0882  1.3311 -1.5763
  185POPC  C21121279   2.585   6.643   3.740  0.4466  0.4417 -0.3508
  185POPC  H11R21280   2.524   6.551   3.733  0.6151  0.2339  0.7987
  185POPC  H11S21281   2.507   6.718   3.715 -0.8435 -0.2138  1.5632
  185POPC  C21221282   2.644   6.666   3.881  0.3575  0.3343  0.0877
  185POPC  H12R21283   2.557   6.663   3.950 -0.4364  2.5816 -0.7380
  185POPC  H12S21284   2.683   6.769   3.886  1.1673  0.1382 -1.6228
  185POPC  C21321285   2.752   6.563   3.933  0.3193  0.5615  0.1815
  185POPC  H13R21286   2.831   6.563   3.855  1.2714  0.1786  1.1255
  185POPC  H13S21287   2.710   6.460   3.938  0.5086  0.5485  3.7166
  185POPC  C21421288   2.807   6.596   4.068 -0.4749 -0.7944 -0.2833
  185POPC  H14R21289   2.714   6.568   4.123 -2.1972  1.4562 -1.8842
  185POPC  H14S21290   2.823   6.705   4.080 -0.9019 -0.7246 -0.3219
  185POPC  C21521291   2.928   6.511   4.094  0.1741 -0.1276  0.5311
  185POPC  H15R21292   2.993   6.520   4.004 -0.2662  2.3868  0.3933
  185POPC  H15S21293   2.896   6.404   4.094  1.4386 -0.5192  0.4021
  185POPC  C21621294   2.990   6.545   4.228 -0.6634  0.0106  0.2141
  185POPC  H16R21295   2.930   6.517   4.317  1.0156  3.5479  2.6738
  185POPC  H16S21296   2.984   6.653   4.250 -1.6333  0.1177 -0.4766
  185POPC  C21721297   3.124   6.476   4.241  0.4181  0.5290 -0.5422
  185POPC  H17R21298   3.188   6.533   4.169  1.5688 -1.1479 -0.9020
  185POPC  H17S21299   3.122   6.377   4.191 -1.5279  0.5669 -0.6061
  185POPC  C21821300   3.189   6.466   4.382  0.9112  0.4956  0.2251
  185POPC  H18R21301   3.285   6.412   4.393  1.6534  2.1356  2.7928
  185POPC  H18S21302   3.122   6.414   4.454  2.4057  0.0548  1.3584
  185POPC  H18T21303   3.198   6.572   4.414 -2.2114  1.4638 -1.6226
  185POPC   C3321304   1.823   6.822   3.047  0.2118 -0.8244 -0.5824
  185POPC   H3X21305   1.726   6.875   3.040  1.6335  2.2243  1.1526
  185POPC   H3Y21306   1.890   6.904   3.014 -0.1090 -0.1128  0.5051
  185POPC   C3421307   1.858   6.773   3.192  0.2022 -0.7950  0.4557
  185POPC   H4X21308   1.965   6.747   3.200  0.4177 -1.9640 -3.9214
  185POPC   H4Y21309   1.811   6.674   3.210 -2.3912  0.1926 -0.3864
  185POPC   C3521310   1.802   6.856   3.302  0.9569 -0.8655 -0.0298
  185POPC   H5X21311   1.701   6.888   3.269  1.9396  0.7905 -1.5742
  185POPC   H5Y21312   1.852   6.953   3.284 -0.6446  0.3077  1.5218
  185POPC   C3621313   1.811   6.796   3.437 -0.4296  0.0064  0.1131
  185POPC   H6X21314   1.919   6.773   3.450 -0.0218  1.2384 -0.9150
  185POPC   H6Y21315   1.750   6.703   3.439  2.2058 -1.8368  0.1405
  185POPC   C3721316   1.768   6.889   3.556  0.1915  0.6573  0.3076
  185POPC   H7X21317   1.661   6.902   3.531 -0.2523 -1.0506  1.1944
  185POPC   H7Y21318   1.816   6.989   3.545  1.6304 -0.1015 -0.5634
  185POPC   C3821319   1.780   6.818   3.690  0.1861 -0.0936 -0.0231
  185POPC   H8X21320   1.879   6.769   3.697 -0.4522 -1.2182  1.5712
  185POPC   H8Y21321   1.710   6.735   3.710  0.0682  0.5981  2.9740
  185POPC   C3921322   1.789   6.915   3.812 -0.1145  0.1082  0.5637
  185POPC   H9X21323   1.701   6.982   3.819 -1.7313 -1.3607 -3.0433
  185POPC   H9Y21324   1.875   6.985   3.802  0.8816 -1.0556  0.6584
  185POPC  C31021325   1.800   6.838   3.943 -0.4558  0.2139  0.3366
  185POPC  H10X21326   1.718   6.764   3.955 -0.6077  0.3474  0.1243
  185POPC  H10Y21327   1.807   6.910   4.027 -1.0461  1.9676 -1.0673
  185POPC  C31121328   1.933   6.760   3.947  0.1190 -0.1448 -0.0556
  185POPC  H11X21329   2.005   6.800   3.872 -0.0351  1.6381  0.7045
  185POPC  H11Y21330   1.895   6.659   3.921  0.3964 -0.3742  0.4236
  185POPC  C31221331   2.008   6.749   4.076  0.1753 -0.3488  0.5171
  185POPC  H12X21332   2.082   6.666   4.072  1.6973  0.9871 -0.4257
  185POPC  H12Y21333   1.949   6.724   4.166 -1.6080 -1.4194 -0.8862
  185POPC  C31321334   2.079   6.883   4.105 -0.6215 -0.3971 -0.2017
  185POPC  H13X21335   2.009   6.967   4.086 -2.4319 -1.0144  3.0948
  185POPC  H13Y21336   2.175   6.893   4.050  0.4263  0.2729  1.6664
  185POPC  C31421337   2.109   6.888   4.257  0.1962 -0.2836  0.0229
  185POPC  H14X21338   2.165   6.800   4.295  1.1488  0.6453  0.8452
  185POPC  H14Y21339   2.009   6.893   4.306 -0.0328 -2.4132 -0.1305
  185POPC  C31521340   2.182   7.018   4.293  0.3812 -0.3561 -0.7666
  185POPC  H15X21341   2.116   7.106   4.278 -0.3578 -0.4381  1.5451
  185POPC  H15Y21342   2.276   7.026   4.235  0.0439 -1.2645 -1.4779
  185POPC  C31621343   2.222   7.033   4.437 -0.4120 -0.2014 -0.8766
  185POPC  H16X21344   2.281   6.944   4.468 -2.2513 -1.2628 -0.2609
  185POPC  H16Y21345   2.129   7.046   4.497  0.0068 -2.5258  0.4203
  185POPC  H16Z21346   2.287   7.122   4.447 -0.8515  0.2401 -1.8334
  186POPC     N21347   4.801   6.845   2.209 -0.0087 -0.2460  0.3096
  186POPC   C1221348   4.742   6.919   2.324  1.0526  0.2452 -0.5656
  186POPC  H12A21349   4.671   6.856   2.376  1.0184  0.2939 -0.5538
  186POPC  H12B21350   4.683   6.998   2.280  0.1177  1.1463  2.1392
  186POPC   C1321351   4.692   6.800   2.111 -0.2389  0.0736  0.6045
  186POPC  H13A21352   4.729   6.752   2.022 -1.5941  0.4935 -0.2187
  186POPC  H13B21353   4.619   6.735   2.156 -0.0383 -0.7525 -0.2376
  186POPC  H13C21354   4.634   6.880   2.068 -0.8209 -1.5584 -1.8472
  186POPC   C1421355   4.898   6.930   2.138  0.2331  0.4924 -0.1971
  186POPC  H14A21356   4.955   6.868   2.070 -0.4823  0.0823 -0.4276
  186POPC  H14B21357   4.864   7.016   2.082 -0.4138  0.1301 -0.3647
  186POPC  H14C21358   4.969   6.970   2.209 -1.1097 -0.1079  1.5573
  186POPC   C1521359   4.888   6.731   2.247 -0.0103 -0.2748  0.0511
  186POPC  H15A21360   4.962   6.762   2.319 -0.8852 -2.2450  1.9169
  186POPC  H15B21361   4.935   6.685   2.161  0.9077  2.0080 -0.7188
  186POPC  H15C21362   4.829   6.659   2.301 -0.2673  0.6293  1.0013
  186POPC   C1121363   4.835   6.972   2.438  0.3339  0.4521 -0.1400
  186POPC  H11A21364   4.862   6.886   2.503  0.2914  1.5205  1.3256
  186POPC  H11B21365   4.778   7.044   2.500 -0.5906  1.4978 -2.1076
  186POPC     P21366   5.089   7.038   2.471 -0.4531  0.1930 -0.2087
  186POPC   O1321367   5.186   7.121   2.398  0.1161  0.4849 -0.4691
  186POPC   O1421368   5.128   6.900   2.503  0.1734 -0.0577  0.1243
  186POPC   O1221369   4.952   7.041   2.393 -0.0636 -0.4226  0.0794
  186POPC   O1121370   5.052   7.109   2.606  0.0182  0.4678  0.0915
  186POPC    C121371   5.041   7.247   2.619 -0.0331  0.0756 -0.0586
  186POPC    HA21372   4.940   7.288   2.598 -0.1937 -0.4152 -0.2395
  186POPC    HB21373   5.103   7.303   2.546  0.4865  0.4088  0.6240
  186POPC    C221374   5.088   7.303   2.754 -0.1552  1.0213 -0.5705
  186POPC    HS21375   5.199   7.294   2.752 -0.0870  0.0806  2.4147
  186POPC   O2121376   5.038   7.230   2.870 -0.7921  0.4491 -0.6508
  186POPC   C2121377   5.114   7.249   2.983 -0.3674 -0.1574  0.9753
  186POPC   O2221378   5.220   7.308   2.990 -0.2095 -0.0135  0.1363
  186POPC   C2221379   5.045   7.173   3.101 -0.4172 -0.0540 -0.0381
  186POPC   H2R21380   5.089   7.071   3.101  0.7000  0.4093  0.3086
  186POPC   H2S21381   4.935   7.171   3.085 -0.4141  0.0909 -0.0872
  186POPC    C321382   5.054   7.455   2.760 -0.7590  0.5637 -0.6047
  186POPC    HX21383   5.098   7.496   2.667 -0.4999 -0.0250 -0.7456
  186POPC    HY21384   5.123   7.491   2.840 -0.5111  0.6852 -0.8737
  186POPC   O3121385   4.914   7.476   2.772 -0.1053  0.0853  0.3199
  186POPC   C3121386   4.872   7.503   2.903  0.1592 -0.5784 -0.2535
  186POPC   O3221387   4.951   7.528   2.994 -0.4034 -0.4810  0.9638
  186POPC   C3221388   4.727   7.498   2.914  0.5830  0.5936  0.4087
  186POPC   H2X21389   4.690   7.394   2.929 -1.4033  1.2971  0.6975
  186POPC   H2Y21390   4.676   7.528   2.820  0.3013 -1.7852 -0.2460
  186POPC   C2321391   5.069   7.247   3.240  0.3353  0.2868 -0.9765
  186POPC   H3R21392   5.044   7.353   3.220 -1.4540  0.0103 -0.3348
  186POPC   H3S21393   5.179   7.236   3.254  0.1633 -0.6385 -0.2687
  186POPC   C2421394   5.000   7.180   3.361  0.6881  0.0731  0.0379
  186POPC   H4R21395   4.994   7.070   3.346  1.4081  0.2687 -2.0434
  186POPC   H4S21396   4.895   7.214   3.350  0.2983 -1.1010 -0.0725
  186POPC   C2521397   5.054   7.220   3.493  0.2718  0.0054 -0.7322
  186POPC   H5R21398   5.064   7.330   3.504 -1.1375  0.3643 -2.6242
  186POPC   H5S21399   5.154   7.171   3.494  0.1151 -0.3154  0.4755
  186POPC   C2621400   4.979   7.152   3.607  0.3530  0.1300  0.2636
  186POPC   H6R21401   4.981   7.042   3.595 -0.8175  0.2399 -1.2969
  186POPC   H6S21402   4.870   7.168   3.594  0.2916  0.0397  0.6692
  186POPC   C2721403   5.032   7.187   3.741 -0.7064 -0.4629 -0.2646
  186POPC   H7R21404   5.055   7.295   3.741  0.1033 -0.6218  0.5961
  186POPC   H7S21405   5.136   7.152   3.761 -0.3491  0.7098 -0.0051
  186POPC   C2821406   4.942   7.154   3.854  0.0107  0.3202 -0.2604
  186POPC   H8R21407   4.893   7.058   3.828  0.2042 -0.0325  0.6138
  186POPC   H8S21408   4.857   7.225   3.861  0.5191  0.7631  3.4515
  186POPC   C2921409   5.002   7.120   3.987  0.0903 -0.0981 -0.0167
  186POPC   H9121410   5.044   7.018   3.992 -1.9802 -1.0210 -0.4784
  186POPC  C21021411   5.012   7.206   4.091  0.7251 -0.6402 -0.1514
  186POPC  H10121412   5.048   7.170   4.188  0.0567  0.8639  0.6722
  186POPC  C21121413   4.956   7.346   4.095  0.1453 -0.4335  0.8542
  186POPC  H11R21414   4.846   7.346   4.084  0.1303 -0.3579  1.0055
  186POPC  H11S21415   4.981   7.394   3.998 -0.7908  0.9987  1.2861
  186POPC  C21221416   5.004   7.436   4.218  0.1079 -0.1624  0.3075
  186POPC  H12R21417   4.968   7.540   4.201  0.9014 -0.0259 -0.6497
  186POPC  H12S21418   5.114   7.439   4.228  0.0845  1.0886  0.3862
  186POPC  C21321419   4.932   7.387   4.346 -0.6265  0.1666  0.4406
  186POPC  H13R21420   4.954   7.279   4.358 -1.0410  0.1933  1.5253
  186POPC  H13S21421   4.822   7.398   4.338 -1.1239 -1.2892  3.5936
  186POPC  C21421422   4.985   7.447   4.480 -0.0621 -0.0033 -0.0595
  186POPC  H14R21423   4.909   7.420   4.557  2.1383 -0.7384  2.0177
  186POPC  H14S21424   4.973   7.557   4.478  2.2963  0.2979 -0.5563
  186POPC  C21521425   5.132   7.411   4.511 -0.3281  0.0856  0.3265
  186POPC  H15R21426   5.190   7.506   4.511  1.2534 -0.8194 -0.7741
  186POPC  H15S21427   5.179   7.345   4.435 -3.3151 -0.6715 -0.9930
  186POPC  C21621428   5.153   7.352   4.653  0.0883 -0.4933  0.2757
  186POPC  H16R21429   5.102   7.254   4.659  0.7569 -0.9161 -0.7931
  186POPC  H16S21430   5.105   7.418   4.729 -1.2154  0.9700 -1.7334
  186POPC  C21721431   5.302   7.341   4.690  0.1986 -0.0466 -0.2192
  186POPC  H17R21432   5.347   7.438   4.657 -0.0758  0.7025  1.5056
  186POPC  H17S21433   5.362   7.271   4.628  1.3958  1.5541 -0.9694
  186POPC  C21821434   5.331   7.332   4.840 -0.8494 -0.2093 -0.1486
  186POPC  H18R21435   5.302   7.425   4.894  0.9652 -0.4860  1.3881
  186POPC  H18S21436   5.282   7.246   4.890 -1.6286  0.2502 -0.0930
  186POPC  H18T21437   5.441   7.326   4.844 -0.8267 -1.0250 -1.3912
  186POPC   C3321438   4.665   7.596   3.013  0.8284 -0.2134  0.7530
  186POPC   H3X21439   4.558   7.622   2.998  1.7709  2.0639 -3.7276
  186POPC   H3Y21440   4.719   7.692   3.021  0.6675 -0.0390 -0.0659
  186POPC   C3421441   4.658   7.535   3.156 -0.3293 -0.2371  0.1282
  186POPC   H4X21442   4.763   7.533   3.193  0.5763  0.6210 -2.1807
  186POPC   H4Y21443   4.612   7.435   3.147  1.0242 -0.7925 -1.0212
  186POPC   C3521444   4.571   7.613   3.256 -0.3576 -0.1147 -0.4842
  186POPC   H5X21445   4.468   7.637   3.221 -0.1124  4.1795  1.0770
  186POPC   H5Y21446   4.626   7.709   3.263  0.5976 -0.7471  1.4334
  186POPC   C3621447   4.580   7.551   3.401 -0.0858  0.0204  1.1191
  186POPC   H6X21448   4.680   7.506   3.420 -0.1339  0.0464  1.4310
  186POPC   H6Y21449   4.505   7.469   3.406 -0.3434  0.2494  1.0239
  186POPC   C3721450   4.558   7.653   3.520 -0.5604 -0.3618  0.6454
  186POPC   H7X21451   4.454   7.690   3.512 -0.9841 -1.3622  1.2757
  186POPC   H7Y21452   4.640   7.726   3.502  1.2321 -2.8629 -2.3326
  186POPC   C3821453   4.589   7.591   3.661 -0.7013 -0.0391  0.0564
  186POPC   H8X21454   4.674   7.520   3.652 -2.1324 -1.7984 -0.0474
  186POPC   H8Y21455   4.505   7.527   3.694 -1.5378  0.4202 -1.1410
  186POPC   C3921456   4.611   7.695   3.769 -1.1203 -0.2831  0.2132
  186POPC   H9X21457   4.531   7.767   3.798 -0.8405 -0.4672  1.4642
  186POPC   H9Y21458   4.704   7.752   3.747 -1.7919  0.9750  0.5145
  186POPC  C31021459   4.652   7.644   3.909  0.3210  0.0371 -0.1167
  186POPC  H10X21460   4.737   7.574   3.895  1.8330  1.9942 -1.2490
  186POPC  H10Y21461   4.566   7.582   3.944  0.3527  0.8433  1.4715
  186POPC  C31121462   4.669   7.738   4.027 -0.1766 -0.4037  0.1541
  186POPC  H11X21463   4.584   7.810   4.030  1.7813  2.0767  2.7952
  186POPC  H11Y21464   4.767   7.790   4.013  0.0424 -0.9615 -0.4310
  186POPC  C31221465   4.662   7.662   4.158  0.0829  0.4238 -0.1067
  186POPC  H12X21466   4.740   7.582   4.163  0.8545  1.0070 -1.8596
  186POPC  H12Y21467   4.565   7.608   4.166  0.2981  0.1006  0.3433
  186POPC  C31321468   4.686   7.756   4.276  0.1265 -0.3255  0.4578
  186POPC  H13X21469   4.624   7.847   4.265 -2.4584 -1.9941  0.4669
  186POPC  H13Y21470   4.794   7.782   4.275  0.4660 -1.4041  2.6187
  186POPC  C31421471   4.664   7.695   4.416  0.4646  0.6071  0.6003
  186POPC  H14X21472   4.731   7.607   4.424 -0.1432  0.2165  1.6264
  186POPC  H14Y21473   4.562   7.653   4.432  0.3422  1.0641  1.0744
  186POPC  C31521474   4.705   7.784   4.536  0.1130 -0.8029  0.1001
  186POPC  H15X21475   4.634   7.869   4.547  1.7531  0.4443  1.8065
  186POPC  H15Y21476   4.805   7.831   4.522 -0.8361  1.2048 -0.2929
  186POPC  C31621477   4.704   7.706   4.665  0.1479 -0.0643  0.0818
  186POPC  H16X21478   4.735   7.772   4.750 -1.6386 -1.5814  2.0152
  186POPC  H16Y21479   4.775   7.623   4.651 -0.1588 -0.0793 -1.4747
  186POPC  H16Z21480   4.603   7.665   4.687  0.9350 -1.5458  1.1347
  187POPC     N21481   2.401   4.665   1.838  0.0424 -0.2137 -0.0637
  187POPC   C1221482   2.333   4.798   1.880 -0.1577  0.0853 -0.1231
  187POPC  H12A21483   2.271   4.773   1.965  0.9335 -0.7808  0.4562
  187POPC  H12B21484   2.283   4.845   1.797  0.0793  2.0837  0.7881
  187POPC   C1321485   2.297   4.594   1.761  0.1955  0.5117 -0.2958
  187POPC  H13A21486   2.268   4.654   1.677  0.4182 -2.4668 -2.6639
  187POPC  H13B21487   2.346   4.509   1.716 -0.2908 -0.4530  0.9341
  187POPC  H13C21488   2.208   4.573   1.819  0.0268  1.2490 -0.2846
  187POPC   C1421489   2.519   4.679   1.753 -0.4514 -0.7090  0.6240
  187POPC  H14A21490   2.545   4.585   1.707 -1.1956 -0.4297 -0.4008
  187POPC  H14B21491   2.490   4.751   1.678 -1.1711 -1.5000  0.1388
  187POPC  H14C21492   2.608   4.718   1.802  0.1559 -0.2873 -0.7748
  187POPC   C1521493   2.445   4.586   1.955 -0.3902  0.0285 -0.0316
  187POPC  H15A21494   2.482   4.486   1.938  0.4031  0.3130 -0.0117
  187POPC  H15B21495   2.363   4.552   2.016 -1.7964  0.8274 -1.4027
  187POPC  H15C21496   2.502   4.646   2.024  0.1264 -0.6527  0.1380
  187POPC   C1121497   2.412   4.919   1.938 -0.8790 -0.4090 -0.1942
  187POPC  H11A21498   2.340   5.003   1.924 -1.5360 -0.7587  1.0206
  187POPC  H11B21499   2.499   4.946   1.874 -0.5454  0.8479  0.7528
  187POPC     P21500   2.346   4.873   2.197  0.1494  0.1452 -0.3851
  187POPC   O1321501   2.224   4.813   2.138  0.2977  0.6146 -0.4447
  187POPC   O1421502   2.331   4.982   2.293 -0.3528 -0.8580  0.1958
  187POPC   O1221503   2.442   4.916   2.082 -0.3855 -0.3099  0.5292
  187POPC   O1121504   2.428   4.765   2.275 -0.4358  0.6050 -0.6234
  187POPC    C121505   2.568   4.769   2.314  0.4925 -0.1710 -0.0751
  187POPC    HA21506   2.591   4.869   2.356  0.8821  0.1116 -0.9340
  187POPC    HB21507   2.633   4.724   2.235  1.5586 -1.1766  1.3118
  187POPC    C221508   2.589   4.655   2.419  0.4089 -0.2240  0.0958
  187POPC    HS21509   2.514   4.576   2.396 -1.6165  1.7324 -0.4449
  187POPC   O2121510   2.560   4.701   2.548 -0.4861  0.0697  0.2863
  187POPC   C2121511   2.443   4.663   2.603  0.7116  0.1726 -0.0953
  187POPC   O2221512   2.360   4.588   2.550 -0.0520 -0.0826 -0.0714
  187POPC   C2221513   2.434   4.709   2.750 -0.8990 -0.0021  0.1984
  187POPC   H2R21514   2.424   4.820   2.746  0.8263  0.1518 -1.3816
  187POPC   H2S21515   2.532   4.676   2.792  0.3598 -0.4552 -2.8123
  187POPC    C321516   2.727   4.601   2.420 -0.3004  0.1018  0.1596
  187POPC    HX21517   2.797   4.685   2.439 -0.5325  0.1429  0.8316
  187POPC    HY21518   2.742   4.555   2.320 -0.3843  0.6299 -0.0985
  187POPC   O3121519   2.737   4.486   2.509  0.0747 -0.9483  0.5378
  187POPC   C3121520   2.795   4.512   2.627 -0.5466  0.4918  0.3886
  187POPC   O3221521   2.832   4.619   2.668 -0.4834 -0.0986 -0.4135
  187POPC   C3221522   2.805   4.387   2.715  0.5139 -0.4157 -0.8883
  187POPC   H2X21523   2.761   4.299   2.663  1.3314 -0.7947 -0.9409
  187POPC   H2Y21524   2.751   4.402   2.811  1.2431  1.1550 -0.6957
  187POPC   C2321525   2.315   4.656   2.838 -0.0364 -0.6723 -0.1478
  187POPC   H3R21526   2.302   4.546   2.824  0.0163 -0.8323  0.9631
  187POPC   H3S21527   2.220   4.701   2.802  0.6545 -0.8078 -2.2363
  187POPC   C2421528   2.340   4.689   2.987  0.2550 -0.7230 -0.3028
  187POPC   H4R21529   2.405   4.779   2.987  0.4069 -0.8097 -2.0173
  187POPC   H4S21530   2.387   4.603   3.040  0.8950  1.0864  2.2766
  187POPC   C2521531   2.208   4.709   3.050  0.7520 -0.2962 -0.8428
  187POPC   H5R21532   2.151   4.626   3.001  3.1354 -2.5407 -0.0279
  187POPC   H5S21533   2.163   4.803   3.011  1.1588 -0.5958 -2.0903
  187POPC   C2621534   2.204   4.722   3.205 -0.3419 -0.4861 -0.2093
  187POPC   H6R21535   2.236   4.626   3.249  2.4028  0.4220 -0.0514
  187POPC   H6S21536   2.100   4.745   3.237 -0.3850  1.2284 -1.3970
  187POPC   C2721537   2.301   4.830   3.251 -0.0657  0.7411 -0.7533
  187POPC   H7R21538   2.261   4.926   3.210 -3.8552 -0.1389  0.4788
  187POPC   H7S21539   2.398   4.798   3.206  0.9139  1.4376  0.7904
  187POPC   C2821540   2.325   4.841   3.410  0.4285  0.3292  0.4131
  187POPC   H8R21541   2.423   4.891   3.423  1.2186 -1.0148 -0.1869
  187POPC   H8S21542   2.352   4.741   3.449  2.4647 -0.1988 -2.0781
  187POPC   C2921543   2.224   4.919   3.498  0.8135  0.2039  0.2421
  187POPC   H9121544   2.169   4.997   3.443 -1.0002 -1.4792 -0.4741
  187POPC  C21021545   2.203   4.894   3.627 -0.6321 -0.2745 -0.9402
  187POPC  H10121546   2.136   4.952   3.693 -0.6326 -0.4259 -0.8090
  187POPC  C21121547   2.275   4.792   3.712  0.1687  0.1481  0.3880
  187POPC  H11R21548   2.369   4.832   3.755 -0.2213 -0.4159  1.8353
  187POPC  H11S21549   2.295   4.699   3.655 -1.5734  0.8815 -1.5316
  187POPC  C21221550   2.160   4.757   3.821  0.2045  0.3164  0.4589
  187POPC  H12R21551   2.202   4.661   3.858 -0.2585 -1.0063 -2.2145
  187POPC  H12S21552   2.060   4.733   3.780 -0.6439 -0.9956  3.0701
  187POPC  C21321553   2.139   4.858   3.934 -0.3972  0.3853  0.3341
  187POPC  H13R21554   2.107   4.957   3.897  0.6457  0.5862 -0.0393
  187POPC  H13S21555   2.240   4.888   3.969 -1.0816  3.2743  0.0902
  187POPC  C21421556   2.049   4.813   4.053 -0.2445  0.7084  0.0555
  187POPC  H14R21557   2.089   4.716   4.091  0.0599 -0.4502 -2.9425
  187POPC  H14S21558   1.945   4.787   4.021  0.1783 -1.4539  0.3113
  187POPC  C21521559   2.052   4.922   4.157 -0.2049  0.2035 -1.4621
  187POPC  H15R21560   1.989   5.003   4.114 -2.9435 -0.3457  1.1328
  187POPC  H15S21561   2.153   4.966   4.168 -0.0957  0.0485 -1.8561
  187POPC  C21621562   1.991   4.879   4.294  0.3284  0.0439  0.3062
  187POPC  H16R21563   1.994   4.960   4.369  0.8243  0.1048  0.2212
  187POPC  H16S21564   2.051   4.802   4.346 -1.9460 -0.9869  1.5196
  187POPC  C21721565   1.850   4.844   4.278  0.3644  0.1253 -0.3085
  187POPC  H17R21566   1.839   4.758   4.208 -0.0257 -0.8999  0.9683
  187POPC  H17S21567   1.799   4.936   4.243  1.4541 -0.2243 -3.0490
  187POPC  C21821568   1.784   4.791   4.410 -0.0370  0.1474 -0.1132
  187POPC  H18R21569   1.862   4.729   4.460  1.1284  0.0806 -1.9275
  187POPC  H18S21570   1.700   4.726   4.377  1.1728 -0.6865 -1.6757
  187POPC  H18T21571   1.738   4.867   4.477 -2.3243 -0.9784 -0.3191
  187POPC   C3321572   2.947   4.356   2.760  0.1178  0.5152  0.1357
  187POPC   H3X21573   3.026   4.363   2.682 -1.1010  0.4266 -1.1407
  187POPC   H3Y21574   2.951   4.247   2.779 -1.9447  0.4331  0.2706
  187POPC   C3421575   2.980   4.436   2.895  0.6196 -0.3011  0.4917
  187POPC   H4X21576   2.881   4.462   2.938  0.7018  1.6982 -0.3988
  187POPC   H4Y21577   3.020   4.534   2.861  0.3038 -1.0561 -2.3551
  187POPC   C3521578   3.080   4.370   2.988  0.5450 -0.8010 -0.4809
  187POPC   H5X21579   3.179   4.354   2.940  0.6206  2.2368 -1.5836
  187POPC   H5Y21580   3.034   4.269   2.997  1.3776 -1.2014 -0.6004
  187POPC   C3621581   3.091   4.449   3.121  0.0816  0.3710  0.7282
  187POPC   H6X21582   2.995   4.448   3.176 -1.3009 -1.3305 -1.5239
  187POPC   H6Y21583   3.107   4.556   3.092 -0.2642  0.2525  0.0821
  187POPC   C3721584   3.209   4.399   3.211  0.1647 -0.4050 -0.3621
  187POPC   H7X21585   3.302   4.405   3.150  0.6809 -1.7533  0.2531
  187POPC   H7Y21586   3.188   4.294   3.242 -1.4963  0.1353  0.4154
  187POPC   C3821587   3.245   4.479   3.337  0.0305 -0.5096 -0.1671
  187POPC   H8X21588   3.245   4.584   3.304  0.5700 -0.2053  0.7655
  187POPC   H8Y21589   3.347   4.458   3.375  0.4877  0.6251 -0.7237
  187POPC   C3921590   3.152   4.449   3.451 -0.3002  0.2452  0.0277
  187POPC   H9X21591   3.147   4.339   3.469 -0.9136  0.4242  0.9845
  187POPC   H9Y21592   3.047   4.477   3.425  0.2242  2.3990  0.1143
  187POPC  C31021593   3.186   4.536   3.570  0.3675 -0.2384 -0.6777
  187POPC  H10X21594   3.158   4.641   3.550  0.2922  0.7310  3.5294
  187POPC  H10Y21595   3.296   4.533   3.585 -0.0151 -0.1678  3.3180
  187POPC  C31121596   3.133   4.493   3.705 -0.3387  0.1241 -0.6203
  187POPC  H11X21597   3.130   4.383   3.722 -1.2708  0.1613 -0.4868
  187POPC  H11Y21598   3.024   4.515   3.707 -0.9635 -2.6421  0.7836
  187POPC  C31221599   3.197   4.577   3.821 -0.7183  0.3745  0.3600
  187POPC  H12X21600   3.197   4.687   3.805  1.4854  0.4247  0.5097
  187POPC  H12Y21601   3.304   4.549   3.819 -1.0335 -0.9465  1.0951
  187POPC  C31321602   3.142   4.554   3.961  0.4493 -0.0324 -0.1476
  187POPC  H13X21603   3.193   4.632   4.022 -1.1448  0.6123  0.4078
  187POPC  H13Y21604   3.179   4.458   4.003  0.7858 -0.1133 -0.6272
  187POPC  C31421605   2.991   4.578   3.981 -0.3052 -0.1620  0.7567
  187POPC  H14X21606   2.931   4.530   3.901  0.9669 -2.0497  0.8679
  187POPC  H14Y21607   2.987   4.689   3.978 -3.5284 -0.1640  1.7239
  187POPC  C31521608   2.937   4.541   4.115 -0.2505 -0.6765 -0.0764
  187POPC  H15X21609   2.957   4.433   4.133 -0.5861 -0.7097  0.1144
  187POPC  H15Y21610   2.828   4.563   4.115 -0.1650 -0.2276  0.2344
  187POPC  C31621611   3.005   4.613   4.230 -0.0496 -0.4569  0.6007
  187POPC  H16X21612   2.956   4.581   4.325 -0.9018  0.0568  0.3516
  187POPC  H16Y21613   3.000   4.723   4.217  0.2908 -0.6097 -0.9637
  187POPC  H16Z21614   3.113   4.591   4.234  0.4592  0.6622 -3.0938
  188POPC     N21615   6.635   3.788   1.775  1.1880 -0.2573  0.8782
  188POPC   C1221616   6.641   3.773   1.931  0.1183  0.2234  0.1056
  188POPC  H12A21617   6.674   3.866   1.973  3.3621 -0.3229 -0.9949
  188POPC  H12B21618   6.722   3.703   1.936 -1.3857 -1.7724 -1.5070
  188POPC   C1321619   6.588   3.668   1.710 -0.4387  0.1149  0.1903
  188POPC  H13A21620   6.505   3.618   1.757 -1.6685  2.5214  0.7407
  188POPC  H13B21621   6.564   3.684   1.606  0.6569  0.1760 -0.0677
  188POPC  H13C21622   6.660   3.588   1.713 -1.6372 -1.3040 -3.6880
  188POPC   C1421623   6.545   3.906   1.747  0.1071 -0.5092 -0.1298
  188POPC  H14A21624   6.575   3.995   1.800 -0.5248 -0.6171  0.4335
  188POPC  H14B21625   6.541   3.926   1.641 -0.4912  0.5999  0.0780
  188POPC  H14C21626   6.444   3.886   1.780  0.6922 -1.0698  1.4091
  188POPC   C1521627   6.765   3.831   1.710 -0.6726  0.4018 -0.3799
  188POPC  H15A21628   6.747   3.887   1.620 -0.6738 -1.0658 -1.3259
  188POPC  H15B21629   6.829   3.749   1.682  0.3388  0.6210  1.1869
  188POPC  H15C21630   6.819   3.883   1.788  0.2495 -0.7966 -0.1853
  188POPC   C1121631   6.517   3.725   2.012 -0.7144  0.6410  0.3395
  188POPC  H11A21632   6.550   3.694   2.113 -0.5450  0.9073  0.3674
  188POPC  H11B21633   6.475   3.635   1.962  1.0603  0.4514 -0.8932
  188POPC     P21634   6.415   3.946   2.120 -0.6054  0.4540 -0.2365
  188POPC   O1321635   6.285   4.017   2.094  0.1850 -0.2111  0.1067
  188POPC   O1421636   6.542   4.026   2.105  0.3968 -0.0054  0.1425
  188POPC   O1221637   6.420   3.825   2.018  0.4240 -0.6752 -0.0386
  188POPC   O1121638   6.406   3.889   2.268  0.1655  0.2305 -0.5453
  188POPC    C121639   6.331   3.772   2.316 -0.7875 -0.1382 -0.1738
  188POPC    HA21640   6.406   3.693   2.339 -2.8201 -2.7799 -2.0403
  188POPC    HB21641   6.258   3.731   2.243  0.3892  0.1483 -1.5759
  188POPC    C221642   6.271   3.796   2.458 -0.2085  0.3608 -0.3192
  188POPC    HS21643   6.178   3.858   2.450 -0.2557  0.2856 -0.3539
  188POPC   O2121644   6.380   3.855   2.536  0.2888 -0.5619 -0.2444
  188POPC   C2121645   6.376   3.986   2.533  0.3085 -0.1839 -0.2839
  188POPC   O2221646   6.292   4.057   2.476 -0.3798  0.2835 -0.5745
  188POPC   C2221647   6.476   4.045   2.636  0.2115 -0.1345  0.1205
  188POPC   H2R21648   6.516   4.141   2.599  0.0225 -0.4165 -0.8540
  188POPC   H2S21649   6.554   3.966   2.643 -0.4144 -0.7809 -0.0656
  188POPC    C321650   6.217   3.659   2.530  0.4080  0.5419 -0.5531
  188POPC    HX21651   6.290   3.579   2.506  0.8335  0.5322  0.7119
  188POPC    HY21652   6.119   3.641   2.482  0.9526  0.0437 -1.5056
  188POPC   O3121653   6.216   3.668   2.672 -0.4475 -0.0574 -0.6526
  188POPC   C3121654   6.113   3.737   2.731 -0.6297 -0.1693  0.3384
  188POPC   O3221655   6.030   3.800   2.666 -0.3883  0.3976 -0.1911
  188POPC   C3221656   6.138   3.746   2.884  0.4995  0.0709 -0.3400
  188POPC   H2X21657   6.246   3.766   2.899  0.3975 -0.1369  0.8119
  188POPC   H2Y21658   6.116   3.648   2.931  1.6158 -0.1523 -0.2682
  188POPC   C2321659   6.409   4.048   2.780  0.0068 -0.2155  0.3328
  188POPC   H3R21660   6.366   3.948   2.800 -0.1633 -0.3883 -0.8492
  188POPC   H3S21661   6.322   4.118   2.788 -0.4343 -0.8355  1.1610
  188POPC   C2421662   6.521   4.068   2.883 -0.1532 -0.2535  0.1535
  188POPC   H4R21663   6.553   4.174   2.885 -1.1140  0.1165 -1.7489
  188POPC   H4S21664   6.610   4.011   2.849 -0.1137 -1.8133  2.6319
  188POPC   C2521665   6.498   4.015   3.029  0.1664 -0.3504  0.2105
  188POPC   H5R21666   6.585   3.990   3.093 -0.3377 -2.1050  0.2881
  188POPC   H5S21667   6.442   3.920   3.013 -0.0543  0.0677 -1.8638
  188POPC   C2621668   6.422   4.119   3.107 -0.5838 -0.3865 -0.2558
  188POPC   H6R21669   6.330   4.148   3.051 -1.1843  1.3264  1.5219
  188POPC   H6S21670   6.495   4.201   3.096  0.0829 -0.8447  0.6346
  188POPC   C2721671   6.398   4.093   3.255 -0.1075  0.1527 -0.7378
  188POPC   H7R21672   6.503   4.077   3.288 -0.5999 -0.8263  0.4532
  188POPC   H7S21673   6.336   4.002   3.270  0.5861 -0.3257 -0.6945
  188POPC   C2821674   6.330   4.216   3.318  0.2020  0.1853 -0.9551
  188POPC   H8R21675   6.377   4.310   3.282 -1.0846  0.9050 -0.8087
  188POPC   H8S21676   6.350   4.214   3.428 -3.0496  1.0477 -0.2286
  188POPC   C2921677   6.182   4.220   3.282  0.0593 -0.8794 -0.5520
  188POPC   H9121678   6.145   4.152   3.204  1.2595 -0.4165 -1.5419
  188POPC  C21021679   6.092   4.304   3.339  0.2872 -0.2773 -0.4351
  188POPC  H10121680   5.985   4.288   3.320  0.1360  1.2212 -0.9404
  188POPC  C21121681   6.118   4.416   3.437  0.0591  0.7706 -0.0158
  188POPC  H11R21682   6.081   4.512   3.396 -0.1701  1.5406  1.8716
  188POPC  H11S21683   6.227   4.432   3.451 -0.1155  2.9601 -0.8366
  188POPC  C21221684   6.049   4.417   3.578  0.0191  0.1581  0.1475
  188POPC  H12R21685   6.048   4.527   3.595 -0.5808  0.1344  0.3067
  188POPC  H12S21686   6.111   4.350   3.640 -1.5868 -0.7110  0.8621
  188POPC  C21321687   5.908   4.370   3.570 -0.5855 -0.4364 -0.1037
  188POPC  H13R21688   5.910   4.260   3.564 -3.0418 -0.6317  1.3864
  188POPC  H13S21689   5.867   4.414   3.476  0.6060  0.3540 -0.2816
  188POPC  C21421690   5.817   4.418   3.684 -0.1877 -0.4012  0.2724
  188POPC  H14R21691   5.713   4.382   3.675 -1.3122  2.0127  2.2437
  188POPC  H14S21692   5.812   4.529   3.678  1.2054 -0.3836 -1.4297
  188POPC  C21521693   5.873   4.369   3.820 -0.2092 -0.1425  0.1263
  188POPC  H15R21694   5.967   4.426   3.837  0.3910 -0.9761 -0.3128
  188POPC  H15S21695   5.902   4.262   3.815 -1.6822 -0.4938 -2.0064
  188POPC  C21621696   5.770   4.380   3.930  1.0396  0.3339 -0.6554
  188POPC  H16R21697   5.690   4.307   3.906  1.7542  0.0516 -2.2907
  188POPC  H16S21698   5.724   4.479   3.911  0.1605  0.2336  0.7635
  188POPC  C21721699   5.810   4.355   4.071 -0.0517  0.0426  0.4560
  188POPC  H17R21700   5.863   4.444   4.109 -0.4174  0.2085  0.5885
  188POPC  H17S21701   5.884   4.273   4.080 -0.5803 -0.4057  0.7963
  188POPC  C21821702   5.688   4.336   4.169  0.6074  0.2608 -0.0579
  188POPC  H18R21703   5.654   4.432   4.211  2.5249 -0.0261  2.3598
  188POPC  H18S21704   5.727   4.281   4.257  0.4681 -1.7923 -1.2029
  188POPC  H18T21705   5.601   4.287   4.121  0.7134 -0.5214  0.5188
  188POPC   C3321706   6.054   3.858   2.951 -0.3995  0.2053 -0.7443
  188POPC   H3X21707   5.950   3.825   2.930 -0.8585  0.5926  0.7753
  188POPC   H3Y21708   6.086   3.957   2.911  1.1907 -0.9190 -2.4283
  188POPC   C3421709   6.081   3.865   3.102  0.2103  0.5217 -0.2205
  188POPC   H4X21710   6.131   3.964   3.112 -1.5170  1.5752 -1.5983
  188POPC   H4Y21711   6.159   3.791   3.131  1.0755  1.2378 -0.6638
  188POPC   C3521712   5.949   3.849   3.196  0.4215 -0.1171 -0.7820
  188POPC   H5X21713   5.889   3.765   3.154  0.5440 -0.0813 -1.0334
  188POPC   H5Y21714   5.879   3.935   3.185  1.4622  0.9774  0.7415
  188POPC   C3621715   5.965   3.827   3.342  0.6630 -0.1873 -0.3774
  188POPC   H6X21716   6.014   3.729   3.362  2.0670  0.8030  1.3348
  188POPC   H6Y21717   5.868   3.832   3.396  0.8654  2.2914 -0.1451
  188POPC   C3721718   6.057   3.929   3.410 -0.4007  0.4766 -0.0475
  188POPC   H7X21719   6.013   4.030   3.397  1.2437  1.1110 -0.8611
  188POPC   H7Y21720   6.155   3.930   3.358 -0.8289 -0.1835 -0.8930
  188POPC   C3821721   6.085   3.908   3.563 -0.6311  1.3752  0.3174
  188POPC   H8X21722   6.131   3.807   3.575  0.0614  1.6040 -0.2996
  188POPC   H8Y21723   5.989   3.894   3.616  1.3262 -2.1802  3.4661
  188POPC   C3921724   6.188   4.007   3.628  0.1207 -0.1963 -0.7569
  188POPC   H9X21725   6.137   4.106   3.634  0.8490  0.2162 -1.3312
  188POPC   H9Y21726   6.263   4.018   3.547 -1.0059  1.4226 -1.6619
  188POPC  C31021727   6.263   3.964   3.755 -0.5782 -0.0164  0.3417
  188POPC  H10X21728   6.335   4.041   3.788 -3.7709  2.4037  2.1964
  188POPC  H10Y21729   6.321   3.871   3.738 -0.4622  0.2002 -0.4988
  188POPC  C31121730   6.174   3.935   3.866 -0.0498  0.2066  0.1160
  188POPC  H11X21731   6.103   3.854   3.835 -0.2177  0.0121  0.9828
  188POPC  H11Y21732   6.109   4.020   3.895 -4.3286 -3.3000  2.0228
  188POPC  C31221733   6.240   3.869   3.992 -1.0153  0.4430 -0.2676
  188POPC  H12X21734   6.320   3.930   4.038 -0.5266 -0.3419 -0.0533
  188POPC  H12Y21735   6.290   3.777   3.953 -1.2828  0.9324 -1.8357
  188POPC  C31321736   6.135   3.843   4.096 -0.4964  0.2243  0.4143
  188POPC  H13X21737   6.053   3.787   4.046  0.2090 -0.1918 -0.2910
  188POPC  H13Y21738   6.104   3.943   4.133  0.2928  1.0002 -0.9254
  188POPC  C31421739   6.180   3.746   4.203 -0.9000 -0.4345 -0.0399
  188POPC  H14X21740   6.255   3.789   4.272 -0.3623 -0.5805 -0.5195
  188POPC  H14Y21741   6.239   3.662   4.159 -0.7004 -0.1139 -0.3842
  188POPC  C31521742   6.056   3.699   4.279 -0.0604 -0.1214 -0.0916
  188POPC  H15X21743   5.987   3.644   4.212  1.0883 -1.6297 -0.0836
  188POPC  H15Y21744   6.001   3.779   4.334 -1.3637 -0.8602 -0.2915
  188POPC  C31621745   6.113   3.599   4.383  0.4932  0.1688  0.3047
  188POPC  H16X21746   6.185   3.529   4.336 -1.7023 -0.6102 -2.1571
  188POPC  H16Y21747   6.031   3.532   4.419  0.0517  0.1410 -0.7238
  188POPC  H16Z21748   6.170   3.647   4.465  0.2315  0.3700  0.3710
  189SAPI   C1221749   0.250   0.227   6.998 -0.2412 -0.5879 -0.1145
  189SAPI    H221750   0.257   0.313   6.927  0.9856  0.0558  0.7417
  189SAPI    O221751   0.379   0.222   7.061 -0.4877  0.1336  0.8092
  189SAPI   HO221752   0.440   0.223   6.987 -0.5654  0.2528  0.7467
  189SAPI   C1321753   0.140   0.256   7.094 -0.1045  0.1825  0.2923
  189SAPI    H321754   0.042   0.248   7.043 -0.7440 -1.9226  1.7289
  189SAPI    O321755   0.142   0.393   7.136 -0.0412  0.0253 -0.7387
  189SAPI   HO321756   0.233   0.410   7.160 -0.5431  1.9575 -0.0547
  189SAPI   C1421757   0.150   0.159   7.212  0.3437 -0.0597 -0.9024
  189SAPI    H421758   0.243   0.186   7.266 -0.5420  1.5384 -0.0909
  189SAPI    O421759   0.051   0.186   7.314 -0.8006  0.2567  0.5563
  189SAPI   HO421760   0.057   0.280   7.335  0.5574  0.3226  0.0254
  189SAPI   C1521761   0.142   0.014   7.162  0.1503 -0.2154  0.1763
  189SAPI    H521762   0.035  -0.011   7.151 -0.4059  1.7532  0.6624
  189SAPI    O521763   0.194  -0.072   7.264 -0.0005 -0.7425 -0.1853
  189SAPI   HO521764   0.130  -0.141   7.282 -0.7381 -0.4447 -1.5663
  189SAPI   C1621765   0.197  -0.022   7.021 -0.1830 -0.2759  0.5304
  189SAPI    H621766   0.296  -0.072   7.030 -0.2282 -0.3739  0.4773
  189SAPI    O621767   0.114  -0.124   6.967 -0.1123  0.2767  0.1031
  189SAPI   HO621768   0.039  -0.088   6.920 -1.6750 -2.4273  0.2997
  189SAPI   C1121769   0.222   0.097   6.929 -0.1328 -0.3653 -0.0713
  189SAPI    H121770   0.126   0.128   6.881 -0.5712  2.1981  2.1840
  189SAPI     P21771   0.336   0.140   6.687 -0.1748  0.0215  0.7735
  189SAPI   O1321772   0.436   0.070   6.601  0.2395 -0.0843 -0.3472
  189SAPI   O1421773   0.360   0.285   6.712 -0.5207  0.1174 -0.6441
  189SAPI   O1221774   0.313   0.053   6.823  0.6092 -0.3586 -0.1161
  189SAPI   O1121775   0.197   0.133   6.613 -0.1000 -0.2483 -0.3157
  189SAPI    C121776   0.147   0.012   6.554  0.0065  0.3137 -0.4005
  189SAPI    HA21777   0.186  -0.078   6.607  1.3608  0.1865 -1.5602
  189SAPI    HB21778   0.036   0.009   6.563 -0.1367  0.4612 -1.9359
  189SAPI    C221779   0.177  -0.001   6.402 -0.1195  0.3296  0.2161
  189SAPI    HS21780   0.279   0.037   6.379 -0.1117  1.4679  2.0239
  189SAPI   O2121781   0.084   0.076   6.322  0.3071  0.3100 -0.7794
  189SAPI   C2121782   0.118   0.206   6.307  1.2311 -0.8965 -0.0012
  189SAPI   O2221783   0.225   0.251   6.338 -0.3611 -0.2128 -0.8845
  189SAPI   C2221784  -0.003   0.286   6.253 -0.3373  0.0838  0.4943
  189SAPI   H2R21785  -0.089   0.216   6.256 -0.8169  0.6215 -0.2813
  189SAPI   H2S21786  -0.015   0.359   6.336  0.3521 -0.3153  0.9518
  189SAPI    C321787   0.179  -0.148   6.358 -0.8807 -0.2104  1.0112
  189SAPI    HX21788   0.075  -0.179   6.383 -1.1678  0.7634  1.0779
  189SAPI    HY21789   0.252  -0.203   6.421  0.0856  1.5065  1.4589
  189SAPI   O3121790   0.201  -0.161   6.213 -0.4994 -0.3221 -0.0222
  189SAPI   C3121791   0.230  -0.287   6.180 -0.2489 -0.2674  0.5982
  189SAPI   O3221792   0.224  -0.379   6.260  0.0087  0.3886  0.7592
  189SAPI   C3221793   0.288  -0.304   6.034  0.3559 -0.2560  0.3421
  189SAPI   H2X21794   0.362  -0.387   6.034 -3.3649 -3.8932 -1.3643
  189SAPI   H2Y21795   0.325  -0.206   5.997 -1.4239  0.7188  0.9857
  189SAPI   C2321796   0.015   0.371   6.122 -0.0544 -0.0171  0.1633
  189SAPI   H3R21797   0.059   0.466   6.158  0.2334 -0.5360  1.2529
  189SAPI   H3S21798  -0.082   0.393   6.072  0.2660  2.3904  0.4985
  189SAPI   C2421799   0.115   0.300   6.028  0.3968  0.2192 -0.3759
  189SAPI   H4R21800   0.213   0.287   6.080 -0.0332 -0.4680  0.2865
  189SAPI   H4S21801   0.136   0.375   5.949 -1.3268 -0.2131 -1.2935
  189SAPI   C2521802   0.060   0.169   5.974  0.1468  0.3367  0.1531
  189SAPI   H5R21803   0.066   0.079   6.037 -4.1844 -0.8199 -0.8115
  189SAPI   C2621804  -0.012   0.157   5.865  0.8880  0.5073 -0.4542
  189SAPI   H6R21805  -0.046   0.056   5.836  2.0722  0.0319 -0.2876
  189SAPI   C2721806  -0.056   0.255   5.764  0.5230 -0.1532  0.1449
  189SAPI   H7R21807   0.018   0.256   5.682 -1.8565 -0.6148 -2.1225
  189SAPI   H7S21808  -0.055   0.357   5.809 -1.7664  0.3784 -0.8567
  189SAPI   C2821809  -0.200   0.236   5.710  0.1344 -0.8600 -0.5094
  189SAPI   H8R21810  -0.287   0.268   5.769 -0.6482  0.1754 -2.1620
  189SAPI   C2921811  -0.221   0.195   5.586  0.1861  0.0292  0.5993
  189SAPI   H9R21812  -0.328   0.183   5.564 -0.1707 -0.1313  2.2677
  189SAPI  C21021813  -0.122   0.129   5.494  0.4276  0.2076 -0.5106
  189SAPI  H10R21814  -0.175   0.039   5.456 -0.8926  0.9417 -0.4784
  189SAPI  H10S21815  -0.036   0.093   5.554 -1.1894 -1.8168  0.7528
  189SAPI  C21121816  -0.068   0.218   5.386 -0.6252 -0.2120 -0.7599
  189SAPI  H11R21817   0.041   0.217   5.371 -0.7839  1.9838 -2.5232
  189SAPI  C21221818  -0.129   0.288   5.294 -0.4488  0.7614 -1.0328
  189SAPI  H12R21819  -0.068   0.348   5.224  1.2436  0.9844  0.5599
  189SAPI  C21321820  -0.274   0.324   5.282 -0.0553 -0.1342 -0.1412
  189SAPI  H13R21821  -0.282   0.421   5.229  0.5922  1.1346  1.9597
  189SAPI  H13S21822  -0.319   0.354   5.379 -1.7458  1.2056 -1.3009
  189SAPI  C21421823  -0.363   0.219   5.217  0.3777 -0.3437  0.6868
  189SAPI  H14R21824  -0.342   0.115   5.244  2.9643 -0.0514  0.0625
  189SAPI  C21521825  -0.485   0.254   5.155 -0.2200 -0.4469 -0.4769
  189SAPI  H15R21826  -0.537   0.177   5.096 -0.7904 -0.4971  0.0719
  189SAPI  C21621827  -0.555   0.389   5.144  0.0008 -0.3016 -0.0939
  189SAPI  H16R21828  -0.528   0.450   5.232  0.8433  0.4602 -0.8595
  189SAPI  H16S21829  -0.663   0.363   5.149  0.0545 -0.6851 -0.7495
  189SAPI  C21721830  -0.530   0.472   5.017  0.3353  0.1503  0.2392
  189SAPI  H17R21831  -0.550   0.410   4.926 -0.9922 -0.6262  1.0257
  189SAPI  H17S21832  -0.424   0.506   5.020  0.6914 -0.7496 -0.9551
  189SAPI  C21821833  -0.615   0.602   5.003 -0.3522 -0.1894 -0.5546
  189SAPI  H18R21834  -0.609   0.659   5.098  3.6925 -1.1583 -0.0730
  189SAPI  H18S21835  -0.720   0.565   4.995 -0.1947 -0.8974  0.4321
  189SAPI  C21921836  -0.580   0.697   4.890 -0.4581 -0.5755 -0.0838
  189SAPI  H19R21837  -0.598   0.647   4.792 -2.8069  2.5442 -1.4348
  189SAPI  H19S21838  -0.471   0.718   4.897 -0.9557  1.7779  3.2733
  189SAPI  C22021839  -0.670   0.816   4.897 -0.4353 -0.1737  0.4646
  189SAPI  H20R21840  -0.634   0.875   4.984 -0.2993 -0.7266  0.7880
  189SAPI  H20S21841  -0.780   0.803   4.908 -0.6480  1.1868  0.1518
  189SAPI  H20T21842  -0.655   0.882   4.809  0.0557 -0.3519  0.4188
  189SAPI   C3321843   0.172  -0.343   5.937  0.6874  0.0032  0.4189
  189SAPI   H3X21844   0.079  -0.283   5.939 -0.5188 -1.7204 -0.9575
  189SAPI   H3Y21845   0.136  -0.443   5.967  1.1843 -0.3387 -0.0883
  189SAPI   C3421846   0.218  -0.336   5.789  0.2300 -0.6143  0.1832
  189SAPI   H4X21847   0.162  -0.410   5.729 -1.3884  0.5105  0.2389
  189SAPI   H4Y21848   0.329  -0.349   5.785  0.6117  1.7068  1.1774
  189SAPI   C3521849   0.195  -0.193   5.727 -0.4650 -0.7250 -0.4540
  189SAPI   H5X21850   0.278  -0.123   5.749 -1.0639 -0.0745 -0.2488
  189SAPI   H5Y21851   0.104  -0.140   5.763  1.8231  4.2037 -1.1722
  189SAPI   C3621852   0.174  -0.200   5.569 -0.6865 -0.1288 -0.1630
  189SAPI   H6X21853   0.262  -0.240   5.516 -0.5635 -0.4928  0.3111
  189SAPI   H6Y21854   0.161  -0.092   5.543  0.3054 -0.0117 -0.2115
  189SAPI   C3721855   0.051  -0.277   5.520  0.2687 -0.3490  0.2560
  189SAPI   H7X21856  -0.044  -0.230   5.552 -0.5547 -1.6002 -0.2635
  189SAPI   H7Y21857   0.045  -0.385   5.546  0.9456 -0.1388  1.3916
  189SAPI   C3821858   0.051  -0.278   5.361  0.8657 -0.3936  0.0834
  189SAPI   H8X21859  -0.037  -0.340   5.333 -1.1013  1.1542  2.3749
  189SAPI   H8Y21860   0.143  -0.318   5.314  0.5224  3.2259 -4.4292
  189SAPI   C3921861   0.010  -0.144   5.299 -0.3230  0.3383 -0.3913
  189SAPI   H9X21862   0.050  -0.062   5.362 -1.0395  0.0631  0.4593
  189SAPI   H9Y21863  -0.100  -0.127   5.307  0.0832  3.4418 -0.4929
  189SAPI  C31021864   0.053  -0.130   5.149 -0.3761 -0.4691  0.0738
  189SAPI  H10X21865   0.025  -0.227   5.104  3.3222 -1.4935 -0.3878
  189SAPI  H10Y21866   0.163  -0.129   5.132 -0.4186 -2.9390 -0.7897
  189SAPI  C31121867   0.007   0.003   5.091 -0.4208  0.1074 -0.5722
  189SAPI  H11X21868   0.078   0.025   5.008  0.1496  1.5109  0.2536
  189SAPI  H11Y21869   0.001   0.087   5.163 -0.4755  0.3709 -0.8780
  189SAPI  C31221870  -0.131   0.000   5.025 -0.8411  0.5365  0.4475
  189SAPI  H12X21871  -0.211  -0.009   5.102  1.0398 -0.9641  2.3516
  189SAPI  H12Y21872  -0.125  -0.090   4.960 -2.1067  0.0817  0.9285
  189SAPI  C31321873  -0.143   0.131   4.944  0.2326 -0.1500  0.1095
  189SAPI  H13X21874  -0.043   0.160   4.906 -0.6173  0.5949 -1.6921
  189SAPI  H13Y21875  -0.164   0.211   5.018  2.9741  0.2867  0.5251
  189SAPI  C31421876  -0.255   0.133   4.832 -0.1189  0.5064 -0.2248
  189SAPI  H14X21877  -0.350   0.145   4.888 -0.9026 -1.9105 -0.9112
  189SAPI  H14Y21878  -0.259   0.028   4.795 -3.6733 -0.3948  2.1986
  189SAPI  C31521879  -0.235   0.230   4.717  0.4644 -0.8794 -0.3184
  189SAPI  H15X21880  -0.317   0.205   4.645 -1.1865 -0.4398  1.3323
  189SAPI  H15Y21881  -0.145   0.214   4.654  1.0265  1.5341 -0.2140
  189SAPI  C31621882  -0.253   0.378   4.742  0.1598  0.1659 -0.9159
  189SAPI  H16X21883  -0.168   0.411   4.806 -0.9949 -0.0653  0.7801
  189SAPI  H16Y21884  -0.347   0.397   4.797  0.5616  0.9369 -0.4664
  189SAPI  C31721885  -0.257   0.454   4.608  0.1266 -0.1882 -0.1965
  189SAPI  H17X21886  -0.344   0.407   4.557 -1.1542 -2.1914  3.4846
  189SAPI  H17Y21887  -0.166   0.441   4.545  0.2443  2.1205 -0.5712
  189SAPI  C31821888  -0.279   0.600   4.623 -0.6498 -0.1320  0.8606
  189SAPI  H18X21889  -0.282   0.657   4.528  2.3073  1.3292  1.5332
  189SAPI  H18Y21890  -0.202   0.652   4.684  0.4985 -1.4618  0.5986
  189SAPI  H18Z21891  -0.382   0.622   4.659 -0.7800  1.9429 -0.5915
  190SAPI   C1221892   6.530   3.340   6.803  0.2576  0.5144  0.8521
  190SAPI    H221893   6.471   3.433   6.823 -1.4117 -0.0807 -0.9582
  190SAPI    O221894   6.610   3.316   6.921  0.3677  0.0320 -0.2049
  190SAPI   HO221895   6.679   3.379   6.944 -1.0371  0.4719  3.6016
  190SAPI   C1321896   6.434   3.225   6.775 -0.2498 -0.0863  0.3844
  190SAPI    H321897   6.378   3.266   6.689 -0.0838  1.8974  1.1820
  190SAPI    O321898   6.329   3.207   6.863  0.0873 -0.2265 -0.1536
  190SAPI   HO321899   6.369   3.150   6.929 -1.7353 -0.7292  0.5668
  190SAPI   C1421900   6.496   3.094   6.728 -0.8140  0.1706 -0.1068
  190SAPI    H421901   6.543   3.053   6.820 -0.0386 -1.2820 -1.1155
  190SAPI    O421902   6.406   2.993   6.692 -0.3433  0.1826 -0.2879
  190SAPI   HO421903   6.425   2.910   6.737 -0.6615 -1.7064 -3.3141
  190SAPI   C1521904   6.624   3.105   6.644 -0.3421  0.7076 -0.9315
  190SAPI    H521905   6.582   3.138   6.547 -0.9026  0.6536 -0.7126
  190SAPI    O521906   6.706   2.987   6.636 -0.2312 -0.0891 -0.5773
  190SAPI   HO521907   6.723   2.972   6.542 -0.1952 -1.4639 -0.3811
  190SAPI   C1621908   6.709   3.225   6.681 -0.2819  0.1020  0.2225
  190SAPI    H621909   6.759   3.196   6.775  1.4198 -0.1186 -0.6961
  190SAPI    O621910   6.813   3.240   6.585  0.0874  0.0704 -0.1085
  190SAPI   HO621911   6.893   3.278   6.622 -0.2609 -1.5585  2.6290
  190SAPI   C1121912   6.626   3.352   6.690 -0.3748  0.4026 -0.1285
  190SAPI    H121913   6.573   3.358   6.593 -0.1959 -2.8661 -0.5495
  190SAPI     P21914   6.683   3.604   6.643  0.9128 -0.1597  0.2006
  190SAPI   O1321915   6.756   3.705   6.715  0.5246  0.3844  0.2001
  190SAPI   O1421916   6.533   3.633   6.637 -0.1872  0.1350  0.4286
  190SAPI   O1221917   6.714   3.459   6.715 -0.7836  0.0471 -0.2288
  190SAPI   O1121918   6.745   3.595   6.496 -0.7243  0.4171 -0.6532
  190SAPI    C121919   6.887   3.576   6.471  0.8806 -0.2978  0.3874
  190SAPI    HA21920   6.937   3.564   6.570 -0.2488  1.4183  1.2077
  190SAPI    HB21921   6.898   3.481   6.415  2.8685 -0.5248  1.0638
  190SAPI    C221922   6.950   3.694   6.377  0.0746 -0.4542  0.1412
  190SAPI    HS21923   6.940   3.790   6.431  0.8394 -1.4312  2.1113
  190SAPI   O2121924   6.885   3.708   6.255  0.0583  0.1097  0.1908
  190SAPI   C2121925   6.767   3.768   6.257 -0.0181 -0.1134  0.3489
  190SAPI   O2221926   6.737   3.849   6.345  0.5161 -0.3298  0.1410
  190SAPI   C2221927   6.682   3.737   6.127  0.3826  1.1149 -0.7075
  190SAPI   H2R21928   6.749   3.749   6.039  1.1915 -2.6400 -0.7877
  190SAPI   H2S21929   6.665   3.628   6.136  1.3460  0.9131 -1.0893
  190SAPI    C321930   7.096   3.664   6.347  0.5442 -0.3049 -0.6402
  190SAPI    HX21931   7.116   3.577   6.280  1.4650 -1.5410  1.1646
  190SAPI    HY21932   7.125   3.643   6.452 -0.8170  0.1249 -0.1571
  190SAPI   O3121933   7.156   3.786   6.291 -0.0551 -0.2081  0.5862
  190SAPI   C3121934   7.282   3.776   6.252  0.2172 -0.5484 -0.0674
  190SAPI   O3221935   7.352   3.682   6.282 -0.5024 -0.3172 -0.0942
  190SAPI   C3221936   7.315   3.893   6.171 -0.1654 -0.5162  0.5766
  190SAPI   H2X21937   7.257   3.986   6.191  3.3633  2.3193 -1.2531
  190SAPI   H2Y21938   7.282   3.864   6.070 -1.4322 -1.3108  1.1935
  190SAPI   C2321939   6.546   3.815   6.110 -0.7183  0.2192  0.0080
  190SAPI   H3R21940   6.563   3.924   6.099  0.0662 -0.0156 -1.2177
  190SAPI   H3S21941   6.481   3.793   6.198  0.5306 -3.3966  0.2192
  190SAPI   C2421942   6.485   3.771   5.972  1.6518  0.2275  0.3240
  190SAPI   H4R21943   6.558   3.810   5.898  1.2103 -2.1212 -1.4886
  190SAPI   H4S21944   6.393   3.831   5.954  1.5201 -0.3176 -0.8763
  190SAPI   C2521945   6.472   3.618   5.973 -0.5628 -0.2722 -0.8077
  190SAPI   H5R21946   6.427   3.565   6.059  0.0500  1.3806  0.5924
  190SAPI   C2621947   6.540   3.541   5.884 -0.7376  0.1504  0.1214
  190SAPI   H6R21948   6.519   3.433   5.876  2.6408 -0.7067  0.9677
  190SAPI   C2721949   6.640   3.588   5.777  0.1777  0.4741 -0.1054
  190SAPI   H7R21950   6.708   3.512   5.733 -0.7447 -0.8133  0.6392
  190SAPI   H7S21951   6.703   3.669   5.820 -0.1328  0.4296  0.4264
  190SAPI   C2821952   6.565   3.642   5.656 -0.5350 -0.4730 -0.3112
  190SAPI   H8R21953   6.461   3.609   5.645 -1.6430  2.1782  1.2722
  190SAPI   C2921954   6.616   3.745   5.583  0.0773  0.2868  0.4144
  190SAPI   H9R21955   6.543   3.782   5.510 -2.7521 -0.8989  2.4419
  190SAPI  C21021956   6.745   3.821   5.588  0.4867 -0.3642 -0.2424
  190SAPI  H10R21957   6.812   3.768   5.517  0.8296 -2.8290  1.7803
  190SAPI  H10S21958   6.803   3.819   5.683  2.1270 -0.8497 -1.2300
  190SAPI  C21121959   6.741   3.967   5.535 -0.1035  0.1648 -1.0860
  190SAPI  H11R21960   6.738   4.040   5.618  0.2275  1.8272 -2.4904
  190SAPI  C21221961   6.733   4.012   5.408  0.2669 -0.0781 -0.3467
  190SAPI  H12R21962   6.740   4.122   5.402 -0.5999 -0.0106 -0.2080
  190SAPI  C21321963   6.737   3.926   5.279 -0.0814 -0.7123 -0.0327
  190SAPI  H13R21964   6.643   3.948   5.224  1.0158  1.6578 -1.0954
  190SAPI  H13S21965   6.760   3.821   5.307  2.0417 -0.1406  0.5384
  190SAPI  C21421966   6.846   3.981   5.192  0.3602  0.4391 -0.2279
  190SAPI  H14R21967   6.851   4.091   5.183 -0.4151  0.5619  0.7216
  190SAPI  C21521968   6.930   3.906   5.117  0.5039 -1.1007  0.2108
  190SAPI  H15R21969   7.006   3.957   5.056 -0.4130  1.4475  1.0768
  190SAPI  C21621970   6.931   3.753   5.115 -0.7169 -0.1806  0.2460
  190SAPI  H16R21971   6.841   3.710   5.162 -0.3105 -0.9201  0.3719
  190SAPI  H16S21972   7.019   3.716   5.172 -1.6098  1.0503  2.5635
  190SAPI  C21721973   6.953   3.707   4.968 -0.0017 -0.2475  0.0681
  190SAPI  H17R21974   6.957   3.596   4.968 -1.4514 -0.3327  0.9045
  190SAPI  H17S21975   7.048   3.753   4.933  0.8314 -1.4338  0.7122
  190SAPI  C21821976   6.839   3.752   4.862 -0.0618  0.1947  0.6060
  190SAPI  H18R21977   6.837   3.863   4.866 -0.5634  0.1824  0.8056
  190SAPI  H18S21978   6.743   3.710   4.901  1.0091 -1.5238  1.4978
  190SAPI  C21921979   6.856   3.699   4.712  0.0238 -0.4726 -1.0973
  190SAPI  H19R21980   6.888   3.593   4.703 -1.7088 -1.1678  0.3663
  190SAPI  H19S21981   6.936   3.764   4.668 -0.1021  0.1052 -0.4940
  190SAPI  C22021982   6.722   3.719   4.633 -0.1413  0.3795  0.3809
  190SAPI  H20R21983   6.690   3.825   4.640 -1.0829  0.1067  0.2647
  190SAPI  H20S21984   6.641   3.667   4.687  0.2006 -0.8345 -0.2326
  190SAPI  H20T21985   6.744   3.674   4.534  0.4209 -0.8349  1.0307
  190SAPI   C3321986   7.465   3.924   6.193  0.1548 -0.4962  0.5161
  190SAPI   H3X21987   7.531   3.840   6.162  0.7378 -0.6418  2.0495
  190SAPI   H3Y21988   7.485   3.935   6.302  0.8360  1.4131  0.2253
  190SAPI   C3421989   7.509   4.061   6.137 -0.3356 -0.2248 -0.6290
  190SAPI   H4X21990   7.617   4.071   6.160  0.1203  0.2498 -2.7547
  190SAPI   H4Y21991   7.449   4.144   6.179  0.0959  1.0539 -2.4179
  190SAPI   C3521992   7.496   4.055   5.988 -0.2057 -0.3244 -0.0169
  190SAPI   H5X21993   7.390   4.025   5.970 -0.2986 -0.5280  0.8198
  190SAPI   H5Y21994   7.563   3.975   5.948 -1.3684 -1.5914  0.4855
  190SAPI   C3621995   7.524   4.189   5.915 -0.7477  0.4758 -0.0465
  190SAPI   H6X21996   7.632   4.212   5.927 -0.5443 -1.0845  1.4448
  190SAPI   H6Y21997   7.468   4.270   5.967 -1.2801  0.0503  0.0489
  190SAPI   C3721998   7.494   4.159   5.770 -0.0228 -0.2514  0.3271
  190SAPI   H7X21999   7.527   4.059   5.735  2.9740  1.2443 -1.6371
  190SAPI   H7Y22000   7.554   4.222   5.700 -1.1436  1.4441  0.8193
  190SAPI   C3822001   7.349   4.195   5.732 -0.3384 -0.5316 -0.1362
  190SAPI   H8X22002   7.327   4.291   5.783  0.7376  0.4196 -1.3932
  190SAPI   H8Y22003   7.273   4.119   5.758 -0.0008 -0.6398  0.5610
  190SAPI   C3922004   7.325   4.209   5.585 -0.2663  0.2332 -0.7352
  190SAPI   H9X22005   7.383   4.133   5.528 -2.2141 -2.0700  0.1842
  190SAPI   H9Y22006   7.354   4.309   5.548  0.1461  0.1205 -0.7317
  190SAPI  C31022007   7.176   4.199   5.554 -0.4460 -0.5861  0.4265
  190SAPI  H10X22008   7.126   4.252   5.638  1.3560 -0.6534  1.6008
  190SAPI  H10Y22009   7.139   4.094   5.560 -1.2495 -0.2785  0.9783
  190SAPI  C31122010   7.142   4.254   5.408 -0.0518 -0.6561 -0.7220
  190SAPI  H11X22011   7.155   4.364   5.415  0.2116 -0.7361  0.2601
  190SAPI  H11Y22012   7.033   4.235   5.395 -0.2616  1.0951 -1.8301
  190SAPI  C31222013   7.229   4.197   5.297 -0.0760  0.1407 -0.3107
  190SAPI  H12X22014   7.236   4.087   5.301  0.5442  0.1167 -1.6931
  190SAPI  H12Y22015   7.334   4.232   5.302  1.1960 -3.2225 -1.2241
  190SAPI  C31322016   7.162   4.236   5.165 -0.2445 -0.1797 -0.2387
  190SAPI  H13X22017   7.146   4.346   5.172  3.4614  0.4304  0.8343
  190SAPI  H13Y22018   7.066   4.181   5.164 -2.0326  2.7040 -2.0609
  190SAPI  C31422019   7.252   4.186   5.056 -0.3209  0.4675  0.6128
  190SAPI  H14X22020   7.253   4.075   5.056 -2.2390  0.4143  0.9204
  190SAPI  H14Y22021   7.358   4.213   5.069 -0.1041  0.0410 -0.1864
  190SAPI  C31522022   7.200   4.221   4.916 -0.1950  0.3267  0.2014
  190SAPI  H15X22023   7.288   4.222   4.849  0.4312 -3.1383  0.8011
  190SAPI  H15Y22024   7.149   4.320   4.914  1.5874  1.3226  1.2797
  190SAPI  C31622025   7.108   4.117   4.848  0.4015 -0.2986 -0.4013
  190SAPI  H16X22026   7.019   4.094   4.911  0.9768 -0.3036  0.4337
  190SAPI  H16Y22027   7.147   4.013   4.839 -1.4963 -1.3393  1.9637
  190SAPI  C31722028   7.051   4.172   4.718  0.3966 -0.5208  0.5106
  190SAPI  H17X22029   7.114   4.131   4.637  1.1159  2.6942 -0.7299
  190SAPI  H17Y22030   7.056   4.283   4.715 -0.7058 -0.4768 -0.2154
  190SAPI  C31822031   6.899   4.148   4.696  0.8508  0.5990 -0.1022
  190SAPI  H18X22032   6.848   4.215   4.768 -1.1824  2.2848 -2.9201
  190SAPI  H18Y22033   6.861   4.045   4.715 -1.9167  1.8798  1.8781
  190SAPI  H18Z22034   6.863   4.182   4.597 -0.2763  0.8928  0.3898
  191SAPI   C1222035   2.487   1.609   2.368  0.0648  0.1044 -0.3175
  191SAPI    H222036   2.553   1.527   2.405 -1.3493 -0.9046  0.0428
  191SAPI    O222037   2.478   1.564   2.231  0.2361 -0.0508  0.0277
  191SAPI   HO222038   2.436   1.478   2.219 -1.3040  0.6977 -0.2192
  191SAPI   C1322039   2.363   1.618   2.442  0.2700 -0.0795 -0.2157
  191SAPI    H322040   2.384   1.660   2.543  0.6628  1.7665 -1.0358
  191SAPI    O322041   2.304   1.488   2.455  0.0392 -0.6065 -0.9373
  191SAPI   HO322042   2.210   1.487   2.438  0.0557 -1.5665 -1.0643
  191SAPI   C1422043   2.267   1.702   2.358  0.5597  0.5614  0.3557
  191SAPI    H422044   2.231   1.642   2.271 -3.1035  0.6745  1.6334
  191SAPI    O422045   2.147   1.722   2.435  0.1269  0.4538 -0.2921
  191SAPI   HO422046   2.091   1.651   2.404 -0.4628  0.7566  0.0792
  191SAPI   C1522047   2.329   1.836   2.302 -0.1350  0.4857 -1.4169
  191SAPI    H522048   2.297   1.914   2.375 -0.8986 -0.5896 -0.5621
  191SAPI    O522049   2.267   1.876   2.182 -0.1450 -0.2536 -0.0684
  191SAPI   HO522050   2.231   1.963   2.198 -1.1001 -0.7547  0.5975
  191SAPI   C1622051   2.485   1.842   2.304 -0.2385 -0.4274  0.7054
  191SAPI    H622052   2.504   1.820   2.197 -0.5010  0.1332  0.5401
  191SAPI    O622053   2.527   1.972   2.343 -0.0412 -0.5567  0.1602
  191SAPI   HO622054   2.617   1.988   2.312 -0.8089  0.2467 -1.7696
  191SAPI   C1122055   2.562   1.743   2.395  0.9290 -0.7854  0.1990
  191SAPI    H122056   2.544   1.780   2.498  0.5859  0.2680 -0.2222
  191SAPI     P22057   2.817   1.705   2.479 -0.0660 -0.2664 -0.1422
  191SAPI   O1322058   2.948   1.713   2.420 -0.0484  0.4020  0.2143
  191SAPI   O1422059   2.782   1.577   2.545  0.2743  0.4313  0.0612
  191SAPI   O1222060   2.699   1.735   2.356  0.1542 -0.1647 -0.1339
  191SAPI   O1122061   2.796   1.825   2.578 -0.1646 -0.5584  0.1633
  191SAPI    C122062   2.815   1.963   2.535 -0.0455 -0.4187  0.6381
  191SAPI    HA22063   2.895   1.972   2.458 -2.3329  0.9016 -1.7630
  191SAPI    HB22064   2.718   1.999   2.494  0.4430  0.0068 -0.1698
  191SAPI    C222065   2.848   2.047   2.658  0.1930 -0.1994  0.4489
  191SAPI    HS22066   2.830   2.154   2.635  2.7021 -0.2327 -2.3234
  191SAPI   O2122067   2.987   2.023   2.682  0.2484 -0.2320 -0.6374
  191SAPI   C2122068   3.049   2.124   2.725  0.5743  0.5061  0.2091
  191SAPI   O2222069   3.019   2.242   2.703 -0.1751 -0.3411 -0.5189
  191SAPI   C2222070   3.173   2.088   2.805  0.0728  0.4743 -0.7383
  191SAPI   H2R22071   3.194   1.980   2.789  1.1226  0.6426 -0.5195
  191SAPI   H2S22072   3.250   2.153   2.758  1.2909  0.6307  1.3602
  191SAPI    C322073   2.766   2.015   2.787  0.1883  0.8083 -0.5716
  191SAPI    HX22074   2.755   1.906   2.802  0.9347  0.7319 -0.5164
  191SAPI    HY22075   2.661   2.045   2.767 -0.4764 -0.7908  0.3182
  191SAPI   O3122076   2.823   2.078   2.913  0.0716  0.3204 -0.2301
  191SAPI   C3122077   2.755   2.179   2.953  0.4254  0.1798 -0.2750
  191SAPI   O3222078   2.650   2.221   2.904 -0.4131  0.4365 -0.0135
  191SAPI   C3222079   2.823   2.242   3.069  0.4771 -0.0090  0.2015
  191SAPI   H2X22080   2.880   2.329   3.029 -0.8726  1.4767  1.3953
  191SAPI   H2Y22081   2.893   2.170   3.117  0.0031 -0.1539  0.6769
  191SAPI   C2322082   3.166   2.115   2.956  0.5177  0.2801 -0.1379
  191SAPI   H3R22083   3.224   2.036   3.009 -0.3993  1.0692  2.1771
  191SAPI   H3S22084   3.063   2.091   2.992  0.8824  0.1516  0.8419
  191SAPI   C2422085   3.214   2.258   2.995  0.0860  0.8737 -1.0875
  191SAPI   H4R22086   3.161   2.279   3.090 -2.6321 -2.8950 -1.5267
  191SAPI   H4S22087   3.168   2.325   2.920  1.4075  2.1828 -0.7653
  191SAPI   C2522088   3.366   2.286   2.990 -0.0701  0.6191  0.2527
  191SAPI   H5R22089   3.404   2.322   2.894 -1.7441  0.3468 -0.5472
  191SAPI   C2622090   3.455   2.289   3.096 -0.1742 -0.3712  0.8797
  191SAPI   H6R22091   3.556   2.328   3.076 -1.0786  0.8488 -1.8203
  191SAPI   C2722092   3.425   2.261   3.238  0.1946  0.5042 -0.5773
  191SAPI   H7R22093   3.339   2.191   3.235  0.6973 -0.1036 -1.2692
  191SAPI   H7S22094   3.391   2.354   3.287 -1.2669 -0.3107 -0.0007
  191SAPI   C2822095   3.526   2.192   3.325 -0.2265 -0.3839  0.4538
  191SAPI   H8R22096   3.579   2.107   3.280 -1.4428 -1.4546  0.9763
  191SAPI   C2922097   3.551   2.221   3.458 -0.3085  0.4132  0.2029
  191SAPI   H9R22098   3.635   2.156   3.485 -0.9896 -1.5203 -1.9740
  191SAPI  C21022099   3.490   2.323   3.549 -0.5469  0.8192  0.4854
  191SAPI  H10R22100   3.420   2.386   3.490  1.1755  1.4835 -0.9651
  191SAPI  H10S22101   3.577   2.378   3.591 -0.0657 -2.1862  3.9202
  191SAPI  C21122102   3.422   2.258   3.665  0.0620  0.4179 -0.1678
  191SAPI  H11R22103   3.357   2.173   3.640  0.7329 -0.1369 -0.0663
  191SAPI  C21222104   3.436   2.284   3.800  0.7701  0.4986  0.8248
  191SAPI  H12R22105   3.376   2.223   3.869  0.2260 -2.5092 -2.0127
  191SAPI  C21322106   3.521   2.388   3.863  0.1014 -0.0550  0.4883
  191SAPI  H13R22107   3.467   2.424   3.953  1.4853  0.1254  1.2665
  191SAPI  H13S22108   3.536   2.479   3.801 -2.4564  0.1926  0.1061
  191SAPI  C21422109   3.661   2.343   3.890 -0.3100 -0.6179 -0.5162
  191SAPI  H14R22110   3.682   2.242   3.852 -1.1466 -0.5129 -1.2673
  191SAPI  C21522111   3.767   2.416   3.931 -0.9984  0.5687 -0.6261
  191SAPI  H15R22112   3.864   2.366   3.946 -1.9346 -0.6113  2.1392
  191SAPI  C21622113   3.762   2.562   3.971 -0.2945 -1.0271  0.0085
  191SAPI  H16R22114   3.669   2.607   3.931  1.1039  2.0028 -0.1100
  191SAPI  H16S22115   3.850   2.618   3.930 -0.2053 -1.6693 -0.7137
  191SAPI  C21722116   3.764   2.598   4.122 -0.0679 -0.0092  0.1681
  191SAPI  H17R22117   3.688   2.539   4.177 -1.1348  0.1309 -1.1028
  191SAPI  H17S22118   3.735   2.704   4.138  2.6581  0.8498  0.0178
  191SAPI  C21822119   3.902   2.590   4.187 -0.7840  0.3780  0.0373
  191SAPI  H18R22120   3.967   2.659   4.130 -0.2463 -0.8918 -0.9361
  191SAPI  H18S22121   3.951   2.490   4.195 -0.8373  0.4549  1.9728
  191SAPI  C21922122   3.894   2.644   4.329 -0.2206  0.4917 -0.1025
  191SAPI  H19R22123   3.813   2.719   4.317  0.4902  1.2319 -0.3661
  191SAPI  H19S22124   3.996   2.679   4.355  0.5891 -0.9973 -1.1177
  191SAPI  C22022125   3.829   2.539   4.425  0.1524  0.5535 -0.5706
  191SAPI  H20R22126   3.814   2.589   4.523  1.1270 -0.4387  0.1002
  191SAPI  H20S22127   3.904   2.458   4.439 -1.2681 -0.9490 -1.3310
  191SAPI  H20T22128   3.735   2.505   4.376 -0.3481  2.9093 -1.3734
  191SAPI   C3322129   2.734   2.305   3.178 -0.2416 -0.0762  0.5322
  191SAPI   H3X22130   2.646   2.238   3.186 -0.8219  0.2058 -2.3112
  191SAPI   H3Y22131   2.688   2.404   3.157 -1.0203 -0.2456  1.3791
  191SAPI   C3422132   2.790   2.319   3.316 -0.2235  0.9857  0.6162
  191SAPI   H4X22133   2.864   2.401   3.317 -0.4352  1.1763  1.5295
  191SAPI   H4Y22134   2.836   2.224   3.349  0.3115  1.3226  0.8451
  191SAPI   C3522135   2.696   2.354   3.417  0.1551  0.2229 -0.1150
  191SAPI   H5X22136   2.619   2.274   3.423  1.4586 -1.0687  0.1516
  191SAPI   H5Y22137   2.644   2.447   3.389 -0.5898  0.2452  1.2723
  191SAPI   C3622138   2.766   2.392   3.550 -0.4994  0.4184 -0.1327
  191SAPI   H6X22139   2.849   2.465   3.536 -0.8431  0.6528 -1.0096
  191SAPI   H6Y22140   2.820   2.301   3.584  2.6744  2.3975  0.6473
  191SAPI   C3722141   2.665   2.428   3.656  0.3011  0.4411  0.2142
  191SAPI   H7X22142   2.592   2.346   3.671  1.1855 -0.2280  0.9747
  191SAPI   H7Y22143   2.589   2.500   3.618  0.5896  1.4144  1.4101
  191SAPI   C3822144   2.726   2.496   3.782 -0.3520 -0.4047  0.9261
  191SAPI   H8X22145   2.762   2.598   3.754  0.1377 -0.3211  1.8147
  191SAPI   H8Y22146   2.816   2.443   3.820 -0.6545 -0.2247  1.9402
  191SAPI   C3922147   2.627   2.520   3.897  1.4305 -0.1005 -0.2457
  191SAPI   H9X22148   2.559   2.432   3.903 -1.3742  2.0545  2.3384
  191SAPI   H9Y22149   2.551   2.600   3.880  0.5372 -0.2614  2.5285
  191SAPI  C31022150   2.676   2.543   4.047  0.5934  0.2550  0.2451
  191SAPI  H10X22151   2.731   2.639   4.061  0.7107  0.3278 -0.6206
  191SAPI  H10Y22152   2.749   2.462   4.063 -0.7795 -0.8260  1.2501
  191SAPI  C31122153   2.559   2.554   4.152  0.2015  0.0922 -0.2678
  191SAPI  H11X22154   2.518   2.455   4.123 -0.2931  0.8009 -2.1535
  191SAPI  H11Y22155   2.486   2.631   4.119  0.5102 -0.1432 -1.5624
  191SAPI  C31222156   2.595   2.578   4.296 -0.1683  0.4043  0.1092
  191SAPI  H12X22157   2.645   2.671   4.329  0.0255 -0.2379  1.7062
  191SAPI  H12Y22158   2.669   2.501   4.325  0.6987  1.0224 -0.4380
  191SAPI  C31322159   2.473   2.565   4.391  0.2610  0.9773 -0.3550
  191SAPI  H13X22160   2.426   2.465   4.377 -0.2559  1.1211  0.2861
  191SAPI  H13Y22161   2.397   2.646   4.390  1.1126  1.8147 -2.6855
  191SAPI  C31422162   2.517   2.564   4.543  0.0676  0.3152  0.2418
  191SAPI  H14X22163   2.569   2.657   4.574  1.9646  0.0486 -1.9235
  191SAPI  H14Y22164   2.584   2.479   4.568 -1.0186 -0.8564 -0.6490
  191SAPI  C31522165   2.394   2.541   4.634  0.4438 -0.1550 -0.1858
  191SAPI  H15X22166   2.342   2.447   4.606  1.0956 -0.2670 -1.0289
  191SAPI  H15Y22167   2.312   2.613   4.612 -0.4800 -1.3658 -0.8456
  191SAPI  C31622168   2.435   2.542   4.786  1.1258 -0.4985  0.2132
  191SAPI  H16X22169   2.508   2.624   4.804  0.4583 -0.5376  3.5879
  191SAPI  H16Y22170   2.484   2.444   4.801  1.8592 -0.0797  0.5935
  191SAPI  C31722171   2.315   2.562   4.884 -0.0835  0.4531 -0.3035
  191SAPI  H17X22172   2.363   2.542   4.982  2.6910  1.0858 -1.4177
  191SAPI  H17Y22173   2.238   2.483   4.869  0.5998 -0.3041  0.0893
  191SAPI  C31822174   2.253   2.707   4.878 -0.0504 -1.1321  0.6170
  191SAPI  H18X22175   2.204   2.726   4.779  0.5263  0.5644  0.6222
  191SAPI  H18Y22176   2.311   2.798   4.904 -2.2336  0.8076 -0.7988
  191SAPI  H18Z22177   2.178   2.704   4.959  1.3762 -3.0946  1.9430
  192SAPI   C1222178   4.015   6.555   1.921 -0.4848 -0.4699 -0.1712
  192SAPI    H222179   4.043   6.448   1.932 -0.6641 -0.4722  0.2530
  192SAPI    O222180   4.082   6.597   1.798 -0.1714 -0.1208 -0.2191
  192SAPI   HO222181   4.166   6.635   1.824 -0.3997 -0.2187  0.6884
  192SAPI   C1322182   3.872   6.553   1.906 -0.1845  0.3362  0.2245
  192SAPI    H322183   3.835   6.534   2.009  1.5289  0.0546  0.8244
  192SAPI    O322184   3.824   6.434   1.839 -0.1390 -0.5759  0.2437
  192SAPI   HO322185   3.853   6.437   1.748 -0.2561 -1.1255  0.1856
  192SAPI   C1422186   3.817   6.686   1.869  0.8058 -0.2417 -0.0098
  192SAPI    H422187   3.859   6.718   1.771  1.8933 -0.2605  0.4336
  192SAPI    O422188   3.669   6.679   1.862  0.2471 -0.3975 -0.2417
  192SAPI   HO422189   3.638   6.735   1.791  2.8053  0.6232 -0.6541
  192SAPI   C1522190   3.857   6.791   1.974 -0.1460 -0.5076 -0.6873
  192SAPI    H522191   3.801   6.753   2.062  1.1175 -0.6828  0.0704
  192SAPI    O522192   3.808   6.923   1.939 -0.0859  0.0260  0.4069
  192SAPI   HO522193   3.806   6.958   2.029 -1.3305  0.3790  0.2557
  192SAPI   C1622194   3.999   6.793   2.014  0.2791  0.0286  1.5105
  192SAPI    H622195   4.055   6.828   1.924 -2.5247 -1.9661 -1.2392
  192SAPI    O622196   4.023   6.868   2.131  0.3977  0.2593  0.2953
  192SAPI   HO622197   3.952   6.866   2.196 -1.1751 -0.0227 -1.3504
  192SAPI   C1122198   4.049   6.649   2.031 -0.4556 -0.1341 -0.2715
  192SAPI    H122199   4.001   6.633   2.130 -0.7229  0.7526 -0.2441
  192SAPI     P22200   4.271   6.551   2.129 -0.1141  0.1430 -0.1952
  192SAPI   O1322201   4.413   6.552   2.079 -0.0282 -0.3870  0.4777
  192SAPI   O1422202   4.205   6.415   2.133  0.1664 -0.1279  0.1501
  192SAPI   O1222203   4.192   6.658   2.037 -0.3598 -0.4676 -0.5273
  192SAPI   O1122204   4.277   6.608   2.272  0.0292 -0.5271  0.4073
  192SAPI    C122205   4.303   6.751   2.292  0.2355  0.2476 -0.4001
  192SAPI    HA22206   4.410   6.776   2.275  0.6484 -0.6595  0.7229
  192SAPI    HB22207   4.244   6.821   2.229  0.7183 -0.0838 -1.2406
  192SAPI    C222208   4.282   6.797   2.440  0.1944 -0.3339  0.7056
  192SAPI    HS22209   4.334   6.895   2.430 -3.3735  1.5471 -2.0329
  192SAPI   O2122210   4.335   6.707   2.549  0.4071  0.2067  0.6789
  192SAPI   C2122211   4.464   6.718   2.566  0.2775 -0.0211  0.0134
  192SAPI   O2222212   4.544   6.777   2.494  0.4646 -0.3706 -0.1662
  192SAPI   C2222213   4.508   6.642   2.687  0.0102  0.9634  0.3793
  192SAPI   H2R22214   4.455   6.545   2.703 -0.4113  0.8760 -1.3517
  192SAPI   H2S22215   4.615   6.621   2.666  0.4393  3.2986  0.0577
  192SAPI    C322216   4.138   6.834   2.461 -0.0121 -0.5369  0.4341
  192SAPI    HX22217   4.085   6.737   2.444  2.0659 -1.7145  0.3530
  192SAPI    HY22218   4.094   6.900   2.384 -1.4449 -2.9131 -0.9220
  192SAPI   O3122219   4.112   6.887   2.595  0.2894  0.7408 -0.4988
  192SAPI   C3122220   4.091   6.803   2.696  0.2327  0.3273 -0.2426
  192SAPI   O3222221   4.060   6.684   2.689  0.3339 -0.3293  0.1911
  192SAPI   C3222222   4.105   6.890   2.821  0.0081 -0.1490  0.7769
  192SAPI   H2X22223   4.032   6.974   2.813 -1.8724 -1.5667  2.0361
  192SAPI   H2Y22224   4.204   6.939   2.813  0.1571 -0.3641  1.2664
  192SAPI   C2322225   4.518   6.727   2.815 -0.5655 -0.2796  0.6121
  192SAPI   H3R22226   4.415   6.760   2.837 -0.5478 -0.0974  0.4208
  192SAPI   H3S22227   4.581   6.818   2.811  2.9917 -2.5547 -0.8029
  192SAPI   C2422228   4.570   6.644   2.937 -0.1303 -0.3910 -0.0375
  192SAPI   H4R22229   4.681   6.641   2.928 -0.2336 -1.1337 -1.2376
  192SAPI   H4S22230   4.531   6.540   2.927  0.6302 -0.7052  0.1313
  192SAPI   C2522231   4.506   6.708   3.064  0.3996  0.9548  0.1126
  192SAPI   H5R22232   4.397   6.716   3.056 -0.0142 -3.1893 -0.5671
  192SAPI   C2622233   4.570   6.744   3.169 -0.4703  0.3081 -0.9238
  192SAPI   H6R22234   4.506   6.776   3.253 -0.5013  1.5550 -1.3930
  192SAPI   C2722235   4.721   6.736   3.192  0.1905  0.3193 -0.5201
  192SAPI   H7R22236   4.776   6.743   3.096  1.9846 -2.3529  0.2155
  192SAPI   H7S22237   4.753   6.633   3.219  0.3932  0.0182 -1.8799
  192SAPI   C2822238   4.769   6.833   3.297 -0.7125  0.0721  0.1178
  192SAPI   H8R22239   4.837   6.909   3.257 -1.0497 -0.5245 -1.6870
  192SAPI   C2922240   4.744   6.826   3.427 -0.2156  0.4340  0.3265
  192SAPI   H9R22241   4.790   6.902   3.492  1.4814  0.1698 -0.5011
  192SAPI  C21022242   4.670   6.708   3.490  0.3342  0.8579 -0.5995
  192SAPI  H10R22243   4.744   6.649   3.548 -1.5605 -1.5773 -0.5048
  192SAPI  H10S22244   4.634   6.635   3.416  3.2276  0.2136 -1.4956
  192SAPI  C21122245   4.558   6.744   3.589 -0.4280 -0.3286  0.2240
  192SAPI  H11R22246   4.481   6.812   3.549 -2.3800 -1.6874  1.4916
  192SAPI  C21222247   4.553   6.712   3.721 -0.8337 -0.9149 -0.0929
  192SAPI  H12R22248   4.459   6.735   3.772 -0.1951 -0.3312  0.8676
  192SAPI  C21322249   4.656   6.625   3.791 -0.3935 -0.2699 -0.4534
  192SAPI  H13R22250   4.681   6.550   3.714  0.8831  1.3726 -1.6870
  192SAPI  H13S22251   4.607   6.566   3.872  0.3687 -0.9448 -0.4772
  192SAPI  C21422252   4.779   6.700   3.842 -0.0684  0.1591  0.1544
  192SAPI  H14R22253   4.853   6.706   3.761  1.2105  0.8794  1.3392
  192SAPI  C21522254   4.818   6.739   3.966  0.1121  0.0786 -0.5324
  192SAPI  H15R22255   4.918   6.784   3.976  0.4174 -0.5661 -0.6692
  192SAPI  C21622256   4.748   6.716   4.097 -0.0619 -0.2890 -0.4968
  192SAPI  H16R22257   4.639   6.712   4.077 -0.8120 -0.8295  3.0712
  192SAPI  H16S22258   4.765   6.797   4.171  0.0960 -0.3977 -0.4143
  192SAPI  C21722259   4.787   6.575   4.144 -1.0375 -0.4429  0.3213
  192SAPI  H17R22260   4.758   6.500   4.067 -0.9752 -0.8729  0.7201
  192SAPI  H17S22261   4.738   6.546   4.239  0.9318 -1.1833  1.1373
  192SAPI  C21822262   4.936   6.565   4.184  0.2368  0.7059  0.9189
  192SAPI  H18R22263   4.994   6.593   4.093 -1.2930 -1.2943 -0.7846
  192SAPI  H18S22264   4.956   6.457   4.199 -2.8650  0.1452  1.7496
  192SAPI  C21922265   4.986   6.646   4.308  0.8682 -0.2347  0.7609
  192SAPI  H19R22266   4.922   6.625   4.397 -0.5893  0.7054 -0.0184
  192SAPI  H19S22267   4.990   6.757   4.300  0.5388 -0.0814  2.3150
  192SAPI  C22022268   5.133   6.609   4.341 -0.1790 -0.5709  0.1662
  192SAPI  H20R22269   5.188   6.603   4.245 -1.7713 -0.5431 -0.7949
  192SAPI  H20S22270   5.140   6.510   4.392  1.8660  0.2056  1.5085
  192SAPI  H20T22271   5.187   6.679   4.408 -0.8877 -0.5630  0.7480
  192SAPI   C3322272   4.081   6.828   2.953 -0.0076 -0.2352 -0.1176
  192SAPI   H3X22273   4.139   6.734   2.958 -1.8157 -1.3449  1.4336
  192SAPI   H3Y22274   3.976   6.793   2.963  0.1185 -0.0560  3.1624
  192SAPI   C3422275   4.122   6.923   3.070 -0.3275  0.1169 -0.6688
  192SAPI   H4X22276   4.059   7.014   3.058  0.9051  1.0397 -0.2794
  192SAPI   H4Y22277   4.230   6.947   3.068 -0.5763  1.2954 -0.3793
  192SAPI   C3522278   4.081   6.862   3.210  0.2243  0.4078 -0.3903
  192SAPI   H5X22279   4.170   6.798   3.231  0.0449 -0.4626 -2.1098
  192SAPI   H5Y22280   3.990   6.799   3.198  0.3382  0.1796 -0.0721
  192SAPI   C3622281   4.058   6.964   3.321  0.3250 -0.2660 -0.7254
  192SAPI   H6X22282   3.963   7.016   3.299  0.0994 -0.6320 -0.6382
  192SAPI   H6Y22283   4.145   7.032   3.329  2.0438 -2.3768 -0.2518
  192SAPI   C3722284   4.044   6.890   3.451 -0.0311  0.4281 -0.3268
  192SAPI   H7X22285   4.145   6.849   3.472  0.0341  1.2232  1.0364
  192SAPI   H7Y22286   3.957   6.823   3.464 -0.4914  0.7605 -1.5481
  192SAPI   C3822287   4.019   6.996   3.563  0.1245 -0.1364 -0.3433
  192SAPI   H8X22288   3.972   6.933   3.642  0.7996 -0.3760 -0.1259
  192SAPI   H8Y22289   3.948   7.072   3.523  1.9155 -0.2138 -4.0620
  192SAPI   C3922290   4.146   7.050   3.611 -0.0754 -0.1532 -0.2035
  192SAPI   H9X22291   4.194   7.093   3.521  1.1927  0.3194  0.6638
  192SAPI   H9Y22292   4.217   6.968   3.634 -0.7015 -0.2417  1.6266
  192SAPI  C31022293   4.128   7.152   3.722 -0.1890  0.1650  0.2774
  192SAPI  H10X22294   4.059   7.232   3.688  0.9801  0.3504 -1.7445
  192SAPI  H10Y22295   4.220   7.207   3.748 -0.5146  0.3588  1.0857
  192SAPI  C31122296   4.084   7.095   3.863 -0.2740 -0.5897  0.4244
  192SAPI  H11X22297   4.165   7.048   3.921  0.0348  0.8497  1.2165
  192SAPI  H11Y22298   4.007   7.019   3.840 -1.1446  0.3502  0.1501
  192SAPI  C31222299   4.023   7.201   3.954  0.7292  0.2661 -0.2499
  192SAPI  H12X22300   3.994   7.152   4.050  0.1609 -1.5454 -1.3010
  192SAPI  H12Y22301   3.925   7.223   3.906 -0.6527 -0.6720  1.9744
  192SAPI  C31322302   4.116   7.318   3.975 -0.0802 -0.0785 -0.1103
  192SAPI  H13X22303   4.126   7.382   3.884  0.7128 -1.5750 -1.1255
  192SAPI  H13Y22304   4.216   7.277   3.999 -0.4902 -1.8646 -1.2432
  192SAPI  C31422305   4.076   7.400   4.101  0.2418  0.1421 -0.0193
  192SAPI  H14X22306   3.965   7.411   4.093  0.2981  1.2741  0.5250
  192SAPI  H14Y22307   4.110   7.506   4.100  0.0618  0.2820 -3.0375
  192SAPI  C31522308   4.102   7.322   4.237 -1.0206 -0.0328  0.6736
  192SAPI  H15X22309   4.206   7.283   4.226 -1.1515 -0.2218  0.0816
  192SAPI  H15Y22310   4.049   7.224   4.241  0.6799 -1.0059  0.3706
  192SAPI  C31622311   4.106   7.403   4.359  0.1575 -0.1615 -0.3262
  192SAPI  H16X22312   4.007   7.453   4.368  0.4477  0.2771  0.6013
  192SAPI  H16Y22313   4.170   7.493   4.351  0.5118 -0.4703 -0.9992
  192SAPI  C31722314   4.148   7.319   4.483  0.3341  0.1029 -0.0958
  192SAPI  H17X22315   4.132   7.212   4.460  2.5969 -0.0827 -1.0588
  192SAPI  H17Y22316   4.080   7.336   4.570  0.5900 -0.5661  0.2442
  192SAPI  C31822317   4.290   7.352   4.534  0.0913  0.4927 -0.7498
  192SAPI  H18X22318   4.376   7.322   4.470  1.7323  1.2753  1.0167
  192SAPI  H18Y22319   4.300   7.296   4.629 -0.7773  0.6534 -0.5596
  192SAPI  H18Z22320   4.303   7.461   4.555 -0.2602  0.0313  2.2949
  193SOD    SOD22321   5.215   4.195   0.734 -0.0344  0.4652 -0.1439
  194SOD    SOD22322   3.947   1.156   2.176 -0.2903  0.2673  0.1037
  195SOD    SOD22323   0.444   4.982   6.612 -0.6878 -0.1079 -0.2350
  196SOD    SOD22324   6.452   5.309   7.465  0.1440 -0.3017  0.4466
  197SOD    SOD22325   5.831   6.896   2.568 -0.1044 -0.0344  0.0579
  198SOD    SOD22326   0.539   3.186   7.503  0.3113 -0.5538  0.3561
  199SOD    SOD22327   5.645   0.293   7.122  0.1664 -0.3062 -0.4051
  200SOD    SOD22328   4.526   3.684   8.020  0.2931  0.0143 -0.2443
  201SOD    SOD22329   3.619   4.531   7.820 -0.2368 -0.2757  0.0973
  202SOD    SOD22330   6.870   1.191   1.558  0.2462 -0.2041  0.0216
  203SOD    SOD22331   5.349   6.600   2.247 -0.0634 -0.3182 -0.0435
  204SOD    SOD22332   2.502   5.540   6.929  0.0897 -0.1678  0.3166
  205SOD    SOD22333   1.790   5.598   7.288 -0.0394 -0.0046 -0.0265
  206SOD    SOD22334   3.803   0.204   1.331 -0.2004  0.4451  0.1841
  207SOD    SOD22335   5.309   5.359   2.225 -0.5205 -0.2692  0.1330
  208SOD    SOD22336   1.865   3.101   7.146  0.2921 -0.3389 -0.0532
  209SOD    SOD22337   3.073   5.240   8.028  0.8378 -0.2920  0.1173
  210SOD    SOD22338   0.200   5.821   0.491  0.1482 -0.4270  0.2266
  211SOD    SOD22339   0.746   3.648   7.595  0.0796  0.4321  0.3304
  212SOD    SOD22340   2.802   0.586   7.379  0.2064 -0.1538 -0.1449
  213SOD    SOD22341   3.641   5.632   8.251  0.1775 -0.3802 -0.4779
  214SOD    SOD22342   3.246   1.368   7.471 -0.2363 -0.2227  0.0393
  215SOD    SOD22343   6.367   4.439   7.187  0.2157  0.0006  0.5028
  216SOD    SOD22344   5.789   4.917   6.952  0.8240  0.1720  0.0823
  217SOD    SOD22345   3.989   6.013   2.606  0.9222 -0.2698 -0.1264
  218SOD    SOD22346   0.077   0.142   1.686  0.2998 -0.2212  0.2813
  219SOD    SOD22347   4.208   0.422   0.038  0.3571 -0.2514  0.3147
  220SOD    SOD22348   3.591   3.168   2.251 -0.4632  0.0307  0.6646
  221SOD    SOD22349   0.062   4.061   2.310 -0.4979 -0.4387  0.3635
  222SOD    SOD22350   2.326   0.324   1.541 -0.0309  0.3481  0.0306
  223SOD    SOD22351   2.807   3.004   7.216  0.4627  0.0518 -0.1251
  224SOD    SOD22352   0.385   6.463   6.854  0.4762  0.8677  0.4326
  225SOD    SOD22353   1.594   3.314   2.513  0.7114  0.1710  0.5576
  226SOD    SOD22354   3.706   4.897   7.334  0.1140  0.0948 -0.1738
  227SOD    SOD22355   1.559   1.603   1.198 -0.1055  0.6082 -0.1313
  228SOD    SOD22356   2.771   0.068   2.304  0.1914  0.3631 -0.3495
  229SOD    SOD22357   0.641   2.520   7.855  0.0347  0.1888  0.0788
  230CLA    CLA22358   0.097   2.697   7.746 -0.4253  0.1996 -0.0040
  231CLA    CLA22359   3.250   4.484   7.535 -0.1502 -0.2095  0.1862
  232CLA    CLA22360   4.390   4.010   7.808 -0.0291  0.3048  0.3378
  233CLA    CLA22361   4.674   0.364   0.531 -0.1954 -0.0595 -0.3401
  234CLA    CLA22362   3.063   4.351   0.254  0.0148  0.0435 -0.3543
  235CLA    CLA22363   4.587   1.596   1.174 -0.6342 -0.0348  0.1513
  236CLA    CLA22364   6.274   6.553   8.203  0.0724 -0.3983 -1.1176
  237CLA    CLA22365   5.595   6.725   8.479  0.3085  0.3521  0.2978
  238CLA    CLA22366   3.228   1.140   6.958  0.3496  0.4404 -0.2999
  239CLA    CLA22367   2.649   4.931   8.022 -0.0772  0.1640 -0.3202
  240CLA    CLA22368   6.139   4.067   8.330  0.2631 -0.3923 -0.1083
  241CLA    CLA22369   4.484   1.367   8.512 -0.2487  0.3010 -0.0017
  242CLA    CLA22370   0.571   6.014   0.619 -0.5932  0.1917  0.0704
  243CLA    CLA22371   0.209   3.423   7.685  0.0410  0.4629  0.0407
  244CLA    CLA22372   2.473   3.240   1.480  0.2196  0.0455 -0.4950
  245CLA    CLA22373   6.635   5.489   7.384  0.2674 -0.0579  0.0804
  246CLA    CLA22374   1.585   4.221   7.364  0.0207 -0.2865 -0.0144
  247TIP3   OH222375   0.366   0.097   2.302 -0.3762 -0.4448 -0.2116
  247TIP3    H122376   0.333   0.009   2.288 -0.5782 -0.4856  0.4659
  247TIP3    H222377   0.288   0.150   2.318 -0.3308  0.0415 -1.4777
  248TIP3   OH222378   1.998   5.633   7.191  0.0701 -0.0648  0.2629
  248TIP3    H122379   2.059   5.704   7.210 -0.1490  0.8903 -2.1605
  248TIP3    H222380   1.982   5.640   7.097 -2.8863 -0.9711  0.5763
  249TIP3   OH222381   2.118   2.462   7.845 -0.1865  0.1421  0.1253
  249TIP3    H122382   2.213   2.469   7.839 -0.1483 -0.8225 -0.5208
  249TIP3    H222383   2.102   2.414   7.927 -0.1742  1.1725  0.7542
  250TIP3   OH222384   2.944   2.264   7.077 -0.1273  0.1646 -0.0170
  250TIP3    H122385   3.007   2.217   7.022 -0.5240 -0.1043 -0.2523
  250TIP3    H222386   2.907   2.196   7.134  1.0169  0.6138  1.3066
  251TIP3   OH222387   3.085   0.212   6.151 -0.0664  0.0935 -0.2168
  251TIP3    H122388   3.002   0.190   6.110 -0.0835  0.3237 -0.3016
  251TIP3    H222389   3.100   0.304   6.129 -0.3816  0.4024  0.8107
  252TIP3   OH222390   2.520   4.775   6.759 -0.4119  0.5231  0.0104
  252TIP3    H122391   2.431   4.760   6.728 -0.2644  0.7255 -0.5268
  252TIP3    H222392   2.520   4.745   6.850 -1.0905  0.7500  0.0870
  253TIP3   OH222393   6.017   3.633   7.269  0.4723  0.2769 -0.4738
  253TIP3    H122394   5.948   3.634   7.203  0.1293 -0.6884 -0.1470
  253TIP3    H222395   5.984   3.576   7.338  1.4898 -0.0097 -0.2019
  254TIP3   OH222396   2.908   3.478   7.836  0.4057  0.5013 -0.0036
  254TIP3    H122397   2.978   3.436   7.887 -0.4899  1.4377  2.1533
  254TIP3    H222398   2.947   3.558   7.803  1.2468 -0.5157 -1.5997
  255TIP3   OH222399   5.272   3.096   2.147  0.1446 -0.2657  0.4327
  255TIP3    H122400   5.328   3.050   2.085  0.7624  0.6115  0.3268
  255TIP3    H222401   5.332   3.151   2.198 -0.7551  2.0261 -0.8430
  256TIP3   OH222402   3.512   3.542   1.725  0.0182 -0.4304 -0.2786
  256TIP3    H122403   3.417   3.528   1.727 -0.0194 -0.6960 -2.1645
  256TIP3    H222404   3.549   3.464   1.766 -0.5747 -0.1013  0.9181
  257TIP3   OH222405   3.327   1.790   1.657  0.0722 -0.1133  0.0651
  257TIP3    H122406   3.377   1.845   1.717 -1.6783 -0.1438  1.6649
  257TIP3    H222407   3.361   1.811   1.570  3.0296 -0.4171  1.0620
  258TIP3   OH222408   3.106   4.773   0.868 -0.3293 -0.1067 -0.4368
  258TIP3    H122409   3.055   4.778   0.788  0.2184 -1.6257 -0.9142
  258TIP3    H222410   3.113   4.863   0.898 -2.6929  0.2199 -0.7100
  259TIP3   OH222411   1.260   0.870   0.914  0.7235  0.5273 -0.3850
  259TIP3    H122412   1.287   0.962   0.911 -2.1543  1.4554 -0.2832
  259TIP3    H222413   1.247   0.853   1.008  0.1441  0.3744 -0.4925
  260TIP3   OH222414   0.737   0.695   8.400 -0.7397 -0.4979 -0.4423
  260TIP3    H122415   0.774   0.781   8.419 -0.4107 -0.8404  0.4937
  260TIP3    H222416   0.642   0.711   8.398 -0.7973 -0.4301  1.4987
  261TIP3   OH222417   1.536   6.169   6.432 -0.3147  0.4856 -0.1752
  261TIP3    H122418   1.512   6.130   6.516  1.9031  0.2597  0.4304
  261TIP3    H222419   1.527   6.263   6.445  1.8836  0.5878  1.0407
  262TIP3   OH222420   1.024   3.894   1.001  0.0373 -0.4777 -0.0475
  262TIP3    H122421   1.021   3.805   0.964  0.3187 -0.7624  0.5857
  262TIP3    H222422   1.025   3.879   1.096 -2.9204  0.2621  0.2137
  263TIP3   OH222423   5.852   4.553   1.177 -0.2671  0.2111  0.4906
  263TIP3    H122424   5.848   4.630   1.120  1.3238  0.4957  0.7343
  263TIP3    H222425   5.865   4.480   1.117 -0.9267  0.2239  0.3237
  264TIP3   OH222426   3.779   1.057   0.226 -0.4743 -0.1575  0.2251
  264TIP3    H122427   3.717   1.043   0.298  0.3021  0.3296  1.0260
  264TIP3    H222428   3.746   1.135   0.182 -1.1111 -0.6180 -0.1257
  265TIP3   OH222429   2.079   0.760   7.523 -0.6588  0.3243  0.2584
  265TIP3    H122430   2.047   0.720   7.441 -1.3917  1.7475 -0.1809
  265TIP3    H222431   2.042   0.705   7.592 -0.9025 -0.2788 -0.3371
  266TIP3   OH222432   4.006   5.462   8.355  0.8908  0.0555 -0.2003
  266TIP3    H122433   3.952   5.462   8.434  1.5249 -0.8512  0.2469
  266TIP3    H222434   4.077   5.523   8.374  2.2344 -1.7327  0.8017
  267TIP3   OH222435   1.178   1.688   0.538 -0.4759  0.1274  0.1219
  267TIP3    H122436   1.249   1.643   0.492  0.1278  1.7704 -0.6058
  267TIP3    H222437   1.099   1.644   0.509  0.0758 -0.3514 -0.6926
  268TIP3   OH222438   5.550   2.433   7.410 -0.0082 -0.6285 -0.0389
  268TIP3    H122439   5.505   2.492   7.471 -0.0461 -1.3322  0.6218
  268TIP3    H222440   5.567   2.487   7.333 -1.0109 -0.0506  0.1320
  269TIP3   OH222441   4.676   4.903   7.543  0.2836  0.2097  0.2038
  269TIP3    H122442   4.628   4.921   7.462 -0.4696 -1.2661  0.2782
  269TIP3    H222443   4.726   4.983   7.560 -1.9417  1.7344 -0.0286
  270TIP3   OH222444   0.612   5.072   6.998  0.9499  0.5403  0.2890
  270TIP3    H122445   0.692   5.064   6.946  0.9724 -1.0005  0.5207
  270TIP3    H222446   0.640   5.052   7.088 -0.0059 -1.9305  0.0927
  271TIP3   OH222447   0.597   0.272   0.696  0.2958  0.5452  0.7553
  271TIP3    H122448   0.515   0.306   0.731  0.0589 -0.2329  0.9843
  271TIP3    H222449   0.614   0.193   0.747  0.9596  0.4569  0.4141
  272TIP3   OH222450   0.885   6.592   7.077 -0.1475  0.7000  0.5347
  272TIP3    H122451   0.904   6.636   6.994  2.4735  1.2281  1.3423
  272TIP3    H222452   0.820   6.648   7.120 -0.5447  1.1135 -0.5767
  273TIP3   OH222453   3.490   4.200   8.544 -0.2876 -0.2274 -0.2623
  273TIP3    H122454   3.438   4.268   8.500  0.2908  0.9622  0.8181
  273TIP3    H222455   3.573   4.243   8.565 -1.1497 -0.0270  3.6233
  274TIP3   OH222456   1.160   2.848   1.943 -0.0555 -0.3423  0.1017
  274TIP3    H122457   1.141   2.932   1.983  0.1700 -0.4755  0.4947
  274TIP3    H222458   1.154   2.785   2.015  0.9807 -0.4997  0.0713
  275TIP3   OH222459   3.067   6.676   0.014  0.4437 -0.0062 -0.0003
  275TIP3    H122460   3.057   6.769  -0.006 -1.3668 -0.6793 -2.7484
  275TIP3    H222461   2.978   6.642   0.015  1.1564 -2.0360 -0.9028
  276TIP3   OH222462   2.728   6.846   1.913  0.1479 -0.4976  0.5132
  276TIP3    H122463   2.742   6.913   1.980 -2.1836 -0.0727  0.6653
  276TIP3    H222464   2.725   6.763   1.962 -1.4142 -0.2026  0.9789
  277TIP3   OH222465   1.573   0.160   8.212  0.5476  0.2482  0.3242
  277TIP3    H122466   1.533   0.182   8.297 -2.0348 -0.5529 -0.5877
  277TIP3    H222467   1.549   0.234   8.156  0.1151 -0.3719 -0.3120
  278TIP3   OH222468   2.081   4.370   8.557  0.1989 -0.1656 -0.3873
  278TIP3    H122469   2.086   4.464   8.569  0.0153  0.0975 -2.2131
  278TIP3    H222470   1.999   4.355   8.510  0.4084 -1.1921 -0.4696
  279TIP3   OH222471   4.770   6.429   8.437 -0.5051  0.5909  0.7467
  279TIP3    H122472   4.727   6.483   8.371  1.3087  2.4296  0.9698
  279TIP3    H222473   4.815   6.361   8.386  0.5129  1.7304  0.0643
  280TIP3   OH222474   5.602   5.474   1.555  0.2563  0.0680  0.7724
  280TIP3    H122475   5.539   5.544   1.538  1.6868  1.1875 -0.0867
  280TIP3    H222476   5.666   5.513   1.614  2.0572  0.1118 -1.1062
  281TIP3   OH222477   2.196   2.024   1.617  0.0219  0.2612  0.1782
  281TIP3    H122478   2.182   2.108   1.574  0.9744 -0.0524 -0.7594
  281TIP3    H222479   2.289   2.023   1.639  0.5387 -1.4274 -1.7832
  282TIP3   OH222480   0.456   3.091   0.559 -0.1129 -0.1368 -0.4489
  282TIP3    H122481   0.425   3.025   0.620 -2.3726 -0.3067 -1.6829
  282TIP3    H222482   0.427   3.174   0.596  2.1579  0.2040  0.7632
  283TIP3   OH222483   6.622   2.392   7.934 -0.0293  0.0121  0.4520
  283TIP3    H122484   6.679   2.459   7.896  0.1250 -0.2309  0.2534
  283TIP3    H222485   6.559   2.372   7.865  0.5869 -0.8227  0.1175
  284TIP3   OH222486   1.013   0.907   8.044 -0.0587  0.3031 -0.4362
  284TIP3    H122487   0.948   0.968   8.008 -0.9545 -0.4900 -0.1972
  284TIP3    H222488   1.045   0.858   7.969  1.1429  1.4770 -0.7288
  285TIP3   OH222489   4.372   0.254   0.595 -0.1619  0.3670 -0.9463
  285TIP3    H122490   4.457   0.288   0.565 -0.4919  0.1016 -2.2317
  285TIP3    H222491   4.349   0.186   0.532 -0.8728 -0.2719 -0.0390
  286TIP3   OH222492   5.289   6.590   1.737 -0.3264  0.2658 -0.0911
  286TIP3    H122493   5.383   6.571   1.731 -0.4090  0.1955 -1.3081
  286TIP3    H222494   5.258   6.587   1.647 -1.6696 -0.5602  0.3730
  287TIP3   OH222495   3.172   2.447   0.207  0.9624  0.1039  0.5813
  287TIP3    H122496   3.245   2.471   0.151  0.8967  0.0988  0.4931
  287TIP3    H222497   3.208   2.446   0.295  1.1354 -0.1694  0.5077
  288TIP3   OH222498   2.299   6.457   6.642  0.0258 -0.1735 -0.1614
  288TIP3    H122499   2.369   6.472   6.580 -0.6611 -0.3707 -1.0116
  288TIP3    H222500   2.338   6.473   6.728  0.8872  0.4721 -0.6646
  289TIP3   OH222501   3.621   3.640   1.474  0.2292 -0.2064 -0.3825
  289TIP3    H122502   3.581   3.618   1.558 -3.0352 -0.4203 -1.8496
  289TIP3    H222503   3.657   3.557   1.443 -1.8202 -1.0021 -0.7713
  290TIP3   OH222504   1.510   4.394   6.424 -0.0811  0.2078 -0.2953
  290TIP3    H122505   1.449   4.323   6.444  0.2417 -0.5943 -1.9727
  290TIP3    H222506   1.467   4.443   6.353  1.1367 -0.3222 -1.4439
  291TIP3   OH222507   2.866   6.000   0.740 -0.3372 -0.9182 -0.2165
  291TIP3    H122508   2.797   5.975   0.678 -1.1005  1.6902 -0.5603
  291TIP3    H222509   2.923   6.059   0.690 -0.5421  0.6464  1.2750
  292TIP3   OH222510   1.521   2.804   1.649 -0.3882 -0.0105 -0.0838
  292TIP3    H122511   1.597   2.788   1.594  1.6431  0.0572  2.5194
  292TIP3    H222512   1.472   2.722   1.648  2.1817 -1.6858  1.7257
  293TIP3   OH222513   1.812   6.468   7.747  1.0858  0.1048 -0.2758
  293TIP3    H122514   1.891   6.483   7.800  0.8337  2.6012 -0.4949
  293TIP3    H222515   1.741   6.508   7.797  0.0904 -1.2016 -0.5768
  294TIP3   OH222516   1.122   0.442   8.204 -0.0941 -0.4624  0.2613
  294TIP3    H122517   1.071   0.522   8.191 -1.9462 -1.6150  0.0416
  294TIP3    H222518   1.089   0.382   8.137 -0.4111 -2.1680  1.8732
  295TIP3   OH222519   3.973   5.595   2.551  0.0907  0.3487 -0.3601
  295TIP3    H122520   3.915   5.568   2.480  1.0494 -1.5077 -0.4774
  295TIP3    H222521   3.940   5.549   2.629  0.6303  0.2832 -0.1639
  296TIP3   OH222522   4.860   5.123   0.041 -0.7554  0.0163  0.1650
  296TIP3    H122523   4.907   5.039   0.043 -0.8106 -0.0769 -1.3515
  296TIP3    H222524   4.832   5.136   0.131  0.5985 -0.8308  0.7512
  297TIP3   OH222525   1.512   5.766   0.993 -0.0129  0.0450 -0.1754
  297TIP3    H122526   1.517   5.766   0.897 -1.4176 -0.4344 -0.2796
  297TIP3    H222527   1.598   5.737   1.022  0.5401  0.5344 -1.2800
  298TIP3   OH222528   6.682   3.623   8.024  0.3406  0.3132  0.5290
  298TIP3    H122529   6.587   3.616   8.009  0.6301 -0.6483 -1.0661
  298TIP3    H222530   6.716   3.656   7.941  1.6619 -1.5411  0.2972
  299TIP3   OH222531   1.758   0.193   6.370  0.1226  0.2493 -0.2089
  299TIP3    H122532   1.825   0.249   6.409 -0.4160  0.3053  0.6853
  299TIP3    H222533   1.781   0.104   6.398  0.5535  0.1014 -1.0015
  300TIP3   OH222534   5.886   5.478   7.685 -0.0418 -0.3954  0.4378
  300TIP3    H122535   5.848   5.484   7.773 -0.5952  0.7906  0.1345
  300TIP3    H222536   5.811   5.473   7.626  0.2438  1.4392 -0.1368
  301TIP3   OH222537   1.137   0.112   2.391  0.0625 -0.6698 -0.6686
  301TIP3    H122538   1.049   0.113   2.427  0.3344  0.5192  0.0415
  301TIP3    H222539   1.175   0.196   2.419  0.9598 -0.5659 -2.0850
  302TIP3   OH222540   4.685   2.699   0.924  0.8954 -0.2308 -0.9796
  302TIP3    H122541   4.764   2.713   0.977 -0.6105 -0.3662  1.4168
  302TIP3    H222542   4.652   2.788   0.908  0.2604 -0.2682  0.0734
  303TIP3   OH222543   4.130   2.529   0.630 -0.1717  0.3166  0.7550
  303TIP3    H122544   4.155   2.439   0.611 -0.1989  0.6617 -1.0867
  303TIP3    H222545   4.039   2.523   0.659 -0.1319 -0.2535  0.7721
  304TIP3   OH222546   1.492   0.194   0.397  0.1097 -0.6464 -0.4326
  304TIP3    H122547   1.401   0.206   0.371  0.1195 -1.9091 -1.1758
  304TIP3    H222548   1.488   0.135   0.472  0.3041 -0.8182 -0.5533
  305TIP3   OH222549   2.540   0.759   8.493  0.0210  0.5243  0.0570
  305TIP3    H122550   2.530   0.850   8.521  0.0420  0.3882  0.5080
  305TIP3    H222551   2.584   0.716   8.566  0.1398  0.1804 -0.2141
  306TIP3   OH222552   3.310   5.823   0.315 -0.2702  0.3567 -0.2503
  306TIP3    H122553   3.280   5.752   0.372  0.0834  0.4621  0.0737
  306TIP3    H222554   3.335   5.893   0.376 -1.7935  1.2432 -0.5819
  307TIP3   OH222555   3.828   1.599   2.480 -0.1055 -0.1306  0.0047
  307TIP3    H122556   3.754   1.651   2.449  0.7557  0.9776 -0.2665
  307TIP3    H222557   3.904   1.634   2.432  0.9036  0.0634  1.6554
  308TIP3   OH222558   0.098   3.720   0.082 -0.0846 -0.0864  0.5680
  308TIP3    H122559   0.063   3.796   0.035  2.5547  1.8843  1.5389
  308TIP3    H222560   0.188   3.713   0.051 -0.1669 -2.7557  0.6940
  309TIP3   OH222561   2.175   4.049   0.234 -0.5781 -0.6054 -0.5812
  309TIP3    H122562   2.255   3.999   0.250 -0.6442 -0.7410 -0.6676
  309TIP3    H222563   2.125   3.995   0.172 -1.4974 -1.3451  0.7446
  310TIP3   OH222564   3.107   2.669   2.240  0.5574 -0.2235  0.3937
  310TIP3    H122565   3.023   2.627   2.259  0.7637  0.1056  2.1617
  310TIP3    H222566   3.095   2.706   2.153 -0.5602 -1.5812 -0.0753
  311TIP3   OH222567   1.394   2.937   1.848 -0.2503 -0.0629  0.5125
  311TIP3    H122568   1.426   2.855   1.811  1.1031  0.1564  1.1527
  311TIP3    H222569   1.305   2.917   1.877 -0.6806 -0.7327 -1.1658
  312TIP3   OH222570   3.337   0.203   0.350 -0.1633  0.0884 -0.6675
  312TIP3    H122571   3.330   0.200   0.255  1.3820 -1.0622 -0.7829
  312TIP3    H222572   3.295   0.122   0.380  1.4892 -0.7755 -0.5741
  313TIP3   OH222573   4.384   0.264   7.594  0.0914 -0.3222  0.0495
  313TIP3    H122574   4.342   0.195   7.645  0.1650 -0.4041  0.0000
  313TIP3    H222575   4.313   0.324   7.572  0.3245  0.6201  1.6898
  314TIP3   OH222576   2.004   5.702   7.871 -0.3361  0.2254  0.6231
  314TIP3    H122577   1.912   5.679   7.880 -0.6173  1.5436  1.3547
  314TIP3    H222578   2.012   5.739   7.783 -0.5176  0.1874  0.5909
  315TIP3   OH222579   5.364   2.818   7.458  0.3006 -0.0848 -0.6850
  315TIP3    H122580   5.413   2.894   7.491  0.0617 -0.3014  0.1773
  315TIP3    H222581   5.427   2.771   7.404  0.6884  0.2866 -0.5630
  316TIP3   OH222582   2.518   0.606   7.622  0.5581  0.3778 -0.1772
  316TIP3    H122583   2.463   0.674   7.661 -1.8741 -0.3484 -2.0620
  316TIP3    H222584   2.488   0.525   7.664  1.6409  0.1809  0.2258
  317TIP3   OH222585   3.278   1.257   1.482 -0.3047 -0.7001  0.2794
  317TIP3    H122586   3.222   1.307   1.541  0.0536 -0.7855  0.7015
  317TIP3    H222587   3.262   1.166   1.506  0.5566 -0.7010  0.9264
  318TIP3   OH222588   3.882   4.921   2.178 -0.3691  0.5368  0.1676
  318TIP3    H122589   3.946   4.987   2.152 -0.6097  0.8542  0.3701
  318TIP3    H222590   3.931   4.862   2.236 -0.3696  1.0464  0.7011
  319TIP3   OH222591   3.797   0.190   1.576  0.1479  0.5478  0.6485
  319TIP3    H122592   3.764   0.158   1.659 -0.9867  1.3619  0.5333
  319TIP3    H222593   3.810   0.284   1.590  1.5884  0.4096  0.4131
  320TIP3   OH222594   6.068   2.993   7.786  0.0709  0.3483  0.5119
  320TIP3    H122595   6.017   2.941   7.849  2.5598 -2.0890  0.6959
  320TIP3    H222596   6.126   3.046   7.840 -0.1921  0.8978  0.2667
  321TIP3   OH222597   1.815   5.086   7.430  0.0274  0.1693 -0.5659
  321TIP3    H122598   1.842   4.995   7.419 -0.9002 -0.2732  0.6108
  321TIP3    H222599   1.874   5.120   7.498 -1.7406 -0.5902  1.4811
  322TIP3   OH222600   2.469   4.805   0.857 -0.0358  0.2574 -0.1653
  322TIP3    H122601   2.379   4.783   0.880  0.6963 -1.4434  1.2934
  322TIP3    H222602   2.482   4.768   0.770 -0.0667 -1.6014  0.5896
  323TIP3   OH222603   4.666   3.540   7.245 -0.6222  0.6618  0.4708
  323TIP3    H122604   4.718   3.522   7.324 -0.4721 -1.7682 -0.1219
  323TIP3    H222605   4.712   3.494   7.175 -2.2020  0.5819 -0.5529
  324TIP3   OH222606   0.150   2.923   8.514 -0.4336  0.4127  0.1539
  324TIP3    H122607   0.207   2.869   8.460  0.6906  0.7514  0.9634
  324TIP3    H222608   0.070   2.935   8.461  0.0027 -0.5565 -0.7502
  325TIP3   OH222609   4.240   4.507   0.191 -0.4130  0.1794  0.4376
  325TIP3    H122610   4.215   4.418   0.216 -1.1918  0.6227  1.2937
  325TIP3    H222611   4.302   4.495   0.119  0.9160 -1.1038  1.7364
  326TIP3   OH222612   6.001   1.517   0.754 -0.2270 -0.4769 -0.5893
  326TIP3    H122613   6.035   1.586   0.810 -0.8344 -1.0004  0.4444
  326TIP3    H222614   5.935   1.559   0.700 -2.3929 -0.6728  1.7347
  327TIP3   OH222615   1.383   1.124   6.933  0.0945  0.2315  0.2704
  327TIP3    H122616   1.321   1.192   6.909 -0.5812 -0.7622 -0.9174
  327TIP3    H222617   1.368   1.054   6.869 -0.8490 -2.0221  2.7467
  328TIP3   OH222618   3.903   1.768   1.793 -0.1536 -0.3156  0.3976
  328TIP3    H122619   3.866   1.857   1.800 -0.9285 -0.6129  0.2058
  328TIP3    H222620   3.878   1.739   1.706 -1.9666 -1.6125  1.2903
  329TIP3   OH222621   0.084   6.563   1.448 -0.1749 -0.1897  0.8038
  329TIP3    H122622   0.020   6.562   1.376 -2.8192 -0.9378  2.9891
  329TIP3    H222623   0.077   6.652   1.484  1.2799  0.2419  0.0676
  330TIP3   OH222624   3.406   0.935   0.068 -0.4520  0.5778 -0.2106
  330TIP3    H122625   3.320   0.894   0.071 -0.1467 -0.1171 -0.5659
  330TIP3    H222626   3.446   0.913   0.152 -0.8448  1.4351  0.2157
  331TIP3   OH222627   1.535   5.951   7.481 -0.6190  0.9020  0.5139
  331TIP3    H122628   1.568   5.884   7.422 -0.4399  2.0722 -0.7761
  331TIP3    H222629   1.447   5.922   7.504 -1.3517  1.1844 -1.6705
  332TIP3   OH222630   6.149   2.739   0.546  0.2707  0.2017  0.3060
  332TIP3    H122631   6.149   2.761   0.453 -1.4562 -0.1283  0.2076
  332TIP3    H222632   6.082   2.671   0.555 -0.5301  1.1600  2.0058
  333TIP3   OH222633   4.339   0.636   0.603  0.0124  0.0949 -0.6630
  333TIP3    H122634   4.291   0.554   0.588  0.8889 -0.5346 -0.1457
  333TIP3    H222635   4.411   0.633   0.540 -0.0701  0.5718 -0.7832
  334TIP3   OH222636   5.401   3.625   7.986  0.2968  0.2301 -0.3989
  334TIP3    H122637   5.306   3.617   7.987  0.2033  1.2451  0.9340
  334TIP3    H222638   5.432   3.535   7.978 -0.7515 -0.0564 -1.7216
  335TIP3   OH222639   6.267   5.144   7.081  0.1353 -0.4856 -0.1661
  335TIP3    H122640   6.256   5.190   6.998 -4.1876 -0.5958  0.1120
  335TIP3    H222641   6.315   5.064   7.059 -1.4191 -0.8062 -2.7583
  336TIP3   OH222642   3.146   5.323   1.783 -0.1345 -0.2265 -0.4924
  336TIP3    H122643   3.107   5.237   1.772 -0.6043 -0.0450 -0.3097
  336TIP3    H222644   3.146   5.361   1.695 -0.5927 -0.1399 -0.4590
  337TIP3   OH222645   4.380   6.805   0.730 -0.3855  0.2371 -0.2711
  337TIP3    H122646   4.355   6.874   0.668  0.2099  1.2635  0.5944
  337TIP3    H222647   4.433   6.744   0.678  2.2582  2.3765 -0.2910
  338TIP3   OH222648   1.975   6.349   1.919  0.5695 -0.0734 -0.7694
  338TIP3    H122649   1.951   6.411   1.851 -0.6474 -0.1342 -0.4219
  338TIP3    H222650   2.024   6.401   1.983 -1.6497  0.9234  0.2356
  339TIP3   OH222651   1.318   3.912   7.874  0.4791 -0.0332  0.1545
  339TIP3    H122652   1.321   3.834   7.930 -0.4095 -0.8518 -0.8826
  339TIP3    H222653   1.408   3.923   7.844  0.1025 -2.9291 -2.6031
  340TIP3   OH222654   1.859   0.082   7.173 -0.0600 -0.0006 -0.2744
  340TIP3    H122655   1.781   0.126   7.206  1.5632  2.6334  0.2917
  340TIP3    H222656   1.932   0.124   7.218  1.7458 -2.5249 -0.5933
  341TIP3   OH222657   2.205   1.407   1.479 -0.2969  0.6081 -0.6269
  341TIP3    H122658   2.119   1.368   1.496  0.5954 -1.4962 -0.5710
  341TIP3    H222659   2.223   1.387   1.387  0.4782  0.2490 -0.4120
  342TIP3   OH222660   4.242   2.247   6.643  0.0852  0.2664  0.4724
  342TIP3    H122661   4.324   2.198   6.646  0.7632  1.4402  2.0573
  342TIP3    H222662   4.245   2.305   6.718 -2.4138  0.0467  0.8432
  343TIP3   OH222663   1.132   4.682   2.087  0.0426  0.1817  0.8373
  343TIP3    H122664   1.121   4.767   2.130 -1.7653 -0.3696  1.5563
  343TIP3    H222665   1.103   4.618   2.152 -2.1458 -0.7266 -0.8976
  344TIP3   OH222666   0.870   2.383   8.160 -0.1682  0.3455 -0.1331
  344TIP3    H122667   0.826   2.379   8.245  0.1129  0.5866  0.0258
  344TIP3    H222668   0.953   2.338   8.174 -0.7090 -0.8502 -0.6554
  345TIP3   OH222669   1.597   5.141   7.277  0.1493  0.1262  0.6058
  345TIP3    H122670   1.552   5.064   7.311  1.3471 -0.6227  0.5556
  345TIP3    H222671   1.654   5.168   7.349  1.5003 -0.4877 -0.1990
  346TIP3   OH222672   2.106   2.895   7.947  0.4878  0.5968 -0.0686
  346TIP3    H122673   2.187   2.858   7.983  0.9364  0.5314 -1.1100
  346TIP3    H222674   2.081   2.834   7.878 -1.7330 -0.6492  1.6978
  347TIP3   OH222675   4.295   2.180   8.139  0.6765  0.0369  0.2570
  347TIP3    H122676   4.282   2.126   8.061 -2.1652  1.9801 -0.7579
  347TIP3    H222677   4.344   2.256   8.107  0.7329  0.1855  0.6951
  348TIP3   OH222678   5.607   0.434   7.471 -0.0543  0.5469 -0.6645
  348TIP3    H122679   5.593   0.488   7.548 -0.4553 -0.0299 -0.3190
  348TIP3    H222680   5.694   0.458   7.439  1.1675 -0.8443  1.3383
  349TIP3   OH222681   5.937   1.263   0.479  0.3149  0.1566  0.2225
  349TIP3    H122682   5.899   1.228   0.398  0.3853  0.5277  0.0252
  349TIP3    H222683   6.029   1.237   0.476  0.0261 -1.0100  0.8496
  350TIP3   OH222684   0.226   6.094   8.234 -0.2330 -0.2210  0.2005
  350TIP3    H122685   0.141   6.136   8.243 -0.0258  0.0550  0.9091
  350TIP3    H222686   0.284   6.163   8.203  0.2513  0.2128  1.9725
  351TIP3   OH222687   2.318   0.872   8.291 -0.2200  0.0487 -0.3890
  351TIP3    H122688   2.244   0.811   8.292  0.2228 -0.5058 -0.9076
  351TIP3    H222689   2.366   0.851   8.371 -1.3703  1.3755  0.7088
  352TIP3   OH222690   1.329   2.563   1.697  0.1267 -0.3081  0.4058
  352TIP3    H122691   1.273   2.537   1.770 -1.1475  0.6849 -0.1737
  352TIP3    H222692   1.382   2.486   1.679 -2.6324 -2.1593 -0.4928
  353TIP3   OH222693   2.243   0.208   2.018  0.8998  0.2058  0.1050
  353TIP3    H122694   2.276   0.272   2.081  1.3745  0.7626 -0.6961
  353TIP3    H222695   2.158   0.183   2.053  0.8384  1.0458  0.5949
  354TIP3   OH222696   3.097   5.467   0.729 -0.4249 -0.3844 -0.0281
  354TIP3    H122697   3.139   5.502   0.808 -0.7268  0.6352 -0.3065
  354TIP3    H222698   3.016   5.428   0.761 -0.0299 -0.9580  0.3005
  355TIP3   OH222699   6.190   5.532   8.343  0.4205 -0.2716 -0.4913
  355TIP3    H122700   6.119   5.547   8.406 -0.4626 -0.7542 -1.3532
  355TIP3    H222701   6.224   5.620   8.324  2.4252 -0.2116  2.5101
  356TIP3   OH222702   2.886   2.467   1.597  0.0266  0.1218 -0.1470
  356TIP3    H122703   2.846   2.529   1.658 -0.4631 -1.6193  1.3842
  356TIP3    H222704   2.862   2.500   1.510 -3.5650 -0.0090  0.6643
  357TIP3   OH222705   0.677   0.516   1.431 -0.3828 -0.3622 -0.5390
  357TIP3    H122706   0.662   0.555   1.344 -0.8340  0.7903  0.0322
  357TIP3    H222707   0.640   0.580   1.492  1.0365 -0.5683  0.5782
  358TIP3   OH222708   3.750   5.228   2.198 -0.0107  0.4014 -0.0896
  358TIP3    H122709   3.800   5.147   2.190 -1.6288 -0.5452 -1.6195
  358TIP3    H222710   3.659   5.198   2.210 -0.7220  1.9474 -1.2420
  359TIP3   OH222711   5.729   6.239   1.158  0.2676  0.1736  0.0957
  359TIP3    H122712   5.800   6.298   1.132  1.7146 -1.0261  1.1276
  359TIP3    H222713   5.698   6.274   1.241  2.0891 -1.1886  1.4440
  360TIP3   OH222714   5.711   4.836   8.337 -0.7013 -0.3286 -0.2278
  360TIP3    H122715   5.805   4.820   8.327 -0.2128  1.9595  0.2728
  360TIP3    H222716   5.676   4.828   8.248 -0.0595 -1.2753 -0.4104
  361TIP3   OH222717   2.446   4.934   7.208 -0.1735 -0.4817 -0.5188
  361TIP3    H122718   2.491   5.016   7.225  0.6283 -0.8003 -1.0149
  361TIP3    H222719   2.386   4.953   7.136  2.3149 -1.0286 -2.9014
  362TIP3   OH222720   4.774   1.469   7.004 -0.2622  0.4590 -0.1633
  362TIP3    H122721   4.791   1.379   6.977  0.7707  0.8293 -0.8427
  362TIP3    H222722   4.780   1.467   7.099  0.3758 -0.0846 -0.2034
  363TIP3   OH222723   6.055   1.815   7.631  0.0207  0.0688  0.3489
  363TIP3    H122724   6.002   1.736   7.640  0.4569 -0.3792 -0.7806
  363TIP3    H222725   6.011   1.880   7.686  0.4556 -1.3390  2.5030
  364TIP3   OH222726   2.522   6.268   7.109  0.1072 -0.0715 -0.6812
  364TIP3    H122727   2.594   6.329   7.117 -0.9452  1.0975  0.1883
  364TIP3    H222728   2.544   6.197   7.169 -1.2177  2.1174  2.6593
  365TIP3   OH222729   6.635   5.434   7.921 -0.2813 -0.5093  0.7416
  365TIP3    H122730   6.542   5.417   7.936 -0.3868 -0.9758 -0.3074
  365TIP3    H222731   6.636   5.508   7.859  0.0505 -0.3184  0.9728
  366TIP3   OH222732   1.740   4.465   0.676 -0.3678  0.8435 -0.4434
  366TIP3    H122733   1.743   4.506   0.763  2.1970  0.1240 -0.1061
  366TIP3    H222734   1.802   4.515   0.624 -0.6557  0.2299 -1.3916
  367TIP3   OH222735   3.068   0.612   7.438  0.0755 -0.0716  0.1682
  367TIP3    H122736   3.137   0.616   7.372 -1.2584  2.1489 -1.1897
  367TIP3    H222737   3.100   0.668   7.509  0.2326 -0.0990  0.1200
  368TIP3   OH222738   4.908   5.028   2.154  0.2795  0.2140  0.1048
  368TIP3    H122739   4.870   4.985   2.231 -0.0117 -0.4158 -0.3766
  368TIP3    H222740   4.912   4.959   2.088 -1.8439  1.3222 -1.2823
  369TIP3   OH222741   5.403   6.585   2.719 -0.5998  0.2506 -0.2295
  369TIP3    H122742   5.436   6.502   2.753 -1.0203  0.6916  1.3622
  369TIP3    H222743   5.331   6.608   2.779 -1.3698  1.1072 -1.4326
  370TIP3   OH222744   6.673   5.440   1.585 -0.0368  0.4318  0.0003
  370TIP3    H122745   6.584   5.407   1.581 -0.1161  0.6872 -3.4547
  370TIP3    H222746   6.723   5.383   1.527  1.9512  0.6868  1.3459
  371TIP3   OH222747   5.980   0.365   7.640  0.0527 -0.0740  0.1481
  371TIP3    H122748   5.949   0.373   7.730  0.8922 -0.3757  0.4740
  371TIP3    H222749   5.930   0.292   7.603 -1.4377  1.0339 -0.1486
  372TIP3   OH222750   6.391   4.207   7.166 -0.5301 -0.0508  0.2626
  372TIP3    H122751   6.319   4.165   7.119 -1.3988  0.5730  0.9955
  372TIP3    H222752   6.467   4.151   7.149 -1.8094 -2.5445  2.0122
  373TIP3   OH222753   2.189   5.570   0.456 -0.4257 -0.2155 -0.3229
  373TIP3    H122754   2.225   5.481   0.459 -1.7079 -0.7483  0.0220
  373TIP3    H222755   2.216   5.609   0.539 -1.0938 -0.8060  0.1874
  374TIP3   OH222756   1.326   5.577   1.100  0.1704 -0.0109 -0.0336
  374TIP3    H122757   1.357   5.561   1.189  0.2891  0.7088  0.0591
  374TIP3    H222758   1.403   5.610   1.054  0.5083 -1.7985 -0.8142
  375TIP3   OH222759   5.666   3.445   6.992 -0.2258 -0.1992 -0.6884
  375TIP3    H122760   5.626   3.360   7.011  1.2855 -1.1567 -1.5894
  375TIP3    H222761   5.757   3.436   7.022  0.4352  0.4517 -2.3900
  376TIP3   OH222762   2.126   4.718   7.147  0.0090  0.3226  0.3779
  376TIP3    H122763   2.141   4.762   7.064  0.3539 -0.6243 -0.0778
  376TIP3    H222764   2.101   4.629   7.123 -0.6812  0.2597  1.2717
  377TIP3   OH222765   1.856   3.022   0.876 -0.8422  0.4263  0.2107
  377TIP3    H122766   1.877   3.048   0.966 -2.1735 -0.2841  0.7599
  377TIP3    H222767   1.836   2.928   0.882 -0.2603  0.1984 -0.9709
  378TIP3   OH222768   4.617   4.871   0.621 -0.1943 -0.0348 -0.1750
  378TIP3    H122769   4.527   4.899   0.605  0.0910  1.0420  0.0794
  378TIP3    H222770   4.610   4.776   0.636 -1.6451  0.4106  2.5632
  379TIP3   OH222771   2.554   2.170   1.402  0.0505  0.1988 -0.3958
  379TIP3    H122772   2.544   2.190   1.495  0.5995  1.0522 -0.5121
  379TIP3    H222773   2.564   2.256   1.360 -0.5772 -0.1499 -1.2938
  380TIP3   OH222774   6.484   5.319   6.973  0.0631 -0.1015 -0.5894
  380TIP3    H122775   6.416   5.334   6.907 -0.2522 -0.7945 -0.4278
  380TIP3    H222776   6.556   5.278   6.925 -0.3624 -1.0729 -0.4249
  381TIP3   OH222777   3.476   4.583   0.859  0.3034 -0.1797  0.6548
  381TIP3    H122778   3.431   4.516   0.808 -0.7299  0.0064  1.2893
  381TIP3    H222779   3.457   4.665   0.813 -1.6652  0.1553  1.9421
  382TIP3   OH222780   6.357   3.987   7.566  0.4449  0.5278  0.7334
  382TIP3    H122781   6.346   3.897   7.596  0.3154  0.6983  1.2000
  382TIP3    H222782   6.277   4.006   7.517 -0.2381  0.9062  1.9570
  383TIP3   OH222783   0.893   5.008   0.238  0.5670  0.0870 -0.2588
  383TIP3    H122784   0.876   4.986   0.330 -0.6697 -0.3356 -0.5627
  383TIP3    H222785   0.883   5.103   0.234  0.8225  0.1298  0.0796
  384TIP3   OH222786   1.046   0.058   1.863  0.3926  0.2441 -0.1231
  384TIP3    H122787   1.073   0.087   1.950 -0.7741 -0.3886  0.4734
  384TIP3    H222788   1.094   0.115   1.803 -0.2427  2.0114  0.9605
  385TIP3   OH222789   5.675   6.561   6.572 -0.3412 -0.4281 -0.4766
  385TIP3    H122790   5.609   6.627   6.550  0.3691  0.2167 -0.7277
  385TIP3    H222791   5.641   6.479   6.534 -0.9484 -0.0853 -0.6795
  386TIP3   OH222792   4.478   4.845   0.007  0.0715 -0.2057 -0.9811
  386TIP3    H122793   4.530   4.841   0.088 -0.9740 -0.3931 -0.2918
  386TIP3    H222794   4.476   4.938  -0.016 -0.6224  0.0092 -0.1029
  387TIP3   OH222795   3.286   4.707   7.299  0.1571  0.0346 -0.0337
  387TIP3    H122796   3.336   4.665   7.229 -1.5581 -2.0174 -0.1376
  387TIP3    H222797   3.275   4.639   7.364 -2.3136  0.4257  0.0437
  388TIP3   OH222798   2.279   0.139   6.670 -0.3861 -0.2962 -0.2098
  388TIP3    H122799   2.359   0.093   6.695 -0.1347  0.5522  0.5960
  388TIP3    H222800   2.272   0.125   6.576 -0.3562 -2.0218  0.0159
  389TIP3   OH222801   0.351   1.302   7.807  0.1906  0.6389  0.1908
  389TIP3    H122802   0.308   1.332   7.887  0.5598  1.3984  0.1073
  389TIP3    H222803   0.355   1.379   7.751  0.0206  0.1284 -0.5287
  390TIP3   OH222804   5.514   2.799   1.792  0.3395 -0.0463  0.4283
  390TIP3    H122805   5.509   2.784   1.697 -0.2420  2.3749  0.0148
  390TIP3    H222806   5.572   2.875   1.801  0.5840 -0.4017  2.0523
  391TIP3   OH222807   6.152   6.202   6.701  0.1368 -0.1828 -0.2975
  391TIP3    H122808   6.186   6.199   6.611  0.5031  0.6878 -0.1992
  391TIP3    H222809   6.100   6.122   6.709  0.5772 -0.5705 -1.0927
  392TIP3   OH222810   3.534   5.510   0.515 -0.0936  1.0450 -0.1222
  392TIP3    H122811   3.587   5.588   0.529  0.2530  0.6114  1.0643
  392TIP3    H222812   3.595   5.437   0.529 -0.7203  0.5562  0.0943
  393TIP3   OH222813   0.767   2.968   6.603 -0.4477 -0.0799 -0.3425
  393TIP3    H122814   0.753   2.875   6.586 -0.6593 -0.1326  0.0882
  393TIP3    H222815   0.710   3.013   6.541  0.5808 -0.1976 -1.4162
  394TIP3   OH222816   3.715   3.994   8.406 -0.7342  0.1916 -0.3539
  394TIP3    H122817   3.639   3.990   8.465 -0.6560  1.1221 -0.1809
  394TIP3    H222818   3.753   3.906   8.411 -1.3111 -0.0386  0.2101
  395TIP3   OH222819   1.960   2.994   2.160  0.4276  0.2748  0.1423
  395TIP3    H122820   1.999   2.948   2.233  0.7092 -0.3089 -0.3730
  395TIP3    H222821   1.871   3.015   2.190  0.5091 -0.0392  0.6120
  396TIP3   OH222822   0.259   1.546   0.124  0.1201  0.6767  0.5064
  396TIP3    H122823   0.193   1.616   0.125  0.6568  1.1801  1.6684
  396TIP3    H222824   0.326   1.574   0.186  0.4706 -0.7501  0.8210
  397TIP3   OH222825   2.878   4.606   0.287  0.0264 -0.2521 -0.9351
  397TIP3    H122826   2.948   4.548   0.257  0.5539 -0.3529  0.3893
  397TIP3    H222827   2.850   4.569   0.371 -0.0150  1.0662 -0.3382
  398TIP3   OH222828   4.586   0.896   2.014  0.1543  0.1475  0.4853
  398TIP3    H122829   4.506   0.949   2.004  0.8158  0.9599 -0.7349
  398TIP3    H222830   4.656   0.960   2.026  1.2876 -0.2098 -3.0099
  399TIP3   OH222831   5.514   5.993   7.512 -0.4485  0.2628  0.2592
  399TIP3    H122832   5.552   5.974   7.426  0.1164 -0.3221  0.6342
  399TIP3    H222833   5.497   5.907   7.550  2.5176  0.3887  2.1522
  400TIP3   OH222834   6.055   4.676   8.319 -0.6638  0.0480 -0.0906
  400TIP3    H122835   6.036   4.582   8.311  1.0357 -0.2892 -0.8031
  400TIP3    H222836   6.009   4.716   8.245 -1.2441 -0.2515  0.1035
  401TIP3   OH222837   5.842   3.676   1.044  0.2132  0.1777  0.1855
  401TIP3    H122838   5.778   3.668   1.115 -0.8822  1.6407 -0.5852
  401TIP3    H222839   5.843   3.590   1.002 -0.5956 -0.1215  0.7611
  402TIP3   OH222840   4.410   4.465   0.890  0.0127 -0.2483  0.0421
  402TIP3    H122841   4.434   4.528   0.958  1.1027 -0.1063 -0.4535
  402TIP3    H222842   4.329   4.424   0.922  1.6763 -1.8402  2.5467
  403TIP3   OH222843   4.420   3.145   0.148  0.2995  0.3336  0.0797
  403TIP3    H122844   4.469   3.218   0.186  1.2937 -0.9711  1.3753
  403TIP3    H222845   4.347   3.187   0.102  0.5399  2.1219  1.2424
  404TIP3   OH222846   2.143   0.971   6.798  0.1147 -0.4874 -0.0451
  404TIP3    H122847   2.106   0.993   6.883  1.2935 -2.1739  0.9742
  404TIP3    H222848   2.131   1.049   6.745  2.1951  1.8225  2.6250
  405TIP3   OH222849   0.624   3.417   6.910 -0.3677 -0.2982 -0.5886
  405TIP3    H122850   0.558   3.475   6.869 -1.0808 -1.9254 -1.8789
  405TIP3    H222851   0.706   3.440   6.866  0.1507  2.1391  1.4248
  406TIP3   OH222852   5.197   0.002   2.817  0.5846 -0.9880  0.3904
  406TIP3    H122853   5.267  -0.034   2.762  0.2139  0.9988 -1.4633
  406TIP3    H222854   5.133   0.038   2.756 -1.1443 -1.0022  2.0875
  407TIP3   OH222855   6.765   0.486   2.320 -0.3226  0.0314 -0.9724
  407TIP3    H122856   6.703   0.556   2.340  0.7764  0.4864  1.1187
  407TIP3    H222857   6.847   0.532   2.301 -0.4330 -0.5758 -3.3535
  408TIP3   OH222858   6.116   0.370   2.006  0.0733  0.2527  0.6294
  408TIP3    H122859   6.210   0.384   2.014  0.1915  0.2934 -0.7357
  408TIP3    H222860   6.082   0.452   1.969 -0.2063 -0.4742 -0.7838
  409TIP3   OH222861   2.518   1.889   1.597  0.2537  0.3433 -0.8671
  409TIP3    H122862   2.529   1.895   1.503  1.1297  2.2773 -0.6911
  409TIP3    H222863   2.510   1.980   1.627 -2.0095 -0.2925  0.7209
  410TIP3   OH222864   3.946   2.575   7.534 -0.0459  0.2427 -0.0551
  410TIP3    H122865   4.038   2.601   7.534 -0.0635  0.5304 -2.4484
  410TIP3    H222866   3.898   2.655   7.513 -1.0073  0.3370  2.1650
  411TIP3   OH222867   3.335   0.891   1.231  0.1156  0.1891  0.6075
  411TIP3    H122868   3.316   0.858   1.144 -0.6045  2.6026 -0.2508
  411TIP3    H222869   3.402   0.958   1.217 -1.5490  2.1945  1.4767
  412TIP3   OH222870   2.950   3.481   6.989  0.2568 -0.2117  0.3527
  412TIP3    H122871   2.872   3.445   6.948  0.4065 -1.0091  0.7530
  412TIP3    H222872   2.955   3.571   6.956 -1.2586  0.1087  0.9299
  413TIP3   OH222873   0.340   2.901   7.840  0.1208  0.3229  0.5560
  413TIP3    H122874   0.278   2.835   7.810  1.2393 -0.7926  0.6162
  413TIP3    H222875   0.286   2.970   7.878 -1.1131 -0.1571 -0.2896
  414TIP3   OH222876   3.113   4.185   7.493 -0.0617  0.3766 -0.3263
  414TIP3    H122877   3.154   4.265   7.524  2.1777  0.1036 -2.2035
  414TIP3    H222878   3.128   4.121   7.563  0.8072  0.8703 -0.0482
  415TIP3   OH222879   3.022   2.822   1.276  0.2524 -0.3475  0.2444
  415TIP3    H122880   3.065   2.809   1.361  2.3306  0.5214 -0.5921
  415TIP3    H222881   3.025   2.736   1.234 -0.5932 -0.7314  0.9372
  416TIP3   OH222882   1.887   5.841   1.143  0.0219 -0.0946  0.4324
  416TIP3    H122883   1.885   5.935   1.163  1.5479  0.1126 -0.2190
  416TIP3    H222884   1.839   5.800   1.215 -0.5729  1.1756  0.7888
  417TIP3   OH222885   1.751   4.619   2.132  0.2478 -0.0839  0.0661
  417TIP3    H122886   1.771   4.597   2.041 -1.1537  0.6138 -0.4318
  417TIP3    H222887   1.697   4.546   2.163 -0.2598  0.2526 -0.0295
  418TIP3   OH222888   1.294   4.508   0.876  0.0865  0.5007  0.2497
  418TIP3    H122889   1.371   4.481   0.926  0.6860  1.4802 -0.1230
  418TIP3    H222890   1.315   4.482   0.786  0.2676  1.3427  0.0425
  419TIP3   OH222891   6.687   0.500   7.871 -0.1426  0.3451 -0.2643
  419TIP3    H122892   6.637   0.444   7.930  1.0772  0.2616  0.7354
  419TIP3    H222893   6.621   0.552   7.824 -1.1664 -0.0518  0.7073
  420TIP3   OH222894   0.793   0.157   7.783 -0.2435 -0.3169  0.2393
  420TIP3    H122895   0.736   0.081   7.794 -0.4983 -0.2834 -0.7689
  420TIP3    H222896   0.873   0.122   7.744 -1.1665  0.1797 -2.2851
  421TIP3   OH222897   4.139   4.163   7.459  0.1637 -0.4973  0.4145
  421TIP3    H122898   4.155   4.162   7.365  0.7873 -0.9224  0.5175
  421TIP3    H222899   4.184   4.085   7.492 -0.7790 -0.8346  0.9539
  422TIP3   OH222900   4.167   4.978   8.304 -0.2277 -1.0862  0.1991
  422TIP3    H122901   4.198   4.892   8.332  0.2110 -1.3214 -0.9660
  422TIP3    H222902   4.214   5.040   8.361  0.9594 -1.5332 -0.2559
  423TIP3   OH222903   4.726   3.560   2.573  0.2271  0.4456  0.0047
  423TIP3    H122904   4.685   3.603   2.649 -0.3997 -0.3938  0.1615
  423TIP3    H222905   4.754   3.632   2.517 -1.0042  1.0761  0.1469
  424TIP3   OH222906   1.611   1.265   6.899 -0.5790 -0.4746  0.2714
  424TIP3    H122907   1.652   1.306   6.975 -0.0225 -1.5143  0.5484
  424TIP3    H222908   1.564   1.189   6.934  0.0970 -1.2580 -0.4674
  425TIP3   OH222909   0.477   4.441   8.102 -0.9089  0.4012 -0.0685
  425TIP3    H122910   0.458   4.534   8.087 -0.6373  0.4686  0.0094
  425TIP3    H222911   0.454   4.398   8.019  0.7175  0.7885 -0.7597
  426TIP3   OH222912   2.429   2.909   0.667 -0.1680  0.1341 -0.2593
  426TIP3    H122913   2.401   2.866   0.586 -0.1793  1.0070 -0.7299
  426TIP3    H222914   2.523   2.895   0.670  0.0598  1.2668 -1.1582
  427TIP3   OH222915   5.502   3.628   6.883  0.2634  0.4375  0.0480
  427TIP3    H122916   5.488   3.588   6.798  1.0037 -0.0031  0.1207
  427TIP3    H222917   5.565   3.570   6.927  1.0923  1.4832  0.2862
  428TIP3   OH222918   1.063   3.646   7.972  0.3623  0.3306 -0.4462
  428TIP3    H122919   1.061   3.596   7.890 -0.7537  1.1185 -0.9232
  428TIP3    H222920   1.013   3.592   8.034  1.6278 -0.5012 -0.1263
  429TIP3   OH222921   3.189   2.056   1.741 -0.1485 -0.4144  0.0822
  429TIP3    H122922   3.259   2.121   1.738  0.6141 -1.2465 -1.5870
  429TIP3    H222923   3.172   2.035   1.649 -1.0963 -1.8312  0.5443
  430TIP3   OH222924   2.918   1.851   0.011 -0.2861  0.4793  0.3017
  430TIP3    H122925   2.953   1.775  -0.035 -1.0784  0.7050 -0.6963
  430TIP3    H222926   2.946   1.839   0.102 -0.5161 -1.0683  0.1840
  431TIP3   OH222927   4.080   3.341   1.727  0.1455 -0.3906  0.3837
  431TIP3    H122928   4.137   3.374   1.796  1.9954  0.4831 -1.4364
  431TIP3    H222929   4.068   3.416   1.668 -0.5784 -1.3393 -0.7386
  432TIP3   OH222930   2.452   5.119   0.941 -0.3585  0.3282  0.0951
  432TIP3    H122931   2.456   5.091   1.032 -3.2032 -0.6275  0.0087
  432TIP3    H222932   2.495   5.205   0.941 -1.7707  1.1443  2.7070
  433TIP3   OH222933   5.392   1.847   0.332  0.1680 -0.3151 -0.0954
  433TIP3    H122934   5.428   1.778   0.277  0.7257 -1.4755  1.6521
  433TIP3    H222935   5.360   1.802   0.410 -1.9806  1.0927 -0.0660
  434TIP3   OH222936   1.879   3.903   1.582  0.7237 -0.8295 -0.6099
  434TIP3    H122937   1.792   3.889   1.620  1.2660 -2.1172  0.2310
  434TIP3    H222938   1.882   3.846   1.505 -0.1667  1.3575 -2.3668
  435TIP3   OH222939   4.013   3.531   6.562 -0.3670 -0.2853 -0.4342
  435TIP3    H122940   4.017   3.614   6.514  0.6764  1.1186  1.8613
  435TIP3    H222941   3.921   3.523   6.588 -0.5607 -0.0756 -1.0420
  436TIP3   OH222942   4.476   3.200   2.026 -0.5464  0.3322 -0.4590
  436TIP3    H122943   4.550   3.193   2.086 -1.7700  0.0853  1.1039
  436TIP3    H222944   4.452   3.109   2.008 -0.1622  0.4069 -1.3750
  437TIP3   OH222945   2.887   1.396   8.379 -0.4058  0.2054  0.3444
  437TIP3    H122946   2.958   1.447   8.341 -1.1629  1.9272  1.0996
  437TIP3    H222947   2.808   1.429   8.335 -0.8381 -0.9160  0.2604
  438TIP3   OH222948   1.722   0.930   8.450  0.0902  0.2764  0.4494
  438TIP3    H122949   1.702   0.859   8.389  1.1352  1.3576 -1.2000
  438TIP3    H222950   1.793   0.895   8.505 -1.5513 -1.0798  1.8298
  439TIP3   OH222951   6.478   5.315   8.546 -0.1479 -0.1097 -0.9838
  439TIP3    H122952   6.511   5.400   8.574 -1.9357  0.6478 -0.9887
  439TIP3    H222953   6.464   5.266   8.627  1.3328 -0.6108 -1.0063
  440TIP3   OH222954   0.908   1.624   1.197  0.1745  0.1723  0.0807
  440TIP3    H122955   0.976   1.575   1.243 -0.9050 -1.3403  0.1521
  440TIP3    H222956   0.905   1.585   1.110 -1.8963 -1.1960  0.6854
  441TIP3   OH222957   0.694   5.333   0.266  0.0381  0.1454 -0.0403
  441TIP3    H122958   0.706   5.426   0.250 -0.4068  0.4257  1.1320
  441TIP3    H222959   0.777   5.293   0.242 -0.6370  0.4309 -3.2375
  442TIP3   OH222960   2.176   6.271   1.713  0.4707  0.4576  0.8428
  442TIP3    H122961   2.270   6.289   1.711  0.5724 -0.0530 -0.4362
  442TIP3    H222962   2.147   6.299   1.800  1.7232  1.0158  1.1003
  443TIP3   OH222963   5.811   0.786   6.623  0.4380  0.1743  0.2664
  443TIP3    H122964   5.751   0.828   6.562 -1.0097 -0.2662  1.3253
  443TIP3    H222965   5.776   0.808   6.710 -0.0647 -2.7081  0.8816
  444TIP3   OH222966   5.163   1.486   0.633  0.3786 -0.6699 -0.6260
  444TIP3    H122967   5.074   1.476   0.666  0.0821  1.2898 -0.6901
  444TIP3    H222968   5.211   1.528   0.705  0.5891  0.5336 -1.4341
  445TIP3   OH222969   6.691   3.207   1.112 -0.5975  0.1981  0.1039
  445TIP3    H122970   6.713   3.120   1.080  0.8437  0.7409 -0.4582
  445TIP3    H222971   6.607   3.227   1.071  0.9362  0.6897 -3.1751
  446TIP3   OH222972   3.740   4.178   7.764  0.3136 -0.4722  0.3532
  446TIP3    H122973   3.805   4.151   7.829  0.6089 -1.6653 -0.4019
  446TIP3    H222974   3.708   4.262   7.795  2.3442  0.2255  0.6668
  447TIP3   OH222975   6.785   1.217   2.402 -0.3202 -0.2515 -0.2012
  447TIP3    H122976   6.765   1.303   2.440 -1.7799 -1.1065  1.0936
  447TIP3    H222977   6.724   1.208   2.329 -0.0573 -0.1340 -0.4378
  448TIP3   OH222978   1.899   2.229   1.511 -0.8070 -0.4152  0.5620
  448TIP3    H122979   1.954   2.300   1.546  0.0713 -0.8078  0.0070
  448TIP3    H222980   1.869   2.262   1.426 -3.2881  0.7146  1.7634
  449TIP3   OH222981   1.715   5.204   6.637 -0.4047  0.1569 -0.6948
  449TIP3    H122982   1.725   5.109   6.636 -1.0436  0.0874 -1.2109
  449TIP3    H222983   1.800   5.237   6.607  0.3791 -0.1746  1.0573
  450TIP3   OH222984   3.900   0.218   7.260 -0.1063  0.2132  0.5168
  450TIP3    H122985   3.823   0.205   7.206 -0.4657  1.4109  0.7139
  450TIP3    H222986   3.914   0.313   7.261  0.4406  0.1509  1.7480
  451TIP3   OH222987   6.457   5.086   1.406 -0.7048  0.2448  0.4422
  451TIP3    H122988   6.551   5.095   1.394 -0.6357 -1.4988 -0.7619
  451TIP3    H222989   6.419   5.108   1.321 -1.3286  0.3147  0.7308
  452TIP3   OH222990   3.288   0.027   0.951  0.0485  0.0058 -0.2364
  452TIP3    H122991   3.225   0.002   0.885 -0.6299  0.2644  0.3016
  452TIP3    H222992   3.356   0.075   0.903  0.1701 -0.8231 -0.9081
  453TIP3   OH222993   2.095   4.941   8.554  0.0257  0.1310 -0.4630
  453TIP3    H122994   2.030   4.907   8.616  0.8723 -0.6043  0.0636
  453TIP3    H222995   2.179   4.908   8.588  0.6643  1.0007 -1.1535
  454TIP3   OH222996   5.206   0.931   8.296 -0.6993  0.0784 -0.2859
  454TIP3    H122997   5.222   1.025   8.288 -1.0055  0.1595  0.0177
  454TIP3    H222998   5.281   0.899   8.347 -0.2423  0.0388 -0.9679
  455TIP3   OH222999   4.066   0.580   0.467 -0.3181 -0.3420  0.2050
  455TIP3    H123000   3.985   0.597   0.420  0.9872  0.0433 -2.0499
  455TIP3    H223001   4.135   0.605   0.406  1.5555 -2.5638  1.2672
  456TIP3   OH223002   5.871   6.294   1.665 -0.4739  0.1132  0.0910
  456TIP3    H123003   5.780   6.266   1.654 -0.1850 -1.4677  1.3620
  456TIP3    H223004   5.920   6.212   1.675  1.0137  0.9582  0.0282
  457TIP3   OH223005   3.175   3.809   2.609 -0.0858 -0.0067  0.3715
  457TIP3    H123006   3.159   3.817   2.515  1.0133 -0.0337  0.1759
  457TIP3    H223007   3.232   3.733   2.617  1.3530  1.0823  0.8700
  458TIP3   OH223008   6.294   3.725   7.649  0.2253 -0.1725  0.5630
  458TIP3    H123009   6.239   3.737   7.726  0.9270 -1.6057  1.3371
  458TIP3    H223010   6.247   3.660   7.596 -1.1335  2.0797 -1.1513
  459TIP3   OH223011   5.280   2.537   0.779 -0.4233 -0.4650  0.4895
  459TIP3    H123012   5.336   2.496   0.845  1.9776  0.9507 -0.5444
  459TIP3    H223013   5.194   2.543   0.821  1.0684  0.7789  3.6615
  460TIP3   OH223014   0.525   6.655   0.272 -0.3609  0.1187  0.5786
  460TIP3    H123015   0.500   6.566   0.296 -0.9045  0.1226  0.0763
  460TIP3    H223016   0.447   6.708   0.293 -0.5384  0.2502 -0.3634
  461TIP3   OH223017   4.559   6.734   7.118 -0.1782 -0.0590 -0.3015
  461TIP3    H123018   4.507   6.780   7.053 -0.0024  0.1943 -0.2647
  461TIP3    H223019   4.495   6.698   7.180 -0.3705 -0.6468 -0.8342
  462TIP3   OH223020   4.711   4.987   1.953  0.3818 -0.2416 -0.1838
  462TIP3    H123021   4.621   4.962   1.932 -0.2792  2.3002 -0.6729
  462TIP3    H223022   4.761   4.906   1.943 -1.8444 -1.7670  0.2630
  463TIP3   OH223023   1.087   5.143   1.335 -0.0777 -0.0354 -0.5828
  463TIP3    H123024   1.112   5.051   1.337  0.4350 -0.0322 -3.4706
  463TIP3    H223025   1.166   5.190   1.307 -0.7033  1.1289 -0.4941
  464TIP3   OH223026   4.442   5.234   2.018 -0.1484 -0.1030 -0.2170
  464TIP3    H123027   4.368   5.221   1.959  1.1175 -0.6654 -1.7518
  464TIP3    H223028   4.443   5.328   2.035 -0.1442  0.1800 -1.6674
  465TIP3   OH223029   6.671   2.272   0.514  0.9444  0.6829 -0.1080
  465TIP3    H123030   6.706   2.241   0.597  1.0623  0.0866 -0.3746
  465TIP3    H223031   6.745   2.265   0.453  1.0254  1.6537 -0.1398
  466TIP3   OH223032   0.553   3.230   1.745  0.2782 -0.1194 -0.4547
  466TIP3    H123033   0.538   3.259   1.835 -1.8654  0.4037 -0.9224
  466TIP3    H223034   0.541   3.135   1.748  2.1413 -0.3631  0.1337
  467TIP3   OH223035   1.334   4.902   8.163  0.2964 -0.0363  0.4401
  467TIP3    H123036   1.242   4.893   8.137  0.1822  0.1454  0.7779
  467TIP3    H223037   1.358   4.990   8.134  0.1264  0.2232  1.0694
  468TIP3   OH223038   4.138   6.190   0.468  0.0816 -0.6908 -0.4107
  468TIP3    H123039   4.153   6.266   0.523  0.1443 -0.3472 -0.8950
  468TIP3    H223040   4.066   6.144   0.510 -1.4188  0.7738 -1.2562
  469TIP3   OH223041   1.130   3.920   8.504  0.1025 -0.0612 -0.2451
  469TIP3    H123042   1.184   3.995   8.529  0.9719 -0.7013 -0.1272
  469TIP3    H223043   1.057   3.957   8.454  0.8925  0.7915 -0.7933
  470TIP3   OH223044   3.997   3.746   1.793  0.0753  0.2134 -0.6680
  470TIP3    H123045   3.920   3.689   1.796  0.8191 -0.8412 -1.0680
  470TIP3    H223046   4.035   3.739   1.881  0.5815 -0.5195 -0.9347
  471TIP3   OH223047   2.757   6.248   7.740  0.4779 -1.0133 -0.1037
  471TIP3    H123048   2.802   6.193   7.804  1.3213 -0.9832 -0.6572
  471TIP3    H223049   2.668   6.214   7.738  0.3585 -0.8551  1.2630
  472TIP3   OH223050   3.457   3.366   1.968  0.5810  0.8280  0.6518
  472TIP3    H123051   3.378   3.328   1.930  0.5015  1.1826  0.4630
  472TIP3    H223052   3.425   3.421   2.040  0.7149  0.3277  1.0983
  473TIP3   OH223053   5.205   3.643   7.299 -0.5113  0.0868  0.0268
  473TIP3    H123054   5.284   3.607   7.339 -1.0214 -0.2628  0.7327
  473TIP3    H223055   5.139   3.638   7.368 -0.9553  1.0772 -0.3111
  474TIP3   OH223056   5.052   3.082   7.901  0.3758 -0.2025  0.4746
  474TIP3    H123057   5.035   2.989   7.882  0.0323  0.2849 -1.9532
  474TIP3    H223058   4.989   3.104   7.970  1.3037 -2.0350  1.9938
  475TIP3   OH223059   0.005   3.105   1.671 -0.0873  0.7990  0.0896
  475TIP3    H123060   0.013   3.075   1.762  0.2661 -0.1337 -0.2388
  475TIP3    H223061   0.079   3.065   1.626 -1.6463 -0.8178 -1.1554
  476TIP3   OH223062   0.041   5.679   1.942  0.1386  0.1711 -0.5282
  476TIP3    H123063   0.001   5.613   1.998  0.0872  0.0817 -0.6718
  476TIP3    H223064   0.042   5.641   1.855  1.2538 -0.1541 -0.3924
  477TIP3   OH223065   2.488   1.321   7.344 -0.1455 -0.3223  0.8305
  477TIP3    H123066   2.423   1.292   7.407 -0.5515 -0.5020  0.3342
  477TIP3    H223067   2.451   1.300   7.258 -0.3502  1.3984  0.4435
  478TIP3   OH223068   0.308   2.351   1.291  0.1275  0.0804 -0.4808
  478TIP3    H123069   0.274   2.268   1.258 -0.7904 -0.5370  1.8074
  478TIP3    H223070   0.346   2.330   1.376  0.5965  1.8745 -0.1937
  479TIP3   OH223071   4.935   1.621   2.014 -0.1154 -0.2072 -0.1709
  479TIP3    H123072   4.974   1.697   2.056  2.0072 -1.6436  0.6440
  479TIP3    H223073   4.930   1.644   1.921  0.1331  1.0429  0.1148
  480TIP3   OH223074   5.621   5.576   7.241 -0.3359 -0.0266  0.6300
  480TIP3    H123075   5.561   5.629   7.188 -0.5314 -0.1163  0.7591
  480TIP3    H223076   5.572   5.497   7.260 -1.0307  0.8210  2.5969
  481TIP3   OH223077   6.234   1.796   0.813  0.5550  0.2201  0.1378
  481TIP3    H123078   6.167   1.806   0.880  0.5195 -0.8770  0.2792
  481TIP3    H223079   6.262   1.885   0.793  0.3112  0.5784  1.3456
  482TIP3   OH223080   3.814   5.610   0.925  0.5516  0.8731 -0.7106
  482TIP3    H123081   3.878   5.541   0.946  1.4798  2.0561  0.5898
  482TIP3    H223082   3.866   5.690   0.922 -0.5949  1.6153 -1.6257
  483TIP3   OH223083   1.028   5.894   8.345  0.2506  0.3646  0.2169
  483TIP3    H123084   0.988   5.962   8.292 -0.1573  0.4003  0.5674
  483TIP3    H223085   1.006   5.917   8.435  0.1651 -0.1911  0.3419
  484TIP3   OH223086   5.597   2.824   7.689 -0.0730 -0.5596 -0.0226
  484TIP3    H123087   5.505   2.818   7.713 -0.0031  0.2549  0.5076
  484TIP3    H223088   5.601   2.899   7.628  0.4241  0.2885  1.0170
  485TIP3   OH223089   0.653   2.435   0.045  0.2901 -0.0637 -0.2461
  485TIP3    H123090   0.712   2.457   0.117  1.5307 -1.3632 -0.8265
  485TIP3    H223091   0.579   2.494   0.057  0.5793 -0.0423  1.9308
  486TIP3   OH223092   1.395   4.102   0.676  0.5269  0.0943 -0.4012
  486TIP3    H123093   1.318   4.050   0.700 -0.1802  1.2843  0.0366
  486TIP3    H223094   1.470   4.050   0.705 -0.1824 -0.3663  0.6670
  487TIP3   OH223095   3.185   5.430   2.021  0.2806  0.5103  0.6185
  487TIP3    H123096   3.268   5.475   2.005  0.7762 -0.7195 -0.4450
  487TIP3    H223097   3.177   5.368   1.948 -2.1050  1.3324  0.0912
  488TIP3   OH223098   4.566   4.499   6.224 -0.5849 -0.4724 -0.0282
  488TIP3    H123099   4.543   4.523   6.134 -1.4113 -0.3934  0.1966
  488TIP3    H223100   4.517   4.419   6.241 -2.0736  0.6036  1.0294
  489TIP3   OH223101   0.375   2.086   8.361 -0.0091 -0.5216  0.2652
  489TIP3    H123102   0.328   2.153   8.310  1.3698 -0.5171 -1.0857
  489TIP3    H223103   0.448   2.134   8.400 -0.3576 -0.7881  1.2558
  490TIP3   OH223104   6.144   6.201   0.488  0.0658 -0.8209 -0.1676
  490TIP3    H123105   6.095   6.271   0.443 -1.2424 -1.6640 -0.0969
  490TIP3    H223106   6.235   6.226   0.476 -0.3226  0.2010 -1.3143
  491TIP3   OH223107   4.249   0.084   7.736  0.3970 -0.3288  0.0135
  491TIP3    H123108   4.249   0.092   7.832 -0.9845  1.3487 -0.0727
  491TIP3    H223109   4.173   0.030   7.717 -0.6771  1.1935 -0.1940
  492TIP3   OH223110   1.407   5.061   2.619  0.0745 -0.4395 -0.1383
  492TIP3    H123111   1.477   5.048   2.555 -0.9868 -0.9255 -1.2360
  492TIP3    H223112   1.431   5.142   2.664  1.3985 -0.6557 -0.4072
  493TIP3   OH223113   0.688   4.482   8.563 -0.1100  0.0601 -0.5670
  493TIP3    H123114   0.622   4.485   8.632 -1.9211  0.3758 -2.2340
  493TIP3    H223115   0.740   4.404   8.583 -0.5009  0.2071  1.1852
  494TIP3   OH223116   6.748   0.465   0.086 -0.0552  0.0510  0.5235
  494TIP3    H123117   6.743   0.434  -0.004  1.8133 -0.6133  0.5911
  494TIP3    H223118   6.661   0.448   0.123  0.0831 -2.7298 -0.2361
  495TIP3   OH223119   6.036   0.312   7.300 -0.2312  0.0233 -0.3963
  495TIP3    H123120   6.112   0.258   7.322  1.2442  2.0988 -0.1211
  495TIP3    H223121   6.019   0.293   7.208  0.1389 -1.0110 -0.2599
  496TIP3   OH223122   5.397   4.569   2.565  0.7150 -0.4202  0.2220
  496TIP3    H123123   5.375   4.640   2.626 -0.2991  1.3139 -2.0265
  496TIP3    H223124   5.313   4.531   2.541  1.1938 -1.8452  0.7031
  497TIP3   OH223125   1.609   3.951   0.773 -0.4353  0.4885  0.1826
  497TIP3    H123126   1.640   3.901   0.849 -2.1771  1.0441  1.3064
  497TIP3    H223127   1.682   3.946   0.710  0.6601 -0.8193  1.4761
  498TIP3   OH223128   2.269   0.127   0.849  0.5462 -0.6286 -0.1598
  498TIP3    H123129   2.331   0.188   0.889  0.4076 -1.1312  0.8484
  498TIP3    H223130   2.276   0.047   0.902 -0.3413 -0.9870 -0.5575
  499TIP3   OH223131   3.249   6.512   6.500  0.4899  0.0467 -0.0717
  499TIP3    H123132   3.154   6.520   6.490  0.4899  0.8578  0.4593
  499TIP3    H223133   3.268   6.421   6.480 -0.1820  0.2630 -1.8408
  500TIP3   OH223134   0.781   3.141   1.118 -0.2294  0.0533 -0.0643
  500TIP3    H123135   0.844   3.069   1.129 -1.0291 -1.2711 -3.0730
  500TIP3    H223136   0.786   3.163   1.025 -2.6564  1.3899  0.0389
  501TIP3   OH223137   5.246   0.521   7.660  0.1261  0.4133  0.1975
  501TIP3    H123138   5.281   0.562   7.580 -1.5144 -0.6286 -1.1175
  501TIP3    H223139   5.159   0.489   7.635 -0.0221 -0.8641  2.1229
  502TIP3   OH223140   5.235   0.142   7.842  0.0016 -0.8450 -0.3819
  502TIP3    H123141   5.306   0.194   7.803 -0.3104  0.9788  1.3054
  502TIP3    H223142   5.268   0.053   7.842  1.7265 -0.2476 -0.8947
  503TIP3   OH223143   3.979   2.204   2.345  0.0809 -0.3809  0.1282
  503TIP3    H123144   4.031   2.125   2.326  0.1512 -0.7933  1.8546
  503TIP3    H223145   3.985   2.214   2.440  0.9661  2.3468 -0.1306
  504TIP3   OH223146   0.814   2.548   8.432 -0.8142 -0.6566 -0.6523
  504TIP3    H123147   0.908   2.529   8.438 -1.0453 -1.6018  0.3881
  504TIP3    H223148   0.773   2.479   8.484 -1.9334  1.1715  1.0044
  505TIP3   OH223149   4.286   3.015   0.488  0.5571  0.3685  0.1073
  505TIP3    H123150   4.295   2.966   0.406  0.3675 -0.6208  0.6540
  505TIP3    H223151   4.248   3.099   0.462 -0.6015 -0.3745 -0.6891
  506TIP3   OH223152   5.299   5.924   0.808 -0.2142 -0.3014 -0.1589
  506TIP3    H123153   5.290   5.899   0.717  1.1395 -0.3314 -0.3015
  506TIP3    H223154   5.388   5.897   0.832 -1.6374 -3.5188  2.2005
  507TIP3   OH223155   3.985   0.580   2.557  0.8104  0.2552  0.3502
  507TIP3    H123156   4.065   0.632   2.550  1.0277 -0.2091 -0.7710
  507TIP3    H223157   4.013   0.490   2.540 -0.0360  0.1548 -0.6150
  508TIP3   OH223158   2.116   5.968   8.045  0.2648  0.1154  0.2006
  508TIP3    H123159   2.095   5.998   7.956  1.2307  0.4399  0.0699
  508TIP3    H223160   2.135   5.875   8.035 -1.5050 -0.3115  0.4024
  509TIP3   OH223161   3.953   2.371   6.940 -0.5191  0.3413 -0.0638
  509TIP3    H123162   3.899   2.346   6.865 -1.4767  1.0213  0.3807
  509TIP3    H223163   3.893   2.415   6.999  0.4368  0.7074  0.6603
  510TIP3   OH223164   6.024   6.328   1.022  0.6872 -0.1732 -0.1528
  510TIP3    H123165   6.044   6.250   1.074 -0.9328 -1.4624 -1.3743
  510TIP3    H223166   6.038   6.301   0.932  2.3018  1.6727 -0.5349
  511TIP3   OH223167   4.465   5.082   8.383 -0.0895 -0.5874 -0.5942
  511TIP3    H123168   4.409   5.148   8.424  0.1086 -0.9137  0.2283
  511TIP3    H223169   4.456   5.097   8.289 -2.4132 -1.3282 -0.5367
  512TIP3   OH223170   5.023   5.264   0.711 -0.1437  0.2397 -0.1387
  512TIP3    H123171   5.026   5.171   0.689 -1.9078 -0.1783  1.1869
  512TIP3    H223172   4.965   5.302   0.645 -1.2758 -0.0559  0.6597
  513TIP3   OH223173   4.306   4.205   1.915 -0.7182 -0.3583 -0.1636
  513TIP3    H123174   4.316   4.201   2.010 -0.2267  0.6041 -0.1633
  513TIP3    H223175   4.284   4.115   1.890 -2.1227 -0.3807  0.9966
  514TIP3   OH223176   5.589   5.943   7.242 -0.0458 -0.7272  0.3366
  514TIP3    H123177   5.669   5.892   7.253  0.7483  0.3918 -0.0998
  514TIP3    H223178   5.608   6.002   7.169 -0.8913  0.2496  0.8834
  515TIP3   OH223179   4.956   1.278   0.878  0.2683  0.3185 -0.2344
  515TIP3    H123180   4.959   1.234   0.793  0.0939  1.8609 -1.0730
  515TIP3    H223181   4.879   1.242   0.922 -0.9758  1.1516 -1.6780
  516TIP3   OH223182   6.766   4.948   8.186 -0.2044  0.7518 -0.1642
  516TIP3    H123183   6.837   5.011   8.175  0.4435 -0.3277 -2.8597
  516TIP3    H223184   6.807   4.863   8.169 -1.0932 -0.5015  3.1291
  517TIP3   OH223185   4.999   3.557   1.358  0.4005 -0.0374  0.0383
  517TIP3    H123186   5.063   3.505   1.407 -1.4640 -2.2095  0.3226
  517TIP3    H223187   4.967   3.621   1.422 -0.4369 -1.4408  1.0972
  518TIP3   OH223188   5.732   4.770   1.915 -0.2367 -0.1599 -0.0530
  518TIP3    H123189   5.736   4.690   1.968 -0.0817  1.2836  2.2771
  518TIP3    H223190   5.650   4.813   1.942  0.6587  1.4178  0.2749
  519TIP3   OH223191   3.204   1.554   0.410 -0.0563  0.3043 -0.0848
  519TIP3    H123192   3.262   1.514   0.475 -2.6236 -1.6882  1.1678
  519TIP3    H223193   3.142   1.606   0.462 -0.6365  0.7055 -1.1593
  520TIP3   OH223194   6.049   0.373   1.524  0.7044  0.2225  0.1248
  520TIP3    H123195   6.026   0.335   1.608 -0.1038 -0.1609 -0.2601
  520TIP3    H223196   5.965   0.395   1.483  0.9976 -0.8260 -1.1377
  521TIP3   OH223197   2.647   1.825   7.674 -0.5067 -0.4200  0.3221
  521TIP3    H123198   2.670   1.757   7.737  0.0596 -1.8610 -1.3696
  521TIP3    H223199   2.557   1.804   7.648 -0.6661  0.0486  0.4768
  522TIP3   OH223200   0.809   5.245   8.432  0.0020  0.2688 -0.1731
  522TIP3    H123201   0.799   5.174   8.495 -2.1117  0.8715  0.2449
  522TIP3    H223202   0.740   5.231   8.368  2.0222 -0.2640 -2.3854
  523TIP3   OH223203   5.304   2.557   6.465 -0.6400 -0.2640 -0.3042
  523TIP3    H123204   5.361   2.523   6.396 -0.7213  1.4016 -1.2347
  523TIP3    H223205   5.253   2.481   6.493  1.8187 -1.7913  0.4244
  524TIP3   OH223206   5.410   4.035   6.746  0.0244 -0.4447  0.3771
  524TIP3    H123207   5.497   3.998   6.731 -1.1964 -3.7591  0.7327
  524TIP3    H223208   5.378   4.058   6.659  0.0156 -2.4561 -0.2115
  525TIP3   OH223209   5.743   0.091   7.023 -0.2477  0.0689  0.3481
  525TIP3    H123210   5.758   0.086   6.928 -0.7700 -1.0152  0.3068
  525TIP3    H223211   5.673   0.028   7.039 -1.7736  1.8693  1.1461
  526TIP3   OH223212   1.609   3.353   0.817 -0.6007  0.3870 -0.1128
  526TIP3    H123213   1.549   3.330   0.746 -1.9759 -0.0426  1.1349
  526TIP3    H223214   1.642   3.270   0.848  0.5442  0.6126 -0.6638
  527TIP3   OH223215   3.554   6.103   1.092 -0.1768 -0.0097  0.1634
  527TIP3    H123216   3.507   6.041   1.147  0.1149  0.0957  0.5352
  527TIP3    H223217   3.492   6.174   1.077 -0.6530 -0.5815 -0.6037
  528TIP3   OH223218   0.198   4.738   2.218 -0.2732  0.0870  0.0610
  528TIP3    H123219   0.254   4.815   2.216 -0.6631  0.3513 -1.3226
  528TIP3    H223220   0.116   4.768   2.258 -0.5608  0.4953 -0.8206
  529TIP3   OH223221   0.729   2.813   1.469  0.5777 -0.7074  0.2702
  529TIP3    H123222   0.652   2.839   1.520 -0.3410 -1.1024 -0.8689
  529TIP3    H223223   0.783   2.891   1.467 -0.0291 -0.2632  0.6815
  530TIP3   OH223224   4.877   0.532   1.970 -0.2172 -0.1322  0.3292
  530TIP3    H123225   4.849   0.575   1.890  0.9479 -2.1368 -1.2411
  530TIP3    H223226   4.857   0.595   2.040 -1.9551  1.3594 -1.4187
  531TIP3   OH223227   5.124   3.732   1.679  0.4854  0.4865  0.2674
  531TIP3    H123228   5.035   3.732   1.642  0.6033 -1.5682 -0.1266
  531TIP3    H223229   5.168   3.804   1.634 -0.1995 -0.1700 -1.5589
  532TIP3   OH223230   0.304   5.070   0.384 -0.3054 -0.5051 -0.2459
  532TIP3    H123231   0.225   5.017   0.374 -0.3152 -0.3727 -0.9110
  532TIP3    H223232   0.369   5.010   0.419 -0.9859 -0.3593  1.4051
  533TIP3   OH223233   0.560   5.496   7.279 -0.9542  0.3119  0.0098
  533TIP3    H123234   0.618   5.535   7.213 -1.7667 -0.9510 -1.5249
  533TIP3    H223235   0.478   5.546   7.270 -1.8064 -1.2662 -1.5616
  534TIP3   OH223236   4.671   5.873   7.757 -0.3584 -0.2303  0.9643
  534TIP3    H123237   4.669   5.965   7.784 -2.7026 -0.1398  0.7396
  534TIP3    H223238   4.738   5.869   7.689 -0.4116  1.3840  0.7665
  535TIP3   OH223239   1.636   5.288   0.693 -0.4842 -0.0607 -0.1833
  535TIP3    H123240   1.573   5.250   0.754 -1.8910  1.0167 -0.9093
  535TIP3    H223241   1.605   5.262   0.606  1.3930 -1.4258 -0.5159
  536TIP3   OH223242   0.492   6.825   1.137  0.3584  0.2016 -0.1768
  536TIP3    H123243   0.575   6.780   1.148  2.2375  2.9368 -1.7943
  536TIP3    H223244   0.481   6.876   1.217  0.6048  0.3433 -0.2317
  537TIP3   OH223245   0.621   4.767   0.444  0.1556  0.2582  0.1626
  537TIP3    H123246   0.581   4.809   0.368 -0.5754  1.5901  1.2295
  537TIP3    H223247   0.547   4.747   0.502  0.6581 -1.0842  0.3794
  538TIP3   OH223248   1.834   1.094   6.217  0.6903  0.0797 -0.0124
  538TIP3    H123249   1.883   1.042   6.152 -1.8542 -2.1449 -0.3407
  538TIP3    H223250   1.895   1.163   6.243  4.1808 -2.6605 -0.0260
  539TIP3   OH223251   4.531   0.809   0.355 -0.0352  0.8544  0.2144
  539TIP3    H123252   4.618   0.803   0.396  0.0467 -0.0075 -0.0615
  539TIP3    H223253   4.550   0.825   0.263 -0.2116  2.2857  0.4080
  540TIP3   OH223254   3.973   0.128   6.409  0.6581  0.4356 -0.4285
  540TIP3    H123255   3.943   0.211   6.445  0.8100  0.4976 -0.4476
  540TIP3    H223256   4.005   0.079   6.485  0.2510  0.2574 -0.3654
  541TIP3   OH223257   0.132   5.709   8.393  0.3174 -0.5941 -0.2281
  541TIP3    H123258   0.179   5.632   8.425  1.3873  0.4088  0.6799
  541TIP3    H223259   0.043   5.700   8.428  0.0119 -2.0670 -1.2460
  542TIP3   OH223260   4.905   4.514   7.133  0.2447 -0.1184 -0.2587
  542TIP3    H123261   4.860   4.563   7.203 -1.8885 -1.5931 -0.4919
  542TIP3    H223262   4.994   4.548   7.134 -0.8534  3.2025  0.1015
  543TIP3   OH223263   3.358   5.368   2.484 -0.1251 -0.9987 -0.7329
  543TIP3    H123264   3.319   5.455   2.483 -0.6550 -1.2102  0.2755
  543TIP3    H223265   3.316   5.322   2.412 -1.9150 -1.2800  0.4428
  544TIP3   OH223266   0.515   2.621   0.848  0.3838 -0.5475  0.5508
  544TIP3    H123267   0.548   2.550   0.904  0.7924  0.0717  1.1112
  544TIP3    H223268   0.479   2.685   0.910 -3.6815 -1.9772 -0.0177
  545TIP3   OH223269   5.259   6.514   1.148  0.0269  0.1417  0.4156
  545TIP3    H123270   5.228   6.584   1.090 -2.0325 -0.5840  0.5374
  545TIP3    H223271   5.179   6.478   1.185  1.1226 -1.4890  1.2915
  546TIP3   OH223272   6.515   6.416   1.183 -0.5447 -0.2388 -0.1396
  546TIP3    H123273   6.515   6.409   1.278  0.3075 -2.3062 -0.2217
  546TIP3    H223274   6.422   6.416   1.159 -0.7652 -0.7822  0.6648
  547TIP3   OH223275   4.853   4.029   8.469  0.7815  0.4246 -0.8017
  547TIP3    H123276   4.933   3.977   8.470  0.0667 -0.7119  0.3781
  547TIP3    H223277   4.827   4.032   8.377  1.0253 -1.0592 -0.9402
  548TIP3   OH223278   0.170   4.481   0.840  0.0061 -0.0505 -1.2142
  548TIP3    H123279   0.127   4.554   0.885 -0.1650  0.0971 -1.6125
  548TIP3    H223280   0.160   4.406   0.898  0.3696  0.2948 -0.7022
  549TIP3   OH223281   4.388   0.818   2.822 -0.0337  0.0556 -0.3654
  549TIP3    H123282   4.431   0.864   2.750 -1.8266  0.2026 -1.4044
  549TIP3    H223283   4.389   0.726   2.796 -0.5521  0.0898 -0.5185
  550TIP3   OH223284   4.448   4.544   2.069  0.6875 -0.2237  0.3886
  550TIP3    H123285   4.402   4.574   1.991  0.8126  0.9061  0.7273
  550TIP3    H223286   4.417   4.455   2.083  0.8902 -0.5532 -1.1150
  551TIP3   OH223287   5.949   6.481   0.672  0.0575  0.6053  0.5084
  551TIP3    H123288   5.880   6.452   0.732 -1.9781  0.6184 -1.6943
  551TIP3    H223289   5.987   6.400   0.637  1.3470  0.5943  1.8101
  552TIP3   OH223290   4.278   1.804   0.229  0.3821  0.0186  0.4166
  552TIP3    H123291   4.307   1.733   0.172 -2.0782 -0.1367 -0.7675
  552TIP3    H223292   4.233   1.865   0.171 -1.9031  0.0394  2.0716
  553TIP3   OH223293   4.739   1.457   8.127  0.8052 -0.2645  0.2176
  553TIP3    H123294   4.772   1.450   8.217 -1.4952 -1.2802  1.0637
  553TIP3    H223295   4.714   1.367   8.104  1.1029  0.0298 -1.3601
  554TIP3   OH223296   1.514   2.695   8.047 -0.0404 -0.6528 -0.5368
  554TIP3    H123297   1.440   2.634   8.039  0.9289 -2.2247  1.5006
  554TIP3    H223298   1.560   2.667   8.127  1.5255  1.6365 -0.5387
  555TIP3   OH223299   0.095   5.404   0.421  0.1888  0.0745 -0.1221
  555TIP3    H123300   0.176   5.381   0.466 -0.2485  1.2536  1.3563
  555TIP3    H223301   0.121   5.422   0.331  1.4124 -0.4653  0.1076
  556TIP3   OH223302   0.008   2.355   8.002 -0.1909  0.0679  0.1406
  556TIP3    H123303  -0.057   2.425   7.995 -0.5951 -0.3998 -1.1368
  556TIP3    H223304   0.090   2.396   7.974 -0.3043  0.1849 -0.0201
  557TIP3   OH223305   1.224   0.817   1.767 -0.0823  0.0602 -0.3255
  557TIP3    H123306   1.294   0.793   1.828 -0.2144 -0.6426 -0.4355
  557TIP3    H223307   1.175   0.884   1.813  0.0477 -0.1870  0.1907
  558TIP3   OH223308   3.164   3.841   8.311 -0.0330 -0.1944  0.2115
  558TIP3    H123309   3.170   3.750   8.284  0.8404  0.0434 -0.4948
  558TIP3    H223310   3.254   3.865   8.334 -0.1412  0.6496 -0.1954
  559TIP3   OH223311   3.274   2.030   6.337  0.1527 -0.3730  0.5640
  559TIP3    H123312   3.369   2.038   6.353  0.3617  0.8385 -1.0305
  559TIP3    H223313   3.266   1.954   6.279  0.2048 -0.2275  0.3634
  560TIP3   OH223314   6.875   6.877   7.942 -0.4957 -0.4234  0.2962
  560TIP3    H123315   6.821   6.817   7.889  0.2561 -0.5287 -0.3752
  560TIP3    H223316   6.816   6.949   7.963 -0.2473  0.8160 -2.7205
  561TIP3   OH223317   6.149   2.154   0.929  0.1501  0.6071  0.2230
  561TIP3    H123318   6.131   2.086   0.993  1.2343  1.9775  2.0622
  561TIP3    H223319   6.235   2.132   0.893 -0.2269  0.1268 -0.4015
  562TIP3   OH223320   0.474   4.724   8.154 -0.0060  0.1675 -0.2081
  562TIP3    H123321   0.551   4.742   8.208  0.0273 -1.9878  0.5703
  562TIP3    H223322   0.403   4.710   8.217 -0.1628 -1.5338 -0.7118
  563TIP3   OH223323   4.237   1.814   6.604 -0.1504  0.4568  0.3184
  563TIP3    H123324   4.298   1.858   6.545 -0.8467  0.4687 -0.4189
  563TIP3    H223325   4.158   1.869   6.602 -0.3372  0.2199  0.9226
  564TIP3   OH223326   5.140   1.654   0.219  0.0175 -0.4052  0.2794
  564TIP3    H123327   5.228   1.663   0.181  0.7061  1.4926  2.1033
  564TIP3    H223328   5.085   1.712   0.166  0.8406  1.7510  1.6613
  565TIP3   OH223329   3.089   0.034   6.804  0.0952 -0.1818  0.4331
  565TIP3    H123330   3.107   0.114   6.755  0.3920 -0.4027  0.1725
  565TIP3    H223331   2.994   0.031   6.811  0.0779  0.1437  0.3607
  566TIP3   OH223332   6.368   5.454   1.873 -0.2913 -0.4032 -0.2094
  566TIP3    H123333   6.360   5.418   1.962 -0.5748 -1.7634 -0.7584
  566TIP3    H223334   6.462   5.451   1.855  0.0824  2.0490  0.8580
  567TIP3   OH223335   2.604   4.611   1.478  0.0497 -0.0386 -0.1144
  567TIP3    H123336   2.533   4.549   1.465 -1.1659  1.1615  0.5398
  567TIP3    H223337   2.682   4.566   1.446 -1.3927 -0.3586 -3.6170
  568TIP3   OH223338   4.387   4.675   2.328 -0.2881 -0.2870  0.4090
  568TIP3    H123339   4.469   4.723   2.338 -0.9773  1.0632 -0.1231
  568TIP3    H223340   4.413   4.584   2.313  1.1069  0.1536  0.0965
  569TIP3   OH223341   6.208   4.379   1.601  0.1061  0.1170 -0.9260
  569TIP3    H123342   6.216   4.419   1.514  0.1586  0.3723 -0.8046
  569TIP3    H223343   6.288   4.326   1.610 -0.2761 -0.5578 -1.3585
  570TIP3   OH223344   2.863   0.292   2.375 -0.0121  0.3516  0.5516
  570TIP3    H123345   2.814   0.344   2.438 -0.5012  0.4951  0.0615
  570TIP3    H223346   2.955   0.307   2.397 -0.1736  0.5341  1.1141
  571TIP3   OH223347   0.058   0.049   0.702  0.4126  0.5132 -0.1614
  571TIP3    H123348   0.075   0.141   0.682  0.0260  0.4342 -0.8697
  571TIP3    H223349   0.136   0.003   0.669  0.9535  0.6519  0.8684
  572TIP3   OH223350   6.118   4.370   2.259 -0.4356 -0.6906 -0.1573
  572TIP3    H123351   6.134   4.450   2.309 -0.2121 -0.7501 -0.1324
  572TIP3    H223352   6.046   4.327   2.305 -1.2831  0.0200 -0.7794
  573TIP3   OH223353   3.751   5.208   6.482  0.6642  0.1642 -0.6068
  573TIP3    H123354   3.744   5.112   6.479  0.0322  0.2167 -1.0976
  573TIP3    H223355   3.683   5.235   6.543  1.5883  0.2418  0.4121
  574TIP3   OH223356   1.754   4.478   0.976  0.0875  0.3646 -0.5990
  574TIP3    H123357   1.759   4.573   0.974 -0.6314  0.4089 -2.8204
  574TIP3    H223358   1.765   4.455   1.068  0.2370  2.5859 -0.0174
  575TIP3   OH223359   1.880   3.082   0.423  0.1128 -0.6231  0.2601
  575TIP3    H123360   1.872   3.175   0.447  0.7241 -0.7016  0.7649
  575TIP3    H223361   1.921   3.084   0.337 -0.5028 -0.4058 -0.0376
  576TIP3   OH223362   4.080   1.972   0.115 -0.2977 -0.5120 -0.2173
  576TIP3    H123363   4.089   2.011   0.202 -0.2260 -0.0832 -0.4142
  576TIP3    H223364   4.029   2.036   0.065  0.2314 -0.4451 -0.6862
  577TIP3   OH223365   0.502   2.125   1.350  0.1557 -0.2248  0.0057
  577TIP3    H123366   0.423   2.071   1.346  1.0957 -1.7365  0.9638
  577TIP3    H223367   0.564   2.074   1.403  1.6788  1.0501 -0.4624
  578TIP3   OH223368   3.500   4.617   8.423  0.4911  0.0588 -0.3081
  578TIP3    H123369   3.427   4.627   8.363  1.0858  0.0739 -1.0374
  578TIP3    H223370   3.556   4.550   8.383  0.1424 -1.0641  0.9757
  579TIP3   OH223371   4.889   3.105   8.105 -0.1971 -0.1218 -0.1814
  579TIP3    H123372   4.842   3.023   8.119  0.4667 -0.3793  0.6905
  579TIP3    H223373   4.872   3.157   8.184  0.2013  0.1579 -0.2739
  580TIP3   OH223374   0.398   1.890   7.606 -0.2010 -0.6466 -0.1261
  580TIP3    H123375   0.439   1.932   7.681  0.0300 -0.7549 -0.1923
  580TIP3    H223376   0.309   1.870   7.636 -1.4209  2.6598 -1.0497
  581TIP3   OH223377   4.011   5.683   1.261  0.2283 -0.5404  0.5854
  581TIP3    H123378   4.006   5.591   1.238 -0.5562 -0.6461  1.1079
  581TIP3    H223379   3.944   5.694   1.330 -0.6954  0.6969 -0.4561
  582TIP3   OH223380   2.438   0.493   6.957  0.0079 -0.2901 -0.0334
  582TIP3    H123381   2.514   0.446   6.922  0.0546  0.1093 -0.4805
  582TIP3    H223382   2.363   0.457   6.909  0.2409  1.4378 -1.8481
  583TIP3   OH223383   1.557   5.363   2.474  0.4489 -0.2020  0.2497
  583TIP3    H123384   1.512   5.284   2.442 -1.7692  0.5287  1.3228
  583TIP3    H223385   1.622   5.383   2.406  1.1077 -2.9256 -0.0422
  584TIP3   OH223386   5.312   3.120   1.714  0.4325 -0.2653 -0.5294
  584TIP3    H123387   5.292   3.035   1.752  0.9185 -0.5898 -0.9836
  584TIP3    H223388   5.272   3.183   1.774 -2.1625 -0.8518 -1.4811
  585TIP3   OH223389   1.736   6.556   0.027  0.3057  0.2110 -0.4709
  585TIP3    H123390   1.737   6.511  -0.058 -0.3967  1.7134 -1.3011
  585TIP3    H223391   1.733   6.649   0.005 -0.7224  0.6083  1.1957
  586TIP3   OH223392   1.959   5.578   1.937  0.1682 -0.2417  0.0602
  586TIP3    H123393   1.886   5.554   1.880  0.5275 -1.6660  0.1757
  586TIP3    H223394   1.918   5.596   2.022 -0.2087  0.5197 -0.2703
  587TIP3   OH223395   5.440   5.724   7.481 -0.3048 -0.0674 -0.1767
  587TIP3    H123396   5.385   5.775   7.421  1.9510  1.8185 -0.7670
  587TIP3    H223397   5.424   5.633   7.456 -1.6719  0.5028 -1.6031
  588TIP3   OH223398   3.501   4.746   1.857 -0.0618  0.3761 -0.3139
  588TIP3    H123399   3.568   4.718   1.794 -0.6757 -2.1615  0.0618
  588TIP3    H223400   3.549   4.756   1.940  0.1138 -0.0108 -0.3665
  589TIP3   OH223401   0.782   1.334   1.577  0.0361  0.5864 -0.3351
  589TIP3    H123402   0.837   1.268   1.535 -0.7296  0.2632 -0.8447
  589TIP3    H223403   0.750   1.388   1.505 -0.5850  0.5554 -0.0933
  590TIP3   OH223404   5.829   0.423   7.009  0.1580 -0.2227  0.1564
  590TIP3    H123405   5.848   0.505   7.053  1.2061 -0.4627  0.1781
  590TIP3    H223406   5.855   0.437   6.918 -2.3550  0.3983 -0.5271
  591TIP3   OH223407   5.892   0.844   0.742  0.2956 -0.5814 -0.3244
  591TIP3    H123408   5.862   0.887   0.662  1.7657 -0.3600 -0.7897
  591TIP3    H223409   5.828   0.870   0.808 -0.7138 -0.4315 -1.3237
  592TIP3   OH223410   4.821   4.581   1.007 -0.6724  0.2776 -0.2427
  592TIP3    H123411   4.818   4.529   0.927  1.0376 -0.0996 -0.0988
  592TIP3    H223412   4.813   4.517   1.078 -1.7512  0.5649 -0.0872
  593TIP3   OH223413   2.568   1.295   1.755  0.2787 -0.0208  0.5850
  593TIP3    H123414   2.501   1.228   1.768  0.0664 -0.2899 -1.5359
  593TIP3    H223415   2.651   1.248   1.763  0.1756 -0.1236  1.0786
  594TIP3   OH223416   4.577   1.241   7.686  0.5730  0.5000 -0.0900
  594TIP3    H123417   4.535   1.324   7.665 -0.7157  0.3766  1.7358
  594TIP3    H223418   4.591   1.199   7.601 -0.8609  1.5847 -0.9016
  595TIP3   OH223419   2.588   2.733   0.905 -0.6659  0.1611  0.3293
  595TIP3    H123420   2.634   2.803   0.859 -2.2239  0.9704 -0.0637
  595TIP3    H223421   2.543   2.777   0.977 -2.1955 -0.2992 -0.3067
  596TIP3   OH223422   0.852   1.509   8.124 -0.1669 -0.0618 -0.4990
  596TIP3    H123423   0.821   1.546   8.207  0.9412 -0.0038 -0.0933
  596TIP3    H223424   0.884   1.422   8.147  1.6782  0.5665 -0.5177
  597TIP3   OH223425   4.933   4.143   1.436  0.3880 -0.2939 -0.5723
  597TIP3    H123426   4.851   4.189   1.455  0.6405 -0.1304  0.1424
  597TIP3    H223427   4.991   4.210   1.400  0.6170 -0.1284  0.0836
  598TIP3   OH223428   5.151   5.499   2.305  0.1752  0.2740 -0.1101
  598TIP3    H123429   5.177   5.586   2.336  1.8652  0.0820 -0.8556
  598TIP3    H223430   5.116   5.455   2.383 -1.5029  1.8756  0.1011
  599TIP3   OH223431   5.905   3.788   0.081 -0.2891  0.7021  0.0944
  599TIP3    H123432   5.928   3.860   0.140  0.0624 -0.1201  0.9989
  599TIP3    H223433   5.914   3.824  -0.006  1.4749  1.3157  0.4872
  600TIP3   OH223434   0.376   3.984   0.340 -0.1623 -0.4161 -0.3132
  600TIP3    H123435   0.462   3.966   0.379 -0.4715 -1.5617 -0.1308
  600TIP3    H223436   0.381   4.076   0.313  1.4238 -0.6882 -1.0822
  601TIP3   OH223437   1.825   2.289   0.169 -0.3608 -0.6202 -0.4321
  601TIP3    H123438   1.800   2.200   0.141  2.1859 -1.6146  0.1868
  601TIP3    H223439   1.842   2.336   0.087 -0.0796 -1.2470 -0.7418
  602TIP3   OH223440   5.520   5.127   1.428  0.0618  0.2336  0.6701
  602TIP3    H123441   5.536   5.126   1.334 -1.2493 -0.6290  0.4389
  602TIP3    H223442   5.599   5.088   1.466 -0.2917 -1.4320 -0.2320
  603TIP3   OH223443   3.367   3.958   8.437 -1.0285 -0.5268  0.8761
  603TIP3    H123444   3.422   3.896   8.484  1.9326  0.4986 -0.9746
  603TIP3    H223445   3.378   4.041   8.484 -0.5874 -0.2131  0.2362
  604TIP3   OH223446   1.743   2.707   1.404  0.4291  0.1965 -0.4081
  604TIP3    H123447   1.724   2.795   1.374 -2.1594  0.2832  1.2409
  604TIP3    H223448   1.687   2.650   1.351  0.7262 -0.2814 -0.2212
  605TIP3   OH223449   5.632   5.036   7.585 -0.1300  0.0994  0.0659
  605TIP3    H123450   5.565   5.103   7.598 -0.5120 -0.1139 -0.7281
  605TIP3    H223451   5.714   5.085   7.583 -0.2336  0.3380  1.2652
  606TIP3   OH223452   0.097   4.941   0.219 -0.2915  0.1798 -0.6460
  606TIP3    H123453   0.036   4.887   0.269 -0.9344  0.9218 -0.6149
  606TIP3    H223454   0.046   5.017   0.193 -0.1154 -0.3998 -2.8613
  607TIP3   OH223455   0.096   6.722   8.101 -0.5309  0.5450 -0.6978
  607TIP3    H123456   0.035   6.789   8.071 -2.1931 -0.4111  0.3699
  607TIP3    H223457   0.040   6.651   8.134  1.1386 -1.3820 -1.7664
  608TIP3   OH223458   2.174   1.780   6.591  0.0400 -0.1629  0.3648
  608TIP3    H123459   2.242   1.817   6.647  0.4249  2.3179 -1.5426
  608TIP3    H223460   2.218   1.711   6.542  1.3005  1.4344 -0.8722
  609TIP3   OH223461   0.238   6.067   7.641 -1.2848  0.5477 -0.2128
  609TIP3    H123462   0.317   6.073   7.694 -1.8366  2.7514  0.4815
  609TIP3    H223463   0.256   5.998   7.578  0.8802  0.4808  0.4120
  610TIP3   OH223464   5.000   2.132   1.751 -0.3917  0.1435 -0.6519
  610TIP3    H123465   4.917   2.102   1.788  0.1089  0.7020  1.0599
  610TIP3    H223466   5.054   2.053   1.746 -0.1751  0.1635  0.7399
  611TIP3   OH223467   5.174   3.819   1.264 -0.1790  0.0236  0.0870
  611TIP3    H123468   5.087   3.820   1.303 -0.5126 -1.2144 -0.5996
  611TIP3    H223469   5.179   3.737   1.216  0.2350  1.4375 -2.4694
  612TIP3   OH223470   4.091   2.130   1.281 -0.5048  0.1556 -0.2524
  612TIP3    H123471   4.115   2.067   1.214 -0.2135  0.0827 -0.0802
  612TIP3    H223472   4.113   2.087   1.364 -0.2093  0.5221 -0.1381
  613TIP3   OH223473   6.235   2.872   7.292  0.3850  0.4102 -0.0948
  613TIP3    H123474   6.194   2.872   7.378 -1.5641  0.0856 -0.9595
  613TIP3    H223475   6.163   2.892   7.232  1.4541 -0.4842 -1.7368
  614TIP3   OH223476   4.859   2.261   8.177 -0.2097 -0.3363 -0.0588
  614TIP3    H123477   4.879   2.284   8.086 -2.1961  0.7141 -0.2879
  614TIP3    H223478   4.941   2.228   8.212  1.0872  0.9611 -1.7095
  615TIP3   OH223479   1.030   2.568   0.975  0.3397 -0.4398 -0.4258
  615TIP3    H123480   1.021   2.472   0.974 -0.2730 -0.4202  1.1194
  615TIP3    H223481   0.996   2.594   1.060  0.6986  1.1515 -0.7498
  616TIP3   OH223482   6.186   2.520   7.408 -0.2443 -0.0900 -0.3008
  616TIP3    H123483   6.273   2.480   7.398  0.9962  2.4559 -0.4882
  616TIP3    H223484   6.157   2.537   7.319 -0.5865 -0.2353 -0.2168
  617TIP3   OH223485   4.525   3.250   8.033 -0.4992 -0.1820  0.2413
  617TIP3    H123486   4.582   3.263   8.109  0.1042 -1.9598  0.1363
  617TIP3    H223487   4.520   3.155   8.023 -0.0969 -0.0094 -2.2959
  618TIP3   OH223488   2.859   4.202   1.034  0.2009  0.0035  0.0159
  618TIP3    H123489   2.861   4.246   0.949 -0.5483  0.7182  0.3405
  618TIP3    H223490   2.766   4.197   1.055  0.3460 -0.7839  0.4844
  619TIP3   OH223491   4.998   2.633   1.402  0.2954  0.5622 -0.2230
  619TIP3    H123492   5.087   2.655   1.373 -0.0353  0.6302 -1.2142
  619TIP3    H223493   5.007   2.620   1.497  1.1314  1.7072 -0.1271
  620TIP3   OH223494   5.852   5.038   8.043  0.1594  0.2936  0.5434
  620TIP3    H123495   5.759   5.017   8.048 -0.3037  1.6171 -1.2773
  620TIP3    H223496   5.878   5.010   7.955  0.9400  1.8358  0.2537
  621TIP3   OH223497   1.690   3.105   8.016  0.2015  0.0291  0.0701
  621TIP3    H123498   1.754   3.046   8.055  0.9373  0.3641 -0.6079
  621TIP3    H223499   1.741   3.163   7.960 -0.6852  0.3432 -0.4406
  622TIP3   OH223500   5.663   2.121   1.277  0.2815 -0.1936 -0.5981
  622TIP3    H123501   5.580   2.169   1.274  2.0760  3.1853 -1.5025
  622TIP3    H223502   5.658   2.059   1.204 -0.0956  2.6917 -3.2638
  623TIP3   OH223503   1.764   4.627   6.791  0.6161 -0.0089 -0.2681
  623TIP3    H123504   1.829   4.604   6.857  0.2769 -1.6477 -0.4585
  623TIP3    H223505   1.752   4.546   6.740  0.0600  0.8932 -1.6325
  624TIP3   OH223506   1.364   6.886   1.903 -0.2575  0.1788 -0.0651
  624TIP3    H123507   1.388   6.978   1.893  0.3548  0.2080  1.4284
  624TIP3    H223508   1.291   6.887   1.965  1.8525 -0.5044  2.5948
  625TIP3   OH223509   4.149   6.558   0.337 -0.1889  0.1721 -0.4452
  625TIP3    H123510   4.234   6.541   0.378  0.4908  0.9117 -1.5082
  625TIP3    H223511   4.128   6.648   0.364 -0.8158 -0.1308  0.1004
  626TIP3   OH223512   4.626   2.084   8.103  0.0114  0.0717 -0.1336
  626TIP3    H123513   4.582   2.055   8.183 -1.3999  2.5851  0.1008
  626TIP3    H223514   4.713   2.112   8.132 -0.7286  1.6363  0.7345
  627TIP3   OH223515   5.537   2.059   0.896  0.3660  0.6441 -0.2730
  627TIP3    H123516   5.513   2.130   0.955  0.9801  1.6715 -1.2249
  627TIP3    H223517   5.633   2.058   0.897  0.3915  0.7126 -1.2629
  628TIP3   OH223518   4.785   3.515   7.508  0.2439  0.7014  0.2271
  628TIP3    H123519   4.758   3.425   7.529  0.0113  1.2480  2.6594
  628TIP3    H223520   4.720   3.570   7.552  1.1907  2.0454  0.0119
  629TIP3   OH223521   6.146   5.246   0.915  0.4014 -0.2423  0.3392
  629TIP3    H123522   6.179   5.175   0.860  0.3034 -0.2406  0.2782
  629TIP3    H223523   6.213   5.315   0.907 -0.3675  0.3844 -1.0477
  630TIP3   OH223524   1.963   0.231   0.839 -0.6416 -0.2501  0.7936
  630TIP3    H123525   2.004   0.271   0.916  0.1993  2.1658 -0.7818
  630TIP3    H223526   2.036   0.193   0.791 -0.9465 -0.3771  0.4347
  631TIP3   OH223527   0.889   2.960   6.085 -0.0423  0.0758 -0.4666
  631TIP3    H123528   0.802   2.947   6.123  0.3261  0.3298  0.4992
  631TIP3    H223529   0.884   3.045   6.042  0.2177  0.9146  1.0906
  632TIP3   OH223530   6.141   0.096   1.500 -0.0857  0.6907  0.1188
  632TIP3    H123531   6.097   0.147   1.432  0.1908 -0.3953 -0.9145
  632TIP3    H223532   6.198   0.036   1.451 -0.1652 -0.3822  1.3015
  633TIP3   OH223533   3.552   4.880   1.446  0.1367 -0.5277 -0.1748
  633TIP3    H123534   3.562   4.798   1.398  1.2067 -1.7254  1.9359
  633TIP3    H223535   3.478   4.864   1.505 -0.3047  0.4160 -0.4571
  634TIP3   OH223536   0.438   1.747   7.361 -0.3515 -1.1688 -0.3266
  634TIP3    H123537   0.504   1.682   7.386  0.8376  0.0837 -0.1290
  634TIP3    H223538   0.437   1.809   7.434 -1.5634 -1.0184 -0.4521
  635TIP3   OH223539   4.573   3.744   1.039 -0.2503 -0.1588 -0.0819
  635TIP3    H123540   4.593   3.653   1.060 -0.7761  0.1201  1.7556
  635TIP3    H223541   4.483   3.741   1.004  0.5168 -0.5803 -2.1746
  636TIP3   OH223542   0.173   1.392   1.073  0.5968 -1.1105  0.1814
  636TIP3    H123543   0.257   1.435   1.088  0.3737  0.4814 -2.5962
  636TIP3    H223544   0.109   1.448   1.117  0.5783  0.1524 -1.3651
  637TIP3   OH223545   4.373   3.541   8.143 -0.1397 -0.3494 -0.0971
  637TIP3    H123546   4.403   3.464   8.192 -2.8357 -1.1401  0.5053
  637TIP3    H223547   4.335   3.598   8.210 -0.1517  0.4884 -0.7992
  638TIP3   OH223548   5.860   3.278   7.862 -0.1595 -0.0208  0.6147
  638TIP3    H123549   5.954   3.278   7.880  0.2405  0.3751 -1.2270
  638TIP3    H223550   5.842   3.365   7.825 -1.1399 -0.2887  0.4193
  639TIP3   OH223551   5.168   4.358   1.994  0.3059  0.6190 -0.1773
  639TIP3    H123552   5.157   4.333   1.902  1.9067 -1.5991  0.1648
  639TIP3    H223553   5.258   4.389   2.001  1.4898 -2.7158  1.2506
  640TIP3   OH223554   6.841   0.356   8.370 -0.3894 -0.6803  0.0258
  640TIP3    H123555   6.869   0.273   8.409  0.8033 -0.9611 -1.3331
  640TIP3    H223556   6.812   0.331   8.282  1.7603  0.5571 -1.0903
  641TIP3   OH223557   5.715   2.186   1.536  0.1333 -0.2413 -0.0971
  641TIP3    H123558   5.687   2.276   1.524 -0.1458 -0.1768  0.9942
  641TIP3    H223559   5.713   2.148   1.448  0.4724  0.8698 -0.5958
  642TIP3   OH223560   2.312   5.911   6.766  0.8514  0.4098 -0.3234
  642TIP3    H123561   2.286   5.991   6.720 -0.1224  0.3601  0.1126
  642TIP3    H223562   2.298   5.841   6.703  2.0605  0.6050 -0.8334
  643TIP3   OH223563   3.814   2.014   1.357 -0.4350  0.5450 -0.5692
  643TIP3    H123564   3.808   1.979   1.446 -2.6040  0.9490 -0.5035
  643TIP3    H223565   3.892   2.070   1.359 -0.2289  0.2604  0.9613
  644TIP3   OH223566   5.554   2.836   8.445  0.7253  0.3254 -0.3471
  644TIP3    H123567   5.572   2.835   8.351  0.4454 -1.4396 -0.4260
  644TIP3    H223568   5.497   2.911   8.458  0.2229  0.2078 -1.7187
  645TIP3   OH223569   3.632   3.304   0.578  0.1875  0.0801  0.2161
  645TIP3    H123570   3.549   3.261   0.555 -0.4135 -0.7547  3.3989
  645TIP3    H223571   3.696   3.232   0.580 -0.0479 -0.1274  2.0876
  646TIP3   OH223572   0.913   0.136   0.319 -0.3269 -0.8355  0.0908
  646TIP3    H123573   0.936   0.223   0.289 -0.1737 -1.0485 -0.4304
  646TIP3    H223574   0.859   0.100   0.249 -1.8492 -0.5313  1.0628
  647TIP3   OH223575   6.150   4.757   2.049  0.0781 -0.2304 -0.0922
  647TIP3    H123576   6.221   4.767   1.987 -0.8900  2.9790 -0.8587
  647TIP3    H223577   6.128   4.664   2.046  2.9152 -0.9548 -1.2319
  648TIP3   OH223578   6.460   4.011   1.249 -0.2268 -0.3459 -0.2276
  648TIP3    H123579   6.382   4.053   1.211  0.0337 -0.1296 -0.5237
  648TIP3    H223580   6.530   4.075   1.236  0.1435 -0.8129 -0.5542
  649TIP3   OH223581   5.625   4.859   6.807 -0.0892  0.1859 -0.5941
  649TIP3    H123582   5.592   4.770   6.802 -1.6373  0.6957 -0.0799
  649TIP3    H223583   5.634   4.887   6.715  0.9194 -0.6394 -0.7708
  650TIP3   OH223584   3.740   4.827   7.554  0.0550  0.2718  0.0434
  650TIP3    H123585   3.713   4.742   7.587 -0.3731  0.4763  0.2245
  650TIP3    H223586   3.830   4.838   7.586  0.1942 -0.2066 -0.1732
  651TIP3   OH223587   2.624   3.618   1.105  0.1267  0.0050  0.5700
  651TIP3    H123588   2.602   3.682   1.173  1.7182  0.4655  0.6837
  651TIP3    H223589   2.580   3.537   1.133 -2.2409  1.0834  0.2319
  652TIP3   OH223590   4.533   2.904   0.188  0.3688 -0.2255 -0.5993
  652TIP3    H123591   4.503   2.983   0.144  1.9056 -0.4279 -2.1237
  652TIP3    H223592   4.625   2.921   0.208 -0.2127 -0.1775  2.5680
  653TIP3   OH223593   3.478   3.765   2.500 -0.1285  0.6951 -0.2320
  653TIP3    H123594   3.504   3.688   2.449  1.4252  1.5967 -0.8512
  653TIP3    H223595   3.440   3.728   2.581 -2.5799 -0.7580 -1.8943
  654TIP3   OH223596   1.356   2.395   7.406  1.0164 -0.2868 -0.2930
  654TIP3    H123597   1.280   2.365   7.357  0.7054  1.7733 -1.1608
  654TIP3    H223598   1.333   2.380   7.498 -1.4264  2.2094 -0.3565
  655TIP3   OH223599   1.773   0.486   7.839  0.6151  0.4210 -0.1313
  655TIP3    H123600   1.763   0.397   7.875  2.9051  0.7094  1.3848
  655TIP3    H223601   1.704   0.492   7.772 -0.1701 -2.1705  0.3250
  656TIP3   OH223602   0.161   6.227   0.344  0.3490 -0.6088  0.6328
  656TIP3    H123603   0.081   6.178   0.360  0.0670  0.4838  2.8930
  656TIP3    H223604   0.231   6.171   0.376  0.1740 -0.2245  1.7064
  657TIP3   OH223605   6.141   2.078   7.783 -0.0765  0.3252 -0.2615
  657TIP3    H123606   6.046   2.077   7.797 -0.3238  1.6692 -1.5976
  657TIP3    H223607   6.171   2.155   7.832  0.3763 -0.2397  0.3657
  658TIP3   OH223608   3.861   1.407   6.934 -0.0520  0.3429 -0.1810
  658TIP3    H123609   3.878   1.471   6.864 -1.8917  1.2789  0.1857
  658TIP3    H223610   3.801   1.344   6.894 -0.7699  0.6433  0.4142
  659TIP3   OH223611   4.044   5.253   7.238 -0.2304  0.8490 -0.3248
  659TIP3    H123612   4.041   5.342   7.273 -1.0315  0.8748 -0.4390
  659TIP3    H223613   4.072   5.264   7.147 -1.7439  1.1426 -0.7865
  660TIP3   OH223614   2.236   3.618   0.138 -0.5484  0.4738  0.0012
  660TIP3    H123615   2.226   3.534   0.181 -1.2945  0.2775 -0.5380
  660TIP3    H223616   2.223   3.600   0.045 -1.2412  1.2542 -0.0740
  661TIP3   OH223617   6.604   5.292   8.321 -0.2346 -0.7095  0.8921
  661TIP3    H123618   6.557   5.285   8.404 -2.2971  1.4699  0.0100
  661TIP3    H223619   6.575   5.217   8.270 -1.8933 -0.0531  0.8161
  662TIP3   OH223620   0.102   5.774   2.341  0.0337  0.0536 -0.2043
  662TIP3    H123621   0.125   5.733   2.425 -0.2350  0.2681 -0.0239
  662TIP3    H223622   0.007   5.772   2.338  0.0743 -1.1628 -1.1222
  663TIP3   OH223623   3.182   2.789   6.991 -0.8595 -0.1266 -0.4600
  663TIP3    H123624   3.246   2.855   7.018  0.4552 -0.8209 -1.7036
  663TIP3    H223625   3.236   2.714   6.965 -2.2571 -1.2191 -0.3257
  664TIP3   OH223626   3.489   4.360   7.718 -0.9732 -0.2890 -0.0409
  664TIP3    H123627   3.457   4.279   7.757 -0.7844  0.9568  2.9612
  664TIP3    H223628   3.412   4.400   7.677 -1.8797 -0.3119  1.5912
  665TIP3   OH223629   5.760   2.775   1.397 -0.0835  0.2095  0.1326
  665TIP3    H123630   5.818   2.736   1.331 -0.9413 -0.9634  0.0331
  665TIP3    H223631   5.782   2.868   1.397  0.8528  0.0063 -0.8536
  666TIP3   OH223632   6.638   3.597   1.268  0.6428 -0.0979 -0.1897
  666TIP3    H123633   6.702   3.530   1.245  1.0596  0.7367 -1.6137
  666TIP3    H223634   6.602   3.569   1.352  1.9610 -1.2442  0.0237
  667TIP3   OH223635   6.615   1.855   6.905 -0.1871 -0.0177  0.8043
  667TIP3    H123636   6.594   1.946   6.886 -0.1237 -0.4738 -1.7306
  667TIP3    H223637   6.592   1.844   6.997 -1.8832  2.0650  0.7025
  668TIP3   OH223638   0.302   2.328   7.060 -0.0275 -0.3749  0.7636
  668TIP3    H123639   0.239   2.330   6.988  0.9767  0.1748 -0.1240
  668TIP3    H223640   0.249   2.332   7.139 -1.0805  0.7179  0.0246
  669TIP3   OH223641   2.340   1.595   6.433 -0.2299  0.1460  0.0405
  669TIP3    H123642   2.363   1.578   6.342 -1.1948 -0.5106 -0.0934
  669TIP3    H223643   2.415   1.644   6.468  0.7263 -0.7129 -0.7466
  670TIP3   OH223644   1.588   4.471   7.083 -0.0546  0.2842  0.1883
  670TIP3    H123645   1.674   4.452   7.045 -0.0161  0.6443  0.0920
  670TIP3    H223646   1.582   4.566   7.081 -0.9952  0.2084 -0.9737
  671TIP3   OH223647   3.741   4.900   1.791 -0.1470 -0.2028  0.1232
  671TIP3    H123648   3.693   4.898   1.873  1.9657 -1.5574  1.4376
  671TIP3    H223649   3.760   4.993   1.777 -1.0244  0.1035  0.8517
  672TIP3   OH223650   5.067   1.017   7.416 -0.2223  0.0217  0.2524
  672TIP3    H123651   5.049   0.939   7.469  0.8437  1.1992  2.4700
  672TIP3    H223652   5.107   0.982   7.336 -1.9494 -1.8152  0.1014
  673TIP3   OH223653   4.820   2.843   8.052  0.5688  0.2049  0.2726
  673TIP3    H123654   4.741   2.796   8.077  0.1047  1.1485  0.6613
  673TIP3    H223655   4.858   2.791   7.981  0.6574 -1.2942  1.3806
  674TIP3   OH223656   3.912   5.019   0.293 -0.1940 -0.2172  0.2593
  674TIP3    H123657   3.836   5.063   0.330  0.3685  0.4369  0.6770
  674TIP3    H223658   3.876   4.952   0.236 -1.0867 -0.9023  1.5809
  675TIP3   OH223659   2.906   3.364   2.155 -0.0391 -0.5816  0.2751
  675TIP3    H123660   2.815   3.349   2.128 -0.0867 -0.7991  0.5516
  675TIP3    H223661   2.945   3.411   2.082 -0.9927  1.6179  1.0674
  676TIP3   OH223662   3.418   4.334   1.391  0.2317  0.3929  0.3017
  676TIP3    H123663   3.397   4.376   1.307 -0.9517  1.6507  1.1868
  676TIP3    H223664   3.390   4.243   1.379  1.6489  0.0949 -1.2127
  677TIP3   OH223665   3.139   1.530   2.378 -0.1129  0.1646  0.2999
  677TIP3    H123666   3.059   1.574   2.406  0.5042  0.3079  2.0225
  677TIP3    H223667   3.191   1.599   2.336 -0.8515  0.0770 -0.7933
  678TIP3   OH223668   1.289   2.235   1.485  0.2379 -0.5862  0.2643
  678TIP3    H123669   1.274   2.220   1.578  1.6306 -1.2761  0.4154
  678TIP3    H223670   1.205   2.264   1.451 -0.1618  0.2303  1.8419
  679TIP3   OH223671   1.941   5.399   7.796  0.6579  0.6340  0.2534
  679TIP3    H123672   2.022   5.431   7.835  0.6447  1.1467 -0.1399
  679TIP3    H223673   1.903   5.475   7.753  0.3141  0.2359 -0.1537
  680TIP3   OH223674   1.073   5.671   7.513 -0.3481  0.0593  0.5811
  680TIP3    H123675   1.036   5.593   7.473  0.1590  0.0048  0.2034
  680TIP3    H223676   0.998   5.729   7.528 -0.5507  0.0856 -0.4698
  681TIP3   OH223677   3.367   5.586   0.741 -0.4401  0.4027  0.4476
  681TIP3    H123678   3.444   5.638   0.766 -1.9932  2.1462  1.9059
  681TIP3    H223679   3.404   5.508   0.699  2.1090  1.2201  0.9604
  682TIP3   OH223680   3.015   5.096   1.728 -0.1663 -0.3167 -0.2820
  682TIP3    H123681   3.023   5.128   1.638 -1.6197 -0.9698 -0.6618
  682TIP3    H223682   3.031   5.002   1.722  2.0036 -0.0734  0.5261
  683TIP3   OH223683   0.346   6.561   1.067 -0.2738 -0.1647 -0.4068
  683TIP3    H123684   0.281   6.598   1.127 -0.1434 -0.0587 -0.3302
  683TIP3    H223685   0.429   6.602   1.093 -0.2562  0.0634 -0.8106
  684TIP3   OH223686   4.789   2.405   0.296  0.5373 -0.4590  0.1922
  684TIP3    H123687   4.776   2.310   0.287  0.0549 -0.2878 -1.2626
  684TIP3    H223688   4.877   2.414   0.333  1.3661 -1.4716 -1.4174
  685TIP3   OH223689   2.969   4.518   2.155  0.0302 -0.1231 -0.3940
  685TIP3    H123690   2.966   4.612   2.175 -1.3803 -0.3357  0.5618
  685TIP3    H223691   3.062   4.498   2.148  0.5257  0.7920  2.2657
  686TIP3   OH223692   1.791   6.822   0.230 -0.0447  0.6038 -0.1042
  686TIP3    H123693   1.819   6.882   0.300 -1.4717 -0.7563  1.7472
  686TIP3    H223694   1.850   6.748   0.238  0.3019  0.7922 -0.9031
  687TIP3   OH223695   3.382   6.192   1.776  0.2919  0.0363  0.3707
  687TIP3    H123696   3.343   6.225   1.696 -0.4089 -0.9431  0.2930
  687TIP3    H223697   3.477   6.201   1.761  0.2593 -1.7173 -1.3045
  688TIP3   OH223698   3.705   6.117   0.695 -0.2565 -0.4019 -0.2899
  688TIP3    H123699   3.777   6.135   0.634 -0.1777  1.2480  0.2359
  688TIP3    H223700   3.742   6.057   0.759  0.3430 -0.3592 -0.5890
  689TIP3   OH223701   5.710   1.670   0.988 -0.0999 -0.3216 -0.4979
  689TIP3    H123702   5.705   1.575   0.982  0.1749 -0.2781 -1.5378
  689TIP3    H223703   5.688   1.701   0.900 -2.6779  0.6792  0.3831
  690TIP3   OH223704   4.964   6.098   0.801 -0.0892  0.4054 -0.2627
  690TIP3    H123705   4.907   6.149   0.744  1.5325  1.9639 -0.5685
  690TIP3    H223706   4.980   6.017   0.752 -0.2353  0.9102 -1.1675
  691TIP3   OH223707   6.164   3.367   8.394 -0.0189  0.3657  0.5094
  691TIP3    H123708   6.109   3.395   8.468 -0.6845  1.3307 -0.3145
  691TIP3    H223709   6.251   3.357   8.431  0.0598  2.6130  1.1085
  692TIP3   OH223710   5.534   3.278   0.439 -0.0709 -0.3437 -0.8150
  692TIP3    H123711   5.551   3.215   0.509 -0.3245  0.4418 -0.0381
  692TIP3    H223712   5.458   3.242   0.393 -1.3391  0.2818  0.7250
  693TIP3   OH223713   5.900   6.562   6.707  0.2638 -0.2282 -0.5635
  693TIP3    H123714   5.890   6.466   6.707 -1.0842 -0.2961  3.5567
  693TIP3    H223715   5.821   6.594   6.664 -0.6102 -1.0332  0.3618
  694TIP3   OH223716   4.519   0.566   6.653  0.5868  0.1476  0.1000
  694TIP3    H123717   4.549   0.631   6.589  1.1917 -0.4143 -0.1983
  694TIP3    H223718   4.520   0.613   6.736 -0.8879  1.0994 -0.3760
  695TIP3   OH223719   4.093   4.569   8.096 -0.1778  0.0992  0.3630
  695TIP3    H123720   4.037   4.648   8.095  0.1586  0.3987 -2.0411
  695TIP3    H223721   4.032   4.498   8.115 -0.8740  0.7272  0.5766
  696TIP3   OH223722   5.652   6.238   6.921  0.7836 -0.0062  0.8311
  696TIP3    H123723   5.595   6.260   6.995  0.8913 -0.0916  0.9392
  696TIP3    H223724   5.677   6.147   6.936 -3.1190 -1.8129 -1.7835
  697TIP3   OH223725   2.169   4.751   0.883  0.4823 -0.0592 -0.1584
  697TIP3    H123726   2.123   4.823   0.927  0.0525 -1.4875  1.8687
  697TIP3    H223727   2.122   4.672   0.910  0.6733 -1.1360 -2.6548
  698TIP3   OH223728   2.918   3.688   7.223  1.1888 -0.1279  0.1139
  698TIP3    H123729   2.859   3.616   7.203  1.6552 -0.4894  0.0191
  698TIP3    H223730   2.943   3.722   7.137  2.8710 -1.4165  0.0467
  699TIP3   OH223731   1.208   2.431   8.137 -0.5172 -0.6154  0.0897
  699TIP3    H123732   1.279   2.461   8.194 -1.3469 -0.2423  0.9692
  699TIP3    H223733   1.139   2.497   8.148 -0.7468 -0.5965 -1.2864
  700TIP3   OH223734   0.201   5.442   0.959  0.5048  0.0127 -0.7539
  700TIP3    H123735   0.171   5.367   1.010  1.4545 -0.1779 -0.4657
  700TIP3    H223736   0.179   5.420   0.869  1.1441 -0.7943 -0.7161
  701TIP3   OH223737   2.085   2.021   0.877 -0.2407 -0.2749  0.5994
  701TIP3    H123738   2.047   1.972   0.949 -0.8569  0.7771  1.0093
  701TIP3    H223739   2.058   1.973   0.798 -0.4000 -0.8653  1.0055
  702TIP3   OH223740   1.200   2.821   8.066  0.1863  0.2096 -0.6142
  702TIP3    H123741   1.257   2.887   8.106  1.4333 -1.1551 -0.0577
  702TIP3    H223742   1.246   2.796   7.985  0.4617 -0.9583 -0.1183
  703TIP3   OH223743   1.516   5.667   7.726  0.6680 -0.3812  0.0123
  703TIP3    H123744   1.496   5.736   7.789  0.4180 -1.4914  1.2055
  703TIP3    H223745   1.431   5.632   7.702  0.8163 -0.6415 -0.1360
  704TIP3   OH223746   1.551   1.385   7.713  0.1205  0.3432  0.0466
  704TIP3    H123747   1.622   1.450   7.708  1.0696 -0.7190 -0.8699
  704TIP3    H223748   1.542   1.353   7.623 -0.2073 -0.9213  0.5192
  705TIP3   OH223749   2.884   4.608   8.358 -0.4498  0.1460 -0.0458
  705TIP3    H123750   2.854   4.576   8.443  0.4120  1.4632  0.7846
  705TIP3    H223751   2.811   4.659   8.324 -1.0431 -0.9123 -0.4356
  706TIP3   OH223752   6.170   0.389   1.267  0.4044 -0.1127  0.0501
  706TIP3    H123753   6.240   0.454   1.267  0.8402 -0.5755 -0.6163
  706TIP3    H223754   6.152   0.373   1.360 -0.5940  1.8821  0.2440
  707TIP3   OH223755   4.226   2.485   1.871  0.3067 -0.1340  0.0402
  707TIP3    H123756   4.183   2.423   1.812 -3.5772  2.3755 -0.1429
  707TIP3    H223757   4.226   2.441   1.956 -1.8209 -0.7388 -0.1972
  708TIP3   OH223758   5.935   2.747   7.955 -0.5046  0.0497 -0.3817
  708TIP3    H123759   5.965   2.672   7.904 -1.8403 -0.6787 -0.1356
  708TIP3    H223760   5.845   2.726   7.979 -1.3672  2.2958 -1.3913
  709TIP3   OH223761   4.331   3.125   7.322  0.5605 -0.2920 -0.0168
  709TIP3    H123762   4.335   3.214   7.287 -0.5524 -0.1998  0.0701
  709TIP3    H223763   4.275   3.132   7.400 -0.2827 -1.2241 -0.5227
  710TIP3   OH223764   3.474   2.757   7.487  0.6781  0.1681  0.6474
  710TIP3    H123765   3.496   2.680   7.540  0.1250 -0.4076  0.0674
  710TIP3    H223766   3.531   2.751   7.410 -1.0944 -1.0843 -0.6400
  711TIP3   OH223767   0.950   3.692   6.630 -0.2369  0.1015  0.0845
  711TIP3    H123768   1.008   3.650   6.566 -0.3488  1.1732 -0.7392
  711TIP3    H223769   0.990   3.776   6.647 -1.2392  0.6247 -0.0663
  712TIP3   OH223770   1.902   3.354   0.494  0.0465 -0.2176  0.4167
  712TIP3    H123771   1.897   3.409   0.573 -1.5486 -0.2252  0.3584
  712TIP3    H223772   1.885   3.414   0.422 -1.5004 -0.7208  0.3352
  713TIP3   OH223773   1.178   3.020   6.928  0.2917  0.0497 -0.4183
  713TIP3    H123774   1.140   3.103   6.901 -0.8614 -0.8028 -1.5991
  713TIP3    H223775   1.116   2.954   6.895  1.6049 -1.3071 -0.2816
  714TIP3   OH223776   4.278   6.317   1.563 -0.3719  0.1614 -0.5464
  714TIP3    H123777   4.220   6.241   1.563  1.1026 -0.9995  0.0092
  714TIP3    H223778   4.230   6.383   1.613 -2.7340  0.5096 -3.0169
  715TIP3   OH223779   4.881   2.418   7.698 -0.3360  0.2083 -0.1537
  715TIP3    H123780   4.817   2.421   7.628 -0.6379 -1.6029 -0.0075
  715TIP3    H223781   4.845   2.356   7.762  0.9151  0.1816  0.5765
  716TIP3   OH223782   5.723   1.523   8.291 -0.0699  0.0343  0.0717
  716TIP3    H123783   5.698   1.608   8.327 -1.2004 -0.4327  0.4553
  716TIP3    H223784   5.743   1.541   8.199 -0.9754  0.6200 -0.0292
  717TIP3   OH223785   2.029   4.638   6.819 -0.3240 -0.1808  0.0997
  717TIP3    H123786   2.056   4.587   6.895  1.0727  0.9157  0.3879
  717TIP3    H223787   2.074   4.723   6.830 -0.1519  0.0350 -1.8841
  718TIP3   OH223788   5.914   1.989   0.011  0.4714  0.6047  0.2377
  718TIP3    H123789   5.969   2.048  -0.040  1.0885  0.4257  0.6798
  718TIP3    H223790   5.859   2.048   0.064 -0.2961  0.7919 -0.7281
  719TIP3   OH223791   0.814   0.363   7.498 -0.0815  0.0835 -0.2296
  719TIP3    H123792   0.908   0.374   7.481  0.6418 -2.7059  1.4064
  719TIP3    H223793   0.771   0.409   7.425  2.5451  0.1097 -1.8970
  720TIP3   OH223794   0.608   1.979   6.511 -0.3429 -0.3545  0.1840
  720TIP3    H123795   0.689   1.942   6.476  0.7811  0.7067  1.5622
  720TIP3    H223796   0.620   2.074   6.504 -0.3513 -0.0982  2.6888
  721TIP3   OH223797   2.849   0.952   1.093  0.1138  0.4763 -0.1837
  721TIP3    H123798   2.800   1.020   1.138 -0.0771  0.8533 -0.9464
  721TIP3    H223799   2.941   0.974   1.109  0.1051 -0.9553  2.3437
  722TIP3   OH223800   5.040   4.622   1.439 -0.6963  0.0829 -0.1078
  722TIP3    H123801   5.063   4.593   1.527 -0.4728 -1.6281 -0.6928
  722TIP3    H223802   5.125   4.636   1.396 -0.7761 -0.5485 -0.4883
  723TIP3   OH223803   2.329   0.099   8.351  0.3296  0.5367  0.2468
  723TIP3    H123804   2.369   0.053   8.424  0.2738 -1.8052 -1.0871
  723TIP3    H223805   2.403   0.126   8.296  0.3023 -0.3139 -0.2423
  724TIP3   OH223806   0.712   1.251   6.842  0.3544  0.7243  0.2390
  724TIP3    H123807   0.720   1.193   6.766  1.1109  1.7599 -0.5007
  724TIP3    H223808   0.704   1.339   6.805  0.4414  1.2228  1.3507
  725TIP3   OH223809   0.214   4.097   0.870 -0.1189  0.1619  1.1198
  725TIP3    H123810   0.266   4.139   0.801 -0.1340  0.2269  1.1487
  725TIP3    H223811   0.279   4.056   0.927 -0.0414  1.2788  1.8460
  726TIP3   OH223812   4.778   6.881   1.698  0.6316  0.0915  0.5207
  726TIP3    H123813   4.791   6.967   1.738 -0.8486  0.1830  0.8958
  726TIP3    H223814   4.860   6.834   1.714  1.6418  1.5763 -0.1158
  727TIP3   OH223815   0.351   1.404   0.628  0.0694 -0.2186  0.1230
  727TIP3    H123816   0.406   1.463   0.680 -0.6816 -0.2238  0.9372
  727TIP3    H223817   0.285   1.371   0.689 -1.0927  0.0880 -0.9092
  728TIP3   OH223818   6.451   0.943   6.928  0.2818  0.1665  0.4050
  728TIP3    H123819   6.366   0.977   6.957  0.6042  2.1510 -0.8125
  728TIP3    H223820   6.432   0.895   6.847  0.2374 -0.0090  0.5184
  729TIP3   OH223821   1.476   4.839   8.371 -0.4858 -0.2625  0.5880
  729TIP3    H123822   1.429   4.872   8.294  0.1390  0.4820  0.5019
  729TIP3    H223823   1.412   4.786   8.418 -1.2037  0.1691  0.1264
  730TIP3   OH223824   2.329   0.578   0.102  0.1278 -0.2686  0.3168
  730TIP3    H123825   2.366   0.547   0.185 -1.1588  1.1593  1.4903
  730TIP3    H223826   2.405   0.592   0.046  1.3985  1.7287  2.3414
  731TIP3   OH223827   1.803   4.247   8.528 -0.2298 -0.4915 -0.0356
  731TIP3    H123828   1.757   4.221   8.448 -0.2125 -0.5489 -0.0267
  731TIP3    H223829   1.744   4.309   8.570 -1.1573 -1.9748  0.9334
  732TIP3   OH223830   3.293   5.010   1.941  0.4250 -0.3390 -0.1108
  732TIP3    H123831   3.264   5.010   2.032 -1.4545 -2.8074 -0.5918
  732TIP3    H223832   3.297   4.918   1.917  1.9252  0.2000 -2.2645
  733TIP3   OH223833   3.730   2.031   1.813 -0.0932  0.3336  0.1093
  733TIP3    H123834   3.750   2.112   1.766 -0.2288  0.7461  0.7471
  733TIP3    H223835   3.790   2.031   1.887 -0.2853 -0.0178  0.2662
  734TIP3   OH223836   2.195   2.132   2.211  0.2161  0.0849 -0.1650
  734TIP3    H123837   2.146   2.183   2.276  0.0206 -0.8581  0.4354
  734TIP3    H223838   2.277   2.181   2.199  1.2429 -0.8508  2.4387
  735TIP3   OH223839   6.582   3.197   0.736 -0.2268  0.6546 -0.0985
  735TIP3    H123840   6.674   3.221   0.745 -0.6344  2.6075 -0.6251
  735TIP3    H223841   6.545   3.209   0.823  0.1618 -0.9311  0.3061
  736TIP3   OH223842   0.796   2.642   8.104 -0.0833  0.2501 -0.3046
  736TIP3    H123843   0.861   2.692   8.154  0.9426 -0.9571 -0.3790
  736TIP3    H223844   0.831   2.553   8.102 -2.2586 -0.7072  0.5638
  737TIP3   OH223845   3.329   2.804   8.454  0.5748 -0.4348 -0.1336
  737TIP3    H123846   3.334   2.864   8.529  1.4657  0.2160 -0.6797
  737TIP3    H223847   3.421   2.790   8.429  0.3287 -1.3389 -0.5563
  738TIP3   OH223848   2.959   4.543   7.587 -0.1935  0.0634 -0.0338
  738TIP3    H123849   3.052   4.543   7.565 -0.2184  0.2821 -0.1443
  738TIP3    H223850   2.937   4.635   7.602 -0.3852  0.0108  0.0187
  739TIP3   OH223851   1.818   0.898   0.910  0.0090  0.4504  0.2442
  739TIP3    H123852   1.848   0.893   1.001 -1.6511 -0.8938  0.7801
  739TIP3    H223853   1.897   0.916   0.859  0.8790  1.9483  2.0007
  740TIP3   OH223854   3.214   6.851   7.493 -0.6515 -0.2586 -0.0431
  740TIP3    H123855   3.180   6.899   7.568  1.3971  0.4950  0.4847
  740TIP3    H223856   3.216   6.760   7.521 -1.6190 -0.2402  0.1163
  741TIP3   OH223857   2.974   0.579   0.481 -0.1887 -0.1954 -0.0001
  741TIP3    H123858   3.011   0.496   0.450  1.3087  0.8072 -1.0692
  741TIP3    H223859   2.960   0.565   0.574  0.9740 -1.3511  0.0407
  742TIP3   OH223860   1.464   0.153   0.697 -0.8331  0.3456 -0.2094
  742TIP3    H123861   1.476   0.061   0.676 -0.5869  0.6390 -1.4074
  742TIP3    H223862   1.552   0.187   0.714 -0.8605  0.4919 -0.3513
  743TIP3   OH223863   5.556   3.855   8.219  0.2338  0.2243 -0.0828
  743TIP3    H123864   5.520   3.877   8.133 -2.9327 -2.0681  0.4630
  743TIP3    H223865   5.575   3.761   8.213  0.6691  0.1925  1.4833
  744TIP3   OH223866   4.576   5.595   1.965  0.5290 -0.2144  0.1316
  744TIP3    H123867   4.566   5.547   2.048 -0.4152 -1.5071 -0.7068
  744TIP3    H223868   4.633   5.539   1.912  1.9352  1.0595  0.2045
  745TIP3   OH223869   1.211   5.498   7.960 -0.3507  0.4243 -0.0099
  745TIP3    H123870   1.201   5.538   7.874 -0.1459 -0.7548 -0.6117
  745TIP3    H223871   1.267   5.422   7.945 -0.9581 -0.2570  1.0139
  746TIP3   OH223872   4.381   1.634   6.879  0.2286  0.2111 -0.0017
  746TIP3    H123873   4.409   1.542   6.872  0.3848  0.1227  1.4338
  746TIP3    H223874   4.305   1.640   6.821 -0.6614 -1.2015  0.9345
  747TIP3   OH223875   3.552   5.250   7.952 -0.1218  0.0904  0.4094
  747TIP3    H123876   3.590   5.203   8.026 -0.0061  0.9989  0.9455
  747TIP3    H223877   3.624   5.305   7.919 -0.0857 -0.5254 -0.5760
  748TIP3   OH223878   1.375   1.799   6.265  0.2794 -0.0634 -0.2433
  748TIP3    H123879   1.340   1.859   6.200  2.1597  0.1802 -1.0813
  748TIP3    H223880   1.465   1.829   6.281 -0.0983 -0.1050  2.4833
  749TIP3   OH223881   2.833   3.214   0.806  0.5544 -0.1432 -0.3829
  749TIP3    H123882   2.834   3.122   0.834 -0.6025 -0.5324 -1.4857
  749TIP3    H223883   2.743   3.228   0.776 -0.0307  2.1257  2.1256
  750TIP3   OH223884   6.692   4.346   7.675  0.4711  0.0153 -0.0957
  750TIP3    H123885   6.654   4.260   7.660 -0.6675  0.6437 -0.9814
  750TIP3    H223886   6.660   4.372   7.761  0.1222 -0.0966 -0.1919
  751TIP3   OH223887   1.200   4.701   8.425 -0.6774 -0.3084  0.1937
  751TIP3    H123888   1.167   4.767   8.365  1.6729  0.5752 -0.2252
  751TIP3    H223889   1.267   4.654   8.375 -0.4046 -1.2122  1.3564
  752TIP3   OH223890   1.346   6.014   0.942  0.3508 -0.1855  0.0651
  752TIP3    H123891   1.276   6.040   1.002  0.8304  1.6625 -0.1159
  752TIP3    H223892   1.377   5.930   0.975 -0.6562 -0.1079  1.2733
  753TIP3   OH223893   6.476   6.792   8.120 -0.1298  0.5542  0.2496
  753TIP3    H123894   6.399   6.737   8.136 -1.0707  2.0184  1.0057
  753TIP3    H223895   6.551   6.735   8.139 -1.0754 -0.1815  2.0545
  754TIP3   OH223896   0.662   6.157   8.366 -0.4315  0.3321 -0.0122
  754TIP3    H123897   0.667   6.193   8.455 -0.3583  0.9815 -0.2697
  754TIP3    H223898   0.712   6.219   8.312  1.8673 -1.4616 -0.0990
  755TIP3   OH223899   0.478   2.167   6.211  0.0305 -0.4716 -0.1271
  755TIP3    H123900   0.490   2.074   6.192  3.3872  0.1414 -1.6743
  755TIP3    H223901   0.547   2.187   6.274  0.8194  1.3642 -1.4930
  756TIP3   OH223902   0.022   0.378   1.699  0.3079  0.4348  0.5823
  756TIP3    H123903   0.076   0.454   1.718  0.1164  1.0479 -1.1217
  756TIP3    H223904  -0.035   0.406   1.627 -1.1855 -0.6868  1.2716
  757TIP3   OH223905   5.690   4.936   6.542 -0.4951  0.6637  0.0934
  757TIP3    H123906   5.655   4.965   6.457  0.5845  1.5997 -0.0467
  757TIP3    H223907   5.775   4.898   6.521 -0.0331  1.2803  0.7945
  758TIP3   OH223908   1.463   0.787   1.117  0.6187  0.3470  0.5766
  758TIP3    H123909   1.457   0.709   1.173 -0.5759  0.5239  0.7283
  758TIP3    H223910   1.509   0.757   1.039 -0.3976 -0.7107  0.3459
  759TIP3   OH223911   0.250   1.500   7.117  0.0918  0.2290 -0.0719
  759TIP3    H123912   0.186   1.445   7.071  0.4291  0.2239 -0.5484
  759TIP3    H223913   0.198   1.571   7.154 -0.3297 -0.3373  0.4408
  760TIP3   OH223914   5.923   0.598   7.464 -0.1997  0.2165  0.1070
  760TIP3    H123915   5.928   0.612   7.559 -2.0266 -0.6845  0.3844
  760TIP3    H223916   5.969   0.516   7.450 -1.5224 -0.6190  0.5115
  761TIP3   OH223917   3.960   1.588   0.067 -0.0302  0.2694  0.5908
  761TIP3    H123918   3.866   1.569   0.071 -0.2140  1.0107  0.0555
  761TIP3    H223919   3.968   1.674   0.108  0.3053  0.5681 -0.1056
  762TIP3   OH223920   4.710   0.191   0.769  0.0803 -0.3048 -0.2603
  762TIP3    H123921   4.696   0.269   0.823 -1.9720 -1.4597  0.9941
  762TIP3    H223922   4.707   0.223   0.679 -2.5214  0.8794  0.1694
  763TIP3   OH223923   3.125   3.453   0.918 -0.0735  0.4234 -0.0324
  763TIP3    H123924   3.070   3.389   0.963 -0.3274  0.1230 -0.7571
  763TIP3    H223925   3.209   3.447   0.962 -0.2838  0.0502  0.3278
  764TIP3   OH223926   3.341   6.062   8.529  0.2443 -0.4280  0.1840
  764TIP3    H123927   3.416   6.099   8.575 -0.1883  0.3414  0.2867
  764TIP3    H223928   3.366   6.065   8.436 -0.5076  1.9568 -0.0172
  765TIP3   OH223929   2.183   5.494   7.609 -0.2472  0.4695 -0.3828
  765TIP3    H123930   2.203   5.473   7.700  2.4816 -1.0839 -1.2509
  765TIP3    H223931   2.243   5.565   7.586 -0.4360  0.3826 -1.1916
  766TIP3   OH223932   3.547   2.078   1.318  0.1699 -0.2990 -0.2187
  766TIP3    H123933   3.639   2.053   1.326  0.2173 -0.1934 -0.4141
  766TIP3    H223934   3.550   2.169   1.287  0.0315 -1.1962 -3.1732
  767TIP3   OH223935   0.118   5.916   0.184  0.2400  0.5010 -0.2468
  767TIP3    H123936   0.141   5.824   0.184 -2.1460 -0.1980 -1.6632
  767TIP3    H223937   0.141   5.947   0.096 -1.1637  0.5747 -0.6147
  768TIP3   OH223938   4.991   6.116   1.548  0.9046 -0.7357 -0.7634
  768TIP3    H123939   5.042   6.187   1.508 -2.4174  2.1831 -0.3747
  768TIP3    H223940   4.945   6.159   1.621 -0.3994 -3.6348  0.2518
  769TIP3   OH223941   3.274   0.093   8.292  0.5565  0.1835 -0.1651
  769TIP3    H123942   3.238   0.178   8.317  0.8934 -0.1402  1.6021
  769TIP3    H223943   3.314   0.107   8.206  0.2508  1.7034 -0.0788
  770TIP3   OH223944   6.359   6.606   0.441  0.5622 -0.5367 -0.9242
  770TIP3    H123945   6.432   6.656   0.478  0.4545 -1.7056  1.0371
  770TIP3    H223946   6.282   6.657   0.463  0.5175 -1.1247  0.3777
  771TIP3   OH223947   3.529   1.007   1.904  0.2711  0.2825 -0.1986
  771TIP3    H123948   3.521   1.080   1.843  1.2980  0.6319  0.0577
  771TIP3    H223949   3.498   1.042   1.987 -1.4946 -0.3094 -0.5730
  772TIP3   OH223950   1.774   5.659   6.795 -0.3228  0.2382  0.6720
  772TIP3    H123951   1.745   5.568   6.796 -1.0362  0.4602  0.3911
  772TIP3    H223952   1.827   5.666   6.715 -1.1384  0.3361  0.1324
  773TIP3   OH223953   0.662   4.685   6.394 -0.2415  0.4539  0.4644
  773TIP3    H123954   0.710   4.606   6.368 -1.6731 -0.4376  0.4500
  773TIP3    H223955   0.724   4.734   6.448  1.0212 -0.1575 -0.3876
  774TIP3   OH223956   2.056   2.446   1.682 -0.1573  0.6356 -0.0144
  774TIP3    H123957   2.028   2.537   1.679  2.4527  1.5221 -0.3308
  774TIP3    H223958   2.080   2.431   1.773  1.1921  0.9325 -0.2864
  775TIP3   OH223959   5.018   4.300   6.733  0.1795  0.2542 -0.1817
  775TIP3    H123960   5.037   4.264   6.646  0.5569 -2.1764  0.8417
  775TIP3    H223961   5.094   4.356   6.753  1.3983 -1.2872 -0.3417
  776TIP3   OH223962   6.508   4.354   7.391 -0.0166 -0.2029 -0.8243
  776TIP3    H123963   6.567   4.361   7.466 -0.5300  0.7562 -0.4966
  776TIP3    H223964   6.466   4.269   7.402 -0.2685  0.0338  0.1232
  777TIP3   OH223965   1.233   1.559   8.029 -0.2492 -0.4859  0.7884
  777TIP3    H123966   1.207   1.480   7.982  0.6828 -1.1383  1.3447
  777TIP3    H223967   1.207   1.544   8.119 -0.0341 -0.1826  0.9044
  778TIP3   OH223968   0.863   2.060   0.030 -0.1034  0.2406 -0.1064
  778TIP3    H123969   0.927   2.072   0.100 -1.3899  0.5350  1.0596
  778TIP3    H223970   0.843   1.967   0.031  1.7744 -0.2297 -1.8385
  779TIP3   OH223971   2.614   1.418   0.245  0.2950 -0.3392  0.4618
  779TIP3    H123972   2.523   1.444   0.256  0.0254 -1.1263  0.1689
  779TIP3    H223973   2.661   1.500   0.229 -0.4470  0.0108  0.0520
  780TIP3   OH223974   4.137   2.346   7.141 -0.5652 -0.3090  0.1744
  780TIP3    H123975   4.113   2.426   7.187 -0.7410  0.1326 -0.6636
  780TIP3    H223976   4.096   2.355   7.054 -0.8020 -1.4183  0.1603
  781TIP3   OH223977   3.370   5.936   7.191 -0.6114  0.2992  0.5297
  781TIP3    H123978   3.299   5.986   7.230 -1.2569 -1.3214  1.5349
  781TIP3    H223979   3.329   5.889   7.118 -0.1726  0.6393  0.0533
  782TIP3   OH223980   2.446   0.387   7.798  0.0210 -0.0657 -0.5041
  782TIP3    H123981   2.416   0.383   7.889 -1.0683  2.4801 -0.6747
  782TIP3    H223982   2.368   0.367   7.746  0.0964  0.5682 -0.8743
  783TIP3   OH223983   0.320   4.922   0.033 -0.2591 -0.7100  0.6480
  783TIP3    H123984   0.289   4.876  -0.046 -0.6995  1.9556 -0.8406
  783TIP3    H223985   0.243   4.927   0.089 -1.6359  2.2060 -1.2441
  784TIP3   OH223986   3.862   0.494   7.259  0.3155  0.3084 -0.5604
  784TIP3    H123987   3.858   0.535   7.346  1.7060  1.7995 -1.1526
  784TIP3    H223988   3.852   0.567   7.198  2.9609 -0.1484 -1.6612
  785TIP3   OH223989   0.255   3.507   0.664  0.2168 -0.6326  0.0380
  785TIP3    H123990   0.328   3.495   0.724  1.1920  1.4606 -0.6219
  785TIP3    H223991   0.241   3.602   0.661 -0.8613 -0.7793 -1.7815
  786TIP3   OH223992   5.976   3.518   8.566 -1.1815  0.7088  0.4191
  786TIP3    H123993   5.965   3.544   8.474 -0.6158 -0.5796 -0.0487
  786TIP3    H223994   5.972   3.599   8.615  0.1578  1.6274 -0.9107
  787TIP3   OH223995   1.247   0.433   1.064  0.5355 -0.5354  0.2570
  787TIP3    H123996   1.237   0.504   1.001 -0.8127  0.3112  1.3710
  787TIP3    H223997   1.160   0.423   1.103  1.2455 -1.2485  1.7405
  788TIP3   OH223998   5.504   2.149   6.566 -0.1644 -0.4006 -0.3373
  788TIP3    H123999   5.473   2.059   6.570  1.6901 -1.0234  1.4997
  788TIP3    H224000   5.582   2.145   6.511 -0.1996  0.1473 -0.4330
  789TIP3   OH224001   4.649   2.115   7.609  0.5756 -0.0143  0.4126
  789TIP3    H124002   4.651   2.187   7.547 -0.1969  0.3133  0.7529
  789TIP3    H224003   4.740   2.106   7.638  0.7080  0.7150  0.2493
  790TIP3   OH224004   5.400   2.240   1.093 -0.3386 -0.2634  0.2358
  790TIP3    H124005   5.429   2.251   1.184 -0.7629  2.4916  0.1451
  790TIP3    H224006   5.306   2.222   1.101 -0.5110  0.6079  0.3915
  791TIP3   OH224007   2.180   5.555   1.726  0.1904 -0.4857  0.0957
  791TIP3    H124008   2.106   5.533   1.783  0.8263 -0.5921  0.8917
  791TIP3    H224009   2.243   5.483   1.738  0.6694 -0.1165 -0.1492
  792TIP3   OH224010   4.568   4.938   0.259  0.1058  0.0782 -0.1629
  792TIP3    H124011   4.631   5.006   0.282 -1.1769  1.1695  0.2513
  792TIP3    H224012   4.483   4.981   0.264 -0.6032 -0.9116 -2.2271
  793TIP3   OH224013   4.811   5.840   7.134  0.5158 -0.3143 -0.5630
  793TIP3    H124014   4.874   5.912   7.135  0.0714  0.0695 -0.1109
  793TIP3    H224015   4.803   5.817   7.042  0.3980  0.4480 -0.7491
  794TIP3   OH224016   2.319   3.577   0.507  0.4789  0.3907 -0.1181
  794TIP3    H124017   2.277   3.491   0.506  0.0183  0.5744 -2.1938
  794TIP3    H224018   2.412   3.559   0.520  0.2813 -0.3382  0.3205
  795TIP3   OH224019   2.791   0.072   0.409  0.1988 -0.1626 -0.1597
  795TIP3    H124020   2.773   0.157   0.449  2.1121  0.0906  0.2897
  795TIP3    H224021   2.803   0.092   0.316 -0.5761 -0.1535 -0.2637
  796TIP3   OH224022   4.984   5.651   1.152  0.5618 -0.3219  0.9364
  796TIP3    H124023   5.015   5.570   1.194 -1.3586 -1.2240  0.6834
  796TIP3    H224024   4.890   5.652   1.168  0.1188  0.5043 -1.3467
  797TIP3   OH224025   4.463   5.611   8.129 -0.0850 -0.8240 -0.3857
  797TIP3    H124026   4.504   5.607   8.043 -0.1504 -1.1868 -0.4047
  797TIP3    H224027   4.373   5.638   8.113  0.1218 -0.1145 -0.3537
  798TIP3   OH224028   3.593   6.521   1.068  0.1680  0.0879 -0.0362
  798TIP3    H124029   3.624   6.509   0.978 -1.0714  2.0015 -0.7754
  798TIP3    H224030   3.608   6.613   1.087  1.4687 -0.5055  2.2069
  799TIP3   OH224031   0.227   4.676   1.779  0.7280 -0.0407 -0.0397
  799TIP3    H124032   0.258   4.739   1.844  0.0227  1.1180 -0.8093
  799TIP3    H224033   0.133   4.669   1.795  0.6063  0.0010 -0.7364
  800TIP3   OH224034   5.880   3.643   8.348  0.3000  0.6769 -0.3338
  800TIP3    H124035   5.907   3.732   8.370 -0.7844  1.6050 -2.5172
  800TIP3    H224036   5.813   3.653   8.281  0.9389 -1.8235 -1.4770
  801TIP3   OH224037   0.029   5.449   1.337  0.0783  0.0568 -0.1386
  801TIP3    H124038   0.040   5.424   1.429 -1.5568 -0.6634 -0.1108
  801TIP3    H224039   0.071   5.378   1.289 -0.6050 -0.4596  0.0233
  802TIP3   OH224040   4.016   0.117   1.397  0.1222  0.7729 -0.0203
  802TIP3    H124041   4.016   0.128   1.492  1.4537 -1.4683  0.3278
  802TIP3    H224042   4.106   0.138   1.370 -0.1577  1.0863 -0.7443
  803TIP3   OH224043   5.088   2.454   2.427 -0.0811 -0.2378 -0.0568
  803TIP3    H124044   5.158   2.455   2.361 -2.3636 -2.2363 -2.7540
  803TIP3    H224045   5.026   2.521   2.398 -0.3219  0.0281  1.0538
  804TIP3   OH224046   0.662   4.400   1.720 -0.3667  0.0103 -0.6078
  804TIP3    H124047   0.608   4.479   1.723 -0.1546  0.1455  1.8683
  804TIP3    H224048   0.603   4.330   1.746  0.6723  0.2764  2.9422
  805TIP3   OH224049   1.736   1.163   0.354  0.1519  0.2642 -0.3921
  805TIP3    H124050   1.734   1.166   0.258  0.8269 -0.2577 -0.4339
  805TIP3    H224051   1.677   1.091   0.377 -0.1792  0.5307 -0.4023
  806TIP3   OH224052   1.499   0.956   1.460 -0.2831 -0.0403  0.1693
  806TIP3    H124053   1.563   1.006   1.511 -1.0391  0.5422  0.5609
  806TIP3    H224054   1.552   0.892   1.412  0.4377 -0.8199  1.8942
  807TIP3   OH224055   0.869   2.572   0.729  0.3578  0.2050  0.0523
  807TIP3    H124056   0.938   2.551   0.792 -0.2178 -1.1225  0.2625
  807TIP3    H224057   0.788   2.546   0.773 -0.0059 -1.4568 -1.4827
  808TIP3   OH224058   0.111   1.137   1.726  0.0726  0.0206 -0.3734
  808TIP3    H124059   0.125   1.081   1.802  1.8456  3.5847  2.2540
  808TIP3    H224060   0.171   1.102   1.660  0.3689 -1.7339  0.7382
  809TIP3   OH224061   3.308   5.227   0.019 -0.3381  0.1662 -0.1446
  809TIP3    H124062   3.385   5.170   0.018 -2.4824 -3.0116  0.7146
  809TIP3    H224063   3.344   5.315   0.032  3.2205 -0.8683 -1.5576
  810TIP3   OH224064   3.533   5.828   1.800 -0.2021  0.0252 -0.0655
  810TIP3    H124065   3.492   5.840   1.886 -0.0982  0.4801 -0.0809
  810TIP3    H224066   3.489   5.751   1.764 -0.0389 -0.3474  0.5163
  811TIP3   OH224067   5.666   3.427   2.274  0.2332 -0.3678  0.2800
  811TIP3    H124068   5.707   3.344   2.298 -0.2786 -0.9324 -0.7461
  811TIP3    H224069   5.658   3.475   2.356  3.3941 -0.0109  0.5147
  812TIP3   OH224070   1.625   2.016   0.565 -0.4390  0.1571  0.3474
  812TIP3    H124071   1.530   2.023   0.551 -0.5466 -0.1425  0.8636
  812TIP3    H224072   1.664   2.065   0.493 -0.9999  0.8051  0.4727
  813TIP3   OH224073   5.285   0.961   0.838  0.0727  0.5568 -0.0789
  813TIP3    H124074   5.257   1.008   0.760  0.0105 -0.6616 -0.8169
  813TIP3    H224075   5.379   0.981   0.845  1.1473 -2.4593 -2.8935
  814TIP3   OH224076   4.735   4.609   2.774 -0.6218  0.0959  0.1511
  814TIP3    H124077   4.655   4.625   2.824  0.0517  0.7728  1.0406
  814TIP3    H224078   4.798   4.578   2.839 -0.3887 -1.2234 -0.6813
  815TIP3   OH224079   2.858   2.634   0.582 -0.5212  0.6882 -0.2561
  815TIP3    H124080   2.819   2.601   0.502  0.4063 -2.0310  0.3168
  815TIP3    H224081   2.953   2.626   0.568 -0.3368  0.6389  0.9309
  816TIP3   OH224082   2.292   0.491   8.308 -0.3600 -0.6177 -0.5343
  816TIP3    H124083   2.227   0.558   8.288 -1.0372 -0.9783  0.4023
  816TIP3    H224084   2.241   0.415   8.335  0.3863 -1.5863 -1.7531
  817TIP3   OH224085   2.225   1.392   1.201 -0.6417  0.0928 -0.1413
  817TIP3    H124086   2.274   1.358   1.126 -0.0438 -1.8304  1.0508
  817TIP3    H224087   2.138   1.411   1.166  0.3657  1.8553 -1.9005
  818TIP3   OH224088   2.831   0.184   6.411 -0.4561 -0.0440  0.1198
  818TIP3    H124089   2.922   0.196   6.383 -0.7242 -0.0264 -0.7992
  818TIP3    H224090   2.816   0.251   6.477  0.2577 -0.1719  0.4161
  819TIP3   OH224091   4.785   3.999   6.297 -0.1672  0.5702 -0.4370
  819TIP3    H124092   4.874   4.005   6.264  0.2671 -1.8398  0.1049
  819TIP3    H224093   4.782   4.062   6.370  1.2107  0.4056 -0.2146
  820TIP3   OH224094   2.475   4.729   0.556  0.4192  0.2064 -0.1863
  820TIP3    H124095   2.432   4.778   0.486  0.5585  0.3425 -0.1786
  820TIP3    H224096   2.479   4.639   0.524 -0.1023  0.1436 -0.0755
  821TIP3   OH224097   5.620   0.206   7.686  0.0624  0.3506 -0.5508
  821TIP3    H124098   5.542   0.204   7.741 -0.2181 -0.4830 -0.9738
  821TIP3    H224099   5.591   0.249   7.606  0.1569  0.4405 -0.5373
  822TIP3   OH224100   4.272   3.517   6.633 -0.1106 -0.8986 -0.4912
  822TIP3    H124101   4.184   3.515   6.595 -0.7474 -0.2327  0.9072
  822TIP3    H224102   4.301   3.607   6.621  0.6543 -1.2442 -1.4670
  823TIP3   OH224103   0.224   4.950   7.693 -0.4041 -0.2315 -0.0193
  823TIP3    H124104   0.277   4.872   7.677 -0.9075 -0.5386 -0.2364
  823TIP3    H224105   0.183   4.969   7.608  0.7126  1.0423 -0.3022
  824TIP3   OH224106   3.894   0.526   1.029 -0.4486  0.2920  0.0212
  824TIP3    H124107   3.815   0.531   0.974  0.1422  0.1438 -0.8547
  824TIP3    H224108   3.967   0.539   0.968  0.1961  0.7718  0.8771
  825TIP3   OH224109   3.893   4.433   2.181 -0.6897 -0.2531  0.4946
  825TIP3    H124110   3.951   4.418   2.106 -0.2114 -0.4250  0.8890
  825TIP3    H224111   3.813   4.385   2.160 -2.4502  3.3040 -2.0255
  826TIP3   OH224112   1.319   4.313   2.191 -0.2307  0.8593  0.0471
  826TIP3    H124113   1.258   4.271   2.252 -0.2479 -0.1883 -0.6548
  826TIP3    H224114   1.405   4.283   2.221 -0.2757 -0.1594 -0.7758
  827TIP3   OH224115   1.808   5.377   7.327 -0.7136  0.9256 -0.2941
  827TIP3    H124116   1.792   5.292   7.286 -1.4925  1.4862 -1.2003
  827TIP3    H224117   1.877   5.360   7.390  0.9919  0.1229 -2.2426
  828TIP3   OH224118   1.082   3.942   6.686  0.0965  0.0462  0.9524
  828TIP3    H124119   1.041   4.000   6.622 -0.9738 -1.3955  0.2647
  828TIP3    H224120   1.175   3.942   6.663  0.1739  1.7188  1.1853
  829TIP3   OH224121   2.948   0.225   1.338 -0.0493 -0.2344 -0.1935
  829TIP3    H124122   2.955   0.158   1.405 -0.8431 -1.2772 -1.1095
  829TIP3    H224123   3.028   0.217   1.286  0.7846  0.8821  0.8553
  830TIP3   OH224124   5.248   6.416   8.558  0.1544 -0.0873  0.3094
  830TIP3    H124125   5.173   6.417   8.617 -0.3048 -0.0179 -0.2665
  830TIP3    H224126   5.313   6.361   8.602 -0.1515  0.0301  0.9074
  831TIP3   OH224127   4.715   2.951   7.771  0.2087 -0.2486  0.3912
  831TIP3    H124128   4.705   2.930   7.678 -0.6347  0.1958  0.3647
  831TIP3    H224129   4.804   2.924   7.793  0.3193 -0.6182 -0.4756
  832TIP3   OH224130   0.433   6.248   0.109  0.8264 -0.0283 -0.2815
  832TIP3    H124131   0.448   6.154   0.116  1.6815  0.0814 -0.6093
  832TIP3    H224132   0.361   6.257   0.046 -1.3765 -0.6011  1.9833
  833TIP3   OH224133   4.077   2.535   1.091 -0.1104 -0.0214 -0.2813
  833TIP3    H124134   4.171   2.521   1.082 -0.0007  0.4080  0.2039
  833TIP3    H224135   4.067   2.579   1.175 -0.7763 -0.3771 -0.1667
  834TIP3   OH224136   3.994   1.858   8.335  0.0837  0.6491  0.0968
  834TIP3    H124137   4.053   1.924   8.372  0.8535 -0.4903  0.9563
  834TIP3    H224138   4.037   1.829   8.255  1.7755 -1.5656  1.6747
  835TIP3   OH224139   3.230   3.448   0.244 -0.3704  0.2353  0.5804
  835TIP3    H124140   3.198   3.516   0.304 -0.7169  1.7848 -1.2788
  835TIP3    H224141   3.152   3.396   0.224 -0.6379  0.8090  0.1065
  836TIP3   OH224142   1.032   1.170   7.814 -0.2269  0.2583  0.1094
  836TIP3    H124143   0.996   1.164   7.726 -0.7856  0.0335  0.3515
  836TIP3    H224144   0.955   1.169   7.872  0.1335  0.3957  0.5987
  837TIP3   OH224145   4.853   2.625   7.889  0.0761 -0.3741 -0.2957
  837TIP3    H124146   4.762   2.599   7.904  0.1460 -1.1044 -1.0358
  837TIP3    H224147   4.887   2.559   7.828  1.7146 -1.3407  1.5290
  838TIP3   OH224148   6.405   4.646   1.629  0.2181 -0.0933 -1.0390
  838TIP3    H124149   6.403   4.564   1.580 -0.0950 -0.0990 -1.0163
  838TIP3    H224150   6.488   4.686   1.605  0.8762 -0.9189 -0.2250
  839TIP3   OH224151   3.601   6.575   8.568 -0.1721 -0.7646 -0.3082
  839TIP3    H124152   3.510   6.548   8.572  0.3376 -2.5632 -0.2501
  839TIP3    H224153   3.597   6.669   8.552 -2.0231 -0.8890 -0.7767
  840TIP3   OH224154   6.041   2.761   2.166 -0.0536 -0.3627 -0.0974
  840TIP3    H124155   5.973   2.701   2.133 -2.3883  1.6788  0.6586
  840TIP3    H224156   5.995   2.845   2.177  2.0119  0.5400  2.7945
  841TIP3   OH224157   4.143   6.609   0.848 -0.0509 -0.0069  0.6336
  841TIP3    H124158   4.173   6.700   0.848  0.6769 -0.0340 -3.8394
  841TIP3    H224159   4.204   6.563   0.905  0.7230  1.9581  1.4861
  842TIP3   OH224160   3.636   1.028   0.498 -0.2030  0.3824  0.0275
  842TIP3    H124161   3.570   0.975   0.543 -0.9096  2.3129  1.3960
  842TIP3    H224162   3.706   1.039   0.563  1.1526 -0.9511 -1.1314
  843TIP3   OH224163   5.523   0.054   0.663 -0.9416  0.0523  0.5578
  843TIP3    H124164   5.449   0.012   0.705  0.0254 -0.4741  1.8050
  843TIP3    H224165   5.550  -0.006   0.594 -0.8346 -0.4136  1.0023
  844TIP3   OH224166   0.949   5.763   0.257  0.9459 -0.2931  0.6271
  844TIP3    H124167   1.035   5.793   0.286  0.6600  0.3497  0.8205
  844TIP3    H224168   0.886   5.815   0.308  0.4429 -0.6550  0.3866
  845TIP3   OH224169   5.821   3.127   7.115 -0.7212  0.3193 -0.1395
  845TIP3    H124170   5.842   3.220   7.120  3.5326 -0.4876  0.0065
  845TIP3    H224171   5.808   3.110   7.022  0.4113  0.7246 -0.3769
  846TIP3   OH224172   5.261   4.449   8.235 -0.2667 -0.1675  0.2513
  846TIP3    H124173   5.347   4.413   8.214 -0.6513 -0.0209 -1.7446
  846TIP3    H224174   5.200   4.379   8.214 -0.7761  0.4738 -0.4644
  847TIP3   OH224175   1.811   1.901   7.305 -0.3215  0.1287 -0.5161
  847TIP3    H124176   1.845   1.988   7.325 -0.4040 -0.2926  1.6655
  847TIP3    H224177   1.745   1.916   7.237 -0.1317  1.7171 -0.3825
  848TIP3   OH224178   0.429   3.099   2.274  0.0016 -0.4119 -0.0128
  848TIP3    H124179   0.490   3.034   2.309 -1.2066 -0.3321  2.4987
  848TIP3    H224180   0.361   3.048   2.230 -0.2905 -0.8103  0.8731
  849TIP3   OH224181   5.027   0.828   6.506 -0.0448  0.3161 -0.3134
  849TIP3    H124182   5.110   0.854   6.545  1.1013 -0.6437 -2.0130
  849TIP3    H224183   4.998   0.754   6.560 -0.4802  1.4326  1.0529
  850TIP3   OH224184   5.401   4.725   7.386  0.0042  0.2668 -0.2897
  850TIP3    H124185   5.339   4.685   7.447 -0.9610  1.0310 -0.7461
  850TIP3    H224186   5.347   4.779   7.328  1.0959  0.9654 -0.6952
  851TIP3   OH224187   5.278   3.168   7.782 -0.2731  0.1652 -0.2803
  851TIP3    H124188   5.200   3.149   7.834  0.5009 -0.3939  0.7022
  851TIP3    H224189   5.318   3.082   7.767  0.5699  0.5240 -0.1132
  852TIP3   OH224190   4.497   4.621   0.670 -0.6561  0.3193 -0.1035
  852TIP3    H124191   4.481   4.561   0.597  0.8717 -1.5141  0.9700
  852TIP3    H224192   4.450   4.581   0.744  1.0963 -0.0733  0.8333
  853TIP3   OH224193   4.735   5.879   2.682 -0.3098 -0.1573 -0.3177
  853TIP3    H124194   4.649   5.914   2.659 -0.0406  0.0990 -0.9811
  853TIP3    H224195   4.753   5.813   2.615  0.3602  0.3833 -0.6960
  854TIP3   OH224196   1.477   5.129   2.281 -0.1791 -0.5316 -0.4815
  854TIP3    H124197   1.387   5.116   2.310  0.0751 -0.2218  0.5141
  854TIP3    H224198   1.512   5.040   2.271 -0.3860 -0.6539 -0.1458
  855TIP3   OH224199   0.268   4.606   1.497 -0.3767  0.1906 -0.1330
  855TIP3    H124200   0.312   4.525   1.473 -0.4148  0.4616 -1.1480
  855TIP3    H224201   0.211   4.581   1.570  0.6120 -0.3941  0.4629
  856TIP3   OH224202   4.186   1.793   1.887 -0.2001  0.4130 -0.1828
  856TIP3    H124203   4.145   1.838   1.961 -0.9533 -1.3141  0.5107
  856TIP3    H224204   4.113   1.752   1.840  0.4930 -0.6128 -0.4060
  857TIP3   OH224205   2.606   6.664   1.423  0.0880  0.3326  0.0959
  857TIP3    H124206   2.533   6.639   1.480  0.2154  0.2044  0.2038
  857TIP3    H224207   2.684   6.652   1.477  0.1633  0.8216  0.1001
  858TIP3   OH224208   3.016   2.521   7.646 -0.5869  0.5340  0.6374
  858TIP3    H124209   3.108   2.495   7.653 -0.2215  1.9879  2.0817
  858TIP3    H224210   2.983   2.472   7.571  0.9246 -1.2489  1.0403
  859TIP3   OH224211   4.882   0.944   1.190  0.2607  0.2599 -0.1748
  859TIP3    H124212   4.865   0.956   1.097  2.5796 -1.7142 -0.9737
  859TIP3    H224213   4.834   0.865   1.213 -0.0726  0.5804  0.2459
  860TIP3   OH224214   3.797   2.018   0.540 -0.6469  0.2304  1.0968
  860TIP3    H124215   3.802   1.946   0.604  1.8418 -0.9295 -0.2910
  860TIP3    H224216   3.802   2.098   0.593  0.3262 -0.6852  2.4397
  861TIP3   OH224217   0.754   5.605   0.525 -0.2453  0.3186 -0.0613
  861TIP3    H124218   0.843   5.572   0.523 -0.0730  0.8166 -0.8564
  861TIP3    H224219   0.723   5.585   0.614  0.4950 -0.2574  0.0716
  862TIP3   OH224220   6.652   2.024   8.229 -1.0413 -0.1233 -0.2922
  862TIP3    H124221   6.735   2.073   8.233 -1.2497  0.2613 -0.6995
  862TIP3    H224222   6.600   2.061   8.300 -0.5969 -0.8733  0.4484
  863TIP3   OH224223   3.629   5.395   1.417  0.3006  0.4460 -0.1413
  863TIP3    H124224   3.653   5.303   1.406 -0.0662 -0.1349  3.1335
  863TIP3    H224225   3.698   5.432   1.472 -1.4340  1.0997  1.7259
  864TIP3   OH224226   3.766   4.255   1.299 -0.0666  0.4025  0.2612
  864TIP3    H124227   3.705   4.302   1.241 -0.0904 -0.1941 -0.2136
  864TIP3    H224228   3.801   4.184   1.244  0.9759  0.6676  0.5574
  865TIP3   OH224229   5.383   3.507   2.545 -0.0611  0.5534 -0.0071
  865TIP3    H124230   5.347   3.430   2.501  0.5376  0.2565  0.0216
  865TIP3    H224231   5.307   3.566   2.556 -0.1692  0.7738 -1.6915
  866TIP3   OH224232   4.423   5.390   6.894 -0.0811 -0.3227  0.4866
  866TIP3    H124233   4.447   5.464   6.951  1.0625  0.7725 -1.3232
  866TIP3    H224234   4.506   5.360   6.858 -0.8371 -0.2197 -1.4678
  867TIP3   OH224235   3.989   4.745   1.390  0.5852 -0.1960 -0.0201
  867TIP3    H124236   3.926   4.730   1.460  0.1308 -0.7504 -0.5359
  867TIP3    H224237   3.994   4.662   1.344  0.7519  0.2045 -0.7481
  868TIP3   OH224238   6.907   0.735   0.830  0.0548 -0.4486  0.0448
  868TIP3    H124239   6.827   0.736   0.778 -0.7707 -1.5242  1.2416
  868TIP3    H224240   6.920   0.825   0.858 -0.0450 -0.0430 -1.1431
  869TIP3   OH224241   6.328   5.449   1.201 -0.4712 -0.0975  0.0436
  869TIP3    H124242   6.247   5.455   1.251 -1.8747  1.0175 -2.2327
  869TIP3    H224243   6.359   5.360   1.217 -0.8831  0.1402  2.7008
  870TIP3   OH224244   6.156   2.868   8.457 -0.3129 -0.0756 -0.0521
  870TIP3    H124245   6.212   2.792   8.472  1.4618  0.8945 -1.4351
  870TIP3    H224246   6.117   2.853   8.371 -1.3291 -0.1837  0.4022
  871TIP3   OH224247   1.566   3.546   1.822 -0.3149  0.0604 -0.4159
  871TIP3    H124248   1.602   3.476   1.876  2.7775  1.0500 -1.0227
  871TIP3    H224249   1.534   3.502   1.744 -2.1744 -1.0469  0.8882
  872TIP3   OH224250   6.190   1.208   7.422  0.1563  0.0844  0.4155
  872TIP3    H124251   6.259   1.170   7.368  0.5194  0.1561  0.8259
  872TIP3    H224252   6.236   1.267   7.481 -0.2331 -0.0468  0.8530
  873TIP3   OH224253   3.896   5.115   8.478  0.0747 -0.3423  0.7551
  873TIP3    H124254   3.919   5.024   8.462 -0.1596 -0.4079  0.7839
  873TIP3    H224255   3.858   5.144   8.395 -0.0797 -0.3445  0.8244
  874TIP3   OH224256   2.551   5.534   1.761 -0.1206 -0.2435 -0.1129
  874TIP3    H124257   2.625   5.563   1.813 -0.9048  0.3226  0.7102
  874TIP3    H224258   2.518   5.457   1.808 -0.4073 -0.1496 -0.1619
  875TIP3   OH224259   0.309   2.154   5.913 -0.1971 -0.1349 -0.2263
  875TIP3    H124260   0.230   2.121   5.955 -1.4643  2.5698 -0.2277
  875TIP3    H224261   0.375   2.151   5.983 -1.0254 -0.0643  0.5917
  876TIP3   OH224262   5.325   4.729   2.773  0.1426 -0.0326  0.3596
  876TIP3    H124263   5.412   4.757   2.746 -0.4358  1.6412  0.0927
  876TIP3    H224264   5.279   4.811   2.792 -1.1839 -0.9133  1.0781
  877TIP3   OH224265   1.630   0.736   7.598  0.2177 -0.0032  1.2185
  877TIP3    H124266   1.643   0.791   7.521 -0.9376  1.5147  2.0385
  877TIP3    H224267   1.684   0.778   7.666  0.9477 -1.1167  1.3465
  878TIP3   OH224268   4.261   1.144   8.225 -0.1217 -0.2794  0.2449
  878TIP3    H124269   4.335   1.096   8.261 -0.2873  0.5795  1.8264
  878TIP3    H224270   4.257   1.225   8.276  0.1088  1.4275 -2.2699
  879TIP3   OH224271   5.777   0.017   0.260  0.1524  0.3271  0.1421
  879TIP3    H124272   5.720   0.048   0.189  1.4585  1.9312 -0.2835
  879TIP3    H224273   5.864   0.051   0.237  0.6454  0.7701  2.4398
  880TIP3   OH224274   0.841   5.752   2.197  0.7943 -0.8253 -0.0605
  880TIP3    H124275   0.903   5.789   2.259 -1.2834  0.9565  1.1157
  880TIP3    H224276   0.807   5.673   2.240 -1.2137  0.8217  1.5763
  881TIP3   OH224277   2.232   3.368   0.241 -0.2855 -0.1239 -0.5192
  881TIP3    H124278   2.247   3.309   0.168  1.6212 -1.3928  0.7793
  881TIP3    H224279   2.226   3.310   0.317  0.9259  1.2648  0.7098
  882TIP3   OH224280   0.383   4.796   0.572  0.4665 -0.4388 -0.4304
  882TIP3    H124281   0.322   4.733   0.533  1.2998 -0.6037 -1.5071
  882TIP3    H224282   0.340   4.823   0.653 -0.3608 -1.6479 -0.4367
  883TIP3   OH224283   0.640   3.785   1.946 -0.1814  0.4856 -0.6092
  883TIP3    H124284   0.669   3.808   2.034  0.3498 -1.3787 -0.2652
  883TIP3    H224285   0.547   3.765   1.955  0.1300 -0.8622 -0.2085
  884TIP3   OH224286   0.058   0.444   8.128 -0.2051 -0.2047 -0.0770
  884TIP3    H124287   0.129   0.379   8.127  0.1964  0.2348 -1.2370
  884TIP3    H224288   0.027   0.443   8.219  0.4675 -1.2827  0.1682
  885TIP3   OH224289   5.137   4.334   7.291 -0.1585 -0.0864  0.2036
  885TIP3    H124290   5.100   4.378   7.367 -0.8721 -0.0446 -0.1598
  885TIP3    H224291   5.064   4.284   7.253 -0.6611  2.1620 -2.1198
  886TIP3   OH224292   5.823   4.492   8.248 -0.3083 -0.3269  0.2559
  886TIP3    H124293   5.901   4.436   8.254 -0.0213  0.2367  3.6384
  886TIP3    H224294   5.758   4.438   8.204  1.4661 -1.4244 -1.1594
  887TIP3   OH224295   2.186   1.009   8.092  0.0425  0.2754 -0.0818
  887TIP3    H124296   2.108   1.030   8.143  0.0628  1.0568 -0.3639
  887TIP3    H224297   2.255   0.996   8.158  0.1487  1.6207  0.0836
  888TIP3   OH224298   0.867   5.324   7.728  0.5195  0.3820  0.3334
  888TIP3    H124299   0.811   5.295   7.800  2.1625 -0.1066  1.4692
  888TIP3    H224300   0.881   5.417   7.744  2.2767 -0.0645  1.7014
  889TIP3   OH224301   5.516   1.886   6.717 -0.2873 -0.3812  0.1364
  889TIP3    H124302   5.463   1.947   6.768  0.9713 -1.5551  3.0545
  889TIP3    H224303   5.606   1.911   6.735  0.2190 -1.2723 -0.9959
  890TIP3   OH224304   0.507   5.145   0.600  0.1110 -0.4047  0.0428
  890TIP3    H124305   0.415   5.147   0.628  0.0430  1.0819 -0.2392
  890TIP3    H224306   0.549   5.213   0.653  1.1634 -1.3669  0.4841
  891TIP3   OH224307   0.114   2.889   0.318 -0.5338  0.3410 -0.1149
  891TIP3    H124308   0.064   2.851   0.246 -0.4972  0.2396 -0.0866
  891TIP3    H224309   0.205   2.881   0.290 -0.5148  0.2255 -0.0206
  892TIP3   OH224310   2.803   0.151   2.090 -0.5179  0.0469  0.3900
  892TIP3    H124311   2.874   0.208   2.061 -0.5478  0.9423  1.9384
  892TIP3    H224312   2.728   0.177   2.037 -0.0756  0.1466 -0.2052
  893TIP3   OH224313   5.846   4.017   0.462 -0.3631 -0.1014 -0.0420
  893TIP3    H124314   5.916   3.993   0.524  1.2014  3.8020 -0.0368
  893TIP3    H224315   5.767   4.023   0.517  0.3174  0.1776  0.9314
  894TIP3   OH224316   4.073   2.767   6.805 -0.6679  0.1357 -0.9987
  894TIP3    H124317   4.097   2.800   6.718  0.3445  0.4263 -0.6164
  894TIP3    H224318   3.979   2.782   6.811 -0.5521  1.1880 -1.5923
  895TIP3   OH224319   3.830   5.069   7.857 -0.5117 -0.1260  0.3189
  895TIP3    H124320   3.861   5.068   7.947  0.7605 -1.7113 -0.0999
  895TIP3    H224321   3.909   5.059   7.804 -1.3290 -0.1655 -0.9420
  896TIP3   OH224322   4.733   3.666   2.077 -0.4581  0.9566  0.0421
  896TIP3    H124323   4.723   3.731   2.146  1.6596  0.0001  1.3639
  896TIP3    H224324   4.824   3.637   2.084 -0.4442  0.0661 -2.5087
  897TIP3   OH224325   6.860   6.280   8.037  0.0464 -0.0506 -0.0534
  897TIP3    H124326   6.890   6.323   8.117 -2.2646  0.4841  0.6025
  897TIP3    H224327   6.880   6.187   8.050  1.0643  0.2296  0.4620
  898TIP3   OH224328   1.293   3.976   2.276 -0.0981  0.1066  0.4103
  898TIP3    H124329   1.249   4.049   2.319 -0.0415  0.1740  0.3527
  898TIP3    H224330   1.243   3.899   2.304  0.4026  0.0655  1.2126
  899TIP3   OH224331   0.966   4.074   8.358  0.2678  0.2079 -0.3796
  899TIP3    H124332   0.902   4.132   8.316 -0.2817 -0.5929 -0.6612
  899TIP3    H224333   0.984   4.007   8.293 -1.2329 -1.5482  0.9206
  900TIP3   OH224334   0.093   1.581   0.525  0.2165 -0.5001 -0.0303
  900TIP3    H124335   0.035   1.507   0.508  1.5218 -1.5363 -0.1351
  900TIP3    H224336   0.144   1.554   0.602 -0.7521  1.1962  1.2724
  901TIP3   OH224337   3.663   1.362   7.847 -0.0851  0.3074 -0.6584
  901TIP3    H124338   3.703   1.275   7.846 -1.1484 -0.1935 -1.5548
  901TIP3    H224339   3.732   1.419   7.881  0.6348 -0.8747 -0.0509
  902TIP3   OH224340   6.260   3.446   2.039  0.6110  0.0925 -0.1926
  902TIP3    H124341   6.229   3.535   2.022  2.3156  0.8149  0.2871
  902TIP3    H224342   6.323   3.428   1.970  1.0383 -0.3472  0.2987
  903TIP3   OH224343   1.432   6.895   8.068 -0.0622  0.0008 -0.3854
  903TIP3    H124344   1.430   6.828   8.136  0.7439 -0.5841 -0.9078
  903TIP3    H224345   1.520   6.932   8.073 -0.2839  0.5616 -0.5389
  904TIP3   OH224346   3.336   2.970   7.180  0.2848 -0.1175  0.3875
  904TIP3    H124347   3.414   2.995   7.229  0.2811 -1.8916  1.3547
  904TIP3    H224348   3.300   2.895   7.227 -0.6248 -0.8820 -1.4303
  905TIP3   OH224349   5.503   1.334   8.372  0.3220  0.5014  0.2434
  905TIP3    H124350   5.565   1.389   8.324 -0.4978  1.9817  0.8039
  905TIP3    H224351   5.558   1.275   8.424  1.2454  1.2271  0.1162
  906TIP3   OH224352   4.580   2.946   0.497  0.3583  1.2130  0.1895
  906TIP3    H124353   4.595   2.940   0.403 -0.8028 -0.7867  0.0921
  906TIP3    H224354   4.491   2.979   0.506 -0.5399 -1.1696  0.5046
  907TIP3   OH224355   3.456   3.021   7.836 -0.0392  0.0516  0.0257
  907TIP3    H124356   3.499   3.096   7.878 -0.6628 -0.2759  1.3096
  907TIP3    H224357   3.504   2.945   7.869 -0.7073 -0.2285  0.3675
  908TIP3   OH224358   3.944   6.882   0.342 -0.5656 -0.2844 -0.0570
  908TIP3    H124359   3.871   6.820   0.345 -0.9784  0.2348  0.9208
  908TIP3    H224360   3.941   6.918   0.253 -0.6506 -1.2589 -0.4618
  909TIP3   OH224361   2.590   3.042   7.339  0.1202 -0.3494  0.3991
  909TIP3    H124362   2.510   3.092   7.357  1.8175  1.7093  3.1618
  909TIP3    H224363   2.597   2.982   7.414  1.8849  0.6242  1.0647
  910TIP3   OH224364   6.002   1.509   7.397 -0.2185  0.4782 -0.0995
  910TIP3    H124365   5.931   1.446   7.410 -1.7115  1.9788 -0.7278
  910TIP3    H224366   5.960   1.594   7.403  1.7101  1.4374  0.4257
  911TIP3   OH224367   1.902   0.157   7.555 -0.2404  0.2467 -0.5511
  911TIP3    H124368   1.946   0.207   7.623  1.4732  0.5063 -1.7754
  911TIP3    H224369   1.863   0.083   7.601  1.2377  0.1771  0.6791
  912TIP3   OH224370   5.789   2.560   8.432 -0.0508 -0.0574 -0.5935
  912TIP3    H124371   5.737   2.544   8.511  0.6349 -0.4154 -0.2074
  912TIP3    H224372   5.760   2.645   8.401 -1.0297 -0.3502 -0.5155
  913TIP3   OH224373   5.654   2.098   0.057 -0.1255 -0.2042 -0.4515
  913TIP3    H124374   5.613   2.045   0.126  0.7576  1.3429  1.3555
  913TIP3    H224375   5.615   2.185   0.068  0.9387  0.3663 -1.0944
  914TIP3   OH224376   2.943   4.045   7.007 -0.1334  0.1558 -0.3984
  914TIP3    H124377   2.972   4.061   7.097  0.0287 -0.2424 -0.3789
  914TIP3    H224378   3.010   3.989   6.969 -0.5460 -0.2369 -0.5565
  915TIP3   OH224379   2.973   2.806   1.712  0.4375  0.3116 -0.3944
  915TIP3    H124380   3.017   2.781   1.631 -0.3646 -0.1970 -0.6895
  915TIP3    H224381   2.885   2.831   1.685 -0.2424 -1.0387  0.4336
  916TIP3   OH224382   3.058   5.025   0.619 -0.6189  0.8888  0.6361
  916TIP3    H124383   3.121   5.094   0.640  1.4818 -0.5428 -0.5764
  916TIP3    H224384   3.028   5.046   0.531 -1.4701  1.2546  0.9967
  917TIP3   OH224385   0.338   2.717   7.107 -0.0284  0.1483  0.8169
  917TIP3    H124386   0.345   2.713   7.202 -2.2317  1.0904  1.0711
  917TIP3    H224387   0.398   2.649   7.076  1.6381  0.6206  2.7983
  918TIP3   OH224388   0.337   6.715   8.206  0.5250 -0.3095 -0.0625
  918TIP3    H124389   0.324   6.756   8.291  1.3144  1.1504 -0.6313
  918TIP3    H224390   0.250   6.719   8.165  0.6165  0.8959 -0.1572
  919TIP3   OH224391   6.522   2.187   8.397  0.3534  0.4705 -0.6184
  919TIP3    H124392   6.479   2.273   8.401  1.0284  0.7685  1.0991
  919TIP3    H224393   6.595   2.194   8.458 -1.5098 -2.3672  2.2684
  920TIP3   OH224394   4.258   1.338   7.316 -0.4779  0.5467 -0.0455
  920TIP3    H124395   4.350   1.356   7.295  0.6249 -2.1397  1.9075
  920TIP3    H224396   4.218   1.318   7.232  1.0407  0.5598 -0.8098
  921TIP3   OH224397   5.300   6.161   7.587  0.0006 -0.5162 -0.3973
  921TIP3    H124398   5.363   6.216   7.632 -0.9483 -0.5055  0.9960
  921TIP3    H224399   5.349   6.082   7.563  0.6996 -0.2224  0.0484
  922TIP3   OH224400   6.819   3.574   8.541 -0.1419 -0.1732  0.0810
  922TIP3    H124401   6.777   3.645   8.492 -1.4690  0.7038  2.3290
  922TIP3    H224402   6.898   3.612   8.578 -0.6944  0.0770  1.0360
  923TIP3   OH224403   1.733   1.877   1.892  0.0184 -0.4766 -0.3471
  923TIP3    H124404   1.826   1.871   1.871  0.2596  1.4949 -0.0437
  923TIP3    H224405   1.730   1.871   1.988 -0.3186 -1.8083 -0.4231
  924TIP3   OH224406   2.978   1.752   7.634 -0.2468 -0.0026 -0.0753
  924TIP3    H124407   2.914   1.823   7.629  0.6790  0.8732  0.0570
  924TIP3    H224408   2.934   1.683   7.682 -1.7885 -0.2217 -1.7056
  925TIP3   OH224409   0.536   5.640   6.545 -0.4943 -0.2382 -0.0966
  925TIP3    H124410   0.454   5.688   6.535 -0.4379 -0.3954 -1.3746
  925TIP3    H224411   0.598   5.687   6.490 -0.0533 -0.8878 -0.1598
  926TIP3   OH224412   5.026   3.584   0.531 -0.5989  0.3813  0.3064
  926TIP3    H124413   5.007   3.580   0.624 -0.4254 -0.2346  0.3190
  926TIP3    H224414   5.110   3.540   0.521 -0.6140  0.4436 -0.1390
  927TIP3   OH224415   2.610   3.839   0.647  0.3465 -0.8740 -0.1119
  927TIP3    H124416   2.658   3.922   0.642 -0.0527 -0.5814  0.6433
  927TIP3    H224417   2.660   3.787   0.710  0.2608 -0.9641 -0.1186
  928TIP3   OH224418   2.112   6.923   8.159  0.1772 -0.5869  0.2652
  928TIP3    H124419   2.189   6.950   8.209  0.0741  0.3864 -0.0848
  928TIP3    H224420   2.050   6.891   8.225  0.8258 -1.2800  0.5557
  929TIP3   OH224421   3.497   3.201   1.371 -0.0620 -0.4941  0.0170
  929TIP3    H124422   3.515   3.145   1.295  1.7241 -1.4408  1.0868
  929TIP3    H224423   3.574   3.257   1.379 -0.7262  0.3747  0.4823
  930TIP3   OH224424   4.889   3.457   0.295 -0.1701 -0.1962 -0.4135
  930TIP3    H124425   4.856   3.372   0.325  0.5809 -0.5782 -0.6376
  930TIP3    H224426   4.897   3.509   0.374 -0.1647 -0.5100 -0.2051
  931TIP3   OH224427   4.365   3.687   0.877  0.0424 -0.2659  0.2084
  931TIP3    H124428   4.347   3.601   0.915 -1.0272  0.3297  1.1287
  931TIP3    H224429   4.303   3.746   0.921 -1.1441  0.5269 -2.3491
  932TIP3   OH224430   1.738   5.936   7.669 -0.0438  0.1202 -0.0878
  932TIP3    H124431   1.683   5.916   7.745 -0.1892  2.3478  0.4714
  932TIP3    H224432   1.676   5.962   7.601  0.1595 -0.5607 -0.5355
  933TIP3   OH224433   0.240   0.413   7.555 -0.4107  0.3542  0.0085
  933TIP3    H124434   0.224   0.319   7.551  0.1414  0.2248  0.6364
  933TIP3    H224435   0.274   0.427   7.643 -1.6600  1.3305  0.3669
  934TIP3   OH224436   6.026   6.595   0.009  0.7098  0.2989  0.3301
  934TIP3    H124437   5.969   6.670  -0.006 -0.8551 -0.2564  2.8477
  934TIP3    H224438   6.115   6.629  -0.001  0.0306  2.4001  0.9997
  935TIP3   OH224439   1.155   6.490   0.377 -0.4829 -0.4003 -0.6217
  935TIP3    H124440   1.160   6.585   0.391  1.1427 -0.5865  0.2569
  935TIP3    H224441   1.081   6.479   0.316 -1.2046  1.3435 -0.1279
  936TIP3   OH224442   6.878   3.061   2.477 -0.4856 -0.1857  0.3720
  936TIP3    H124443   6.851   2.971   2.495  0.4458 -0.1973  1.8648
  936TIP3    H224444   6.827   3.114   2.539 -1.5844  0.4234 -0.9986
  937TIP3   OH224445   5.063   0.197   7.382 -0.1726 -0.9840  0.1898
  937TIP3    H124446   5.131   0.262   7.363 -0.8889  0.1014  1.1749
  937TIP3    H224447   5.065   0.138   7.306  1.2432 -0.4666 -0.2199
  938TIP3   OH224448   5.010   6.841   7.284  0.8399 -0.4778 -0.3307
  938TIP3    H124449   5.056   6.881   7.210  2.1842  0.9788  1.2200
  938TIP3    H224450   4.917   6.859   7.266  1.2938  2.5005 -0.2939
  939TIP3   OH224451   1.512   5.177   0.488  0.0046 -0.1272  0.3009
  939TIP3    H124452   1.520   5.094   0.442  0.7853 -0.5154  1.1130
  939TIP3    H224453   1.518   5.244   0.419 -0.6457 -0.7362 -0.3537
  940TIP3   OH224454   1.851   0.139   8.278  0.3902  0.1470  0.1263
  940TIP3    H124455   1.865   0.048   8.305 -1.1705  0.2435  1.4067
  940TIP3    H224456   1.756   0.147   8.272  0.5554  1.1495 -2.0512
  941TIP3   OH224457   5.740   4.258   8.125 -0.6190 -0.4734  0.2825
  941TIP3    H124458   5.821   4.221   8.091 -0.2241  0.3864  0.2677
  941TIP3    H224459   5.690   4.283   8.048 -1.5574 -2.3131  0.2385
  942TIP3   OH224460   4.428   2.404   8.082 -0.8373 -0.4243  0.4425
  942TIP3    H124461   4.496   2.412   8.149 -2.2499  0.3527  1.8509
  942TIP3    H224462   4.435   2.485   8.032 -0.3409 -0.6152  0.2010
  943TIP3   OH224463   0.243   2.321   8.197  0.4198 -0.1647 -0.2522
  943TIP3    H124464   0.261   2.406   8.236  1.5074 -0.2927 -0.4571
  943TIP3    H224465   0.177   2.340   8.129 -1.1439  0.1237  1.2658
  944TIP3   OH224466   2.392   3.336   8.198 -0.0912 -0.2726  0.4318
  944TIP3    H124467   2.433   3.406   8.248  1.0608 -0.8018  0.2439
  944TIP3    H224468   2.421   3.350   8.108 -0.0459 -0.8488  0.3522
  945TIP3   OH224469   4.518   6.159   0.859 -0.4278  0.2073 -0.4359
  945TIP3    H124470   4.543   6.191   0.946 -1.5065  0.2359 -0.1118
  945TIP3    H224471   4.549   6.226   0.798 -1.9929  1.5612  0.1736
  946TIP3   OH224472   4.191   2.710   7.060  0.0877 -0.5485  0.3528
  946TIP3    H124473   4.139   2.709   6.979 -0.2810 -0.9667  0.5903
  946TIP3    H224474   4.275   2.748   7.034 -0.6311  0.9982  0.1418
  947TIP3   OH224475   6.618   1.109   7.730 -0.6062 -0.0782 -0.6038
  947TIP3    H124476   6.559   1.049   7.683 -0.1657 -0.2742 -0.9137
  947TIP3    H224477   6.562   1.151   7.796 -0.4851 -2.4506  1.1331
  948TIP3   OH224478   5.831   4.245   7.738 -0.5253  0.3131 -0.2605
  948TIP3    H124479   5.802   4.221   7.650  0.0019  1.2690 -0.7017
  948TIP3    H224480   5.750   4.266   7.784 -0.7986 -0.1144 -0.5303
  949TIP3   OH224481   2.367   0.876   1.753  0.4546  0.3802  0.0217
  949TIP3    H124482   2.385   0.963   1.790  0.2419  1.3906 -2.1181
  949TIP3    H224483   2.306   0.893   1.682  0.1346 -1.5958 -0.2188
  950TIP3   OH224484   5.531   4.290   6.936  0.0458  0.0447 -0.5215
  950TIP3    H124485   5.517   4.369   6.988  0.1563 -1.5754  2.2029
  950TIP3    H224486   5.449   4.242   6.942  0.7351 -1.1196 -0.0599
  951TIP3   OH224487   0.218   0.838   7.700  0.1638 -0.2878 -0.0625
  951TIP3    H124488   0.210   0.743   7.699  0.5467 -0.3350  1.0598
  951TIP3    H224489   0.309   0.855   7.721 -0.1403  0.3276  0.8195
  952TIP3   OH224490   6.719   4.713   8.543 -0.2620  0.4775  0.0288
  952TIP3    H124491   6.784   4.649   8.572  1.4301  1.7064 -0.8378
  952TIP3    H224492   6.643   4.661   8.518  0.4978 -1.0541  0.7616
  953TIP3   OH224493   4.944   5.337   8.040 -0.3385  0.2850 -0.7103
  953TIP3    H124494   4.955   5.245   8.016 -0.2448  0.4131 -1.1675
  953TIP3    H224495   5.001   5.385   7.979 -1.3840  0.7576 -1.3551
  954TIP3   OH224496   5.659   6.418   8.467 -0.0605 -0.0242 -0.2634
  954TIP3    H124497   5.621   6.506   8.476 -0.8942 -0.3619 -0.3536
  954TIP3    H224498   5.686   6.413   8.375 -0.8204 -0.1669 -0.4862
  955TIP3   OH224499   6.280   0.041   0.266  0.0560  0.3583 -0.4247
  955TIP3    H124500   6.370   0.015   0.249 -0.0440 -0.4142  0.1639
  955TIP3    H224501   6.251  -0.017   0.338  0.2020  2.8650  1.8046
  956TIP3   OH224502   4.150   2.208   1.742  0.2429  0.1189  0.2368
  956TIP3    H124503   4.226   2.170   1.785 -0.4547  0.1773  1.5727
  956TIP3    H224504   4.184   2.241   1.658  2.1669  1.9955  1.6182
  957TIP3   OH224505   4.408   3.577   0.462 -0.0315 -0.0095  0.0372
  957TIP3    H124506   4.470   3.648   0.447 -0.7106  1.1397  2.1829
  957TIP3    H224507   4.353   3.575   0.384  1.2435  0.4802 -0.8961
  958TIP3   OH224508   5.745   2.418   1.804  0.4452 -0.0278  0.0447
  958TIP3    H124509   5.763   2.344   1.862  1.3523 -0.2097 -0.4370
  958TIP3    H224510   5.673   2.465   1.846 -0.2139 -1.2297  0.3116
  959TIP3   OH224511   2.352   4.143   7.456  0.0840 -0.2484  0.3211
  959TIP3    H124512   2.344   4.049   7.439 -0.2992 -0.2014  0.2502
  959TIP3    H224513   2.280   4.183   7.407 -0.3029  0.0001  1.0931
  960TIP3   OH224514   6.743   0.947   7.938 -0.1138  0.4712  0.2548
  960TIP3    H124515   6.733   1.037   7.907  0.6170  0.4755  0.0122
  960TIP3    H224516   6.819   0.914   7.891  1.4184  0.6632  2.4254
  961TIP3   OH224517   0.630   4.635   6.910 -0.5207 -0.4565 -0.4084
  961TIP3    H124518   0.561   4.594   6.860 -0.2539 -4.6144  2.1549
  961TIP3    H224519   0.710   4.590   6.883  0.0755 -0.5842  1.4178
  962TIP3   OH224520   3.128   2.060   7.853 -0.0977  0.0826 -0.0893
  962TIP3    H124521   3.158   2.083   7.765 -0.9286  0.6675 -0.2194
  962TIP3    H224522   3.046   2.013   7.839  0.2314 -0.6425  0.3328
  963TIP3   OH224523   5.636   5.770   1.385  0.2487 -0.5585  0.0335
  963TIP3    H124524   5.567   5.778   1.451  0.3956  0.8953  0.0583
  963TIP3    H224525   5.593   5.796   1.303  0.4447 -0.8755 -0.1682
  964TIP3   OH224526   5.240   5.307   0.175  0.1235  0.1604  0.2102
  964TIP3    H124527   5.266   5.277   0.088 -1.5297  0.2695 -0.3535
  964TIP3    H224528   5.188   5.386   0.159  0.9680  1.0000  1.4077
  965TIP3   OH224529   6.560   0.757   1.608  0.1770  0.2065  0.2460
  965TIP3    H124530   6.552   0.783   1.517 -2.7636 -1.9763 -0.2790
  965TIP3    H224531   6.495   0.809   1.654  0.4199  0.0497  0.7788
  966TIP3   OH224532   1.408   1.715   0.730  0.2377  0.0140 -0.1814
  966TIP3    H124533   1.494   1.730   0.691  0.2424 -0.9373 -0.5411
  966TIP3    H224534   1.347   1.716   0.656 -0.0055  0.1947  0.0179
  967TIP3   OH224535   6.380   0.939   8.427 -0.1850  0.7804 -1.1036
  967TIP3    H124536   6.334   0.977   8.352 -1.0562 -0.1908 -1.0877
  967TIP3    H224537   6.419   1.013   8.472 -2.2114  1.7368 -0.8085
  968TIP3   OH224538   3.471   5.466   2.105 -0.0475 -0.5312  0.4375
  968TIP3    H124539   3.442   5.557   2.105 -0.8389 -0.7638 -0.3051
  968TIP3    H224540   3.437   5.429   2.186 -0.6447 -0.4383  0.2306
  969TIP3   OH224541   6.082   4.035   0.960 -0.5864  0.6256  0.0283
  969TIP3    H124542   6.144   4.024   0.888 -0.5825  2.6815 -0.3283
  969TIP3    H224543   6.120   4.104   1.014 -1.6618  0.6124  0.8240
  970TIP3   OH224544   6.255   3.529   0.455 -1.1522 -0.0310 -0.2633
  970TIP3    H124545   6.242   3.510   0.363  0.2612 -1.0629 -0.2685
  970TIP3    H224546   6.305   3.455   0.489  1.1703  1.7937  0.5960
  971TIP3   OH224547   1.437   0.538   1.240  0.6505 -0.2687 -0.5763
  971TIP3    H124548   1.382   0.492   1.177  1.2466 -0.4243 -0.9996
  971TIP3    H224549   1.434   0.484   1.319 -0.7548  0.3520 -0.1798
  972TIP3   OH224550   5.939   5.064   8.325  0.0264 -0.8213  0.7782
  972TIP3    H124551   5.901   5.055   8.238 -0.7337 -0.9816  1.1218
  972TIP3    H224552   6.033   5.072   8.309 -0.1556 -0.2135 -0.0981
  973TIP3   OH224553   6.489   1.943   6.625  0.4847 -0.8150  0.1348
  973TIP3    H124554   6.518   2.017   6.678  1.4357 -0.1507 -1.2808
  973TIP3    H224555   6.397   1.961   6.606  0.7332  0.0389 -0.2619
  974TIP3   OH224556   6.671   5.189   6.849 -0.6304  0.4140 -0.8118
  974TIP3    H124557   6.745   5.162   6.795 -1.6947 -2.6457 -0.8833
  974TIP3    H224558   6.636   5.108   6.886 -3.6926  1.7684 -0.4058
  975TIP3   OH224559   3.535   5.934   0.470  0.6967  0.1247 -0.5447
  975TIP3    H124560   3.597   5.885   0.524  0.7280  1.6724  0.9424
  975TIP3    H224561   3.590   5.978   0.405  1.1827  1.2526  0.5783
  976TIP3   OH224562   5.600   4.433   2.475  0.0997  0.1397  0.0193
  976TIP3    H124563   5.521   4.470   2.513  0.6267  0.5245  0.7709
  976TIP3    H224564   5.672   4.479   2.519  0.7621 -0.9763  0.1602
  977TIP3   OH224565   4.291   0.192   1.372  0.0790 -0.8498 -0.2577
  977TIP3    H124566   4.305   0.172   1.279  0.4251  0.5782 -0.5296
  977TIP3    H224567   4.250   0.278   1.372  1.1410 -0.3181  0.9592
  978TIP3   OH224568   3.767   5.184   2.666  0.1212  0.1341  0.0684
  978TIP3    H124569   3.780   5.153   2.756  0.9262  1.5636  0.4635
  978TIP3    H224570   3.672   5.177   2.652 -0.3191  1.8850  1.8084
  979TIP3   OH224571   6.319   5.478   0.602  0.4750  0.4823 -0.7379
  979TIP3    H124572   6.285   5.452   0.517  2.3351 -2.9965 -0.6106
  979TIP3    H224573   6.386   5.543   0.583 -1.9038  2.9430 -1.4222
  980TIP3   OH224574   2.443   1.643   7.603  0.1768 -0.2261 -0.1893
  980TIP3    H124575   2.496   1.610   7.675 -0.9227  0.1484  0.8239
  980TIP3    H224576   2.356   1.653   7.640  0.0617  2.0990 -0.9297
  981TIP3   OH224577   3.238   4.002   1.083  0.4185 -0.3631 -0.0533
  981TIP3    H124578   3.263   3.917   1.047 -0.7751 -0.9300  0.4193
  981TIP3    H224579   3.289   4.065   1.032 -1.6724 -1.0586 -3.2649
  982TIP3   OH224580   6.128   0.835   2.531 -0.1876 -0.0240 -0.5657
  982TIP3    H124581   6.113   0.746   2.563 -1.2897  0.0411 -0.8495
  982TIP3    H224582   6.223   0.840   2.517  0.0062 -0.8515  0.3021
  983TIP3   OH224583   1.262   1.249   0.408  0.1796 -0.3792  0.1351
  983TIP3    H124584   1.329   1.317   0.394  0.9808 -0.6706  2.2358
  983TIP3    H224585   1.286   1.180   0.346  1.7929 -0.4398  0.7708
  984TIP3   OH224586   4.299   4.556   2.811  0.0461 -0.2519 -0.0560
  984TIP3    H124587   4.289   4.636   2.759  1.4710 -0.3812 -0.5512
  984TIP3    H224588   4.221   4.504   2.789  0.0877  0.1548 -1.2474
  985TIP3   OH224589   4.602   6.452   8.016 -0.4341  0.5473  0.2064
  985TIP3    H124590   4.550   6.529   8.036  1.4703  1.8824  0.2550
  985TIP3    H224591   4.576   6.428   7.927 -1.9097  0.4813  0.6294
  986TIP3   OH224592   2.089   4.365   7.905  0.1294  0.6508  0.3263
  986TIP3    H124593   2.062   4.451   7.937 -1.4481  0.6603 -0.9020
  986TIP3    H224594   2.011   4.310   7.917  1.1546 -0.6820  1.2462
  987TIP3   OH224595   1.332   5.340   1.550  0.1655 -0.1651 -0.2717
  987TIP3    H124596   1.373   5.253   1.550  1.0630  0.2471 -0.1221
  987TIP3    H224597   1.373   5.386   1.477  1.2597  0.8366  0.9188
  988TIP3   OH224598   1.995   2.417   0.757  0.7857 -0.4557 -0.3563
  988TIP3    H124599   1.993   2.513   0.762  0.2568 -0.5303  3.0597
  988TIP3    H224600   1.903   2.392   0.748  0.7748 -0.6448  0.2356
  989TIP3   OH224601   1.391   4.613   1.954  0.1717  0.5653  0.1151
  989TIP3    H124602   1.307   4.622   1.997  0.4680 -1.0575  1.1035
  989TIP3    H224603   1.450   4.670   2.004  0.1399 -0.0152  0.8250
  990TIP3   OH224604   4.092   4.553   7.806  0.2541  0.0526  0.4835
  990TIP3    H124605   4.169   4.583   7.758 -0.9181  0.9221 -0.9187
  990TIP3    H224606   4.111   4.573   7.897  2.2164 -0.9438  0.3423
  991TIP3   OH224607   4.938   5.359   7.207  0.5549  0.1179  0.0083
  991TIP3    H124608   4.877   5.432   7.217  0.7301  0.1819  0.6320
  991TIP3    H224609   4.911   5.317   7.125  2.5438  2.8985 -2.2840
  992TIP3   OH224610   4.883   5.548   1.494  0.4773 -0.8700  0.5216
  992TIP3    H124611   4.821   5.553   1.421 -0.1287 -1.1469  1.0070
  992TIP3    H224612   4.869   5.460   1.530  1.1221 -0.9138  0.6615
  993TIP3   OH224613   6.081   1.553   2.260 -0.3131 -0.1187 -0.4002
  993TIP3    H124614   6.051   1.463   2.277  0.0023  0.0560  1.2221
  993TIP3    H224615   6.176   1.547   2.263 -0.2751  0.1478 -1.0207
  994TIP3   OH224616   6.861   1.045   1.936 -0.0946 -0.2774  0.7542
  994TIP3    H124617   6.772   1.078   1.920 -0.1859 -0.7023  0.3701
  994TIP3    H224618   6.881   1.073   2.025  0.1465  1.5271  0.1683
  995TIP3   OH224619   6.820   3.893   7.250 -0.1125  0.4627  0.4786
  995TIP3    H124620   6.912   3.879   7.231 -0.5579  0.4284 -1.9072
  995TIP3    H224621   6.819   3.927   7.340  1.9872 -1.7965  1.4728
  996TIP3   OH224622   1.015   5.758   0.681  0.0112  0.0209  0.0644
  996TIP3    H124623   1.003   5.830   0.620  0.0840 -1.2567 -1.5159
  996TIP3    H224624   0.937   5.761   0.737 -2.3161 -1.2797 -2.7998
  997TIP3   OH224625   4.967   4.253   1.741  0.0059 -0.0378  0.1704
  997TIP3    H124626   4.893   4.314   1.734  0.6100  0.6251 -0.5819
  997TIP3    H224627   4.927   4.170   1.767 -0.6302  1.0965  3.1380
  998TIP3   OH224628   3.442   1.087   2.596  0.0767  0.2106 -0.2171
  998TIP3    H124629   3.467   1.132   2.515 -0.7051  0.5218 -0.3020
  998TIP3    H224630   3.524   1.055   2.633  0.4279 -0.1572 -1.2649
  999TIP3   OH224631   0.534   1.753   1.962  0.7004 -0.6626 -0.1212
  999TIP3    H124632   0.614   1.805   1.950  0.4949  0.1057  1.5599
  999TIP3    H224633   0.465   1.806   1.922  0.7568 -0.4839  0.0197
 1000TIP3   OH224634   6.026   6.581   0.321 -0.2257 -1.0606 -0.0503
 1000TIP3    H124635   6.054   6.584   0.229  0.2716 -1.0810  0.0978
 1000TIP3    H224636   5.938   6.543   0.318 -1.1007  0.9064 -0.7097
 1001TIP3   OH224637   2.797   5.604   7.560  0.6560  0.5026  0.5452
 1001TIP3    H124638   2.860   5.540   7.593 -1.0025 -0.3544  2.1996
 1001TIP3    H224639   2.793   5.587   7.466  1.5504 -0.6263  0.6844
 1002TIP3   OH224640   3.406   6.896   6.163 -0.0191 -0.2701 -0.2717
 1002TIP3    H124641   3.333   6.920   6.219 -0.4324  1.5733 -1.4897
 1002TIP3    H224642   3.397   6.802   6.148 -0.4269 -0.6252  1.9206
 1003TIP3   OH224643   5.544   0.041   0.069 -0.5645 -0.6185  0.1398
 1003TIP3    H124644   5.459   0.024   0.110 -1.6502  1.4760 -1.0434
 1003TIP3    H224645   5.568  -0.042   0.028 -1.7925 -1.3970  0.9474
 1004TIP3   OH224646   2.915   5.669   7.807  0.2915  0.2598 -0.0508
 1004TIP3    H124647   2.848   5.603   7.792  0.4163  0.0461  0.3216
 1004TIP3    H224648   2.901   5.734   7.738 -0.3571  0.2683  0.0867
 1005TIP3   OH224649   3.687   1.337   6.536 -0.5367  0.1326 -0.2434
 1005TIP3    H124650   3.703   1.303   6.624  0.2007  2.2435  0.5080
 1005TIP3    H224651   3.669   1.260   6.483 -0.8826 -1.2094  1.7312
 1006TIP3   OH224652   5.800   5.502   0.887  0.2527  0.8497  0.1616
 1006TIP3    H124653   5.712   5.464   0.890  0.5973  0.0699  0.6717
 1006TIP3    H224654   5.809   5.547   0.971  1.0601 -0.7543  0.9733
 1007TIP3   OH224655   1.725   1.811   7.914  0.1520 -0.1264 -0.1919
 1007TIP3    H124656   1.716   1.833   8.007 -1.6184 -0.2909 -0.2901
 1007TIP3    H224657   1.818   1.826   7.895 -0.0811  3.4478  0.7176
 1008TIP3   OH224658   5.390   2.257   6.800 -0.0250  0.6497  0.3326
 1008TIP3    H124659   5.409   2.221   6.714  1.1455 -1.5077  1.4102
 1008TIP3    H224660   5.405   2.184   6.860 -2.7061  1.5016  2.2142
 1009TIP3   OH224661   2.298   5.686   8.291 -0.3167 -0.3392 -0.0302
 1009TIP3    H124662   2.337   5.717   8.373 -1.1729  1.4626 -0.2578
 1009TIP3    H224663   2.205   5.678   8.310 -0.9036  2.2789 -1.3479
 1010TIP3   OH224664   1.254   6.386   0.019  0.0595  0.1015 -0.1578
 1010TIP3    H124665   1.217   6.474   0.019 -0.5193 -0.1257  0.9565
 1010TIP3    H224666   1.326   6.391   0.082 -0.0505 -0.2491 -0.0036
 1011TIP3   OH224667   4.042   3.277   2.056 -0.2898  0.7708  0.2005
 1011TIP3    H124668   4.052   3.346   2.121 -0.4710  1.6930 -0.7219
 1011TIP3    H224669   4.126   3.231   2.056 -0.1957  0.9328  0.8850
 1012TIP3   OH224670   5.246   1.911   0.721 -0.0313 -0.2170 -0.1912
 1012TIP3    H124671   5.202   1.890   0.639  2.7288 -1.9295 -1.3885
 1012TIP3    H224672   5.276   2.001   0.710  0.2492 -0.4052 -1.0502
 1013TIP3   OH224673   3.779   5.414   2.517  0.2478  0.2641  0.9010
 1013TIP3    H124674   3.772   5.342   2.580  0.1546 -0.6887 -0.1657
 1013TIP3    H224675   3.742   5.378   2.436  2.7212  0.5502 -0.4434
 1014TIP3   OH224676   5.006   4.102   0.834 -0.3329 -0.1629 -0.2419
 1014TIP3    H124677   4.954   4.132   0.908 -0.4231 -0.2510 -0.2690
 1014TIP3    H224678   4.942   4.089   0.764 -0.3349 -0.7044 -0.1413
 1015TIP3   OH224679   0.108   2.459   0.512  0.1039  0.4907  0.0573
 1015TIP3    H124680   0.045   2.520   0.549 -1.6176 -0.7819 -0.6520
 1015TIP3    H224681   0.056   2.384   0.485  2.2304 -1.7031  1.6399
 1016TIP3   OH224682   6.362   4.279   0.728  0.1938 -0.1363 -0.1290
 1016TIP3    H124683   6.295   4.230   0.680  2.5208 -1.5379 -2.1564
 1016TIP3    H224684   6.328   4.368   0.733 -2.0730 -0.9173 -0.4853
 1017TIP3   OH224685   2.693   6.897   7.209  0.0770 -0.1182  0.3534
 1017TIP3    H124686   2.700   6.884   7.115  2.1915 -0.1361  0.4697
 1017TIP3    H224687   2.771   6.855   7.246  0.5132  1.8240  1.8810
 1018TIP3   OH224688   3.614   3.565   0.898  0.1149 -0.1997 -0.1539
 1018TIP3    H124689   3.686   3.525   0.849  0.1986 -0.4932  0.2024
 1018TIP3    H224690   3.656   3.637   0.945 -0.0386  0.3252 -0.8060
 1019TIP3   OH224691   0.225   1.225   7.359  0.2409 -0.2018  0.7112
 1019TIP3    H124692   0.235   1.172   7.439  2.6420  0.2046  0.7330
 1019TIP3    H224693   0.268   1.308   7.380  0.6556  0.0150 -0.9052
 1020TIP3   OH224694   3.055   0.276   7.212  0.3655  0.1568 -0.8145
 1020TIP3    H124695   3.101   0.325   7.143  1.2835  0.1773 -0.2048
 1020TIP3    H224696   3.082   0.186   7.199  1.5397  0.3302  0.2685
 1021TIP3   OH224697   6.018   3.060   0.003  0.0794 -0.7010  0.4247
 1021TIP3    H124698   6.085   3.004  -0.036  0.3353 -0.1816  0.1179
 1021TIP3    H224699   6.054   3.086   0.088  0.3390 -0.2836  0.1864
 1022TIP3   OH224700   6.936   1.909   8.421 -0.1704 -0.6492  0.4611
 1022TIP3    H124701   6.858   1.900   8.476 -0.9145 -1.3493 -0.6542
 1022TIP3    H224702   6.927   1.995   8.380  0.6392  0.0907  1.7628
 1023TIP3   OH224703   6.468   0.217   8.437  0.0736 -0.0176 -0.4226
 1023TIP3    H124704   6.432   0.180   8.356 -2.7558  0.7257  0.4102
 1023TIP3    H224705   6.400   0.204   8.503  1.7691  0.5855  1.5522
 1024TIP3   OH224706   4.301   5.850   0.171  0.3227  0.4945 -0.0133
 1024TIP3    H124707   4.381   5.889   0.134  1.6153 -2.5251 -0.6770
 1024TIP3    H224708   4.330   5.807   0.252 -1.6992  3.4686  2.5820
 1025TIP3   OH224709   1.002   3.353   1.366  0.2422 -0.3878 -0.5450
 1025TIP3    H124710   0.983   3.364   1.272  0.0418 -1.6175 -0.6629
 1025TIP3    H224711   0.947   3.419   1.408  0.0902 -0.0326 -1.2705
 1026TIP3   OH224712   3.334   1.571   8.298 -0.0972  0.4168 -0.5302
 1026TIP3    H124713   3.335   1.520   8.379  0.1055 -0.6076 -1.1624
 1026TIP3    H224714   3.370   1.656   8.323 -1.3612  0.6084  0.7584
 1027TIP3   OH224715   0.455   2.378   7.480 -0.7636  0.0088  0.6221
 1027TIP3    H124716   0.463   2.296   7.431  1.7976  0.1854  0.5918
 1027TIP3    H224717   0.395   2.432   7.428  0.8976 -0.2784 -1.7524
 1028TIP3   OH224718   2.956   0.570   2.587 -0.0831  0.0264 -0.0541
 1028TIP3    H124719   3.021   0.500   2.586  0.1079  0.1587  1.1326
 1028TIP3    H224720   2.872   0.525   2.595  0.0302 -0.0839  0.5766
 1029TIP3   OH224721   2.924   3.914   1.708  0.1531  0.0250 -0.0959
 1029TIP3    H124722   2.927   3.921   1.613  1.7554 -0.1523 -0.0894
 1029TIP3    H224723   2.992   3.975   1.738  1.4641 -1.7837  0.7913
 1030TIP3   OH224724   3.837   6.209   2.573  0.3535  0.5675  0.2233
 1030TIP3    H124725   3.880   6.294   2.581 -0.7180  1.3517 -1.7034
 1030TIP3    H224726   3.744   6.227   2.586 -0.2000  0.2093 -2.5068
 1031TIP3   OH224727   5.073   5.578   0.411  0.5373 -0.3359 -0.7206
 1031TIP3    H124728   5.056   5.491   0.449  0.3669  0.8441  2.1636
 1031TIP3    H224729   4.986   5.611   0.389  0.3959 -0.0684  0.2136
 1032TIP3   OH224730   5.655   0.484   2.051 -0.3001 -0.3284 -0.2373
 1032TIP3    H124731   5.665   0.516   2.141 -0.1640 -0.5543 -0.1730
 1032TIP3    H224732   5.638   0.391   2.060  2.3611 -0.9234 -0.5213
 1033TIP3   OH224733   5.796   2.507   7.181 -0.4342 -0.3767 -0.0905
 1033TIP3    H124734   5.734   2.455   7.130  0.5535 -0.9711 -0.7141
 1033TIP3    H224735   5.825   2.449   7.251 -0.6220 -0.0859  0.2293
 1034TIP3   OH224736   6.038   1.306   0.947  0.7786 -0.4109 -0.5580
 1034TIP3    H124737   6.010   1.386   0.903 -0.1380 -0.5290 -0.2231
 1034TIP3    H224738   5.958   1.271   0.986  1.4735 -0.5749  0.7775
 1035TIP3   OH224739   1.442   3.664   0.207 -0.0650 -0.0282  0.1010
 1035TIP3    H124740   1.519   3.652   0.152  1.2862  1.6644  1.5062
 1035TIP3    H224741   1.432   3.759   0.214 -0.9167 -0.2021  1.7365
 1036TIP3   OH224742   2.737   2.910   2.438  0.3651 -0.8322  0.4305
 1036TIP3    H124743   2.730   2.877   2.348  0.9828  0.2595 -0.0409
 1036TIP3    H224744   2.718   2.834   2.493  0.4693 -1.6428 -0.6179
 1037TIP3   OH224745   6.139   1.053   7.899 -0.1684  0.1862  0.6687
 1037TIP3    H124746   6.232   1.075   7.900 -0.0338 -0.3823  0.9863
 1037TIP3    H224747   6.107   1.082   7.984 -0.3687  0.7436  0.4043
 1038TIP3   OH224748   6.332   3.989   0.787 -0.0144  0.1531 -0.1725
 1038TIP3    H124749   6.367   4.059   0.731  1.2029 -0.1535  0.1848
 1038TIP3    H224750   6.319   3.915   0.727  2.1984 -0.4883  0.0710
 1039TIP3   OH224751   2.998   1.732   6.878  0.4039  0.2139 -0.2569
 1039TIP3    H124752   3.024   1.810   6.927 -0.9128 -0.0800  0.9677
 1039TIP3    H224753   3.070   1.718   6.816  1.9531  0.8533  1.2969
 1040TIP3   OH224754   1.564   0.123   1.489  0.1283 -0.5759 -0.1239
 1040TIP3    H124755   1.542   0.030   1.489 -0.0937 -0.6486  3.7262
 1040TIP3    H224756   1.488   0.165   1.450 -0.8548 -1.8473  0.3398
 1041TIP3   OH224757   6.359   4.338   7.723 -0.5618  0.1578 -0.7432
 1041TIP3    H124758   6.274   4.301   7.698 -0.7911 -0.9623  1.4451
 1041TIP3    H224759   6.423   4.278   7.686 -0.7892  0.0843 -1.0221
 1042TIP3   OH224760   0.323   0.280   0.716  0.3228 -0.1983 -0.0575
 1042TIP3    H124761   0.314   0.186   0.700  1.2862 -0.0859 -1.4843
 1042TIP3    H224762   0.322   0.319   0.628  2.1669  0.8874  0.3563
 1043TIP3   OH224763   5.837   1.648   7.689  0.0053 -0.1087  0.0350
 1043TIP3    H124764   5.834   1.570   7.744 -2.4070 -1.2459 -1.5491
 1043TIP3    H224765   5.762   1.701   7.717  0.3445  0.5977 -0.3535
 1044TIP3   OH224766   3.516   2.568   7.687  1.0156  0.2817 -0.1559
 1044TIP3    H124767   3.606   2.543   7.705  0.6890 -0.6413  0.2675
 1044TIP3    H224768   3.495   2.633   7.755  1.1001 -0.1359  0.2789
 1045TIP3   OH224769   4.474   3.897   0.091  0.0377 -0.0598 -0.1912
 1045TIP3    H124770   4.505   3.808   0.076  1.3983  0.4694 -0.6451
 1045TIP3    H224771   4.466   3.904   0.186  1.3874 -0.2109 -0.0492
 1046TIP3   OH224772   5.866   4.727   8.126  0.1898  0.2199 -0.0237
 1046TIP3    H124773   5.808   4.743   8.052  1.5301  0.3001 -1.1170
 1046TIP3    H224774   5.833   4.647   8.167  0.0938 -0.5005 -1.4392
 1047TIP3   OH224775   3.204   5.200   7.680 -0.7319 -0.3110 -0.0049
 1047TIP3    H124776   3.183   5.157   7.763 -0.6713 -0.3416 -0.0049
 1047TIP3    H224777   3.300   5.205   7.680 -0.7947  1.8847  1.0548
 1048TIP3   OH224778   4.723   0.652   2.564  0.0182 -0.3601  1.0975
 1048TIP3    H124779   4.635   0.689   2.552  0.4501  0.3724  0.1049
 1048TIP3    H224780   4.774   0.723   2.603  0.0694 -0.9425  2.1436
 1049TIP3   OH224781   6.140   1.282   8.246 -0.1090 -0.3992  0.5231
 1049TIP3    H124782   6.046   1.274   8.261 -0.1434 -1.0719  0.0116
 1049TIP3    H224783   6.148   1.333   8.165 -0.0101  0.3484  1.0000
 1050TIP3   OH224784   5.554   6.159   1.783 -0.5041 -0.1753  0.6895
 1050TIP3    H124785   5.464   6.188   1.764 -0.7587 -1.3216  0.0112
 1050TIP3    H224786   5.547   6.064   1.789  0.6482 -0.2647  0.7998
 1051TIP3   OH224787   5.586   1.173   0.556  0.1771 -0.3165 -0.0943
 1051TIP3    H124788   5.523   1.220   0.502  0.3676  0.9837  0.7864
 1051TIP3    H224789   5.535   1.102   0.596 -0.0142 -1.1744 -1.7503
 1052TIP3   OH224790   6.554   0.762   7.142 -0.4002  0.4204 -0.3730
 1052TIP3    H124791   6.521   0.822   7.075  1.3723  2.1618  0.1860
 1052TIP3    H224792   6.515   0.793   7.224 -0.9129 -0.3708 -0.3109
 1053TIP3   OH224793   3.381   4.851   0.815  0.2021 -0.1642  0.0471
 1053TIP3    H124794   3.436   4.865   0.892 -0.4397  0.7936  0.3577
 1053TIP3    H224795   3.307   4.799   0.847  0.6534 -1.0104 -0.2556
 1054TIP3   OH224796   0.378   6.323   8.388  0.4861  0.4443 -0.4427
 1054TIP3    H124797   0.286   6.317   8.363 -0.1573  2.4015  1.1654
 1054TIP3    H224798   0.421   6.359   8.310 -0.5449  1.6551 -0.4908
 1055TIP3   OH224799   4.864   2.641   0.186  0.1422 -0.6738  0.0257
 1055TIP3    H124800   4.824   2.617   0.102  1.4173 -2.0730 -0.2324
 1055TIP3    H224801   4.822   2.584   0.250 -0.2882 -0.1392  0.2267
 1056TIP3   OH224802   4.517   5.861   6.852  0.0743  0.3465 -0.4693
 1056TIP3    H124803   4.499   5.955   6.851 -0.9150  0.1783 -1.9009
 1056TIP3    H224804   4.613   5.855   6.852  0.1598  1.3229  0.5474
 1057TIP3   OH224805   2.279   6.376   0.316  0.1622 -0.0446 -0.4576
 1057TIP3    H124806   2.280   6.286   0.284 -0.4169  0.0444 -0.7468
 1057TIP3    H224807   2.329   6.425   0.252  0.0405 -0.0741 -0.5758
 1058TIP3   OH224808   4.641   2.713   8.182  0.2193  0.0819  0.5716
 1058TIP3    H124809   4.547   2.726   8.170  0.0723  0.0876  1.6385
 1058TIP3    H224810   4.649   2.669   8.267  1.2601  1.2914  1.1327
 1059TIP3   OH224811   5.513   5.312   7.247 -0.1162 -0.2609 -0.1714
 1059TIP3    H124812   5.479   5.306   7.337  0.7489  0.4397  0.2138
 1059TIP3    H224813   5.471   5.239   7.201  0.8556 -1.8163  1.2664
 1060TIP3   OH224814   5.333   2.926   1.932  0.7864  0.1614 -0.0157
 1060TIP3    H124815   5.398   2.877   1.882 -1.2248 -0.6702 -2.0314
 1060TIP3    H224816   5.269   2.860   1.960  0.9944  0.8588  2.3482
 1061TIP3   OH224817   1.166   4.491   2.857  0.1815 -0.2031  0.1422
 1061TIP3    H124818   1.234   4.556   2.842  1.4757 -1.3500  0.7849
 1061TIP3    H224819   1.210   4.407   2.843 -1.6664 -0.9505 -1.5900
 1062TIP3   OH224820   4.272   5.954   7.323  0.1529  0.6689 -0.4687
 1062TIP3    H124821   4.358   5.982   7.291  0.5398  1.1454  0.9512
 1062TIP3    H224822   4.239   5.897   7.253  2.4287 -1.0908 -0.2448
 1063TIP3   OH224823   2.822   4.374   6.991  0.0672  0.5813  0.5358
 1063TIP3    H124824   2.834   4.457   6.944 -1.3447  0.3320 -0.3469
 1063TIP3    H224825   2.891   4.373   7.057  1.4517  1.4668 -0.8272
 1064TIP3   OH224826   3.323   6.813   7.775  0.0688 -0.3134  0.3285
 1064TIP3    H124827   3.345   6.883   7.836  0.3003 -0.2617  0.1867
 1064TIP3    H224828   3.233   6.790   7.796 -0.5102  0.9990 -0.5537
 1065TIP3   OH224829   6.184   5.220   8.120 -0.4896  0.0109  0.0017
 1065TIP3    H124830   6.221   5.133   8.109  0.7129  0.5881 -0.7850
 1065TIP3    H224831   6.205   5.244   8.210  0.1031 -0.1164 -0.0956
 1066TIP3   OH224832   3.273   2.144   1.435 -0.1921 -0.3689 -0.0991
 1066TIP3    H124833   3.366   2.139   1.410 -0.3916  0.2944 -1.0082
 1066TIP3    H224834   3.227   2.095   1.367 -0.4474 -1.6094  0.9082
 1067TIP3   OH224835   2.489   0.954   6.040  0.0439  0.5995  0.2095
 1067TIP3    H124836   2.553   1.014   6.077 -0.6325  1.4799 -0.0168
 1067TIP3    H224837   2.414   0.959   6.098 -0.3881  0.7304 -0.3456
 1068TIP3   OH224838   5.240   5.266   2.768 -0.0175  0.0228  1.0535
 1068TIP3    H124839   5.229   5.172   2.779 -0.5843 -0.2345 -1.2518
 1068TIP3    H224840   5.152   5.303   2.780  0.2074  0.2931  1.9821
 1069TIP3   OH224841   6.045   6.325   0.039 -0.3225  0.0903  0.7236
 1069TIP3    H124842   6.003   6.280  -0.034  0.3389  0.7136 -0.0660
 1069TIP3    H224843   6.036   6.418   0.018  1.4731  0.2447  0.4729
 1070TIP3   OH224844   1.907   3.871   0.735 -0.2857  0.5825 -0.2778
 1070TIP3    H124845   1.976   3.908   0.681 -1.4985  1.9337 -0.9632
 1070TIP3    H224846   1.879   3.793   0.687  0.8028 -0.0469  0.0660
 1071TIP3   OH224847   2.612   5.830   7.961 -0.2950  0.1946 -0.0453
 1071TIP3    H124848   2.539   5.891   7.972 -0.3112 -0.1048  1.8217
 1071TIP3    H224849   2.588   5.777   7.885 -1.6142  0.6643  0.0188
 1072TIP3   OH224850   2.628   0.087   7.846 -0.3155 -0.1795  0.5402
 1072TIP3    H124851   2.673   0.171   7.846  0.9566 -0.8068 -0.7716
 1072TIP3    H224852   2.697   0.023   7.826 -1.2483 -1.5333  1.4743
 1073TIP3   OH224853   5.251   0.184   0.966 -0.1270 -0.1439  0.1844
 1073TIP3    H124854   5.171   0.197   1.017 -0.6407  1.0017 -0.8468
 1073TIP3    H224855   5.292   0.270   0.963  0.5698 -0.4797 -0.2425
 1074TIP3   OH224856   0.138   0.284   2.305 -0.2457  0.0973  0.4894
 1074TIP3    H124857   0.158   0.289   2.398 -0.6119  0.3365  0.5598
 1074TIP3    H224858   0.175   0.364   2.268  1.0554 -0.6162  0.1948
 1075TIP3   OH224859   3.473   3.748   0.436  0.7666  0.6230  0.0680
 1075TIP3    H124860   3.511   3.708   0.515  0.5587  0.7333  0.2249
 1075TIP3    H224861   3.396   3.795   0.468 -0.4677 -0.9394 -0.4639
 1076TIP3   OH224862   4.115   2.064   7.505  0.1755 -0.2642  0.3168
 1076TIP3    H124863   4.044   2.121   7.477  1.3228  0.4497 -1.3780
 1076TIP3    H224864   4.115   1.992   7.442  0.2998 -0.8134  0.9311
 1077TIP3   OH224865   2.458   5.872   2.424  0.2344 -0.2390  0.0832
 1077TIP3    H124866   2.427   5.815   2.495  0.4184  0.5563  0.8219
 1077TIP3    H224867   2.379   5.915   2.392  0.4439  1.3686  1.5919
 1078TIP3   OH224868   4.532   5.457   2.559 -0.0629 -0.3346 -0.4022
 1078TIP3    H124869   4.446   5.416   2.566  0.5021 -1.6234 -0.6917
 1078TIP3    H224870   4.519   5.532   2.500 -1.2761  0.3832  0.7522
 1079TIP3   OH224871   3.773   1.816   8.172 -0.0272 -0.1773  0.1610
 1079TIP3    H124872   3.831   1.877   8.127  1.1719 -0.4820  1.2243
 1079TIP3    H224873   3.709   1.872   8.216 -0.7422  0.1506 -1.2531
 1080TIP3   OH224874   0.425   6.401   6.614 -0.2387 -0.4963 -0.8504
 1080TIP3    H124875   0.338   6.417   6.577 -1.6318  0.7597  2.5659
 1080TIP3    H224876   0.483   6.459   6.565 -1.8572  0.8034 -1.3279
 1081TIP3   OH224877   2.181   5.937   1.529 -0.2020 -0.1591 -0.8908
 1081TIP3    H124878   2.158   5.956   1.620 -0.4158 -1.6123 -0.6200
 1081TIP3    H224879   2.170   6.021   1.483 -1.1691  0.3388  0.2064
 1082TIP3   OH224880   3.920   0.343   6.556 -0.1536 -0.4075 -0.2681
 1082TIP3    H124881   3.938   0.422   6.504  0.2212 -1.1720 -1.3317
 1082TIP3    H224882   3.825   0.333   6.552 -0.2165  0.0636 -0.0066
 1083TIP3   OH224883   2.070   2.676   8.157  0.3495  0.7563  0.0194
 1083TIP3    H124884   2.123   2.600   8.179  0.8256  0.9921 -0.2795
 1083TIP3    H224885   2.058   2.722   8.240  1.0518  0.9667  0.0179
 1084TIP3   OH224886   1.023   6.097   7.635  0.3681  0.2911 -0.1998
 1084TIP3    H124887   1.076   6.163   7.679 -0.3784 -0.0734  1.3102
 1084TIP3    H224888   0.939   6.100   7.681  0.0446 -1.1124 -0.6658
 1085TIP3   OH224889   0.282   3.459   8.357  0.0028 -0.2358  0.3106
 1085TIP3    H124890   0.272   3.547   8.320 -2.4429 -0.6815 -0.2520
 1085TIP3    H224891   0.221   3.457   8.430  0.5872 -1.2505  0.7870
 1086TIP3   OH224892   6.922   5.817   0.414  0.3817  0.0964 -0.2653
 1086TIP3    H124893   6.833   5.818   0.450  0.4724  1.6637 -0.0288
 1086TIP3    H224894   6.912   5.852   0.325  0.7130 -0.0793 -0.3728
 1087TIP3   OH224895   6.923   3.772   0.488 -0.0708  0.3490  0.0413
 1087TIP3    H124896   6.981   3.848   0.478  0.5738 -0.2570 -0.9750
 1087TIP3    H224897   6.949   3.733   0.571 -1.6856  2.2726  1.5751
 1088TIP3   OH224898   2.324   6.907   0.204 -0.1837 -0.0532  0.0739
 1088TIP3    H124899   2.305   6.968   0.276  0.6288 -1.4184  1.5020
 1088TIP3    H224900   2.411   6.873   0.225 -0.0809 -0.7414 -1.3937
 1089TIP3   OH224901   6.865   4.205   7.984 -0.5623 -0.2086 -0.0268
 1089TIP3    H124902   6.913   4.270   8.036 -1.3450  0.3646 -0.0013
 1089TIP3    H224903   6.773   4.232   7.991 -0.7154 -0.2581 -1.5151
 1090TIP3   OH224904   3.717   3.892   1.408 -0.0365  0.5325 -0.3808
 1090TIP3    H124905   3.695   3.913   1.317  2.4295 -0.2381 -1.2424
 1090TIP3    H224906   3.689   3.801   1.419  2.7438 -0.5887 -1.6040
 1091TIP3   OH224907   0.372   4.518   2.134 -0.0514  0.0243  0.3650
 1091TIP3    H124908   0.305   4.584   2.154  1.3765  1.4278  0.7911
 1091TIP3    H224909   0.437   4.565   2.082  0.1052 -1.5827 -0.9610
 1092TIP3   OH224910   1.353   1.849   7.044  0.3685  0.7484  0.3142
 1092TIP3    H124911   1.356   1.938   7.079  4.7642  1.8001 -1.9976
 1092TIP3    H224912   1.377   1.859   6.952  2.9923 -2.8452  0.3811
 1093TIP3   OH224913   1.475   1.250   8.322 -0.3983 -0.0945 -0.1005
 1093TIP3    H124914   1.453   1.300   8.401 -0.3283  1.9118 -1.2762
 1093TIP3    H224915   1.570   1.235   8.329 -0.8148 -2.6903  1.6193
 1094TIP3   OH224916   0.944   5.318   1.175  0.1403 -0.2570 -0.0995
 1094TIP3    H124917   1.004   5.371   1.123  0.0506  1.7483  1.6839
 1094TIP3    H224918   0.999   5.281   1.244 -0.4413  0.8350  0.9944
 1095TIP3   OH224919   5.520   4.459   1.657 -0.1109 -0.2328  0.1405
 1095TIP3    H124920   5.479   4.468   1.571 -0.7791  0.5413  0.5285
 1095TIP3    H224921   5.489   4.535   1.706  2.1908  0.6840  0.3010
 1096TIP3   OH224922   0.892   1.274   7.065  0.6430 -0.3441 -0.4913
 1096TIP3    H124923   0.813   1.249   7.113  0.4602  0.2439 -0.4765
 1096TIP3    H224924   0.863   1.277   6.973  0.2342  1.3466 -0.3493
 1097TIP3   OH224925   4.076   1.914   7.277 -0.6095  1.0040  0.5725
 1097TIP3    H124926   4.091   1.819   7.270 -2.4457  0.7552 -0.6473
 1097TIP3    H224927   4.013   1.933   7.207  0.8701  3.4193 -0.2030
 1098TIP3   OH224928   0.041   1.564   8.403  0.2199 -0.4907  0.4889
 1098TIP3    H124929   0.071   1.643   8.449  0.8074 -1.3358  1.6047
 1098TIP3    H224930   0.110   1.546   8.339 -0.4673  0.5322 -0.5825
 1099TIP3   OH224931   4.948   4.837   1.735  0.5390  0.3248  0.1032
 1099TIP3    H124932   4.995   4.771   1.786 -0.3632  0.5947  1.3533
 1099TIP3    H224933   4.996   4.918   1.751  1.6554  0.0154 -1.4431
 1100TIP3   OH224934   6.834   5.663   8.511 -0.4244 -0.4883  0.1917
 1100TIP3    H124935   6.811   5.626   8.596 -0.6910  0.1473  0.3930
 1100TIP3    H224936   6.791   5.605   8.447  0.7633 -1.7000  0.4217
 1101TIP3   OH224937   4.704   4.707   1.730 -0.8512 -0.4196  0.9456
 1101TIP3    H124938   4.779   4.766   1.720 -0.6749 -0.6510  0.9000
 1101TIP3    H224939   4.742   4.623   1.756 -1.2376 -0.0730  2.7199
 1102TIP3   OH224940   1.219   4.968   1.034  0.2967 -0.0109 -0.0832
 1102TIP3    H124941   1.257   5.013   1.110  1.9673  0.9944 -1.4213
 1102TIP3    H224942   1.171   4.894   1.071  1.1646  0.3598  1.9323
 1103TIP3   OH224943   5.182   4.375   0.110  0.2416 -0.1102  0.4253
 1103TIP3    H124944   5.196   4.301   0.169  4.7974  1.0346  1.2011
 1103TIP3    H224945   5.173   4.336   0.024 -2.1700 -1.6261  1.2670
 1104TIP3   OH224946   5.018   5.057   1.345 -0.2928 -0.3378  0.6826
 1104TIP3    H124947   4.931   5.048   1.306  0.0352 -0.1306 -0.1129
 1104TIP3    H224948   5.022   4.988   1.412 -1.2245 -0.0687  1.0264
 1105TIP3   OH224949   0.550   6.543   7.189  0.2316  0.2429  0.3550
 1105TIP3    H124950   0.579   6.488   7.116  0.9230 -0.1108  0.8854
 1105TIP3    H224951   0.615   6.528   7.258  0.6990  2.0842  0.3597
 1106TIP3   OH224952   3.047   4.258   1.498 -0.4272 -0.2848 -0.1718
 1106TIP3    H124953   3.085   4.171   1.511 -0.4212 -0.8241 -3.1645
 1106TIP3    H224954   2.959   4.241   1.464 -0.1272  0.8288 -1.5784
 1107TIP3   OH224955   0.049   6.498   0.856  0.1172 -0.2950  0.8856
 1107TIP3    H124956  -0.025   6.448   0.820 -0.2268  1.1321 -0.4815
 1107TIP3    H224957   0.122   6.436   0.854  0.0467 -0.4366 -2.1071
 1108TIP3   OH224958   0.948   4.478   7.674 -0.8105  0.6714  0.0380
 1108TIP3    H124959   0.941   4.572   7.660  0.0391  0.7198 -0.1294
 1108TIP3    H224960   0.873   4.456   7.729 -1.4920  1.2985 -0.6287
 1109TIP3   OH224961   3.841   0.143   2.467  0.6598 -0.5436  0.6110
 1109TIP3    H124962   3.769   0.189   2.423  1.6723  1.1162  0.6080
 1109TIP3    H224963   3.843   0.057   2.426  0.4804  0.3499 -1.3845
 1110TIP3   OH224964   0.677   0.654   7.532  0.2801  0.3397  0.2022
 1110TIP3    H124965   0.606   0.610   7.579 -0.0563  0.2068 -0.4235
 1110TIP3    H224966   0.636   0.689   7.453  1.2755 -1.4641 -1.1966
 1111TIP3   OH224967   2.984   6.478   6.323 -0.3242 -0.2176 -0.1859
 1111TIP3    H124968   3.045   6.424   6.273 -1.6020 -0.0733 -1.9982
 1111TIP3    H224969   2.911   6.420   6.342  0.0997 -0.2398  1.4917
 1112TIP3   OH224970   0.373   3.756   2.079  0.5880 -0.6082  1.1906
 1112TIP3    H124971   0.391   3.692   2.010 -0.0601  0.6847 -0.2491
 1112TIP3    H224972   0.425   3.727   2.153 -0.9869 -3.7732  1.2177
 1113TIP3   OH224973   6.545   6.803   0.529 -0.5517 -0.4973 -0.4094
 1113TIP3    H124974   6.616   6.766   0.581  0.4119 -1.9121 -2.5860
 1113TIP3    H224975   6.589   6.866   0.471 -1.3172 -0.2209 -0.6989
 1114TIP3   OH224976   4.062   2.325   8.230 -0.6230 -0.0515 -0.2228
 1114TIP3    H124977   4.107   2.274   8.297 -0.4415 -0.4878 -0.6746
 1114TIP3    H224978   4.111   2.308   8.149  0.2140  1.8163 -0.1590
 1115TIP3   OH224979   6.903   1.448   1.319 -0.1834 -0.1816 -0.4265
 1115TIP3    H124980   6.983   1.411   1.358 -0.4147  0.1564  0.3910
 1115TIP3    H224981   6.851   1.475   1.394 -0.2431  1.3451 -0.9963
 1116TIP3   OH224982   6.859   4.084   1.948 -0.5674  0.3514  0.0512
 1116TIP3    H124983   6.861   4.145   2.021  0.6068  0.5842 -0.1589
 1116TIP3    H224984   6.789   4.118   1.891 -1.1072  0.4840  0.7759
 1117TIP3   OH224985   6.258   0.167   0.026 -0.0578 -0.5116  0.4147
 1117TIP3    H124986   6.199   0.241   0.037 -2.5664 -1.7363 -2.9332
 1117TIP3    H224987   6.262   0.126   0.113 -0.2454  2.2668  1.8451
 1118TIP3   OH224988   1.795   6.458   6.679  0.1361 -0.1445 -0.1223
 1118TIP3    H124989   1.790   6.554   6.686  0.5740 -0.0532 -0.9271
 1118TIP3    H224990   1.718   6.435   6.627  0.4174 -0.1448 -0.5500
 1119TIP3   OH224991   2.080   0.231   0.115 -0.4220  0.2471  0.1830
 1119TIP3    H124992   1.994   0.203   0.087 -0.1717  0.6940 -1.1038
 1119TIP3    H224993   2.135   0.222   0.038  1.1528 -1.8094  1.4469
 1120TIP3   OH224994   4.662   1.186   8.083 -0.0783 -0.0062 -0.0628
 1120TIP3    H124995   4.635   1.123   8.015  1.6311 -2.4497  1.3520
 1120TIP3    H224996   4.605   1.166   8.157 -0.3734  1.0419  0.0032
 1121TIP3   OH224997   4.072   2.722   1.646 -0.1638 -0.8117 -0.2882
 1121TIP3    H124998   4.036   2.810   1.659 -1.3115 -0.9804 -2.0130
 1121TIP3    H224999   4.001   2.663   1.672  0.3194 -1.2301  0.1115
 1122TIP3   OH225000   0.736   4.934   0.021 -0.3514 -0.0956  0.1941
 1122TIP3    H125001   0.794   4.858   0.029 -1.1333 -1.1749 -2.7268
 1122TIP3    H225002   0.687   4.936   0.103  1.8867 -0.7621  1.6389
 1123TIP3   OH225003   1.644   5.916   8.454 -0.2752  0.0156 -0.1037
 1123TIP3    H125004   1.722   5.962   8.485 -0.1334 -0.3485  0.0854
 1123TIP3    H225005   1.632   5.946   8.364 -0.6236  0.9936  0.2617
 1124TIP3   OH225006   5.269   4.656   0.756 -0.1806  0.3571 -0.5025
 1124TIP3    H125007   5.182   4.654   0.795 -0.0787 -1.0531 -0.2910
 1124TIP3    H225008   5.321   4.711   0.815 -0.6466  0.2904 -0.0230
 1125TIP3   OH225009   2.740   3.975   8.308 -0.1597  0.0041 -0.0630
 1125TIP3    H125010   2.672   4.042   8.304  0.7747  1.2003  2.3014
 1125TIP3    H225011   2.821   4.022   8.287  1.0691  0.6841  5.0647
 1126TIP3   OH225012   2.039   1.106   0.209  0.9695  0.0193  0.0910
 1126TIP3    H125013   2.046   1.037   0.275 -0.6957 -1.9616 -1.6440
 1126TIP3    H225014   2.036   1.187   0.259 -0.2470 -1.3834  2.4881
 1127TIP3   OH225015   2.948   0.284   0.989  0.4215  0.0293  0.2281
 1127TIP3    H125016   2.920   0.208   1.041  1.5626  0.4061  1.4322
 1127TIP3    H225017   3.012   0.328   1.044  1.6586  0.4687 -1.5048
 1128TIP3   OH225018   6.355   5.669   6.447  0.2951  0.0992  0.0948
 1128TIP3    H125019   6.383   5.607   6.515  1.6375 -0.1792 -0.6628
 1128TIP3    H225020   6.326   5.613   6.375 -0.2106  0.3776  0.0827
 1129TIP3   OH225021   1.039   2.662   0.230  0.3311  0.4262  0.2736
 1129TIP3    H125022   1.039   2.732   0.295  0.3225  0.7985 -0.1227
 1129TIP3    H225023   1.122   2.615   0.244 -0.1172 -0.1082  1.1963
 1130TIP3   OH225024   1.716   2.263   7.502  0.3341 -0.4311  0.5712
 1130TIP3    H125025   1.678   2.187   7.458  0.0286 -1.7436  2.9030
 1130TIP3    H225026   1.726   2.234   7.593  3.6923  1.0541  0.8062
 1131TIP3   OH225027   2.682   6.021   0.140 -0.6380 -0.8367  0.5795
 1131TIP3    H125028   2.759   6.020   0.198  0.3934  2.9512 -0.4584
 1131TIP3    H225029   2.719   6.009   0.052 -1.1057  1.1727  0.0557
 1132TIP3   OH225030   6.148   3.078   7.532  0.3092  0.0478 -0.2620
 1132TIP3    H125031   6.238   3.058   7.505  0.3317  1.3384 -1.2429
 1132TIP3    H225032   6.133   3.021   7.607  1.5642 -0.9790 -0.7334
 1133TIP3   OH225033   0.705   6.366   8.165  0.5158 -0.1058 -0.5176
 1133TIP3    H125034   0.793   6.385   8.197  0.1031 -0.2749  0.7806
 1133TIP3    H225035   0.654   6.444   8.187  0.3076 -0.0491 -1.1718
 1134TIP3   OH225036   4.996   0.795   8.436 -0.0850 -0.1280  0.3583
 1134TIP3    H125037   5.045   0.713   8.440 -0.7456 -0.6012 -0.7468
 1134TIP3    H225038   5.059   0.858   8.401 -0.1339 -0.6504 -0.7217
 1135TIP3   OH225039   1.623   5.651   1.551 -0.3893 -0.1568 -0.2234
 1135TIP3    H125040   1.642   5.738   1.585 -0.6597  0.7013 -2.1351
 1135TIP3    H225041   1.702   5.627   1.502 -1.0073 -0.1830 -1.2269
 1136TIP3   OH225042   4.266   6.152   7.539 -0.1411  0.2987 -0.3438
 1136TIP3    H125043   4.220   6.092   7.480 -2.1132  0.4761  0.9340
 1136TIP3    H225044   4.307   6.216   7.480 -0.6721 -0.4684 -1.5900
 1137TIP3   OH225045   4.673   0.800   7.737 -0.3641 -0.0492  0.1714
 1137TIP3    H125046   4.713   0.886   7.723 -2.1783  0.6838 -0.8743
 1137TIP3    H225047   4.628   0.807   7.821  0.0244 -0.2212  0.3998
 1138TIP3   OH225048   6.463   5.707   7.280 -0.1688  0.0574  0.2829
 1138TIP3    H125049   6.533   5.768   7.256 -0.6599  0.5974  0.1861
 1138TIP3    H225050   6.507   5.639   7.331  0.6837 -0.4402 -1.0667
 1139TIP3   OH225051   2.649   5.649   6.754  0.6209  0.1480 -0.1597
 1139TIP3    H125052   2.725   5.602   6.721  0.1998 -0.6350 -0.0154
 1139TIP3    H225053   2.634   5.718   6.689  0.5521 -0.6069 -0.9689
 1140TIP3   OH225054   5.500   3.284   1.958 -0.1417 -0.2198 -0.3171
 1140TIP3    H125055   5.539   3.368   1.981 -1.2363 -0.0242  0.8993
 1140TIP3    H225056   5.410   3.306   1.933  0.0021 -0.8632 -1.4603
 1141TIP3   OH225057   0.950   3.104   0.424 -0.0968 -0.3694 -0.1060
 1141TIP3    H125058   0.991   3.190   0.414  2.0462 -1.4126 -1.1781
 1141TIP3    H225059   0.865   3.121   0.464  0.1720  2.2459 -0.5159
 1142TIP3   OH225060   5.338   5.889   7.240 -0.0641 -0.0087 -0.0992
 1142TIP3    H125061   5.292   5.971   7.220  0.6213  0.1992 -0.8689
 1142TIP3    H225062   5.428   5.916   7.259 -0.4189 -0.2955  2.3791
 1143TIP3   OH225063   2.060   4.957   0.327  0.4202  0.3136 -0.0491
 1143TIP3    H125064   2.013   4.888   0.279  0.4535  0.8326 -0.8578
 1143TIP3    H225065   2.004   4.977   0.401 -0.0057  0.0083 -0.2820
 1144TIP3   OH225066   1.193   6.733   7.569  0.0651 -0.1958 -0.4241
 1144TIP3    H125067   1.136   6.735   7.492 -0.7527  1.3387  0.1825
 1144TIP3    H225068   1.143   6.683   7.634  0.4581 -0.8915 -0.6433
 1145TIP3   OH225069   6.380   4.527   2.080  0.4216  0.5923 -0.0857
 1145TIP3    H125070   6.458   4.536   2.025 -0.0094 -0.9083 -0.9977
 1145TIP3    H225071   6.350   4.437   2.066 -0.4271  0.5505  1.6717
 1146TIP3   OH225072   0.730   3.231   7.356  0.1937  0.1716 -0.7243
 1146TIP3    H125073   0.715   3.304   7.297  2.4025  2.0171  0.8273
 1146TIP3    H225074   0.801   3.181   7.315 -0.7513 -0.6912 -1.3685
 1147TIP3   OH225075   0.040   4.433   8.128  0.7249  0.1380  0.0508
 1147TIP3    H125076  -0.004   4.490   8.192  1.4669 -1.1564  1.8000
 1147TIP3    H225077   0.093   4.493   8.076 -0.9744  1.3969 -0.3287
 1148TIP3   OH225078   1.378   3.922   0.414 -0.5126  0.0620  0.1373
 1148TIP3    H125079   1.461   3.876   0.404 -1.6715 -2.1073 -0.0933
 1148TIP3    H225080   1.389   3.974   0.494  0.3223 -1.9709  1.4146
 1149TIP3   OH225081   5.958   5.038   6.309 -0.1108 -0.1432 -0.6982
 1149TIP3    H125082   5.929   5.129   6.307  0.9435  0.2463  0.7046
 1149TIP3    H225083   6.044   5.041   6.351 -0.2035 -1.8327 -0.3376
 1150TIP3   OH225084   3.812   0.433   1.394  0.7064  1.0390 -1.0072
 1150TIP3    H125085   3.836   0.522   1.421  1.7279  0.1736  1.2181
 1150TIP3    H225086   3.722   0.422   1.426  1.8085  0.1249  2.1555
 1151TIP3   OH225087   1.032   1.336   7.342 -0.0518 -0.7027 -0.0355
 1151TIP3    H125088   1.022   1.336   7.246  1.0939 -0.4521 -0.1696
 1151TIP3    H225089   1.071   1.422   7.361 -0.9340 -0.4649  0.7377
 1152TIP3   OH225090   6.856   4.994   6.800 -0.1481 -0.0284  0.4789
 1152TIP3    H125091   6.883   4.908   6.769 -0.4743  0.3444 -0.8964
 1152TIP3    H225092   6.793   4.976   6.869 -0.0051 -0.8883  0.3931
 1153TIP3   OH225093   1.078   0.796   7.817  0.1474 -0.1191  0.0072
 1153TIP3    H125094   1.048   0.813   7.728 -0.5694 -0.1442  0.2406
 1153TIP3    H225095   1.047   0.708   7.837  1.6382 -0.7514 -0.2650
 1154TIP3   OH225096   1.601   4.609   8.240  0.0423  0.3581 -0.0309
 1154TIP3    H125097   1.549   4.570   8.309  0.7010  0.9508  0.8209
 1154TIP3    H225098   1.601   4.703   8.259 -0.2355  0.6100 -1.1611
 1155TIP3   OH225099   5.523   6.799   8.019  0.4584 -0.1233  0.5979
 1155TIP3    H125100   5.448   6.828   8.070  0.2880 -1.2694  1.0204
 1155TIP3    H225101   5.593   6.789   8.083  0.2887 -1.4072  0.6076
 1156TIP3   OH225102   6.906   0.444   2.055 -0.4371  0.4436 -0.2615
 1156TIP3    H125103   6.893   0.500   1.978  0.6024  0.1206 -0.6799
 1156TIP3    H225104   6.935   0.504   2.123 -0.8355  0.6459 -0.2642
 1157TIP3   OH225105   5.616   6.409   2.805 -0.0564 -0.0467 -0.2582
 1157TIP3    H125106   5.633   6.331   2.857 -1.2966  0.0529  0.3408
 1157TIP3    H225107   5.681   6.473   2.834 -0.5171 -0.1013  0.9520
 1158TIP3   OH225108   4.265   3.654   7.605  0.7097  0.3123  0.3026
 1158TIP3    H125109   4.210   3.589   7.562  2.2635 -0.8125 -0.0538
 1158TIP3    H225110   4.241   3.737   7.563 -3.1530  0.5524  2.5128
 1159TIP3   OH225111   3.291   0.595   0.657  0.4060  0.3757 -0.1220
 1159TIP3    H125112   3.302   0.548   0.574 -0.7324  0.3984 -0.3040
 1159TIP3    H225113   3.359   0.662   0.656  1.4958 -0.6904 -0.2606
 1160TIP3   OH225114   4.217   4.253   0.308 -0.2844  0.6192  0.0872
 1160TIP3    H125115   4.181   4.202   0.380 -0.3635 -1.7339 -1.5095
 1160TIP3    H225116   4.311   4.257   0.327 -0.3028  0.0254  0.3245
 1161TIP3   OH225117   0.811   0.259   8.148  0.1363  0.3788 -0.0158
 1161TIP3    H125118   0.857   0.237   8.228  0.7531  0.2570 -0.3971
 1161TIP3    H225119   0.775   0.347   8.164 -1.3319 -0.3781  1.0650
 1162TIP3   OH225120   4.332   0.871   1.480 -0.8070 -0.2506 -0.3507
 1162TIP3    H125121   4.352   0.856   1.387 -2.9040 -1.3930 -0.6691
 1162TIP3    H225122   4.264   0.937   1.480 -0.1346  0.4717  0.4642
 1163TIP3   OH225123   2.897   0.044   1.107  0.3510  1.0236  0.1030
 1163TIP3    H125124   2.972   0.018   1.160  0.1154  0.0960 -0.0056
 1163TIP3    H225125   2.924   0.027   1.016 -0.1299  0.3014  0.0891
 1164TIP3   OH225126   4.628   6.179   2.898  0.1313  0.8035 -0.0065
 1164TIP3    H125127   4.608   6.115   2.831  1.0808  0.9814 -0.4763
 1164TIP3    H225128   4.544   6.218   2.920 -0.4805 -0.6640  0.3673
 1165TIP3   OH225129   4.883   1.530   7.894  0.3702  0.3281  0.0710
 1165TIP3    H125130   4.888   1.625   7.895 -1.6958  0.4936  1.1296
 1165TIP3    H225131   4.819   1.509   7.962  1.6985 -1.9061  0.7303
 1166TIP3   OH225132   4.738   4.230   0.039 -0.0306  0.2298 -0.0762
 1166TIP3    H125133   4.807   4.295   0.039 -0.7021  0.9589  0.1143
 1166TIP3    H225134   4.780   4.150   0.008  0.2161  1.3861 -3.0136
 1167TIP3   OH225135   1.341   1.280   2.049 -0.4175 -0.1751 -0.1537
 1167TIP3    H125136   1.429   1.314   2.033 -0.1783 -1.7067 -2.4061
 1167TIP3    H225137   1.282   1.349   2.017 -0.0076 -0.1717 -0.9064
 1168TIP3   OH225138   6.262   5.785   8.204  0.7041  0.1830  0.3969
 1168TIP3    H125139   6.338   5.730   8.185  0.8979 -0.0349  1.6992
 1168TIP3    H225140   6.272   5.862   8.149  1.4121 -0.2432 -0.0747
 1169TIP3   OH225141   3.193   4.023   1.571  0.0325 -0.0082 -0.0637
 1169TIP3    H125142   3.215   3.934   1.598 -3.9698 -1.2561 -0.1746
 1169TIP3    H225143   3.165   4.066   1.652  0.9266  0.8317 -0.1824
 1170TIP3   OH225144   2.501   1.994   7.383 -0.3531  0.2169  0.2987
 1170TIP3    H125145   2.589   1.982   7.348 -0.7090  0.0052 -0.5658
 1170TIP3    H225146   2.447   1.932   7.334 -0.9779  0.3270  0.8307
 1171TIP3   OH225147   5.382   4.189   8.571 -0.0734 -0.5410  0.4213
 1171TIP3    H125148   5.309   4.128   8.561  0.1686 -0.7359 -0.2207
 1171TIP3    H225149   5.454   4.135   8.605  0.4935 -0.8966 -1.2393
 1172TIP3   OH225150   6.879   0.678   7.815  0.2450 -0.0693  0.2672
 1172TIP3    H125151   6.933   0.626   7.756 -0.5802 -1.9408  1.1065
 1172TIP3    H225152   6.799   0.627   7.826 -0.5570  1.3313  1.2162
 1173TIP3   OH225153   3.507   3.964   0.727 -0.1526  0.2713 -0.5064
 1173TIP3    H125154   3.536   4.036   0.670 -0.8656  0.0531 -1.1574
 1173TIP3    H225155   3.586   3.910   0.738  0.8435  1.9818  1.3322
 1174TIP3   OH225156   5.609   0.029   2.541 -0.3336 -0.5667  0.3275
 1174TIP3    H125157   5.535  -0.021   2.576 -0.5143 -0.3447  0.2602
 1174TIP3    H225158   5.574   0.116   2.525  0.1727 -0.2008  1.1425
 1175TIP3   OH225159   2.287   1.374   0.078 -0.1509  0.1502  0.1223
 1175TIP3    H125160   2.198   1.406   0.091  0.2709  0.4747  2.6379
 1175TIP3    H225161   2.325   1.373   0.165  0.9505 -4.1583 -0.1852
 1176TIP3   OH225162   2.957   6.009   1.818  1.0211  0.0766 -0.3135
 1176TIP3    H125163   3.047   5.983   1.838  1.2902  0.9143 -0.3619
 1176TIP3    H225164   2.945   6.090   1.868 -0.4884 -1.2095  1.5302
 1177TIP3   OH225165   6.571   1.159   8.486 -0.2453  0.2298  0.1907
 1177TIP3    H125166   6.630   1.210   8.542 -0.2955 -0.8935  1.2959
 1177TIP3    H225167   6.626   1.089   8.452 -0.8576 -0.6661  1.0085
 1178TIP3   OH225168   6.802   0.835   2.380  0.0001  0.2200 -0.4261
 1178TIP3    H125169   6.851   0.775   2.323  0.3682 -1.1766  1.2416
 1178TIP3    H225170   6.869   0.870   2.439 -0.9468 -2.6148  2.6628
 1179TIP3   OH225171   0.283   0.221   1.691 -0.2382  0.3836 -0.4114
 1179TIP3    H125172   0.299   0.275   1.613 -1.4537 -0.1917 -1.1006
 1179TIP3    H225173   0.368   0.185   1.713 -0.0261 -0.2465 -2.1083
 1180TIP3   OH225174   4.298   0.136   1.082  0.4501  0.0806  0.1971
 1180TIP3    H125175   4.339   0.194   1.019  0.2579 -0.3849 -0.3613
 1180TIP3    H225176   4.298   0.050   1.040 -0.7679 -0.0060  0.3236
 1181TIP3   OH225177   4.133   1.333   2.121  0.1158  0.0715 -0.4263
 1181TIP3    H125178   4.218   1.319   2.079  0.6197 -0.2694  0.6819
 1181TIP3    H225179   4.076   1.363   2.050  1.3045  0.8891 -1.0701
 1182TIP3   OH225180   6.370   5.816   8.512  0.4411 -0.4649  0.5807
 1182TIP3    H125181   6.285   5.829   8.470  0.5918  0.9894  0.6636
 1182TIP3    H225182   6.416   5.755   8.455 -0.2647 -0.4377 -0.0385
 1183TIP3   OH225183   2.654   6.388   8.183 -0.4741 -0.3117 -0.0849
 1183TIP3    H125184   2.628   6.344   8.102 -1.2393 -0.2401  0.1086
 1183TIP3    H225185   2.706   6.463   8.154 -0.8279 -0.2328 -0.5179
 1184TIP3   OH225186   6.003   5.744   2.755  0.2386 -0.6195 -0.3835
 1184TIP3    H125187   6.002   5.702   2.669  1.7318 -0.7589 -0.3622
 1184TIP3    H225188   6.043   5.678   2.813 -0.2783 -0.3374  0.3045
 1185TIP3   OH225189   0.494   4.648   1.708 -0.1179  0.2249 -0.0384
 1185TIP3    H125190   0.507   4.675   1.618 -1.2493 -0.3196 -0.3835
 1185TIP3    H225191   0.399   4.648   1.720 -0.2299 -3.0909  0.0448
 1186TIP3   OH225192   6.691   0.649   0.346  0.6477  0.6358 -0.5844
 1186TIP3    H125193   6.642   0.586   0.294  0.3971  1.4055 -1.3060
 1186TIP3    H225194   6.624   0.704   0.386  0.8707  0.6439 -0.2236
 1187TIP3   OH225195   2.286   5.266   1.826 -0.0209 -0.6256 -0.0496
 1187TIP3    H125196   2.254   5.227   1.907  0.7239 -0.6759  0.2265
 1187TIP3    H225197   2.379   5.244   1.824 -0.3270 -1.9412 -1.6775
 1188TIP3   OH225198   5.489   6.225   0.028  0.3592 -0.0312 -0.4118
 1188TIP3    H125199   5.545   6.231   0.105  1.0388  0.8216 -0.9474
 1188TIP3    H225200   5.543   6.261  -0.043  0.0512 -1.5252 -1.4442
 1189TIP3   OH225201   1.837   2.678   8.425  0.3713  0.1427 -0.1481
 1189TIP3    H125202   1.826   2.617   8.353  1.7284  0.6970 -0.8701
 1189TIP3    H225203   1.922   2.720   8.408  0.0486  1.3242  0.9904
 1190TIP3   OH225204   6.618   3.713   0.322  0.3520 -0.1844 -0.1177
 1190TIP3    H125205   6.579   3.650   0.261  1.6945  0.3150 -1.5587
 1190TIP3    H225206   6.635   3.662   0.401 -1.5187 -0.8232 -0.0650
 1191TIP3   OH225207   2.222   6.254   1.077  0.0359  0.1937  0.3185
 1191TIP3    H125208   2.240   6.198   1.152 -0.6394  1.0185  1.1303
 1191TIP3    H225209   2.126   6.261   1.075  0.0976  1.3626  0.3025
 1192TIP3   OH225210   0.602   6.552   6.850  0.5596 -0.1090 -0.1837
 1192TIP3    H125211   0.684   6.511   6.877  0.9106  0.6437 -0.0932
 1192TIP3    H225212   0.617   6.646   6.860 -0.2312  0.0503 -0.3987
 1193TIP3   OH225213   6.115   3.580   0.972 -0.3311  0.0876  0.2008
 1193TIP3    H125214   6.075   3.585   1.059 -1.1950 -1.2298 -0.0820
 1193TIP3    H225215   6.180   3.651   0.971 -0.0811 -0.0556  2.0202
 1194TIP3   OH225216   6.107   2.195   7.187 -0.1627  0.6176 -0.5364
 1194TIP3    H125217   6.136   2.141   7.261 -0.7006 -0.9939 -1.4504
 1194TIP3    H225218   6.167   2.269   7.187 -0.2214  0.7341  1.5718
 1195TIP3   OH225219   0.967   1.133   0.697  0.4071  0.1213  0.6249
 1195TIP3    H125220   0.928   1.051   0.727  0.1955  0.2362  0.6607
 1195TIP3    H225221   1.061   1.113   0.689  0.0842 -0.8369 -1.6463
 1196TIP3   OH225222   2.325   4.817   0.339  0.6444 -0.2726  0.2609
 1196TIP3    H125223   2.234   4.841   0.325  0.2778 -1.1437  1.0415
 1196TIP3    H225224   2.354   4.780   0.256  0.5603  0.7847 -0.2585
 1197TIP3   OH225225   3.243   1.704   7.174  0.5797 -0.0466 -0.0766
 1197TIP3    H125226   3.179   1.754   7.124  1.3436  0.1311 -0.9158
 1197TIP3    H225227   3.193   1.631   7.211 -0.1673  0.2716 -0.4296
 1198TIP3   OH225228   6.301   3.766   0.960 -0.3616  0.0859 -0.1724
 1198TIP3    H125229   6.292   3.796   1.050  0.2854  1.1282 -0.4368
 1198TIP3    H225230   6.315   3.846   0.909  0.0676 -0.5494 -1.0896
 1199TIP3   OH225231   3.986   3.804   1.264  0.1612 -0.7806  0.0704
 1199TIP3    H125232   3.975   3.823   1.171 -3.8271 -0.9048  0.3544
 1199TIP3    H225233   3.903   3.831   1.304  2.3786  1.1495  3.9945
 1200TIP3   OH225234   6.537   3.477   1.483  0.7905  0.2450 -0.6405
 1200TIP3    H125235   6.565   3.386   1.499 -1.0332 -0.9920 -3.5703
 1200TIP3    H225236   6.449   3.482   1.519  1.2769  1.2746  0.4865
 1201TIP3   OH225237   0.030   4.474   2.517 -0.6217 -0.3327 -0.0501
 1201TIP3    H125238   0.045   4.380   2.510  0.5363 -0.1987  0.4401
 1201TIP3    H225239   0.091   4.513   2.454 -1.7729  0.0684 -0.9661
 1202TIP3   OH225240   2.270   2.509   0.585 -0.6721  0.5003 -0.4565
 1202TIP3    H125241   2.360   2.479   0.593 -0.8005  0.1422 -0.3599
 1202TIP3    H225242   2.253   2.558   0.666 -0.1432  1.6923 -1.0461
 1203TIP3   OH225243   6.260   4.371   8.027 -0.0495  0.1576  0.2488
 1203TIP3    H125244   6.263   4.439   8.094  0.4771  0.5156 -0.1342
 1203TIP3    H225245   6.293   4.413   7.948  3.8771 -1.4678  0.7930
 1204TIP3   OH225246   5.071   2.440   1.805 -0.3666  0.1991 -0.1187
 1204TIP3    H125247   5.094   2.448   1.898 -1.0031  1.0206 -0.0199
 1204TIP3    H225248   5.056   2.347   1.792  0.5531 -0.0303  0.4010
 1205TIP3   OH225249   2.467   2.825   8.350  0.1428 -0.1423  0.4856
 1205TIP3    H125250   2.484   2.919   8.352  1.3031 -0.2968 -0.5207
 1205TIP3    H225251   2.439   2.807   8.260 -0.0509 -0.7508  0.6602
 1206TIP3   OH225252   6.803   1.379   2.076 -0.0340  0.6343 -0.2208
 1206TIP3    H125253   6.806   1.452   2.138  1.2564  0.8382 -0.5046
 1206TIP3    H225254   6.723   1.332   2.100 -0.4701  1.6748  0.4852
 1207TIP3   OH225255   3.199   3.210   7.536  0.3935  0.0133 -0.5315
 1207TIP3    H125256   3.242   3.272   7.594  1.2692 -1.8473  0.9134
 1207TIP3    H225257   3.257   3.134   7.534 -1.0966 -1.1676 -1.4183
 1208TIP3   OH225258   1.405   1.144   6.492  0.1950 -0.7298 -0.3996
 1208TIP3    H125259   1.359   1.188   6.422 -2.3102 -0.0709  1.5162
 1208TIP3    H225260   1.352   1.067   6.511 -0.3355  0.1404  1.9952
 1209TIP3   OH225261   4.360   1.595   8.263 -0.3580  0.3884 -0.3639
 1209TIP3    H125262   4.292   1.617   8.327 -0.0196  0.8584 -0.1576
 1209TIP3    H225263   4.394   1.510   8.291 -1.6265 -0.4005 -1.1154
 1210TIP3   OH225264   5.757   5.152   8.528 -0.0343  0.0879 -0.1611
 1210TIP3    H125265   5.766   5.080   8.590 -1.2349  1.7173  2.0605
 1210TIP3    H225266   5.794   5.119   8.447  0.4786 -2.6071  1.0697
 1211TIP3   OH225267   0.855   1.666   0.487 -1.1106  0.1058  0.5220
 1211TIP3    H125268   0.810   1.592   0.529 -3.0490  0.7276 -0.4100
 1211TIP3    H225269   0.815   1.673   0.401  1.2606  0.2875 -0.6347
 1212TIP3   OH225270   3.730   1.861   6.423 -0.0728 -0.1596 -0.8963
 1212TIP3    H125271   3.712   1.767   6.427  0.3504 -0.2557 -1.1245
 1212TIP3    H225272   3.646   1.903   6.440 -0.3986 -0.5843 -1.4322
 1213TIP3   OH225273   1.123   3.805   0.320  0.5552  0.0630 -0.1598
 1213TIP3    H125274   1.208   3.831   0.357  0.6028  1.0369 -0.9067
 1213TIP3    H225275   1.095   3.881   0.270 -0.6550 -0.3452 -0.1277
 1214TIP3   OH225276   5.297   4.810   7.753  1.0048 -0.0210 -0.2108
 1214TIP3    H125277   5.279   4.820   7.847  0.0783 -1.8262 -0.1488
 1214TIP3    H225278   5.385   4.846   7.742  0.3206  2.1828  0.9277
 1215TIP3   OH225279   4.720   5.280   1.385  0.2606  0.0353 -0.0392
 1215TIP3    H125280   4.767   5.210   1.340  0.5210 -0.5399  1.0795
 1215TIP3    H225281   4.772   5.295   1.465 -2.3085 -1.9034  2.2049
 1216TIP3   OH225282   3.372   2.339   1.793 -0.1106 -0.3516  0.2184
 1216TIP3    H125283   3.398   2.425   1.826  0.1817 -0.0024 -0.8784
 1216TIP3    H225284   3.316   2.358   1.718  3.0506 -1.0029 -2.5385
 1217TIP3   OH225285   1.961   1.977   1.734 -0.4509  0.8234  0.0551
 1217TIP3    H125286   2.038   1.996   1.680 -1.6557  0.9797 -1.6832
 1217TIP3    H225287   1.924   1.897   1.697 -0.0231 -0.4571  2.1854
 1218TIP3   OH225288   2.522   1.210   8.198  0.0114  0.5490 -0.2039
 1218TIP3    H125289   2.474   1.278   8.244 -1.4341 -1.0979  0.8417
 1218TIP3    H225290   2.596   1.190   8.255  0.1042  0.8223 -0.2274
 1219TIP3   OH225291   2.259   1.901   6.887 -0.3195 -0.1543 -0.0286
 1219TIP3    H125292   2.329   1.887   6.823 -0.5014  0.8591 -0.4585
 1219TIP3    H225293   2.209   1.975   6.852 -0.4100  0.4287  1.2851
 1220TIP3   OH225294   2.542   1.010   0.020 -0.2294  0.0089  0.4817
 1220TIP3    H125295   2.568   1.097  -0.009 -0.9229 -0.1647 -0.7845
 1220TIP3    H225296   2.469   1.025   0.079  0.3101  0.3228  1.0765
 1221TIP3   OH225297   3.862   3.691   0.611  0.3572 -0.5145  0.1542
 1221TIP3    H125298   3.850   3.618   0.672 -0.1689  1.1092  2.1495
 1221TIP3    H225299   3.915   3.656   0.540  0.9914 -2.5576  1.5494
 1222TIP3   OH225300   1.272   3.389   1.011  0.3625 -0.2292  0.1454
 1222TIP3    H125301   1.241   3.309   0.967  0.8093  0.9456 -2.4879
 1222TIP3    H225302   1.195   3.446   1.015  1.1632  1.2853 -3.1115
 1223TIP3   OH225303   6.060   1.857   1.007  0.5134  0.3890 -0.3138
 1223TIP3    H125304   6.097   1.776   1.042 -1.1030 -0.2008  0.1079
 1223TIP3    H225305   6.013   1.896   1.080 -1.1378  0.2313 -1.2465
 1224TIP3   OH225306   0.075   4.705   1.324 -0.2965 -0.4250  0.0987
 1224TIP3    H125307   0.143   4.647   1.358  1.7867  1.3622 -0.7504
 1224TIP3    H225308   0.039   4.748   1.402 -0.4522 -1.3878  0.5653
 1225TIP3   OH225309   3.729   1.023   2.215  0.1468 -0.4811 -0.6128
 1225TIP3    H125310   3.658   1.066   2.168 -0.0755  0.2619  0.3774
 1225TIP3    H225311   3.687   0.951   2.263 -0.3613  1.1886  1.6189
 1226TIP3   OH225312   2.055   2.328   7.615 -0.3126  0.1191  0.7468
 1226TIP3    H125313   2.056   2.333   7.710  0.9183  0.6440  0.7194
 1226TIP3    H225314   2.061   2.419   7.586  1.4997 -0.1500  0.1847
 1227TIP3   OH225315   3.888   3.678   7.041 -0.2220 -0.6169 -0.5535
 1227TIP3    H125316   3.955   3.698   6.976 -0.2951 -1.7174 -1.0003
 1227TIP3    H225317   3.806   3.678   6.991 -0.4601 -0.0091 -0.1622
 1228TIP3   OH225318   4.710   5.651   1.293  0.6759  0.1188  0.7944
 1228TIP3    H125319   4.618   5.625   1.299  0.8153 -0.0989  2.4190
 1228TIP3    H225320   4.716   5.728   1.350  1.6998 -0.4979  1.5427
 1229TIP3   OH225321   3.117   0.764   7.661  0.5184  0.2843 -0.2351
 1229TIP3    H125322   3.057   0.835   7.683 -0.3874 -0.3057 -0.7564
 1229TIP3    H225323   3.204   0.800   7.679 -0.0340  0.6050  2.1191
 1230TIP3   OH225324   3.599   3.572   2.303  1.0258  0.4470 -0.6279
 1230TIP3    H125325   3.689   3.554   2.274  0.9886  0.4039 -0.7171
 1230TIP3    H225326   3.550   3.493   2.278  1.6548 -1.1009  2.5445
 1231TIP3   OH225327   1.240   3.251   8.247 -0.3286 -0.1881  0.4320
 1231TIP3    H125328   1.149   3.280   8.256  0.0744  1.3235 -0.0966
 1231TIP3    H225329   1.280   3.316   8.189  1.1913 -0.6287  0.9515
 1232TIP3   OH225330   1.264   0.997   7.860  0.6672 -0.0145 -0.1528
 1232TIP3    H125331   1.213   0.916   7.862  1.8947 -0.8487 -1.2572
 1232TIP3    H225332   1.198   1.066   7.850 -0.3655 -0.9024  0.3289
 1233TIP3   OH225333   1.573   6.855   8.454 -0.5542 -0.3502 -0.5806
 1233TIP3    H125334   1.490   6.901   8.440 -0.4805  0.0793  0.3738
 1233TIP3    H225335   1.590   6.863   8.547 -0.4782 -2.2242 -0.3857
 1234TIP3   OH225336   0.126   5.204   6.843 -0.3507  0.2679 -0.2505
 1234TIP3    H125337   0.090   5.131   6.793  1.1195 -0.6998  0.0375
 1234TIP3    H225338   0.221   5.200   6.826  0.2096 -0.0771  2.5487
 1235TIP3   OH225339   2.940   0.901   6.655 -0.2295 -0.2315  0.7397
 1235TIP3    H125340   3.005   0.942   6.599  0.9492 -3.5568 -0.5552
 1235TIP3    H225341   2.883   0.853   6.595 -2.5785  0.7704  2.0293
 1236TIP3   OH225342   3.419   5.970   8.277 -0.1404 -0.3432  0.4329
 1236TIP3    H125343   3.335   5.992   8.237  0.3592  1.0353  0.0883
 1236TIP3    H225344   3.409   5.878   8.304 -0.8912 -0.9991 -1.8358
 1237TIP3   OH225345   4.805   5.743   2.130  0.8724  0.3393  0.1187
 1237TIP3    H125346   4.856   5.665   2.108 -0.5625 -0.6301  0.0546
 1237TIP3    H225347   4.718   5.726   2.091 -0.0177  1.1291  1.6850
 1238TIP3   OH225348   0.851   1.910   6.374  0.2859  0.7198  0.2109
 1238TIP3    H125349   0.883   1.991   6.334 -0.4063  1.0128  0.2459
 1238TIP3    H225350   0.915   1.844   6.347 -1.0759  0.5297 -2.9135
 1239TIP3   OH225351   4.323   3.848   0.345  0.0498  0.0478 -0.7052
 1239TIP3    H125352   4.235   3.875   0.317 -0.0832  1.6614  1.0070
 1239TIP3    H225353   4.319   3.852   0.441  1.5642 -1.3811 -0.5508
 1240TIP3   OH225354   3.304   2.844   2.408 -1.1311  0.7163 -0.6331
 1240TIP3    H125355   3.252   2.764   2.396  0.0591 -0.6166  2.1327
 1240TIP3    H225356   3.243   2.907   2.446 -1.2469 -0.1519  0.6748
 1241TIP3   OH225357   1.344   4.492   0.573  0.4402  0.7011 -0.3740
 1241TIP3    H125358   1.397   4.418   0.546 -0.6696 -0.0238 -0.6203
 1241TIP3    H225359   1.269   4.491   0.513  0.5078  2.1469 -0.5197
 1242TIP3   OH225360   1.005   2.697   6.126  0.0043  0.2826  0.2842
 1242TIP3    H125361   0.947   2.623   6.143 -0.1625  0.6305  1.3159
 1242TIP3    H225362   0.946   2.766   6.095  0.0865  0.1544 -0.1636
 1243TIP3   OH225363   2.374   2.691   0.279 -0.2826 -0.5637 -0.1038
 1243TIP3    H125364   2.364   2.786   0.281  2.0275 -0.2527 -1.1120
 1243TIP3    H225365   2.289   2.659   0.247 -1.3056  1.0608  0.8044
 1244TIP3   OH225366   6.169   2.525   7.828 -0.1342  0.0298 -0.9796
 1244TIP3    H125367   6.168   2.591   7.759 -0.9719 -0.5597 -1.5513
 1244TIP3    H225368   6.079   2.491   7.830  0.5566 -1.9560 -1.5519
 1245TIP3   OH225369   5.131   0.379   7.913  0.0767  0.0329  0.7813
 1245TIP3    H125370   5.043   0.343   7.907  0.5989 -1.2778  0.5942
 1245TIP3    H225371   5.177   0.341   7.838  0.5901  1.3347  0.4135
 1246TIP3   OH225372   1.768   3.316   7.363 -0.3735 -0.1834  0.0544
 1246TIP3    H125373   1.795   3.406   7.346  0.0941 -0.4880 -0.9091
 1246TIP3    H225374   1.719   3.291   7.284 -0.7900 -0.6571  0.4595
 1247TIP3   OH225375   5.854   2.039   1.727  0.4167 -0.0860 -0.6617
 1247TIP3    H125376   5.817   2.088   1.653  0.4046 -0.1717 -0.7120
 1247TIP3    H225377   5.941   2.077   1.739 -1.0724  3.0303  2.0657
 1248TIP3   OH225378   3.772   3.492   6.752 -0.0647 -0.5172 -0.1378
 1248TIP3    H125379   3.708   3.427   6.724 -0.0732 -0.5909  0.0495
 1248TIP3    H225380   3.722   3.553   6.806 -0.1591 -0.0786 -0.7082
 1249TIP3   OH225381   5.587   0.993   1.965  0.2058 -0.1474 -0.5400
 1249TIP3    H125382   5.630   0.946   2.036 -1.1133 -1.1775 -0.3882
 1249TIP3    H225383   5.503   0.948   1.953 -0.8618  1.7779 -0.7995
 1250TIP3   OH225384   5.639   3.910   0.291  0.5189  0.8505  0.1969
 1250TIP3    H125385   5.692   3.925   0.213  2.2155 -1.9572  0.6698
 1250TIP3    H225386   5.670   3.974   0.354  1.4448  1.0199 -0.4187
 1251TIP3   OH225387   1.204   4.020   1.936  0.1154  0.0891  0.1372
 1251TIP3    H125388   1.225   3.977   1.853  4.4520 -1.9270  1.9514
 1251TIP3    H225389   1.245   4.106   1.930  1.9228 -0.6872  0.6596
 1252TIP3   OH225390   1.580   4.275   7.904  0.4272  0.2515  0.2892
 1252TIP3    H125391   1.502   4.268   7.849  0.6688  1.4636 -0.2162
 1252TIP3    H225392   1.589   4.368   7.922  1.1726  0.0146  1.2089
 1253TIP3   OH225393   5.604   4.235   7.231  0.4363 -0.2301  0.1204
 1253TIP3    H125394   5.658   4.313   7.222 -0.1979  0.3002  0.7666
 1253TIP3    H225395   5.516   4.263   7.206  0.0189 -0.4784  1.2539
 1254TIP3   OH225396   5.607   2.107   1.845 -0.2693  0.1729 -0.1805
 1254TIP3    H125397   5.683   2.076   1.795 -0.1281  0.2951 -0.0415
 1254TIP3    H225398   5.644   2.162   1.914 -0.4242 -0.4248  0.3859
 1255TIP3   OH225399   5.945   3.270   0.655  0.3228 -0.4820  0.1219
 1255TIP3    H125400   6.016   3.207   0.666 -0.1029 -1.0350 -0.2304
 1255TIP3    H225401   5.872   3.218   0.622  0.1142  0.2833 -0.6521
 1256TIP3   OH225402   1.983   0.311   0.353 -0.2077  0.2857  0.3661
 1256TIP3    H125403   2.030   0.266   0.282 -0.0235  0.4746  0.3666
 1256TIP3    H225404   1.941   0.386   0.309  0.2942  0.6760  0.5330
 1257TIP3   OH225405   5.739   4.683   7.654  0.2198 -0.7954  0.0441
 1257TIP3    H125406   5.829   4.700   7.626 -0.3723 -0.2429 -1.6870
 1257TIP3    H225407   5.701   4.633   7.582 -0.2505 -3.0482  1.7529
 1258TIP3   OH225408   4.733   2.317   7.427 -0.1017  0.0547  0.2970
 1258TIP3    H125409   4.817   2.271   7.423 -0.6155 -0.9831  1.0916
 1258TIP3    H225410   4.716   2.344   7.337  0.8130 -0.2165  0.0313
 1259TIP3   OH225411   6.655   2.765   2.019 -0.4939 -0.2626  0.6255
 1259TIP3    H125412   6.731   2.711   2.038 -1.0744 -0.9723  1.0053
 1259TIP3    H225413   6.592   2.744   2.088 -1.4438 -0.5067 -0.2686
 1260TIP3   OH225414   0.639   4.976   7.267  0.3724  0.1978 -0.0813
 1260TIP3    H125415   0.575   4.919   7.224  0.6533  0.0027 -0.2393
 1260TIP3    H225416   0.598   4.999   7.350 -0.5764  1.3066 -0.8275
 1261TIP3   OH225417   4.755   1.957   0.363  0.0195 -0.1477  0.8731
 1261TIP3    H125418   4.813   2.012   0.416  1.4735 -0.4511 -0.3272
 1261TIP3    H225419   4.779   1.868   0.387  0.3051 -0.2768  0.1164
 1262TIP3   OH225420   0.121   4.617   7.234 -0.0679  0.7308 -0.2247
 1262TIP3    H125421   0.213   4.645   7.233  0.0535  0.3295 -0.4227
 1262TIP3    H225422   0.084   4.655   7.154 -0.0804  0.9076 -0.1358
 1263TIP3   OH225423   5.549   5.233   6.889 -0.1740  0.3991 -0.3677
 1263TIP3    H125424   5.577   5.315   6.929 -0.2910  0.4991 -0.4939
 1263TIP3    H225425   5.630   5.182   6.880 -0.3529 -0.3829  1.7167
 1264TIP3   OH225426   0.054   1.260   0.395  0.5893  0.4751 -0.1707
 1264TIP3    H125427   0.147   1.266   0.373  0.6952 -0.3875  0.0202
 1264TIP3    H225428   0.044   1.174   0.436 -0.3060  0.5361 -0.2406
 1265TIP3   OH225429   5.450   2.337   7.703  0.2824  0.1007  0.8898
 1265TIP3    H125430   5.382   2.374   7.646  0.9376  2.4623  1.5128
 1265TIP3    H225431   5.527   2.332   7.647  0.3615  0.2926  0.9828
 1266TIP3   OH225432   3.079   4.819   1.716 -0.4295 -0.5583 -0.0724
 1266TIP3    H125433   3.120   4.792   1.798 -1.1676 -0.5629  0.2974
 1266TIP3    H225434   3.068   4.737   1.667  2.1337 -0.3329 -1.2046
 1267TIP3   OH225435   6.634   4.585   0.948 -0.3718  0.6901  0.3502
 1267TIP3    H125436   6.627   4.505   0.896 -0.2579  1.9563 -1.7290
 1267TIP3    H225437   6.697   4.563   1.017 -0.2047 -0.9378 -0.2715
 1268TIP3   OH225438   3.907   1.440   7.946  0.1803 -0.7241 -0.6902
 1268TIP3    H125439   3.972   1.369   7.944  0.3010 -0.6177 -0.5895
 1268TIP3    H225440   3.899   1.462   8.038  1.4214  0.5426 -0.8483
 1269TIP3   OH225441   6.831   3.442   7.757 -0.1040  0.5460 -0.3853
 1269TIP3    H125442   6.810   3.532   7.732 -0.2932  0.0970 -1.9569
 1269TIP3    H225443   6.927   3.438   7.752 -0.1556  0.2998 -1.8030
 1270TIP3   OH225444   6.234   6.455   6.783 -0.9020 -0.1636 -0.2592
 1270TIP3    H125445   6.323   6.480   6.758 -0.5876  0.4495  1.3293
 1270TIP3    H225446   6.217   6.373   6.737  1.3130 -1.4288  1.0041
 1271TIP3   OH225447   1.310   1.797   7.936 -0.0600 -0.4014 -0.2204
 1271TIP3    H125448   1.286   1.866   7.998 -1.9515 -0.7603 -0.4858
 1271TIP3    H225449   1.292   1.716   7.983  0.3944 -0.7102 -0.5647
 1272TIP3   OH225450   0.420   0.224   0.997  0.0881  0.2809 -0.0471
 1272TIP3    H125451   0.473   0.162   0.946 -0.4778 -0.2643  0.0227
 1272TIP3    H225452   0.348   0.172   1.032  0.5723  0.5855  1.4964
 1273TIP3   OH225453   1.800   2.008   6.510  0.4127  0.4641 -0.3207
 1273TIP3    H125454   1.876   2.058   6.539  1.1178 -0.6979 -0.0875
 1273TIP3    H225455   1.725   2.064   6.530  1.0272  0.6338  1.7362
 1274TIP3   OH225456   3.783   2.238   2.181  0.6320  0.2139  0.6300
 1274TIP3    H125457   3.861   2.242   2.235  0.3227  0.5399  1.0582
 1274TIP3    H225458   3.783   2.319   2.131  1.6369 -0.6771 -0.8904
 1275TIP3   OH225459   0.072   3.824   7.946  0.0190  0.2614 -0.2604
 1275TIP3    H125460   0.071   3.866   8.032  0.4740 -2.2995  1.0932
 1275TIP3    H225461   0.105   3.735   7.962  2.7319  0.4576 -3.4873
 1276TIP3   OH225462   4.545   5.463   2.176 -0.0552  0.1914  0.2112
 1276TIP3    H125463   4.476   5.450   2.242 -0.6105  1.1006 -0.1660
 1276TIP3    H225464   4.624   5.427   2.217 -1.3052 -4.1304 -0.6574
 1277TIP3   OH225465   4.384   3.864   8.112  0.3555 -0.4374  0.2303
 1277TIP3    H125466   4.358   3.898   8.027  1.6309 -0.1724 -0.0782
 1277TIP3    H225467   4.323   3.902   8.174 -0.8457 -0.9577 -0.6085
 1278TIP3   OH225468   2.147   4.780   8.316 -0.1982  0.0339  0.0063
 1278TIP3    H125469   2.226   4.735   8.345 -1.1811 -1.1708  0.8962
 1278TIP3    H225470   2.075   4.723   8.343 -1.3136  0.0043 -2.6592
 1279TIP3   OH225471   0.388   4.779   7.517 -0.6360  0.1596 -0.3290
 1279TIP3    H125472   0.406   4.795   7.424 -1.7804  1.4526 -0.3795
 1279TIP3    H225473   0.301   4.738   7.517 -1.6832  2.2344  0.2117
 1280TIP3   OH225474   6.188   6.677   7.357 -0.0391  0.0543  0.7160
 1280TIP3    H125475   6.103   6.634   7.342 -0.9884  1.8095  0.7597
 1280TIP3    H225476   6.203   6.667   7.451 -0.6273  0.4591  0.8585
 1281TIP3   OH225477   2.760   1.993   1.851 -0.9023 -0.5603 -0.3482
 1281TIP3    H125478   2.802   2.075   1.826 -0.4731 -0.3743  0.9021
 1281TIP3    H225479   2.684   2.019   1.902  0.6156 -0.8745  2.2667
 1282TIP3   OH225480   0.989   5.103   7.611 -0.4598  0.1990  0.3229
 1282TIP3    H125481   0.926   5.166   7.646  0.6604  0.3459  2.2511
 1282TIP3    H225482   1.044   5.080   7.687  0.9979 -0.8665 -0.9958
 1283TIP3   OH225483   1.339   3.693   8.075  0.1769 -0.0601 -0.2879
 1283TIP3    H125484   1.249   3.705   8.045 -0.7603  0.2667  2.4552
 1283TIP3    H225485   1.351   3.760   8.142  2.9065  0.6875 -1.3697
 1284TIP3   OH225486   0.229   2.845   8.272  0.2461  0.8211  0.6924
 1284TIP3    H125487   0.202   2.829   8.182  1.9613 -0.0778  0.2853
 1284TIP3    H225488   0.268   2.762   8.301  0.5326  1.3603  1.9424
 1285TIP3   OH225489   2.084   3.013   0.200 -0.2194  0.1282  0.3791
 1285TIP3    H125490   2.123   2.982   0.118 -0.5690  0.0430  0.2437
 1285TIP3    H225491   2.040   3.094   0.177  0.8393  0.8397  0.7712
 1286TIP3   OH225492   6.876   2.967   8.276 -0.1872  0.2830 -0.2808
 1286TIP3    H125493   6.914   2.983   8.190  0.5696  0.5673  0.1020
 1286TIP3    H225494   6.840   3.052   8.303  0.3445  0.4076  0.0513
 1287TIP3   OH225495   2.371   6.817   1.262  0.0917 -0.0472 -0.5116
 1287TIP3    H125496   2.359   6.736   1.212  1.7350 -0.1768 -0.7433
 1287TIP3    H225497   2.454   6.853   1.230  0.1025  0.9876  0.6140
 1288TIP3   OH225498   3.107   3.712   0.798  0.6185  0.3259  0.5079
 1288TIP3    H125499   3.129   3.619   0.802  3.2952  0.8405 -0.3548
 1288TIP3    H225500   3.161   3.753   0.866 -1.7628  1.1333  2.0578
 1289TIP3   OH225501   2.907   1.334   8.012  0.7369 -0.6828 -0.0677
 1289TIP3    H125502   2.840   1.387   8.056  1.2145 -1.2233  1.3748
 1289TIP3    H225503   2.986   1.388   8.017  0.9377 -1.0120  0.2967
 1290TIP3   OH225504   1.358   3.543   7.768 -0.3138 -0.1018 -0.0476
 1290TIP3    H125505   1.263   3.547   7.774 -0.4756 -0.8809 -1.4535
 1290TIP3    H225506   1.377   3.449   7.762  0.4971  0.0699 -0.2918
 1291TIP3   OH225507   4.750   1.477   0.952  0.4626  0.3177 -0.2876
 1291TIP3    H125508   4.687   1.518   1.012 -0.9711 -0.8910 -0.8922
 1291TIP3    H225509   4.735   1.383   0.963  1.5501  0.0267 -1.1159
 1292TIP3   OH225510   0.161   0.048   7.548  0.1390  0.5209 -0.1754
 1292TIP3    H125511   0.158   0.078   7.457 -0.5377 -1.4861 -0.8608
 1292TIP3    H225512   0.072   0.059   7.580  0.5479  1.9990  0.5636
 1293TIP3   OH225513   3.701   5.874   1.348 -0.2287 -0.3329  0.0351
 1293TIP3    H125514   3.629   5.916   1.392  0.1913 -0.5106  0.9078
 1293TIP3    H225515   3.662   5.796   1.307 -0.8831  0.5646 -1.0891
 1294TIP3   OH225516   5.343   5.656   7.832 -0.1949  0.3203 -0.2318
 1294TIP3    H125517   5.283   5.730   7.832  1.3657  1.6716  0.9840
 1294TIP3    H225518   5.427   5.693   7.859  0.6488 -1.8916  0.4360
 1295TIP3   OH225519   3.553   3.894   0.079  0.3413 -0.0081 -0.0539
 1295TIP3    H125520   3.530   3.802   0.092  0.5764 -0.1165 -0.4068
 1295TIP3    H225521   3.483   3.942   0.124 -0.1197 -0.3473 -0.4000
 1296TIP3   OH225522   2.444   4.242   1.948  0.2433 -0.3565  0.0287
 1296TIP3    H125523   2.445   4.146   1.952  0.2207 -0.4375 -1.4334
 1296TIP3    H225524   2.437   4.269   2.039 -0.9908 -1.7595  0.3877
 1297TIP3   OH225525   5.145   0.578   8.448  0.6062  0.7584  0.0359
 1297TIP3    H125526   5.224   0.541   8.488  0.0427  0.9106  1.3602
 1297TIP3    H225527   5.109   0.507   8.395 -1.0573 -1.1375  3.3716
 1298TIP3   OH225528   0.060   2.783   6.273  0.4979 -0.2678 -0.4118
 1298TIP3    H125529   0.105   2.713   6.226  0.8025  0.5334 -1.3398
 1298TIP3    H225530   0.114   2.860   6.259  0.4245  0.0682  1.0030
 1299TIP3   OH225531   6.570   6.240   0.224  0.3151 -0.0012  0.4260
 1299TIP3    H125532   6.484   6.235   0.182  0.3532 -0.5724  0.4069
 1299TIP3    H225533   6.611   6.155   0.205  1.1082  0.4652 -0.0515
 1300TIP3   OH225534   6.412   4.751   0.589  0.1468 -0.2887  0.0861
 1300TIP3    H125535   6.436   4.740   0.497 -0.8445  1.4333 -0.4185
 1300TIP3    H225536   6.490   4.788   0.630 -0.1934  1.3265 -0.6435
 1301TIP3   OH225537   2.673   0.139   1.403 -0.3149 -0.1311 -0.4231
 1301TIP3    H125538   2.759   0.155   1.363 -1.4167  0.3781 -2.7123
 1301TIP3    H225539   2.625   0.088   1.338 -2.1907  0.6839  0.2648
 1302TIP3   OH225540   5.291   4.389   7.791 -0.8179 -0.2117  0.3774
 1302TIP3    H125541   5.243   4.435   7.860 -0.8452  1.2191 -0.5428
 1302TIP3    H225542   5.273   4.297   7.806 -0.6540  0.0306  2.4067
 1303TIP3   OH225543   5.381   6.829   0.823 -0.3704 -0.0986  0.2798
 1303TIP3    H125544   5.463   6.803   0.866 -0.1040  2.0509  1.1749
 1303TIP3    H225545   5.352   6.750   0.777  2.1631 -0.9324 -0.0179
 1304TIP3   OH225546   6.036   2.584   6.788 -0.2518  0.4382  0.4140
 1304TIP3    H125547   6.097   2.591   6.861  0.3801 -1.5239  0.1383
 1304TIP3    H225548   6.089   2.601   6.710 -0.9620  2.7204  0.3537
 1305TIP3   OH225549   0.161   4.916   1.972  0.4758  0.1503  0.2928
 1305TIP3    H125550   0.221   4.954   2.036  0.3677  0.1331  0.4057
 1305TIP3    H225551   0.098   4.866   2.024 -0.2628  1.0200  0.2808
 1306TIP3   OH225552   0.455   1.742   6.620 -0.0990  0.5897  0.1102
 1306TIP3    H125553   0.500   1.821   6.589  2.7025 -0.4335  1.2605
 1306TIP3    H225554   0.452   1.684   6.544 -2.4815  1.7856 -0.8409
 1307TIP3   OH225555   1.016   2.992   1.682 -0.0765  0.1405  0.5688
 1307TIP3    H125556   1.043   3.082   1.665  0.1090  0.2475  1.3887
 1307TIP3    H225557   0.928   3.001   1.719 -1.5232 -0.2250 -2.5156
 1308TIP3   OH225558   1.017   6.256   7.933 -0.3456 -0.3759  0.2368
 1308TIP3    H125559   1.096   6.239   7.881  0.3139  1.2345  0.6713
 1308TIP3    H225560   0.945   6.245   7.871  0.4149  1.3733 -1.0284
 1309TIP3   OH225561   0.998   1.556   1.562  0.3578 -0.8064 -0.3994
 1309TIP3    H125562   0.903   1.559   1.570  0.3055  1.7614 -1.2356
 1309TIP3    H225563   1.029   1.528   1.649 -1.1266 -1.8040 -0.1616
 1310TIP3   OH225564   3.712   5.971   7.372 -0.3486  0.0984  0.4573
 1310TIP3    H125565   3.797   6.009   7.352  0.4367 -1.0934  1.4230
 1310TIP3    H225566   3.653   6.047   7.378  0.4860  0.8887 -0.8281
 1311TIP3   OH225567   6.801   3.281   0.067  0.0490  0.1000  0.1212
 1311TIP3    H125568   6.767   3.351   0.123 -2.5835 -1.4832  0.6855
 1311TIP3    H225569   6.863   3.234   0.122  2.2933  2.2027 -0.4476
 1312TIP3   OH225570   4.824   0.147   2.758  0.0487 -0.2363  0.1198
 1312TIP3    H125571   4.908   0.146   2.713  0.9552 -0.3944  1.7250
 1312TIP3    H225572   4.806   0.054   2.776 -0.8322 -0.2604 -0.8359
 1313TIP3   OH225573   3.609   4.393   1.901  0.5931 -0.1463  0.1535
 1313TIP3    H125574   3.518   4.377   1.875  1.1113 -1.8808 -0.7832
 1313TIP3    H225575   3.629   4.322   1.963  1.1962  0.4247  0.6239
 1314TIP3   OH225576   0.861   5.384   1.527 -0.1411 -0.2136 -0.4304
 1314TIP3    H125577   0.858   5.397   1.622 -0.9061 -2.6926 -0.0333
 1314TIP3    H225578   0.886   5.469   1.492  1.2548  0.5090  2.0604
 1315TIP3   OH225579   4.450   0.294   6.703  0.1296 -0.3782  0.7345
 1315TIP3    H125580   4.453   0.387   6.680 -2.5904 -0.0422  1.3639
 1315TIP3    H225581   4.488   0.291   6.791  0.5367  0.0680  0.5831
 1316TIP3   OH225582   6.599   5.253   7.647  0.3084  0.6085  0.0345
 1316TIP3    H125583   6.587   5.208   7.731  0.4189 -0.1370 -0.3368
 1316TIP3    H225584   6.692   5.243   7.627 -0.1966 -1.8163 -1.5605
 1317TIP3   OH225585   0.666   6.029   2.298  0.1021 -0.0551 -0.7545
 1317TIP3    H125586   0.671   5.934   2.309  0.2280  0.0863  0.6098
 1317TIP3    H225587   0.598   6.042   2.232  2.3320 -1.1920 -3.4561
 1318TIP3   OH225588   1.834   3.092   1.848 -0.2101 -0.2048 -0.3532
 1318TIP3    H125589   1.750   3.101   1.803 -1.1568 -0.6465  1.2618
 1318TIP3    H225590   1.869   3.181   1.850 -1.1312  0.1710 -0.1385
 1319TIP3   OH225591   2.479   3.844   8.435  0.3560  0.1394  0.1252
 1319TIP3    H125592   2.451   3.882   8.518 -0.2867 -0.7279  0.3306
 1319TIP3    H225593   2.574   3.855   8.433  0.7512 -2.0357  2.1714
 1320TIP3   OH225594   4.690   5.552   7.451  0.0923  0.3398 -0.3203
 1320TIP3    H125595   4.706   5.560   7.357 -2.5354 -2.4725 -1.1977
 1320TIP3    H225596   4.611   5.604   7.466 -0.7123 -0.9011 -0.1577
 1321TIP3   OH225597   1.637   1.982   7.106 -0.7687  0.5586 -0.0496
 1321TIP3    H125598   1.648   2.039   7.029  0.4181  1.2952  0.6332
 1321TIP3    H225599   1.578   2.031   7.163 -1.5970  0.0410 -0.4413
 1322TIP3   OH225600   0.540   4.495   0.265 -0.3731  0.3678 -0.2696
 1322TIP3    H125601   0.506   4.585   0.264 -0.5863  0.2795 -0.6994
 1322TIP3    H225602   0.603   4.495   0.338  3.1982  2.2081 -3.0374
 1323TIP3   OH225603   4.985   2.842   8.320  0.3147 -0.0824 -0.0098
 1323TIP3    H125604   4.985   2.791   8.239  2.4174  0.6135 -0.5078
 1323TIP3    H225605   5.040   2.792   8.380  0.8917  0.6572  0.0991
 1324TIP3   OH225606   0.802   1.250   0.923  0.4001  0.1009 -0.2220
 1324TIP3    H125607   0.843   1.246   0.836  0.9839  1.5532 -0.0501
 1324TIP3    H225608   0.857   1.311   0.972 -1.7153  1.8264  0.1562
 1325TIP3   OH225609   4.463   6.504   0.745 -0.1141  0.0648 -0.3332
 1325TIP3    H125610   4.370   6.486   0.732 -0.2677  1.1257 -0.7851
 1325TIP3    H225611   4.503   6.487   0.660  0.2142 -0.9353  0.0024
 1326TIP3   OH225612   3.491   1.807   8.379  0.3892 -0.1872 -0.2518
 1326TIP3    H125613   3.493   1.857   8.297 -2.1521  0.3838 -0.0387
 1326TIP3    H225614   3.546   1.858   8.439  0.9243  0.2806 -1.1090
 1327TIP3   OH225615   5.080   4.498   7.936 -0.2364  0.6110  0.3194
 1327TIP3    H125616   5.060   4.425   7.994 -0.2900 -1.8525 -2.5262
 1327TIP3    H225617   4.996   4.541   7.922 -0.5630  0.0916  0.6321
 1328TIP3   OH225618   0.412   1.369   1.517 -0.1000  0.5361  0.0413
 1328TIP3    H125619   0.422   1.454   1.560 -0.7945  0.1152  1.0554
 1328TIP3    H225620   0.487   1.363   1.458  1.2096  0.8634  1.6338
 1329TIP3   OH225621   0.896   4.660   0.014 -0.0152  0.5218 -0.1451
 1329TIP3    H125622   0.967   4.608   0.052  0.0592 -0.9519 -2.1129
 1329TIP3    H225623   0.822   4.599   0.007 -1.2277  1.7806  1.0082
 1330TIP3   OH225624   0.732   4.889   1.306 -0.2697 -0.4977  0.3429
 1330TIP3    H125625   0.734   4.901   1.211 -1.1910  1.3093  0.5127
 1330TIP3    H225626   0.781   4.964   1.340 -0.0530 -1.0655  1.3172
 1331TIP3   OH225627   2.943   6.004   1.007  0.0746 -0.3639 -0.3482
 1331TIP3    H125628   3.034   6.026   0.988  0.9471 -1.3119  2.2684
 1331TIP3    H225629   2.917   5.946   0.936  1.1233  0.7511 -1.7036
 1332TIP3   OH225630   6.922   2.131   2.351  0.0247  0.0094 -0.2332
 1332TIP3    H125631   6.906   2.214   2.396 -1.8302  0.0231 -0.8524
 1332TIP3    H225632   7.013   2.137   2.322  0.0199  1.7054 -0.0074
 1333TIP3   OH225633   2.841   0.687   0.751 -0.3868 -0.0792  0.0166
 1333TIP3    H125634   2.829   0.780   0.765  0.5143 -0.0005  0.2940
 1333TIP3    H225635   2.792   0.645   0.822  1.3093  0.2440  1.4148
 1334TIP3   OH225636   3.006   6.349   7.638 -0.1891  0.1734  0.2093
 1334TIP3    H125637   3.018   6.380   7.727  0.2018 -0.6163  0.4344
 1334TIP3    H225638   3.019   6.254   7.643  4.7978  0.4734 -1.4533
 1335TIP3   OH225639   4.494   0.532   7.027  0.0129  0.6269 -0.5463
 1335TIP3    H125640   4.507   0.612   6.975 -0.2565  0.4092 -0.9499
 1335TIP3    H225641   4.399   0.522   7.033 -0.0101  1.4892  1.2919
 1336TIP3   OH225642   2.492   2.585   7.728  0.6801 -0.1171 -0.1193
 1336TIP3    H125643   2.436   2.580   7.805 -0.6628 -1.1969 -1.1268
 1336TIP3    H225644   2.555   2.514   7.739  0.9787  0.2187  0.3484
 1337TIP3   OH225645   1.706   5.828   8.165 -0.0829 -0.1230  0.0573
 1337TIP3    H125646   1.616   5.795   8.158  0.0664 -0.3336 -1.2984
 1337TIP3    H225647   1.749   5.767   8.226 -0.5247 -0.8263 -0.3135
 1338TIP3   OH225648   1.732   4.924   7.811 -1.0371 -0.0930  0.0209
 1338TIP3    H125649   1.664   4.983   7.843 -2.9272 -1.3317 -1.4774
 1338TIP3    H225650   1.758   4.872   7.887 -0.5368  1.4657  0.9754
 1339TIP3   OH225651   2.419   5.161   0.144  0.1372 -0.1976  0.0060
 1339TIP3    H125652   2.442   5.098   0.212  0.0463  0.7676  0.9559
 1339TIP3    H225653   2.327   5.181   0.161  0.4763  1.0550  0.4437
 1340TIP3   OH225654   0.487   1.098   7.432 -0.2441  0.2387 -0.0435
 1340TIP3    H125655   0.522   1.185   7.452  1.9334 -1.0316  2.3523
 1340TIP3    H225656   0.420   1.084   7.499  0.5866 -0.5046  0.6658
 1341TIP3   OH225657   4.409   3.091   8.358 -0.5120  0.2062  0.5783
 1341TIP3    H125658   4.491   3.063   8.400 -0.7512  1.0783  1.6546
 1341TIP3    H225659   4.401   3.032   8.282  1.7890  0.9202 -0.3314
 1342TIP3   OH225660   0.561   3.762   7.681 -0.3566  0.1166  0.4534
 1342TIP3    H125661   0.520   3.715   7.754  1.5501 -1.0889  0.8211
 1342TIP3    H225662   0.569   3.852   7.713 -1.0026 -0.0470  1.1003
 1343TIP3   OH225663   2.536   3.658   8.134 -0.3056 -0.2873  0.2148
 1343TIP3    H125664   2.442   3.649   8.116 -0.5038 -0.8343  1.3824
 1343TIP3    H225665   2.542   3.656   8.230  1.0316 -1.8060  0.1421
 1344TIP3   OH225666   5.136   4.808   6.615  0.8125  0.3938 -0.0683
 1344TIP3    H125667   5.208   4.746   6.601 -0.3440 -0.5274 -2.6108
 1344TIP3    H225668   5.078   4.763   6.676  1.0320 -0.1000 -0.2138
 1345TIP3   OH225669   6.089   1.382   1.531 -0.4649 -0.1651  0.0526
 1345TIP3    H125670   6.059   1.455   1.476 -1.1955 -1.8918 -1.9669
 1345TIP3    H225671   6.015   1.321   1.532  0.2003 -1.0082  1.5305
 1346TIP3   OH225672   6.502   6.149   0.609  0.1210  0.0428 -0.0650
 1346TIP3    H125673   6.477   6.159   0.701 -0.4511  1.8033 -0.3866
 1346TIP3    H225674   6.432   6.193   0.560  0.4886 -0.7541 -1.3467
 1347TIP3   OH225675   2.722   2.524   0.363 -0.0246 -0.1943 -0.2955
 1347TIP3    H125676   2.682   2.566   0.287  0.2193  0.3606 -0.1274
 1347TIP3    H225677   2.669   2.446   0.379 -0.6905  0.2275 -0.4157
 1348TIP3   OH225678   5.282   3.787   6.172 -0.3068 -0.0972 -0.5219
 1348TIP3    H125679   5.288   3.810   6.079  0.8355 -0.8902 -0.6546
 1348TIP3    H225680   5.348   3.720   6.185 -2.7271 -2.5170  0.1275
 1349TIP3   OH225681   4.502   0.883   7.518  0.5721 -0.0422  0.0971
 1349TIP3    H125682   4.553   0.852   7.592  2.3490  0.0168 -1.0200
 1349TIP3    H225683   4.546   0.964   7.491 -1.9510  1.7498  0.8969
 1350TIP3   OH225684   1.593   4.186   2.201 -0.0660  0.1102  0.4911
 1350TIP3    H125685   1.633   4.264   2.163  0.0476  0.2107  0.8131
 1350TIP3    H225686   1.559   4.215   2.285 -0.1186 -0.1605  0.5649
 1351TIP3   OH225687   0.839   3.552   8.228  0.1862  0.7847 -0.5268
 1351TIP3    H125688   0.824   3.530   8.320 -0.7269  1.1020 -0.5917
 1351TIP3    H225689   0.770   3.507   8.181 -0.9739  2.6918 -0.7842
 1352TIP3   OH225690   0.801   4.869   1.009 -0.0202  0.1307  0.1985
 1352TIP3    H125691   0.877   4.859   0.952 -0.3763  2.4159 -0.7806
 1352TIP3    H225692   0.730   4.896   0.951 -1.0286  0.2090  1.4025
 1353TIP3   OH225693   1.971   1.256   7.368  0.4584  0.1646 -0.5110
 1353TIP3    H125694   2.019   1.335   7.342  0.5289  0.7505  1.3009
 1353TIP3    H225695   1.895   1.288   7.416  0.2225 -0.8561 -0.1796
 1354TIP3   OH225696   2.768   4.083   0.642 -0.2371  0.1851  0.7859
 1354TIP3    H125697   2.797   4.151   0.582 -1.9033  0.5231  0.3200
 1354TIP3    H225698   2.846   4.063   0.695  0.7284  1.2480 -0.1727
 1355TIP3   OH225699   0.620   6.097   6.402 -0.2048 -0.1102 -0.6509
 1355TIP3    H125700   0.538   6.144   6.387  0.0950  0.1128 -1.6730
 1355TIP3    H225701   0.689   6.161   6.380  0.3277  0.3360  1.9765
 1356TIP3   OH225702   3.620   4.056   0.974 -0.0896 -0.0396  0.1508
 1356TIP3    H125703   3.535   4.100   0.973  0.1792  0.7286  3.1939
 1356TIP3    H225704   3.616   3.995   0.900 -2.8094  0.7768 -0.4843
 1357TIP3   OH225705   0.584   2.397   1.291 -0.3208 -0.5764  0.0726
 1357TIP3    H125706   0.572   2.310   1.330 -1.6158 -0.8646 -0.9099
 1357TIP3    H225707   0.499   2.419   1.255  0.2743  0.6455 -0.6477
 1358TIP3   OH225708   3.572   1.402   1.485  0.2744 -0.2420 -0.2970
 1358TIP3    H125709   3.521   1.326   1.515 -2.0675  1.0051 -0.8572
 1358TIP3    H225710   3.579   1.389   1.390 -0.2630  0.3036 -0.4143
 1359TIP3   OH225711   1.954   0.500   8.483 -0.2511  0.6687 -0.0919
 1359TIP3    H125712   2.020   0.433   8.464 -0.7994  0.0899  0.0138
 1359TIP3    H225713   1.899   0.502   8.405  1.3444  2.9646 -1.2933
 1360TIP3   OH225714   5.172   6.393   7.508  0.0716 -0.0075 -0.3947
 1360TIP3    H125715   5.214   6.308   7.520  1.4216  0.6517 -0.2262
 1360TIP3    H225716   5.179   6.436   7.593 -0.8336  0.1911 -0.4040
 1361TIP3   OH225717   3.418   2.444   1.033  0.3594  0.3201  0.4696
 1361TIP3    H125718   3.494   2.500   1.048  2.3722 -1.9884 -0.4341
 1361TIP3    H225719   3.451   2.373   0.978 -1.7267 -2.3415  2.3732
 1362TIP3   OH225720   2.375   1.368   8.001  0.1926  0.1212  0.2891
 1362TIP3    H125721   2.404   1.308   7.932  0.1555  1.8488 -1.3388
 1362TIP3    H225722   2.317   1.316   8.056 -0.6706 -1.0930 -1.6508
 1363TIP3   OH225723   2.933   5.256   7.816 -0.0403 -0.1958 -0.0063
 1363TIP3    H125724   2.927   5.178   7.761  1.4491  0.0895 -0.6318
 1363TIP3    H225725   2.849   5.300   7.805  0.6095  0.5054 -3.1130
 1364TIP3   OH225726   5.982   6.316   1.966  0.2606  0.3656 -0.3588
 1364TIP3    H125727   5.940   6.231   1.956  2.1668 -0.6925  0.1603
 1364TIP3    H225728   6.064   6.309   1.918  1.9043  0.8017  2.1695
 1365TIP3   OH225729   6.334   4.227   6.497  0.1776  0.5493 -0.3605
 1365TIP3    H125730   6.420   4.203   6.462 -0.8005 -0.6894 -2.0881
 1365TIP3    H225731   6.303   4.295   6.437 -1.0430 -0.7804 -1.3118
 1366TIP3   OH225732   1.197   4.493   7.919 -0.2432  0.2004 -0.3431
 1366TIP3    H125733   1.125   4.552   7.897 -0.5649 -0.6742 -1.8035
 1366TIP3    H225734   1.155   4.414   7.952  0.2150  1.1008  2.6952
 1367TIP3   OH225735   4.073   5.169   0.130 -0.2340  0.1553  0.2630
 1367TIP3    H125736   4.039   5.114   0.201 -1.0441  0.9508  0.5038
 1367TIP3    H225737   3.996   5.199   0.083  0.2726 -0.0283 -0.7192
 1368TIP3   OH225738   3.888   3.556   7.706  0.1436 -0.5512  0.3358
 1368TIP3    H125739   3.928   3.495   7.768  2.5113  1.9273  1.4207
 1368TIP3    H225740   3.953   3.625   7.694 -2.2666  1.6713 -1.0082
 1369TIP3   OH225741   6.590   1.430   2.387  0.3474  0.0149 -0.4328
 1369TIP3    H125742   6.653   1.501   2.383 -0.2376  0.5976  0.5689
 1369TIP3    H225743   6.505   1.472   2.375 -0.0977 -0.3443  1.2595
 1370TIP3   OH225744   3.395   2.644   0.624  0.3777  0.8241  0.2127
 1370TIP3    H125745   3.402   2.725   0.572  0.6365  0.6429 -0.0398
 1370TIP3    H225746   3.315   2.656   0.676 -0.2932  0.7179 -0.7514
 1371TIP3   OH225747   4.657   3.894   6.070  0.7912  0.3456 -0.2183
 1371TIP3    H125748   4.704   3.812   6.054  0.8353  0.5466 -1.1576
 1371TIP3    H225749   4.698   3.930   6.149 -0.8337 -1.7027  1.7060
 1372TIP3   OH225750   5.023   0.571   0.314  1.1114 -0.1963 -0.2050
 1372TIP3    H125751   4.988   0.540   0.231  0.0439  0.4598 -0.0260
 1372TIP3    H225752   4.958   0.544   0.379 -0.1734  2.7507 -0.1028
 1373TIP3   OH225753   5.684   5.972   1.117 -0.3805  0.0393  0.5596
 1373TIP3    H125754   5.706   6.056   1.159 -1.1683 -0.7063  2.6214
 1373TIP3    H225755   5.746   5.910   1.155  0.5712 -0.2476 -1.3860
 1374TIP3   OH225756   6.770   2.897   6.378 -0.1149 -0.1512  0.2285
 1374TIP3    H125757   6.833   2.847   6.327 -1.3779  1.4346 -3.1977
 1374TIP3    H225758   6.698   2.837   6.395 -0.5810 -0.2206 -1.7812
 1375TIP3   OH225759   4.747   6.209   0.655 -0.0504 -0.0547 -0.2390
 1375TIP3    H125760   4.808   6.230   0.585  1.0768 -0.5506  0.5646
 1375TIP3    H225761   4.771   6.269   0.726  0.6711 -1.4046  0.6988
 1376TIP3   OH225762   3.666   2.865   7.927 -0.4220  0.7214  0.8179
 1376TIP3    H125763   3.671   2.778   7.965 -1.3064  0.8311  1.2269
 1376TIP3    H225764   3.649   2.923   8.002 -0.7575  1.1245  0.4382
 1377TIP3   OH225765   6.816   4.551   0.296 -0.3184  0.1275 -0.4252
 1377TIP3    H125766   6.750   4.536   0.364 -0.7324 -1.4326 -1.1380
 1377TIP3    H225767   6.850   4.638   0.315 -0.3289 -0.3097  1.8607
 1378TIP3   OH225768   3.788   0.662   1.876  0.4449  0.4979  0.2567
 1378TIP3    H125769   3.769   0.742   1.828  0.8238 -0.1513 -1.0212
 1378TIP3    H225770   3.732   0.666   1.954 -0.9351  1.1160 -0.7289
 1379TIP3   OH225771   6.327   3.274   7.661 -0.3264  0.8468 -0.4131
 1379TIP3    H125772   6.384   3.321   7.600  0.6217  0.4434  0.1603
 1379TIP3    H225773   6.372   3.192   7.678 -0.7594  0.8007  0.5538
 1380TIP3   OH225774   6.202   0.004   7.461  0.0927  0.7562  0.0857
 1380TIP3    H125775   6.120  -0.042   7.441 -0.7663  1.5264  1.6809
 1380TIP3    H225776   6.268  -0.044   7.411 -1.1627 -0.5638 -0.3962
 1381TIP3   OH225777   1.156   4.783   0.394 -0.2503 -0.4210  0.1195
 1381TIP3    H125778   1.210   4.839   0.450 -0.5347  0.5954 -0.5892
 1381TIP3    H225779   1.068   4.792   0.430 -0.4316  0.2250 -0.4699
 1382TIP3   OH225780   1.245   5.274   0.275  0.2868 -0.8346  0.5425
 1382TIP3    H125781   1.198   5.221   0.340  0.6643 -0.8714  0.7821
 1382TIP3    H225782   1.288   5.343   0.325 -0.8595  0.2016  0.1528
 1383TIP3   OH225783   6.695   6.850   7.221 -0.3424 -0.4769  0.2027
 1383TIP3    H125784   6.682   6.937   7.183 -1.3830 -0.3281  0.8655
 1383TIP3    H225785   6.607   6.812   7.225 -0.1319 -0.8665  1.5636
 1384TIP3   OH225786   5.434   0.239   2.463  0.1489 -0.0435 -0.6597
 1384TIP3    H125787   5.353   0.202   2.428 -0.0415  0.3908 -0.6818
 1384TIP3    H225788   5.436   0.329   2.430 -0.4224  0.6463  1.0569
 1385TIP3   OH225789   1.612   4.224   0.980 -0.0431  0.4594  0.0074
 1385TIP3    H125790   1.687   4.167   0.994  0.2732 -0.5958 -4.6398
 1385TIP3    H225791   1.648   4.313   0.990  1.2401 -0.0400  0.0752
 1386TIP3   OH225792   0.320   3.892   7.423 -0.2696  0.9761 -0.2635
 1386TIP3    H125793   0.315   3.864   7.515 -0.8788  1.1357 -0.2422
 1386TIP3    H225794   0.323   3.810   7.373  0.5304  0.8867 -0.0867
 1387TIP3   OH225795   0.342   4.041   0.019  0.2977 -0.1989 -0.1931
 1387TIP3    H125796   0.345   4.108   0.087  0.9991  0.1113 -0.5201
 1387TIP3    H225797   0.407   3.975   0.046 -0.1829 -0.6102 -0.0202
 1388TIP3   OH225798   1.495   0.207   7.162  0.1739 -0.2045 -0.3483
 1388TIP3    H125799   1.450   0.282   7.123  0.1827  0.4529  0.8938
 1388TIP3    H225800   1.554   0.244   7.227  1.5415 -1.1621 -0.9872
 1389TIP3   OH225801   0.763   6.923   8.090  0.3786  0.0976 -0.2290
 1389TIP3    H125802   0.674   6.902   8.060  0.4331  0.4767 -0.6711
 1389TIP3    H225803   0.760   7.017   8.111  0.3932 -0.1174  0.7946
 1390TIP3   OH225804   2.133   1.501   0.522 -0.1488  0.3786  0.1687
 1390TIP3    H125805   2.143   1.596   0.524 -0.3266  0.4520 -1.3212
 1390TIP3    H225806   2.132   1.475   0.614  2.2338  1.5526  0.6036
 1391TIP3   OH225807   4.875   1.707   0.472 -0.4090 -0.1024 -0.8649
 1391TIP3    H125808   4.899   1.638   0.410 -2.0475 -0.7384 -0.8509
 1391TIP3    H225809   4.875   1.663   0.557 -2.5653 -0.4407 -0.9828
 1392TIP3   OH225810   0.903   4.403   6.922 -0.5276 -0.3483  0.1096
 1392TIP3    H125811   0.916   4.478   6.864  0.9790 -0.6632  0.0120
 1392TIP3    H225812   0.896   4.328   6.864 -0.9927 -0.4257  0.2590
 1393TIP3   OH225813   5.751   2.110   6.462 -0.2178 -0.3352  0.3788
 1393TIP3    H125814   5.764   2.016   6.457 -0.3734 -0.3752  0.7245
 1393TIP3    H225815   5.840   2.146   6.474  0.0430 -0.3112 -1.4234
 1394TIP3   OH225816   6.325   1.250   8.494 -0.7369  0.5183 -0.3301
 1394TIP3    H125817   6.418   1.230   8.485 -0.8100 -0.0877  0.1916
 1394TIP3    H225818   6.295   1.266   8.404 -0.5775 -1.3459 -0.7542
 1395TIP3   OH225819   0.231   5.851   0.978  0.0854  0.6669 -0.7794
 1395TIP3    H125820   0.294   5.780   0.992  0.1632  0.8607 -0.0604
 1395TIP3    H225821   0.147   5.815   1.008  0.0195  0.6918 -0.9345
 1396TIP3   OH225822   1.878   3.251   7.888  0.4494 -0.1324  0.2940
 1396TIP3    H125823   1.971   3.229   7.893  0.8756  1.0574 -1.4511
 1396TIP3    H225824   1.877   3.339   7.849 -1.4502 -0.8252 -1.3646
 1397TIP3   OH225825   6.107   4.375   0.946 -0.0349 -0.8257  0.9230
 1397TIP3    H125826   6.185   4.386   1.000  0.2424  0.6957  0.2842
 1397TIP3    H225827   6.138   4.331   0.867  0.5734  1.1541 -0.0250
 1398TIP3   OH225828   2.048   0.227   7.346  0.2434  0.5280  0.3530
 1398TIP3    H125829   1.997   0.208   7.424  0.3752 -0.0243  0.3126
 1398TIP3    H225830   2.120   0.163   7.348  1.1667  1.5346  0.6259
 1399TIP3   OH225831   6.210   3.413   2.298  0.5933 -0.2238 -0.2466
 1399TIP3    H125832   6.226   3.420   2.204  0.5328 -1.0221 -0.3295
 1399TIP3    H225833   6.127   3.366   2.305  0.9907 -0.8887  0.1962
 1400TIP3   OH225834   5.506   6.760   7.532  0.2589 -0.3705  0.3252
 1400TIP3    H125835   5.574   6.811   7.488  0.8016 -1.0640  0.3584
 1400TIP3    H225836   5.508   6.674   7.489  0.0841 -0.7153  1.0017
 1401TIP3   OH225837   2.159   5.201   0.233  0.4673  0.1518 -0.1053
 1401TIP3    H125838   2.172   5.231   0.323  1.4715 -0.2709 -0.0972
 1401TIP3    H225839   2.112   5.118   0.241 -1.7534  1.3409 -0.1011
 1402TIP3   OH225840   4.720   1.946   1.637  0.5555  0.4624 -0.3306
 1402TIP3    H125841   4.657   2.002   1.591 -1.5654 -1.0329  0.5902
 1402TIP3    H225842   4.726   1.984   1.725  1.4454  0.9336 -0.5780
 1403TIP3   OH225843   3.980   1.937   2.042  0.5753  0.5253 -0.3730
 1403TIP3    H125844   4.005   1.948   2.133 -0.3920  0.5004 -0.0920
 1403TIP3    H225845   3.893   1.898   2.045  1.2011 -1.0696 -1.3116
 1404TIP3   OH225846   0.696   2.660   7.080  0.0967 -0.6328  0.0292
 1404TIP3    H125847   0.629   2.592   7.095 -1.5487  0.6360 -1.1986
 1404TIP3    H225848   0.656   2.740   7.116  0.1475  0.5087 -2.3191
 1405TIP3   OH225849   2.506   6.376   7.891  0.0660 -0.3205 -0.5448
 1405TIP3    H125850   2.583   6.404   7.843  1.6628 -1.9431  0.9208
 1405TIP3    H225851   2.477   6.297   7.847 -0.6628  0.1522 -0.9445
 1406TIP3   OH225852   0.739   0.380   8.547  0.2796  0.0263 -0.2711
 1406TIP3    H125853   0.694   0.407   8.627  0.8136  2.0898 -0.6166
 1406TIP3    H225854   0.669   0.371   8.482 -0.0861 -1.0689  0.2552
 1407TIP3   OH225855   1.339   6.824   2.476 -0.2446  0.4994 -0.4328
 1407TIP3    H125856   1.311   6.749   2.529  1.5108 -0.3830 -0.6551
 1407TIP3    H225857   1.270   6.836   2.411 -0.7703 -0.6455 -0.1100
 1408TIP3   OH225858   6.243   6.172   1.401 -0.1815 -0.2035  0.4607
 1408TIP3    H125859   6.240   6.254   1.452  0.9054  1.3653 -1.8488
 1408TIP3    H225860   6.248   6.103   1.468  0.8761  1.7006  2.4922
 1409TIP3   OH225861   5.841   6.901   2.337 -0.0903 -0.1869 -0.0954
 1409TIP3    H125862   5.778   6.842   2.296  0.0291 -0.0710 -0.4422
 1409TIP3    H225863   5.913   6.907   2.275  0.7257 -1.0998  0.7223
 1410TIP3   OH225864   0.101   3.162   0.145 -0.5849  0.6808 -0.0795
 1410TIP3    H125865   0.061   3.112   0.216  1.6981  0.5484  1.1963
 1410TIP3    H225866   0.171   3.105   0.112 -0.6534  1.3560 -1.4596
 1411TIP3   OH225867   2.855   3.531   0.569 -0.2310 -0.4584 -0.3967
 1411TIP3    H125868   2.923   3.464   0.577  0.8343  0.6319  0.0016
 1411TIP3    H225869   2.879   3.598   0.633 -1.3716  0.2302 -0.6490
 1412TIP3   OH225870   6.884   0.266   7.850  0.1582 -0.2219 -0.4123
 1412TIP3    H125871   6.976   0.286   7.831  0.4024 -1.3875 -0.5336
 1412TIP3    H225872   6.842   0.352   7.857  1.7176  0.4648  2.0779
 1413TIP3   OH225873   4.626   6.483   0.532 -0.4548 -0.2516 -0.3142
 1413TIP3    H125874   4.682   6.491   0.610 -1.7919  4.9514  0.5263
 1413TIP3    H225875   4.676   6.527   0.463 -2.0314  1.4918 -0.4103
 1414TIP3   OH225876   2.573   4.473   0.341 -0.4297 -0.1702  0.2720
 1414TIP3    H125877   2.578   4.538   0.271  1.9081  1.2969  1.6696
 1414TIP3    H225878   2.613   4.395   0.303 -0.2561  0.2249 -0.3856
 1415TIP3   OH225879   5.362   5.163   2.122 -0.5112 -0.7535  0.7373
 1415TIP3    H125880   5.432   5.151   2.058 -0.2746 -1.2287  1.0727
 1415TIP3    H225881   5.373   5.089   2.183  0.5963  0.8226  2.5597
 1416TIP3   OH225882   1.495   5.123   0.861 -0.3756 -1.0749 -0.2589
 1416TIP3    H125883   1.495   5.112   0.956 -2.4689  1.2926  0.1392
 1416TIP3    H225884   1.436   5.055   0.828 -1.3570 -0.5934  0.4359
 1417TIP3   OH225885   5.508   6.435   1.132  1.1173  0.1889  0.6347
 1417TIP3    H125886   5.558   6.497   1.079  0.8548 -1.5546 -1.8123
 1417TIP3    H225887   5.427   6.481   1.154  1.8022  1.4051  0.6690
 1418TIP3   OH225888   2.189   6.853   2.251 -0.7071 -0.3518 -0.1891
 1418TIP3    H125889   2.126   6.903   2.200 -1.3045  1.4410  2.1248
 1418TIP3    H225890   2.142   6.774   2.278 -1.4079  0.1633  0.1097
 1419TIP3   OH225891   0.096   3.796   6.758 -0.1099  0.0338 -0.0383
 1419TIP3    H125892   0.008   3.767   6.733  0.9468 -2.4750 -1.1247
 1419TIP3    H225893   0.099   3.888   6.732 -2.6486  0.4069  0.7518
 1420TIP3   OH225894   6.690   6.208   8.286 -0.2969  0.1663  0.5574
 1420TIP3    H125895   6.670   6.126   8.241  0.1500  0.4219 -0.1219
 1420TIP3    H225896   6.606   6.253   8.293 -0.6741 -0.6557  1.5783
 1421TIP3   OH225897   0.508   2.148   0.430 -0.7859 -0.2872  0.1077
 1421TIP3    H125898   0.501   2.243   0.425 -0.5378 -0.2942 -0.4578
 1421TIP3    H225899   0.599   2.129   0.407 -0.5266 -0.5945  1.3366
 1422TIP3   OH225900   4.610   6.759   1.522  0.8285  0.0575 -0.3892
 1422TIP3    H125901   4.603   6.830   1.459 -0.2615  0.4324  0.1210
 1422TIP3    H225902   4.636   6.801   1.604 -0.9382  0.0918  0.2082
 1423TIP3   OH225903   6.501   5.921   7.939 -0.1903 -0.1474  0.3330
 1423TIP3    H125904   6.555   5.979   7.887  2.7423 -2.6366  0.3050
 1423TIP3    H225905   6.521   5.945   8.030 -1.0218  0.5796  0.3296
 1424TIP3   OH225906   6.364   2.380   0.282  0.0830 -0.2238 -0.1433
 1424TIP3    H125907   6.379   2.403   0.374  1.6382 -0.9312 -0.1857
 1424TIP3    H225908   6.275   2.410   0.264  1.2983  4.3282  0.2043
 1425TIP3   OH225909   6.147   4.196   0.615  0.0114 -0.2874 -0.4027
 1425TIP3    H125910   6.107   4.109   0.611 -0.1174 -0.1823 -1.9894
 1425TIP3    H225911   6.072   4.257   0.613  0.1462 -0.1274 -0.6547
 1426TIP3   OH225912   5.173   2.968   7.325  0.1796  0.3007  0.1716
 1426TIP3    H125913   5.099   2.937   7.378  0.0614 -1.6876 -1.0407
 1426TIP3    H225914   5.242   2.905   7.342  0.7616  0.7152 -0.6074
 1427TIP3   OH225915   5.950   3.408   1.457 -0.5387 -0.0838 -0.0048
 1427TIP3    H125916   5.872   3.353   1.462 -0.6516  0.0310 -0.4606
 1427TIP3    H225917   5.940   3.471   1.528 -1.0926  0.2234 -0.3511
 1428TIP3   OH225918   3.938   0.925   7.602 -0.2626  0.1339  0.2274
 1428TIP3    H125919   3.931   0.853   7.665  0.9882  0.1204  0.3864
 1428TIP3    H225920   4.022   0.966   7.622  0.5081 -0.2959 -1.8325
 1429TIP3   OH225921   5.661   4.070   8.331  0.8405 -0.5767 -0.5386
 1429TIP3    H125922   5.611   4.007   8.278 -1.3654 -0.1875  0.9329
 1429TIP3    H225923   5.694   4.134   8.268  1.4051 -2.0653 -1.8199
 1430TIP3   OH225924   2.288   6.626   8.108  0.1109  0.9353  0.3052
 1430TIP3    H125925   2.351   6.577   8.161  0.4162  0.3965 -0.5352
 1430TIP3    H225926   2.342   6.690   8.061 -0.1107  1.1599  0.3543
 1431TIP3   OH225927   0.220   6.091   6.799  0.0325 -0.0352 -0.1941
 1431TIP3    H125928   0.270   6.018   6.834 -0.2501  0.0093  0.3079
 1431TIP3    H225929   0.215   6.154   6.870 -2.1013 -0.7166  0.3538
 1432TIP3   OH225930   4.276   0.784   8.206  0.0406 -0.1664 -0.0429
 1432TIP3    H125931   4.354   0.781   8.261  0.3290  1.0192 -0.3381
 1432TIP3    H225932   4.203   0.789   8.268  0.2629 -0.3311  0.2342
 1433TIP3   OH225933   6.208   3.816   1.230  0.7906  0.0367  0.5481
 1433TIP3    H125934   6.237   3.860   1.310  1.6904  2.0048 -0.7959
 1433TIP3    H225935   6.119   3.849   1.215  0.5160 -0.5422  0.8530
 1434TIP3   OH225936   5.286   5.937   0.347  0.4754 -0.3595 -0.1704
 1434TIP3    H125937   5.272   5.870   0.414 -3.1452 -0.2896 -0.6410
 1434TIP3    H225938   5.314   6.014   0.397  1.1536 -1.2107  0.8162
 1435TIP3   OH225939   2.157   6.815   0.018  0.2219 -0.5332  0.3881
 1435TIP3    H125940   2.212   6.854   0.086 -0.3868  0.4228  0.3507
 1435TIP3    H225941   2.154   6.722   0.040  1.5209 -0.5315  0.6137
 1436TIP3   OH225942   6.741   5.477   0.104  0.0466  0.1057 -0.4911
 1436TIP3    H125943   6.688   5.497   0.181  0.4179  0.7936 -0.4136
 1436TIP3    H225944   6.803   5.410   0.134 -0.4935 -0.3893 -0.4709
 1437TIP3   OH225945   0.397   5.243   1.153  0.4807  0.0426 -0.1729
 1437TIP3    H125946   0.403   5.187   1.075  0.1016 -1.7443  1.0014
 1437TIP3    H225947   0.487   5.270   1.170  0.9110 -1.3978  0.0043
 1438TIP3   OH225948   1.466   1.591   8.217  0.1107  0.2764  0.2407
 1438TIP3    H125949   1.384   1.630   8.246 -0.0183  0.9847 -0.9670
 1438TIP3    H225950   1.448   1.562   8.128  1.3577  1.1198 -0.3158
 1439TIP3   OH225951   5.005   2.466   0.824  0.3440  0.0245  0.3520
 1439TIP3    H125952   4.940   2.435   0.887  0.5176  1.2930  1.2016
 1439TIP3    H225953   4.959   2.533   0.773  1.2136  1.6839  1.6524
 1440TIP3   OH225954   3.702   2.221   0.738 -0.6400  0.6959  0.3192
 1440TIP3    H125955   3.719   2.307   0.777 -1.8500 -0.1797  3.0636
 1440TIP3    H225956   3.624   2.234   0.684 -0.7529  1.3753  0.6308
 1441TIP3   OH225957   4.060   4.570   1.620  0.4001 -0.3486  0.5369
 1441TIP3    H125958   3.967   4.584   1.640 -0.2163 -0.0897 -2.1617
 1441TIP3    H225959   4.062   4.483   1.580  1.2704 -0.2058  0.2609
 1442TIP3   OH225960   6.742   3.754   8.356  0.2083  0.0973  0.5098
 1442TIP3    H125961   6.708   3.680   8.306  0.5940 -0.7424  1.4505
 1442TIP3    H225962   6.692   3.829   8.325 -0.7672 -0.6955  0.1220
 1443TIP3   OH225963   5.371   1.567   7.231 -0.0155  0.3883 -0.1265
 1443TIP3    H125964   5.374   1.474   7.208  2.3527  0.4709 -0.3521
 1443TIP3    H225965   5.277   1.589   7.230 -0.5523 -1.7027 -1.1666
 1444TIP3   OH225966   1.060   0.527   6.687 -0.3986 -0.2725 -0.0137
 1444TIP3    H125967   0.989   0.591   6.697 -1.6735 -1.2883 -1.7495
 1444TIP3    H225968   1.138   0.580   6.672 -1.0163  0.8815  0.6787
 1445TIP3   OH225969   5.777   0.704   0.108 -0.2085  0.2832  0.3538
 1445TIP3    H125970   5.716   0.718   0.180 -0.5748  0.6823 -0.0249
 1445TIP3    H225971   5.763   0.613   0.082 -0.4059  0.2752  0.4838
 1446TIP3   OH225972   0.957   5.433   7.478  0.6748  0.1330 -0.0740
 1446TIP3    H125973   0.918   5.367   7.420 -0.7450  0.2275  0.7120
 1446TIP3    H225974   0.964   5.389   7.563 -2.1924  1.4999  1.0004
 1447TIP3   OH225975   3.886   1.594   8.215 -0.2061 -0.2316  0.0841
 1447TIP3    H125976   3.852   1.670   8.169 -1.0782 -0.9429 -0.4787
 1447TIP3    H225977   3.923   1.629   8.296 -0.8656  0.7449 -0.0235
 1448TIP3   OH225978   1.662   4.038   1.875 -0.0774  0.2886 -0.2569
 1448TIP3    H125979   1.653   3.949   1.842  0.9877  0.2294 -0.4301
 1448TIP3    H225980   1.756   4.048   1.891 -0.2359  1.2415  0.1509
 1449TIP3   OH225981   5.438   6.143   8.288  0.0491 -0.5272 -0.0748
 1449TIP3    H125982   5.503   6.191   8.238  0.4846  0.9339  1.7980
 1449TIP3    H225983   5.370   6.207   8.307 -1.3944 -1.7206 -0.9395
 1450TIP3   OH225984   1.029   4.255   0.681 -0.0097 -0.1856  0.1410
 1450TIP3    H125985   0.966   4.194   0.718 -2.1332  3.0583  2.4846
 1450TIP3    H225986   1.099   4.260   0.746 -0.2725  0.4533  0.3832
 1451TIP3   OH225987   6.136   5.663   2.048  0.2035  0.1247  0.5752
 1451TIP3    H125988   6.076   5.669   2.122 -1.0144 -0.6942 -0.3153
 1451TIP3    H225989   6.166   5.572   2.048 -1.4432 -0.4988 -1.1143
 1452TIP3   OH225990   3.533   2.101   7.483 -0.1327 -0.2388  0.1396
 1452TIP3    H125991   3.442   2.130   7.485  0.3886  1.4261  0.6332
 1452TIP3    H225992   3.567   2.133   7.399  0.5377  0.9209  0.8311
 1453TIP3   OH225993   5.605   3.242   0.700 -0.0154  0.0716  0.0989
 1453TIP3    H125994   5.575   3.321   0.745 -2.9947  0.2276 -1.8287
 1453TIP3    H225995   5.646   3.189   0.769 -2.5237  1.1189  2.6158
 1454TIP3   OH225996   4.234   0.346   6.869  0.1065  0.2734  0.2213
 1454TIP3    H125997   4.151   0.390   6.849 -0.2277 -0.5231 -0.2011
 1454TIP3    H225998   4.300   0.395   6.821 -0.0370  1.2334  0.9762
 1455TIP3   OH225999   4.719   6.520   7.427  0.3138 -0.6964 -0.9650
 1455TIP3    H126000   4.762   6.461   7.489  0.2139 -0.1839 -0.3950
 1455TIP3    H226001   4.660   6.463   7.377 -0.7651 -0.8982  0.4622
 1456TIP3   OH226002   4.718   1.514   2.145 -0.3351 -0.7766  0.8390
 1456TIP3    H126003   4.758   1.434   2.179  2.1407 -0.0507 -0.1237
 1456TIP3    H226004   4.788   1.557   2.096 -2.1215  1.0493 -0.2979
 1457TIP3   OH226005   6.602   4.587   6.509 -0.3719 -0.0995 -0.2435
 1457TIP3    H126006   6.666   4.648   6.473 -0.1608 -0.6870 -0.8917
 1457TIP3    H226007   6.594   4.518   6.442  0.5618 -1.6070  1.1246
 1458TIP3   OH226008   6.047   6.300   7.189  0.5929  0.1398  0.1884
 1458TIP3    H126009   5.986   6.288   7.262  1.6895 -0.1762  1.0770
 1458TIP3    H226010   6.004   6.366   7.134  0.8706  2.3725  2.4277
 1459TIP3   OH226011   4.894   4.719   7.719 -0.2174  0.3112  0.0847
 1459TIP3    H126012   4.803   4.713   7.687 -0.7092 -2.5961  1.7070
 1459TIP3    H226013   4.886   4.718   7.814  1.5235  1.4699  0.2952
 1460TIP3   OH226014   3.122   6.596   7.597  0.5842 -0.0771 -0.0747
 1460TIP3    H126015   3.071   6.520   7.568 -1.3146  0.7033  1.0823
 1460TIP3    H226016   3.213   6.569   7.585 -0.0131 -2.7306  0.7388
 1461TIP3   OH226017   5.092   3.301   2.130  0.5258 -0.0663  0.1202
 1461TIP3    H126018   5.148   3.222   2.128 -0.5465 -0.8694  0.7780
 1461TIP3    H226019   5.008   3.270   2.165 -0.0592  1.2952 -0.0233
 1462TIP3   OH226020   0.555   2.685   0.585  0.3463 -0.1716  0.2171
 1462TIP3    H126021   0.469   2.660   0.550  1.0936 -1.8782 -0.5523
 1462TIP3    H226022   0.555   2.653   0.675 -0.3668  1.2613  0.7628
 1463TIP3   OH226023   2.543   4.401   8.560  0.6165  0.0709 -0.1525
 1463TIP3    H126024   2.591   4.319   8.547  0.6807 -0.3918  2.5647
 1463TIP3    H226025   2.481   4.382   8.630 -3.3137  0.7846 -3.0853
 1464TIP3   OH226026   4.567   4.323   0.226 -0.0685  0.0429  0.5158
 1464TIP3    H126027   4.645   4.295   0.179  0.8276  2.8558  0.1343
 1464TIP3    H226028   4.503   4.345   0.158 -1.3414 -2.3633  0.8247
 1465TIP3   OH226029   5.566   6.853   1.995 -0.2129 -0.0865 -0.2223
 1465TIP3    H126030   5.512   6.907   1.937  0.0709 -0.2762 -0.6643
 1465TIP3    H226031   5.654   6.856   1.956  0.2110  0.5999  0.7489
 1466TIP3   OH226032   4.931   0.279   1.931 -0.1966 -0.5560  0.0002
 1466TIP3    H126033   4.878   0.255   1.855  0.1968  0.5330 -0.6598
 1466TIP3    H226034   4.927   0.375   1.933 -0.1084 -0.5683  1.2973
 1467TIP3   OH226035   6.464   3.393   1.867  0.4859  0.1921 -0.3414
 1467TIP3    H126036   6.557   3.411   1.852  0.1138  1.5758 -1.1743
 1467TIP3    H226037   6.441   3.326   1.803  0.4675  1.2552 -1.4662
 1468TIP3   OH226038   0.252   5.120   0.700 -0.0599  0.2087  0.0663
 1468TIP3    H126039   0.204   5.094   0.622  0.0168  1.8306 -0.5528
 1468TIP3    H226040   0.211   5.202   0.728  2.2519  1.6508 -0.4528
 1469TIP3   OH226041   3.225   1.378   1.248  0.3458  0.0592  0.5966
 1469TIP3    H126042   3.196   1.462   1.284  0.4321 -0.3990  1.7838
 1469TIP3    H226043   3.243   1.324   1.325  0.4529 -0.9973 -0.1508
 1470TIP3   OH226044   4.577   2.419   0.470  0.0316  0.0228 -0.4107
 1470TIP3    H126045   4.606   2.425   0.561 -0.3419 -1.1417 -0.2007
 1470TIP3    H226046   4.657   2.407   0.420  0.0875 -1.2680 -0.0286
 1471TIP3   OH226047   3.233   4.440   8.038 -0.4168  0.3647 -0.3289
 1471TIP3    H126048   3.177   4.451   7.961 -0.5016 -1.1188 -0.5049
 1471TIP3    H226049   3.199   4.361   8.081 -0.7412  1.4764  1.5677
 1472TIP3   OH226050   3.474   3.662   7.536 -0.4041  0.1311  0.3782
 1472TIP3    H126051   3.527   3.636   7.611  1.3139  1.5594 -0.2622
 1472TIP3    H226052   3.390   3.618   7.549  0.1677 -0.4178  2.6125
 1473TIP3   OH226053   2.222   3.950   8.338 -0.6295 -0.1182 -0.5499
 1473TIP3    H126054   2.189   3.871   8.296 -0.3044 -0.8248  0.4903
 1473TIP3    H226055   2.316   3.935   8.346 -0.5067  0.5387 -0.6717
 1474TIP3   OH226056   3.350   4.828   1.612  0.2537 -0.3652  0.7716
 1474TIP3    H126057   3.266   4.874   1.621  1.3674  1.6897  1.3793
 1474TIP3    H226058   3.367   4.791   1.699 -0.4319 -1.6109  0.3995
 1475TIP3   OH226059   3.885   6.834   0.611 -0.2250  0.2911  0.4099
 1475TIP3    H126060   3.958   6.856   0.670  0.3913  0.1884 -0.3028
 1475TIP3    H226061   3.926   6.828   0.525 -1.1218  0.4331 -0.0276
 1476TIP3   OH226062   0.303   4.520   8.327  0.0622  0.5110 -0.1391
 1476TIP3    H126063   0.377   4.516   8.266  0.4208  0.5671  0.2902
 1476TIP3    H226064   0.324   4.455   8.394 -0.1482  0.7233  0.1292
 1477TIP3   OH226065   4.783   5.493   0.304 -0.0878 -0.4666 -0.0593
 1477TIP3    H126066   4.816   5.489   0.214 -2.0300  0.0780 -0.8604
 1477TIP3    H226067   4.688   5.491   0.294 -0.3505 -0.4247  2.0089
 1478TIP3   OH226068   3.094   3.013   1.883  0.4321 -0.5529 -0.0739
 1478TIP3    H126069   3.043   2.955   1.826  0.0022 -0.2473 -0.0081
 1478TIP3    H226070   3.070   2.987   1.972  1.4323 -1.3241 -0.0023
 1479TIP3   OH226071   2.417   0.837   7.364  1.3730  0.5520 -0.2878
 1479TIP3    H126072   2.382   0.775   7.299  1.2576  0.7379 -0.4021
 1479TIP3    H226073   2.380   0.808   7.447  0.1730  1.3229 -0.5409
 1480TIP3   OH226074   6.388   3.804   0.212 -0.2532 -0.1993 -0.0620
 1480TIP3    H126075   6.472   3.821   0.256 -0.1502 -1.0890  0.0971
 1480TIP3    H226076   6.372   3.711   0.226 -1.1550 -0.0878 -0.3060
 1481TIP3   OH226077   2.610   4.821   7.033 -0.4272 -0.3802  0.4288
 1481TIP3    H126078   2.661   4.896   7.063  0.3656 -0.2762 -1.0698
 1481TIP3    H226079   2.521   4.839   7.060 -0.3073  1.2901 -0.1998
 1482TIP3   OH226080   1.420   6.417   1.766  0.4090  0.4203 -0.3208
 1482TIP3    H126081   1.439   6.405   1.673 -3.3571  0.5860 -1.2718
 1482TIP3    H226082   1.425   6.328   1.802 -1.0116 -0.1462 -1.4035
 1483TIP3   OH226083   2.345   5.699   6.938  0.3748 -0.8403 -0.3174
 1483TIP3    H126084   2.347   5.787   6.901  0.8040 -1.3835 -1.6242
 1483TIP3    H226085   2.260   5.664   6.913  1.1889 -1.6964 -2.0157
 1484TIP3   OH226086   4.179   0.708   0.267 -0.1909  0.5013 -0.2123
 1484TIP3    H126087   4.116   0.780   0.274 -0.0573  0.5355  0.8106
 1484TIP3    H226088   4.151   0.659   0.190 -0.6963  1.2560 -0.5172
 1485TIP3   OH226089   6.104   6.040   7.121  0.5866 -0.0078  0.2584
 1485TIP3    H126090   6.145   5.998   7.196 -0.6834 -0.9786  0.4450
 1485TIP3    H226091   6.100   6.132   7.144  1.3734 -0.1077  0.8215
 1486TIP3   OH226092   4.658   0.482   0.245  1.3506 -0.0586  0.0540
 1486TIP3    H126093   4.656   0.429   0.325 -1.4266 -1.0127 -0.5288
 1486TIP3    H226094   4.642   0.571   0.275 -1.0655 -0.5887  0.5563
 1487TIP3   OH226095   5.465   5.220   7.687  0.3527 -0.1227 -0.1113
 1487TIP3    H126096   5.375   5.204   7.713  0.9410 -0.8425  1.6334
 1487TIP3    H226097   5.513   5.229   7.769  2.3483 -2.5844 -0.8677
 1488TIP3   OH226098   4.405   3.393   7.236  0.9627  0.0413 -0.0762
 1488TIP3    H126099   4.383   3.412   7.144  0.8271  1.4972  0.2352
 1488TIP3    H226100   4.480   3.450   7.255  1.9281 -1.3079  0.3146
 1489TIP3   OH226101   2.786   5.922   1.259  0.3119 -0.2656 -0.4705
 1489TIP3    H126102   2.691   5.930   1.267  0.0662 -0.7444 -2.3231
 1489TIP3    H226103   2.814   6.003   1.218  0.8734  0.3052  0.9797
 1490TIP3   OH226104   2.716   0.836   1.736 -0.2854 -0.5489 -0.4482
 1490TIP3    H126105   2.634   0.795   1.764  0.8045 -2.1806  0.4986
 1490TIP3    H226106   2.713   0.831   1.640 -1.3853 -0.3842 -0.4364
 1491TIP3   OH226107   3.443   6.016   0.735  0.0464 -0.0999 -0.1664
 1491TIP3    H126108   3.530   6.053   0.724 -1.0322  3.3041  1.4131
 1491TIP3    H226109   3.420   5.982   0.648  1.8741  1.4491 -1.3286
 1492TIP3   OH226110   2.794   1.134   8.306  0.5550  0.2543  0.0302
 1492TIP3    H126111   2.815   1.212   8.358  1.8130 -0.9453  1.4482
 1492TIP3    H226112   2.846   1.064   8.347 -3.6177 -2.2723  1.5573
 1493TIP3   OH226113   2.523   1.207   6.395  0.2436 -0.2824  0.0676
 1493TIP3    H126114   2.533   1.298   6.368  0.6797 -0.2383  0.3633
 1493TIP3    H226115   2.433   1.201   6.427  0.0445 -0.0901 -0.4518
 1494TIP3   OH226116   3.418   5.728   7.389 -0.0900  0.1007  0.1815
 1494TIP3    H126117   3.373   5.811   7.374 -0.6228 -0.4141 -1.2783
 1494TIP3    H226118   3.506   5.742   7.354 -0.7996 -0.5399 -2.0621
 1495TIP3   OH226119   5.456   2.029   6.937 -0.1152  0.6799  0.0790
 1495TIP3    H126120   5.543   2.037   6.976 -0.0008  0.1062 -0.0436
 1495TIP3    H226121   5.403   1.985   7.004  0.2783 -0.9964 -0.6654
 1496TIP3   OH226122   5.152   1.833   7.482  0.3912  0.2053 -0.6910
 1496TIP3    H126123   5.208   1.825   7.559  1.4751  1.2992 -1.3270
 1496TIP3    H226124   5.213   1.855   7.411 -0.6078 -0.5534 -1.8139
 1497TIP3   OH226125   5.487   1.217   1.217  0.0188 -0.4651 -0.6109
 1497TIP3    H126126   5.475   1.267   1.298  3.1805  0.6744 -0.7093
 1497TIP3    H226127   5.463   1.278   1.147  2.6485  0.6291 -0.6719
 1498TIP3   OH226128   3.861   6.655   1.130 -0.2357 -0.3129 -0.0019
 1498TIP3    H126129   3.868   6.634   1.224  1.7833 -0.1960 -0.0743
 1498TIP3    H226130   3.908   6.738   1.121  1.4667 -1.3470 -1.3976
 1499TIP3   OH226131   0.342   5.827   6.471 -0.2666  0.4428 -0.7200
 1499TIP3    H126132   0.338   5.923   6.480  0.8554  0.4424  0.0366
 1499TIP3    H226133   0.284   5.807   6.398  0.6051  1.8532 -1.8620
 1500TIP3   OH226134   5.301   5.737   0.540  0.2311  0.0173  0.5814
 1500TIP3    H126135   5.223   5.684   0.524  0.6923 -0.7885  0.9141
 1500TIP3    H226136   5.364   5.675   0.577  0.7969  0.8032  0.9496
 1501TIP3   OH226137   2.527   6.035   2.187 -0.9640 -0.1597 -0.2940
 1501TIP3    H126138   2.485   6.078   2.261 -0.6552  0.3921 -0.4407
 1501TIP3    H226139   2.471   6.057   2.112 -0.4975  0.4598 -0.4654
 1502TIP3   OH226140   6.059   4.480   2.007 -0.9306  0.2175 -0.2955
 1502TIP3    H126141   6.060   4.435   2.091  1.6934  0.7488  0.0336
 1502TIP3    H226142   6.127   4.436   1.955 -0.9842  1.3074 -1.3399
 1503TIP3   OH226143   2.440   5.181   6.732  0.2388  0.0165 -0.5426
 1503TIP3    H126144   2.516   5.142   6.688 -0.3902  0.5885 -2.2135
 1503TIP3    H226145   2.376   5.111   6.737  0.7939 -0.4239  0.7289
 1504TIP3   OH226146   5.717   4.646   6.541 -0.0511 -0.1971  0.0497
 1504TIP3    H126147   5.693   4.735   6.515 -0.8587  0.3922  2.5232
 1504TIP3    H226148   5.724   4.598   6.459 -0.6669  1.8836 -1.2941
 1505TIP3   OH226149   6.054   5.666   1.636 -0.0166 -0.5134  0.5858
 1505TIP3    H126150   6.075   5.580   1.600 -0.3758 -1.1078  1.7447
 1505TIP3    H226151   6.139   5.707   1.650  0.2851 -1.5621  2.0575
 1506TIP3   OH226152   0.299   5.032   7.060 -0.0283 -0.2848  0.1363
 1506TIP3    H126153   0.343   5.067   6.982 -0.0124 -2.3476 -0.8411
 1506TIP3    H226154   0.209   5.016   7.032 -1.0221  2.1748  1.5988
 1507TIP3   OH226155   6.707   6.111   7.779  0.3516  0.1960  0.1355
 1507TIP3    H126156   6.779   6.077   7.831  0.6409  1.7762  0.8014
 1507TIP3    H226157   6.695   6.046   7.709  1.4491 -0.7983  0.8508
 1508TIP3   OH226158   6.536   5.653   0.542 -0.2221  0.0036 -0.6063
 1508TIP3    H126159   6.611   5.598   0.520 -1.4951 -2.4155  0.7846
 1508TIP3    H226160   6.575   5.728   0.587  1.5735  0.4390 -2.6913
 1509TIP3   OH226161   3.512   3.260   0.859  0.2092 -0.5092  0.5613
 1509TIP3    H126162   3.556   3.341   0.834  3.6060 -1.6750  2.1452
 1509TIP3    H226163   3.496   3.214   0.777 -0.2246  0.9732 -0.2227
 1510TIP3   OH226164   3.821   3.448   0.760  0.1596 -0.1790 -0.2077
 1510TIP3    H126165   3.753   3.395   0.719  0.2874 -0.4290 -0.0935
 1510TIP3    H226166   3.891   3.386   0.781  0.3826  0.0606 -0.2377
 1511TIP3   OH226167   1.622   1.296   0.865 -0.0418  0.3953 -0.4156
 1511TIP3    H126168   1.686   1.305   0.794 -2.2266  0.9444 -2.4469
 1511TIP3    H226169   1.541   1.334   0.830 -1.4201  0.0760  2.1557
 1512TIP3   OH226170   0.691   5.427   7.027 -0.1785  0.1571 -0.3343
 1512TIP3    H126171   0.652   5.399   7.110  0.9470  0.7371  0.4110
 1512TIP3    H226172   0.755   5.358   7.006  0.8250  0.8895  0.2300
 1513TIP3   OH226173   6.080   4.358   7.634  0.2678 -0.1110 -0.6143
 1513TIP3    H126174   6.054   4.332   7.545  1.0697 -1.0153 -0.5984
 1513TIP3    H226175   5.997   4.370   7.680 -0.1892  1.3210 -1.7238
 1514TIP3   OH226176   3.435   5.130   0.260 -0.2090 -0.8736 -0.0494
 1514TIP3    H126177   3.347   5.121   0.223 -0.4749  0.6171  0.1584
 1514TIP3    H226178   3.429   5.206   0.318  2.2119  2.1149 -3.2694
 1515TIP3   OH226179   4.127   0.200   1.852  0.5748  0.1176 -0.2769
 1515TIP3    H126180   4.120   0.267   1.785  2.0155 -0.3618 -0.9284
 1515TIP3    H226181   4.168   0.125   1.808 -0.4267 -0.9930  0.5824
 1516TIP3   OH226182   0.819   4.280   7.461 -0.6768 -0.1684  0.3895
 1516TIP3    H126183   0.886   4.297   7.396  0.8415 -0.4148  1.8155
 1516TIP3    H226184   0.839   4.340   7.533 -2.2028 -0.0080  0.7318
 1517TIP3   OH226185   2.409   3.348   7.073 -0.1743 -0.0489 -0.1129
 1517TIP3    H126186   2.459   3.277   7.031  0.9958  0.3094  0.6314
 1517TIP3    H226187   2.464   3.425   7.063 -1.0859  0.6084 -0.2150
 1518TIP3   OH226188   4.256   2.860   0.270  0.3017  0.2116 -0.3983
 1518TIP3    H126189   4.263   2.775   0.314  1.5005  0.3189 -0.3554
 1518TIP3    H226190   4.342   2.875   0.232  0.0850  1.3793 -0.4681
 1519TIP3   OH226191   1.598   4.569   1.338  0.2618  0.3337 -0.4765
 1519TIP3    H126192   1.570   4.636   1.276  0.8726  0.0622 -1.0524
 1519TIP3    H226193   1.520   4.516   1.354  0.2678 -0.0329 -1.5729
 1520TIP3   OH226194   3.043   3.632   0.021  0.1728  0.2751  0.3058
 1520TIP3    H126195   3.011   3.722   0.021 -1.3531 -0.2329  1.5525
 1520TIP3    H226196   2.994   3.588   0.090  0.3312 -1.7118 -0.7638
 1521TIP3   OH226197   6.233   0.364   1.000  0.1787 -0.7760  0.3200
 1521TIP3    H126198   6.190   0.392   1.081 -0.0883  2.1568 -0.7242
 1521TIP3    H226199   6.180   0.290   0.969 -1.7982  0.2459  1.0866
 1522TIP3   OH226200   5.137   2.129   1.115 -0.2126  0.3102  0.1080
 1522TIP3    H126201   5.174   2.042   1.099 -2.3226 -0.6826  0.2761
 1522TIP3    H226202   5.078   2.144   1.041 -0.4641  1.2699  0.4855
 1523TIP3   OH226203   6.769   5.510   0.473  0.6284 -0.2913 -0.1493
 1523TIP3    H126204   6.710   5.445   0.433 -0.0258 -0.2045  0.6286
 1523TIP3    H226205   6.855   5.468   0.472  0.4872 -0.5796 -0.9733
 1524TIP3   OH226206   5.305   1.001   7.614  0.1552 -0.5568  0.0176
 1524TIP3    H126207   5.293   1.086   7.572  2.2265 -0.1961  0.0446
 1524TIP3    H226208   5.350   0.948   7.549 -3.3859 -2.6297 -1.0241
 1525TIP3   OH226209   1.881   6.594   8.350 -0.0576 -0.2505 -0.0668
 1525TIP3    H126210   1.928   6.592   8.267 -0.7925 -0.8571 -0.4818
 1525TIP3    H226211   1.893   6.507   8.388 -2.5394 -1.1932 -1.1897
 1526TIP3   OH226212   3.794   1.565   1.024 -0.2168  0.4850 -0.0823
 1526TIP3    H126213   3.845   1.484   1.021  0.3616  0.7996  0.9464
 1526TIP3    H226214   3.858   1.635   1.006 -0.5056  0.7967  0.0856
 1527TIP3   OH226215   4.954   6.068   7.056  0.3811  0.6795 -0.1877
 1527TIP3    H126216   4.967   6.094   6.965  0.3365  0.3964 -0.2755
 1527TIP3    H226217   4.914   6.145   7.098  1.1465  1.0970 -0.2134
 1528TIP3   OH226218   5.393   3.917   0.170  0.0724 -0.0600 -0.1030
 1528TIP3    H126219   5.427   3.898   0.083  0.0957 -2.3916  0.3654
 1528TIP3    H226220   5.468   3.907   0.229 -0.4066 -0.6346  0.4189
 1529TIP3   OH226221   0.347   6.058   0.807  0.1781 -0.2139  0.5681
 1529TIP3    H126222   0.379   6.031   0.893  0.9064 -1.0768  0.0447
 1529TIP3    H226223   0.419   6.038   0.747 -0.7285 -0.6771 -0.4098
 1530TIP3   OH226224   3.786   2.426   8.515  0.8299  0.2875  0.5282
 1530TIP3    H126225   3.805   2.482   8.439  0.3836 -1.9753 -1.3911
 1530TIP3    H226226   3.868   2.424   8.565  2.0997 -0.3516 -1.4552
 1531TIP3   OH226227   4.861   5.559   6.921  0.3229  0.1856 -0.2678
 1531TIP3    H126228   4.858   5.496   6.849 -4.4266  0.1815 -0.3956
 1531TIP3    H226229   4.841   5.643   6.879  0.3329  0.6776  0.6875
 1532TIP3   OH226230   0.428   2.356   1.012  0.2587  0.4372  0.0166
 1532TIP3    H126231   0.346   2.317   0.982 -0.7945  1.0896  1.8465
 1532TIP3    H226232   0.485   2.282   1.032 -1.0787 -0.1708  1.7806
 1533TIP3   OH226233   5.754   3.281   2.595  0.0524 -0.4182 -0.4976
 1533TIP3    H126234   5.693   3.213   2.626  0.9383  0.7486  4.6265
 1533TIP3    H226235   5.805   3.238   2.526 -2.7742 -3.1880 -1.0976
 1534TIP3   OH226236   5.066   2.532   7.533 -0.1689  0.2203 -0.7634
 1534TIP3    H126237   5.035   2.562   7.448 -1.2250 -2.2310 -1.2991
 1534TIP3    H226238   4.991   2.489   7.573  0.6042  0.4133  1.0036
 1535TIP3   OH226239   5.765   5.252   6.582 -0.3927 -0.4879 -0.1393
 1535TIP3    H126240   5.780   5.171   6.631  1.9849 -0.3148 -0.4903
 1535TIP3    H226241   5.669   5.258   6.575 -0.6666 -2.5432  1.0581
 1536TIP3   OH226242   1.087   4.301   8.496  0.1612  0.1468 -0.5480
 1536TIP3    H126243   1.167   4.249   8.509 -0.1170 -0.0161  0.5515
 1536TIP3    H226244   1.025   4.240   8.456 -0.0916 -0.3290  0.5337
 1537TIP3   OH226245   6.059   0.634   1.892  0.1855  0.0763 -0.3623
 1537TIP3    H126246   5.995   0.695   1.930  0.3282  0.1931 -0.3062
 1537TIP3    H226247   6.044   0.640   1.797 -0.0614 -0.0931 -0.3337
 1538TIP3   OH226248   0.208   6.357   6.451 -0.0996  0.2537 -0.4703
 1538TIP3    H126249   0.225   6.417   6.378 -2.0521 -0.3493 -1.4942
 1538TIP3    H226250   0.117   6.375   6.476 -0.0447 -0.8185  0.6059
 1539TIP3   OH226251   5.492   2.659   7.263 -0.1209  0.0330  0.5518
 1539TIP3    H126252   5.415   2.624   7.217 -0.2183  1.5301 -0.5061
 1539TIP3    H226253   5.543   2.701   7.194  1.8753 -1.2538  1.1747
 1540TIP3   OH226254   1.658   3.999   8.077  0.3933 -0.4874 -0.1999
 1540TIP3    H126255   1.669   3.904   8.082 -1.5652 -0.7429 -0.0009
 1540TIP3    H226256   1.639   4.016   7.985 -0.2062 -0.4324 -0.0734
 1541TIP3   OH226257   3.439   1.971   0.408  0.0169 -0.0675 -0.3614
 1541TIP3    H126258   3.460   2.064   0.399 -0.8335  0.0444 -1.2969
 1541TIP3    H226259   3.482   1.929   0.334  0.3286 -0.4203  0.0114
 1542TIP3   OH226260   4.624   3.203   7.491 -0.5430  0.2453  0.2294
 1542TIP3    H126261   4.586   3.117   7.509 -2.6962  1.0403 -0.2550
 1542TIP3    H226262   4.658   3.195   7.401  1.3602 -0.7310  0.9668
 1543TIP3   OH226263   5.351   0.344   1.304  0.1893  0.1955  0.0101
 1543TIP3    H126264   5.316   0.433   1.306  1.0478  0.5573 -0.5447
 1543TIP3    H226265   5.441   0.354   1.275  0.0113 -0.9458 -1.0431
 1544TIP3   OH226266   5.926   2.572   0.535 -0.5613 -0.0441 -0.4754
 1544TIP3    H126267   5.908   2.600   0.445 -1.7570 -0.7622 -0.4791
 1544TIP3    H226268   5.840   2.552   0.572 -0.0139 -0.6265  0.5380
 1545TIP3   OH226269   3.494   6.434   7.189 -0.0869  0.2082  0.5360
 1545TIP3    H126270   3.561   6.435   7.121 -0.6744 -2.2732 -0.2115
 1545TIP3    H226271   3.447   6.351   7.175 -2.1245  0.9913  2.1601
 1546TIP3   OH226272   3.113   6.207   6.813 -0.3274  0.1729  0.0849
 1546TIP3    H126273   3.196   6.167   6.837 -0.7157  0.0383  1.2721
 1546TIP3    H226274   3.114   6.210   6.717  0.0779 -1.8951 -0.0182
 1547TIP3   OH226275   6.250   2.671   8.110  0.1495 -0.0227  0.1379
 1547TIP3    H126276   6.171   2.719   8.135 -0.5164 -1.3043  0.6523
 1547TIP3    H226277   6.226   2.627   8.029  0.1328 -0.8316  0.5672
 1548TIP3   OH226278   5.538   3.691   7.672  0.1850  0.1390 -0.1217
 1548TIP3    H126279   5.589   3.761   7.713 -1.0737  1.5260 -0.8276
 1548TIP3    H226280   5.491   3.649   7.744  1.3927 -0.3817  0.3797
 1549TIP3   OH226281   2.522   5.950   1.513 -0.8296  0.4997  0.3950
 1549TIP3    H126282   2.568   5.872   1.482  0.7441  1.3449  0.4934
 1549TIP3    H226283   2.451   5.917   1.568 -1.6739 -0.9245 -1.4427
 1550TIP3   OH226284   1.782   1.544   8.123 -0.2953 -0.5009 -0.1152
 1550TIP3    H126285   1.842   1.500   8.062  0.6491  0.8168 -0.2006
 1550TIP3    H226286   1.695   1.522   8.091  0.1278 -2.1635 -0.2251
 1551TIP3   OH226287   5.768   3.062   8.008 -0.3314  0.8433  0.2246
 1551TIP3    H126288   5.813   3.116   7.944  2.2697  0.4668  1.6056
 1551TIP3    H226289   5.802   3.091   8.093 -0.3714 -1.5326  1.1392
 1552TIP3   OH226290   3.308   0.787   8.253  0.2503  0.1868  0.1934
 1552TIP3    H126291   3.365   0.757   8.183 -0.9178 -1.6751 -0.0217
 1552TIP3    H226292   3.221   0.755   8.230 -0.4626  0.9112  1.6862
 1553TIP3   OH226293   2.456   2.865   1.087 -0.5604  0.2410 -0.0976
 1553TIP3    H126294   2.402   2.939   1.058 -1.1346 -0.4455 -0.8202
 1553TIP3    H226295   2.471   2.881   1.180 -1.3953  0.8205 -0.0552
 1554TIP3   OH226296   5.759   5.945   1.676  0.3479 -0.1026 -0.3956
 1554TIP3    H126297   5.749   5.983   1.763  0.2596  0.3830 -0.6130
 1554TIP3    H226298   5.846   5.972   1.648  0.7122 -0.9613 -0.1275
 1555TIP3   OH226299   3.447   6.896   1.351 -0.2077 -0.4521  0.5648
 1555TIP3    H126300   3.524   6.935   1.310 -0.5625 -0.5869 -0.2375
 1555TIP3    H226301   3.411   6.837   1.285 -1.7538  0.5899  0.4287
 1556TIP3   OH226302   3.595   1.191   1.737  0.7408  0.1884 -0.0524
 1556TIP3    H126303   3.585   1.155   1.649 -0.6207  0.5925 -0.0895
 1556TIP3    H226304   3.655   1.265   1.727  1.3966 -0.3908 -0.4503
 1557TIP3   OH226305   6.362   3.913   6.598 -0.5043 -0.4622 -0.5044
 1557TIP3    H126306   6.382   3.836   6.652  0.6860  0.5470  0.5814
 1557TIP3    H226307   6.308   3.968   6.654  1.3099  0.9176  0.0131
 1558TIP3   OH226308   5.619   3.557   1.202 -0.1564  0.0302 -0.0338
 1558TIP3    H126309   5.583   3.606   1.128 -0.3140  0.0346  0.0475
 1558TIP3    H226310   5.581   3.598   1.279  1.0697  0.9269  0.1265
 1559TIP3   OH226311   3.498   3.233   6.814  0.0338  0.0596  0.2291
 1559TIP3    H126312   3.446   3.314   6.816  0.0762  0.0830  0.4768
 1559TIP3    H226313   3.575   3.256   6.762 -0.1139  0.0796  0.0175
 1560TIP3   OH226314   2.977   6.435   6.625  0.1066 -0.3910  0.4664
 1560TIP3    H126315   2.900   6.432   6.568  0.8882 -0.0922 -0.6292
 1560TIP3    H226316   3.025   6.355   6.605  0.1743 -0.4979  1.0308
 1561TIP3   OH226317   0.574   3.577   7.443 -0.7187  0.1923  0.0712
 1561TIP3    H126318   0.508   3.632   7.485  0.5906  0.8239  1.4042
 1561TIP3    H226319   0.531   3.493   7.428 -1.9398  0.7249  0.5073
 1562TIP3   OH226320   3.753   3.958   2.612  0.0815 -0.3890  0.5187
 1562TIP3    H126321   3.676   3.955   2.555 -1.0435  0.7189  1.9027
 1562TIP3    H226322   3.741   3.883   2.671  0.3282 -0.5041  0.4240
 1563TIP3   OH226323   0.185   4.082   7.305 -0.2056  0.0416  0.4077
 1563TIP3    H126324   0.165   4.026   7.230  1.5625  1.6474 -1.3768
 1563TIP3    H226325   0.234   4.026   7.364 -0.5313 -0.9178 -0.2100
 1564TIP3   OH226326   1.932   4.586   6.553 -0.4405  0.2218 -0.3035
 1564TIP3    H126327   1.972   4.610   6.637  1.8161 -3.4073 -0.1055
 1564TIP3    H226328   1.873   4.514   6.574 -0.1260 -0.4895 -1.7380
 1565TIP3   OH226329   2.262   3.608   1.685  0.1679 -0.9858  0.1741
 1565TIP3    H126330   2.289   3.588   1.775 -1.1618 -0.5711  0.6860
 1565TIP3    H226331   2.199   3.679   1.694 -1.3746 -2.1345 -0.9212
 1566TIP3   OH226332   2.080   0.760   7.044  1.0955  0.2745  0.1496
 1566TIP3    H126333   2.096   0.678   6.996  0.5989  0.1017  0.2750
 1566TIP3    H226334   2.112   0.828   6.985  2.5348 -0.0552  0.4860
 1567TIP3   OH226335   2.941   6.616   0.652  0.5164  0.6999 -0.2477
 1567TIP3    H126336   2.924   6.610   0.746  2.3768 -2.0044  0.0417
 1567TIP3    H226337   2.871   6.566   0.611  0.5079  0.6529 -0.1750
 1568TIP3   OH226338   3.763   4.588   1.214  0.0191  0.1567 -0.7664
 1568TIP3    H126339   3.686   4.635   1.247  0.7475  0.5374  0.4579
 1568TIP3    H226340   3.728   4.505   1.182 -0.8562  0.1331  0.1864
 1569TIP3   OH226341   0.091   1.519   8.015  0.2493 -0.0651  0.0635
 1569TIP3    H126342   0.154   1.589   8.030 -1.1304  1.1504  0.3889
 1569TIP3    H226343   0.114   1.452   8.080  1.9935 -0.2593 -0.6788
 1570TIP3   OH226344   2.364   6.697   1.579  0.0168 -0.1661  0.5897
 1570TIP3    H126345   2.280   6.657   1.602  1.0101 -2.0971  1.0759
 1570TIP3    H226346   2.349   6.739   1.494 -0.9360 -2.2790 -0.3501
 1571TIP3   OH226347   5.947   5.335   1.143 -1.0145  0.3075 -0.0910
 1571TIP3    H126348   6.001   5.365   1.071  0.0709 -0.0831  0.5413
 1571TIP3    H226349   5.998   5.353   1.221 -3.1557  2.9775  0.8521
 1572TIP3   OH226350   6.816   4.105   8.367  0.7852 -0.1226 -0.3132
 1572TIP3    H126351   6.852   4.094   8.279  0.0992  0.2602 -0.6471
 1572TIP3    H226352   6.729   4.066   8.363 -0.1185  1.7841 -0.4362
 1573TIP3   OH226353   5.427   4.454   2.017 -0.5338  0.2722 -0.2538
 1573TIP3    H126354   5.481   4.490   1.947  1.7959 -1.4721  0.5106
 1573TIP3    H226355   5.490   4.420   2.080 -2.5462  0.8745  2.2498
 1574TIP3   OH226356   4.522   0.505   7.572  0.1038 -0.4439  0.7700
 1574TIP3    H126357   4.464   0.433   7.598 -0.6296 -0.1726 -0.0299
 1574TIP3    H226358   4.522   0.501   7.476  0.4870  0.2811  0.7370
 1575TIP3   OH226359   6.858   3.003   0.473  0.1190  0.0811 -0.3441
 1575TIP3    H126360   6.922   2.961   0.415  0.9770 -0.1959  0.7507
 1575TIP3    H226361   6.897   3.088   0.494  1.4918 -1.0746  2.3685
 1576TIP3   OH226362   6.466   3.604   7.019  0.5306 -0.0689 -0.2145
 1576TIP3    H126363   6.559   3.625   7.019  0.3200  1.2354  2.1935
 1576TIP3    H226364   6.432   3.648   7.097 -2.2911  0.2615 -1.5182
 1577TIP3   OH226365   0.021   6.416   0.190 -0.1158 -0.5395 -0.7428
 1577TIP3    H126366   0.021   6.484   0.258 -0.4336 -0.1217 -1.1554
 1577TIP3    H226367   0.079   6.348   0.224 -0.5731 -0.5085  0.1231
 1578TIP3   OH226368   5.674   0.764   1.152  0.3955  0.0807  0.4702
 1578TIP3    H126369   5.622   0.776   1.231  0.2959 -0.5715  0.5036
 1578TIP3    H226370   5.760   0.735   1.184 -0.2741 -2.3223  0.2647
 1579TIP3   OH226371   5.483   5.928   6.764  0.0668  0.2460  0.4549
 1579TIP3    H126372   5.562   5.890   6.727  0.7843  0.6808  1.4847
 1579TIP3    H226373   5.479   6.017   6.728 -0.7681 -0.2499 -0.7373
 1580TIP3   OH226374   3.574   1.755   0.535 -0.1991 -0.3470  0.0295
 1580TIP3    H126375   3.509   1.799   0.480  0.5055  2.2236  1.1014
 1580TIP3    H226376   3.632   1.711   0.473  0.4660  2.2786 -1.3792
 1581TIP3   OH226377   1.704   6.161   7.940 -0.8237  0.2332 -0.3722
 1581TIP3    H126378   1.682   6.251   7.919  2.9728  1.2983 -0.6478
 1581TIP3    H226379   1.737   6.165   8.030  0.2193 -0.6491 -0.6908
 1582TIP3   OH226380   5.196   4.942   0.481  0.0378 -0.1371 -0.0909
 1582TIP3    H126381   5.218   4.912   0.569  0.3079  1.8325  0.5656
 1582TIP3    H226382   5.277   4.935   0.432  0.4622  0.7743  0.4475
 1583TIP3   OH226383   3.384   5.301   1.098  0.0748  0.5624 -0.3731
 1583TIP3    H126384   3.438   5.229   1.130  0.9503  0.7442 -1.3754
 1583TIP3    H226385   3.445   5.354   1.046 -0.6969  1.6887 -0.1463
 1584TIP3   OH226386   0.565   5.423   6.746  0.1526 -0.5214 -0.0051
 1584TIP3    H126387   0.584   5.509   6.707  1.0486 -0.2486  0.9961
 1584TIP3    H226388   0.651   5.379   6.749  0.3096 -0.1372  2.5723
 1585TIP3   OH226389   5.601   3.093   1.572 -0.1857  0.3773 -0.5143
 1585TIP3    H126390   5.602   3.188   1.560  0.7251  0.6363  1.2862
 1585TIP3    H226391   5.624   3.080   1.664  0.3025 -1.6173 -0.8722
 1586TIP3   OH226392   5.780   4.746   1.612 -0.5324  0.0914 -0.0530
 1586TIP3    H126393   5.723   4.728   1.687 -1.0718  0.9047 -0.2600
 1586TIP3    H226394   5.851   4.798   1.649  0.2184 -1.1010  0.2472
 1587TIP3   OH226395   6.629   1.878   2.004  0.3819  0.6705 -0.3706
 1587TIP3    H126396   6.584   1.808   2.051 -0.5385  0.8818 -0.9138
 1587TIP3    H226397   6.701   1.903   2.062 -0.2481  0.3909  0.5551
 1588TIP3   OH226398   1.664   6.045   7.067 -0.1336 -0.2757  0.8069
 1588TIP3    H126399   1.582   6.030   7.020  0.0878 -1.3480  0.7391
 1588TIP3    H226400   1.684   6.138   7.052  0.5851 -0.8411 -2.2580
 1589TIP3   OH226401   4.356   2.495   8.373  0.4464  0.4626 -0.0190
 1589TIP3    H126402   4.356   2.481   8.279  0.4371  1.3313 -0.1569
 1589TIP3    H226403   4.423   2.436   8.407  0.1249 -0.1921 -0.5101
 1590TIP3   OH226404   0.490   5.577   7.990  1.1597  0.5985 -0.3073
 1590TIP3    H126405   0.498   5.667   7.957  0.6437  1.2548  1.2612
 1590TIP3    H226406   0.548   5.526   7.935  1.1938  1.8368 -1.4664
 1591TIP3   OH226407   6.241   1.319   1.138 -0.3802 -0.6047 -0.8845
 1591TIP3    H126408   6.173   1.284   1.195 -0.7251 -0.4400 -1.1854
 1591TIP3    H226409   6.197   1.331   1.053  0.0344 -0.5352 -1.0920
 1592TIP3   OH226410   6.764   6.476   1.876  0.7001  0.5647 -0.3300
 1592TIP3    H126411   6.816   6.508   1.803  0.7176 -0.3156 -0.7178
 1592TIP3    H226412   6.827   6.438   1.936  0.6308  0.7769 -0.1182
 1593TIP3   OH226413   0.075   0.949   7.431 -0.2532 -0.2080  0.3850
 1593TIP3    H126414   0.045   1.027   7.476  0.3478 -0.3090  0.9688
 1593TIP3    H226415   0.131   0.904   7.494  0.8178 -0.2207 -0.5385
 1594TIP3   OH226416   2.920   3.119   2.499  0.4654  0.6092 -1.1133
 1594TIP3    H126417   2.858   3.191   2.489  0.0219  0.3671 -0.1974
 1594TIP3    H226418   2.868   3.040   2.488  0.1421  0.3331  1.6068
 1595TIP3   OH226419   4.603   5.680   0.225 -0.1684  0.0073  0.1297
 1595TIP3    H126420   4.629   5.772   0.227 -0.0192 -0.0417  0.8883
 1595TIP3    H226421   4.528   5.675   0.284  0.0407 -0.4167  0.3655
 1596TIP3   OH226422   1.062   4.392   1.684  0.3887 -0.8511 -0.5838
 1596TIP3    H126423   1.105   4.351   1.760 -0.9513 -1.8154 -0.3036
 1596TIP3    H226424   1.036   4.478   1.715  0.9003 -0.7867 -0.3244
 1597TIP3   OH226425   5.375   0.594   7.407 -0.7324 -0.0051  0.0620
 1597TIP3    H126426   5.436   0.521   7.396  0.0627  0.4628  1.1691
 1597TIP3    H226427   5.397   0.655   7.336 -2.5612 -1.5471 -1.9673
 1598TIP3   OH226428   1.840   4.406   7.008 -0.4992  0.3259  0.6594
 1598TIP3    H126429   1.919   4.392   6.955 -0.2242  2.5828  0.3608
 1598TIP3    H226430   1.871   4.404   7.098 -0.2107  0.5708  0.5669
 1599TIP3   OH226431   4.504   0.619   1.611  0.1286  0.2370  0.4488
 1599TIP3    H126432   4.440   0.685   1.583 -0.5203 -0.3726  0.4542
 1599TIP3    H226433   4.475   0.593   1.698  0.9331  0.6191  0.8383
 1600TIP3   OH226434   2.853   5.684   0.667 -0.3767  0.0922  0.7003
 1600TIP3    H126435   2.938   5.715   0.697  0.3851  0.0568 -1.2524
 1600TIP3    H226436   2.864   5.672   0.573 -2.1212 -1.3388  0.6206
 1601TIP3   OH226437   0.776   1.651   1.706 -0.3577  0.2805 -0.8204
 1601TIP3    H126438   0.844   1.617   1.765 -0.4889  1.0202 -0.2411
 1601TIP3    H226439   0.786   1.746   1.708 -1.5735  0.4161 -0.5352
 1602TIP3   OH226440   6.654   2.800   2.386  0.5550 -0.7774  0.1467
 1602TIP3    H126441   6.706   2.788   2.465 -1.1666 -2.3517  1.1430
 1602TIP3    H226442   6.587   2.732   2.391  0.5669 -1.1387 -2.8634
 1603TIP3   OH226443   5.665   3.654   0.028  0.2150 -0.1978 -0.1090
 1603TIP3    H126444   5.669   3.580   0.089  0.4996 -1.4482 -1.5896
 1603TIP3    H226445   5.755   3.685   0.023  0.1841 -0.0661  0.1317
 1604TIP3   OH226446   3.247   3.833   0.571  0.3080  0.5774  0.1400
 1604TIP3    H126447   3.301   3.901   0.612  1.1442  0.2447 -0.3884
 1604TIP3    H226448   3.201   3.792   0.644 -0.7135  2.1212  0.4127
 1605TIP3   OH226449   1.443   3.299   7.847  0.2138  0.3123  0.9718
 1605TIP3    H126450   1.538   3.303   7.855  0.2868 -0.8487  0.8288
 1605TIP3    H226451   1.426   3.215   7.804 -0.7619  1.4759 -1.0312
 1606TIP3   OH226452   0.069   1.947   1.588  0.0767 -0.1199 -0.3519
 1606TIP3    H126453   0.052   1.905   1.672  0.7964  0.9694  0.3528
 1606TIP3    H226454   0.162   1.971   1.591  0.3021 -0.6839 -1.7412
 1607TIP3   OH226455   6.216   2.321   6.941 -0.2715 -0.8571  0.1330
 1607TIP3    H126456   6.212   2.297   6.848 -2.9499 -0.2745  0.0134
 1607TIP3    H226457   6.132   2.293   6.976  0.6921 -1.0665  2.4228
 1608TIP3   OH226458   5.264   4.777   6.907 -0.2060  0.3364 -0.4609
 1608TIP3    H126459   5.277   4.870   6.888 -0.7314  0.3961 -0.5483
 1608TIP3    H226460   5.287   4.732   6.826 -1.2265  0.4957 -0.8522
 1609TIP3   OH226461   6.931   3.640   7.553  0.3181  0.2053  0.1079
 1609TIP3    H126462   6.976   3.724   7.551  0.2229  0.2443 -0.7868
 1609TIP3    H226463   7.000   3.575   7.564  0.5631  0.2872 -0.9152
 1610TIP3   OH226464   1.827   2.393   8.495 -0.0195  0.1745 -0.5627
 1610TIP3    H126465   1.773   2.338   8.438  0.8796 -0.6677 -0.6280
 1610TIP3    H226466   1.858   2.462   8.437 -0.1236  0.0314 -0.7929
 1611TIP3   OH226467   1.044   4.466   8.237 -0.3446 -0.7352 -0.6447
 1611TIP3    H126468   1.055   4.430   8.326 -0.5207 -1.3246 -0.8552
 1611TIP3    H226469   1.058   4.391   8.180  2.0872  0.0845 -1.2403
 1612TIP3   OH226470   4.433   1.924   8.231 -0.2892  0.7510  0.2637
 1612TIP3    H126471   4.363   1.885   8.178  0.6456  0.5882 -0.8722
 1612TIP3    H226472   4.468   1.851   8.282  0.6453  0.3230 -0.9590
 1613TIP3   OH226473   2.975   3.445   2.420  0.4287 -0.4933  0.0628
 1613TIP3    H126474   2.904   3.395   2.460  0.2756 -0.5734 -0.3078
 1613TIP3    H226475   2.958   3.441   2.326  0.9949 -0.6272 -0.0397
 1614TIP3   OH226476   4.528   4.000   7.339 -0.1324  0.1654  0.1111
 1614TIP3    H126477   4.508   4.085   7.300 -1.8114 -1.1064 -2.0588
 1614TIP3    H226478   4.620   4.006   7.365 -0.5794  3.0660  1.3659
 1615TIP3   OH226479   3.305   2.403   7.609 -0.1862 -0.1907  0.3381
 1615TIP3    H126480   3.362   2.423   7.535 -0.0194  1.4235  0.8580
 1615TIP3    H226481   3.363   2.403   7.685 -0.1477 -2.9355  0.4256
 1616TIP3   OH226482   5.898   2.914   0.406  0.3058  0.4306 -0.2655
 1616TIP3    H126483   5.994   2.912   0.401  0.2601 -1.4708 -1.8727
 1616TIP3    H226484   5.875   3.003   0.379  1.6062  0.5139 -1.2577
 1617TIP3   OH226485   2.915   0.387   6.934  0.6809 -0.5642 -0.1464
 1617TIP3    H126486   2.878   0.333   7.004  1.0126 -0.9583 -0.2705
 1617TIP3    H226487   2.915   0.330   6.857 -1.7390  0.5454 -1.0567
 1618TIP3   OH226488   3.646   6.197   1.772 -0.2291 -0.5088  0.0267
 1618TIP3    H126489   3.663   6.285   1.804 -0.4804 -0.0590 -1.0342
 1618TIP3    H226490   3.724   6.147   1.794  0.9112  0.5645 -1.4108
 1619TIP3   OH226491   2.497   3.389   1.206  0.3178  0.8548  0.1636
 1619TIP3    H126492   2.467   3.313   1.156  1.3628  1.3837 -1.3487
 1619TIP3    H226493   2.497   3.360   1.297  0.6584 -0.9398 -0.3827
 1620TIP3   OH226494   3.778   6.049   0.391  0.1258  0.5314 -0.7343
 1620TIP3    H126495   3.854   6.008   0.434 -1.5967 -1.1053  0.9533
 1620TIP3    H226496   3.808   6.067   0.302  1.9725 -1.6958 -0.6626
 1621TIP3   OH226497   2.759   1.095   1.775 -0.3497  0.2147  0.7263
 1621TIP3    H126498   2.756   1.014   1.725 -0.6038  0.8354 -0.2958
 1621TIP3    H226499   2.743   1.068   1.866 -0.9139 -0.8137  0.3364
 1622TIP3   OH226500   4.628   5.883   0.493  0.0474  0.4740  0.2575
 1622TIP3    H126501   4.586   5.969   0.498 -1.4739 -0.0966 -1.6659
 1622TIP3    H226502   4.712   5.900   0.449 -0.7017  0.8480 -1.0658
 1623TIP3   OH226503   4.923   3.664   8.141 -0.3384  0.5401 -0.4469
 1623TIP3    H126504   4.996   3.602   8.136 -2.0676 -1.5544 -1.5469
 1623TIP3    H226505   4.961   3.749   8.120  1.7305 -0.5081 -1.1304
 1624TIP3   OH226506   0.781   3.816   7.979  0.5302  0.1835  0.2266
 1624TIP3    H126507   0.702   3.864   7.956  0.3385 -0.6237 -0.8820
 1624TIP3    H226508   0.795   3.755   7.906  1.1798 -0.9107  1.2135
 1625TIP3   OH226509   3.899   4.053   1.524 -0.0368 -0.7300  0.1849
 1625TIP3    H126510   3.826   4.009   1.481 -0.3100 -0.6349  0.5569
 1625TIP3    H226511   3.973   3.993   1.512  0.1014 -0.3322 -1.1591
 1626TIP3   OH226512   6.857   2.864   6.937 -0.1161  0.3409  0.6094
 1626TIP3    H126513   6.802   2.873   7.014  0.0290  1.5951  0.5941
 1626TIP3    H226514   6.918   2.793   6.958  0.6983  1.4399  2.1530
 1627TIP3   OH226515   0.050   0.984   0.549 -0.1372 -0.1919  0.0067
 1627TIP3    H126516   0.116   0.978   0.480 -0.6669  0.2273 -0.5502
 1627TIP3    H226517  -0.020   0.924   0.520 -0.8608  0.8169 -0.4070
 1628TIP3   OH226518   4.875   0.321   7.841 -0.6767 -0.4651 -0.2096
 1628TIP3    H126519   4.844   0.411   7.840 -2.7712 -1.1005  0.5762
 1628TIP3    H226520   4.819   0.276   7.777  0.4634 -1.1832 -0.7358
 1629TIP3   OH226521   1.553   0.016   2.603  0.2350  0.9004  0.4636
 1629TIP3    H126522   1.476  -0.040   2.604  0.5493  0.3884 -1.2544
 1629TIP3    H226523   1.620  -0.035   2.648  0.4644 -0.0705 -0.9181
 1630TIP3   OH226524   2.248   6.743   7.693 -1.0071  0.6088  0.4424
 1630TIP3    H126525   2.236   6.837   7.703 -2.2375  0.3558  1.7171
 1630TIP3    H226526   2.206   6.722   7.610  0.3519  1.3325 -0.4610
 1631TIP3   OH226527   2.292   1.208   6.144 -0.2481  0.3620 -0.5891
 1631TIP3    H126528   2.299   1.296   6.108 -0.4034  0.7272  0.2379
 1631TIP3    H226529   2.292   1.221   6.239 -0.1747 -0.5381 -0.4544
 1632TIP3   OH226530   2.350   1.430   0.352 -0.4427  0.1207 -0.2517
 1632TIP3    H126531   2.264   1.457   0.383  0.3996  1.8367  0.7165
 1632TIP3    H226532   2.374   1.356   0.408 -0.3879  1.0058  0.9123
 1633TIP3   OH226533   2.991   4.310   8.491  0.0024  0.6117  0.0119
 1633TIP3    H126534   3.032   4.357   8.563 -1.5893  0.8933  0.7703
 1633TIP3    H226535   3.016   4.359   8.413 -0.8679  2.2022  0.6924
 1634TIP3   OH226536   5.894   5.293   6.351  0.7470 -0.1553 -0.6215
 1634TIP3    H126537   5.851   5.275   6.434 -0.6430  0.8059 -1.0960
 1634TIP3    H226538   5.840   5.360   6.310  0.4975 -1.7016 -3.0139
 1635TIP3   OH226539   3.732   0.823   2.671  0.1612 -0.3919  0.0290
 1635TIP3    H126540   3.813   0.812   2.721  1.2249 -0.1776 -1.5819
 1635TIP3    H226541   3.742   0.908   2.628 -1.3294  0.0458  0.4979
 1636TIP3   OH226542   4.068   3.023   0.126  0.4062 -0.0732  0.0490
 1636TIP3    H126543   4.079   2.972   0.046  1.9432  0.1442  0.0938
 1636TIP3    H226544   4.120   2.976   0.192 -0.0018  0.3100  0.6530
 1637TIP3   OH226545   1.233   6.083   7.393  0.0476 -0.1451  0.3941
 1637TIP3    H126546   1.240   5.993   7.424 -0.8698 -0.3971 -0.0967
 1637TIP3    H226547   1.181   6.128   7.459 -0.3256 -0.2223  0.1566
 1638TIP3   OH226548   3.629   0.142   7.435 -1.0422 -0.1052 -0.3210
 1638TIP3    H126549   3.553   0.088   7.414 -1.0991 -0.2969  0.3695
 1638TIP3    H226550   3.702   0.097   7.391 -1.1202 -0.6391  0.0804
 1639TIP3   OH226551   2.809   2.009   6.962 -0.0425  0.3904  0.2436
 1639TIP3    H126552   2.741   2.039   6.901 -0.5748 -1.9153 -0.3924
 1639TIP3    H226553   2.885   2.063   6.942 -0.9673  1.3913 -0.7037
 1640TIP3   OH226554   2.703   3.087   1.076  0.4947 -0.5300  0.2693
 1640TIP3    H126555   2.633   3.126   1.024  0.4782  0.0801  0.7389
 1640TIP3    H226556   2.757   3.041   1.012 -0.0365 -0.5639 -0.1676
 1641TIP3   OH226557   6.465   0.690   2.041  0.5807  0.2808  0.4351
 1641TIP3    H126558   6.418   0.770   2.018  0.3273  0.3134  1.0540
 1641TIP3    H226559   6.404   0.641   2.096  1.0709  0.0699  0.7969
 1642TIP3   OH226560   6.439   1.328   0.457 -0.1298 -0.9061 -0.3085
 1642TIP3    H126561   6.426   1.390   0.386 -1.9011  0.0117  0.7584
 1642TIP3    H226562   6.530   1.341   0.484 -0.6265  1.7457  0.3023
 1643TIP3   OH226563   4.240   6.576   0.080  0.3851 -0.4166 -0.0777
 1643TIP3    H126564   4.194   6.558   0.162  0.9959 -2.1313 -0.0613
 1643TIP3    H226565   4.333   6.574   0.104  0.5779  2.5307 -0.1911
 1644TIP3   OH226566   1.476   5.581   1.927  0.0209 -0.0546 -0.6532
 1644TIP3    H126567   1.410   5.515   1.950  2.0156 -2.1916 -0.6832
 1644TIP3    H226568   1.526   5.593   2.007 -0.6473  1.9411 -0.4837
 1645TIP3   OH226569   0.498   3.196   0.086  0.5069 -0.3568  0.3719
 1645TIP3    H126570   0.491   3.291   0.101  3.1251  0.2424 -1.4177
 1645TIP3    H226571   0.574   3.169   0.138  0.0845 -1.3993  0.4723
 1646TIP3   OH226572   4.144   3.206   2.352  0.4222 -0.0240  1.0649
 1646TIP3    H126573   4.238   3.215   2.336  0.4465  1.7561  1.9824
 1646TIP3    H226574   4.110   3.295   2.350 -1.6238 -0.7404 -1.0925
 1647TIP3   OH226575   6.709   1.301   0.498  0.2677 -0.8080 -0.5424
 1647TIP3    H126576   6.746   1.268   0.580 -0.9499 -0.6491  0.0915
 1647TIP3    H226577   6.785   1.314   0.441  1.5318  2.0044  1.5652
 1648TIP3   OH226578   4.110   6.132   2.446  0.0109 -0.5426  0.0045
 1648TIP3    H126579   4.137   6.123   2.355  2.1694 -0.3971  0.5727
 1648TIP3    H226580   4.141   6.218   2.472 -0.5766 -0.5878  0.8843
 1649TIP3   OH226581   0.663   1.445   0.689 -0.6039 -0.0893  0.1320
 1649TIP3    H126582   0.626   1.420   0.774 -0.9151 -1.1053 -0.2921
 1649TIP3    H226583   0.679   1.362   0.645 -1.9950  0.4418 -1.4702
 1650TIP3   OH226584   0.673   5.134   7.867  0.5159  0.2516 -0.2431
 1650TIP3    H126585   0.685   5.191   7.944 -0.5170  0.4039 -0.1824
 1650TIP3    H226586   0.578   5.129   7.856  0.6543  1.8175 -2.6860
 1651TIP3   OH226587   0.999   1.417   0.987  0.2444 -0.3253  0.3489
 1651TIP3    H126588   1.033   1.458   0.908  0.7690 -0.2862  0.5889
 1651TIP3    H226589   1.077   1.387   1.034  0.0030  0.4654  1.2843
 1652TIP3   OH226590   1.520   1.061   7.912  0.2240 -0.2442 -0.0393
 1652TIP3    H126591   1.429   1.031   7.913 -0.9023  2.7223 -1.1345
 1652TIP3    H226592   1.522   1.131   7.978  1.9097 -0.6598  0.3865
 1653TIP3   OH226593   4.671   5.449   0.752  0.3050  0.0392  0.1961
 1653TIP3    H126594   4.702   5.538   0.740 -1.2531  0.3731 -1.7528
 1653TIP3    H226595   4.706   5.401   0.677 -2.4430  0.0927 -1.2480
 1654TIP3   OH226596   0.470   2.523   7.700  0.2835 -0.0532  0.1527
 1654TIP3    H126597   0.474   2.506   7.606 -1.8191 -0.2711  0.0477
 1654TIP3    H226598   0.439   2.613   7.707 -0.5387 -0.3597  0.6132
 1655TIP3   OH226599   6.874   0.549   1.479 -0.0814  0.1326  0.1301
 1655TIP3    H126600   6.843   0.595   1.402  0.5261 -1.0964 -0.8836
 1655TIP3    H226601   6.799   0.550   1.540 -1.0604 -0.1192 -1.0360
 1656TIP3   OH226602   6.331   4.045   1.599  0.2227  0.2380  0.1272
 1656TIP3    H126603   6.253   4.063   1.545  0.7877  0.0784 -0.7719
 1656TIP3    H226604   6.336   4.118   1.659 -0.5272  0.3410  0.0742
 1657TIP3   OH226605   1.331   5.345   2.162  0.2403 -0.0747 -0.3838
 1657TIP3    H126606   1.399   5.286   2.194  0.6660  0.0568 -1.0467
 1657TIP3    H226607   1.258   5.286   2.140  0.0552 -0.1931  0.5277
 1658TIP3   OH226608   3.779   5.164   1.805  0.1705 -0.0383 -0.0622
 1658TIP3    H126609   3.690   5.199   1.798  0.5015  1.2065  1.3160
 1658TIP3    H226610   3.823   5.223   1.866  2.1234 -0.3083 -1.1226
 1659TIP3   OH226611   3.081   1.321   8.544 -0.1013  0.4243 -1.2056
 1659TIP3    H126612   3.149   1.385   8.519 -0.2815  2.2912  2.3801
 1659TIP3    H226613   3.003   1.350   8.497 -0.7683  4.5325  1.7935
 1660TIP3   OH226614   5.690   0.161   1.896  0.1094  0.1143  0.3237
 1660TIP3    H126615   5.751   0.088   1.892  1.1459  0.8575  1.6959
 1660TIP3    H226616   5.670   0.181   1.805  0.9808 -0.9165 -0.1080
 1661TIP3   OH226617   1.776   0.391   1.098  0.4042  0.0403 -0.0084
 1661TIP3    H126618   1.724   0.340   1.160 -0.0822 -1.5756 -1.6594
 1661TIP3    H226619   1.857   0.342   1.088  0.9622  0.8926  0.1766
 1662TIP3   OH226620   6.691   0.139   0.688  0.3637  0.2963  0.1773
 1662TIP3    H126621   6.651   0.144   0.601 -0.1477  1.5348  0.4738
 1662TIP3    H226622   6.781   0.113   0.671  0.4252  1.0660 -0.7732
 1663TIP3   OH226623   5.611   0.591   8.223  0.2711 -0.3915 -0.2268
 1663TIP3    H126624   5.608   0.504   8.183 -1.9903 -0.4768  0.0250
 1663TIP3    H226625   5.575   0.650   8.157  2.3437  0.5240 -0.6335
 1664TIP3   OH226626   0.060   0.331   0.581 -0.4378 -0.5296  0.2331
 1664TIP3    H126627  -0.012   0.375   0.537  0.1651  0.7121  0.4284
 1664TIP3    H226628   0.059   0.367   0.670  0.1169 -0.8600  0.3813
 1665TIP3   OH226629   1.286   5.181   0.012  0.2802 -0.6777 -0.4303
 1665TIP3    H126630   1.212   5.120   0.008 -0.8902  0.7505 -1.6527
 1665TIP3    H226631   1.278   5.223   0.098 -3.0412  2.5519 -2.0373
 1666TIP3   OH226632   6.071   5.821   8.474  0.5203 -0.4424  0.4165
 1666TIP3    H126633   6.074   5.729   8.502 -0.3169 -0.1683  1.4732
 1666TIP3    H226634   6.010   5.822   8.400 -2.1574 -0.2854  2.4742
 1667TIP3   OH226635   5.046   4.066   6.215 -0.0071 -0.0383 -0.2883
 1667TIP3    H126636   5.096   3.986   6.197 -0.5430 -0.8665  1.5600
 1667TIP3    H226637   5.093   4.135   6.169  1.1163 -1.2473 -1.0254
 1668TIP3   OH226638   3.978   4.849   7.306  0.7956  0.2385 -0.0033
 1668TIP3    H126639   4.043   4.813   7.367  0.8930  1.5754  0.7516
 1668TIP3    H226640   4.029   4.873   7.229  1.0154  0.2584  0.1451
 1669TIP3   OH226641   4.498   2.072   0.343 -0.1884  0.1349 -0.3644
 1669TIP3    H126642   4.582   2.028   0.358  0.0049  0.7405  0.3827
 1669TIP3    H226643   4.435   2.019   0.392 -0.2863 -0.4265 -1.0758
 1670TIP3   OH226644   2.230   2.755   1.505 -0.1736 -0.1223  0.0461
 1670TIP3    H126645   2.272   2.787   1.585 -0.3985  1.4466 -0.4325
 1670TIP3    H226646   2.300   2.711   1.457  0.3722  0.3906  0.3538
 1671TIP3   OH226647   5.632   1.488   1.470  0.3680 -0.0892 -0.2352
 1671TIP3    H126648   5.647   1.556   1.535 -0.6883 -0.3510  0.3162
 1671TIP3    H226649   5.634   1.534   1.386  1.2869  0.3305  0.0021
 1672TIP3   OH226650   1.711   0.319   1.603 -0.2397 -0.0950  0.0185
 1672TIP3    H126651   1.740   0.286   1.688 -0.1283  1.4297  0.6047
 1672TIP3    H226652   1.674   0.242   1.559  2.2580 -1.5438  0.2861
 1673TIP3   OH226653   3.492   1.182   0.121  0.0187  0.0351  0.3292
 1673TIP3    H126654   3.459   1.097   0.092 -0.9905  1.3122 -2.6252
 1673TIP3    H226655   3.556   1.207   0.054 -0.2757  1.9394  0.6982
 1674TIP3   OH226656   2.079   2.181   7.002  0.3662  0.1494  0.2405
 1674TIP3    H126657   2.135   2.178   7.079 -1.6450 -2.2884  1.7586
 1674TIP3    H226658   1.999   2.223   7.032 -0.2204 -0.2737 -0.6902
 1675TIP3   OH226659   1.395   2.940   8.445  0.6840 -0.4106 -0.3004
 1675TIP3    H126660   1.490   2.953   8.441  0.6778 -0.6677 -1.7182
 1675TIP3    H226661   1.365   2.949   8.354 -0.8694  1.2253  0.2900
 1676TIP3   OH226662   4.086   5.051   1.442  0.3680  0.6324 -0.1847
 1676TIP3    H126663   4.015   5.037   1.379  1.2726 -0.2621 -1.0598
 1676TIP3    H226664   4.111   4.963   1.469  1.9621  0.8422 -0.8595
 1677TIP3   OH226665   0.032   4.450   7.684  0.1410 -0.4020  0.4937
 1677TIP3    H126666  -0.053   4.406   7.679 -0.1708  0.3007 -1.6575
 1677TIP3    H226667   0.078   4.423   7.604  1.5794 -0.0265  1.1449
 1678TIP3   OH226668   1.558   0.731   0.573 -0.5334  0.6996 -0.2622
 1678TIP3    H126669   1.563   0.793   0.646 -0.0561 -0.6677  0.9095
 1678TIP3    H226670   1.543   0.646   0.615 -2.3220  0.1577 -1.8839
 1679TIP3   OH226671   3.294   0.673   0.336  0.1761 -0.2397 -0.2794
 1679TIP3    H126672   3.222   0.622   0.299  1.1431 -1.4196 -0.6242
 1679TIP3    H226673   3.264   0.763   0.334 -2.0610 -0.8563  1.3767
 1680TIP3   OH226674   3.888   4.523   7.109 -0.0877 -0.2464  0.0691
 1680TIP3    H126675   3.967   4.496   7.156  0.2151  1.1274  0.3929
 1680TIP3    H226676   3.898   4.484   7.022  0.8136 -0.3213  0.1898
 1681TIP3   OH226677   5.257   1.652   0.850 -0.5678 -0.4767 -0.1836
 1681TIP3    H126678   5.174   1.630   0.894  0.1591 -0.4478  1.2651
 1681TIP3    H226679   5.248   1.744   0.827  0.4324  0.6954  3.4295
 1682TIP3   OH226680   3.993   4.817   7.989  0.4524 -0.4311  0.5083
 1682TIP3    H126681   3.983   4.894   8.045  1.4407 -0.3852  0.6369
 1682TIP3    H226682   4.071   4.836   7.937 -2.8635  1.7790 -4.5026
 1683TIP3   OH226683   4.016   1.062   8.325  0.3515 -0.2821  0.1570
 1683TIP3    H126684   3.974   1.146   8.343 -1.7603 -1.0851 -0.6911
 1683TIP3    H226685   4.093   1.084   8.274  1.0901  1.2723  1.8375
 1684TIP3   OH226686   2.211   1.908   0.139  0.0102  0.0465  0.2735
 1684TIP3    H126687   2.213   1.869   0.052 -0.1008 -0.8946  0.6743
 1684TIP3    H226688   2.269   1.853   0.192 -0.5460  0.1077  0.9764
 1685TIP3   OH226689   1.020   2.283   1.430  0.0671  0.1828  0.0881
 1685TIP3    H126690   1.015   2.379   1.433 -1.0883  0.1103  1.3227
 1685TIP3    H226691   0.951   2.254   1.489  1.8453 -1.4026  1.5110
 1686TIP3   OH226692   3.570   5.732   0.891 -0.8209  0.2241 -0.3111
 1686TIP3    H126693   3.657   5.696   0.879 -1.1900 -0.3567 -1.4472
 1686TIP3    H226694   3.584   5.826   0.905 -0.0330  0.2256 -1.0270
 1687TIP3   OH226695   5.008   1.333   8.282  0.1738  0.2614 -0.3675
 1687TIP3    H126696   5.065   1.324   8.206 -0.4334  0.3038 -0.8339
 1687TIP3    H226697   5.017   1.425   8.308 -2.3105  1.2586 -2.5921
 1688TIP3   OH226698   1.919   3.697   2.514  0.5545  0.0440  0.4437
 1688TIP3    H126699   1.913   3.780   2.467 -1.0331  0.5515  1.4923
 1688TIP3    H226700   1.950   3.721   2.602  0.7875 -0.5601  0.5321
 1689TIP3   OH226701   4.351   5.533   7.766  0.3229  0.0537 -0.6661
 1689TIP3    H126702   4.393   5.450   7.788 -0.5407 -0.2043  0.0870
 1689TIP3    H226703   4.417   5.599   7.784  0.5227 -0.3694  0.2007
 1690TIP3   OH226704   0.593   3.167   7.915 -0.2392  0.0432  0.0883
 1690TIP3    H126705   0.631   3.154   8.002  1.3373  1.4635 -0.3463
 1690TIP3    H226706   0.539   3.089   7.901 -0.6861 -0.1218  2.3990
 1691TIP3   OH226707   2.409   4.270   2.218  0.2001  0.5816 -0.4386
 1691TIP3    H126708   2.328   4.220   2.230 -0.2551  0.2996 -3.6922
 1691TIP3    H226709   2.437   4.292   2.306 -1.4962 -2.3724  0.9754
 1692TIP3   OH226710   2.055   2.906   1.259 -0.2824  0.4212  0.4338
 1692TIP3    H126711   2.099   2.942   1.336  0.4051  0.3647  0.0728
 1692TIP3    H226712   2.076   2.813   1.261 -0.4028  0.3906  0.2699
 1693TIP3   OH226713   1.903   1.923   0.670  0.0614  0.7992 -0.0895
 1693TIP3    H126714   1.926   1.944   0.579 -0.2301  2.1842  0.1309
 1693TIP3    H226715   1.808   1.930   0.672  0.1216  1.4659  0.4827
 1694TIP3   OH226716   4.845   2.375   1.141  0.1737  0.0620 -0.2365
 1694TIP3    H126717   4.779   2.444   1.138 -0.8699 -0.5965  3.2549
 1694TIP3    H226718   4.904   2.401   1.211  2.1010 -0.7491 -1.4570
 1695TIP3   OH226719   6.740   2.905   1.820 -0.2226 -0.5458 -0.5490
 1695TIP3    H126720   6.688   2.867   1.890 -1.4844  1.6500 -0.2061
 1695TIP3    H226721   6.826   2.919   1.860 -1.2091  1.6827  1.0328
 1696TIP3   OH226722   4.860   6.317   6.848  0.2587 -0.9695 -0.2332
 1696TIP3    H126723   4.835   6.228   6.824 -1.0658 -1.7189  3.3773
 1696TIP3    H226724   4.807   6.373   6.791  1.1373 -2.3766 -2.5829
 1697TIP3   OH226725   3.695   0.332   2.327  0.9135 -0.4104 -0.3911
 1697TIP3    H126726   3.723   0.422   2.343  0.6217 -0.3118 -0.4297
 1697TIP3    H226727   3.604   0.340   2.298  0.1814 -0.8488  1.6152
 1698TIP3   OH226728   2.577   6.104   8.218 -0.3641  0.2522  0.0608
 1698TIP3    H126729   2.484   6.082   8.230 -1.0805  2.1730 -1.3139
 1698TIP3    H226730   2.581   6.198   8.234  1.7997 -0.1123  2.1066
 1699TIP3   OH226731   2.413   0.102   7.648  1.0133  0.0138 -0.3103
 1699TIP3    H126732   2.484   0.080   7.709  1.1990 -1.2878 -0.9681
 1699TIP3    H226733   2.412   0.197   7.647  1.0648  0.0760  1.6626
 1700TIP3   OH226734   3.164   4.177   0.749 -0.2177  0.0949 -0.1019
 1700TIP3    H126735   3.153   4.234   0.825  1.1215  0.0328  0.1639
 1700TIP3    H226736   3.098   4.108   0.761  0.4773 -0.3511  1.4209
 1701TIP3   OH226737   2.658   0.526   1.225 -0.0489 -0.6958 -0.4617
 1701TIP3    H126738   2.716   0.524   1.302  1.0804 -0.9028 -1.2857
 1701TIP3    H226739   2.701   0.586   1.165 -1.7969  0.7911 -0.3079
 1702TIP3   OH226740   6.135   2.991   1.566  0.5094 -0.2035  0.4422
 1702TIP3    H126741   6.203   2.923   1.563  0.9315  0.0157  2.9814
 1702TIP3    H226742   6.176   3.067   1.524  0.8448 -0.8394 -0.4153
 1703TIP3   OH226743   0.855   2.056   7.977  0.1686 -0.7295 -0.0712
 1703TIP3    H126744   0.938   2.104   7.973 -0.7541  0.8761 -1.6736
 1703TIP3    H226745   0.878   1.968   7.947  1.7502 -1.1271  2.1021
 1704TIP3   OH226746   2.792   6.633   8.556 -0.4900 -0.0274 -0.3879
 1704TIP3    H126747   2.768   6.633   8.649  0.8067  1.4956 -0.0040
 1704TIP3    H226748   2.768   6.546   8.525 -1.9091 -0.2187  1.1078
 1705TIP3   OH226749   3.123   3.761   1.454  0.4228  0.4990 -0.2981
 1705TIP3    H126750   3.052   3.699   1.472  0.7898  0.1200 -0.1385
 1705TIP3    H226751   3.080   3.847   1.455 -0.3545  0.1550 -1.9814
 1706TIP3   OH226752   6.891   0.540   6.555 -0.3230  0.1529 -0.4814
 1706TIP3    H126753   6.942   0.574   6.481  0.3026 -0.8811 -0.5416
 1706TIP3    H226754   6.912   0.598   6.628  0.2639  0.2492 -0.7239
 1707TIP3   OH226755   0.757   4.503   0.445 -0.3053  0.1269  0.4566
 1707TIP3    H126756   0.836   4.497   0.497 -0.7788  0.4036  1.2276
 1707TIP3    H226757   0.735   4.596   0.445 -1.3995 -0.0973  1.4687
 1708TIP3   OH226758   2.914   5.262   0.657  0.1475  0.0185  0.5627
 1708TIP3    H126759   2.819   5.250   0.663 -0.1045  1.2037 -0.6984
 1708TIP3    H226760   2.931   5.273   0.564  1.4127  0.7711  0.8600
 1709TIP3   OH226761   3.780   1.336   2.557  0.1256 -0.2196  0.2090
 1709TIP3    H126762   3.823   1.420   2.548 -0.8156  0.3163  0.6016
 1709TIP3    H226763   3.686   1.356   2.558 -0.1667 -1.3662 -0.8586
 1710TIP3   OH226764   2.842   4.651   8.040 -0.3237 -0.3234 -0.1623
 1710TIP3    H126765   2.871   4.652   8.131  2.2323  1.9831 -0.8597
 1710TIP3    H226766   2.767   4.710   8.038  1.5338  2.2076  0.0467
 1711TIP3   OH226767   2.745   4.991   0.923  0.4353  0.4765 -0.2990
 1711TIP3    H126768   2.814   5.057   0.919  0.1641  0.7410 -0.7245
 1711TIP3    H226769   2.665   5.039   0.903  0.0931  0.2170  0.4381
 1712TIP3   OH226770   1.051   0.963   8.329  0.6664 -0.0969  0.2400
 1712TIP3    H126771   1.146   0.952   8.329  0.7201 -0.1206 -1.9223
 1712TIP3    H226772   1.024   0.934   8.242 -1.2115  0.7961  0.4809
 1713TIP3   OH226773   3.052   4.521   1.147  0.4257 -0.4236  0.4261
 1713TIP3    H126774   2.960   4.498   1.159  0.1285  0.1718 -0.6141
 1713TIP3    H226775   3.051   4.590   1.081  1.3608  1.7398  2.5311
 1714TIP3   OH226776   3.583   2.775   1.440 -0.3392 -0.2821  0.0269
 1714TIP3    H126777   3.574   2.775   1.535 -0.3474  0.3300  0.0332
 1714TIP3    H226778   3.589   2.683   1.416  0.0779 -0.4240  0.6594
 1715TIP3   OH226779   0.358   5.906   7.446 -0.4799 -0.3491 -0.0410
 1715TIP3    H126780   0.418   5.972   7.481  1.0368 -0.9578 -1.3454
 1715TIP3    H226781   0.382   5.826   7.493 -2.6628  0.0474  1.9117
 1716TIP3   OH226782   4.113   4.616   2.360 -0.3706  0.5943  0.0801
 1716TIP3    H126783   4.200   4.653   2.341 -0.5429  0.3254 -1.3511
 1716TIP3    H226784   4.056   4.692   2.367 -0.1039  0.7515  0.5972
 1717TIP3   OH226785   3.939   4.342   1.497 -0.3017 -0.1854 -0.4210
 1717TIP3    H126786   3.920   4.251   1.519 -0.2539 -0.6740 -2.2745
 1717TIP3    H226787   3.879   4.363   1.426 -0.9338  1.5462  0.5537
 1718TIP3   OH226788   6.459   3.017   8.329 -0.4272 -0.5053  0.2139
 1718TIP3    H126789   6.422   2.959   8.262 -0.5094  0.5079 -0.6643
 1718TIP3    H226790   6.511   3.080   8.279  1.0564 -0.8308  1.2865
 1719TIP3   OH226791   1.773   5.608   7.746 -0.3533  1.2947  0.1626
 1719TIP3    H126792   1.685   5.646   7.751 -0.1420  1.7279  0.6316
 1719TIP3    H226793   1.798   5.622   7.654 -1.0058  0.6171 -0.1367
 1720TIP3   OH226794   3.741   1.858   6.727 -0.4492 -0.1051 -0.0845
 1720TIP3    H126795   3.778   1.788   6.673 -0.5862 -0.2082 -0.0450
 1720TIP3    H226796   3.719   1.927   6.665 -2.7203 -1.1038 -0.4777
 1721TIP3   OH226797   0.734   2.071   7.303  0.4034  0.0080  0.2632
 1721TIP3    H126798   0.640   2.085   7.289 -0.4853 -2.4209  2.6917
 1721TIP3    H226799   0.753   2.121   7.383  0.8463 -0.4594  0.4554
 1722TIP3   OH226800   0.650   4.907   1.653  0.1673 -0.1417  0.8056
 1722TIP3    H126801   0.619   4.873   1.569  1.5185 -0.2159  0.3057
 1722TIP3    H226802   0.573   4.947   1.693 -1.5558 -3.7492  1.4628
 1723TIP3   OH226803   3.596   4.525   0.152 -0.0656  0.5249 -0.5162
 1723TIP3    H126804   3.603   4.620   0.165 -0.3489  0.3547  1.2412
 1723TIP3    H226805   3.525   4.515   0.089  0.1194  1.4843 -0.9047
 1724TIP3   OH226806   6.127   4.312   2.718  0.2631  0.1420  0.3327
 1724TIP3    H126807   6.079   4.229   2.708  0.1511  0.1520  0.7569
 1724TIP3    H226808   6.063   4.379   2.694  0.4116  0.0986 -0.1960
 1725TIP3   OH226809   1.837   5.847   1.707 -0.6027  0.7663  0.2473
 1725TIP3    H126810   1.922   5.884   1.733 -0.4862  2.0539 -1.7289
 1725TIP3    H226811   1.787   5.923   1.677 -1.2609 -0.3703 -1.6726
 1726TIP3   OH226812   1.196   3.289   1.753 -0.2104  0.6007  0.3240
 1726TIP3    H126813   1.102   3.272   1.744  0.2160 -1.5541 -0.5783
 1726TIP3    H226814   1.211   3.287   1.847 -0.7688 -1.1173  0.4126
 1727TIP3   OH226815   3.268   6.136   0.467  0.0747 -0.6116 -0.3202
 1727TIP3    H126816   3.352   6.180   0.453 -0.2656  0.1483 -0.0054
 1727TIP3    H226817   3.244   6.104   0.380 -0.8740  2.0328 -1.1409
 1728TIP3   OH226818   4.773   4.479   1.881 -0.2148  0.6408 -0.3269
 1728TIP3    H126819   4.726   4.396   1.885  0.2816  0.2448 -1.9213
 1728TIP3    H226820   4.762   4.517   1.968  1.6727 -2.2269  1.3414
 1729TIP3   OH226821   2.272   2.389   1.519  0.8474  0.2794 -0.2884
 1729TIP3    H126822   2.246   2.308   1.475 -0.2275 -0.1708  1.0899
 1729TIP3    H226823   2.203   2.404   1.584 -0.5269  3.8722 -2.3452
 1730TIP3   OH226824   2.987   3.980   0.814 -0.2576  0.4374  0.4059
 1730TIP3    H126825   2.991   3.886   0.797  0.2314  0.7270 -1.2112
 1730TIP3    H226826   2.933   3.988   0.893 -1.5477 -1.1134 -0.2767
 1731TIP3   OH226827   1.571   4.548   7.988  0.6673  0.0241 -0.2091
 1731TIP3    H126828   1.547   4.565   8.079 -0.6035 -0.1049 -0.5019
 1731TIP3    H226829   1.569   4.635   7.946 -0.7915 -0.1409 -0.5529
 1732TIP3   OH226830   1.939   1.727   0.164  0.2767  0.0519 -0.1704
 1732TIP3    H126831   1.937   1.769   0.078 -0.9761 -1.4868 -0.9503
 1732TIP3    H226832   1.975   1.640   0.147  0.4295 -0.1064  0.9350
 1733TIP3   OH226833   4.346   1.548   7.160  0.3018  0.0532  0.3712
 1733TIP3    H126834   4.371   1.581   7.073  2.2807 -0.1080  0.8214
 1733TIP3    H226835   4.253   1.570   7.168  0.2711  0.8067 -1.4495
 1734TIP3   OH226836   4.448   4.882   1.974 -0.1039  0.4632  0.2914
 1734TIP3    H126837   4.371   4.932   2.001 -0.6283 -1.5183  2.8518
 1734TIP3    H226838   4.415   4.793   1.960  1.4014 -0.0021 -0.5014
 1735TIP3   OH226839   6.707   2.737   8.140  0.1153  0.3610 -0.1378
 1735TIP3    H126840   6.628   2.782   8.109  1.0979  1.5967 -0.9550
 1735TIP3    H226841   6.748   2.800   8.199 -0.5544 -1.0908  2.0188
 1736TIP3   OH226842   3.978   6.305   7.281 -0.6806  0.1143 -0.1970
 1736TIP3    H126843   3.897   6.287   7.233 -0.9445  2.2380 -0.6529
 1736TIP3    H226844   4.008   6.389   7.247  0.3821  0.5857  1.7436
 1737TIP3   OH226845   4.443   2.924   2.018  0.3467  0.5061 -0.0754
 1737TIP3    H126846   4.349   2.909   2.026  0.1493  0.9925 -1.3459
 1737TIP3    H226847   4.475   2.852   1.964  0.6238  0.5977 -0.0367
 1738TIP3   OH226848   2.101   6.259   7.168  0.3351  0.1143  0.1779
 1738TIP3    H126849   2.030   6.309   7.128 -0.7016 -1.1716  0.3569
 1738TIP3    H226850   2.089   6.170   7.136  0.7528 -0.5023  1.6733
 1739TIP3   OH226851   3.691   0.341   6.265  0.2546  0.1763  0.2138
 1739TIP3    H126852   3.697   0.254   6.226 -0.5946  1.1304 -2.2856
 1739TIP3    H226853   3.655   0.326   6.352 -0.5582 -1.9360 -0.4195
 1740TIP3   OH226854   4.776   1.828   7.082 -0.3629 -0.4042  0.4350
 1740TIP3    H126855   4.866   1.802   7.104 -0.6680 -1.2703  0.6860
 1740TIP3    H226856   4.729   1.824   7.165 -0.2215  1.9237  0.6895
 1741TIP3   OH226857   3.551   0.402   2.626  0.0967 -0.3039  0.3485
 1741TIP3    H126858   3.564   0.486   2.670 -0.9499 -0.7074  1.5135
 1741TIP3    H226859   3.598   0.339   2.681 -0.3726 -0.6817  0.3257
 1742TIP3   OH226860   1.694   0.276   7.356  0.2144  0.4297  0.3302
 1742TIP3    H126861   1.777   0.234   7.377 -0.4724 -1.6471 -0.8324
 1742TIP3    H226862   1.671   0.324   7.436  2.0649  0.3254  0.9784
 1743TIP3   OH226863   4.853   4.826   1.460 -0.5777 -0.1969 -0.4634
 1743TIP3    H126864   4.905   4.751   1.432 -1.5107 -0.4166 -1.6906
 1743TIP3    H226865   4.890   4.851   1.545  4.3033  2.3170 -2.9353
 1744TIP3   OH226866   3.094   6.758   6.395  0.7590  0.1476 -0.1868
 1744TIP3    H126867   3.023   6.698   6.373 -2.5463  3.0333  1.6924
 1744TIP3    H226868   3.110   6.745   6.488  1.8482  0.4634 -0.3076
 1745TIP3   OH226869   2.364   2.979   0.288  0.1469  0.0843  1.0421
 1745TIP3    H126870   2.288   3.036   0.277  0.3010 -0.0208 -0.9958
 1745TIP3    H226871   2.438   3.039   0.298  0.0860  0.2266  0.6496
 1746TIP3   OH226872   5.825   0.504   0.675  0.4593  0.9038  0.3971
 1746TIP3    H126873   5.817   0.572   0.609 -1.5590  0.2739 -0.0750
 1746TIP3    H226874   5.906   0.458   0.653 -0.3372  0.4584 -1.9349
 1747TIP3   OH226875   5.454   1.356   7.951 -0.0600 -0.4286 -0.2486
 1747TIP3    H126876   5.520   1.304   7.997 -0.7031 -0.5785  0.5280
 1747TIP3    H226877   5.398   1.291   7.909  1.7151 -0.2959 -3.0783
 1748TIP3   OH226878   3.002   6.570   1.155 -0.2281  0.7259  0.0013
 1748TIP3    H126879   2.929   6.568   1.218 -0.1672  0.6788  0.0708
 1748TIP3    H226880   3.066   6.509   1.192 -0.5741  0.0021 -0.5637
 1749TIP3   OH226881   3.646   4.667   8.181  0.1734  0.2719 -0.0555
 1749TIP3    H126882   3.688   4.647   8.098  0.5602  1.4072 -0.1411
 1749TIP3    H226883   3.557   4.694   8.158 -0.8830 -2.6319  0.1567
 1750TIP3   OH226884   2.688   0.541   7.875  0.1829 -0.4447  0.1518
 1750TIP3    H126885   2.614   0.482   7.860  0.0411 -0.0676 -0.6961
 1750TIP3    H226886   2.766   0.488   7.858  0.0786 -0.5841  0.1154
 1751TIP3   OH226887   5.816   5.345   1.424  0.3114 -0.5845 -0.4048
 1751TIP3    H126888   5.812   5.413   1.356 -1.4987 -1.5855 -1.3642
 1751TIP3    H226889   5.749   5.371   1.487 -0.6467 -1.6178 -0.9591
 1752TIP3   OH226890   0.518   3.844   0.115  0.5990  0.0537  0.4251
 1752TIP3    H126891   0.588   3.846   0.180  1.8546 -0.0552 -0.8830
 1752TIP3    H226892   0.500   3.751   0.101  2.6867 -0.1189 -1.7566
 1753TIP3   OH226893   6.278   4.921   0.373 -0.1429  0.7469  0.0710
 1753TIP3    H126894   6.189   4.885   0.376  0.2591 -0.2416  0.8826
 1753TIP3    H226895   6.307   4.904   0.283  0.7232 -2.8666  0.8603
 1754TIP3   OH226896   4.481   5.621   6.987 -0.2560  0.0779  0.0145
 1754TIP3    H126897   4.516   5.666   7.064 -0.6755 -0.7165  0.6830
 1754TIP3    H226898   4.489   5.685   6.917 -0.2270  0.9630  0.7988
 1755TIP3   OH226899   2.291   3.819   1.497 -0.0764 -0.5668 -0.7416
 1755TIP3    H126900   2.347   3.872   1.553 -0.8682  0.4987 -0.9329
 1755TIP3    H226901   2.286   3.734   1.541  0.6603 -0.2796 -0.0803
 1756TIP3   OH226902   1.219   6.339   0.894  0.0737 -0.2863  0.3766
 1756TIP3    H126903   1.192   6.370   0.981  0.8573  0.5227  0.3501
 1756TIP3    H226904   1.152   6.374   0.835 -0.5386 -0.9526  0.6518
 1757TIP3   OH226905   2.067   4.232   0.966  0.5113 -0.1220  0.2072
 1757TIP3    H126906   2.135   4.214   0.902  0.1289 -0.5285 -0.0960
 1757TIP3    H226907   1.994   4.176   0.939 -0.1153  0.6694  0.2348
 1758TIP3   OH226908   4.297   3.942   7.518  0.1012 -0.1334  0.2267
 1758TIP3    H126909   4.370   3.943   7.457  0.4524  1.0301  0.6379
 1758TIP3    H226910   4.337   3.954   7.604 -0.3710 -1.8800  0.7449
 1759TIP3   OH226911   6.205   1.176   0.432 -0.1411  0.5925  0.3927
 1759TIP3    H126912   6.262   1.253   0.428 -0.8514  1.1038 -0.2562
 1759TIP3    H226913   6.241   1.122   0.502 -0.1565  1.9342  1.4661
 1760TIP3   OH226914   3.621   6.259   6.762 -0.8256  0.6618 -0.0682
 1760TIP3    H126915   3.700   6.273   6.814 -0.7571  0.7002 -0.1832
 1760TIP3    H226916   3.634   6.311   6.683 -0.2879 -0.5399 -0.7916
 1761TIP3   OH226917   4.027   6.015   1.128  0.0683  0.5815  0.2287
 1761TIP3    H126918   4.002   5.942   1.070 -0.4597  0.2906  0.8093
 1761TIP3    H226919   4.118   6.034   1.104  0.6274 -1.0677  0.8781
 1762TIP3   OH226920   0.118   5.258   1.157 -0.5278  0.4139 -0.0747
 1762TIP3    H126921   0.210   5.248   1.179 -0.2282  1.5300 -0.7434
 1762TIP3    H226922   0.078   5.175   1.183  0.7099 -0.1921 -0.0303
 1763TIP3   OH226923   2.322   6.490   7.276 -0.1323  0.2532  0.1561
 1763TIP3    H126924   2.270   6.411   7.291 -2.4603  1.6733  0.1158
 1763TIP3    H226925   2.290   6.552   7.342  4.2124  0.1597  2.7042
 1764TIP3   OH226926   4.969   3.745   7.022 -0.3358 -0.4152  0.4987
 1764TIP3    H126927   4.940   3.716   6.935 -1.8101 -0.6374  1.0480
 1764TIP3    H226928   5.055   3.705   7.032 -0.5603 -1.1936 -0.4628
 1765TIP3   OH226929   4.958   1.377   7.670  0.1632 -0.8004 -0.0905
 1765TIP3    H126930   5.027   1.436   7.641 -0.8947  0.7500  0.4290
 1765TIP3    H226931   4.915   1.423   7.742 -1.0132 -1.9917  0.0180
 1766TIP3   OH226932   3.978   0.213   7.770  0.6782 -0.4059 -0.3529
 1766TIP3    H126933   4.043   0.282   7.786 -2.0268  1.9597  1.3133
 1766TIP3    H226934   3.915   0.253   7.710 -0.1335 -2.0829 -0.6756
 1767TIP3   OH226935   3.998   5.701   0.661 -0.1046 -0.4990 -0.1198
 1767TIP3    H126936   4.012   5.659   0.576  0.4282  1.7064 -1.1988
 1767TIP3    H226937   4.086   5.716   0.695 -0.2695 -3.7424  2.1993
 1768TIP3   OH226938   5.753   4.266   6.788 -0.2737  0.0960 -0.7752
 1768TIP3    H126939   5.809   4.192   6.810 -0.6271 -0.1406 -0.6635
 1768TIP3    H226940   5.676   4.255   6.843  0.2221  1.2482  0.1841
 1769TIP3   OH226941   5.022   6.279   8.448  0.1714 -0.0076 -0.8851
 1769TIP3    H126942   5.083   6.351   8.460  0.2958 -0.0502 -1.2593
 1769TIP3    H226943   5.051   6.212   8.509 -0.0150  0.3018 -0.4515
 1770TIP3   OH226944   1.989   6.031   7.815  0.5696 -0.2575  0.3045
 1770TIP3    H126945   1.980   6.115   7.859  0.1247  0.1219 -0.4737
 1770TIP3    H226946   1.899   6.003   7.798  0.6399  0.8834 -2.6471
 1771TIP3   OH226947   5.658   1.743   8.505 -0.4536  0.4414  0.0250
 1771TIP3    H126948   5.751   1.746   8.529  0.2172  0.6402 -2.3617
 1771TIP3    H226949   5.635   1.834   8.488 -0.5748  0.2044 -1.1301
 1772TIP3   OH226950   5.199   6.413   2.191  0.2333  0.4200  1.0897
 1772TIP3    H126951   5.150   6.354   2.135  1.3612 -0.8265  1.3562
 1772TIP3    H226952   5.208   6.367   2.274  0.4487  1.3080  1.5779
 1773TIP3   OH226953   6.903   5.457   7.806  0.3279 -0.4754  0.1887
 1773TIP3    H126954   6.827   5.508   7.833  1.8022  1.4388  0.9369
 1773TIP3    H226955   6.882   5.426   7.718 -0.8139  1.1119 -0.1345
 1774TIP3   OH226956   1.427   1.834   7.514  0.0944 -0.0875 -0.4381
 1774TIP3    H126957   1.467   1.858   7.598 -0.5109 -1.3251  0.2425
 1774TIP3    H226958   1.362   1.767   7.537 -0.8468  0.3155 -1.7668
 1775TIP3   OH226959   2.059   4.123   1.384  0.2307  0.6001  0.3106
 1775TIP3    H126960   2.120   4.123   1.311 -1.2747 -0.6076 -1.0374
 1775TIP3    H226961   2.063   4.034   1.419 -1.0056  0.3885 -0.0492
 1776TIP3   OH226962   5.683   0.889   1.396 -0.3881 -0.1411  0.1783
 1776TIP3    H126963   5.628   0.938   1.457  0.2601 -0.1997  0.8247
 1776TIP3    H226964   5.694   0.803   1.438 -0.4068 -0.3800 -0.2998
 1777TIP3   OH226965   6.191   1.472   7.581 -0.3851 -0.2831  0.0311
 1777TIP3    H126966   6.224   1.560   7.601  0.6665 -0.6986  0.1847
 1777TIP3    H226967   6.128   1.487   7.510  1.1459  0.4249 -1.2560
 1778TIP3   OH226968   4.945   5.770   7.861  0.1708  0.3522  0.3547
 1778TIP3    H126969   5.034   5.796   7.838 -0.0890 -0.0902 -1.2882
 1778TIP3    H226970   4.899   5.852   7.877  1.0411  0.5587  2.0155
 1779TIP3   OH226971   5.577   0.221   2.134 -0.5277  0.5695  0.8511
 1779TIP3    H126972   5.579   0.201   2.040 -1.6829 -1.2677  1.1672
 1779TIP3    H226973   5.488   0.201   2.160 -0.2206  1.0842  2.3504
 1780TIP3   OH226974   0.045   2.895   1.024  0.0097  0.4012 -0.7390
 1780TIP3    H126975   0.116   2.953   0.997 -0.2332  1.2600  0.3854
 1780TIP3    H226976  -0.004   2.946   1.089 -0.9166 -0.6257 -0.6104
 1781TIP3   OH226977   6.013   5.204   2.553  0.1199  0.6061 -0.0513
 1781TIP3    H126978   6.031   5.168   2.640 -2.2224  1.4569  0.8413
 1781TIP3    H226979   5.957   5.279   2.569  0.2100  1.2135 -2.2826
 1782TIP3   OH226980   0.561   1.398   7.402 -0.1956  0.4175 -0.6744
 1782TIP3    H126981   0.618   1.461   7.446  1.5297 -0.3749 -1.6783
 1782TIP3    H226982   0.473   1.419   7.434  0.7952  0.6825  2.1389
 1783TIP3   OH226983   4.714   4.110   7.743  0.0018 -0.0416  0.6365
 1783TIP3    H126984   4.638   4.168   7.734 -0.7730 -1.2732 -1.2670
 1783TIP3    H226985   4.678   4.022   7.738  1.6127 -0.6664 -1.1300
 1784TIP3   OH226986   1.489   0.039   6.845 -0.3711 -0.3491  0.5486
 1784TIP3    H126987   1.494  -0.044   6.797 -0.7894  0.5674 -1.1662
 1784TIP3    H226988   1.569   0.042   6.897  0.5001 -1.0605 -0.6866
 1785TIP3   OH226989   0.795   6.382   6.604 -0.6650 -0.5792  0.0462
 1785TIP3    H126990   0.769   6.381   6.696 -1.7782 -0.2766 -0.2490
 1785TIP3    H226991   0.724   6.428   6.560  0.2106 -0.0667 -0.8647
 1786TIP3   OH226992   6.492   5.929   0.955 -0.5306  0.4656 -0.6958
 1786TIP3    H126993   6.497   5.957   1.046 -1.6070  0.3280 -0.5882
 1786TIP3    H226994   6.489   6.010   0.904 -0.4947  0.5379 -0.5827
 1787TIP3   OH226995   4.831   1.152   8.390  0.0580  0.7451 -0.1157
 1787TIP3    H126996   4.906   1.196   8.348  1.1242 -1.6710 -0.9120
 1787TIP3    H226997   4.836   1.180   8.482  0.6951  2.2187 -0.5619
 1788TIP3   OH226998   1.551   2.423   8.139  0.2556 -0.6394  0.2906
 1788TIP3    H126999   1.578   2.433   8.047 -2.8891  1.6887 -0.5465
 1788TIP3    H227000   1.506   2.339   8.141  0.2427 -0.6574 -0.3265
 1789TIP3   OH227001   0.216   5.084   1.355  0.5930  0.0679 -0.0621
 1789TIP3    H127002   0.204   5.008   1.412  0.2395 -0.1490 -0.4216
 1789TIP3    H227003   0.311   5.095   1.352  0.6313 -0.1095  0.3170
 1790TIP3   OH227004   2.018   4.950   7.253 -1.0689  0.5595  0.6677
 1790TIP3    H127005   2.055   4.873   7.210  0.1966  0.5795  1.6709
 1790TIP3    H227006   1.941   4.973   7.200 -0.0467  0.0841 -1.0889
 1791TIP3   OH227007   3.005   0.696   6.838  0.1326 -0.1336 -0.1525
 1791TIP3    H127008   2.991   0.716   6.745 -1.7838  0.2676  0.1951
 1791TIP3    H227009   2.952   0.619   6.855  0.1655  0.0244  0.7130
 1792TIP3   OH227010   0.408   0.828   0.880  0.1587 -0.1010  0.3590
 1792TIP3    H127011   0.319   0.795   0.875 -1.0439  2.4240  2.7100
 1792TIP3    H227012   0.441   0.822   0.790 -2.3052 -1.2029 -0.5478
 1793TIP3   OH227013   1.404   4.204   7.659 -0.0041 -0.3773 -0.1789
 1793TIP3    H127014   1.480   4.230   7.606 -0.3559  0.2595 -0.3854
 1793TIP3    H227015   1.349   4.282   7.661 -1.9066 -1.5181 -2.1852
 1794TIP3   OH227016   1.152   0.238   1.648  0.4909  0.1448  0.4507
 1794TIP3    H127017   1.169   0.329   1.625 -0.3847  0.1168 -0.3847
 1794TIP3    H227018   1.237   0.204   1.677  1.4595  0.4898 -1.7977
 1795TIP3   OH227019   3.688   1.832   7.275  0.5343  0.1260  0.8939
 1795TIP3    H127020   3.598   1.855   7.296 -0.0571 -1.7302  0.5562
 1795TIP3    H227021   3.700   1.860   7.184  0.2871  0.3420  0.9288
 1796TIP3   OH227022   2.705   6.579   0.238  0.1205  0.3728  0.1736
 1796TIP3    H127023   2.705   6.486   0.215 -0.5845  0.4419 -0.1137
 1796TIP3    H227024   2.709   6.580   0.333  0.4337  0.0526  0.1663
 1797TIP3   OH227025   2.466   3.827   1.208  0.1954  0.3807  0.1871
 1797TIP3    H127026   2.385   3.776   1.206 -0.1841  0.9844 -1.1307
 1797TIP3    H227027   2.471   3.868   1.121  1.7341  0.6402  0.3663
 1798TIP3   OH227028   3.102   2.283   0.679 -0.0145  0.4782  0.0407
 1798TIP3    H127029   3.188   2.323   0.666  0.8885 -1.9015 -2.0125
 1798TIP3    H227030   3.050   2.310   0.603 -1.6289  2.8868  1.8352
 1799TIP3   OH227031   4.888   3.853   0.510  0.0037 -0.2550 -0.4569
 1799TIP3    H127032   4.953   3.857   0.440  0.7236 -0.6675  0.1713
 1799TIP3    H227033   4.908   3.771   0.556  1.2013  1.2025  1.7953
 1800TIP3   OH227034   2.778   5.172   0.383 -0.1340 -0.1895  0.7909
 1800TIP3    H127035   2.729   5.221   0.448 -1.9408 -0.9889  0.1211
 1800TIP3    H227036   2.749   5.208   0.299  0.6386 -0.5037  0.3769
 1801TIP3   OH227037   1.192   6.559   1.705  0.2110  0.2408  0.2226
 1801TIP3    H127038   1.277   6.518   1.724  0.3082  0.4885  0.3309
 1801TIP3    H227039   1.142   6.549   1.786  0.2503  0.3715  0.2636
 1802TIP3   OH227040   3.918   6.476   1.441  0.0776  0.1757 -0.7271
 1802TIP3    H127041   3.942   6.415   1.510  1.3230  1.5771  0.1457
 1802TIP3    H227042   3.850   6.431   1.391 -0.2924 -1.1843  0.9259
 1803TIP3   OH227043   2.054   6.188   2.450  0.3120  0.2029  0.2974
 1803TIP3    H127044   2.085   6.264   2.401  0.5310 -0.7344 -1.0789
 1803TIP3    H227045   1.958   6.195   2.448  0.3143  1.7787  2.4188
 1804TIP3   OH227046   1.522   6.700   8.250 -0.0301 -0.1577  0.1453
 1804TIP3    H127047   1.607   6.714   8.210 -0.7483  2.4271 -0.6608
 1804TIP3    H227048   1.530   6.736   8.338 -0.6183  1.3757 -0.3931
 1805TIP3   OH227049   6.313   1.984   0.036  0.2111  0.0975  0.1806
 1805TIP3    H127050   6.403   2.017   0.039  0.3033 -0.1481  0.1449
 1805TIP3    H227051   6.277   2.021  -0.044 -0.7291  2.7618  1.7069
 1806TIP3   OH227052   2.088   4.779   7.630  0.6547 -0.4951  0.5215
 1806TIP3    H127053   2.057   4.712   7.692 -1.8875 -1.0900 -1.2452
 1806TIP3    H227054   2.010   4.804   7.580  1.9084  2.4869 -0.1480
 1807TIP3   OH227055   0.803   6.182   7.445 -0.1702 -0.4043 -0.1866
 1807TIP3    H127056   0.844   6.199   7.360 -0.4717 -0.1770 -0.2879
 1807TIP3    H227057   0.841   6.248   7.503 -1.2325  0.5547 -0.5470
 1808TIP3   OH227058   6.374   2.057   0.795  0.8052 -0.3328 -0.8954
 1808TIP3    H127059   6.439   2.115   0.835 -2.2813  2.1378  1.0109
 1808TIP3    H227060   6.344   2.103   0.717  0.3530 -0.7843 -0.9951
 1809TIP3   OH227061   3.605   1.068   8.160  0.7000  0.0568  0.0607
 1809TIP3    H127062   3.606   1.000   8.228  0.4682 -0.3632 -0.3501
 1809TIP3    H227063   3.561   1.026   8.086  0.3727  0.7266 -0.1244
 1810TIP3   OH227064   3.664   3.060   1.559  0.0362  0.2436 -0.5598
 1810TIP3    H127065   3.589   3.028   1.509 -0.3945  0.9666 -0.3838
 1810TIP3    H227066   3.628   3.125   1.619  0.6209 -0.2755  0.3724
 1811TIP3   OH227067   6.471   0.839   0.545  0.3230 -0.0082  0.3590
 1811TIP3    H127068   6.416   0.791   0.483 -1.3870  4.1107 -1.6379
 1811TIP3    H227069   6.409   0.890   0.598  2.0232  0.4561  2.0199
 1812TIP3   OH227070   4.296   2.065   2.101 -0.0327  0.1667  0.2157
 1812TIP3    H127071   4.228   2.018   2.149 -0.9708  1.3232  0.0565
 1812TIP3    H227072   4.255   2.148   2.076  1.4812  0.9442  0.2267
 1813TIP3   OH227073   3.124   0.685   0.842 -0.0927 -0.7443  0.2344
 1813TIP3    H127074   3.037   0.689   0.802 -0.4246  0.7072  1.0405
 1813TIP3    H227075   3.183   0.673   0.768 -0.7944  0.7101 -0.6079
 1814TIP3   OH227076   0.954   4.874   8.361 -0.1504  0.1192 -0.3655
 1814TIP3    H127077   0.879   4.894   8.305 -1.0879  0.0607  0.8280
 1814TIP3    H227078   0.933   4.789   8.399  0.9762 -0.3365 -0.7351
 1815TIP3   OH227079   5.652   4.012   1.543  0.3534  0.2909  0.2023
 1815TIP3    H127080   5.584   3.990   1.479  0.9400  0.4763 -0.4917
 1815TIP3    H227081   5.653   4.108   1.546  0.9869  0.3039 -0.2356
 1816TIP3   OH227082   3.007   3.503   7.422 -0.2040  0.2926 -0.1009
 1816TIP3    H127083   2.978   3.568   7.358 -1.0695 -1.7290 -1.9073
 1816TIP3    H227084   2.926   3.474   7.464 -0.1759 -1.2479 -1.0205
 1817TIP3   OH227085   0.640   2.942   7.467  0.3622  0.0611  0.0416
 1817TIP3    H127086   0.690   2.939   7.549 -0.8887  1.4717  0.9050
 1817TIP3    H227087   0.698   2.903   7.403  0.4894 -3.3995  2.0186
 1818TIP3   OH227088   3.744   1.954   7.746 -0.5470  0.3831  0.6272
 1818TIP3    H127089   3.651   1.937   7.732 -0.2759  0.6017 -1.9374
 1818TIP3    H227090   3.788   1.879   7.707  0.3691  0.9536  0.5433
 1819TIP3   OH227091   4.100   4.179   1.248 -0.3914 -0.4747 -0.0745
 1819TIP3    H127092   4.093   4.182   1.343 -1.3281 -0.1753 -0.1469
 1819TIP3    H227093   4.010   4.178   1.217 -0.1536  1.7780 -1.0258
 1820TIP3   OH227094   3.988   2.216   6.504  0.0203  0.3208  0.3020
 1820TIP3    H127095   4.045   2.221   6.428 -1.4003  0.0370 -0.8323
 1820TIP3    H227096   4.043   2.242   6.578  1.9622 -1.1938 -0.5330
 1821TIP3   OH227097   0.702   3.212   7.660 -0.1089  0.0329  0.5617
 1821TIP3    H127098   0.797   3.205   7.658 -0.1054 -0.2842  1.4188
 1821TIP3    H227099   0.679   3.211   7.753 -0.9204  0.5782  0.3800
 1822TIP3   OH227100   6.181   6.836   1.759 -0.5262 -0.7546  0.5907
 1822TIP3    H127101   6.136   6.804   1.681  1.4779 -1.2636 -0.4177
 1822TIP3    H227102   6.199   6.928   1.741  1.5011 -1.2865 -0.3937
 1823TIP3   OH227103   1.156   1.931   1.310  0.5767  0.1162 -0.2754
 1823TIP3    H127104   1.152   1.850   1.359  0.2536  1.4191  1.9578
 1823TIP3    H227105   1.241   1.969   1.333  0.5415  0.6296 -0.9471
 1824TIP3   OH227106   6.801   6.543   1.261 -0.1442 -0.6293  0.2418
 1824TIP3    H127107   6.854   6.587   1.195 -0.8234  2.2017  1.4078
 1824TIP3    H227108   6.715   6.532   1.220 -0.0391 -0.5982  0.0143
 1825TIP3   OH227109   4.118   2.612   0.372  0.0723 -0.2518  0.2524
 1825TIP3    H127110   4.126   2.533   0.318  1.1646  0.6351 -0.9365
 1825TIP3    H227111   4.100   2.578   0.460 -0.1033 -1.7945 -0.3319
 1826TIP3   OH227112   2.709   5.041   1.670  0.2147 -0.4305 -0.1386
 1826TIP3    H127113   2.797   5.021   1.702  0.8976  0.2238 -1.5229
 1826TIP3    H227114   2.722   5.076   1.581 -1.3843  0.3364 -0.1214
 1827TIP3   OH227115   5.801   4.877   0.805 -0.0379 -0.0204  0.1580
 1827TIP3    H127116   5.855   4.799   0.816 -0.3662 -0.6233 -2.0307
 1827TIP3    H227117   5.761   4.891   0.891  0.5024 -1.8821  0.7611
 1828TIP3   OH227118   5.194   3.691   2.590 -0.1601  0.0661  0.3204
 1828TIP3    H127119   5.144   3.767   2.620 -0.3840 -0.2978  0.8764
 1828TIP3    H227120   5.134   3.645   2.531 -0.1513  0.1290  0.2619
 1829TIP3   OH227121   6.874   5.606   8.060  0.2489  0.6248  0.0580
 1829TIP3    H127122   6.813   5.654   8.003 -0.3990 -0.8394 -0.5336
 1829TIP3    H227123   6.936   5.565   8.000 -1.0012 -1.7239  0.2317
 1830TIP3   OH227124   1.901   4.289   2.647 -0.6555 -0.1892 -0.4115
 1830TIP3    H127125   1.844   4.316   2.719  1.0380  1.9385  0.2362
 1830TIP3    H227126   1.942   4.208   2.678  0.5634  1.0497  1.4078
 1831TIP3   OH227127   1.851   4.804   6.421  0.4750  0.1505  0.1327
 1831TIP3    H127128   1.919   4.851   6.373  0.9724  0.7340  1.3540
 1831TIP3    H227129   1.887   4.717   6.436 -0.3682 -0.6202 -1.9641
 1832TIP3   OH227130   1.831   1.181   0.996 -0.1192  0.2115  0.0118
 1832TIP3    H127131   1.763   1.199   0.931 -0.0508 -0.2403 -0.1852
 1832TIP3    H227132   1.873   1.266   1.010  1.7242 -0.1386 -2.6308
 1833TIP3   OH227133   0.221   5.120   8.388  0.6680 -0.0307 -0.0605
 1833TIP3    H127134   0.179   5.056   8.331 -0.2611  0.1560  0.4041
 1833TIP3    H227135   0.282   5.068   8.441 -1.3200 -0.8707  1.5536
 1834TIP3   OH227136   6.300   1.873   0.428  0.1972 -0.6868 -0.2061
 1834TIP3    H127137   6.254   1.793   0.454  0.5266 -0.7162  0.2801
 1834TIP3    H227138   6.281   1.936   0.498  1.1072 -0.7775  0.1280
 1835TIP3   OH227139   3.685   3.593   8.046 -0.3276  0.2687  0.2200
 1835TIP3    H127140   3.614   3.630   8.099 -1.7270 -0.0156 -1.3832
 1835TIP3    H227141   3.651   3.593   7.957  0.9698 -1.6985 -0.3294
 1836TIP3   OH227142   0.558   6.260   2.436 -0.3064 -0.1790  0.5023
 1836TIP3    H127143   0.579   6.178   2.391 -0.8253  0.2239 -0.4849
 1836TIP3    H227144   0.610   6.326   2.392 -2.6744  0.6434 -1.2353
 1837TIP3   OH227145   2.821   2.826   0.166 -0.0831  0.3154  0.4702
 1837TIP3    H127146   2.740   2.788   0.200  0.6512 -2.7389 -0.8027
 1837TIP3    H227147   2.862   2.754   0.118  1.2280  2.9388 -2.7633
 1838TIP3   OH227148   4.435   3.419   6.961  0.3338 -0.4664  0.0347
 1838TIP3    H127149   4.418   3.489   6.898 -0.8768 -2.0150 -1.4507
 1838TIP3    H227150   4.498   3.363   6.916 -0.7175 -1.7127  0.0750
 1839TIP3   OH227151   3.036   4.100   6.317  0.0973  0.3587  0.3530
 1839TIP3    H127152   2.989   4.085   6.235  1.7220  0.0447 -0.5737
 1839TIP3    H227153   2.968   4.101   6.384 -1.2573  0.3944 -0.9639
 1840TIP3   OH227154   0.709   3.143   6.827 -0.0352 -0.4773  0.3969
 1840TIP3    H127155   0.730   3.095   6.748 -1.8719 -1.4100  0.4109
 1840TIP3    H227156   0.653   3.215   6.797  2.1890  1.3863  0.4512
 1841TIP3   OH227157   6.589   1.201   2.220  0.1934 -0.7475  0.2767
 1841TIP3    H127158   6.521   1.252   2.266  0.9077  0.9846 -0.4945
 1841TIP3    H227159   6.547   1.116   2.204 -1.5438  0.0158  0.4523
 1842TIP3   OH227160   6.188   1.682   0.572 -0.2476  0.0700 -0.4679
 1842TIP3    H127161   6.121   1.623   0.607 -0.2219 -1.0943 -2.2649
 1842TIP3    H227162   6.237   1.710   0.649 -0.8264 -1.5514  0.5518
 1843TIP3   OH227163   0.796   5.423   1.797 -0.4402  0.4551  0.0967
 1843TIP3    H127164   0.712   5.423   1.842 -1.0788  0.5491 -1.0606
 1843TIP3    H227165   0.832   5.510   1.815 -1.8266  1.4502 -1.5586
 1844TIP3   OH227166   1.496   3.500   0.545 -0.2541 -0.8499 -0.3233
 1844TIP3    H127167   1.485   3.405   0.548 -1.3636 -0.7249  0.3477
 1844TIP3    H227168   1.459   3.525   0.460 -0.1585 -1.0023 -0.4098
 1845TIP3   OH227169   1.969   6.855   8.378  0.2375 -0.4541  0.2693
 1845TIP3    H127170   1.938   6.766   8.365 -1.2696  0.0964 -0.1421
 1845TIP3    H227171   2.049   6.846   8.430  0.9728 -2.1107 -1.0689
 1846TIP3   OH227172   4.505   2.429   0.032 -0.2207 -0.1379  0.2881
 1846TIP3    H127173   4.462   2.475   0.103 -1.7182 -0.8823 -0.1001
 1846TIP3    H227174   4.583   2.390   0.072  0.1467  1.2649  0.9953
 1847TIP3   OH227175   5.711   2.923   2.087  0.0383  0.1042 -0.2435
 1847TIP3    H127176   5.692   2.832   2.111 -0.1433  0.8105  2.6283
 1847TIP3    H227177   5.781   2.950   2.147  0.4445  1.7131 -1.3842
 1848TIP3   OH227178   6.896   2.288   0.341 -0.0472 -0.3051  0.0363
 1848TIP3    H127179   6.930   2.331   0.262  0.6552 -0.5521  0.2035
 1848TIP3    H227180   6.965   2.227   0.367 -0.6404 -0.8497  0.3508
 1849TIP3   OH227181   4.787   5.081   0.366  0.0713 -0.1449 -0.1387
 1849TIP3    H127182   4.792   5.032   0.448  1.4622 -0.9080 -0.6370
 1849TIP3    H227183   4.875   5.117   0.355 -0.2572  0.4040 -1.0279
 1850TIP3   OH227184   6.651   1.836   0.976  0.0927 -0.1408 -0.1300
 1850TIP3    H127185   6.675   1.792   0.895  2.3940  1.3735 -0.3544
 1850TIP3    H227186   6.637   1.765   1.039  1.0980 -1.2475 -1.1154
 1851TIP3   OH227187   5.367   2.246   2.600 -0.1823 -0.3704  0.1224
 1851TIP3    H127188   5.428   2.316   2.576 -0.5180 -0.4228 -0.9607
 1851TIP3    H227189   5.420   2.167   2.599 -0.1948 -0.3841 -0.5958
 1852TIP3   OH227190   3.879   2.957   7.776 -0.7417  0.3504 -0.5562
 1852TIP3    H127191   3.964   2.916   7.795 -1.1262 -0.6304 -0.8865
 1852TIP3    H227192   3.815   2.892   7.803 -1.3482 -0.6822 -4.0406
 1853TIP3   OH227193   5.899   1.768   1.821 -0.2271  0.1869 -0.3709
 1853TIP3    H127194   5.906   1.863   1.813  1.5233  0.3328  1.8478
 1853TIP3    H227195   5.982   1.741   1.859 -1.1458 -2.0963  0.1728
 1854TIP3   OH227196   4.414   5.332   7.246 -0.2312 -0.2313 -0.4371
 1854TIP3    H127197   4.493   5.306   7.197 -1.1871 -0.5782 -1.8576
 1854TIP3    H227198   4.343   5.287   7.201 -0.9830 -2.5384  2.7258
 1855TIP3   OH227199   5.301   2.308   0.266  0.4453  0.0764 -0.2114
 1855TIP3    H127200   5.311   2.343   0.354 -0.6153 -1.0062  0.3572
 1855TIP3    H227201   5.235   2.364   0.225  0.2479 -0.0037 -0.0014
 1856TIP3   OH227202   6.543   1.729   7.136  0.5268  0.3733 -0.5735
 1856TIP3    H127203   6.519   1.668   7.205  3.1762  0.3981  0.4747
 1856TIP3    H227204   6.604   1.680   7.081  1.4803  1.5644 -0.6127
 1857TIP3   OH227205   5.446   3.611   7.400 -0.1301 -0.3912 -0.6871
 1857TIP3    H127206   5.458   3.653   7.486 -3.3570 -1.3955  0.3925
 1857TIP3    H227207   5.512   3.652   7.345  0.2987  2.3288  1.5744
 1858TIP3   OH227208   2.935   5.515   1.786 -0.0673 -0.0982 -0.0539
 1858TIP3    H127209   3.004   5.581   1.781  0.3671 -0.4412  1.0465
 1858TIP3    H227210   2.980   5.435   1.812 -0.6959 -0.6551 -0.6678
 1859TIP3   OH227211   5.278   3.470   0.547 -0.5196 -0.2581 -0.1090
 1859TIP3    H127212   5.295   3.553   0.592 -0.3174 -0.9317  1.0710
 1859TIP3    H227213   5.361   3.448   0.504  0.2600 -1.1824  1.7874
 1860TIP3   OH227214   3.981   6.303   1.651  0.6182 -0.3227 -0.2245
 1860TIP3    H127215   3.950   6.276   1.737  1.6857  1.4992  0.7921
 1860TIP3    H227216   4.056   6.246   1.634  1.6114  0.5757  0.9795
 1861TIP3   OH227217   0.979   5.609   6.830  0.2742  0.1685  0.3737
 1861TIP3    H127218   0.937   5.691   6.859  0.3816 -0.0473  1.1441
 1861TIP3    H227219   0.910   5.543   6.838  0.5648 -0.0590  0.9850
 1862TIP3   OH227220   2.693   2.143   1.018 -0.1514 -0.3417 -0.0560
 1862TIP3    H127221   2.751   2.199   0.967  1.8118 -1.9329  0.2876
 1862TIP3    H227222   2.735   2.135   1.103 -0.1300 -2.5663 -0.2010
 1863TIP3   OH227223   6.657   1.719   0.262 -0.4239  0.1832  0.6662
 1863TIP3    H127224   6.748   1.742   0.245 -0.2521 -0.9671 -0.1007
 1863TIP3    H227225   6.626   1.787   0.322  0.2830  1.8642 -0.7657
 1864TIP3   OH227226   6.363   4.475   0.996 -0.0438  0.6303 -0.4815
 1864TIP3    H127227   6.454   4.493   1.020  0.4826 -1.7701 -0.4236
 1864TIP3    H227228   6.360   4.495   0.902  1.1519 -1.1253 -0.9541
 1865TIP3   OH227229   4.228   6.204   8.476  0.4480  0.0909  0.3451
 1865TIP3    H127230   4.220   6.206   8.571 -1.0019  2.1416  0.2299
 1865TIP3    H227231   4.284   6.128   8.459 -0.1796 -1.0171  2.7466
 1866TIP3   OH227232   5.799   6.869   2.785 -0.5250  0.2621  0.2456
 1866TIP3    H127233   5.867   6.847   2.849 -1.5615 -0.7358  1.0365
 1866TIP3    H227234   5.718   6.872   2.836 -1.2608  0.2240 -0.8976
 1867TIP3   OH227235   4.221   0.468   7.511 -0.2764 -0.1088  0.3348
 1867TIP3    H127236   4.203   0.555   7.476 -1.3987 -0.8144 -0.9088
 1867TIP3    H227237   4.181   0.408   7.449 -0.2420 -1.5040  1.5988
 1868TIP3   OH227238   0.401   6.581   1.796 -0.0859  0.2816  0.4928
 1868TIP3    H127239   0.357   6.526   1.731  0.3793  2.9192 -2.2784
 1868TIP3    H227240   0.340   6.584   1.870 -1.5335 -1.3173 -0.5513
 1869TIP3   OH227241   0.877   0.730   6.701 -0.2357 -0.3127  0.2558
 1869TIP3    H127242   0.916   0.814   6.727 -0.6324 -0.5435  1.7377
 1869TIP3    H227243   0.807   0.716   6.765 -1.9708 -0.4893 -1.5900
 1870TIP3   OH227244   5.294   4.653   1.752 -0.4725  0.1356 -0.1822
 1870TIP3    H127245   5.245   4.662   1.833 -1.1884 -0.8097 -0.4948
 1870TIP3    H227246   5.269   4.568   1.717  2.3098 -0.9827  0.2301
 1871TIP3   OH227247   4.789   4.871   1.052  0.3611  0.2644 -0.4063
 1871TIP3    H127248   4.767   4.777   1.051  0.7327  0.1640  0.2767
 1871TIP3    H227249   4.729   4.910   0.989  1.7032 -0.7653 -2.4282
 1872TIP3   OH227250   4.014   5.813   0.961 -0.5108  0.0659  0.6429
 1872TIP3    H127251   4.070   5.820   0.883 -0.0882  0.4112  0.9713
 1872TIP3    H227252   4.056   5.746   1.015 -0.6651  0.0064  0.6893
 1873TIP3   OH227253   0.192   1.763   7.779 -0.1037 -0.9496  0.3923
 1873TIP3    H127254   0.130   1.836   7.773  1.3319  0.3298  0.5814
 1873TIP3    H227255   0.161   1.712   7.854 -1.0323 -0.4572  0.3609
 1874TIP3   OH227256   0.240   3.901   1.530 -0.4724 -0.3404  0.4802
 1874TIP3    H127257   0.231   3.913   1.625 -0.9564 -1.7168  0.6394
 1874TIP3    H227258   0.330   3.871   1.518 -0.4473 -0.2846  0.5282
 1875TIP3   OH227259   6.321   0.666   8.397 -0.3521  0.3403  0.0546
 1875TIP3    H127260   6.328   0.663   8.301  0.0389 -0.8417  0.1048
 1875TIP3    H227261   6.367   0.745   8.422  1.3294 -0.3756 -0.6052
 1876TIP3   OH227262   4.044   3.840   6.846  0.3592  0.2629 -0.2060
 1876TIP3    H127263   3.959   3.828   6.804 -0.5619  0.3194  1.5207
 1876TIP3    H227264   4.087   3.909   6.796 -1.2271  1.2461 -0.2741
 1877TIP3   OH227265   2.371   1.878   8.091  0.0307  0.4072  0.1044
 1877TIP3    H127266   2.332   1.925   8.018  1.5759  2.0374  0.2595
 1877TIP3    H227267   2.358   1.785   8.070 -1.2875  0.8575 -1.2359
 1878TIP3   OH227268   2.677   3.902   7.596  0.7338 -0.1158 -0.1545
 1878TIP3    H127269   2.731   3.911   7.674  1.2676  1.1407 -0.6426
 1878TIP3    H227270   2.596   3.949   7.617  0.6158 -0.3295 -0.1283
 1879TIP3   OH227271   5.668   4.457   0.900  0.1872 -0.3243  0.1106
 1879TIP3    H127272   5.639   4.529   0.956  2.0534  0.0658  0.6148
 1879TIP3    H227273   5.671   4.494   0.812  0.0032 -0.1314  0.1849
 1880TIP3   OH227274   3.404   6.107   2.502 -0.2580 -0.5631 -0.2917
 1880TIP3    H127275   3.397   6.017   2.470 -0.0286 -0.1879 -1.4599
 1880TIP3    H227276   3.324   6.149   2.472  0.4332  0.0686 -1.3140
 1881TIP3   OH227277   0.066   1.006   0.834  0.6296  0.2489 -0.1319
 1881TIP3    H127278   0.084   1.030   0.743  0.4344  1.5839  0.1554
 1881TIP3    H227279   0.135   1.049   0.884 -1.7083  3.3398  0.7410
 1882TIP3   OH227280   3.079   1.248   7.796 -1.0211 -0.0946  0.2051
 1882TIP3    H127281   3.023   1.291   7.861  1.0926  1.5803  1.0380
 1882TIP3    H227282   3.100   1.317   7.733 -1.0003 -1.0537 -0.8672
 1883TIP3   OH227283   2.786   3.659   2.270 -0.2089 -0.3209 -0.1830
 1883TIP3    H127284   2.710   3.620   2.227 -1.2248  0.6977  0.6229
 1883TIP3    H227285   2.759   3.668   2.362  0.5433  0.8653 -0.0561
 1884TIP3   OH227286   5.514   3.230   7.095 -0.4107 -0.0350  0.4890
 1884TIP3    H127287   5.552   3.145   7.070 -0.3580  0.0387  0.3151
 1884TIP3    H227288   5.460   3.211   7.171 -1.0328 -0.3666 -0.0317
 1885TIP3   OH227289   4.948   5.842   0.650  0.7877  0.2221  0.0649
 1885TIP3    H127290   4.879   5.788   0.689 -1.3156  1.3228 -1.8429
 1885TIP3    H227291   4.929   5.839   0.556  1.0453  3.5555 -0.1951
 1886TIP3   OH227292   5.243   3.423   0.842  0.3821  0.3828 -0.1445
 1886TIP3    H127293   5.332   3.404   0.870  0.6935 -1.2074 -1.9926
 1886TIP3    H227294   5.252   3.498   0.782  0.7024 -0.5941 -1.3559
 1887TIP3   OH227295   6.863   1.042   0.165  0.1144 -0.9947  0.5670
 1887TIP3    H127296   6.840   1.135   0.172 -0.1951 -1.0094 -0.2351
 1887TIP3    H227297   6.785   1.000   0.127 -0.5385 -1.9342  2.7292
 1888TIP3   OH227298   5.398   5.314   1.672 -0.4844 -0.1845  0.3420
 1888TIP3    H127299   5.479   5.352   1.638 -0.7846  0.8314  0.7302
 1888TIP3    H227300   5.358   5.271   1.596 -0.5286  0.9709 -0.3040
 1889TIP3   OH227301   6.183   5.786   1.175  0.1871 -0.2393  0.8517
 1889TIP3    H127302   6.100   5.819   1.209  0.7399  0.2912  1.7133
 1889TIP3    H227303   6.233   5.864   1.154 -0.5131 -0.5146 -2.2540
 1890TIP3   OH227304   4.833   5.639   8.102  0.2316 -0.3744 -0.0920
 1890TIP3    H127305   4.857   5.729   8.083 -1.3352 -0.1338 -1.0418
 1890TIP3    H227306   4.873   5.588   8.032  2.6476 -0.7158  1.3980
 1891TIP3   OH227307   3.962   6.453   2.575 -0.1829 -0.7270 -0.2340
 1891TIP3    H127308   3.979   6.538   2.616 -0.7561 -0.3174 -0.8397
 1891TIP3    H227309   4.049   6.420   2.551  0.0584 -0.4190  0.2099
 1892TIP3   OH227310   0.842   3.018   1.929 -0.4226  0.6712 -0.3240
 1892TIP3    H127311   0.775   2.979   1.985 -1.9206  2.9869 -0.3814
 1892TIP3    H227312   0.920   3.023   1.985 -1.3852  1.3545  1.0229
 1893TIP3   OH227313   1.371   1.605   6.803 -0.3527 -0.1934 -0.4740
 1893TIP3    H127314   1.409   1.536   6.749 -1.3407 -1.0797 -0.0643
 1893TIP3    H227315   1.419   1.684   6.778 -1.7806 -0.2077 -3.8286
 1894TIP3   OH227316   0.366   2.235   7.759 -0.2218  0.0010 -0.7083
 1894TIP3    H127317   0.429   2.177   7.802  0.4364  0.9062 -0.4144
 1894TIP3    H227318   0.420   2.298   7.711 -0.9403 -0.2176 -1.8223
 1895TIP3   OH227319   1.386   0.425   8.125  0.0456 -0.3701  0.0985
 1895TIP3    H127320   1.299   0.438   8.163  0.9348 -0.9795  2.5504
 1895TIP3    H227321   1.369   0.401   8.034 -2.3136 -0.0960  0.3945
 1896TIP3   OH227322   5.535   2.889   0.577  0.4717 -0.4639  0.4511
 1896TIP3    H127323   5.474   2.962   0.580 -2.5252 -2.7850  0.7845
 1896TIP3    H227324   5.504   2.829   0.645  3.2633 -1.7573  0.7213
 1897TIP3   OH227325   3.016   0.867   1.752 -0.5448 -0.1708  0.2646
 1897TIP3    H127326   2.984   0.782   1.723  0.6835 -0.7571  0.6008
 1897TIP3    H227327   2.966   0.886   1.832  0.8550 -1.7110  1.5641
 1898TIP3   OH227328   6.181   3.319   6.456  0.2103  0.0210  0.0157
 1898TIP3    H127329   6.232   3.382   6.406  0.6322 -0.1437  0.2264
 1898TIP3    H227330   6.098   3.311   6.409  0.5531 -0.0410 -0.5829
 1899TIP3   OH227331   1.697   6.084   6.080 -0.0275  0.0096  0.1597
 1899TIP3    H127332   1.723   6.037   6.000  1.4586  1.4886 -0.2859
 1899TIP3    H227333   1.773   6.139   6.101 -0.5276 -0.0844  2.4129
 1900TIP3   OH227334   6.844   5.144   8.404  0.0236  0.8225  0.4088
 1900TIP3    H127335   6.780   5.215   8.400 -2.3778 -1.2445 -1.4211
 1900TIP3    H227336   6.924   5.181   8.367 -1.1792  2.5641 -0.6061
 1901TIP3   OH227337   0.520   3.128   1.227 -0.2387 -0.2169 -0.7274
 1901TIP3    H127338   0.613   3.147   1.212 -0.6572  2.0331 -0.8181
 1901TIP3    H227339   0.520   3.076   1.307  1.1979 -2.0615 -1.8407
 1902TIP3   OH227340   1.246   5.329   7.271  0.9287  0.2703  0.1531
 1902TIP3    H127341   1.230   5.407   7.217  1.3885  0.1930 -0.1010
 1902TIP3    H227342   1.176   5.269   7.246  1.3769  0.0756 -0.6737
 1903TIP3   OH227343   3.961   6.380   8.221  0.0367  0.1502  0.8287
 1903TIP3    H127344   4.013   6.406   8.297  3.9916  1.2084 -1.9222
 1903TIP3    H227345   3.931   6.462   8.183 -0.8421 -0.2905  0.5461
 1904TIP3   OH227346   5.244   4.876   6.014 -0.1060  0.1815 -0.5141
 1904TIP3    H127347   5.325   4.922   5.993 -1.9834  3.3637 -1.3719
 1904TIP3    H227348   5.272   4.798   6.062  3.3563  1.6794  0.1435
 1905TIP3   OH227349   2.043   0.314   1.104  0.1313 -0.5914  0.2565
 1905TIP3    H127350   2.093   0.242   1.143  0.8580 -0.3730 -0.2427
 1905TIP3    H227351   2.087   0.393   1.134 -1.6810 -0.2503  2.1833
 1906TIP3   OH227352   5.450   1.474   1.925 -0.1902  0.4193 -0.6481
 1906TIP3    H127353   5.495   1.390   1.931 -0.7754 -0.0947 -2.6281
 1906TIP3    H227354   5.435   1.500   2.016  0.0288 -1.6055  0.0123
 1907TIP3   OH227355   1.027   3.030   0.179  0.4248  0.3394  0.1065
 1907TIP3    H127356   1.103   2.975   0.161 -0.9597 -2.1366  1.2203
 1907TIP3    H227357   1.023   3.035   0.275 -1.3888 -0.5906  0.1345
 1908TIP3   OH227358   2.998   6.271   0.308 -1.0685 -0.2035  0.1714
 1908TIP3    H127359   2.923   6.312   0.265 -0.9410 -0.6657 -0.5271
 1908TIP3    H227360   3.057   6.249   0.235 -0.9994 -1.3271  0.5479
 1909TIP3   OH227361   6.256   4.510   1.359 -0.2730 -0.4465 -0.1185
 1909TIP3    H127362   6.189   4.575   1.382 -0.1529 -0.6829  0.9160
 1909TIP3    H227363   6.337   4.560   1.353  0.1456 -0.7107  2.3518
 1910TIP3   OH227364   1.380   1.582   0.431 -0.4467  0.8233  0.0583
 1910TIP3    H127365   1.395   1.602   0.339  0.1924 -1.2926 -0.3365
 1910TIP3    H227366   1.458   1.533   0.458 -1.0594  0.5733  1.4657
 1911TIP3   OH227367   6.320   5.697   7.523 -0.6608 -0.3569  0.6064
 1911TIP3    H127368   6.328   5.745   7.440  1.0667 -1.8264 -0.1534
 1911TIP3    H227369   6.237   5.727   7.560 -0.8012  1.4004 -0.9558
 1912TIP3   OH227370   2.146   0.785   2.194  0.4793 -0.0720 -0.2962
 1912TIP3    H127371   2.191   0.708   2.160  1.3826  0.0424  0.5683
 1912TIP3    H227372   2.134   0.767   2.287 -3.2792 -1.0171 -0.8096
 1913TIP3   OH227373   0.811   0.935   8.504  0.4446 -0.0219 -0.0226
 1913TIP3    H127374   0.889   0.951   8.451  0.8271 -0.6712  0.3311
 1913TIP3    H227375   0.796   1.017   8.550  0.3115  0.4396 -0.8721
 1914TIP3   OH227376   5.071   5.665   7.209 -0.2289  0.3897  0.1874
 1914TIP3    H127377   5.126   5.589   7.190  1.3077  1.1993  1.1880
 1914TIP3    H227378   5.058   5.707   7.124 -1.6656 -1.3140 -0.4856
 1915TIP3   OH227379   4.678   1.212   1.006  0.1872  0.1103  0.3479
 1915TIP3    H127380   4.619   1.242   1.075  0.7930  1.3504  0.3555
 1915TIP3    H227381   4.653   1.121   0.991 -1.1838  0.3685  0.9034
 1916TIP3   OH227382   3.885   2.475   0.775  0.2195 -0.2973  0.1553
 1916TIP3    H127383   3.890   2.429   0.859 -1.1890  0.2265  0.5408
 1916TIP3    H227384   3.829   2.550   0.792  1.9696  1.2638 -0.6158
 1917TIP3   OH227385   2.519   6.835   8.229 -0.3667 -0.5236  0.0869
 1917TIP3    H127386   2.581   6.891   8.275  1.0406 -2.3103  0.5185
 1917TIP3    H227387   2.486   6.889   8.157  4.2086 -0.3031 -2.2684
 1918TIP3   OH227388   2.559   4.235   0.798 -0.5042  0.2273  0.2144
 1918TIP3    H127389   2.504   4.270   0.729  1.5374  1.4364 -0.8950
 1918TIP3    H227390   2.624   4.182   0.752 -0.0839 -0.2887  1.3724
 1919TIP3   OH227391   2.035   4.516   0.933  0.4382 -0.1484  0.5564
 1919TIP3    H127392   2.032   4.420   0.928 -0.6385 -0.0778 -1.4201
 1919TIP3    H227393   1.951   4.540   0.973  0.2867 -0.0192  0.1682
 1920TIP3   OH227394   0.369   2.785   1.032 -0.1689  0.0825 -0.0972
 1920TIP3    H127395   0.337   2.708   1.079  1.5612 -0.1678  0.7710
 1920TIP3    H227396   0.437   2.820   1.089  2.5297 -0.6100 -2.6637
 1921TIP3   OH227397   4.297   4.773   0.823  0.1148  0.0659  0.3467
 1921TIP3    H127398   4.334   4.712   0.759  0.3494  1.2557 -0.6829
 1921TIP3    H227399   4.351   4.760   0.901  0.3131 -0.8653  0.0730
 1922TIP3   OH227400   5.936   6.194   0.258 -0.5083 -0.0228  0.0250
 1922TIP3    H127401   5.996   6.242   0.201  1.2689 -0.5167  1.3657
 1922TIP3    H227402   5.930   6.107   0.220  0.9338 -0.4514  0.7293
 1923TIP3   OH227403   6.361   1.529   1.274 -0.4417 -0.1258 -0.7340
 1923TIP3    H127404   6.313   1.485   1.204 -1.5039  2.2421 -1.6199
 1923TIP3    H227405   6.303   1.601   1.301  1.1743  0.7626  0.5705
 1924TIP3   OH227406   6.058   4.080   2.352 -0.4181 -0.2218 -0.1403
 1924TIP3    H127407   6.143   4.109   2.383 -0.7058  0.6014 -0.0838
 1924TIP3    H227408   6.000   4.088   2.428 -0.6406 -0.3446 -0.2940
 1925TIP3   OH227409   6.047   2.866   8.189 -0.5858 -0.0725  0.4539
 1925TIP3    H127410   6.004   2.857   8.104  1.5397 -0.6340 -0.6112
 1925TIP3    H227411   6.096   2.948   8.183 -2.0292  0.9725  1.9507
 1926TIP3   OH227412   5.053   4.494   0.320 -0.7796  0.2825 -0.3103
 1926TIP3    H127413   5.036   4.588   0.314 -0.0445  0.3599 -1.4563
 1926TIP3    H227414   5.116   4.476   0.250  0.2428 -0.8008  0.8367
 1927TIP3   OH227415   2.342   4.591   8.421 -0.0081  0.1685 -0.1759
 1927TIP3    H127416   2.437   4.600   8.417  0.0830 -0.3358  0.6106
 1927TIP3    H227417   2.325   4.503   8.387 -0.3639  0.8973 -2.0055
 1928TIP3   OH227418   2.264   2.134   1.368 -0.1403  0.3145 -0.3833
 1928TIP3    H127419   2.262   2.192   1.292 -1.2632  1.3395  0.3952
 1928TIP3    H227420   2.357   2.124   1.388  0.0909  1.7511 -0.6240
 1929TIP3   OH227421   6.557   1.358   1.142 -0.3273  0.5486  0.3910
 1929TIP3    H127422   6.553   1.403   1.058 -0.6227 -1.2984 -0.6506
 1929TIP3    H227423   6.470   1.369   1.180 -1.3619 -1.4236 -1.1824
 1930TIP3   OH227424   5.128   3.641   8.503 -0.6081 -0.6889  0.6648
 1930TIP3    H127425   5.098   3.651   8.593 -0.0711 -2.4918  1.0896
 1930TIP3    H227426   5.073   3.571   8.467  1.4161 -2.3985  0.7175
 1931TIP3   OH227427   2.622   5.294   0.567 -0.0959  0.3101  0.0208
 1931TIP3    H127428   2.561   5.358   0.604 -3.4741 -1.2407 -2.4287
 1931TIP3    H227429   2.620   5.220   0.628  0.0756  0.6237  0.4109
 1932TIP3   OH227430   6.121   1.068   0.041 -0.0584 -0.3028  0.1320
 1932TIP3    H127431   6.152   1.157   0.024 -1.5345 -0.1109 -1.9262
 1932TIP3    H227432   6.197   1.012   0.026  0.7837  0.5584  1.0835
 1933TIP3   OH227433   5.388   1.674   8.364 -0.3197  0.0804 -0.7910
 1933TIP3    H127434   5.392   1.742   8.431  0.0309 -0.5313 -0.1767
 1933TIP3    H227435   5.445   1.605   8.398 -1.5758 -1.0067 -0.8502
 1934TIP3   OH227436   6.914   0.041   0.950 -0.0647  0.0480 -0.8974
 1934TIP3    H127437   6.897   0.135   0.937  2.4843  0.5764 -1.0611
 1934TIP3    H227438   6.956   0.013   0.869  2.7707 -0.1717  0.4868
 1935TIP3   OH227439   0.726   6.078   0.180 -0.1207  0.1952  0.3641
 1935TIP3    H127440   0.723   6.114   0.268 -3.1533 -1.2286  0.9806
 1935TIP3    H227441   0.738   6.155   0.123  1.2892  1.2001  1.9134
 1936TIP3   OH227442   5.339   4.703   6.206 -0.0699  0.1674 -0.3950
 1936TIP3    H127443   5.416   4.655   6.174  0.7181  1.0826  0.0918
 1936TIP3    H227444   5.363   4.731   6.294 -0.4942  1.5138 -0.6934
 1937TIP3   OH227445   6.146   2.698   7.621 -0.1060 -0.1768 -0.1907
 1937TIP3    H127446   6.144   2.639   7.546 -2.0886 -1.1662  0.5657
 1937TIP3    H227447   6.054   2.724   7.633  0.3838  1.0976  1.0207
 1938TIP3   OH227448   4.833   5.339   0.527  0.5117  0.2176 -0.4986
 1938TIP3    H127449   4.819   5.248   0.502  2.0355 -0.4819  0.9494
 1938TIP3    H227450   4.826   5.388   0.445 -0.6549 -1.1441 -1.2530
 1939TIP3   OH227451   1.758   6.917   6.924  0.4828 -0.0746 -0.6750
 1939TIP3    H127452   1.792   6.928   7.013 -1.4419  0.5020  0.0352
 1939TIP3    H227453   1.821   6.962   6.868  1.3827  0.1164  0.4511
 1940TIP3   OH227454   4.145   3.082   1.686  0.1789  0.1403  0.4373
 1940TIP3    H127455   4.108   3.169   1.696 -0.2810  0.1679 -1.2096
 1940TIP3    H227456   4.215   3.092   1.621 -1.0220 -0.9615 -1.1357
 1941TIP3   OH227457   1.283   5.958   8.237 -0.0215  0.2767  0.2936
 1941TIP3    H127458   1.299   5.978   8.145  0.4532 -2.0233 -0.1979
 1941TIP3    H227459   1.187   5.959   8.245 -0.0517  1.2159 -0.0181
 1942TIP3   OH227460   4.210   3.648   8.334  0.0875 -0.8973 -0.2493
 1942TIP3    H127461   4.124   3.608   8.332 -1.1141  1.3080 -4.5999
 1942TIP3    H227462   4.208   3.707   8.410 -2.4259 -0.5801 -0.5044
 1943TIP3   OH227463   4.453   0.800   1.212 -0.3260 -0.2425  0.1526
 1943TIP3    H127464   4.381   0.755   1.167  0.5344  0.7912 -2.4423
 1943TIP3    H227465   4.487   0.861   1.147  0.8227  1.6478  2.4018
 1944TIP3   OH227466   0.672   2.247   6.410  0.4491  0.7344 -0.1131
 1944TIP3    H127467   0.646   2.334   6.441  0.9401 -0.1722  3.1926
 1944TIP3    H227468   0.761   2.261   6.376  1.2639  1.3104  2.0506
 1945TIP3   OH227469   3.152   2.476   2.650 -0.2021  0.1139  0.0383
 1945TIP3    H127470   3.091   2.402   2.654 -0.3550  0.2863  1.6534
 1945TIP3    H227471   3.238   2.436   2.642 -0.4247 -0.1563 -1.3003
 1946TIP3   OH227472   5.984   2.906   6.452  0.3331  0.0486  0.7134
 1946TIP3    H127473   5.997   2.885   6.359  1.4028 -1.8594  1.2350
 1946TIP3    H227474   6.035   2.986   6.466 -1.4440  1.5380 -0.7245
 1947TIP3   OH227475   0.056   0.576   1.024  0.3760 -0.5473 -0.4847
 1947TIP3    H127476   0.010   0.600   0.944 -0.8319 -3.4006 -0.7652
 1947TIP3    H227477   0.147   0.566   0.997  0.2325 -0.1307 -1.1659
 1948TIP3   OH227478   5.412   5.671   1.533 -0.3363 -0.4724  0.2026
 1948TIP3    H127479   5.321   5.650   1.514 -1.2634  1.0059  2.5381
 1948TIP3    H227480   5.409   5.715   1.618  2.3618  1.0688 -0.3729
 1949TIP3   OH227481   3.738   5.906   7.913  0.3587 -0.2350 -0.3998
 1949TIP3    H127482   3.740   5.985   7.858  2.4616  0.3120  0.3616
 1949TIP3    H227483   3.683   5.931   7.988  0.6816  0.3826 -0.3595
 1950TIP3   OH227484   0.803   3.801   7.437  0.2100 -0.5386  0.1257
 1950TIP3    H127485   0.823   3.894   7.451 -0.7557 -0.2911 -0.0282
 1950TIP3    H227486   0.840   3.781   7.351 -0.6434  0.0435 -0.3891
 1951TIP3   OH227487   5.742   6.331   2.174  0.2881 -0.2498 -0.3994
 1951TIP3    H127488   5.837   6.324   2.189  0.4097  1.5369 -0.1562
 1951TIP3    H227489   5.734   6.367   2.086 -0.0836  1.1962  0.1877
 1952TIP3   OH227490   6.388   6.753   7.832 -0.1749  0.0486 -0.3452
 1952TIP3    H127491   6.481   6.734   7.820  0.1937  0.6078  1.2895
 1952TIP3    H227492   6.385   6.801   7.915 -1.9753 -0.3840 -0.1335
 1953TIP3   OH227493   2.005   2.601   1.347 -0.4265  0.7833 -0.0077
 1953TIP3    H127494   1.914   2.630   1.353 -0.4499  0.4815  1.5965
 1953TIP3    H227495   2.043   2.625   1.431  0.6800 -0.0705 -0.2444
 1954TIP3   OH227496   2.762   2.180   8.148  0.5314 -0.2384  0.7416
 1954TIP3    H127497   2.698   2.156   8.081 -1.3925  0.8926  2.0651
 1954TIP3    H227498   2.826   2.233   8.102  1.1231 -2.2193 -0.8309
 1955TIP3   OH227499   0.262   1.077   0.385  0.0840 -0.2305  0.1022
 1955TIP3    H127500   0.320   1.018   0.435  0.6068 -1.2966 -1.6802
 1955TIP3    H227501   0.319   1.149   0.359 -0.9883  2.3496  4.0139
 1956TIP3   OH227502   4.271   2.326   1.263  0.4965 -0.5973  0.1176
 1956TIP3    H127503   4.205   2.257   1.260  1.2913 -1.4234  1.0520
 1956TIP3    H227504   4.333   2.303   1.193 -0.6944  0.7527 -1.4789
 1957TIP3   OH227505   6.365   4.783   1.896  0.0955  0.2490 -0.1220
 1957TIP3    H127506   6.393   4.742   1.814 -0.5702  0.8959 -0.6871
 1957TIP3    H227507   6.439   4.837   1.922  0.4301 -0.2006 -0.1293
 1958TIP3   OH227508   0.246   5.400   8.422 -0.3982  0.3341  0.4626
 1958TIP3    H127509   0.261   5.431   8.332  0.4008  1.7385  1.0388
 1958TIP3    H227510   0.244   5.305   8.415  2.6094  0.2606 -0.6550
 1959TIP3   OH227511   5.646   0.351   8.107  0.3742  0.0342  0.2712
 1959TIP3    H127512   5.653   0.377   8.015 -2.5892  0.1411  0.0023
 1959TIP3    H227513   5.645   0.256   8.105  0.0445  0.0396  0.1657
 1960TIP3   OH227514   5.956   4.943   1.982 -0.6602  0.6811  0.6809
 1960TIP3    H127515   5.900   4.880   1.936  4.3747 -0.3333 -5.5272
 1960TIP3    H227516   6.025   4.890   2.021  1.6439  1.9225 -1.4164
 1961TIP3   OH227517   6.256   4.074   7.894  0.1793  0.3613 -0.3858
 1961TIP3    H127518   6.278   4.166   7.881  0.9205  0.5890  2.0208
 1961TIP3    H227519   6.188   4.056   7.829 -2.0648  3.3952  0.8920
 1962TIP3   OH227520   6.558   4.980   7.699  1.1537  0.4198 -0.2550
 1962TIP3    H127521   6.651   4.958   7.690  0.9286 -0.2744 -1.0244
 1962TIP3    H227522   6.550   5.012   7.789  2.1975  0.8336 -0.2865
 1963TIP3   OH227523   4.060   1.219   7.950  0.3090 -0.1473 -0.3332
 1963TIP3    H127524   3.985   1.166   7.922 -0.3067  0.1344  0.7426
 1963TIP3    H227525   4.112   1.160   8.004  0.2413 -0.0014 -0.1074
 1964TIP3   OH227526   5.127   2.867   1.487  0.1110 -0.4727 -0.0257
 1964TIP3    H127527   5.222   2.870   1.475  0.4194 -0.9359  1.8569
 1964TIP3    H227528   5.114   2.795   1.550 -1.3863  0.1894  0.4483
 1965TIP3   OH227529   4.321   0.881   7.275  0.4454 -0.0275 -0.2353
 1965TIP3    H127530   4.379   0.903   7.348  0.8828 -1.6912 -0.0460
 1965TIP3    H227531   4.371   0.905   7.197  0.9856 -0.5278 -0.0471
 1966TIP3   OH227532   6.594   2.739   1.251  0.0644 -0.2396 -0.1270
 1966TIP3    H127533   6.540   2.813   1.224 -1.4530 -0.5422  1.8614
 1966TIP3    H227534   6.662   2.778   1.306 -0.0453 -0.1850 -0.0291
 1967TIP3   OH227535   3.209   4.093   6.522  0.4862  0.3801  0.3697
 1967TIP3    H127536   3.234   4.004   6.545  1.6843  0.6615  0.1913
 1967TIP3    H227537   3.155   4.082   6.443 -0.0758 -0.2396  0.8285
 1968TIP3   OH227538   1.701   4.162   7.091 -0.3377 -0.0221 -0.7141
 1968TIP3    H127539   1.756   4.235   7.063  1.1998 -1.2484 -1.0078
 1968TIP3    H227540   1.641   4.201   7.154 -0.3657  1.7272 -1.7686
 1969TIP3   OH227541   3.366   3.035   0.049  0.1302  0.2197  0.3121
 1969TIP3    H127542   3.443   3.008   0.100  0.8565  1.8699  0.1763
 1969TIP3    H227543   3.291   3.003   0.099  0.8324 -3.1070 -0.5007
 1970TIP3   OH227544   1.931   4.742   1.493  0.2134  0.0467 -0.3599
 1970TIP3    H127545   1.982   4.782   1.564 -0.7330  0.1699  0.2760
 1970TIP3    H227546   1.897   4.661   1.531 -2.6378  1.4545  0.3442
 1971TIP3   OH227547   2.648   1.481   0.688 -0.4866  0.1125 -0.9481
 1971TIP3    H127548   2.647   1.386   0.700 -1.9637  0.1765 -0.2998
 1971TIP3    H227549   2.685   1.493   0.600  0.2065 -1.0192 -0.8368
 1972TIP3   OH227550   3.923   4.922   0.723 -0.2508 -0.4957  0.4538
 1972TIP3    H127551   3.988   4.854   0.739 -0.4352 -0.4760  1.3739
 1972TIP3    H227552   3.843   4.875   0.702 -0.1484 -0.5390  0.1579
 1973TIP3   OH227553   1.110   1.777   7.468  0.1779 -0.3067 -0.4553
 1973TIP3    H127554   1.148   1.689   7.464  1.2732  0.1712 -1.2365
 1973TIP3    H227555   1.033   1.773   7.412  1.4270 -0.2347 -2.2576
 1974TIP3   OH227556   0.147   6.390   6.813  0.4180  0.0238 -0.1065
 1974TIP3    H127557   0.070   6.348   6.774 -0.2484  0.9205  0.2080
 1974TIP3    H227558   0.137   6.375   6.907  1.3417 -1.0108 -0.1534
 1975TIP3   OH227559   5.377   5.547   2.545  0.3807  0.7572 -0.8188
 1975TIP3    H127560   5.447   5.571   2.606 -0.7376  1.0836  0.3745
 1975TIP3    H227561   5.342   5.630   2.514  0.4887  0.5962 -1.3827
 1976TIP3   OH227562   2.802   6.723   1.612 -0.1575  0.7152 -0.6055
 1976TIP3    H127563   2.745   6.729   1.689 -0.9275 -0.1144 -1.0908
 1976TIP3    H227564   2.861   6.650   1.633  0.1045  0.9570 -0.5012
 1977TIP3   OH227565   1.655   1.791   6.609 -0.3108  0.0166  0.1554
 1977TIP3    H127566   1.643   1.737   6.530  0.1086 -1.0755  0.8181
 1977TIP3    H227567   1.726   1.851   6.586 -0.7191  0.2388 -0.5628
 1978TIP3   OH227568   1.258   6.280   7.186  0.1918 -0.0257  0.1263
 1978TIP3    H127569   1.287   6.190   7.200  0.8148  0.0613 -0.5497
 1978TIP3    H227570   1.338   6.332   7.190 -0.2953  0.6643  1.6702
 1979TIP3   OH227571   3.278   0.561   8.456 -0.6016 -0.4553  0.1041
 1979TIP3    H127572   3.372   0.574   8.442 -0.4849 -0.7731  0.5422
 1979TIP3    H227573   3.238   0.646   8.435 -0.1459 -0.1395  0.4837
 1980TIP3   OH227574   4.105   6.285   0.842  0.1126  0.7441 -0.2827
 1980TIP3    H127575   4.173   6.248   0.898 -0.5144  0.5076  0.3347
 1980TIP3    H227576   4.038   6.317   0.902 -0.9613 -0.2591 -0.8807
 1981TIP3   OH227577   2.126   0.510   8.019  0.1446  0.5327 -0.1451
 1981TIP3    H127578   2.048   0.461   8.045  0.5383  0.9578  2.0328
 1981TIP3    H227579   2.095   0.573   7.953 -1.2236  0.3137  0.2730
 1982TIP3   OH227580   3.271   6.417   8.025 -0.2576  0.6689  0.1750
 1982TIP3    H127581   3.282   6.323   8.039  0.1588  0.6364 -0.3513
 1982TIP3    H227582   3.261   6.453   8.114  0.1413  0.2008  0.4159
 1983TIP3   OH227583   1.012   2.415   6.964 -0.3966 -0.2128  0.3342
 1983TIP3    H127584   1.071   2.361   6.912  0.4079 -0.4004  1.3923
 1983TIP3    H227585   0.949   2.354   7.001  0.0113 -0.3230  0.8628
 1984TIP3   OH227586   0.043   2.596   8.529  0.3856 -0.5114  0.5100
 1984TIP3    H127587  -0.036   2.581   8.477  0.1083  0.7865  0.5269
 1984TIP3    H227588   0.013   2.650   8.602  1.2800 -0.0838  0.5633
 1985TIP3   OH227589   3.703   6.863   6.517 -0.1603 -0.0970 -0.4694
 1985TIP3    H127590   3.739   6.777   6.498  0.5461 -0.0187  0.5015
 1985TIP3    H227591   3.699   6.906   6.431  2.0716 -0.1046 -0.6211
 1986TIP3   OH227592   3.709   0.141   0.172 -0.2971  0.1874 -0.1329
 1986TIP3    H127593   3.664   0.226   0.181  0.6327  0.8731 -1.5286
 1986TIP3    H227594   3.740   0.121   0.260 -1.1140  0.9677  0.3538
 1987TIP3   OH227595   1.700   0.484   6.870  0.5203 -0.0513 -0.2475
 1987TIP3    H127596   1.715   0.525   6.785 -0.6710 -0.1320 -0.5212
 1987TIP3    H227597   1.729   0.393   6.858  1.2318  0.1744 -0.2734
 1988TIP3   OH227598   4.876   3.054   1.569 -0.3815  0.1825 -0.0796
 1988TIP3    H127599   4.845   2.966   1.546 -2.0955  0.3026  1.5018
 1988TIP3    H227600   4.936   3.039   1.643 -0.5519  0.3357  0.0893
 1989TIP3   OH227601   1.264   2.668   7.174  0.0725 -0.1391 -0.5689
 1989TIP3    H127602   1.220   2.630   7.098 -0.3638 -1.8749  0.4789
 1989TIP3    H227603   1.350   2.625   7.175  0.4233  0.5541 -0.5829
 1990TIP3   OH227604   4.760   6.295   1.363 -0.9044  0.5740  0.0604
 1990TIP3    H127605   4.668   6.305   1.340 -0.6281 -0.4207 -1.6828
 1990TIP3    H227606   4.787   6.214   1.318  1.1304  1.5521 -0.6091
 1991TIP3   OH227607   2.643   5.714   1.451 -0.2072 -0.5972  0.3029
 1991TIP3    H127608   2.698   5.659   1.394  0.0303 -0.8495  0.7710
 1991TIP3    H227609   2.703   5.746   1.518 -0.2772  0.4969 -0.1420
 1992TIP3   OH227610   3.055   6.932   8.458  0.1388 -0.4744  0.2600
 1992TIP3    H127611   2.976   6.930   8.404 -0.3350 -1.1346  0.9558
 1992TIP3    H227612   3.127   6.935   8.396 -0.4309  0.4098 -0.3883
 1993TIP3   OH227613   6.247   0.088   7.963 -0.3430  0.0142 -0.4112
 1993TIP3    H127614   6.195   0.011   7.985  0.9162 -1.0712 -1.0505
 1993TIP3    H227615   6.188   0.144   7.913 -0.4434 -2.0599 -2.8138
 1994TIP3   OH227616   4.150   1.638   8.444 -0.5622  0.1197 -0.4395
 1994TIP3    H127617   4.105   1.601   8.520 -0.4104 -0.6074 -0.6956
 1994TIP3    H227618   4.097   1.713   8.419  0.2398  1.3599  1.3535
 1995TIP3   OH227619   2.176   1.015   0.503  0.1247 -0.0663  0.2131
 1995TIP3    H127620   2.134   0.936   0.471 -2.0431  0.8771  0.5310
 1995TIP3    H227621   2.211   0.991   0.588  1.2415 -1.1693 -0.5260
 1996TIP3   OH227622   0.623   2.396   2.211  0.6499 -0.0650 -0.4244
 1996TIP3    H127623   0.536   2.430   2.189 -0.3149 -1.5557  0.8332
 1996TIP3    H227624   0.677   2.474   2.225 -0.1436  0.8933 -2.3613
 1997TIP3   OH227625   6.658   5.522   7.059 -0.5763 -0.0893 -0.2158
 1997TIP3    H127626   6.605   5.457   7.013 -0.5398 -1.0183  0.9975
 1997TIP3    H227627   6.652   5.497   7.151 -0.2074  1.3882  0.2420
 1998TIP3   OH227628   6.792   6.816   1.903 -0.5896  0.1030  0.3192
 1998TIP3    H127629   6.798   6.732   1.949  0.9050 -1.2456 -2.1291
 1998TIP3    H227630   6.881   6.849   1.900 -0.5135 -0.1477 -1.9818
 1999TIP3   OH227631   2.444   3.334   6.541 -0.1178 -0.5518  0.1552
 1999TIP3    H127632   2.377   3.397   6.514  0.7373  0.7951  1.0854
 1999TIP3    H227633   2.395   3.263   6.582 -1.1717 -0.9855 -1.7217
 2000TIP3   OH227634   0.554   4.603   7.163 -0.3295 -0.8250  0.4964
 2000TIP3    H127635   0.505   4.525   7.141  1.1437 -1.6018 -0.1320
 2000TIP3    H227636   0.567   4.649   7.080 -2.0430  0.6571  0.9777
 2001TIP3   OH227637   4.076   3.752   6.419 -0.3259  0.0321 -0.1711
 2001TIP3    H127638   4.117   3.767   6.334  0.3455  2.0909  0.4814
 2001TIP3    H227639   4.104   3.825   6.474  1.3579 -2.4766  2.6490
 2002TIP3   OH227640   0.766   3.550   7.820  0.0892  0.7592  0.7689
 2002TIP3    H127641   0.815   3.472   7.845  0.1741 -0.1717 -1.9744
 2002TIP3    H227642   0.674   3.525   7.832  0.0285 -0.4639 -1.6247
 2003TIP3   OH227643   6.866   5.122   0.103  0.2364 -0.0619 -0.2158
 2003TIP3    H127644   6.776   5.092   0.116  0.0923  0.4851  0.0895
 2003TIP3    H227645   6.870   5.148   0.010  0.0588 -0.0195 -0.2110
 2004TIP3   OH227646   3.359   6.563   7.429  0.2122 -0.1118  0.2072
 2004TIP3    H127647   3.439   6.521   7.396  0.3180 -1.5550  2.0812
 2004TIP3    H227648   3.288   6.521   7.380  0.5400  0.3194 -0.6404
 2005TIP3   OH227649   4.168   4.829   1.625  0.7200  0.0060  0.5676
 2005TIP3    H127650   4.134   4.740   1.625  0.9735 -0.1446 -1.6530
 2005TIP3    H227651   4.257   4.821   1.658  0.7372 -0.5792  0.3841
 2006TIP3   OH227652   5.828   2.077   0.846  0.0403 -0.0046 -0.2343
 2006TIP3    H127653   5.864   2.017   0.781 -0.6173  1.0300 -1.6130
 2006TIP3    H227654   5.896   2.144   0.857 -0.2243  0.3279 -0.5845
 2007TIP3   OH227655   4.216   1.399   6.813 -0.0028 -0.2782 -0.4204
 2007TIP3    H127656   4.164   1.340   6.759  0.4176 -1.6516  0.6244
 2007TIP3    H227657   4.256   1.459   6.751 -0.5917 -0.9580 -1.4983
 2008TIP3   OH227658   5.776   4.354   2.739 -0.0873  0.4318 -0.2961
 2008TIP3    H127659   5.698   4.405   2.719 -0.8245 -0.5455  0.0308
 2008TIP3    H227660   5.744   4.265   2.753  1.0917  0.0040 -0.2152
 2009TIP3   OH227661   5.282   2.628   8.236 -0.0914 -0.1130  0.2847
 2009TIP3    H127662   5.282   2.667   8.323  0.1468 -1.2626  0.8263
 2009TIP3    H227663   5.272   2.702   8.176 -1.3770  0.5977  1.3215
 2010TIP3   OH227664   3.647   5.057   8.132 -0.0766 -0.0399  0.2085
 2010TIP3    H127665   3.665   4.996   8.203 -1.3789 -2.1066 -1.1357
 2010TIP3    H227666   3.597   5.006   8.068 -0.7386  2.2896 -1.2697
 2011TIP3   OH227667   3.117   1.416   6.809 -0.1029  0.0861  0.0459
 2011TIP3    H127668   3.170   1.474   6.864 -0.0720 -0.3391  0.4663
 2011TIP3    H227669   3.123   1.331   6.851  1.1001 -0.5896 -1.4044
 2012TIP3   OH227670   4.121   1.592   0.359  0.4476  0.3636  0.3899
 2012TIP3    H127671   4.180   1.666   0.346 -0.6803  1.2379  0.1932
 2012TIP3    H227672   4.160   1.521   0.307 -0.4892  1.9072 -2.6153
 2013TIP3   OH227673   4.559   1.663   8.549 -0.4194 -0.1272 -0.0900
 2013TIP3    H127674   4.510   1.583   8.529 -0.5744  0.3405 -1.7553
 2013TIP3    H227675   4.626   1.668   8.480  0.7060  0.2984  0.9860
 2014TIP3   OH227676   1.802   4.187   0.727 -0.1975  0.0185  0.0029
 2014TIP3    H127677   1.788   4.282   0.732 -2.0405 -0.2071 -0.3143
 2014TIP3    H227678   1.776   4.154   0.813  0.8709 -0.1733  0.2677
 2015TIP3   OH227679   6.253   6.030   8.070 -0.2613 -0.2814  0.3273
 2015TIP3    H127680   6.343   6.060   8.087 -0.2850  0.0610 -0.1165
 2015TIP3    H227681   6.198   6.091   8.119 -0.3825  1.3701 -1.7180
 2016TIP3   OH227682   6.122   5.473   6.952 -0.2436 -0.2055  0.1406
 2016TIP3    H127683   6.163   5.502   7.034  0.3896  0.9789 -0.5590
 2016TIP3    H227684   6.190   5.420   6.910 -0.1566  0.0992 -0.1076
 2017TIP3   OH227685   5.684   5.960   6.973 -0.2221  0.3021 -0.6732
 2017TIP3    H127686   5.717   5.883   7.019 -3.2237 -1.4787 -1.2402
 2017TIP3    H227687   5.667   5.930   6.884  3.8285  3.2283 -2.7779
 2018TIP3   OH227688   0.258   1.849   8.382  0.3371  0.1698  0.0485
 2018TIP3    H127689   0.312   1.928   8.390  0.7626 -0.2678  2.3463
 2018TIP3    H227690   0.169   1.879   8.403  0.3527  0.2112  0.0562
 2019TIP3   OH227691   5.161   6.741   1.026 -0.4991 -0.1701  0.6514
 2019TIP3    H127692   5.223   6.768   0.958  0.6981 -0.7849  1.4574
 2019TIP3    H227693   5.077   6.733   0.980  0.2726 -0.5770 -0.7574
 2020TIP3   OH227694   4.651   1.762   7.905  0.2575 -0.1535 -0.2732
 2020TIP3    H127695   4.742   1.771   7.879  0.1881  0.8829 -0.2012
 2020TIP3    H227696   4.648   1.794   7.995  0.0783 -1.5544  0.2444
 2021TIP3   OH227697   6.591   2.102   6.839  0.2529 -0.2445 -0.0593
 2021TIP3    H127698   6.556   2.183   6.801 -0.0013 -0.6222 -0.6523
 2021TIP3    H227699   6.681   2.124   6.862  0.3678  0.0437 -0.7504
 2022TIP3   OH227700   0.793   5.834   7.894 -0.7052 -0.1680 -0.4899
 2022TIP3    H127701   0.773   5.827   7.987 -1.8043  2.0008 -0.4929
 2022TIP3    H227702   0.888   5.847   7.891 -0.7514  0.4990  0.4035
 2023TIP3   OH227703   1.394   2.221   0.767  0.0490 -0.8670  0.1209
 2023TIP3    H127704   1.382   2.307   0.725  0.8196 -0.9876 -0.3524
 2023TIP3    H227705   1.380   2.158   0.697  2.0527 -1.0518 -0.1575
 2024TIP3   OH227706   4.108   0.584   0.866  0.1044 -0.1548 -0.1077
 2024TIP3    H127707   4.136   0.520   0.801 -0.2706  0.5330 -0.9733
 2024TIP3    H227708   4.091   0.663   0.815 -0.0244  0.4515  0.8607
 2025TIP3   OH227709   2.848   5.182   2.013  0.1523 -0.4106 -0.0056
 2025TIP3    H127710   2.817   5.260   2.059 -1.5966  0.3131 -2.2254
 2025TIP3    H227711   2.863   5.212   1.923  0.6202 -2.3888 -0.6287
 2026TIP3   OH227712   6.116   4.082   1.426 -0.4949 -0.5106  0.3964
 2026TIP3    H127713   6.024   4.093   1.403 -0.4105  0.0878  0.3292
 2026TIP3    H227714   6.164   4.124   1.355 -0.1362 -1.5906 -0.0242
 2027TIP3   OH227715   3.960   2.859   0.413  0.1493  0.0615  0.4263
 2027TIP3    H127716   3.966   2.857   0.509  0.2413  2.5971  0.5572
 2027TIP3    H227717   4.025   2.795   0.383  0.7744 -0.1157  2.0645
 2028TIP3   OH227718   1.781   0.901   7.395  0.1998  0.9210 -0.0115
 2028TIP3    H127719   1.833   0.822   7.383 -0.2081  0.8218 -1.3688
 2028TIP3    H227720   1.805   0.934   7.481 -0.3610 -1.2269  1.0317
 2029TIP3   OH227721   1.550   1.435   8.008  0.7540 -0.1954 -0.4663
 2029TIP3    H127722   1.488   1.366   8.031  1.2971 -0.7945 -0.7948
 2029TIP3    H227723   1.543   1.444   7.913 -0.7092  1.5436 -0.2507
 2030TIP3   OH227724   4.402   1.668   1.789  0.0651 -0.5116  0.2177
 2030TIP3    H127725   4.345   1.715   1.850  1.0696 -0.6249  1.2811
 2030TIP3    H227726   4.488   1.669   1.831  0.4959 -1.7538 -0.5805
 2031TIP3   OH227727   0.394   1.389   2.271 -0.1171 -0.4057 -0.5155
 2031TIP3    H127728   0.345   1.435   2.339 -1.1775 -2.9946  0.5896
 2031TIP3    H227729   0.469   1.351   2.317  0.0150 -0.8861 -1.1164
 2032TIP3   OH227730   5.614   5.116   0.712 -0.1076 -0.2518  0.0417
 2032TIP3    H127731   5.537   5.075   0.672  0.1861 -1.8990  1.0866
 2032TIP3    H227732   5.622   5.074   0.798  1.0315  1.0478  0.6071
 2033TIP3   OH227733   6.186   6.814   1.021  0.0340  0.6785 -0.0142
 2033TIP3    H127734   6.181   6.902   0.985 -1.3521  0.8666  0.5770
 2033TIP3    H227735   6.164   6.757   0.948 -1.5292  0.9842  0.1995
 2034TIP3   OH227736   0.394   3.971   1.023  0.3011  0.3190 -0.1762
 2034TIP3    H127737   0.374   3.878   1.033  0.2520  0.3863  0.3715
 2034TIP3    H227738   0.481   3.981   1.062  0.3272  0.4961 -0.2781
 2035TIP3   OH227739   0.453   6.305   1.204 -0.1887 -0.4976 -0.0548
 2035TIP3    H127740   0.446   6.388   1.157 -1.5380 -0.1516  0.6938
 2035TIP3    H227741   0.514   6.252   1.152  2.1287  1.5636  0.3655
 2036TIP3   OH227742   0.106   1.408   0.791 -0.1562  0.2294 -0.5954
 2036TIP3    H127743   0.125   1.390   0.884  1.1933  1.3155 -0.6301
 2036TIP3    H227744   0.023   1.363   0.775  0.6425 -1.8027  0.5572
 2037TIP3   OH227745   1.718   1.568   1.891  0.3806 -0.0534 -0.2195
 2037TIP3    H127746   1.789   1.531   1.838  0.9515  0.9879 -0.1953
 2037TIP3    H227747   1.726   1.663   1.879 -2.3234  0.0750 -1.9565
 2038TIP3   OH227748   6.889   3.008   7.956 -0.1769  0.6993  0.2070
 2038TIP3    H127749   6.842   2.988   7.876  0.2236 -0.6661  0.2900
 2038TIP3    H227750   6.884   3.104   7.964 -1.7780  0.7074 -0.4694
 2039TIP3   OH227751   6.417   6.188   0.869  0.5235 -0.3028  0.2354
 2039TIP3    H127752   6.390   6.273   0.835  0.0369 -0.5067  0.1074
 2039TIP3    H227753   6.482   6.209   0.936  1.2938  0.1143 -0.6214
 2040TIP3   OH227754   2.512   6.625   0.450 -0.0698 -0.1374  0.6038
 2040TIP3    H127755   2.517   6.718   0.473 -0.8699 -0.5792  2.8704
 2040TIP3    H227756   2.542   6.580   0.529 -1.3119 -1.8433  0.1590
 2041TIP3   OH227757   6.054   5.113   6.714 -0.2008 -0.1669 -0.2032
 2041TIP3    H127758   6.089   5.063   6.641 -1.6189 -1.1465 -0.2670
 2041TIP3    H227759   6.072   5.204   6.693  1.4122 -0.5763 -0.6510
 2042TIP3   OH227760   5.331   4.343   2.273 -0.2039  0.6012  0.7071
 2042TIP3    H127761   5.422   4.313   2.277 -0.3052  0.3557  1.3997
 2042TIP3    H227762   5.320   4.393   2.354 -1.0029 -0.3014  1.1743
 2043TIP3   OH227763   6.026   5.143   0.531 -0.2195 -0.2050  0.3020
 2043TIP3    H127764   6.010   5.179   0.619  0.3275 -0.0622  0.3481
 2043TIP3    H227765   5.949   5.089   0.513  0.7136 -2.1748  1.8573
 2044TIP3   OH227766   1.545   1.504   1.689 -0.6061  0.2047 -0.3346
 2044TIP3    H127767   1.457   1.523   1.722 -0.9302  0.2486 -1.1900
 2044TIP3    H227768   1.604   1.530   1.760 -1.3340 -1.0615  0.7774
 2045TIP3   OH227769   0.425   5.625   0.923  0.5540 -0.4596  0.2400
 2045TIP3    H127770   0.344   5.576   0.933  0.8984 -0.8825  1.0631
 2045TIP3    H227771   0.476   5.604   1.002  0.9930  0.6775  0.2834
 2046TIP3   OH227772   3.540   3.338   7.707 -0.3434 -0.3824  0.4614
 2046TIP3    H127773   3.530   3.322   7.613  2.7872  1.9753 -0.4220
 2046TIP3    H227774   3.613   3.283   7.733  0.6943  1.1056  0.8033
 2047TIP3   OH227775   5.977   5.814   1.864  0.1392 -0.6535  0.3070
 2047TIP3    H127776   6.029   5.750   1.913  2.6396 -0.2869 -1.6559
 2047TIP3    H227777   5.982   5.785   1.773 -0.8671  0.9217 -0.3010
 2048TIP3   OH227778   4.707   1.159   2.012 -0.6433  0.1350  0.4091
 2048TIP3    H127779   4.646   1.218   1.967 -0.4700  1.0081  1.2753
 2048TIP3    H227780   4.771   1.218   2.053  0.7484 -0.7555 -0.4165
 2049TIP3   OH227781   3.981   4.861   7.686  0.1630 -0.1222 -0.4506
 2049TIP3    H127782   4.007   4.952   7.674  1.4757 -0.5406 -0.9345
 2049TIP3    H227783   4.049   4.824   7.744 -1.0283 -0.4907  0.7654
 2050TIP3   OH227784   2.095   2.594   0.382 -0.1734 -0.8976  0.0084
 2050TIP3    H127785   2.092   2.522   0.319 -0.3967 -2.3835  1.6430
 2050TIP3    H227786   2.173   2.576   0.435  1.6378  1.8476 -1.4857
 2051TIP3   OH227787   5.803   5.578   1.290  0.6067 -0.1277 -0.1682
 2051TIP3    H127788   5.835   5.626   1.214  1.0845  1.2140  0.8452
 2051TIP3    H227789   5.737   5.635   1.329 -0.8861 -1.5406 -0.5060
 2052TIP3   OH227790   1.172   6.570   7.078 -0.3271 -0.0397  0.4527
 2052TIP3    H127791   1.079   6.582   7.099 -0.5274  1.0883 -0.9078
 2052TIP3    H227792   1.180   6.477   7.057 -1.6799  0.2297 -1.5960
 2053TIP3   OH227793   0.282   0.821   1.336  0.1742  0.1540  0.2398
 2053TIP3    H127794   0.348   0.803   1.402  0.1425 -1.0472 -0.0210
 2053TIP3    H227795   0.276   0.740   1.285 -1.4331  0.2494  0.2090
 2054TIP3   OH227796   5.360   2.169   0.725  0.1465 -0.4656  0.6699
 2054TIP3    H127797   5.414   2.154   0.647  0.0109  1.2394  0.1912
 2054TIP3    H227798   5.409   2.128   0.797  2.6775  1.8129  0.4374
 2055TIP3   OH227799   6.555   5.201   0.617  0.0209  0.0782  0.2653
 2055TIP3    H127800   6.567   5.267   0.548 -0.3622  0.5965  0.6866
 2055TIP3    H227801   6.467   5.166   0.601 -0.6631  1.2158  1.3235
 2056TIP3   OH227802   5.571   1.428   0.211 -0.5540 -0.5213  0.0985
 2056TIP3    H127803   5.631   1.401   0.142 -0.0173 -0.9077  0.6994
 2056TIP3    H227804   5.556   1.348   0.262 -1.6307 -0.4491 -0.0639
 2057TIP3   OH227805   0.164   4.257   2.232  0.6259 -0.2505  1.0536
 2057TIP3    H127806   0.242   4.260   2.287  0.0598 -1.2380  1.9617
 2057TIP3    H227807   0.192   4.291   2.147  1.1753  2.7733  2.3171
 2058TIP3   OH227808   3.690   6.668   7.278 -0.2699 -0.8893 -0.4407
 2058TIP3    H127809   3.657   6.606   7.214  0.9957 -1.0510 -0.9698
 2058TIP3    H227810   3.747   6.727   7.227  1.4081 -1.5093  0.6415
 2059TIP3   OH227811   6.735   1.865   0.032  0.1964  0.4854  0.5256
 2059TIP3    H127812   6.670   1.796   0.024  0.8280 -0.3985  2.5083
 2059TIP3    H227813   6.699   1.926   0.096  1.8170 -0.7400  2.7439
 2060TIP3   OH227814   4.649   2.123   1.360 -0.1500 -0.0568 -0.9944
 2060TIP3    H127815   4.734   2.129   1.402 -0.8442 -1.2014  0.6555
 2060TIP3    H227816   4.588   2.100   1.430 -1.5250 -1.1064 -2.4474
 2061TIP3   OH227817   6.511   6.047   7.121  0.1349  0.1317 -0.0422
 2061TIP3    H127818   6.585   6.027   7.064  0.5949  0.3614  0.4721
 2061TIP3    H227819   6.453   6.101   7.067  0.8799  0.8952 -0.0896
 2062TIP3   OH227820   1.200   2.363   8.570 -0.2160  0.7388  0.1968
 2062TIP3    H127821   1.198   2.414   8.651 -0.6506  1.7659 -0.4364
 2062TIP3    H227822   1.285   2.382   8.532  0.8229 -1.3032  1.3382
 2063TIP3   OH227823   5.222   4.110   2.575 -0.0895 -0.9196 -0.4811
 2063TIP3    H127824   5.177   4.034   2.612 -0.3875 -0.7580 -0.5122
 2063TIP3    H227825   5.182   4.186   2.618  1.0567 -0.8240  0.4706
 2064TIP3   OH227826   3.476   1.796   1.432 -0.2462 -0.4208  0.3881
 2064TIP3    H127827   3.527   1.742   1.372  0.0945 -1.1274  1.2869
 2064TIP3    H227828   3.523   1.879   1.435 -0.4305 -0.2728 -0.5312
 2065TIP3   OH227829   0.810   2.733   0.504  0.1253 -0.1856 -0.1255
 2065TIP3    H127830   0.715   2.729   0.513  0.0615 -0.0862 -0.6949
 2065TIP3    H227831   0.844   2.682   0.577 -0.3172  1.2318  1.1054
 2066TIP3   OH227832   2.890   3.965   1.437  0.2641 -0.0102  0.3401
 2066TIP3    H127833   2.923   3.981   1.349 -0.3268  2.6469  0.5168
 2066TIP3    H227834   2.795   3.975   1.429  0.0877 -1.0086  1.0507
 2067TIP3   OH227835   4.000   2.945   8.427  0.2468  0.2174 -0.0618
 2067TIP3    H127836   3.928   2.943   8.363  0.5449 -1.7991 -0.4087
 2067TIP3    H227837   4.075   2.909   8.379  2.5035  5.0123 -0.7184
 2068TIP3   OH227838   3.111   4.606   6.672 -0.0620 -0.0463 -0.1511
 2068TIP3    H127839   3.158   4.665   6.612 -0.3475  0.7565  0.4014
 2068TIP3    H227840   3.112   4.522   6.627  1.2665  0.1237 -0.4906
 2069TIP3   OH227841   4.187   3.647   6.978 -0.5216  0.3362 -0.1322
 2069TIP3    H127842   4.277   3.644   6.948 -0.5517  0.4328 -0.2322
 2069TIP3    H227843   4.148   3.721   6.932  0.0545  1.9993  1.9093
 2070TIP3   OH227844   2.355   4.759   0.067  0.4439 -0.0005  0.7348
 2070TIP3    H127845   2.417   4.828   0.043  1.4654 -1.2676 -0.4923
 2070TIP3    H227846   2.324   4.724  -0.017 -0.8981 -0.3000  1.3340
 2071TIP3   OH227847   4.829   1.479   0.349  0.4347  0.0764 -0.2642
 2071TIP3    H127848   4.794   1.395   0.378  2.0567 -0.2148  0.9955
 2071TIP3    H227849   4.754   1.538   0.349 -0.2362 -0.7111  1.5310
 2072TIP3   OH227850   4.382   3.702   7.845  0.1223  0.1975  0.7470
 2072TIP3    H127851   4.359   3.675   7.755 -1.9511 -1.0298  1.5690
 2072TIP3    H227852   4.389   3.797   7.840  2.4450  0.0512 -1.1675
 2073TIP3   OH227853   5.487   4.616   8.306  0.1632  0.4304  0.5273
 2073TIP3    H127854   5.457   4.693   8.354 -1.7318 -0.5294  0.9748
 2073TIP3    H227855   5.458   4.542   8.359 -0.9217 -0.6501 -1.4300
 2074TIP3   OH227856   3.582   0.269   1.287 -0.0202 -0.6377  0.3415
 2074TIP3    H127857   3.488   0.282   1.302 -0.1194 -1.4343  0.4479
 2074TIP3    H227858   3.590   0.264   1.191 -0.1341 -0.8959  0.3448
 2075TIP3   OH227859   5.729   4.172   7.481 -0.2417 -0.4663  0.1820
 2075TIP3    H127860   5.819   4.194   7.457  0.1710 -1.2383  0.9541
 2075TIP3    H227861   5.675   4.209   7.411  0.5177  1.5299  0.5908
 2076TIP3   OH227862   0.126   5.938   0.680  0.0206 -0.0659 -0.4492
 2076TIP3    H127863   0.184   5.967   0.750  1.0118 -2.0750 -0.3697
 2076TIP3    H227864   0.041   5.926   0.723  0.3848 -0.3421  0.2174
 2077TIP3   OH227865   4.264   1.779   1.558  0.0185 -0.6485 -0.8240
 2077TIP3    H127866   4.334   1.783   1.493  0.7872 -2.7468 -0.1928
 2077TIP3    H227867   4.308   1.755   1.639 -1.3468 -1.2584 -0.2395
 2078TIP3   OH227868   1.975   3.568   7.371  0.1305  0.4965  0.6541
 2078TIP3    H127869   2.010   3.503   7.432 -0.1275 -1.1171 -0.8365
 2078TIP3    H227870   2.031   3.561   7.294 -1.6528 -0.0967 -0.6634
 2079TIP3   OH227871   6.023   3.189   6.872  0.6213  0.3686  0.6435
 2079TIP3    H127872   5.978   3.108   6.848  1.6756  0.3985 -1.7648
 2079TIP3    H227873   6.115   3.165   6.877  1.2685  1.7512 -2.4541
 2080TIP3   OH227874   3.619   4.377   1.112 -0.2236  0.5482  0.3670
 2080TIP3    H127875   3.538   4.428   1.105 -1.1955 -0.5085  2.8866
 2080TIP3    H227876   3.610   4.309   1.045 -1.1250  0.8144  0.2013
 2081TIP3   OH227877   3.641   6.230   7.402  0.4814  0.1955  0.3234
 2081TIP3    H127878   3.621   6.254   7.311  2.1227  1.0845  0.1631
 2081TIP3    H227879   3.707   6.294   7.429  1.8245 -1.5496  1.3370
 2082TIP3   OH227880   3.423   0.081   8.046  0.0660 -0.1086  0.0954
 2082TIP3    H127881   3.506   0.092   7.999 -0.8916  1.0271 -1.4056
 2082TIP3    H227882   3.428  -0.008   8.081  1.1676 -0.7368 -1.5058
 2083TIP3   OH227883   0.211   5.255   1.880 -0.0699  0.0781 -0.5149
 2083TIP3    H127884   0.283   5.209   1.922 -0.7484 -2.4784 -1.8674
 2083TIP3    H227885   0.172   5.308   1.949  2.1407  0.3273  0.6091
 2084TIP3   OH227886   2.493   1.162   0.963 -0.1766 -0.3215 -0.0474
 2084TIP3    H127887   2.528   1.170   1.052 -1.0443  1.6353  0.1709
 2084TIP3    H227888   2.398   1.169   0.974 -0.3093 -0.3247 -1.1013
 2085TIP3   OH227889   3.940   0.944   0.876 -0.0411 -0.0894 -0.4874
 2085TIP3    H127890   3.882   0.994   0.818 -0.5050  0.0372  0.0802
 2085TIP3    H227891   3.980   0.879   0.819  0.3250  0.7111 -1.1779
 2086TIP3   OH227892   3.550   6.829   1.034  0.3336 -0.4233  0.7899
 2086TIP3    H127893   3.582   6.843   0.944 -0.1167  1.0058  0.8247
 2086TIP3    H227894   3.456   6.845   1.029  0.4927  1.0168  1.7485
 2087TIP3   OH227895   2.797   1.554   7.736  0.4588  0.1676 -0.0973
 2087TIP3    H127896   2.778   1.511   7.820 -0.7958 -0.4338 -0.6507
 2087TIP3    H227897   2.751   1.501   7.671  0.7656  1.0631 -1.0831
 2088TIP3   OH227898   2.311   2.227   0.083  0.4422  0.0449  0.3446
 2088TIP3    H127899   2.286   2.135   0.072 -1.4283  0.6642 -1.2210
 2088TIP3    H227900   2.256   2.259   0.154 -0.3401  0.4099 -0.4085
 2089TIP3   OH227901   5.372   0.838   6.947  0.2866  0.2670 -0.4607
 2089TIP3    H127902   5.297   0.785   6.920  1.2052 -1.6033  0.4315
 2089TIP3    H227903   5.339   0.928   6.949 -1.1659 -0.1538 -2.6944
 2090TIP3   OH227904   3.402   2.335   7.946 -0.0767 -0.0607  0.0633
 2090TIP3    H127905   3.426   2.428   7.939  0.3586 -0.1289  0.5753
 2090TIP3    H227906   3.458   2.291   7.882  0.5854 -0.1125  0.6615
 2091TIP3   OH227907   3.903   0.355   2.021  0.5552  0.6319 -0.5261
 2091TIP3    H127908   3.910   0.262   2.002 -1.8229  0.2963 -0.0954
 2091TIP3    H227909   3.889   0.396   1.936 -2.3620  0.0565 -0.4104
 2092TIP3   OH227910   5.801   5.500   7.932 -0.4323 -0.6732 -0.2698
 2092TIP3    H127911   5.835   5.584   7.965  0.3747 -0.9357 -0.3958
 2092TIP3    H227912   5.843   5.434   7.987 -0.9162 -1.0016 -0.2944
 2093TIP3   OH227913   2.568   0.810   0.319 -0.5410  0.0275 -0.0982
 2093TIP3    H127914   2.518   0.751   0.376 -1.1614  0.4018 -0.2443
 2093TIP3    H227915   2.574   0.762   0.236  1.3028 -0.9907  0.5752
 2094TIP3   OH227916   5.884   4.156   2.160  0.1028  0.6052  0.5479
 2094TIP3    H127917   5.956   4.142   2.222 -0.5137  0.7545  1.3084
 2094TIP3    H227918   5.818   4.202   2.210 -0.0436  1.5586 -0.4788
 2095TIP3   OH227919   5.904   4.645   7.343  0.3991  0.3619  0.1752
 2095TIP3    H127920   5.894   4.698   7.422 -0.4155  0.6918 -0.1261
 2095TIP3    H227921   5.846   4.688   7.279  1.7336  0.6432 -0.8803
 2096TIP3   OH227922   6.890   1.676   1.174 -0.4250 -0.8753 -0.4006
 2096TIP3    H127923   6.811   1.722   1.202 -0.7664 -1.3440 -0.5852
 2096TIP3    H227924   6.891   1.596   1.226  0.2876 -0.5618  0.0820
 2097TIP3   OH227925   5.201   5.230   8.284  0.1756 -0.1856  0.5887
 2097TIP3    H127926   5.116   5.217   8.326  0.2639  2.0434  1.6382
 2097TIP3    H227927   5.264   5.206   8.352  0.4696 -2.6406 -0.4591
 2098TIP3   OH227928   3.064   4.409   7.193  0.3655  0.2207 -0.2069
 2098TIP3    H127929   3.119   4.400   7.271  2.1514  2.8246 -1.0422
 2098TIP3    H227930   3.116   4.373   7.122  0.0723  0.6845 -0.6639
 2099TIP3   OH227931   0.881   5.961   7.202  0.2678  0.3582 -0.4011
 2099TIP3    H127932   0.931   6.039   7.179 -0.1235 -0.0846 -3.0891
 2099TIP3    H227933   0.941   5.888   7.187  0.6261  0.0587  2.0805
 2100TIP3   OH227934   2.475   2.491   1.741  0.0342  0.2875 -0.2534
 2100TIP3    H127935   2.423   2.504   1.662  1.3425  1.9922 -0.8921
 2100TIP3    H227936   2.418   2.440   1.799 -1.7496  0.7634 -1.4977
 2101TIP3   OH227937   5.441   2.033   7.888  0.0485  0.3825  0.0987
 2101TIP3    H127938   5.346   2.037   7.898 -0.0596  2.6263 -0.9858
 2101TIP3    H227939   5.469   2.125   7.895  2.2463 -0.2981  1.1580
 2102TIP3   OH227940   5.775   0.256   7.299  0.0560 -0.0608  0.2080
 2102TIP3    H127941   5.751   0.170   7.333  0.2664  0.0912  0.7598
 2102TIP3    H227942   5.853   0.280   7.350  0.1606  0.3336 -0.1344
 2103TIP3   OH227943   5.620   6.068   1.452 -0.4586  0.8880  0.3393
 2103TIP3    H127944   5.535   6.024   1.458 -0.3364  0.5149 -0.6077
 2103TIP3    H227945   5.675   6.023   1.517 -0.5738  0.1843 -0.0459
 2104TIP3   OH227946   5.062   1.055   6.844 -0.4356  0.2798  0.1434
 2104TIP3    H127947   5.062   0.961   6.863  0.6979  0.0586 -0.8318
 2104TIP3    H227948   5.155   1.077   6.836 -0.7309  1.2522 -0.7714
 2105TIP3   OH227949   3.668   6.925   0.800  0.2707  0.3075 -0.1511
 2105TIP3    H127950   3.719   6.868   0.743 -1.0677 -1.6032  0.4788
 2105TIP3    H227951   3.592   6.950   0.748  0.7296  1.3702 -0.3413
 2106TIP3   OH227952   3.380   1.933   7.208 -0.5262 -0.5224  0.4733
 2106TIP3    H127953   3.358   1.840   7.208 -1.3411 -0.3395 -0.1638
 2106TIP3    H227954   3.300   1.977   7.234 -0.2885  0.0295  0.2835
 2107TIP3   OH227955   4.046   5.769   0.346  0.5415  0.3360  0.0802
 2107TIP3    H127956   4.011   5.797   0.262 -2.3504 -1.5519  0.5220
 2107TIP3    H227957   4.069   5.677   0.333 -0.9080 -0.2879  1.5310
 2108TIP3   OH227958   5.971   0.696   8.273 -0.1021 -0.3815 -0.2205
 2108TIP3    H127959   6.019   0.742   8.342  0.9944 -1.4834 -0.2168
 2108TIP3    H227960   5.928   0.623   8.319  0.7500 -1.2057 -0.6948
 2109TIP3   OH227961   3.613   1.716   7.964  0.6445  0.3332  0.4445
 2109TIP3    H127962   3.584   1.805   7.943 -2.4472  0.5250  4.3559
 2109TIP3    H227963   3.646   1.722   8.054  0.6651 -2.4161  0.6880
 2110TIP3   OH227964   2.971   0.023   1.523  0.0015  0.5488  1.0386
 2110TIP3    H127965   2.939  -0.066   1.530 -1.4254  0.9863  0.4647
 2110TIP3    H227966   3.062   0.014   1.495 -0.5039 -0.7183 -0.3196
 2111TIP3   OH227967   0.361   6.118   1.400 -0.3707 -0.1507 -0.5365
 2111TIP3    H127968   0.380   6.152   1.312  0.8231  1.4211  0.2827
 2111TIP3    H227969   0.286   6.169   1.429 -1.1638 -1.1066 -0.8532
 2112TIP3   OH227970   6.397   5.306   1.549  0.0282 -0.5543 -0.6115
 2112TIP3    H127971   6.435   5.243   1.487 -0.3081 -0.4873 -0.8890
 2112TIP3    H227972   6.305   5.313   1.522  0.0645  0.0548 -0.5767
 2113TIP3   OH227973   1.841   2.204   0.997  0.1130 -0.1455 -0.7103
 2113TIP3    H127974   1.819   2.224   0.906 -1.4468  2.1460  0.0733
 2113TIP3    H227975   1.929   2.241   1.009  0.4841 -0.7919 -1.3526
 2114TIP3   OH227976   4.447   5.577   1.370 -0.3956  0.2416  0.1320
 2114TIP3    H127977   4.376   5.640   1.361 -0.2189  0.5399  0.7951
 2114TIP3    H227978   4.412   5.497   1.331 -0.5954  0.7594 -0.7757
 2115TIP3   OH227979   6.581   0.697   2.364  0.2283 -0.4336 -0.1602
 2115TIP3    H127980   6.504   0.748   2.339 -0.4529 -0.9322  0.8537
 2115TIP3    H227981   6.642   0.761   2.400 -0.7413 -0.3224  1.3974
 2116TIP3   OH227982   0.603   5.079   0.345 -0.4285 -0.2705 -0.1679
 2116TIP3    H127983   0.591   5.085   0.440 -0.4629 -1.1561 -0.1086
 2116TIP3    H227984   0.598   5.170   0.315  1.2212  0.2103  0.8671
 2117TIP3   OH227985   6.102   3.181   0.246  0.4678  1.1375 -0.2455
 2117TIP3    H127986   6.068   3.263   0.283  0.2057  0.4324  1.1324
 2117TIP3    H227987   6.196   3.196   0.240  0.8616  0.5787  2.7720
 2118TIP3   OH227988   5.735   0.284   8.363 -0.0270 -0.7063 -0.0155
 2118TIP3    H127989   5.676   0.208   8.358 -0.2964 -0.5114  0.1538
 2118TIP3    H227990   5.704   0.342   8.294 -0.0585 -0.5859  0.0987
 2119TIP3   OH227991   5.592   6.616   1.418  0.0277  0.0916  0.1865
 2119TIP3    H127992   5.662   6.560   1.451 -1.2239 -1.3692  0.4923
 2119TIP3    H227993   5.634   6.672   1.353  1.6491 -0.0868  1.0385
 2120TIP3   OH227994   4.385   2.692   7.993 -0.0716 -0.2248 -0.2306
 2120TIP3    H127995   4.336   2.762   8.037 -0.0214 -0.1529 -0.2885
 2120TIP3    H227996   4.342   2.682   7.908  0.5237  0.4115 -0.6204
 2121TIP3   OH227997   3.583   6.290   2.609  0.0103 -0.3554 -0.0994
 2121TIP3    H127998   3.562   6.368   2.557  1.4129 -0.0114 -0.1971
 2121TIP3    H227999   3.531   6.220   2.570 -1.6396  0.6027  0.2806
 2122TIP3   OH228000   4.892   4.784   2.002 -0.2233  0.0701  0.4591
 2122TIP3    H128001   4.948   4.717   1.962 -0.5094  0.3817 -0.4932
 2122TIP3    H228002   4.820   4.735   2.042  0.5965 -0.3191  1.5158
 2123TIP3   OH228003   4.057   5.813   2.699 -0.1761 -0.4465 -0.1485
 2123TIP3    H128004   4.084   5.762   2.776  0.7532  0.6804  0.3074
 2123TIP3    H228005   4.008   5.751   2.645  0.6022 -1.7123  0.5506
 2124TIP3   OH228006   0.594   1.934   0.697 -0.2864 -0.6281  0.0377
 2124TIP3    H128007   0.532   1.901   0.633 -0.8976 -0.8746  0.7433
 2124TIP3    H228008   0.593   2.029   0.685  0.0183 -0.7078 -0.6790
 2125TIP3   OH228009   5.022   1.170   0.282 -0.6356  0.5460 -0.1411
 2125TIP3    H128010   5.061   1.251   0.316 -1.2014  0.7573  0.0159
 2125TIP3    H228011   5.050   1.167   0.191  2.1018 -0.7678  0.6588
 2126TIP3   OH228012   5.197   2.311   8.145  0.3367 -0.2260 -0.0069
 2126TIP3    H128013   5.204   2.405   8.159 -1.4912 -0.2137  1.1966
 2126TIP3    H228014   5.264   2.273   8.201  1.5901  0.3424 -1.0575
 2127TIP3   OH228015   2.767   3.726   0.852 -0.6179 -0.1326 -0.1260
 2127TIP3    H128016   2.709   3.668   0.900 -2.1903  1.6327  0.2050
 2127TIP3    H228017   2.855   3.700   0.880 -1.2559 -2.0825  0.2531
 2128TIP3   OH228018   3.092   6.702   6.673 -0.2536  0.6196 -0.3691
 2128TIP3    H128019   3.157   6.732   6.736  1.4696  3.0763 -3.0196
 2128TIP3    H228020   3.101   6.606   6.672  1.5632  0.7266  1.1363
 2129TIP3   OH228021   3.647   2.134   6.993  0.1578  0.1449 -0.4616
 2129TIP3    H128022   3.732   2.123   7.035  0.0151  2.0995  0.4341
 2129TIP3    H228023   3.663   2.198   6.924 -0.5041  0.1980 -0.5672
 2130TIP3   OH228024   2.133   2.282   0.537  0.1780  0.7973 -0.2138
 2130TIP3    H128025   2.179   2.365   0.522  0.2560  1.1854  1.8375
 2130TIP3    H228026   2.077   2.299   0.612 -1.5188 -0.3892 -1.1506
 2131TIP3   OH228027   6.440   2.686   7.235 -0.0959  0.6331  0.2088
 2131TIP3    H128028   6.368   2.749   7.237  0.6436  1.5487 -0.5436
 2131TIP3    H228029   6.401   2.603   7.259 -1.2107  1.2929  0.7246
 2132TIP3   OH228030   1.101   5.661   2.031  0.1165  0.1490  0.0593
 2132TIP3    H128031   1.168   5.603   2.068  0.5354 -0.1531 -1.1265
 2132TIP3    H228032   1.037   5.671   2.102  0.9462 -0.2937  0.9055
 2133TIP3   OH228033   6.831   5.212   0.448 -0.1630 -0.1560  0.2926
 2133TIP3    H128034   6.870   5.126   0.436 -1.3904 -0.8375  1.0197
 2133TIP3    H228035   6.905   5.273   0.444  0.7358 -1.2388 -0.0871
 2134TIP3   OH228036   0.693   6.205   0.411 -0.4473  0.3339  0.1740
 2134TIP3    H128037   0.787   6.202   0.429 -0.5254  1.2937  0.7759
 2134TIP3    H228038   0.656   6.137   0.468  0.1122 -1.7865 -1.8402
 2135TIP3   OH228039   1.870   6.638   1.735 -0.4328  0.1746  0.3049
 2135TIP3    H128040   1.775   6.654   1.734 -0.6718 -1.1478 -0.1002
 2135TIP3    H228041   1.896   6.658   1.825 -1.0406  0.8488  0.3407
 2136TIP3   OH228042   4.256   1.395   7.723  0.0077  0.4626  0.0849
 2136TIP3    H128043   4.220   1.362   7.805  2.3150 -2.9387 -0.0716
 2136TIP3    H228044   4.309   1.471   7.749  0.4021 -0.3264  1.7221
 2137TIP3   OH228045   0.433   0.695   0.314  0.3403 -0.2514 -0.1423
 2137TIP3    H128046   0.514   0.649   0.291  0.5711  0.1358 -0.1038
 2137TIP3    H228047   0.363   0.637   0.283  0.6120 -1.0346  0.6936
 2138TIP3   OH228048   2.398   4.425   1.485 -0.8135  0.4322 -0.6407
 2138TIP3    H128049   2.303   4.408   1.488 -0.8335  0.3893 -1.3679
 2138TIP3    H228050   2.433   4.376   1.560 -1.6376  2.3864  1.1101
 2139TIP3   OH228051   3.364   4.308   8.308  0.6667  0.1151  0.0241
 2139TIP3    H128052   3.288   4.366   8.315  1.1687  0.7908 -0.0608
 2139TIP3    H228053   3.337   4.241   8.246  0.8427  1.4947 -1.6320
 2140TIP3   OH228054   1.963   0.873   0.651  0.1906 -0.5511  0.4771
 2140TIP3    H128055   1.985   0.802   0.711  1.3746 -0.8032 -0.2285
 2140TIP3    H228056   1.979   0.837   0.564  0.9611  0.6178  0.1104
 2141TIP3   OH228057   6.732   0.758   2.071 -0.2750  0.4041  0.5232
 2141TIP3    H128058   6.642   0.725   2.065 -0.6817  1.4832  0.4606
 2141TIP3    H228059   6.771   0.708   2.143 -1.3104  0.7516  1.3592
 2142TIP3   OH228060   2.242   2.685   1.078  1.3844  0.0569 -0.1040
 2142TIP3    H128061   2.253   2.644   1.164  1.1395  0.2477  0.0204
 2142TIP3    H228062   2.306   2.756   1.076  1.4488 -0.0022 -0.1113
 2143TIP3   OH228063   3.337   4.967   8.403  0.0747 -0.2061 -0.0845
 2143TIP3    H128064   3.396   4.954   8.477  0.3627 -1.0081 -0.4340
 2143TIP3    H228065   3.255   4.926   8.430  0.3830 -1.0892 -0.4459
 2144TIP3   OH228066   4.208   3.956   8.303  0.1874  0.2206 -0.0183
 2144TIP3    H128067   4.120   3.962   8.267  0.7616  1.9025 -1.2881
 2144TIP3    H228068   4.197   3.917   8.390 -1.8736  1.0248  0.1224
 2145TIP3   OH228069   3.788   0.072   6.741 -0.8382  0.3566  0.0854
 2145TIP3    H128070   3.757   0.050   6.653 -1.6034  2.1123 -0.1362
 2145TIP3    H228071   3.710   0.106   6.786  0.1670  2.4328  0.3754
 2146TIP3   OH228072   4.581   6.109   7.447  0.7089  0.2282 -0.2301
 2146TIP3    H128073   4.664   6.156   7.448  0.7709  0.1284  0.7915
 2146TIP3    H228074   4.554   6.109   7.356  0.5497  2.4946 -0.2364
 2147TIP3   OH228075   1.337   4.158   1.023 -0.6438 -0.0856 -0.3154
 2147TIP3    H128076   1.414   4.212   1.008 -0.7721  0.3994  0.6338
 2147TIP3    H228077   1.361   4.071   0.992 -0.4940  0.5365 -2.0339
 2148TIP3   OH228078   0.582   6.790   2.665  0.2887  0.4033  0.3261
 2148TIP3    H128079   0.598   6.828   2.579 -0.3874  0.0013  0.0109
 2148TIP3    H228080   0.578   6.696   2.649  1.3367  0.2291  0.9932
 2149TIP3   OH228081   0.040   3.665   6.986  0.2334  0.0939 -0.3860
 2149TIP3    H128082   0.074   3.697   6.902 -0.7486  0.2891 -0.7275
 2149TIP3    H228083   0.024   3.572   6.972 -1.2631  0.4044 -0.8903
 2150TIP3   OH228084   0.085   6.849   1.548 -0.5432 -0.2105 -0.2021
 2150TIP3    H128085   0.007   6.879   1.502 -0.6774  2.3221  1.5151
 2150TIP3    H228086   0.158   6.877   1.492 -0.6828  3.2581  1.1743
 2151TIP3   OH228087   2.916   4.877   6.987 -0.5695 -0.2934  0.0694
 2151TIP3    H128088   2.855   4.834   7.048 -1.5938  0.3860 -0.4360
 2151TIP3    H228089   2.976   4.925   7.044 -0.3948 -1.1058  0.5904
 2152TIP3   OH228090   4.858   4.663   7.998 -0.0519  0.0926 -0.2890
 2152TIP3    H128091   4.811   4.720   8.059  0.7848  0.5595 -0.0768
 2152TIP3    H228092   4.817   4.577   8.010 -0.5410  0.3890  0.2224
 2153TIP3   OH228093   4.843   3.248   7.301 -0.3047  0.3502 -0.0261
 2153TIP3    H128094   4.907   3.313   7.271 -0.2533 -0.1179 -0.9382
 2153TIP3    H228095   4.790   3.228   7.224 -0.8259 -0.1173  0.4399
 2154TIP3   OH228096   6.360   5.407   0.873  0.2949 -0.4596  0.3965
 2154TIP3    H128097   6.349   5.430   0.781  0.1025  1.0847  0.7769
 2154TIP3    H228098   6.369   5.491   0.918  1.0418 -1.2055  1.7130
 2155TIP3   OH228099   3.176   0.059   0.543  0.0338 -0.3784 -0.4058
 2155TIP3    H128100   3.189  -0.030   0.576 -0.3013  0.3268  1.7879
 2155TIP3    H228101   3.142   0.108   0.618  0.9784  1.8009 -1.3110
 2156TIP3   OH228102   6.689   2.572   7.253  0.9353 -0.0203  0.0826
 2156TIP3    H128103   6.684   2.518   7.174  0.7835  0.1528 -0.0266
 2156TIP3    H228104   6.603   2.613   7.260  1.0348  0.1738  0.1886
 2157TIP3   OH228105   5.608   4.951   8.068 -0.2250 -0.1528 -0.2867
 2157TIP3    H128106   5.567   4.922   7.987  0.7092 -3.3522  0.2442
 2157TIP3    H228107   5.538   4.947   8.134 -0.0173 -1.7808 -0.1378
 2158TIP3   OH228108   3.815   5.209   1.175 -0.6735 -0.4398 -0.0608
 2158TIP3    H128109   3.844   5.121   1.199  2.4705  0.2204 -0.8661
 2158TIP3    H228110   3.812   5.208   1.079  1.0643  0.6988 -0.1709
 2159TIP3   OH228111   1.345   0.522   6.475 -0.0068 -0.0603 -0.5145
 2159TIP3    H128112   1.309   0.576   6.545  1.6028 -0.9845  1.1236
 2159TIP3    H228113   1.270   0.498   6.421 -1.1978  1.2390  0.4984
 2160TIP3   OH228114   5.030   0.357   8.249  0.7997  0.2261 -0.4484
 2160TIP3    H128115   4.947   0.354   8.201 -0.7238  0.4180  1.9791
 2160TIP3    H228116   5.088   0.298   8.201 -1.2687 -1.2041 -1.3461
 2161TIP3   OH228117   3.632   0.292   6.515 -0.3685  0.3768 -0.6200
 2161TIP3    H128118   3.573   0.216   6.509 -0.2519  0.2004  0.3216
 2161TIP3    H228119   3.616   0.327   6.602  0.3009  0.8487 -0.6879
 2162TIP3   OH228120   2.833   5.526   7.303  0.2143  0.1513 -0.0295
 2162TIP3    H128121   2.915   5.570   7.280 -1.1572  2.3193 -1.1217
 2162TIP3    H228122   2.837   5.442   7.258  0.9953  1.0782 -1.7909
 2163TIP3   OH228123   6.449   2.624   2.379  0.0043 -0.5481 -0.4445
 2163TIP3    H128124   6.411   2.581   2.456  1.5556 -1.5774 -0.1980
 2163TIP3    H228125   6.457   2.553   2.314  1.6550 -0.4617 -0.3968
 2164TIP3   OH228126   4.856   0.912   1.877  0.1535  0.0875 -0.0314
 2164TIP3    H128127   4.856   0.869   1.962  1.9074  0.4258  0.1764
 2164TIP3    H228128   4.803   0.990   1.890  1.5252  0.8590  1.1647
 2165TIP3   OH228129   4.107   1.999   1.522  0.1558  0.1945 -0.6248
 2165TIP3    H128130   4.160   1.920   1.510 -1.0791 -0.7406 -0.1339
 2165TIP3    H228131   4.057   1.983   1.602 -1.1908  0.8526 -1.3060
 2166TIP3   OH228132   5.249   6.126   7.135 -0.8326 -0.5127  0.1718
 2166TIP3    H128133   5.209   6.207   7.167  0.2866  0.0092  0.2828
 2166TIP3    H228134   5.247   6.133   7.040  0.6348  0.3605  0.1789
 2167TIP3   OH228135   5.036   3.901   0.222  0.4899  0.2882  0.3437
 2167TIP3    H128136   4.950   3.943   0.224 -0.0705 -0.8531  0.9524
 2167TIP3    H228137   5.095   3.968   0.185 -0.5232  1.3006  0.5276
 2168TIP3   OH228138   1.306   4.406   1.238  0.0096 -0.4113 -0.0174
 2168TIP3    H128139   1.227   4.373   1.194 -0.1994  0.8093 -0.5891
 2168TIP3    H228140   1.283   4.404   1.331 -0.6930 -0.0871 -0.1762
 2169TIP3   OH228141   3.465   5.564   7.590  0.2296 -0.1231 -0.0200
 2169TIP3    H128142   3.475   5.612   7.672 -0.0868 -1.0880  0.5994
 2169TIP3    H228143   3.467   5.631   7.522 -0.7009  0.8182  0.8539
 2170TIP3   OH228144   0.073   6.609   6.606  0.2614  0.1418 -0.2947
 2170TIP3    H128145   0.010   6.681   6.603 -0.2495 -0.1770  1.5626
 2170TIP3    H228146   0.027   6.536   6.565 -0.8264 -0.2163  1.4339
 2171TIP3   OH228147   6.619   2.685   6.451  0.5693 -0.1903  0.3346
 2171TIP3    H128148   6.550   2.620   6.466  0.3837  0.1269  0.9167
 2171TIP3    H228149   6.633   2.724   6.538  1.5668 -0.3329  0.2483
 2172TIP3   OH228150   6.351   0.887   2.376 -0.1518  0.1707  0.0407
 2172TIP3    H128151   6.403   0.923   2.448 -0.0251  0.2196 -0.0737
 2172TIP3    H228152   6.352   0.956   2.310 -0.9316  0.4487  0.3049
 2173TIP3   OH228153   0.275   2.801   1.776  0.4132 -0.0459  0.9047
 2173TIP3    H128154   0.349   2.844   1.820  2.2842 -1.7361 -0.3943
 2173TIP3    H228155   0.243   2.738   1.841 -0.2391  1.0054  1.6398
 2174TIP3   OH228156   5.556   4.421   1.243  0.1643 -0.1007 -0.9215
 2174TIP3    H128157   5.593   4.458   1.322  0.6829 -2.8315  0.2325
 2174TIP3    H228158   5.549   4.495   1.182  2.2350  1.5784  0.7290
 2175TIP3   OH228159   0.673   4.147   0.613 -0.3970 -0.4580  0.0127
 2175TIP3    H128160   0.644   4.067   0.657 -2.4679  0.1216 -0.1964
 2175TIP3    H228161   0.665   4.215   0.680  0.5993 -0.2749 -0.0382
 2176TIP3   OH228162   3.091   0.534   1.059 -0.1752  0.2586 -0.3729
 2176TIP3    H128163   3.140   0.565   1.135 -0.7451  0.3811 -0.0498
 2176TIP3    H228164   3.132   0.577   0.984  1.6976 -1.3947 -0.3827
 2177TIP3   OH228165   3.830   5.739   7.674  0.1528 -0.4876 -0.2702
 2177TIP3    H128166   3.793   5.806   7.616  1.5746  1.4555  0.9657
 2177TIP3    H228167   3.800   5.763   7.762  1.0585 -1.2170  0.2575
 2178TIP3   OH228168   4.038   4.717   0.160  0.3901  0.8565  0.3307
 2178TIP3    H128169   4.101   4.647   0.144 -1.2996 -0.3967 -1.4296
 2178TIP3    H228170   3.986   4.686   0.234 -0.7012 -0.0864 -0.7840
 2179TIP3   OH228171   0.314   2.612   0.425 -0.0951 -0.4187  0.4440
 2179TIP3    H128172   0.233   2.560   0.423 -0.5530  0.2900 -1.1289
 2179TIP3    H228173   0.285   2.702   0.415  0.9189 -0.2201 -1.0066
 2180TIP3   OH228174   0.327   5.163   7.296  0.0012 -0.0703  0.1198
 2180TIP3    H128175   0.315   5.084   7.349 -0.4967  0.3689  0.6656
 2180TIP3    H228176   0.314   5.133   7.206 -0.6048 -0.5356  0.3541
 2181TIP3   OH228177   6.594   4.037   7.075 -0.7718  0.4206  0.0571
 2181TIP3    H128178   6.604   3.979   6.999 -0.7933  0.2621  0.1730
 2181TIP3    H228179   6.573   3.977   7.147 -0.0425  0.4873  0.3363
 2182TIP3   OH228180   2.487   3.702   7.688 -0.2604  0.2112 -0.8341
 2182TIP3    H128181   2.467   3.789   7.723 -0.2704  0.2016 -0.8158
 2182TIP3    H228182   2.536   3.659   7.758 -1.8836 -0.4808 -0.0836
 2183TIP3   OH228183   2.501   1.191   1.247 -0.6773  0.0302  0.1839
 2183TIP3    H128184   2.504   1.234   1.332 -3.1267 -1.2792  1.0453
 2183TIP3    H228185   2.520   1.099   1.266 -1.9152 -0.3997 -0.5232
 2184TIP3   OH228186   1.019   1.791   1.878 -0.3399  0.7608  0.1242
 2184TIP3    H128187   1.013   1.777   1.972 -0.4835  0.3289  0.0493
 2184TIP3    H228188   1.004   1.705   1.839 -2.0084  1.2278 -0.3639
 2185TIP3   OH228189   4.178   4.120   7.191  0.0145  0.1055 -0.1439
 2185TIP3    H128190   4.105   4.060   7.203  0.3438  0.1631  2.6589
 2185TIP3    H228191   4.248   4.066   7.155 -0.7986 -0.3521 -1.0786
 2186TIP3   OH228192   2.175   5.373   8.393  0.3328 -0.0383  0.3645
 2186TIP3    H128193   2.242   5.368   8.324  1.9584  0.5699  1.8216
 2186TIP3    H228194   2.125   5.452   8.372  1.8632  1.0778  0.7240
 2187TIP3   OH228195   0.376   3.381   8.069 -0.0115  0.1728  0.3695
 2187TIP3    H128196   0.347   3.444   8.135  1.5918 -0.0147  1.3227
 2187TIP3    H228197   0.363   3.296   8.111  0.3086  0.0126  0.1494
 2188TIP3   OH228198   5.576   4.016   7.055  0.2933 -0.0394  0.4206
 2188TIP3    H128199   5.633   4.085   7.089  0.3454  0.8944 -1.4116
 2188TIP3    H228200   5.518   4.061   6.993 -0.2755 -1.4952 -0.1562
 2189TIP3   OH228201   3.569   0.651   0.445  0.1559 -0.0721  0.1928
 2189TIP3    H128202   3.483   0.687   0.421  0.1362 -0.0259  0.3315
 2189TIP3    H228203   3.556   0.556   0.446  0.8235 -0.2903 -2.6546
 2190TIP3   OH228204   5.450   4.028   2.421 -0.2487 -0.9475 -0.4167
 2190TIP3    H128205   5.374   4.046   2.476 -0.3031  0.8350 -1.0190
 2190TIP3    H228206   5.413   4.020   2.332  0.1929 -0.7127 -0.6241
 2191TIP3   OH228207   2.960   6.024   1.482  0.0428  0.6449 -0.5758
 2191TIP3    H128208   2.924   5.939   1.458  0.5139  0.3628 -0.3155
 2191TIP3    H228209   2.960   6.074   1.400 -2.0636  1.0964 -0.3460
 2192TIP3   OH228210   3.782   6.464   7.493 -0.0717 -0.0185  0.1276
 2192TIP3    H128211   3.771   6.539   7.434 -0.3300  0.8964  1.2810
 2192TIP3    H228212   3.729   6.487   7.570  1.4753 -0.4335  1.3720
 2193TIP3   OH228213   4.932   1.568   0.756  0.5483  0.1918  0.2823
 2193TIP3    H128214   4.893   1.502   0.814  0.9409  0.2034  0.5644
 2193TIP3    H228215   4.947   1.644   0.813 -1.1081  1.0179 -0.3144
 2194TIP3   OH228216   3.901   1.447   0.438 -0.0742  0.1734  0.2384
 2194TIP3    H128217   3.988   1.480   0.416  0.4411 -1.1612  0.1876
 2194TIP3    H228218   3.904   1.433   0.533  0.5917 -1.9962 -0.0268
 2195TIP3   OH228219   0.610   6.231   0.980 -0.0073  0.0761 -0.0970
 2195TIP3    H128220   0.591   6.261   0.891  1.5249 -0.4976 -0.6501
 2195TIP3    H228221   0.705   6.228   0.985 -0.0672 -0.0528  1.5256
 2196TIP3   OH228222   4.395   3.756   1.712 -0.2185 -0.2572  0.3756
 2196TIP3    H128223   4.334   3.752   1.638  0.6212 -0.1135 -0.3374
 2196TIP3    H228224   4.355   3.820   1.772 -1.1870 -0.7877  0.3236
 2197TIP3   OH228225   0.956   6.522   8.496  0.6424  0.5190 -0.2964
 2197TIP3    H128226   0.900   6.550   8.568  1.1502  0.3563  0.1711
 2197TIP3    H228227   1.040   6.564   8.514  0.2801  2.0324 -1.8141
 2198TIP3   OH228228   5.341   6.525   7.103 -0.4442 -0.0062  0.1166
 2198TIP3    H128229   5.332   6.588   7.032 -0.7640 -1.4799 -1.2124
 2198TIP3    H228230   5.289   6.561   7.175 -1.0163  0.9910 -0.7700
 2199TIP3   OH228231   4.742   2.566   8.535  0.6810  0.1489 -0.2134
 2199TIP3    H128232   4.663   2.517   8.512 -0.5939  0.3573  3.1731
 2199TIP3    H228233   4.724   2.655   8.504  0.0248 -0.0308 -0.3672
 2200TIP3   OH228234   1.169   3.527   6.720 -0.1879  0.4499  0.4058
 2200TIP3    H128235   1.201   3.592   6.656 -0.7920  1.6346  1.2821
 2200TIP3    H228236   1.221   3.543   6.798 -1.3564  0.8706  1.1105
 2201TIP3   OH228237   3.425   0.525   7.092  0.6242 -0.3581  0.2209
 2201TIP3    H128238   3.370   0.572   7.155  0.4551 -1.5433  0.9729
 2201TIP3    H228239   3.367   0.459   7.054  0.7124  0.3500 -1.2370
 2202TIP3   OH228240   1.093   3.643   8.464  0.0785  0.2968  0.0631
 2202TIP3    H128241   1.096   3.734   8.495 -0.3320  1.2645 -2.4176
 2202TIP3    H228242   1.183   3.624   8.437  1.0439 -1.4577  3.8984
 2203TIP3   OH228243   1.731   1.055   1.659 -0.3764  0.1122  0.2869
 2203TIP3    H128244   1.805   1.108   1.687 -0.3310  0.7300 -0.9355
 2203TIP3    H228245   1.718   0.992   1.730  0.6962  0.6172  0.9509
 2204TIP3   OH228246   5.202   0.305   1.964 -0.2105  0.2630 -0.0488
 2204TIP3    H128247   5.240   0.307   1.876 -0.2732 -0.9336 -0.1132
 2204TIP3    H228248   5.109   0.287   1.950 -0.6163  1.9533  0.1801
 2205TIP3   OH228249   2.203   3.819   2.775 -0.5606 -0.5108  0.2025
 2205TIP3    H128250   2.282   3.779   2.737 -1.0787 -1.2968 -0.0794
 2205TIP3    H228251   2.192   3.776   2.859  0.9153  1.6494  1.5870
 2206TIP3   OH228252   0.778   3.124   0.153  0.5712  0.0686 -0.3718
 2206TIP3    H128253   0.813   3.213   0.153 -0.4065  0.5253  1.7967
 2206TIP3    H228254   0.855   3.068   0.161  1.1355  0.7698 -0.7855
 2207TIP3   OH228255   4.059   0.831   2.364 -0.2651  0.3247 -0.2511
 2207TIP3    H128256   3.973   0.843   2.403 -0.6855  0.8323 -1.2797
 2207TIP3    H228257   4.112   0.790   2.432 -1.4887 -0.5520  0.2012
 2208TIP3   OH228258   3.675   2.652   0.128 -0.1898 -0.0432 -0.2308
 2208TIP3    H128259   3.661   2.619   0.040 -1.1959 -0.2582 -0.0066
 2208TIP3    H228260   3.767   2.680   0.130 -0.0278 -0.4902 -1.1851
 2209TIP3   OH228261   1.894   3.269   2.111 -0.6762  0.0518  0.0279
 2209TIP3    H128262   1.968   3.290   2.054 -1.3908 -0.4724 -1.1236
 2209TIP3    H228263   1.910   3.179   2.138 -1.1202 -0.2196 -0.5979
 2210TIP3   OH228264   5.915   5.715   1.067 -0.4236  0.8582  0.0454
 2210TIP3    H128265   5.912   5.802   1.028 -0.1507  0.7064 -0.3164
 2210TIP3    H228266   6.003   5.683   1.048 -0.3516  0.7075  0.6288
 2211TIP3   OH228267   4.811   0.593   2.279 -0.0246  0.1913  0.8535
 2211TIP3    H128268   4.788   0.500   2.281 -1.1289  0.4647  1.9555
 2211TIP3    H228269   4.795   0.623   2.368 -0.6104  1.6481  0.2761
 2212TIP3   OH228270   1.670   5.942   1.405  0.2793  0.0565 -0.3951
 2212TIP3    H128271   1.606   5.918   1.473  0.2380  1.9189  0.2869
 2212TIP3    H228272   1.621   5.935   1.323 -0.3350 -0.0648 -0.0263
 2213TIP3   OH228273   0.035   2.965   1.957  0.0177  0.5726  0.0901
 2213TIP3    H128274   0.112   3.017   1.979 -0.4666  1.6884 -0.7530
 2213TIP3    H228275   0.042   2.887   2.012  1.0245  1.2992  1.0348
 2214TIP3   OH228276   5.449   0.756   7.205 -0.3635 -0.3462  0.0836
 2214TIP3    H128277   5.479   0.837   7.245 -1.4095  0.4787 -0.7328
 2214TIP3    H228278   5.434   0.779   7.113 -0.6512 -1.4647 -0.1652
 2215TIP3   OH228279   4.294   6.623   7.249 -0.5225 -0.4684  0.3866
 2215TIP3    H128280   4.219   6.604   7.192  1.0796 -0.5560 -1.8481
 2215TIP3    H228281   4.285   6.716   7.270 -1.2053 -0.4525  0.0541
 2216TIP3   OH228282   5.582   3.409   7.543  0.0882 -0.6434  0.1396
 2216TIP3    H128283   5.549   3.470   7.477  0.1457  0.3914  1.0408
 2216TIP3    H228284   5.627   3.341   7.492  0.4593  0.3192 -0.8705
 2217TIP3   OH228285   3.061   5.458   2.485  0.4655  0.8294 -0.2368
 2217TIP3    H128286   2.974   5.486   2.457  0.5030 -0.0758 -1.3645
 2217TIP3    H228287   3.108   5.540   2.501  0.1843  1.4238 -2.1605
 2218TIP3   OH228288   4.279   2.305   1.536 -0.4222  0.2866  0.2717
 2218TIP3    H128289   4.273   2.305   1.440  0.1116 -1.1928  0.2199
 2218TIP3    H228290   4.286   2.398   1.559 -2.2070  0.7891 -0.9996
 2219TIP3   OH228291   1.623   4.812   1.972 -0.4350  0.4122  0.1785
 2219TIP3    H128292   1.664   4.771   2.048  0.2466 -0.0851 -0.4436
 2219TIP3    H228293   1.672   4.779   1.897 -3.0824 -1.7228 -0.8046
 2220TIP3   OH228294   6.529   2.237   0.943  0.1773  0.4439  0.5706
 2220TIP3    H128295   6.598   2.299   0.919  0.3824 -0.0321 -0.0991
 2220TIP3    H228296   6.558   2.199   1.026  0.0994  1.1587  0.9346
 2221TIP3   OH228297   6.039   0.792   8.552  0.5392  0.2092 -0.0011
 2221TIP3    H128298   6.026   0.886   8.558 -2.3233  0.0179 -1.5896
 2221TIP3    H228299   5.969   0.754   8.605  0.5375 -1.0140 -0.8413
 2222TIP3   OH228300   6.361   4.142   1.013  0.3547  0.6423  0.4402
 2222TIP3    H128301   6.360   4.128   0.919  1.3766  1.8547  0.2184
 2222TIP3    H228302   6.454   4.151   1.035  0.2781 -1.3463  1.8578
 2223TIP3   OH228303   0.797   5.492   2.276 -0.1762  0.1832 -0.3805
 2223TIP3    H128304   0.877   5.449   2.244  0.0213  0.6808 -0.5673
 2223TIP3    H228305   0.782   5.453   2.362 -0.0274 -0.2959 -0.5679
 2224TIP3   OH228306   6.511   0.696   8.094 -0.0519 -0.8261 -0.6011
 2224TIP3    H128307   6.433   0.750   8.087  0.0151 -0.8813 -2.0228
 2224TIP3    H228308   6.555   0.706   8.010  1.6432 -0.5482  0.2740
 2225TIP3   OH228309   4.927   5.276   1.969  0.3249  0.0309 -0.1028
 2225TIP3    H128310   4.909   5.186   1.997  1.0445 -0.3257 -0.7639
 2225TIP3    H228311   5.011   5.270   1.922 -0.1263  0.8672 -1.0399
 2226TIP3   OH228312   0.347   2.001   1.631  0.1278  0.0543  0.4851
 2226TIP3    H128313   0.337   1.936   1.700 -0.1930  0.7011  1.0595
 2226TIP3    H228314   0.391   1.954   1.560 -0.6678 -0.9530  0.6373
 2227TIP3   OH228315   3.051   2.993   0.651  0.1653  0.2618  0.0438
 2227TIP3    H128316   2.987   3.064   0.656  0.0829  0.1670  0.4211
 2227TIP3    H228317   3.006   2.924   0.603  0.0568  0.2754  0.1237
 2228TIP3   OH228318   2.394   4.497   0.862 -0.4177  0.5613 -0.2899
 2228TIP3    H128319   2.473   4.542   0.892 -0.1202  1.1354 -1.8595
 2228TIP3    H228320   2.424   4.437   0.794 -0.9802 -1.2399  0.9511
 2229TIP3   OH228321   4.361   1.738   7.537 -0.0991  0.6519  0.4359
 2229TIP3    H128322   4.409   1.736   7.619 -0.4099 -0.1550  0.6150
 2229TIP3    H228323   4.310   1.657   7.538 -1.3559  1.4148  0.1961
 2230TIP3   OH228324   5.686   3.353   1.536 -0.2238  0.3716  0.0536
 2230TIP3    H128325   5.639   3.428   1.501  1.7735  1.2150 -0.9695
 2230TIP3    H228326   5.727   3.385   1.617  1.2905  0.6753 -0.7978
 2231TIP3   OH228327   2.793   2.027   2.188  0.2697 -0.0837 -0.1107
 2231TIP3    H128328   2.825   2.117   2.191  0.1051 -0.0481  1.3583
 2231TIP3    H228329   2.873   1.973   2.190  0.3530  0.0308  1.5324
 2232TIP3   OH228330   6.328   1.005   1.137 -0.1815 -0.5949 -0.0916
 2232TIP3    H128331   6.282   1.025   1.055  0.9283  1.6036 -0.2535
 2232TIP3    H228332   6.296   1.071   1.199  0.9200 -0.5915  0.4920
 2233TIP3   OH228333   4.168   0.373   0.256  0.3060 -0.4906 -0.3727
 2233TIP3    H128334   4.073   0.366   0.266  0.2996  0.7990  0.8495
 2233TIP3    H228335   4.201   0.290   0.290 -0.3060 -0.0134  1.5349
 2234TIP3   OH228336   2.397   4.146   8.052  0.4395  0.9857 -0.5939
 2234TIP3    H128337   2.308   4.130   8.083  1.5003 -1.8407  1.4100
 2234TIP3    H228338   2.449   4.155   8.132  2.2246  0.8981 -1.6868
 2235TIP3   OH228339   4.094   3.972   7.784  0.2196  0.1972  0.2098
 2235TIP3    H128340   4.186   3.996   7.772  0.4887 -1.0071 -0.2068
 2235TIP3    H228341   4.069   3.930   7.702 -0.5327 -0.0529  0.5538
 2236TIP3   OH228342   2.601   6.839   0.210 -0.2593  0.1578 -0.0500
 2236TIP3    H128343   2.651   6.882   0.141 -0.0185  1.6416  0.9851
 2236TIP3    H228344   2.660   6.773   0.246  0.6927  1.3225  0.6028
 2237TIP3   OH228345   3.717   5.606   0.253 -0.1011 -0.2304 -0.4082
 2237TIP3    H128346   3.645   5.653   0.212  0.7753  0.8931 -0.7031
 2237TIP3    H228347   3.719   5.639   0.343 -0.8003 -1.2776  0.0176
 2238TIP3   OH228348   2.258   0.325   0.618  0.1653  0.6594  0.1901
 2238TIP3    H128349   2.255   0.312   0.712  1.6922  1.6934  0.4135
 2238TIP3    H228350   2.296   0.412   0.606  0.2871  0.4351 -1.3761
 2239TIP3   OH228351   1.797   2.087   8.320  0.3366  0.4557 -0.0829
 2239TIP3    H128352   1.767   2.107   8.408 -0.7170 -0.9582 -0.0950
 2239TIP3    H228353   1.846   2.005   8.329  0.1316  0.2433 -0.8263
 2240TIP3   OH228354   3.852   0.750   0.091 -0.5971 -0.0362 -0.2148
 2240TIP3    H128355   3.817   0.763   0.003 -1.9603  2.0943  0.5603
 2240TIP3    H228356   3.846   0.837   0.132 -0.2613 -1.0265  2.0692
 2241TIP3   OH228357   6.820   4.786   2.259 -0.1643  0.1405 -0.5885
 2241TIP3    H128358   6.792   4.815   2.172 -0.0839  0.4755 -0.5062
 2241TIP3    H228359   6.838   4.867   2.306 -0.4404 -0.0331 -0.1788
 2242TIP3   OH228360   1.316   4.225   0.364  0.4537 -0.3924 -0.0199
 2242TIP3    H128361   1.311   4.132   0.383 -0.7162 -0.0973  1.3077
 2242TIP3    H228362   1.226   4.257   0.376  0.4838  0.6331 -2.0410
 2243TIP3   OH228363   2.669   5.288   8.400  0.1383 -0.0150  0.4687
 2243TIP3    H128364   2.633   5.278   8.311  0.5447  0.2421  0.2716
 2243TIP3    H228365   2.751   5.239   8.398  1.3375  1.9123 -0.0178
 2244TIP3   OH228366   0.466   3.079   1.493  0.2521 -0.3022  0.0726
 2244TIP3    H128367   0.433   3.000   1.535  1.9035 -1.7487 -1.2307
 2244TIP3    H228368   0.546   3.099   1.541 -0.7348  1.3372  1.1556
 2245TIP3   OH228369   0.041   4.920   7.053  0.0255  0.4859 -0.2939
 2245TIP3    H128370  -0.038   4.911   7.107 -1.4589 -0.3942 -2.4348
 2245TIP3    H228371   0.061   4.831   7.024  1.3558  0.8013 -0.4168
 2246TIP3   OH228372   5.593   5.885   0.876  0.0859  0.3394 -0.0626
 2246TIP3    H128373   5.631   5.897   0.963 -1.7391 -0.1070  0.8470
 2246TIP3    H228374   5.614   5.795   0.853  2.8220  1.1789 -1.3093
 2247TIP3   OH228375   4.691   6.416   2.435 -0.4792  0.4039 -0.4407
 2247TIP3    H128376   4.701   6.453   2.523  0.0313  0.6412 -0.5906
 2247TIP3    H228377   4.691   6.322   2.448 -1.5901  0.4346 -0.0703
 2248TIP3   OH228378   2.992   4.023   0.406 -0.8349  0.7414 -0.3337
 2248TIP3    H128379   3.054   4.005   0.477 -1.8909  0.7610  0.6183
 2248TIP3    H228380   3.033   4.093   0.355  1.6413 -1.6640 -1.9361
 2249TIP3   OH228381   6.675   6.496   0.156  0.1845 -0.2122 -0.2332
 2249TIP3    H128382   6.609   6.435   0.187  0.2662 -1.9211 -3.0227
 2249TIP3    H228383   6.758   6.461   0.188 -0.0037  0.3886  0.9684
 2250TIP3   OH228384   5.713   1.699   1.625  0.9175 -0.0088  0.4615
 2250TIP3    H128385   5.800   1.723   1.657  0.6833  3.1545 -0.9279
 2250TIP3    H228386   5.655   1.714   1.700  1.4195 -1.1417  1.0890
 2251TIP3   OH228387   5.270   0.496   8.094  0.3311  0.4696 -0.3118
 2251TIP3    H128388   5.216   0.566   8.130  0.9772  1.4425 -1.1512
 2251TIP3    H228389   5.209   0.442   8.043 -0.1040  0.6467  0.0146
 2252TIP3   OH228390   1.414   1.438   0.704 -0.0668 -0.4327 -0.6011
 2252TIP3    H128391   1.443   1.527   0.725  4.2671 -1.3988 -1.5619
 2252TIP3    H228392   1.349   1.450   0.634 -1.4946  1.9596  0.9768
 2253TIP3   OH228393   5.908   1.575   6.533  0.4871  0.0634 -0.0079
 2253TIP3    H128394   6.003   1.586   6.535  0.7655 -2.0297  0.1268
 2253TIP3    H228395   5.895   1.480   6.536 -1.5912  0.2809 -0.8953
 2254TIP3   OH228396   1.388   1.975   0.184 -0.4408 -0.7413  0.4348
 2254TIP3    H128397   1.442   1.926   0.122  0.4592  0.2637  0.4007
 2254TIP3    H228398   1.338   1.908   0.231 -0.4416 -1.5784 -0.7185
 2255TIP3   OH228399   0.681   1.299   7.880  0.6799  0.3555 -0.0937
 2255TIP3    H128400   0.595   1.321   7.844 -0.4852 -1.9275  1.0425
 2255TIP3    H228401   0.722   1.384   7.898 -2.0783  1.5790  1.0263
 2256TIP3   OH228402   2.034   6.451   6.514 -0.1230 -0.1180 -0.2873
 2256TIP3    H128403   2.119   6.432   6.555  0.1164  0.0402 -0.7126
 2256TIP3    H228404   1.972   6.449   6.587  0.3159  0.2519  0.0985
 2257TIP3   OH228405   2.076   3.185   7.223 -0.2726 -0.4181  0.7428
 2257TIP3    H128406   2.114   3.270   7.245 -0.2991 -0.1178 -0.3138
 2257TIP3    H228407   2.150   3.132   7.193 -0.5176 -0.1384 -0.4098
 2258TIP3   OH228408   4.648   1.212   0.312 -0.4302  0.0851  0.4921
 2258TIP3    H128409   4.588   1.141   0.287 -0.1726 -0.4621  1.4193
 2258TIP3    H228410   4.699   1.228   0.233 -2.5023  1.3266 -0.7126
 2259TIP3   OH228411   6.304   5.422   7.603  0.3763  0.4038 -0.6619
 2259TIP3    H128412   6.264   5.429   7.690  2.7009 -0.9549  0.6098
 2259TIP3    H228413   6.327   5.512   7.580 -0.1729  0.7724  0.1778
 2260TIP3   OH228414   1.146   1.618   0.872 -0.0320 -0.0863 -0.7511
 2260TIP3    H128415   1.102   1.697   0.903 -1.8850 -1.8660  1.5018
 2260TIP3    H228416   1.183   1.643   0.787  0.7799  3.5988  0.4959
 2261TIP3   OH228417   0.352   3.733   6.985 -0.1077 -0.2218  0.4696
 2261TIP3    H128418   0.339   3.826   6.970 -0.3465 -0.2650  0.4044
 2261TIP3    H228419   0.376   3.697   6.899 -1.6670 -0.5022  0.1149
 2262TIP3   OH228420   5.318   6.853   8.428 -0.4789  0.1534 -0.2304
 2262TIP3    H128421   5.256   6.786   8.400  0.0324 -0.9652  1.1705
 2262TIP3    H228422   5.397   6.804   8.451 -0.7452  0.9504  2.7526
 2263TIP3   OH228423   4.932   1.803   7.846  0.0583  0.8841 -0.0417
 2263TIP3    H128424   5.019   1.781   7.877 -0.0767  1.3503  0.6881
 2263TIP3    H228425   4.929   1.898   7.846  0.3018  0.9534 -2.2326
 2264TIP3   OH228426   3.414   1.267   8.397  0.3165  0.0462 -0.0375
 2264TIP3    H128427   3.388   1.291   8.486 -0.4016 -0.0138 -0.2246
 2264TIP3    H228428   3.350   1.201   8.370  0.9008 -0.3966 -0.3758
 2265TIP3   OH228429   6.320   2.477   0.707 -0.0766  0.1769 -0.4506
 2265TIP3    H128430   6.254   2.546   0.702 -1.3315 -0.8975  0.5456
 2265TIP3    H228431   6.315   2.445   0.797  1.4835 -0.2693 -0.4931
 2266TIP3   OH228432   2.751   5.377   1.640  0.6896  0.0558 -0.0208
 2266TIP3    H128433   2.831   5.411   1.679  0.9614  0.6688 -1.0781
 2266TIP3    H228434   2.681   5.432   1.676  0.8713  0.2423  0.0479
 2267TIP3   OH228435   1.424   2.997   7.037  0.2428  0.4549 -0.1447
 2267TIP3    H128436   1.337   3.015   7.001  0.9917  2.4901 -1.1176
 2267TIP3    H228437   1.408   2.974   7.129 -1.3285  0.7240 -0.3283
 2268TIP3   OH228438   2.752   4.361   7.556  0.3730 -0.0548 -0.2477
 2268TIP3    H128439   2.821   4.427   7.553 -1.6505  2.2282  0.3567
 2268TIP3    H228440   2.686   4.397   7.616 -2.4628 -0.9527 -2.5906
 2269TIP3   OH228441   1.196   5.540   6.648 -0.0041  0.4682 -0.0973
 2269TIP3    H128442   1.189   5.603   6.577 -0.1749  0.7476  0.1644
 2269TIP3    H228443   1.126   5.563   6.708 -0.4915 -0.3921 -0.3204
 2270TIP3   OH228444   0.794   1.900   6.959  0.3394 -0.0318  0.2488
 2270TIP3    H128445   0.739   1.823   6.970  2.5233 -1.5079  1.7704
 2270TIP3    H228446   0.768   1.959   7.029 -0.7168  0.2447 -0.3596
 2271TIP3   OH228447   4.686   3.598   7.887 -0.1959  0.1232  0.2310
 2271TIP3    H128448   4.661   3.522   7.834 -0.9110  1.3539 -1.2574
 2271TIP3    H228449   4.778   3.613   7.867 -0.1139 -0.2015  0.3556
 2272TIP3   OH228450   4.504   1.404   2.454  0.2747  0.2771 -0.3864
 2272TIP3    H128451   4.422   1.362   2.430 -1.0601  2.0524  0.7919
 2272TIP3    H228452   4.547   1.342   2.514  0.8148 -1.5399 -2.5413
 2273TIP3   OH228453   0.084   3.077   1.264 -0.1269 -0.1068 -1.0800
 2273TIP3    H128454   0.124   3.164   1.270  0.3255 -0.4084  1.5191
 2273TIP3    H228455   0.157   3.017   1.276 -0.6570 -0.8229 -1.3945
 2274TIP3   OH228456   1.639   1.640   7.051  0.5926 -0.2086 -0.0127
 2274TIP3    H128457   1.595   1.724   7.037  0.0338 -0.4973 -0.0140
 2274TIP3    H228458   1.731   1.658   7.030  0.3224  0.1695 -0.9278
 2275TIP3   OH228459   6.436   0.066   7.741 -0.3055 -0.5792 -0.2277
 2275TIP3    H128460   6.357   0.119   7.727 -0.9672 -0.4817  3.1471
 2275TIP3    H228461   6.404  -0.019   7.770  0.6739  0.0001  2.9728
 2276TIP3   OH228462   5.348   1.219   0.224 -0.6870 -0.7344  0.7809
 2276TIP3    H128463   5.282   1.263   0.170 -0.6268  1.0230  2.0834
 2276TIP3    H228464   5.345   1.264   0.308  2.7304 -0.0610  0.6620
 2277TIP3   OH228465   6.880   1.441   7.808  0.2621 -0.3693  0.4776
 2277TIP3    H128466   6.815   1.506   7.782 -0.8096 -1.0580  1.4021
 2277TIP3    H228467   6.939   1.489   7.867 -0.9414 -0.3990  1.7342
 2278TIP3   OH228468   6.600   1.554   8.135 -0.1589 -0.0549 -0.0215
 2278TIP3    H128469   6.539   1.546   8.062  0.0068 -3.0479  0.0430
 2278TIP3    H228470   6.551   1.600   8.203 -1.2204  0.3944 -1.0694
 2279TIP3   OH228471   0.727   1.737   7.697 -0.0563  0.0491 -0.5923
 2279TIP3    H128472   0.718   1.691   7.780  0.0515  0.5774 -0.2815
 2279TIP3    H228473   0.733   1.830   7.721 -1.4915  0.3568 -1.2740
 2280TIP3   OH228474   5.289   0.180   6.580  0.1389  0.4832  0.3742
 2280TIP3    H128475   5.376   0.195   6.615  0.9155  0.2060 -1.3601
 2280TIP3    H228476   5.266   0.262   6.535  1.6157 -0.9322 -3.3562
 2281TIP3   OH228477   1.114   6.537   2.036 -0.5113 -0.1463  0.3777
 2281TIP3    H128478   1.066   6.497   2.109 -0.4743  1.3069  1.2441
 2281TIP3    H228479   1.058   6.522   1.959 -1.4801 -0.0833  1.0512
 2282TIP3   OH228480   1.043   2.845   0.449  0.2681 -0.1587 -0.1083
 2282TIP3    H128481   0.955   2.816   0.476  0.3241 -0.2949 -0.0688
 2282TIP3    H228482   1.043   2.939   0.464  1.0517 -0.5036  2.5141
 2283TIP3   OH228483   4.772   6.296   0.943  0.0540  0.1241  0.2186
 2283TIP3    H128484   4.699   6.328   0.997 -0.1459  0.5837 -0.3147
 2283TIP3    H228485   4.762   6.200   0.944 -1.0562  0.2009 -0.5015
 2284TIP3   OH228486   5.772   5.667   1.645 -1.2197  0.0339  0.3683
 2284TIP3    H128487   5.750   5.760   1.633 -0.5690 -0.0320 -1.7059
 2284TIP3    H228488   5.857   5.656   1.603 -1.8026 -1.7280 -0.4509
 2285TIP3   OH228489   2.243   5.468   0.871 -0.2854  0.1866  0.0865
 2285TIP3    H128490   2.197   5.551   0.882  0.7404  0.8387 -0.3341
 2285TIP3    H228491   2.336   5.492   0.871  0.0883 -1.1289  1.3187
 2286TIP3   OH228492   3.088   0.361   2.513  0.1253  0.2349  0.2998
 2286TIP3    H128493   3.110   0.272   2.542 -1.0412 -0.3591 -0.5536
 2286TIP3    H228494   3.169   0.394   2.476  1.0578  0.2045  2.1889
 2287TIP3   OH228495   6.403   1.350   7.697  0.2644  0.0624  0.4231
 2287TIP3    H128496   6.368   1.292   7.764 -0.2447 -0.0843  0.0414
 2287TIP3    H228497   6.326   1.397   7.665 -0.0009 -1.8002 -1.9447
 2288TIP3   OH228498   1.727   1.393   7.416  0.0202 -0.3544 -0.1690
 2288TIP3    H128499   1.728   1.487   7.437  2.3373 -0.2738 -0.3880
 2288TIP3    H228500   1.635   1.374   7.398 -0.5234  1.8556 -0.0813
 2289TIP3   OH228501   4.209   0.028   8.001 -0.1935 -0.1234  0.0959
 2289TIP3    H128502   4.139   0.084   8.035 -0.9130 -1.4391  0.8959
 2289TIP3    H228503   4.172  -0.061   8.005  0.7519 -0.6270 -1.5194
 2290TIP3   OH228504   6.417   2.842   1.649 -0.5497 -0.2497  0.0594
 2290TIP3    H128505   6.403   2.751   1.624 -1.4577  0.0431 -0.5309
 2290TIP3    H228506   6.440   2.886   1.568  1.9875 -0.3085  0.6534
 2291TIP3   OH228507   0.195   5.692   7.906  0.1283 -0.5319  0.8173
 2291TIP3    H128508   0.230   5.745   7.977  1.8437  0.3595 -0.6166
 2291TIP3    H228509   0.244   5.610   7.912  0.2490 -0.4692  0.6729
 2292TIP3   OH228510   6.294   1.558   0.882  0.5631 -0.0953  0.2696
 2292TIP3    H128511   6.310   1.640   0.835  2.3550  0.0660  1.0639
 2292TIP3    H228512   6.239   1.583   0.956 -0.2507  0.0864 -0.3949
 2293TIP3   OH228513   1.899   3.828   0.229 -0.0795  0.3342  0.2462
 2293TIP3    H128514   1.940   3.902   0.183  1.4107 -0.4930  0.2021
 2293TIP3    H228515   1.972   3.780   0.268 -1.2181  0.5476  2.8450
 2294TIP3   OH228516   6.151   5.751   0.768  0.0676 -0.0010  0.0765
 2294TIP3    H128517   6.069   5.707   0.746  0.5154 -0.3389 -0.9922
 2294TIP3    H228518   6.182   5.788   0.685  1.2707 -0.3665  0.3383
 2295TIP3   OH228519   6.295   1.701   7.687  0.0269  0.2542 -0.3241
 2295TIP3    H128520   6.208   1.742   7.690  0.0767  0.3462  2.0575
 2295TIP3    H228521   6.353   1.770   7.658 -0.2220  1.3351  1.5369
 2296TIP3   OH228522   0.797   1.051   7.929 -0.1438 -0.4380  0.2643
 2296TIP3    H128523   0.744   0.992   7.876 -0.2524  0.2507 -0.4163
 2296TIP3    H228524   0.758   1.137   7.914  0.2766 -0.1301  0.9030
 2297TIP3   OH228525   1.719   1.120   1.233  0.4581  0.3406  0.5430
 2297TIP3    H128526   1.764   1.115   1.149  1.8709 -0.8742  1.3080
 2297TIP3    H228527   1.632   1.084   1.217  1.2910 -1.4934 -0.0599
 2298TIP3   OH228528   0.392   3.164   7.689 -0.3798  0.5335  0.4419
 2298TIP3    H128529   0.348   3.247   7.706 -0.2238  0.4531  1.3138
 2298TIP3    H228530   0.348   3.101   7.747 -1.2712 -0.2643 -1.0407
 2299TIP3   OH228531   6.209   2.105   0.585 -0.4609 -0.2880 -0.2706
 2299TIP3    H128532   6.141   2.048   0.619  0.9415 -1.5262  0.5783
 2299TIP3    H228533   6.166   2.190   0.574 -2.0031 -0.9087  0.6638
 2300TIP3   OH228534   2.050   2.957   1.705 -0.0778  0.5051 -0.2596
 2300TIP3    H128535   2.002   3.033   1.738  0.1681  0.9025 -0.7954
 2300TIP3    H228536   2.101   2.991   1.631  2.3728  0.4913  1.2995
 2301TIP3   OH228537   2.884   3.102   1.280 -0.2317 -0.8062 -0.2442
 2301TIP3    H128538   2.805   3.097   1.226 -0.3314 -2.0738  0.0069
 2301TIP3    H228539   2.926   3.017   1.270  0.2228 -0.7443  0.9786
 2302TIP3   OH228540   4.247   2.258   7.361 -0.1430 -0.1355  0.1146
 2302TIP3    H128541   4.279   2.170   7.382  2.5002  1.0717  1.6336
 2302TIP3    H228542   4.182   2.244   7.293  1.6565 -3.1233 -1.1987
 2303TIP3   OH228543   2.826   5.017   7.763 -0.4959  0.3479  0.1158
 2303TIP3    H128544   2.778   4.975   7.692  1.0337 -3.1098  0.9021
 2303TIP3    H228545   2.770   5.005   7.840  0.5144 -1.7258  0.6088
 2304TIP3   OH228546   0.982   1.140   1.584 -0.6642  0.3808  0.5299
 2304TIP3    H128547   1.005   1.123   1.492  1.2180 -0.7739  1.1654
 2304TIP3    H228548   1.047   1.204   1.613 -0.4369 -0.2579  1.4280
 2305TIP3   OH228549   6.673   2.715   0.362 -0.0602 -0.1228 -0.0193
 2305TIP3    H128550   6.609   2.657   0.403 -2.5181  0.1821 -3.0181
 2305TIP3    H228551   6.655   2.801   0.400 -2.4805  0.2101 -1.7095
 2306TIP3   OH228552   0.242   6.304   0.948 -0.0514  0.3903 -0.4057
 2306TIP3    H128553   0.303   6.290   0.876  0.4822 -0.2384  0.1509
 2306TIP3    H228554   0.282   6.372   1.001 -1.0608  1.7776 -1.3563
 2307TIP3   OH228555   4.641   5.906   0.906  0.1240 -0.0726  0.6702
 2307TIP3    H128556   4.576   5.850   0.949  0.0186  1.8935  3.3488
 2307TIP3    H228557   4.593   5.985   0.882  0.4549 -0.6393 -2.2482
 2308TIP3   OH228558   4.094   0.778   1.302 -0.1065  0.3178  0.4876
 2308TIP3    H128559   4.090   0.860   1.351 -0.1091 -0.2961  1.5320
 2308TIP3    H228560   4.008   0.738   1.314 -0.0952  0.1468  0.0087
 2309TIP3   OH228561   1.860   3.553   0.305 -0.1172  0.5191 -0.3852
 2309TIP3    H128562   1.847   3.642   0.340  1.0780  0.7357 -0.4378
 2309TIP3    H228563   1.797   3.546   0.233 -0.3220  1.2756 -0.2924
 2310TIP3   OH228564   0.166   4.769   7.906 -0.0029  0.0425 -0.1090
 2310TIP3    H128565   0.251   4.732   7.879 -0.3953 -1.0228  0.0497
 2310TIP3    H228566   0.136   4.818   7.829  0.1761 -0.6466 -0.6318
 2311TIP3   OH228567   0.907   0.690   0.942 -0.3446  0.4573  0.2785
 2311TIP3    H128568   0.949   0.665   1.024 -0.5102 -0.1779  0.1745
 2311TIP3    H228569   0.917   0.613   0.885 -2.3593 -0.0373  0.5284
 2312TIP3   OH228570   0.677   1.589   7.914  0.1035  0.2044 -0.4882
 2312TIP3    H128571   0.725   1.576   7.996 -2.5991 -2.1705  0.9002
 2312TIP3    H228572   0.585   1.594   7.941 -0.6896  3.1346 -3.1219
 2313TIP3   OH228573   4.668   4.685   1.271  0.1158  0.6722  0.5447
 2313TIP3    H128574   4.721   4.606   1.268 -1.5149 -0.4571 -0.2882
 2313TIP3    H228575   4.714   4.743   1.331  1.5617 -0.7578  0.8767
 2314TIP3   OH228576   1.261   2.916   7.561  0.8840 -0.6918  0.3873
 2314TIP3    H128577   1.255   2.983   7.628 -0.3898 -0.6043  0.1926
 2314TIP3    H228578   1.202   2.846   7.591 -1.2591  0.1844 -1.5731
 2315TIP3   OH228579   6.640   3.950   0.861  0.2712  0.7586  0.3542
 2315TIP3    H128580   6.732   3.977   0.868  0.1914  0.8756  0.9528
 2315TIP3    H228581   6.618   3.917   0.948  0.0180 -0.1355 -0.0446
 2316TIP3   OH228582   3.462   5.322   0.764 -0.0502 -0.5208  0.5579
 2316TIP3    H128583   3.511   5.241   0.747 -0.5732 -1.0289  1.3868
 2316TIP3    H228584   3.371   5.299   0.748 -0.0872  0.2957 -0.5269
 2317TIP3   OH228585   5.114   1.128   7.135  0.0972 -0.4616 -0.8536
 2317TIP3    H128586   5.188   1.126   7.074 -0.4077 -0.0500 -1.4903
 2317TIP3    H228587   5.083   1.219   7.133  0.7153 -0.1827  0.8170
 2318TIP3   OH228588   1.507   4.746   6.793 -0.3905 -0.4810 -0.1857
 2318TIP3    H128589   1.599   4.722   6.808 -1.4004 -2.8973  3.6709
 2318TIP3    H228590   1.488   4.717   6.704  2.2437 -1.1349 -0.6079
 2319TIP3   OH228591   2.468   0.488   1.449 -0.3233  0.7245  0.3982
 2319TIP3    H128592   2.511   0.473   1.364  1.1010 -2.0071  1.4619
 2319TIP3    H228593   2.385   0.529   1.427  0.8793  2.0247 -2.1327
 2320TIP3   OH228594   0.389   0.386   1.501  0.3559 -0.1852  0.0273
 2320TIP3    H128595   0.473   0.420   1.470  1.2310 -1.4645  0.9298
 2320TIP3    H228596   0.330   0.395   1.426  1.5568 -0.1901 -0.9345
 2321TIP3   OH228597   2.595   5.920   7.021 -0.2124 -0.4295  0.4504
 2321TIP3    H128598   2.613   5.841   6.969  0.2748  0.0429 -0.1094
 2321TIP3    H228599   2.641   5.904   7.104 -0.2171 -0.7894  0.3877
 2322TIP3   OH228600   4.934   0.236   0.326 -0.1907 -0.1774 -0.3788
 2322TIP3    H128601   4.916   0.264   0.236  0.2483  0.1021 -0.3854
 2322TIP3    H228602   4.871   0.285   0.379 -0.3955 -0.2792 -0.5253
 2323TIP3   OH228603   2.163   4.465   0.647  0.0358  0.4446  0.4849
 2323TIP3    H128604   2.154   4.513   0.565 -2.3345 -0.2297  0.2857
 2323TIP3    H228605   2.195   4.530   0.710  1.8628  0.9746 -0.9043
 2324TIP3   OH228606   2.618   1.477   1.216 -0.3029  0.0862  0.0846
 2324TIP3    H128607   2.566   1.471   1.297  1.3894  1.9393  1.4083
 2324TIP3    H228608   2.591   1.560   1.177 -0.5011 -0.4028 -0.8356
 2325TIP3   OH228609   3.620   2.602   1.069  0.9162  0.2715 -0.5129
 2325TIP3    H128610   3.613   2.695   1.091 -0.8612 -0.0359  0.4674
 2325TIP3    H228611   3.672   2.564   1.140  0.2049  0.2607  0.0164
 2326TIP3   OH228612   1.707   6.616   0.850  0.6121  0.1272 -0.0237
 2326TIP3    H128613   1.634   6.583   0.904  0.3315 -0.7206 -0.8994
 2326TIP3    H228614   1.778   6.554   0.865  0.3176 -0.5034 -1.1166
 2327TIP3   OH228615   1.887   6.813   6.159  0.4162  0.0576  0.1812
 2327TIP3    H128616   1.841   6.790   6.078  2.0927 -0.4867 -0.6624
 2327TIP3    H228617   1.877   6.736   6.215 -0.6923  0.4105  0.5083
 2328TIP3   OH228618   6.012   6.449   6.959  0.1953 -0.0377  0.7286
 2328TIP3    H128619   5.977   6.472   6.873 -0.8569 -1.3730  0.7819
 2328TIP3    H228620   6.107   6.443   6.945  0.2572  1.7362  0.1494
 2329TIP3   OH228621   6.835   4.249   0.660  0.7412  0.0020  0.1187
 2329TIP3    H128622   6.925   4.263   0.629  1.0056 -0.9564  0.4191
 2329TIP3    H228623   6.819   4.156   0.644 -0.4941  0.3363 -0.6646
 2330TIP3   OH228624   5.008   5.278   7.576  0.2410  0.4512  0.2241
 2330TIP3    H128625   4.938   5.219   7.546 -0.8396  1.7042  0.1884
 2330TIP3    H228626   5.051   5.230   7.646  0.0300 -0.7804 -0.4556
 2331TIP3   OH228627   4.027   2.383   0.060  0.0295  0.4244  0.5020
 2331TIP3    H128628   4.099   2.321   0.074  0.6247  0.5267 -1.7963
 2331TIP3    H228629   3.958   2.352   0.118  0.7666 -1.6515  0.3492
 2332TIP3   OH228630   5.928   3.817   1.253 -0.0934 -0.1575  0.0294
 2332TIP3    H128631   5.895   3.776   1.173  0.0562  0.0065 -0.1163
 2332TIP3    H228632   5.908   3.910   1.242  4.5385  0.8715 -2.2344
 2333TIP3   OH228633   1.113   2.717   1.614 -0.5932  0.8953 -0.5083
 2333TIP3    H128634   1.189   2.673   1.653  0.8317  1.4015 -2.5809
 2333TIP3    H228635   1.111   2.803   1.656  0.4782  1.1658 -0.9846
 2334TIP3   OH228636   3.824   1.265   1.961 -0.7383  0.4028 -0.3095
 2334TIP3    H128637   3.800   1.208   1.887 -0.0555  0.3509 -0.4956
 2334TIP3    H228638   3.868   1.339   1.921 -0.6515  0.5343  0.0266
 2335TIP3   OH228639   2.588   6.454   0.876 -0.4808 -0.4736 -0.1997
 2335TIP3    H128640   2.554   6.375   0.917 -0.4062 -0.2279  0.3494
 2335TIP3    H228641   2.632   6.501   0.947 -2.3523  1.1097 -0.0182
 2336TIP3   OH228642   4.554   5.501   8.504  0.4451 -0.3659 -0.7092
 2336TIP3    H128643   4.628   5.561   8.517  0.4113 -0.3530 -0.5734
 2336TIP3    H228644   4.567   5.466   8.416 -0.2004  0.7765 -1.2779
 2337TIP3   OH228645   0.854   0.755   0.191  0.0652 -0.4784 -0.0588
 2337TIP3    H128646   0.820   0.802   0.115 -0.0807  0.5277  0.6077
 2337TIP3    H228647   0.937   0.718   0.162 -1.0633 -2.0989 -1.4056
 2338TIP3   OH228648   5.679   3.103   6.882  0.7590 -0.2623  0.2874
 2338TIP3    H128649   5.620   3.029   6.868  0.7171 -0.4709  1.4997
 2338TIP3    H228650   5.723   3.114   6.798 -1.9571  0.7828 -1.1187
 2339TIP3   OH228651   0.439   6.610   0.814  0.1374 -0.3139 -0.0978
 2339TIP3    H128652   0.407   6.587   0.901  0.5479  1.1780  0.4796
 2339TIP3    H228653   0.364   6.650   0.771  0.0632 -0.6363 -0.2703
 2340TIP3   OH228654   4.294   1.903   0.493 -0.4948  0.5614  0.4023
 2340TIP3    H128655   4.348   1.825   0.483  1.2450  1.5940  1.2715
 2340TIP3    H228656   4.213   1.883   0.446  1.9471  0.2863 -4.2644
 2341TIP3   OH228657   3.666   5.697   7.312 -1.1829 -0.6092  0.2469
 2341TIP3    H128658   3.697   5.785   7.334 -2.1450 -0.2774  0.3236
 2341TIP3    H228659   3.743   5.641   7.320 -0.3820  0.3503 -0.5391
 2342TIP3   OH228660   4.807   5.712   1.714 -0.3484 -0.2710 -0.6099
 2342TIP3    H128661   4.786   5.618   1.714  0.8547 -0.5526  0.0211
 2342TIP3    H228662   4.897   5.716   1.682 -0.2245  0.6346 -0.1551
 2343TIP3   OH228663   4.669   2.956   2.233  0.5249  0.1894 -0.8127
 2343TIP3    H128664   4.578   2.952   2.203  0.1236  0.9212  0.2218
 2343TIP3    H228665   4.679   2.881   2.291  0.4671  0.3031 -0.6538
 2344TIP3   OH228666   5.935   6.581   7.377  0.1097 -0.0680  0.4114
 2344TIP3    H128667   5.911   6.491   7.398 -0.5436  0.4777  2.1152
 2344TIP3    H228668   5.916   6.631   7.456 -1.4793  1.9559 -1.1334
 2345TIP3   OH228669   6.322   6.603   1.653  0.4766 -0.2050  0.1239
 2345TIP3    H128670   6.278   6.688   1.651  0.9109  0.0242  0.1637
 2345TIP3    H228671   6.374   6.605   1.733 -0.4912 -1.0146  0.7902
 2346TIP3   OH228672   2.446   5.528   1.456 -0.3775 -0.0530  0.2563
 2346TIP3    H128673   2.516   5.594   1.451  0.0380 -0.5304 -0.3330
 2346TIP3    H228674   2.454   5.492   1.544  0.4722 -0.4738  0.0196
 2347TIP3   OH228675   3.733   2.516   2.096 -0.3264  0.1534  0.1299
 2347TIP3    H128676   3.758   2.605   2.071  0.7627 -0.0006  0.6371
 2347TIP3    H228677   3.672   2.528   2.169  2.4078  0.4834  2.5292
 2348TIP3   OH228678   1.236   4.948   7.500 -0.0329  0.1031  0.2615
 2348TIP3    H128679   1.220   5.004   7.576 -0.5744  1.2311 -0.6495
 2348TIP3    H228680   1.332   4.939   7.497  0.0054  0.2223  0.9399
 2349TIP3   OH228681   3.707   4.889   8.357  0.1894 -0.0922 -0.4614
 2349TIP3    H128682   3.707   4.805   8.311  0.1701 -0.8200  0.8241
 2349TIP3    H228683   3.771   4.877   8.427 -1.9631 -0.0933  1.6046
 2350TIP3   OH228684   4.095   0.912   8.011  0.2990 -0.2167 -0.1542
 2350TIP3    H128685   4.011   0.890   8.051  0.1772  2.0498  1.0463
 2350TIP3    H228686   4.159   0.858   8.058 -0.0390  1.2337  2.1291
 2351TIP3   OH228687   2.285   4.300   0.174 -0.3707 -0.6608 -0.0794
 2351TIP3    H128688   2.237   4.233   0.222 -0.6599 -1.1741 -1.0561
 2351TIP3    H228689   2.228   4.322   0.100  0.0950  0.0519 -0.2365
 2352TIP3   OH228690   4.583   6.574   8.300 -0.0187  0.2880 -0.4971
 2352TIP3    H128691   4.490   6.579   8.279  0.3714 -0.7565 -2.8238
 2352TIP3    H228692   4.618   6.659   8.276 -0.3531  0.6910  0.4051
 2353TIP3   OH228693   4.640   5.257   7.111 -0.0544  0.0019  0.4014
 2353TIP3    H128694   4.706   5.313   7.070 -1.7320  1.5808 -0.3285
 2353TIP3    H228695   4.611   5.198   7.042  1.2681 -1.4072  1.0018
 2354TIP3   OH228696   0.755   6.808   7.263  0.0043 -0.7086  0.2292
 2354TIP3    H128697   0.659   6.816   7.261  0.1632  3.4694 -0.4655
 2354TIP3    H228698   0.781   6.861   7.339  1.7933  0.2802 -0.9901
 2355TIP3   OH228699   3.017   6.900   0.847  0.6682 -0.2054 -0.0946
 2355TIP3    H128700   2.979   6.813   0.862 -1.9362  0.9821  0.8753
 2355TIP3    H228701   3.007   6.914   0.752  0.0667 -0.5412 -0.0851
 2356TIP3   OH228702   0.140   4.325   6.687  0.3133 -0.5367 -0.2571
 2356TIP3    H128703   0.219   4.339   6.740  0.8266  0.8448 -1.3108
 2356TIP3    H228704   0.077   4.388   6.722  0.1654 -0.6302 -0.3547
 2357TIP3   OH228705   4.738   3.745   0.226  0.5574  0.4890 -0.2048
 2357TIP3    H128706   4.725   3.688   0.302  2.4899 -1.1686 -1.0253
 2357TIP3    H228707   4.762   3.830   0.262  0.0714  0.1241  1.0247
 2358TIP3   OH228708   6.178   4.110   0.102  0.3276 -0.2569  0.1146
 2358TIP3    H128709   6.267   4.092   0.135 -0.0166 -1.2870  0.5178
 2358TIP3    H228710   6.185   4.101   0.007  0.6227 -0.5000  0.1581
 2359TIP3   OH228711   5.446   0.778   0.049  0.1134  0.4981  0.3762
 2359TIP3    H128712   5.458   0.762   0.142 -1.6672 -0.1997  0.5049
 2359TIP3    H228713   5.452   0.692   0.008  0.7540  0.7830 -0.1636
 2360TIP3   OH228714   1.870   6.158   1.679 -0.4034  0.2875 -0.6733
 2360TIP3    H128715   1.935   6.172   1.748  0.8079 -1.0437 -1.4749
 2360TIP3    H228716   1.795   6.119   1.724  0.8548 -1.7763 -0.2305
 2361TIP3   OH228717   1.845   2.243   7.817  0.2874  0.1287  0.2165
 2361TIP3    H128718   1.801   2.195   7.887 -1.8002  0.4960 -0.7478
 2361TIP3    H228719   1.795   2.325   7.809  1.1703  0.5863 -0.9400
 2362TIP3   OH228720   2.051   1.516   7.321 -0.3561  0.6403  0.1084
 2362TIP3    H128721   2.124   1.557   7.276 -1.1979  0.1010 -1.8302
 2362TIP3    H228722   1.974   1.561   7.288 -0.9760  0.9833  1.8812
 2363TIP3   OH228723   0.528   5.615   2.068  0.4540 -0.0177  0.7416
 2363TIP3    H128724   0.527   5.560   1.990  1.8755  1.4580 -0.3859
 2363TIP3    H228725   0.440   5.606   2.105 -0.2036 -0.8863 -0.9253
 2364TIP3   OH228726   5.015   6.895   1.182  0.3265 -0.3373  0.4951
 2364TIP3    H128727   4.996   6.885   1.275  0.6474  1.5085  0.8043
 2364TIP3    H228728   5.066   6.818   1.158 -1.8920 -2.1244  1.2127
 2365TIP3   OH228729   5.168   2.768   7.633  0.0337  0.2703 -0.4043
 2365TIP3    H128730   5.121   2.686   7.619  0.0188 -0.1836  1.9682
 2365TIP3    H228731   5.237   2.767   7.566 -0.5777 -1.1803 -1.0600
 2366TIP3   OH228732   6.407   0.137   8.179 -0.8296 -0.6430  0.2239
 2366TIP3    H128733   6.354   0.180   8.112 -0.8190 -0.3598  0.3962
 2366TIP3    H228734   6.419   0.048   8.146  0.3762 -0.1171 -0.8614
 2367TIP3   OH228735   1.548   3.105   7.438  0.0849  0.0475 -0.2155
 2367TIP3    H128736   1.602   3.182   7.425 -0.8772  1.0383  1.3287
 2367TIP3    H228737   1.541   3.096   7.533  1.8555 -3.1943 -0.2721
 2368TIP3   OH228738   2.822   3.464   0.275  0.6075 -0.7262 -0.1641
 2368TIP3    H128739   2.874   3.542   0.295  0.0981 -0.5008  0.2902
 2368TIP3    H228740   2.883   3.391   0.290  1.8523 -0.3756 -2.8871
 2369TIP3   OH228741   6.171   0.857   1.505  0.4560 -0.3817 -0.0893
 2369TIP3    H128742   6.237   0.926   1.500 -1.4737  1.4746 -2.0789
 2369TIP3    H228743   6.182   0.807   1.424  0.0240 -0.6756  0.0300
 2370TIP3   OH228744   2.283   2.071   7.882 -0.0203  0.0411  0.6717
 2370TIP3    H128745   2.348   2.084   7.813  1.6120  2.2691  2.4824
 2370TIP3    H228746   2.199   2.068   7.835  1.1724 -0.8486 -1.5654
 2371TIP3   OH228747   0.193   0.605   6.401 -0.0596 -0.5362  0.3432
 2371TIP3    H128748   0.238   0.689   6.403  0.0345 -0.5614 -0.3952
 2371TIP3    H228749   0.260   0.541   6.422  0.1908 -0.5451 -0.4476
 2372TIP3   OH228750   5.813   6.898   0.882 -0.3886 -0.0380 -0.2323
 2372TIP3    H128751   5.894   6.891   0.830  0.1771 -1.6547  0.7641
 2372TIP3    H228752   5.783   6.987   0.868  2.5657  1.2447  0.7908
 2373TIP3   OH228753   3.501   2.757   1.737 -0.0189  0.5797 -0.2945
 2373TIP3    H128754   3.447   2.836   1.743 -0.3170  0.3419  0.2154
 2373TIP3    H228755   3.452   2.691   1.787  1.3510  0.7102  1.3076
 2374TIP3   OH228756   0.070   0.731   8.072 -0.7952  0.1729  0.4500
 2374TIP3    H128757   0.027   0.759   7.991 -0.4767  0.5517  0.4106
 2374TIP3    H228758   0.013   0.662   8.107 -1.1188  0.2554  0.0890
 2375TIP3   OH228759   2.138   3.248   8.197  0.0325 -0.0223 -0.5083
 2375TIP3    H128760   2.229   3.274   8.181  0.2073 -0.9908 -1.1739
 2375TIP3    H228761   2.091   3.331   8.207  0.8869  0.5034 -0.7120
 2376TIP3   OH228762   3.373   3.128   2.174 -0.2399 -0.0011  0.3349
 2376TIP3    H128763   3.355   3.100   2.085 -0.9322 -0.1089  0.5075
 2376TIP3    H228764   3.290   3.164   2.206  0.4727  1.8194  0.2874
 2377TIP3   OH228765   6.781   6.403   7.774  0.1361 -0.5563  0.5206
 2377TIP3    H128766   6.772   6.339   7.703 -0.2058  0.1183 -0.0623
 2377TIP3    H228767   6.794   6.350   7.853 -1.8610 -1.4038  0.3303
 2378TIP3   OH228768   1.537   2.643   7.131  0.3424 -0.1377  0.4097
 2378TIP3    H128769   1.628   2.614   7.128  0.2776 -0.5450  1.6741
 2378TIP3    H228770   1.539   2.723   7.185  0.2234  1.0634 -1.2996
 2379TIP3   OH228771   4.095   3.952   0.205  0.3019 -0.5441  0.2066
 2379TIP3    H128772   4.049   3.926   0.285  0.4408  1.2170  0.8932
 2379TIP3    H228773   4.042   4.023   0.169  1.8496  0.7665  0.4122
 2380TIP3   OH228774   6.375   1.651   2.488 -0.2281  0.1905 -0.2042
 2380TIP3    H128775   6.313   1.598   2.538 -0.1315  1.5601  1.4600
 2380TIP3    H228776   6.369   1.617   2.399  0.1275 -2.8477  0.8220
 2381TIP3   OH228777   4.196   2.034   8.385  0.4571  0.7903 -0.8993
 2381TIP3    H128778   4.246   2.043   8.303  0.2754 -0.0804 -1.1226
 2381TIP3    H228779   4.261   2.004   8.449  0.2859 -0.1088 -1.1308
 2382TIP3   OH228780   3.047   2.419   6.844  0.0774  1.0271  0.0476
 2382TIP3    H128781   3.115   2.469   6.888  0.3368 -0.6726  1.7274
 2382TIP3    H228782   3.006   2.367   6.914 -1.0926 -0.0482 -1.3624
 2383TIP3   OH228783   3.169   2.754   0.782  0.0844 -0.6867 -0.4282
 2383TIP3    H128784   3.125   2.839   0.783  0.0297 -0.7170 -0.0627
 2383TIP3    H228785   3.222   2.753   0.861 -0.0837 -1.0815 -0.3145
 2384TIP3   OH228786   5.873   4.347   0.032  0.1519  0.4158 -0.5598
 2384TIP3    H128787   5.917   4.334  -0.051 -0.6186  1.0849 -1.0899
 2384TIP3    H228788   5.780   4.333   0.013 -0.2051  2.0345 -0.1611
 2385TIP3   OH228789   4.261   2.639   2.208 -1.0610  0.0995  0.3482
 2385TIP3    H128790   4.324   2.677   2.270 -2.2481  0.8105  1.1707
 2385TIP3    H228791   4.305   2.562   2.173 -0.8313 -1.2132  3.1878
 2386TIP3   OH228792   5.989   4.079   2.649 -0.2427  0.3418 -0.5488
 2386TIP3    H128793   5.905   4.093   2.692  0.3821 -1.7131  1.5513
 2386TIP3    H228794   6.004   3.985   2.656  2.4339  0.6955 -0.4284
 2387TIP3   OH228795   5.076   4.661   8.535  0.1364  0.2751  0.2783
 2387TIP3    H128796   5.131   4.665   8.613 -0.9043 -0.5769  1.0898
 2387TIP3    H228797   4.995   4.705   8.561 -0.7155 -1.1280  0.1516
 2388TIP3   OH228798   0.515   5.521   0.370 -0.6514  0.4827  0.0677
 2388TIP3    H128799   0.570   5.535   0.293 -0.4004  1.0708  0.3551
 2388TIP3    H228800   0.573   5.532   0.445 -0.4775 -1.7818  0.3544
 2389TIP3   OH228801   1.795   6.359   7.499  0.1932 -0.0905 -0.4419
 2389TIP3    H128802   1.799   6.401   7.585 -0.7879 -0.5221 -0.1673
 2389TIP3    H228803   1.877   6.311   7.492  1.0611  1.3732 -0.5128
 2390TIP3   OH228804   3.243   4.648   7.790 -0.4708 -0.0309 -0.7290
 2390TIP3    H128805   3.166   4.702   7.770 -0.2139  0.6820  0.1826
 2390TIP3    H228806   3.268   4.610   7.705  0.0232  2.1786 -1.6455
 2391TIP3   OH228807   2.323   6.295   2.060  0.4171 -0.1384  0.5634
 2391TIP3    H128808   2.278   6.309   2.143 -0.1242 -0.9882  0.4284
 2391TIP3    H228809   2.389   6.364   2.056  0.7334 -0.3397  1.8968
 2392TIP3   OH228810   6.045   2.466   8.457  0.3334  0.2251 -0.3873
 2392TIP3    H128811   5.962   2.512   8.440  0.1724 -0.3195 -1.0948
 2392TIP3    H228812   6.070   2.429   8.373  0.6324 -0.7060  0.0961
 2393TIP3   OH228813   0.856   2.609   6.844 -0.0246 -0.1258 -0.1765
 2393TIP3    H128814   0.913   2.549   6.892  0.7312  0.9807  0.3494
 2393TIP3    H228815   0.777   2.616   6.897  1.1126  1.7002  1.3995
 2394TIP3   OH228816   5.477   0.692   7.988 -0.2118 -0.3602  0.8604
 2394TIP3    H128817   5.460   0.765   7.929 -0.3384 -1.5013 -0.5953
 2394TIP3    H228818   5.391   0.657   8.008 -0.1007 -0.6954  0.7598
 2395TIP3   OH228819   3.755   0.462   8.458  0.6222  0.0927 -0.4425
 2395TIP3    H128820   3.677   0.413   8.433 -1.3879  2.6655  0.2908
 2395TIP3    H228821   3.783   0.505   8.377  0.4151  0.2447 -0.4365
 2396TIP3   OH228822   5.501   5.437   1.285 -0.1577 -0.4672  0.5033
 2396TIP3    H128823   5.406   5.443   1.275  0.0419  1.2333 -0.9424
 2396TIP3    H228824   5.514   5.427   1.380 -1.7152  3.3630  1.3200
 2397TIP3   OH228825   1.858   4.371   7.268 -0.0732  0.1735 -0.1815
 2397TIP3    H128826   1.890   4.443   7.324  1.4646 -1.8970  1.8202
 2397TIP3    H228827   1.770   4.353   7.301 -0.0904  0.4986 -0.0386
 2398TIP3   OH228828   4.169   1.237   0.296  0.2561  0.0974  0.3674
 2398TIP3    H128829   4.136   1.237   0.206 -0.7585 -1.0908  0.7085
 2398TIP3    H228830   4.259   1.270   0.288 -0.2210  1.2000 -0.9058
 2399TIP3   OH228831   6.214   3.781   7.908  0.4667 -1.0471  0.3701
 2399TIP3    H128832   6.205   3.876   7.900  3.4427 -0.6912  0.2778
 2399TIP3    H228833   6.160   3.758   7.983 -1.0454  0.5353 -0.1550
 2400TIP3   OH228834   6.176   0.102   0.886 -0.6261  0.6472  0.1915
 2400TIP3    H128835   6.119   0.151   0.827  0.4236 -0.0302 -1.4588
 2400TIP3    H228836   6.237   0.056   0.828  1.7509  1.4960  1.8257
 2401TIP3   OH228837   1.160   4.870   1.336 -0.5541  0.0096 -0.2135
 2401TIP3    H128838   1.122   4.789   1.304  0.4157 -0.8660  0.7438
 2401TIP3    H228839   1.147   4.867   1.431  2.3343 -0.6722  0.2778
 2402TIP3   OH228840   3.183   2.352   1.593  0.0006 -0.3409 -0.0572
 2402TIP3    H128841   3.207   2.276   1.540  0.8648  1.1192 -1.8607
 2402TIP3    H228842   3.093   2.372   1.567  0.4314  0.3874 -1.0280
 2403TIP3   OH228843   3.312   0.350   7.948 -0.1602 -0.3213  0.5999
 2403TIP3    H128844   3.337   0.348   7.856 -0.3573  0.5924  0.5234
 2403TIP3    H228845   3.374   0.292   7.991  1.7197  1.3908  0.3169
 2404TIP3   OH228846   4.493   6.825   6.829  0.0518 -0.0287  0.0543
 2404TIP3    H128847   4.447   6.742   6.842  0.4917 -0.5493 -1.5537
 2404TIP3    H228848   4.424   6.891   6.831 -0.4008 -0.5075  0.5253
 2405TIP3   OH228849   3.039   5.134   0.382 -0.3801 -0.5284 -0.1281
 2405TIP3    H128850   2.946   5.115   0.371 -0.1936 -1.6182 -0.0044
 2405TIP3    H228851   3.046   5.229   0.379 -1.2092 -0.4940 -2.5152
 2406TIP3   OH228852   0.234   4.777   8.339 -0.0432  0.4995  0.1218
 2406TIP3    H128853   0.141   4.801   8.329 -0.0934 -0.4249 -2.2429
 2406TIP3    H228854   0.233   4.683   8.357  0.4210  0.7831  1.7849
 2407TIP3   OH228855   4.693   2.584   1.634 -0.6947  0.1115 -0.4780
 2407TIP3    H128856   4.741   2.597   1.715 -0.7415 -0.8796 -0.2830
 2407TIP3    H228857   4.621   2.525   1.658 -2.0324  1.5505 -0.7539
 2408TIP3   OH228858   0.978   6.210   7.172 -0.0485  0.1146  0.2473
 2408TIP3    H128859   0.978   6.191   7.079 -0.6911 -0.8877  0.4388
 2408TIP3    H228860   1.059   6.259   7.187  1.1695 -1.6263 -0.4497
 2409TIP3   OH228861   1.806   1.419   0.687 -0.4604  0.5176  0.4537
 2409TIP3    H128862   1.857   1.499   0.689  0.4031 -0.0094  2.4135
 2409TIP3    H228863   1.870   1.349   0.684 -1.1663 -0.1241 -0.1095
 2410TIP3   OH228864   3.693   3.031   2.433 -0.2433  0.3783  0.0188
 2410TIP3    H128865   3.643   2.951   2.420 -0.3528  0.5223 -0.4607
 2410TIP3    H228866   3.708   3.035   2.528 -1.4862  0.5320  0.2287
 2411TIP3   OH228867   3.025   0.260   0.706 -0.0778  0.1763  0.7275
 2411TIP3    H128868   2.989   0.345   0.683 -1.1885 -0.1223  1.2856
 2411TIP3    H228869   3.008   0.251   0.799 -0.5925 -0.9349  0.5464
 2412TIP3   OH228870   3.660   1.599   6.499  0.0283 -0.5533 -0.3571
 2412TIP3    H128871   3.569   1.612   6.526  0.0153 -1.3029 -0.0036
 2412TIP3    H228872   3.672   1.504   6.500  0.7445 -0.4737 -0.6386
 2413TIP3   OH228873   5.042   5.139   0.314  1.1091  1.1874 -0.1854
 2413TIP3    H128874   5.092   5.076   0.366 -0.1696 -0.5623 -0.9570
 2413TIP3    H228875   5.107   5.178   0.255  1.4513 -2.3880 -2.4950
 2414TIP3   OH228876   1.124   4.075   1.570  1.0402  0.7303  0.1475
 2414TIP3    H128877   1.039   4.118   1.557  0.4127  0.0996  1.9167
 2414TIP3    H228878   1.187   4.148   1.570  0.5114  1.2217 -1.0000
 2415TIP3   OH228879   2.776   5.930   6.359 -0.4977  0.6389  0.8315
 2415TIP3    H128880   2.843   5.997   6.369  0.4857 -0.2414  0.3627
 2415TIP3    H228881   2.763   5.923   6.264 -1.5092  1.0267  0.9242
 2416TIP3   OH228882   6.335   0.519   2.256  0.1760 -0.3202 -0.1392
 2416TIP3    H128883   6.283   0.596   2.232  0.5586 -0.5911 -2.0144
 2416TIP3    H228884   6.312   0.502   2.347 -1.5634  0.7138 -0.3364
 2417TIP3   OH228885   6.466   3.213   1.307  0.0191 -0.7574 -0.7580
 2417TIP3    H128886   6.555   3.209   1.272  0.3139 -2.7332  0.1142
 2417TIP3    H228887   6.427   3.289   1.264  2.5757  1.0878 -0.0611
 2418TIP3   OH228888   3.064   0.702   8.149  0.2500  0.2969  0.6012
 2418TIP3    H128889   2.981   0.690   8.196  0.6920  0.5902  1.4954
 2418TIP3    H228890   3.039   0.739   8.064 -0.6036 -0.5538  0.4683
 2419TIP3   OH228891   5.546   6.008   7.805 -0.0003 -0.1186  0.1540
 2419TIP3    H128892   5.506   6.095   7.797  1.5439  0.5479 -0.7932
 2419TIP3    H228893   5.485   5.949   7.760 -1.2388  0.3901  1.1062
 2420TIP3   OH228894   6.492   2.466   8.372  0.9165  0.5856 -0.2137
 2420TIP3    H128895   6.441   2.442   8.294  2.6541  2.0391 -1.9142
 2420TIP3    H228896   6.427   2.495   8.435 -0.4901  0.9509 -1.7485
 2421TIP3   OH228897   3.388   0.090   6.488  0.2418 -0.1396  0.4537
 2421TIP3    H128898   3.299   0.107   6.460  0.6646  1.2442 -0.1582
 2421TIP3    H228899   3.393  -0.005   6.498 -1.3307 -0.2223  0.6803
 2422TIP3   OH228900   1.546   0.427   0.285 -0.1360 -0.1703  0.1404
 2422TIP3    H128901   1.635   0.462   0.279 -0.1442 -0.0898  0.4597
 2422TIP3    H228902   1.550   0.362   0.356 -0.5155  0.4329  0.7348
 2423TIP3   OH228903   4.004   0.860   1.664  0.4383  0.5707  0.1306
 2423TIP3    H128904   3.919   0.878   1.706  0.2068  1.0665 -0.5333
 2423TIP3    H228905   4.048   0.945   1.663  0.2268  0.6756 -1.0834
 2424TIP3   OH228906   2.071   3.840   1.362  0.1836  0.1072 -0.3193
 2424TIP3    H128907   2.147   3.846   1.419 -1.1835 -0.3364  1.6321
 2424TIP3    H228908   2.093   3.768   1.302  0.4203 -1.6021  1.6976
 2425TIP3   OH228909   3.348   2.571   1.498  0.1454 -0.4743  0.6451
 2425TIP3    H128910   3.364   2.556   1.405  0.7704  0.8119  0.5282
 2425TIP3    H228911   3.283   2.504   1.521 -1.6010  0.4652 -1.2028
 2426TIP3   OH228912   3.057   1.712   1.694  0.2369 -0.2973  0.3032
 2426TIP3    H128913   3.140   1.759   1.686 -0.7864  1.3689 -1.3900
 2426TIP3    H228914   3.016   1.750   1.772  1.2363 -1.4948  1.4521
 2427TIP3   OH228915   2.576   3.310   8.514 -0.3228  0.6400  0.0473
 2427TIP3    H128916   2.592   3.388   8.566  1.6546 -1.1509  2.3371
 2427TIP3    H228917   2.648   3.308   8.450  0.1818  0.2370  0.6162
 2428TIP3   OH228918   5.074   1.413   7.053 -0.2549  0.1757 -0.1074
 2428TIP3    H128919   5.063   1.508   7.055  0.1085  0.2335 -0.7054
 2428TIP3    H228920   5.017   1.384   6.981 -0.3649 -0.0600  0.0732
 2429TIP3   OH228921   4.167   6.732   1.561  0.4624 -0.0507 -0.1653
 2429TIP3    H128922   4.127   6.676   1.627 -1.9242  1.3580 -0.2867
 2429TIP3    H228923   4.172   6.678   1.483  1.6352 -1.1664  0.6259
 2430TIP3   OH228924   0.754   4.945   8.150  0.5402 -0.3214 -0.0391
 2430TIP3    H128925   0.779   4.974   8.063  0.4125 -1.3378 -0.4224
 2430TIP3    H228926   0.694   5.014   8.181  0.7229  0.1347 -0.6712
 2431TIP3   OH228927   0.241   2.578   1.134  0.2963 -0.0067  0.2560
 2431TIP3    H128928   0.301   2.504   1.143  1.1762  0.4361 -1.5413
 2431TIP3    H228929   0.171   2.545   1.077 -1.1341 -0.4444  2.1424
 2432TIP3   OH228930   1.661   4.208   8.289  0.3101 -0.5173 -0.3349
 2432TIP3    H128931   1.600   4.263   8.241 -0.1265 -0.9194 -0.2489
 2432TIP3    H228932   1.681   4.136   8.229  0.4937 -0.5248 -0.2656
 2433TIP3   OH228933   6.861   5.018   2.421  0.3927 -0.0119 -0.1079
 2433TIP3    H128934   6.939   5.071   2.428  0.4116  0.0580 -0.8098
 2433TIP3    H228935   6.797   5.061   2.477  0.6772  0.2587  0.0065
 2434TIP3   OH228936   2.651   0.325   0.163 -0.0304  1.1750  0.3669
 2434TIP3    H128937   2.705   0.256   0.200 -2.2902 -1.3916 -0.7838
 2434TIP3    H228938   2.705   0.363   0.094  1.0434  0.1008  0.5838
 2435TIP3   OH228939   2.423   1.149   7.855  0.2652  0.1627 -0.0962
 2435TIP3    H128940   2.486   1.153   7.783 -2.3749 -1.5188 -2.7174
 2435TIP3    H228941   2.446   1.070   7.903 -0.0932 -0.7253 -1.3453
 2436TIP3   OH228942   2.043   5.321   7.440 -0.0751  0.1494  0.5300
 2436TIP3    H128943   2.084   5.235   7.452  0.4586  0.3200 -0.0230
 2436TIP3    H228944   2.088   5.379   7.501 -0.0077  0.1723  0.4587
 2437TIP3   OH228945   5.525   5.922   8.572 -0.2968 -0.0076  0.0131
 2437TIP3    H128946   5.524   6.018   8.564 -1.4619  0.0733  0.9429
 2437TIP3    H228947   5.462   5.893   8.506  0.1164 -0.1541 -0.3235
 2438TIP3   OH228948   5.353   6.883   7.227 -0.1165 -0.3793 -0.5700
 2438TIP3    H128949   5.342   6.804   7.280 -0.8050  0.5283  0.7046
 2438TIP3    H228950   5.265   6.902   7.194 -0.1928  0.4912  0.1002
 2439TIP3   OH228951   2.610   3.341   0.728 -0.1236  0.2222 -0.1130
 2439TIP3    H128952   2.520   3.345   0.758  0.2677 -2.3668  1.7135
 2439TIP3    H228953   2.607   3.373   0.638 -2.8691  0.1476 -0.1133
 2440TIP3   OH228954   3.391   6.128   6.854 -0.1940  0.7876  0.1892
 2440TIP3    H128955   3.399   6.035   6.835 -0.5666  0.4768  1.4415
 2440TIP3    H228956   3.463   6.169   6.807  3.9931 -0.8357  4.4695
 2441TIP3   OH228957   5.827   0.652   0.428 -0.0374 -0.2347 -0.2267
 2441TIP3    H128958   5.778   0.731   0.406 -2.5479 -1.6719 -0.2165
 2441TIP3    H228959   5.788   0.584   0.373  1.1197 -1.7258  0.7208
 2442TIP3   OH228960   1.815   3.232   8.493 -0.1668 -0.4228 -0.4240
 2442TIP3    H128961   1.746   3.166   8.492 -0.4341 -0.2084  1.4293
 2442TIP3    H228962   1.812   3.270   8.405 -2.8372 -0.0138 -0.2556
 2443TIP3   OH228963   5.683   6.230   7.596 -0.0143  0.0482  0.3981
 2443TIP3    H128964   5.642   6.152   7.559  0.8041 -0.6530  0.9303
 2443TIP3    H228965   5.711   6.203   7.683 -1.7014  1.5908  1.4986
 2444TIP3   OH228966   5.363   3.388   2.264 -0.1437  0.0779 -0.5388
 2444TIP3    H128967   5.341   3.441   2.187 -0.6415  0.8105  0.0965
 2444TIP3    H228968   5.449   3.352   2.244  0.4590  1.5680 -0.7558
 2445TIP3   OH228969   5.717   2.779   8.227  0.3285  0.3863  0.3259
 2445TIP3    H128970   5.702   2.811   8.139 -1.0997  0.2550  0.5079
 2445TIP3    H228971   5.782   2.839   8.264 -0.7392  1.8101 -0.0483
 2446TIP3   OH228972   4.808   3.273   0.731  0.7537 -0.3663  0.3572
 2446TIP3    H128973   4.896   3.296   0.703  0.5204 -0.6484 -0.6361
 2446TIP3    H228974   4.817   3.255   0.825  1.8563 -0.9169  0.1615
 2447TIP3   OH228975   5.356   1.359   1.026  0.3095  0.2036  0.0383
 2447TIP3    H128976   5.281   1.418   1.025 -0.5749 -0.8846  0.3335
 2447TIP3    H228977   5.407   1.383   0.949  0.3431  1.7986  0.5196
 2448TIP3   OH228978   1.834   4.818   7.566  0.1885 -0.2671 -0.6027
 2448TIP3    H128979   1.795   4.734   7.593 -1.4700  0.4385 -0.6580
 2448TIP3    H228980   1.811   4.878   7.636  0.1888  0.4466 -1.2029
 2449TIP3   OH228981   6.409   3.556   7.955  0.1618  0.3386  0.1942
 2449TIP3    H128982   6.388   3.463   7.957 -0.7063  0.3932 -2.5813
 2449TIP3    H228983   6.326   3.600   7.937  0.8485  1.4896 -0.3057
 2450TIP3   OH228984   2.398   0.388   1.758 -0.3096  0.0912 -0.0451
 2450TIP3    H128985   2.452   0.467   1.755 -1.9182  1.2317 -0.8525
 2450TIP3    H228986   2.329   0.409   1.821 -1.0617 -0.4435 -0.6691
 2451TIP3   OH228987   3.901   0.366   0.258  0.1706 -0.1028  0.0614
 2451TIP3    H128988   3.919   0.353   0.165  2.6063  1.5073  0.2115
 2451TIP3    H228989   3.837   0.437   0.261  0.3594  0.0855 -0.3822
 2452TIP3   OH228990   4.446   2.679   1.872  0.2328  0.5089 -0.1531
 2452TIP3    H128991   4.366   2.630   1.891  1.3046 -0.6843  1.6077
 2452TIP3    H228992   4.510   2.611   1.848  0.7970  1.4248 -1.3321
 2453TIP3   OH228993   3.939   0.286   1.150 -0.2934 -0.4926 -0.2606
 2453TIP3    H128994   3.919   0.371   1.112 -1.0992 -0.7235 -0.3768
 2453TIP3    H228995   3.998   0.244   1.087 -0.6375 -0.3861 -0.6505
 2454TIP3   OH228996   3.782   4.033   1.988 -0.9787  0.0106  0.6266
 2454TIP3    H128997   3.708   4.013   1.931 -0.0872 -2.3452  0.1634
 2454TIP3    H228998   3.836   4.093   1.938 -0.3082 -1.8600 -1.0424
 2455TIP3   OH228999   3.801   0.221   0.852  0.2919  0.3619 -0.4971
 2455TIP3    H129000   3.777   0.129   0.851  1.6213 -0.0027 -0.6656
 2455TIP3    H229001   3.897   0.221   0.843  0.3954  1.7145  0.2938
 2456TIP3   OH229002   1.322   0.101   7.808 -0.8015  0.5424  0.0982
 2456TIP3    H129003   1.236   0.060   7.813 -0.1835 -0.5737  3.0388
 2456TIP3    H229004   1.307   0.192   7.833 -1.0265  0.1332  1.5107
 2457TIP3   OH229005   1.276   1.147   7.600  0.3539  0.3158 -0.3588
 2457TIP3    H129006   1.190   1.157   7.642 -0.3493 -0.9358 -1.4249
 2457TIP3    H229007   1.332   1.112   7.669 -0.4548 -0.4936 -0.0860
 2458TIP3   OH229008   3.869   2.248   1.659  0.1506 -0.0111  0.4380
 2458TIP3    H129009   3.878   2.271   1.566 -0.9755 -0.1118  0.2842
 2458TIP3    H229010   3.959   2.245   1.692  0.5630  0.1347 -0.6223
 2459TIP3   OH229011   2.383   4.989   7.890  0.1186 -0.2918 -0.5833
 2459TIP3    H129012   2.315   4.972   7.955 -0.2105  1.2418 -0.5035
 2459TIP3    H229013   2.464   4.958   7.932  0.0159  1.2802  0.8602
 2460TIP3   OH229014   1.571   6.823   7.147  0.0569 -0.0971  0.1463
 2460TIP3    H129015   1.536   6.881   7.080 -0.0472  0.2047  0.4544
 2460TIP3    H229016   1.558   6.871   7.229  0.8353 -0.1446  0.3088
 2461TIP3   OH229017   4.100   3.072   2.568  0.0139 -0.4701 -0.5283
 2461TIP3    H129018   4.123   3.124   2.491  0.8034  1.5047  0.9723
 2461TIP3    H229019   4.183   3.032   2.596 -0.0162 -0.1793 -0.0061
 2462TIP3   OH229020   3.975   0.788   2.046 -0.3349 -0.3816 -0.2227
 2462TIP3    H129021   3.936   0.715   1.998 -0.8437 -1.2241  1.3993
 2462TIP3    H229022   3.990   0.754   2.134 -0.9789  1.5826  0.7146
 2463TIP3   OH229023   2.084   3.849   6.436 -0.0434  0.0475 -0.1139
 2463TIP3    H129024   2.024   3.897   6.492  1.0854 -0.8183  1.9699
 2463TIP3    H229025   2.034   3.773   6.407 -0.1492 -0.3995  1.1765
 2464TIP3   OH229026   1.761   0.655   2.011 -0.1402  0.5081  0.2125
 2464TIP3    H129027   1.807   0.579   1.976  0.9476  0.1765  2.2271
 2464TIP3    H229028   1.676   0.622   2.038 -0.8472  0.6886 -1.6175
 2465TIP3   OH229029   0.290   5.571   2.183  0.1550 -0.2001 -0.2995
 2465TIP3    H129030   0.228   5.626   2.231  1.2273 -0.6485  1.7413
 2465TIP3    H229031   0.236   5.501   2.145 -0.9994  1.2903 -1.5315
 2466TIP3   OH229032   3.604   5.430   8.355 -0.3428  0.7517 -0.6244
 2466TIP3    H129033   3.543   5.372   8.401  0.3275 -0.4063 -1.1397
 2466TIP3    H229034   3.664   5.370   8.311  1.1358  1.8723 -0.1799
 2467TIP3   OH229035   3.114   4.299   1.026 -0.3314 -0.2644  0.4475
 2467TIP3    H129036   3.021   4.276   1.025 -0.0242 -1.6536  1.5298
 2467TIP3    H229037   3.118   4.380   1.076 -1.1649  0.9869 -1.4023
 2468TIP3   OH229038   5.548   4.664   1.070  0.4349  0.3247 -0.4681
 2468TIP3    H129039   5.525   4.744   1.023  0.3612  0.9345  0.5900
 2468TIP3    H229040   5.560   4.691   1.161  2.5276 -0.4836 -0.4468
 2469TIP3   OH229041   5.052   4.785   0.333  0.0306 -0.2508  0.0225
 2469TIP3    H129042   4.959   4.806   0.337  0.3232  1.2336 -0.2881
 2469TIP3    H229043   5.093   4.845   0.396  0.6572 -1.7719  1.1120
 2470TIP3   OH229044   6.383   2.965   0.055  0.9039 -0.8638  0.7207
 2470TIP3    H129045   6.322   2.971  -0.019  1.7296 -2.1152 -0.1020
 2470TIP3    H229046   6.432   2.884   0.039  3.2444  0.4200  1.0011
 2471TIP3   OH229047   0.794   2.927   7.983  0.6592 -0.1290 -0.0161
 2471TIP3    H129048   0.751   2.999   8.028 -1.7054 -1.3913 -0.1334
 2471TIP3    H229049   0.779   2.850   8.038  1.6635 -0.8765 -0.7285
 2472TIP3   OH229050   1.315   6.680   0.205 -0.0031 -0.5436 -0.1906
 2472TIP3    H129051   1.385   6.615   0.212  0.9989  0.4636 -0.5499
 2472TIP3    H229052   1.357   6.763   0.228 -1.0040  0.1342 -0.7303
 2473TIP3   OH229053   2.664   1.447   8.065 -0.4280  0.4957 -0.6269
 2473TIP3    H129054   2.598   1.398   8.016 -0.7011  0.0425  0.1694
 2473TIP3    H229055   2.639   1.435   8.156  0.8342  0.2184 -0.3080
 2474TIP3   OH229056   3.110   6.666   0.277  0.5945  0.0459  0.0928
 2474TIP3    H129057   3.194   6.634   0.308  1.3361  0.9706 -0.8903
 2474TIP3    H229058   3.123   6.683   0.184  0.0066  2.2955  0.3526
 2475TIP3   OH229059   6.798   0.984   1.649  0.6148 -0.0489  0.0763
 2475TIP3    H129060   6.854   0.952   1.719 -0.2213 -0.4370  0.5901
 2475TIP3    H229061   6.760   0.905   1.610 -0.1708  0.2257  0.2521
 2476TIP3   OH229062   4.362   2.303   0.358 -0.1983 -0.1307  0.0631
 2476TIP3    H129063   4.397   2.214   0.351  0.2243  0.1452 -2.0188
 2476TIP3    H229064   4.434   2.354   0.397 -0.0867 -0.5038  0.3555
 2477TIP3   OH229065   1.392   5.433   6.910 -0.0599  0.3813 -0.0990
 2477TIP3    H129066   1.314   5.453   6.961 -0.2188 -1.7631  0.6077
 2477TIP3    H229067   1.405   5.339   6.923  2.0862  0.5100 -0.9936
 2478TIP3   OH229068   5.227   3.332   1.895 -0.0512  0.1450 -0.4562
 2478TIP3    H129069   5.217   3.338   1.990 -0.4394 -1.3819 -0.3702
 2478TIP3    H229070   5.149   3.375   1.860 -0.9415 -1.0918 -0.0265
 2479TIP3   OH229071   2.932   2.081   0.293  0.0736  0.7406 -0.0271
 2479TIP3    H129072   2.928   2.132   0.212 -3.1874 -1.3550 -1.3901
 2479TIP3    H229073   3.019   2.040   0.292  1.8655  4.1789 -0.0358
 2480TIP3   OH229074   1.428   0.795   8.042 -0.1764 -0.1058 -0.1396
 2480TIP3    H129075   1.469   0.772   8.125  2.7528  1.6749 -0.9484
 2480TIP3    H229076   1.353   0.849   8.066  0.1550 -0.2846  1.3541
 2481TIP3   OH229077   6.455   2.471   6.986  0.2415  0.2087  0.5766
 2481TIP3    H129078   6.532   2.422   7.014 -0.0042 -0.2991  0.3737
 2481TIP3    H229079   6.386   2.405   6.978 -0.3313  0.7177  1.1684
 2482TIP3   OH229080   0.622   4.136   0.332  0.4555 -0.1252  0.2746
 2482TIP3    H129081   0.709   4.097   0.320  0.0248 -0.5974 -1.8276
 2482TIP3    H229082   0.619   4.162   0.424  2.1779 -1.6527  0.8213
 2483TIP3   OH229083   4.108   1.471   7.518  0.3779  0.9208 -0.5386
 2483TIP3    H129084   4.157   1.447   7.596  0.5261  2.1315 -0.2445
 2483TIP3    H229085   4.131   1.403   7.454 -0.0983 -0.3400  0.5836
 2484TIP3   OH229086   3.028   1.644   0.890  0.0886 -0.2553  0.4068
 2484TIP3    H129087   3.095   1.582   0.917  0.2985 -0.4890 -0.6186
 2484TIP3    H229088   3.061   1.729   0.920  0.7834 -0.3833  0.0235
 2485TIP3   OH229089   6.255   4.249   1.239 -0.1617  0.1988  0.3104
 2485TIP3    H129090   6.253   4.343   1.255  4.8831  0.3908  1.7137
 2485TIP3    H229091   6.305   4.240   1.157 -0.5293 -1.2873  0.2166
 2486TIP3   OH229092   1.300   3.281   8.515  0.0835  0.1495 -0.0291
 2486TIP3    H129093   1.216   3.265   8.558 -0.6029  2.3384 -0.4106
 2486TIP3    H229094   1.285   3.253   8.424 -1.4000  3.3772 -0.9247
 2487TIP3   OH229095   2.833   5.946   7.693  0.0524  0.3508  0.2195
 2487TIP3    H129096   2.751   5.939   7.645  0.5012 -0.7920 -0.4253
 2487TIP3    H229097   2.808   5.964   7.783 -0.9187 -0.2537  0.0801
 2488TIP3   OH229098   5.796   0.235   0.553  0.2599 -0.5584  0.0538
 2488TIP3    H129099   5.744   0.161   0.520 -0.6109  0.3170 -0.5961
 2488TIP3    H229100   5.732   0.304   0.569  1.3481  1.1612 -2.4519
 2489TIP3   OH229101   6.839   1.265   1.051  0.1597  0.8089 -0.2915
 2489TIP3    H129102   6.900   1.277   1.123 -1.3458 -0.2087  1.2342
 2489TIP3    H229103   6.755   1.298   1.085 -0.8737 -0.8991 -1.0720
 2490TIP3   OH229104   1.857   2.488   8.241 -0.3147 -0.0353  0.5506
 2490TIP3    H129105   1.935   2.462   8.193 -2.0986 -3.2972 -0.8765
 2490TIP3    H229106   1.784   2.450   8.192 -2.7607  1.7314  2.5207
 2491TIP3   OH229107   3.406   3.229   0.462 -0.1539 -0.5712  0.6781
 2491TIP3    H129108   3.373   3.313   0.496 -0.8235 -1.0460  1.2496
 2491TIP3    H229109   3.338   3.200   0.401 -0.0480 -0.8214  0.6800
 2492TIP3   OH229110   4.505   0.801   8.353 -0.8692  0.2438 -0.2441
 2492TIP3    H129111   4.589   0.838   8.327 -1.7727  2.4857 -0.2181
 2492TIP3    H229112   4.505   0.807   8.449 -0.5606 -1.0120 -0.1436
 2493TIP3   OH229113   5.546   3.792   0.747  0.3567  0.0009  0.3875
 2493TIP3    H129114   5.586   3.719   0.699 -0.4100 -0.0547 -0.1821
 2493TIP3    H229115   5.472   3.754   0.793 -1.0683  0.6872 -1.2337
 2494TIP3   OH229116   2.531   3.071   8.026 -0.2317 -0.1141  0.1839
 2494TIP3    H129117   2.593   3.037   7.962  1.0831  0.7033  0.9545
 2494TIP3    H229118   2.505   3.157   7.992 -1.5885 -0.7851 -0.5259
 2495TIP3   OH229119   0.302   0.643   7.429 -0.3189 -0.1473  0.0695
 2495TIP3    H129120   0.279   0.561   7.472  2.0214 -0.5608  0.6615
 2495TIP3    H229121   0.304   0.623   7.336  0.8349 -0.9676  0.2501
 2496TIP3   OH229122   6.437   5.714   1.347 -0.1648  0.3391 -0.4298
 2496TIP3    H129123   6.518   5.685   1.305 -0.6244 -0.0455 -1.0668
 2496TIP3    H229124   6.372   5.714   1.277 -0.4204  1.9601 -0.2138
 2497TIP3   OH229125   0.689   6.717   0.774  0.5185  0.2055  0.1284
 2497TIP3    H129126   0.597   6.688   0.772  1.0904 -1.8946  1.4593
 2497TIP3    H229127   0.714   6.721   0.681 -0.6014 -0.2509 -0.2153
 2498TIP3   OH229128   4.256   4.291   7.687 -0.5048 -0.2571  0.2415
 2498TIP3    H129129   4.199   4.260   7.616 -2.3295 -1.1829  2.0250
 2498TIP3    H229130   4.308   4.214   7.710 -0.6843 -0.2711  0.6052
 2499TIP3   OH229131   6.832   6.098   1.512  0.2500  0.1556 -0.4380
 2499TIP3    H129132   6.888   6.057   1.445  2.0281 -2.4947  2.4038
 2499TIP3    H229133   6.777   6.027   1.545  1.0804  0.7047  2.4306
 2500TIP3   OH229134   3.780   6.047   6.360 -0.4443  0.2003 -0.5256
 2500TIP3    H129135   3.783   5.969   6.414 -0.8009 -0.5767 -1.5946
 2500TIP3    H229136   3.871   6.062   6.333 -0.6557 -1.3603 -2.3616
 2501TIP3   OH229137   5.248   3.855   8.371  0.1392 -0.0941 -0.1473
 2501TIP3    H129138   5.339   3.856   8.399 -0.0512 -1.3069  0.5887
 2501TIP3    H229139   5.213   3.773   8.405 -0.2323 -1.5254 -3.6263
 2502TIP3   OH229140   4.958   1.048   6.366 -0.7803 -0.4648 -0.2487
 2502TIP3    H129141   5.039   1.090   6.336 -1.2382  1.8703  1.4423
 2502TIP3    H229142   4.986   0.965   6.405  0.4585 -0.8199 -1.8056
 2503TIP3   OH229143   3.457   4.015   7.582 -0.3531  0.4354  0.3573
 2503TIP3    H129144   3.407   4.041   7.660 -1.7820 -0.3456 -0.2781
 2503TIP3    H229145   3.392   3.979   7.522  1.1697 -2.2379  0.1669
 2504TIP3   OH229146   0.113   6.159   1.635  0.5740  0.5323  0.1501
 2504TIP3    H129147   0.113   6.094   1.705  0.2121 -3.0526 -2.8753
 2504TIP3    H229148   0.023   6.160   1.602  0.9939  1.1576 -1.0674
 2505TIP3   OH229149   3.819   1.686   7.758 -0.1657  0.3258 -0.2004
 2505TIP3    H129150   3.730   1.693   7.794 -0.4243  0.0085 -0.7554
 2505TIP3    H229151   3.870   1.644   7.827 -0.3615  0.8142  0.2539
 2506TIP3   OH229152   6.336   3.676   6.446 -0.0424  0.2511 -0.1743
 2506TIP3    H129153   6.308   3.762   6.477  0.4849  0.2667  0.2775
 2506TIP3    H229154   6.412   3.654   6.500  0.8427  0.2202 -1.3663
 2507TIP3   OH229155   6.379   2.113   1.202  0.1488 -0.0970  0.2883
 2507TIP3    H129156   6.452   2.086   1.258 -1.5532 -2.1392  1.6859
 2507TIP3    H229157   6.323   2.166   1.260  0.3282  1.1957 -0.6733
 2508TIP3   OH229158   5.775   1.886   2.576  0.3779 -0.5599  0.0670
 2508TIP3    H129159   5.831   1.821   2.534  1.1720 -0.9510  1.6360
 2508TIP3    H229160   5.822   1.968   2.566 -0.5534 -0.2095 -1.7837
 2509TIP3   OH229161   3.598   4.197   0.537 -0.2859 -0.1937 -0.1319
 2509TIP3    H129162   3.550   4.253   0.476  1.7963  1.1153 -0.6493
 2509TIP3    H229163   3.622   4.120   0.484  0.0575  0.1529 -0.4834
 2510TIP3   OH229164   0.402   5.649   7.524  0.0402  0.4361  0.0033
 2510TIP3    H129165   0.493   5.623   7.516  0.3604  1.9689 -2.3858
 2510TIP3    H229166   0.353   5.577   7.484  0.4263  0.7318 -1.0287
 2511TIP3   OH229167   6.386   0.937   1.717  0.0084  0.0016 -0.1559
 2511TIP3    H129168   6.329   0.917   1.791 -0.3810  1.6654  0.0127
 2511TIP3    H229169   6.332   0.988   1.657  0.5204 -0.7401 -1.3035
 2512TIP3   OH229170   5.099   4.798   7.348 -0.4594 -0.9094 -0.1131
 2512TIP3    H129171   5.093   4.849   7.429 -0.9575  0.4809 -0.9933
 2512TIP3    H229172   5.070   4.710   7.373 -2.2101 -0.0965  0.8787
 2513TIP3   OH229173   0.520   2.384   8.028  0.0105 -0.3812  0.4344
 2513TIP3    H129174   0.452   2.321   8.004 -1.3342  0.6185  1.4598
 2513TIP3    H229175   0.532   2.371   8.122 -0.3015  0.8630  0.6649
 2514TIP3   OH229176   6.351   2.815   7.760  0.3262 -0.1648  0.3767
 2514TIP3    H129177   6.264   2.795   7.727  0.5072 -1.5457  0.6840
 2514TIP3    H229178   6.394   2.860   7.687 -0.8310  1.1642  0.4549
 2515TIP3   OH229179   0.281   6.824   0.360 -0.0932 -0.1218  0.3418
 2515TIP3    H129180   0.248   6.758   0.421 -0.7715 -0.9252 -0.8753
 2515TIP3    H229181   0.226   6.901   0.376 -0.9085 -0.6451  0.0627
 2516TIP3   OH229182   2.696   5.408   7.804 -0.4279 -0.4333  0.2739
 2516TIP3    H129183   2.662   5.495   7.782  1.8116  0.7096  0.9542
 2516TIP3    H229184   2.626   5.348   7.780 -1.9158  1.5195 -0.5891
 2517TIP3   OH229185   2.758   2.455   7.062  0.1724  0.2044  0.3951
 2517TIP3    H129186   2.824   2.390   7.086 -0.9734 -0.9796  0.4378
 2517TIP3    H229187   2.742   2.440   6.969 -0.5166  0.0329  0.5391
 2518TIP3   OH229188   6.630   0.297   1.205 -0.3763  0.8952 -0.3396
 2518TIP3    H129189   6.674   0.265   1.284  0.6181  0.4430 -1.0429
 2518TIP3    H229190   6.561   0.232   1.188 -0.5453  0.9555  0.1132
 2519TIP3   OH229191   5.412   2.387   0.541  0.3144  0.5578  0.0826
 2519TIP3    H129192   5.387   2.409   0.631  1.0178  0.8508  0.2056
 2519TIP3    H229193   5.421   2.292   0.542 -1.6544  0.3116 -0.1857
 2520TIP3   OH229194   5.486   2.105   0.494 -0.0984  0.2020 -0.5946
 2520TIP3    H129195   5.579   2.123   0.486 -0.1166  1.2713  1.0216
 2520TIP3    H229196   5.477   2.012   0.474  1.2185  0.2057 -1.2949
 2521TIP3   OH229197   1.146   1.511   8.288  0.4703  0.5931 -0.3102
 2521TIP3    H129198   1.071   1.566   8.310 -1.1075 -0.9740 -1.4801
 2521TIP3    H229199   1.205   1.521   8.362 -0.5348  2.4754  0.3054
 2522TIP3   OH229200   6.482   5.435   2.118 -0.3986  0.2943 -0.0663
 2522TIP3    H129201   6.557   5.494   2.109 -0.3650  0.1794 -0.5412
 2522TIP3    H229202   6.422   5.482   2.176 -0.5255  0.9495 -0.7172
 2523TIP3   OH229203   1.416   5.610   2.496  0.6025  0.0991 -0.6982
 2523TIP3    H129204   1.459   5.526   2.483 -0.0144 -0.3055 -0.2114
 2523TIP3    H229205   1.437   5.661   2.418  1.7056 -0.1904 -0.6033
 2524TIP3   OH229206   0.110   4.052   6.643 -0.3988 -0.0166  0.1274
 2524TIP3    H129207   0.117   4.143   6.670 -0.2725 -0.7539  2.8363
 2524TIP3    H229208   0.197   4.028   6.614 -0.0636  0.3195  0.8409
 2525TIP3   OH229209   2.775   3.021   8.368 -0.0643  0.3901  0.1137
 2525TIP3    H129210   2.689   3.013   8.328 -0.4702 -0.8749  1.1640
 2525TIP3    H229211   2.793   2.935   8.406  1.7427  0.5739 -0.2109
 2526TIP3   OH229212   4.367   5.754   1.853 -0.6652  0.3209  0.0588
 2526TIP3    H129213   4.427   5.694   1.899  0.5775  1.5350  0.0856
 2526TIP3    H229214   4.371   5.725   1.762 -0.6954 -0.1291  0.1959
 2527TIP3   OH229215   1.990   5.098   8.370 -0.1611 -0.4248 -0.2818
 2527TIP3    H129216   2.072   5.134   8.335 -0.1761  0.4798  0.5682
 2527TIP3    H229217   2.016   5.020   8.419  0.0003 -0.9955 -1.2407
 2528TIP3   OH229218   2.390   6.315   1.350 -0.1061 -0.1092  0.1353
 2528TIP3    H129219   2.464   6.261   1.323  0.0533  0.4782 -0.6284
 2528TIP3    H229220   2.328   6.253   1.389  0.0110 -0.8661 -0.8468
 2529TIP3   OH229221   5.799   1.037   6.945  0.8249 -0.5299 -0.0987
 2529TIP3    H129222   5.720   1.042   6.890  0.4544  0.1575  0.4774
 2529TIP3    H229223   5.843   1.120   6.930  0.1939  0.0957  1.4090
 2530TIP3   OH229224   5.444   6.294   7.781  0.0838 -0.1730  0.0842
 2530TIP3    H129225   5.411   6.272   7.869 -0.7409  1.0151  0.0914
 2530TIP3    H229226   5.491   6.376   7.792  0.0751 -0.0725 -0.5750
 2531TIP3   OH229227   2.538   3.901   0.948  0.4935 -0.3017  0.2388
 2531TIP3    H129228   2.463   3.901   0.888  1.0907 -0.6716 -0.5344
 2531TIP3    H229229   2.590   3.826   0.921  1.0806 -0.1252  0.8487
 2532TIP3   OH229230   3.969   5.660   7.319  0.6786  0.0224 -0.0130
 2532TIP3    H129231   4.036   5.624   7.261 -0.1516  0.0101 -1.0041
 2532TIP3    H229232   4.018   5.698   7.392  1.8228  0.7126 -1.0930
 2533TIP3   OH229233   0.876   2.555   1.605 -0.3694 -0.1981  0.0035
 2533TIP3    H129234   0.821   2.550   1.527 -3.2717  1.2081  1.7508
 2533TIP3    H229235   0.940   2.623   1.586  0.3089 -1.2887 -1.8212
 2534TIP3   OH229236   0.699   5.645   6.890 -0.0065 -0.2806 -0.1255
 2534TIP3    H129237   0.669   5.693   6.967 -2.3568 -0.0926 -1.0827
 2534TIP3    H229238   0.675   5.554   6.908 -2.7571  0.0760 -1.5284
 2535TIP3   OH229239   5.944   6.925   7.204 -0.6104  0.0384  0.0051
 2535TIP3    H129240   5.883   6.985   7.160 -0.2935  1.3741  1.3016
 2535TIP3    H229241   5.943   6.846   7.150 -2.2615  0.6168 -0.8899
 2536TIP3   OH229242   3.026   0.418   7.946 -0.5955 -0.4111  0.1832
 2536TIP3    H129243   3.121   0.406   7.955 -0.6475 -1.1532 -0.1691
 2536TIP3    H229244   3.014   0.513   7.944  0.3372 -0.2869 -1.6325
 2537TIP3   OH229245   5.650   1.280   1.709  0.6364 -0.8049  0.0315
 2537TIP3    H129246   5.684   1.315   1.791 -1.7153  0.2067  0.6665
 2537TIP3    H229247   5.619   1.357   1.662 -0.9907 -1.6376 -0.3382
 2538TIP3   OH229248   6.088   3.287   0.976  0.2584 -0.5204 -0.1999
 2538TIP3    H129249   6.079   3.354   1.044 -0.1786 -0.4214 -0.3515
 2538TIP3    H229250   6.144   3.327   0.910 -1.3276  0.3345 -1.0733
 2539TIP3   OH229251   1.135   6.423   1.179  0.4540 -0.1801  0.0857
 2539TIP3    H129252   1.170   6.513   1.178 -0.1258  0.1000 -2.6223
 2539TIP3    H229253   1.042   6.434   1.197  0.2479 -0.1481 -0.9539
 2540TIP3   OH229254   6.045   3.852   2.127 -0.0940 -0.1145  0.1819
 2540TIP3    H129255   5.968   3.866   2.182 -0.1434 -0.9758  0.3547
 2540TIP3    H229256   6.104   3.923   2.149  0.2685 -0.9373  2.0575
 2541TIP3   OH229257   6.176   5.978   2.452 -0.1339  0.1614 -0.6837
 2541TIP3    H129258   6.084   5.994   2.471  0.1668  2.8865 -1.0325
 2541TIP3    H229259   6.223   6.037   2.511  1.4156 -1.4343 -0.2685
 2542TIP3   OH229260   3.757   1.085   7.417 -0.3327  0.1839  0.4538
 2542TIP3    H129261   3.814   1.038   7.479 -0.3687 -0.3563  0.0858
 2542TIP3    H229262   3.739   1.168   7.460 -0.9990 -0.4849  1.5345
 2543TIP3   OH229263   2.769   2.674   7.682 -0.1782 -0.1054  0.0015
 2543TIP3    H129264   2.675   2.660   7.700 -0.6385  0.5052 -1.7798
 2543TIP3    H229265   2.807   2.587   7.689 -0.8667 -0.3739  0.7030
 2544TIP3   OH229266   6.536   2.751   0.034 -0.1366  0.5757 -0.2952
 2544TIP3    H129267   6.598   2.808  -0.012  0.9324 -0.3332 -0.0174
 2544TIP3    H229268   6.568   2.662   0.017 -1.9914  0.0051 -1.0361
 2545TIP3   OH229269   0.276   6.551   7.038  0.1151  0.0635  0.0234
 2545TIP3    H129270   0.264   6.514   7.125 -1.3089  1.8942  0.6404
 2545TIP3    H229271   0.208   6.617   7.029  2.1059  2.0769 -1.2930
 2546TIP3   OH229272   4.657   3.433   6.703 -0.1228  0.1388  0.1055
 2546TIP3    H129273   4.731   3.408   6.647  0.4508  1.1438  0.3933
 2546TIP3    H229274   4.642   3.357   6.759  0.0866 -0.4174 -0.5869
 2547TIP3   OH229275   1.896   4.647   1.144  0.1966 -0.5259 -0.1815
 2547TIP3    H129276   1.906   4.742   1.136 -0.6336 -0.2370  1.7299
 2547TIP3    H229277   1.970   4.619   1.197 -0.2763 -0.7405  0.3739
 2548TIP3   OH229278   0.829   1.240   0.274  0.1141  0.0027 -0.2359
 2548TIP3    H129279   0.789   1.252   0.188  0.3445  0.6506 -0.2562
 2548TIP3    H229280   0.860   1.150   0.274 -0.3620 -0.1674 -0.6298
 2549TIP3   OH229281   1.788   2.768   0.962 -0.7785  0.1959 -0.6889
 2549TIP3    H129282   1.723   2.703   0.936 -1.7044  0.3265  1.1479
 2549TIP3    H229283   1.862   2.716   0.996 -1.9146  0.0097  1.7170
 2550TIP3   OH229284   0.137   3.711   1.033 -0.1577 -0.8195 -0.8379
 2550TIP3    H129285   0.086   3.754   1.101 -0.5348  0.2420 -1.7526
 2550TIP3    H229286   0.087   3.633   1.010  0.0504 -1.2702  0.1747
 2551TIP3   OH229287   3.708   4.465   0.487 -0.5466  0.0779 -0.6129
 2551TIP3    H129288   3.660   4.545   0.509 -1.2271 -0.4021 -0.2999
 2551TIP3    H229289   3.651   4.394   0.517 -0.0817 -0.5306 -1.1418
 2552TIP3   OH229290   5.980   6.659   8.265 -0.2849 -0.4379 -0.3707
 2552TIP3    H129291   5.990   6.724   8.195  0.2604  0.6633  0.6932
 2552TIP3    H229292   6.064   6.613   8.267 -0.1057 -0.1043 -0.0998
 2553TIP3   OH229293   6.307   6.673   1.942 -0.2010 -0.0607 -0.2030
 2553TIP3    H129294   6.270   6.750   1.898 -1.1336  0.5669  1.5783
 2553TIP3    H229295   6.401   6.690   1.945 -0.4682  1.4388  0.8853
 2554TIP3   OH229296   5.559   4.159   0.545  0.2002  0.5606 -0.5733
 2554TIP3    H129297   5.578   4.119   0.630 -0.8741  2.3130  0.5463
 2554TIP3    H229298   5.471   4.128   0.524 -0.2415  1.5145 -0.1726
 2555TIP3   OH229299   2.985   2.833   7.611 -0.1422  0.0787  0.3659
 2555TIP3    H129300   2.960   2.741   7.621  1.4070 -0.4500 -0.2565
 2555TIP3    H229301   2.976   2.870   7.698  0.5502 -1.0477  0.9526
 2556TIP3   OH229302   4.426   1.073   0.761 -0.1164  0.0946  0.7671
 2556TIP3    H129303   4.348   1.100   0.808 -1.4230  0.7831 -1.6030
 2556TIP3    H229304   4.449   1.148   0.706  1.5022 -0.5196  0.5198
 2557TIP3   OH229305   3.926   2.974   1.603  0.3669  0.1913 -0.0377
 2557TIP3    H129306   3.846   3.027   1.601 -0.1351 -0.2736  2.6701
 2557TIP3    H229307   3.991   3.030   1.646  0.6284 -0.4132  0.3761
 2558TIP3   OH229308   1.466   5.921   1.221 -0.8260  0.0188 -0.0985
 2558TIP3    H129309   1.464   6.012   1.193  0.3765  0.0895  0.0214
 2558TIP3    H229310   1.470   5.870   1.140 -1.6605  0.0532 -0.1708
 2559TIP3   OH229311   3.952   2.474   8.007  0.0274  0.0951  0.5198
 2559TIP3    H129312   4.004   2.418   7.948 -0.3837  0.7768 -0.5205
 2559TIP3    H229313   3.948   2.425   8.089  2.5443  0.1136  0.7565
 2560TIP3   OH229314   3.842   1.536   7.539  0.1076 -0.5738 -0.5807
 2560TIP3    H129315   3.846   1.606   7.605  2.1646 -1.1765  0.0176
 2560TIP3    H229316   3.932   1.506   7.530 -0.4164 -1.8227 -2.3010
 2561TIP3   OH229317   6.278   4.744   8.480  0.1818  0.1959  0.3759
 2561TIP3    H129318   6.213   4.687   8.439  0.2468  0.3374  0.0713
 2561TIP3    H229319   6.304   4.804   8.411 -0.2195  0.8881  0.8194
 2562TIP3   OH229320   2.310   2.116   1.037 -0.3913 -0.4999 -0.2717
 2562TIP3    H129321   2.232   2.068   1.008 -0.6772 -1.1848  1.4470
 2562TIP3    H229322   2.297   2.205   1.005 -0.5439 -1.2044 -2.3226
 2563TIP3   OH229323   1.895   5.600   0.491 -0.8390 -0.0968 -0.3613
 2563TIP3    H129324   1.983   5.572   0.466 -0.5878 -1.0218  1.4497
 2563TIP3    H229325   1.904   5.693   0.512  0.1624 -0.6156  1.6868
 2564TIP3   OH229326   4.941   6.801   1.461 -0.2433  0.3364  0.5247
 2564TIP3    H129327   4.967   6.726   1.514 -1.2123 -1.5448 -1.5435
 2564TIP3    H229328   4.866   6.838   1.507  0.0601 -0.1200  1.4114
 2565TIP3   OH229329   6.872   3.302   1.461  0.6503 -0.2110  0.3117
 2565TIP3    H129330   6.964   3.314   1.435  0.7064  0.3413  0.7349
 2565TIP3    H229331   6.871   3.218   1.506  0.6234 -1.0080 -1.0984
 2566TIP3   OH229332   5.030   4.507   7.460 -0.0269 -0.3601  0.0935
 2566TIP3    H129333   4.962   4.573   7.474  1.6263  1.7213 -1.0995
 2566TIP3    H229334   5.099   4.531   7.522  0.8776 -0.5430 -0.8345
 2567TIP3   OH229335   0.186   4.691   0.133 -0.6034 -0.1509 -0.2771
 2567TIP3    H129336   0.159   4.775   0.170  1.5012  0.3845  0.1881
 2567TIP3    H229337   0.113   4.665   0.078 -2.7889  0.2866  2.2101
 2568TIP3   OH229338   1.496   6.849   0.566 -0.4703  0.3588 -0.6839
 2568TIP3    H129339   1.561   6.789   0.530 -1.7860 -0.8958 -1.0354
 2568TIP3    H229340   1.415   6.827   0.521 -1.1986  1.7634 -0.1196
 2569TIP3   OH229341   1.142   6.330   1.512  0.4327  0.1395  0.5002
 2569TIP3    H129342   1.164   6.408   1.563 -1.1131  0.6023  0.5212
 2569TIP3    H229343   1.065   6.356   1.461  1.1261 -0.7366 -1.0685
 2570TIP3   OH229344   2.718   0.970   7.866 -0.0997  0.3339  0.5042
 2570TIP3    H129345   2.650   0.933   7.924  0.6999 -1.5489  0.3154
 2570TIP3    H229346   2.761   1.036   7.920 -0.4684 -0.1975  1.4808
 2571TIP3   OH229347   3.266   2.491   1.245  0.3930 -0.4418  0.5705
 2571TIP3    H129348   3.315   2.445   1.178  0.7059  0.5081  0.1342
 2571TIP3    H229349   3.175   2.490   1.214  0.5882  0.2964 -0.0567
 2572TIP3   OH229350   5.004   6.765   1.771  0.0773 -0.3735 -0.5909
 2572TIP3    H129351   5.077   6.801   1.821  1.0149 -0.1167 -2.0550
 2572TIP3    H229352   4.992   6.677   1.807  0.8520 -0.2700 -0.0469
 2573TIP3   OH229353   0.033   1.129   7.851  0.0998 -0.1660  0.0628
 2573TIP3    H129354   0.032   1.224   7.849  0.5337 -0.0682  1.9728
 2573TIP3    H229355  -0.036   1.106   7.914 -0.8226 -1.1857 -1.2657
 2574TIP3   OH229356   0.962   6.647   1.110  0.3405 -0.8246 -0.2808
 2574TIP3    H129357   0.903   6.595   1.055 -1.5626  0.5583  0.3241
 2574TIP3    H229358   0.938   6.623   1.199 -0.5619  0.9744  0.0131
 2575TIP3   OH229359   0.036   2.957   0.711 -0.7384 -0.2901  0.3093
 2575TIP3    H129360  -0.025   2.945   0.638 -1.3584  1.0727  0.5619
 2575TIP3    H229361   0.025   3.049   0.736 -0.1602 -0.5953  1.7853
 2576TIP3   OH229362   4.831   3.265   0.071  0.5410 -0.1576 -0.0803
 2576TIP3    H129363   4.879   3.302  -0.003  2.4455  3.2577  2.5844
 2576TIP3    H229364   4.812   3.340   0.127 -0.2199 -2.6004  3.2258
 2577TIP3   OH229365   5.115   1.303   0.056 -0.2057 -0.3093 -0.2161
 2577TIP3    H129366   5.118   1.297  -0.040 -0.8254 -0.0474 -0.2569
 2577TIP3    H229367   5.039   1.359   0.074  0.0832 -0.1132  0.4203
 2578TIP3   OH229368   2.980   3.037   7.426  0.5751 -0.3383  0.4981
 2578TIP3    H129369   2.996   2.970   7.492  2.4892 -0.9685 -0.5115
 2578TIP3    H229370   3.057   3.094   7.431  1.7232 -1.4574 -2.3441
 2579TIP3   OH229371   2.826   4.226   8.118  0.5751 -0.1362  0.7120
 2579TIP3    H129372   2.900   4.250   8.173  0.6173  0.2842  0.4679
 2579TIP3    H229373   2.865   4.189   8.039  0.5490  1.1356  0.0898
 2580TIP3   OH229374   1.218   1.068   0.634  0.1561 -0.0392 -0.6694
 2580TIP3    H129375   1.192   0.976   0.623 -2.2436  0.2911  1.3981
 2580TIP3    H229376   1.220   1.103   0.544 -0.0568 -1.8076 -1.4027
 2581TIP3   OH229377   1.330   3.512   7.492  0.1509  0.2552 -0.0635
 2581TIP3    H129378   1.271   3.586   7.502  1.6823  1.4343  0.5621
 2581TIP3    H229379   1.357   3.490   7.582 -0.2079 -1.0170 -0.2449
 2582TIP3   OH229380   1.199   1.263   1.113  0.6373  0.6702  0.0126
 2582TIP3    H129381   1.222   1.207   1.039 -0.2271  0.9906 -0.5171
 2582TIP3    H229382   1.232   1.216   1.189 -0.3893 -0.7769 -0.3822
 2583TIP3   OH229383   1.865   1.692   1.652  0.4099  0.0808 -0.3538
 2583TIP3    H129384   1.936   1.718   1.593 -0.5586  0.4455 -1.4018
 2583TIP3    H229385   1.902   1.621   1.704  1.1183 -0.7078 -1.8543
 2584TIP3   OH229386   4.205   3.840   8.559  0.1218 -0.2719  0.0220
 2584TIP3    H129387   4.295   3.863   8.581 -0.0733  0.7431 -0.1683
 2584TIP3    H229388   4.154   3.867   8.636  0.0449 -1.4150  0.3864
 2585TIP3   OH229389   4.891   1.870   7.379 -0.0440  0.4221  0.0869
 2585TIP3    H129390   4.974   1.831   7.407 -0.7702 -1.9355 -0.8099
 2585TIP3    H229391   4.824   1.820   7.426 -1.0143  1.9838  0.4382
 2586TIP3   OH229392   2.264   2.980   7.166  0.6794  0.1851 -0.2522
 2586TIP3    H129393   2.339   2.980   7.107  0.8055  2.0207 -0.1339
 2586TIP3    H229394   2.204   2.915   7.129  1.7000 -0.2777 -1.1345
 2587TIP3   OH229395   0.411   1.974   0.916 -0.0154 -0.4091 -0.3678
 2587TIP3    H129396   0.455   2.026   0.984  0.7626 -0.6540 -0.6736
 2587TIP3    H229397   0.482   1.938   0.864 -0.6046 -0.3768 -1.2064
 2588TIP3   OH229398   2.180   4.189   0.739 -0.6720 -0.2627  0.4588
 2588TIP3    H129399   2.147   4.138   0.665 -3.4760  0.2070  1.2641
 2588TIP3    H229400   2.174   4.280   0.710 -0.4695 -0.1472  0.7719
 2589TIP3   OH229401   4.777   0.354   8.129 -0.0291  0.8066 -0.3279
 2589TIP3    H129402   4.726   0.434   8.114 -0.2531  0.3472 -2.2002
 2589TIP3    H229403   4.780   0.311   8.044  0.9507 -0.6923  0.4265
 2590TIP3   OH229404   2.757   0.953   0.833 -0.3050 -0.1380  0.4640
 2590TIP3    H129405   2.755   1.036   0.785  0.3821 -1.8118 -2.6664
 2590TIP3    H229406   2.819   0.969   0.904  1.9542  1.2803 -1.6859
 2591TIP3   OH229407   6.196   2.675   1.499 -0.1418  0.2142  0.1690
 2591TIP3    H129408   6.162   2.640   1.582 -0.2794 -1.5986 -0.6051
 2591TIP3    H229409   6.120   2.676   1.440  0.1312  0.6984 -0.1768
 2592TIP3   OH229410   1.466   0.541   7.457 -0.0422  0.2201  0.3509
 2592TIP3    H129411   1.500   0.607   7.518  1.4204 -0.2334  0.0497
 2592TIP3    H229412   1.460   0.587   7.373 -0.8738  0.4893  0.5411
 2593TIP3   OH229413   3.034   5.414   0.391 -0.0773 -0.1536 -0.0066
 2593TIP3    H129414   3.049   5.435   0.483 -2.9373  0.3012  0.4337
 2593TIP3    H229415   3.030   5.499   0.347  1.2431 -0.3662 -0.6095
 2594TIP3   OH229416   4.506   3.511   1.186  0.2602  0.2062  0.0782
 2594TIP3    H129417   4.559   3.443   1.145  0.2820  0.7619 -0.8396
 2594TIP3    H229418   4.430   3.464   1.221  0.3432 -0.3119 -0.4183
 2595TIP3   OH229419   6.551   2.617   7.736  0.8911  0.2636 -0.3295
 2595TIP3    H129420   6.623   2.647   7.791  1.7320 -1.9867 -0.1031
 2595TIP3    H229421   6.483   2.683   7.748  1.6055  0.6534  2.1973
 2596TIP3   OH229422   5.391   2.792   6.559  0.1963 -0.1370  0.5489
 2596TIP3    H129423   5.329   2.719   6.551 -1.0602  0.5715  2.8093
 2596TIP3    H229424   5.350   2.864   6.511  0.7973 -0.5340 -0.5717
 2597TIP3   OH229425   0.789   3.457   6.223 -0.7864 -0.8549 -0.3668
 2597TIP3    H129426   0.776   3.446   6.128  0.2654 -1.2102 -0.4846
 2597TIP3    H229427   0.883   3.445   6.235 -1.0919 -2.2798  0.9094
 2598TIP3   OH229428   6.477   6.376   8.349  0.5101  0.1904  0.5391
 2598TIP3    H129429   6.411   6.310   8.369  1.3548 -1.3529 -1.4863
 2598TIP3    H229430   6.431   6.440   8.295  0.6304 -0.9323 -0.9553
 2599TIP3   OH229431   0.336   5.980   0.384  0.2311  0.5021  0.0562
 2599TIP3    H129432   0.354   5.962   0.292  0.7087  1.2254  0.0023
 2599TIP3    H229433   0.422   5.987   0.425  0.0179 -0.2689  0.6557
 2600TIP3   OH229434   6.056   3.521   0.662 -0.0578  0.3749 -0.0222
 2600TIP3    H129435   6.118   3.522   0.588  0.7273 -1.2463  0.5618
 2600TIP3    H229436   6.003   3.442   0.647 -0.1791  0.2744  0.9006
 2601TIP3   OH229437   5.462   3.708   1.044  0.3172  0.0327  0.3107
 2601TIP3    H129438   5.489   3.800   1.045  0.4630 -0.0170  1.1042
 2601TIP3    H229439   5.367   3.711   1.049  0.2042  0.1739 -1.2915
 2602TIP3   OH229440   5.948   5.598   2.532 -0.1163  0.0292 -0.0686
 2602TIP3    H129441   5.992   5.567   2.453  1.0287  3.0945 -0.7792
 2602TIP3    H229442   5.879   5.656   2.500 -1.0307 -0.3293  1.1684
 2603TIP3   OH229443   4.004   4.220   0.127 -0.0504 -0.9759  0.3175
 2603TIP3    H129444   4.022   4.269   0.047 -1.0765 -2.5287 -0.9384
 2603TIP3    H229445   4.078   4.239   0.185  1.9040 -1.5220 -1.8361
 2604TIP3   OH229446   0.909   4.843   0.517 -0.0244 -0.4795 -0.6912
 2604TIP3    H129447   0.902   4.889   0.601 -2.8776 -1.3570 -0.3482
 2604TIP3    H229448   0.819   4.820   0.495  0.8811 -2.2158 -2.9291
 2605TIP3   OH229449   5.592   1.329   7.697  0.1575 -0.3536 -0.5789
 2605TIP3    H129450   5.549   1.354   7.779 -1.7563 -1.6246 -1.1411
 2605TIP3    H229451   5.614   1.237   7.709  2.1043  0.0731 -0.6096
 2606TIP3   OH229452   4.355   0.986   1.947 -0.0810 -0.4642 -0.4374
 2606TIP3    H129453   4.336   0.936   1.867  0.9977 -0.9280 -0.4301
 2606TIP3    H229454   4.286   1.052   1.951 -0.5267 -0.8433 -1.4057
 2607TIP3   OH229455   3.077   1.542   7.461  0.5671  0.3265  0.1435
 2607TIP3    H129456   3.059   1.602   7.533  2.0423 -0.7279  1.4467
 2607TIP3    H229457   2.994   1.536   7.414 -0.2962  1.4487  1.4418
 2608TIP3   OH229458   0.290   0.465   0.982  0.2743  0.0874 -0.0490
 2608TIP3    H129459   0.302   0.502   0.895 -1.9570  0.6786 -0.1602
 2608TIP3    H229460   0.344   0.386   0.982  0.0052 -0.1464 -2.1121
 2609TIP3   OH229461   3.801   1.846   0.003  0.2837  0.3702 -0.0907
 2609TIP3    H129462   3.849   1.833   0.084 -0.3458 -1.3839  0.0444
 2609TIP3    H229463   3.867   1.840  -0.066  0.7629  1.5116  0.2440
 2610TIP3   OH229464   4.095   0.821   8.396  0.3675 -0.4030  0.4822
 2610TIP3    H129465   4.137   0.849   8.477 -1.1634 -0.6360  1.4054
 2610TIP3    H229466   4.055   0.901   8.361  0.5026 -0.4220  0.2819
 2611TIP3   OH229467   0.314   4.326   8.506  0.0123  0.0257  0.1145
 2611TIP3    H129468   0.230   4.285   8.528 -0.7224  1.2286 -0.3763
 2611TIP3    H229469   0.376   4.285   8.566 -1.0408 -0.3802  0.9738
 2612TIP3   OH229470   1.204   1.998   8.083  0.4633  0.3499 -0.1266
 2612TIP3    H129471   1.132   1.972   8.140 -0.2740 -1.0853 -1.6305
 2612TIP3    H229472   1.171   2.075   8.036  0.5718  0.7114  0.3742
 2613TIP3   OH229473   6.278   4.922   8.271 -0.0445 -0.2239 -0.5411
 2613TIP3    H129474   6.349   4.983   8.250 -1.1505  1.7626  1.1014
 2613TIP3    H229475   6.225   4.919   8.191  0.1832  0.7626 -0.7377
 2614TIP3   OH229476   6.050   0.477   8.438  0.0349  0.6250 -0.1868
 2614TIP3    H129477   6.062   0.407   8.502 -0.5522  0.7581  0.0771
 2614TIP3    H229478   6.135   0.522   8.435  0.3047  0.1297 -0.0899
 2615TIP3   OH229479   4.674   1.536   0.657  0.5682  0.3385  0.0123
 2615TIP3    H129480   4.757   1.555   0.701  0.5464 -0.2268  0.3066
 2615TIP3    H229481   4.687   1.450   0.617 -0.0073  0.0550  0.4128
 2616TIP3   OH229482   0.290   2.978   0.866  0.0654  0.2105 -0.1887
 2616TIP3    H129483   0.227   2.933   0.809  0.1841 -1.1606  0.7344
 2616TIP3    H229484   0.323   2.910   0.924 -0.0917  1.5664  1.5671
 2617TIP3   OH229485   5.123   4.013   8.541  0.2120  0.3898 -0.2290
 2617TIP3    H129486   5.123   4.099   8.500  1.7735 -0.3846 -2.0146
 2617TIP3    H229487   5.162   3.955   8.476  1.5046 -1.2105  1.8197
 2618TIP3   OH229488   3.400   6.552   0.230 -0.2801  0.1455 -0.1586
 2618TIP3    H129489   3.482   6.504   0.239 -0.0915  0.6168  0.7624
 2618TIP3    H229490   3.342   6.492   0.183  0.4087 -0.4059 -0.3192
 2619TIP3   OH229491   3.409   0.847   0.664  0.5236 -0.2144 -0.3470
 2619TIP3    H129492   3.361   0.868   0.744  0.4091 -0.0449 -0.4581
 2619TIP3    H229493   3.362   0.894   0.595  1.6218  1.0558 -0.2784
 2620TIP3   OH229494   0.294   5.807   6.920 -0.0939  0.2966  0.0284
 2620TIP3    H129495   0.289   5.724   6.967 -0.2121  0.9977  1.3034
 2620TIP3    H229496   0.325   5.870   6.986 -0.8778  1.4384 -0.6577
 2621TIP3   OH229497   2.632   1.993   7.942  0.5336 -0.4275  0.0506
 2621TIP3    H129498   2.548   2.038   7.931 -0.1472 -1.1709  1.8430
 2621TIP3    H229499   2.611   1.900   7.927  0.3939 -0.9688  2.9806
 2622TIP3   OH229500   1.823   5.423   0.824  0.2330 -0.6506  0.4039
 2622TIP3    H129501   1.750   5.376   0.784  0.3074 -0.3444 -0.0956
 2622TIP3    H229502   1.901   5.382   0.787  0.3090 -0.6528  0.5654
 2623TIP3   OH229503   3.854   4.066   1.126 -0.2858 -0.3363  0.1948
 2623TIP3    H129504   3.916   4.017   1.072  0.4302  2.3326 -1.5826
 2623TIP3    H229505   3.771   4.060   1.079 -0.7716 -1.5772  1.1363
 2624TIP3   OH229506   3.280   4.665   1.268  0.1596  0.0693 -0.6894
 2624TIP3    H129507   3.186   4.643   1.269 -0.0876  1.0574  0.6664
 2624TIP3    H229508   3.289   4.731   1.200  0.0397 -0.6004 -1.3790
 2625TIP3   OH229509   3.176   2.001   2.481 -0.2024  0.6169 -0.3104
 2625TIP3    H129510   3.207   1.939   2.415  0.8983  0.1865  0.5842
 2625TIP3    H229511   3.106   1.954   2.527  0.8192 -0.1086  0.5529
 2626TIP3   OH229512   2.924   0.710   0.082  0.0860  0.3055 -0.6497
 2626TIP3    H129513   2.832   0.724   0.105  0.1493 -2.6369  2.1229
 2626TIP3    H229514   2.925   0.707  -0.014 -2.6308  0.7597 -0.7673
 2627TIP3   OH229515   4.924   2.145   0.513  0.0247 -0.2126 -0.3253
 2627TIP3    H129516   4.977   2.194   0.576 -0.3038  0.8859 -0.8825
 2627TIP3    H229517   4.986   2.119   0.445 -0.0869  0.8342 -0.8384
 2628TIP3   OH229518   0.010   0.732   8.531 -0.2092 -0.4951 -0.2096
 2628TIP3    H129519  -0.042   0.653   8.515 -0.6463 -0.3436  0.4284
 2628TIP3    H229520  -0.016   0.792   8.461 -0.5263 -0.5968 -0.1789
 2629TIP3   OH229521   1.417   2.131   1.015  0.1271 -0.3588 -0.1498
 2629TIP3    H129522   1.421   2.037   0.998  1.3383 -0.2977 -0.3153
 2629TIP3    H229523   1.450   2.172   0.934 -0.0933  0.1962  0.0326
 2630TIP3   OH229524   3.519   5.684   7.840  0.2990  0.1786  0.3530
 2630TIP3    H129525   3.546   5.773   7.862  0.1900  0.7056 -1.4341
 2630TIP3    H229526   3.439   5.670   7.891 -0.3003  1.5521 -0.1397
 2631TIP3   OH229527   0.251   4.242   7.722 -0.0643  0.1333  0.2081
 2631TIP3    H129528   0.225   4.208   7.636  0.5529 -0.4137  0.2304
 2631TIP3    H229529   0.184   4.307   7.743 -1.2739 -1.0667  0.1568
 2632TIP3   OH229530   2.312   2.939   2.128 -0.4684 -0.2037  0.0519
 2632TIP3    H129531   2.292   3.005   2.195  0.0003  0.3727 -0.3645
 2632TIP3    H229532   2.257   2.964   2.053  1.0602  0.8617 -0.7795
 2633TIP3   OH229533   6.306   3.075   2.281 -0.5472 -0.2951  0.0426
 2633TIP3    H129534   6.219   3.086   2.321 -0.5469  0.0328 -0.0387
 2633TIP3    H229535   6.306   2.986   2.248 -0.4065 -0.7139  1.1190
 2634TIP3   OH229536   3.514   1.364   7.140  0.6360  0.2727 -0.2495
 2634TIP3    H129537   3.532   1.343   7.049  0.6769  3.0242 -0.9457
 2634TIP3    H229538   3.508   1.460   7.143 -0.9652  0.2031  2.3397
 2635TIP3   OH229539   3.995   1.478   1.916 -0.1841 -0.0030 -0.4426
 2635TIP3    H129540   4.034   1.459   1.830  2.3767 -0.2034  0.6645
 2635TIP3    H229541   3.981   1.573   1.915  0.8191  0.1541 -0.7190
 2636TIP3   OH229542   5.259   2.613   0.483 -1.0012 -0.6966 -0.1037
 2636TIP3    H129543   5.245   2.645   0.572 -1.3183 -0.3092 -0.2871
 2636TIP3    H229544   5.325   2.545   0.492  0.4462  0.6946  0.1912
 2637TIP3   OH229545   2.263   4.341   1.131 -0.3889  0.7016 -0.1444
 2637TIP3    H129546   2.177   4.303   1.115 -0.6365 -0.6436  3.5063
 2637TIP3    H229547   2.325   4.275   1.100 -0.7154  0.2628  0.1388
 2638TIP3   OH229548   3.598   0.761   1.558 -0.0533 -0.0307 -0.5235
 2638TIP3    H129549   3.515   0.803   1.530 -0.1799 -0.1813 -0.3723
 2638TIP3    H229550   3.592   0.672   1.525  0.3303  0.1389 -1.0689
 2639TIP3   OH229551   4.235   3.545   1.872  0.1843  0.0921  0.2580
 2639TIP3    H129552   4.283   3.606   1.816 -0.5290 -1.3480 -2.0870
 2639TIP3    H229553   4.174   3.600   1.921  0.7457  1.4325 -0.5008
 2640TIP3   OH229554   5.695   0.074   8.096 -0.1692 -0.4366 -0.3123
 2640TIP3    H129555   5.639   0.031   8.032 -0.5091  0.4990 -0.6659
 2640TIP3    H229556   5.644   0.073   8.177 -0.6270  0.2391 -0.5842
 2641TIP3   OH229557   1.038   0.397   7.745  0.1722 -0.1124  0.3214
 2641TIP3    H129558   1.050   0.382   7.651 -1.8463 -0.5598  0.0871
 2641TIP3    H229559   0.959   0.451   7.751 -1.1670 -2.0716  1.8167
 2642TIP3   OH229560   5.035   4.590   1.890 -0.6776  0.2618 -0.6046
 2642TIP3    H129561   4.952   4.549   1.865 -2.1552  1.9337  1.1593
 2642TIP3    H229562   5.078   4.525   1.947 -1.1413 -0.3132 -0.9008
 2643TIP3   OH229563   0.364   4.810   7.249 -0.5110  0.3830  0.7392
 2643TIP3    H129564   0.362   4.730   7.197 -0.6424  0.9943 -0.2134
 2643TIP3    H229565   0.358   4.880   7.185  2.9045  1.3030  1.2429
 2644TIP3   OH229566   5.366   5.103   7.185 -0.2122  0.1033  0.0272
 2644TIP3    H129567   5.355   5.100   7.280  0.8348  0.7019  0.1858
 2644TIP3    H229568   5.282   5.136   7.152 -0.9701 -1.1389  0.6399
 2645TIP3   OH229569   1.696   1.664   7.471  0.2218 -0.0392  0.1853
 2645TIP3    H129570   1.611   1.707   7.461 -0.3525 -1.5020 -2.1732
 2645TIP3    H229571   1.759   1.725   7.431 -0.6040 -1.2017 -3.2795
 2646TIP3   OH229572   2.257   1.236   7.470 -0.2059  0.2726 -0.2319
 2646TIP3    H129573   2.172   1.226   7.427  0.0617 -1.7495 -0.3985
 2646TIP3    H229574   2.269   1.154   7.518  1.5519  0.6128 -0.0274
 2647TIP3   OH229575   1.817   6.394   8.050  0.0589 -0.3552 -0.2805
 2647TIP3    H129576   1.889   6.385   8.112 -0.7494 -1.9053  0.4751
 2647TIP3    H229577   1.745   6.430   8.101 -0.8043 -2.2220 -0.1146
 2648TIP3   OH229578   5.929   4.887   1.355 -0.4747  0.0991 -0.1903
 2648TIP3    H129579   5.969   4.961   1.310 -2.1818  0.8584 -0.5438
 2648TIP3    H229580   5.898   4.923   1.438 -1.5933 -0.1307 -0.4937
 2649TIP3   OH229581   3.002   1.021   7.689 -0.4580  0.2988  0.0522
 2649TIP3    H129582   3.065   1.085   7.722  0.3494  2.1059 -4.3794
 2649TIP3    H229583   2.919   1.069   7.682 -0.4077  0.2482 -1.1597
 2650TIP3   OH229584   5.689   0.891   0.910 -0.4826  0.3677 -0.2055
 2650TIP3    H129585   5.677   0.852   0.997 -1.2603 -0.1244 -0.5154
 2650TIP3    H229586   5.676   0.985   0.924  0.1225  0.3786  0.3328
 2651TIP3   OH229587   5.525   5.614   1.851  0.4243  0.9851 -0.2450
 2651TIP3    H129588   5.491   5.543   1.907 -0.4773  0.3788 -1.4976
 2651TIP3    H229589   5.620   5.601   1.850  0.3716  0.5005  0.4792
 2652TIP3   OH229590   6.509   3.863   7.909  0.0924  0.2936  0.0241
 2652TIP3    H129591   6.454   3.838   7.984  1.7478  2.2138  2.0347
 2652TIP3    H229592   6.519   3.783   7.859 -1.9443 -0.8407  1.2750
 2653TIP3   OH229593   0.033   3.247   0.540 -0.1048  1.1208 -0.1359
 2653TIP3    H129594   0.036   3.299   0.620 -0.7206 -0.2031  0.7835
 2653TIP3    H229595   0.118   3.263   0.498  1.3992 -0.2213  2.1771
 2654TIP3   OH229596   2.611   2.282   7.406 -0.8187 -0.2786  0.2139
 2654TIP3    H129597   2.571   2.358   7.364 -0.0256  0.2908  0.4833
 2654TIP3    H229598   2.557   2.208   7.377 -0.3742  0.1094 -1.7438
 2655TIP3   OH229599   4.020   6.088   2.175 -0.4617  0.2772 -0.7255
 2655TIP3    H129600   4.054   6.102   2.087  2.0143  0.2041  0.1285
 2655TIP3    H229601   4.041   5.996   2.194  1.0720  0.8485  0.6666
 2656TIP3   OH229602   4.100   3.107   7.465 -0.1203 -0.2157 -0.0794
 2656TIP3    H129603   4.020   3.159   7.458 -0.9837 -1.5084 -0.1041
 2656TIP3    H229604   4.095   3.045   7.392  0.5401 -0.7815  0.3376
 2657TIP3   OH229605   1.884   1.140   0.583 -0.6271  0.5324  0.2341
 2657TIP3    H129606   1.893   1.054   0.623  1.7003 -0.6674 -2.6097
 2657TIP3    H229607   1.836   1.125   0.502 -0.9201  2.0990  0.0726
 2658TIP3   OH229608   1.268   5.884   7.715  0.3396 -0.4458 -0.0653
 2658TIP3    H129609   1.175   5.869   7.731  0.3937  0.7334  1.5124
 2658TIP3    H229610   1.275   5.893   7.620 -1.2663  0.1418 -0.1467
 2659TIP3   OH229611   6.021   4.631   6.383 -0.1247 -0.1101  0.6071
 2659TIP3    H129612   6.019   4.610   6.476 -1.0324 -1.8500  0.2445
 2659TIP3    H229613   6.082   4.705   6.376  0.3143 -0.2398  2.4987
 2660TIP3   OH229614   1.731   2.252   2.044  0.1131 -0.9875  0.6388
 2660TIP3    H129615   1.724   2.213   2.131 -0.3158 -3.0268 -0.2395
 2660TIP3    H229616   1.815   2.219   2.010  0.9571  0.9225  0.7725
 2661TIP3   OH229617   2.539   4.472   7.737 -0.5402  0.1923  0.1559
 2661TIP3    H129618   2.606   4.461   7.805  0.0768 -0.1217 -0.4967
 2661TIP3    H229619   2.461   4.430   7.773  0.2900 -1.6033 -0.0713
 2662TIP3   OH229620   3.399   5.200   7.430 -0.1559 -0.0802 -0.0662
 2662TIP3    H129621   3.405   5.178   7.523 -1.7531 -0.5201 -0.0485
 2662TIP3    H229622   3.415   5.117   7.385 -0.7466 -0.1509 -0.1459
 2663TIP3   OH229623   0.417   3.690   7.897  0.2607 -0.0953  0.3505
 2663TIP3    H129624   0.335   3.701   7.946  0.3883 -0.8525  0.7358
 2663TIP3    H229625   0.445   3.601   7.916 -0.0991 -0.7219 -1.7259
 2664TIP3   OH229626   1.386   4.761   7.918  0.4350  0.6069 -0.1559
 2664TIP3    H129627   1.341   4.678   7.901  2.2839 -0.7829  1.1855
 2664TIP3    H229628   1.377   4.773   8.013 -0.7746  2.6023 -0.4677
 2665TIP3   OH229629   1.636   3.732   8.083  0.2907  0.2978  0.0195
 2665TIP3    H129630   1.599   3.665   8.140  0.6186  1.1013  1.2024
 2665TIP3    H229631   1.621   3.699   7.994 -3.2128  0.4877  0.3720
 2666TIP3   OH229632   6.920   3.490   0.946  0.2531  0.3281 -0.2657
 2666TIP3    H129633   7.004   3.447   0.967 -0.4707 -0.8688  0.3438
 2666TIP3    H229634   6.859   3.453   1.010 -0.8804  0.7040 -1.1128
 2667TIP3   OH229635   2.885   1.231   1.548 -0.2814  0.5201  0.0385
 2667TIP3    H129636   2.909   1.324   1.556  0.9355  0.2006  0.3015
 2667TIP3    H229637   2.831   1.214   1.625 -0.0695  0.8788  0.2718
 2668TIP3   OH229638   6.057   5.145   7.279 -0.5778  0.0971 -0.4772
 2668TIP3    H129639   6.076   5.209   7.348 -0.1534 -0.7263  0.1881
 2668TIP3    H229640   6.128   5.156   7.217 -0.0802 -0.2422  0.0205
 2669TIP3   OH229641   3.922   3.285   7.351 -0.3818  0.1039 -0.4580
 2669TIP3    H129642   3.845   3.228   7.351 -0.6155  0.2034 -4.0550
 2669TIP3    H229643   3.886   3.373   7.340  0.1714  0.4500  0.4326
 2670TIP3   OH229644   2.324   3.629   7.505  0.1191  0.3831 -0.0498
 2670TIP3    H129645   2.399   3.640   7.562 -0.7860 -1.0489  1.5206
 2670TIP3    H229646   2.315   3.712   7.460  3.5297  0.1573 -1.4727
 2671TIP3   OH229647   4.123   2.605   8.475  0.7307  0.1245 -0.0507
 2671TIP3    H129648   4.088   2.536   8.530 -0.3849  0.1714 -0.6688
 2671TIP3    H229649   4.209   2.574   8.448  0.0427 -1.2528 -0.7259
 2672TIP3   OH229650   2.085   5.953   1.813  0.0507 -0.1360 -0.1660
 2672TIP3    H129651   2.174   5.990   1.819  1.0140 -2.1867 -0.8779
 2672TIP3    H229652   2.051   5.958   1.902  1.5236 -0.7632  0.4659
 2673TIP3   OH229653   5.715   3.117   0.906  1.0676 -0.1456  0.3610
 2673TIP3    H129654   5.671   3.136   0.989 -0.0494 -0.7317 -0.0705
 2673TIP3    H229655   5.744   3.026   0.914 -1.3840 -1.1219 -0.8216
 2674TIP3   OH229656   2.979   5.448   8.000 -0.1496  0.1013 -0.0751
 2674TIP3    H129657   2.943   5.532   8.029  0.2405  0.6863 -1.1823
 2674TIP3    H229658   2.956   5.443   7.907  0.3890 -0.7154 -0.1806
 2675TIP3   OH229659   1.023   6.708   0.700  0.6038  0.6097 -0.1792
 2675TIP3    H129660   1.074   6.688   0.779  1.5219  2.3302 -0.2870
 2675TIP3    H229661   0.952   6.763   0.731  1.8095  2.5357 -0.7041
 2676TIP3   OH229662   4.554   5.849   7.489  0.4932 -0.2553  0.5178
 2676TIP3    H129663   4.556   5.944   7.483 -0.3844 -0.0955  2.1898
 2676TIP3    H229664   4.641   5.825   7.518  0.4358  0.1215  1.0082
 2677TIP3   OH229665   0.787   2.581   1.349 -0.3656 -0.1699 -0.0100
 2677TIP3    H129666   0.756   2.663   1.386  0.8926  0.2263  0.2264
 2677TIP3    H229667   0.709   2.526   1.342 -0.7637 -0.0394  2.6090
 2678TIP3   OH229668   3.859   1.352   2.257 -0.9482 -0.6716  0.7645
 2678TIP3    H129669   3.851   1.382   2.348  2.7767  1.0077  0.6996
 2678TIP3    H229670   3.835   1.428   2.204  0.9406 -0.2423  0.4686
 2679TIP3   OH229671   4.936   3.896   1.340  0.0856 -0.1316 -0.3099
 2679TIP3    H129672   4.904   3.864   1.424 -1.6545  2.2758  0.0598
 2679TIP3    H229673   4.951   3.990   1.354  0.9046  0.1080 -2.3863
 2680TIP3   OH229674   6.105   2.059   7.472 -0.5013  0.0394 -0.2432
 2680TIP3    H129675   6.116   2.097   7.559  0.0425 -0.1219 -0.2387
 2680TIP3    H229676   6.092   1.966   7.487  1.3413 -0.2848 -0.4026
 2681TIP3   OH229677   3.134   0.473   0.200 -0.1877 -0.1653  0.3738
 2681TIP3    H129678   3.095   0.414   0.265 -0.8601  0.1297  0.2452
 2681TIP3    H229679   3.094   0.448   0.117 -0.7687  0.7136  0.3769
 2682TIP3   OH229680   5.982   3.268   7.615  0.8458 -0.2163  0.4240
 2682TIP3    H129681   6.049   3.202   7.594  2.1531  0.5488  1.9722
 2682TIP3    H229682   5.945   3.237   7.698  1.2637  0.8171  1.0090
 2683TIP3   OH229683   6.514   4.390   1.556 -0.0817 -0.5796  0.4520
 2683TIP3    H129684   6.552   4.383   1.468  0.6333 -0.2265  0.7231
 2683TIP3    H229685   6.583   4.431   1.608 -1.7582  2.6208  0.3558
 2684TIP3   OH229686   0.042   5.574   1.703  0.0084  0.2725 -0.0157
 2684TIP3    H129687  -0.037   5.546   1.656  0.0118  1.2895 -0.6667
 2684TIP3    H229688   0.114   5.552   1.643  0.0441  1.2213 -0.3426
 2685TIP3   OH229689   0.752   2.318   7.044  0.0106 -0.3498  0.3128
 2685TIP3    H129690   0.667   2.275   7.044 -0.3557  0.3345  1.5764
 2685TIP3    H229691   0.805   2.267   6.982 -0.9369 -1.5053  0.4265
 2686TIP3   OH229692   3.455   4.536   7.105 -0.0268  0.3290  0.0742
 2686TIP3    H129693   3.463   4.471   7.176 -0.4293  1.3120  1.0434
 2686TIP3    H229694   3.374   4.512   7.060 -1.5727  1.5802  1.9894
 2687TIP3   OH229695   4.534   3.223   0.712  0.5915  0.4420  0.7344
 2687TIP3    H129696   4.628   3.243   0.715  0.6600  0.4858 -0.8645
 2687TIP3    H229697   4.505   3.257   0.628 -0.3528 -1.6051  0.1541
 2688TIP3   OH229698   5.760   1.914   1.103  0.4431  0.3130  0.1827
 2688TIP3    H129699   5.749   1.823   1.075 -1.5525  1.1037 -1.9495
 2688TIP3    H229700   5.798   1.958   1.026  1.7636  1.2407  1.3149
 2689TIP3   OH229701   3.104   4.865   8.213  0.2874  0.3876  0.2686
 2689TIP3    H129702   3.072   4.851   8.124  1.7818  0.9349 -0.3819
 2689TIP3    H229703   3.039   4.821   8.268  1.3816 -3.5746 -1.2554
 2690TIP3   OH229704   4.699   4.357   0.821  0.1003 -0.5259  1.2050
 2690TIP3    H129705   4.610   4.373   0.850  1.0718 -1.0641  5.0100
 2690TIP3    H229706   4.710   4.262   0.826 -0.0174 -0.8960 -2.6725
 2691TIP3   OH229707   1.476   1.958   8.336  0.3829  0.7327  0.0093
 2691TIP3    H129708   1.555   1.915   8.367  1.3325  1.3403 -1.4280
 2691TIP3    H229709   1.483   2.048   8.369  1.0602  1.1920 -1.3044
 2692TIP3   OH229710   3.717   4.372   7.981 -0.0474  0.3551 -0.0588
 2692TIP3    H129711   3.667   4.313   8.037 -0.4162  0.0407 -0.7048
 2692TIP3    H229712   3.798   4.389   8.030 -0.7359  0.8116  0.9621
 2693TIP3   OH229713   6.693   1.216   1.403 -0.2629 -0.4034 -0.1211
 2693TIP3    H129714   6.633   1.145   1.382  0.6565 -1.3923  0.5142
 2693TIP3    H229715   6.717   1.253   1.318  0.1738 -1.6430 -0.5574
 2694TIP3   OH229716   4.874   6.782   2.794  0.3628 -0.4159 -0.0200
 2694TIP3    H129717   4.943   6.752   2.735 -0.4961  1.2142 -1.9735
 2694TIP3    H229718   4.816   6.706   2.803  0.9191 -0.9235 -0.6339
 2695TIP3   OH229719   4.304   2.929   8.144 -0.1273  0.0136  0.2765
 2695TIP3    H129720   4.213   2.957   8.158 -0.0640  0.4127 -0.0678
 2695TIP3    H229721   4.340   2.996   8.084  0.0100 -0.8576 -0.6411
 2696TIP3   OH229722   3.938   5.471   0.430 -0.3711  0.1145  0.4722
 2696TIP3    H129723   4.033   5.485   0.423 -0.1870 -1.0819  0.2437
 2696TIP3    H229724   3.902   5.517   0.354 -0.0470  1.1080  0.9069
 2697TIP3   OH229725   4.842   4.103   8.063  0.1248  0.6345 -1.0972
 2697TIP3    H129726   4.770   4.054   8.104  1.3085 -0.0712  0.1983
 2697TIP3    H229727   4.867   4.050   7.988  1.6733 -1.0494  0.5277
 2698TIP3   OH229728   1.827   4.229   0.256 -0.0620  0.3988 -0.4330
 2698TIP3    H129729   1.866   4.205   0.172 -0.8570 -0.7728 -0.4932
 2698TIP3    H229730   1.892   4.287   0.297  0.8279  0.1019 -1.3764
 2699TIP3   OH229731   0.774   0.976   7.401 -0.2269  0.1021  0.0001
 2699TIP3    H129732   0.711   1.045   7.376  0.0265  0.5226  0.5062
 2699TIP3    H229733   0.728   0.894   7.383 -1.4579  0.3878  1.6675
 2700TIP3   OH229734   0.983   3.986   0.539  0.0859  0.6871 -0.0667
 2700TIP3    H129735   0.987   4.063   0.482 -0.7594  1.5521  1.0007
 2700TIP3    H229736   1.061   3.992   0.593  0.6896  0.0727 -0.8426
 2701TIP3   OH229737   0.618   5.579   1.140 -0.3830 -0.9805  0.3890
 2701TIP3    H129738   0.699   5.594   1.091 -2.3038  0.0370 -2.7670
 2701TIP3    H229739   0.623   5.639   1.214  1.3197 -0.2884 -0.2379
 2702TIP3   OH229740   5.629   3.043   1.847  0.0581  0.4340  0.0668
 2702TIP3    H129741   5.569   3.116   1.863 -1.9707 -1.2460  0.6997
 2702TIP3    H229742   5.657   3.017   1.935 -2.6773 -2.1506  0.3313
 2703TIP3   OH229743   0.198   6.707   7.568  0.2876  0.1302 -0.0849
 2703TIP3    H129744   0.106   6.684   7.575  0.9327 -2.4450  1.5609
 2703TIP3    H229745   0.199   6.795   7.531 -2.7535 -0.2945 -1.4240
 2704TIP3   OH229746   1.873   2.342   7.105  0.0983 -0.4898  0.1127
 2704TIP3    H129747   1.896   2.391   7.026  2.3076  0.2615  1.1714
 2704TIP3    H229748   1.777   2.338   7.103  0.0633 -0.0023 -2.2855
 2705TIP3   OH229749   4.576   3.932   6.587  0.4030  0.2100  0.1464
 2705TIP3    H129750   4.639   3.866   6.561 -0.6314 -0.1811 -1.5444
 2705TIP3    H229751   4.604   4.012   6.541 -0.4765 -0.0572 -0.9126
 2706TIP3   OH229752   3.665   1.563   7.328 -0.1107 -0.2745 -0.1298
 2706TIP3    H129753   3.682   1.656   7.319  1.0946 -0.7026 -3.6359
 2706TIP3    H229754   3.738   1.530   7.381 -0.8911  0.7754  1.6891
 2707TIP3   OH229755   4.454   1.003   2.604  0.2015  0.2455 -0.3537
 2707TIP3    H129756   4.548   1.005   2.582  0.2473  0.2527 -0.1585
 2707TIP3    H229757   4.411   0.977   2.523  0.5259 -1.5005 -0.0028
 2708TIP3   OH229758   2.734   1.892   0.254 -0.3038 -0.0244  0.1291
 2708TIP3    H129759   2.652   1.941   0.248  0.2066  0.8628  0.2325
 2708TIP3    H229760   2.795   1.952   0.299  0.2828 -0.8205  0.4275
 2709TIP3   OH229761   1.079   2.364   0.750 -0.6144 -0.3933  0.8212
 2709TIP3    H129762   1.133   2.334   0.822 -1.8019 -3.0012  0.7516
 2709TIP3    H229763   1.001   2.308   0.753 -0.8542 -0.4187 -2.2911
 2710TIP3   OH229764   0.807   3.842   0.279  0.3988  0.8014 -0.0927
 2710TIP3    H129765   0.863   3.895   0.223 -1.2509  3.9507  0.9934
 2710TIP3    H229766   0.855   3.835   0.362  0.2211  1.4054  0.0606
 2711TIP3   OH229767   3.121   0.268   6.637 -0.0066 -0.4744 -0.3790
 2711TIP3    H129768   3.066   0.343   6.613  0.9794  0.4952  0.3206
 2711TIP3    H229769   3.085   0.195   6.586 -1.0275  0.4507 -1.0277
 2712TIP3   OH229770   1.285   2.865   0.118  0.3851 -0.2610 -0.1836
 2712TIP3    H129771   1.346   2.794   0.138  0.6904  0.2924  0.9576
 2712TIP3    H229772   1.332   2.921   0.056  0.5826 -0.4533 -0.2068
 2713TIP3   OH229773   6.102   2.484   0.197 -0.5429  0.5147 -0.0093
 2713TIP3    H129774   6.057   2.448   0.120  1.0546 -0.7860 -0.3957
 2713TIP3    H229775   6.031   2.515   0.253 -1.9763 -1.7558 -0.4168
 2714TIP3   OH229776   4.373   5.862   7.692 -0.0469  0.8637  0.5275
 2714TIP3    H129777   4.418   5.879   7.610 -0.7015 -1.7587 -0.4848
 2714TIP3    H229778   4.440   5.876   7.760  1.4954 -0.1230 -0.7186
 2715TIP3   OH229779   5.085   3.258   1.231  0.0904  0.3659  0.0116
 2715TIP3    H129780   5.123   3.255   1.319 -0.6986  2.2070  0.4669
 2715TIP3    H229781   5.086   3.167   1.201 -1.4286 -0.6775  2.7203
 2716TIP3   OH229782   1.948   3.932   8.055 -0.5431  0.7122  0.3652
 2716TIP3    H129783   1.973   3.898   7.969 -0.9495  0.6142  0.2823
 2716TIP3    H229784   1.959   3.858   8.115 -0.0375  0.8458  0.4394
 2717TIP3   OH229785   2.095   5.981   7.123  0.0125  0.2793  0.6757
 2717TIP3    H129786   2.100   5.936   7.039  0.4901  0.5303  0.5669
 2717TIP3    H229787   2.185   6.008   7.142  0.0743 -0.6336  1.7514
 2718TIP3   OH229788   4.145   3.215   8.283  0.3861  0.2973 -0.3387
 2718TIP3    H129789   4.204   3.203   8.209 -1.6015 -2.0875 -1.7076
 2718TIP3    H229790   4.174   3.151   8.348 -0.4771 -0.7143 -0.9183
 2719TIP3   OH229791   1.982   0.362   1.631 -0.0694 -0.1599 -0.1989
 2719TIP3    H129792   2.042   0.289   1.647  1.1048  0.7179 -0.4519
 2719TIP3    H229793   1.929   0.334   1.556 -1.3495 -1.7378  1.1980
 2720TIP3   OH229794   0.931   3.908   1.385 -0.3748  0.2510  0.7140
 2720TIP3    H129795   0.909   3.990   1.341 -1.7237 -1.0292 -1.1396
 2720TIP3    H229796   0.909   3.923   1.477 -2.4340  1.3637  0.0926
 2721TIP3   OH229797   3.239   4.494   0.476  0.0086  0.7924 -0.0389
 2721TIP3    H129798   3.181   4.481   0.401  1.0177  1.0715 -0.8901
 2721TIP3    H229799   3.202   4.569   0.522  0.7461  2.2102 -1.6632
 2722TIP3   OH229800   0.857   2.182   0.692 -0.1274 -0.0317  0.1436
 2722TIP3    H129801   0.884   2.108   0.638  1.5268  0.7755 -0.1990
 2722TIP3    H229802   0.763   2.171   0.704 -0.2584 -1.0503 -1.6331
 2723TIP3   OH229803   3.173   6.044   7.356  0.0140  0.6141  0.3280
 2723TIP3    H129804   3.201   6.063   7.445 -0.3208  2.1839  0.1205
 2723TIP3    H229805   3.103   5.979   7.366 -0.0716  0.8328  1.2073
 2724TIP3   OH229806   3.766   3.896   6.794 -0.3665  0.2353 -0.3725
 2724TIP3    H129807   3.719   3.821   6.830  0.2848 -0.5819 -1.1800
 2724TIP3    H229808   3.703   3.968   6.795 -0.8627 -0.1880  0.8434
 2725TIP3   OH229809   2.003   6.690   7.859  0.1715  0.0397 -0.0404
 2725TIP3    H129810   2.035   6.778   7.882  2.1169  0.1091 -2.5616
 2725TIP3    H229811   1.996   6.691   7.764  0.0039 -2.4879 -0.1224
 2726TIP3   OH229812   0.213   3.153   2.049 -0.1032 -0.7218  0.3117
 2726TIP3    H129813   0.178   3.189   2.131  1.5888  0.9316  0.3884
 2726TIP3    H229814   0.199   3.223   1.985  0.5069 -1.1544 -0.3080
 2727TIP3   OH229815   5.911   1.964   8.063 -0.2224 -0.0292  0.2573
 2727TIP3    H129816   5.930   2.041   8.116 -0.5489 -0.8943  1.6986
 2727TIP3    H229817   5.819   1.944   8.082  0.0276 -1.1233  0.4086
 2728TIP3   OH229818   4.161   3.163   1.091 -0.1528  0.2291  0.2459
 2728TIP3    H129819   4.144   3.119   1.174 -0.5390 -0.1349 -0.0182
 2728TIP3    H229820   4.247   3.130   1.064  0.6413  1.4440  1.1860
 2729TIP3   OH229821   2.324   4.974   2.560 -0.6393  0.3052 -0.2579
 2729TIP3    H129822   2.362   4.981   2.473 -0.1599  0.2864 -0.0508
 2729TIP3    H229823   2.356   5.052   2.606 -0.1284 -0.1668  0.1932
 2730TIP3   OH229824   0.816   0.839   1.290 -0.0770 -0.0965  0.2045
 2730TIP3    H129825   0.906   0.808   1.285 -0.1963 -0.2547 -1.5004
 2730TIP3    H229826   0.819   0.927   1.252 -0.9893 -1.0059 -2.1545
 2731TIP3   OH229827   3.918   3.923   0.412  0.1713 -0.5617  0.4369
 2731TIP3    H129828   3.831   3.961   0.402  1.0645  1.3526 -0.5896
 2731TIP3    H229829   3.902   3.835   0.448 -2.1510 -0.2607  0.2868
 2732TIP3   OH229830   2.792   0.731   7.587 -0.5696 -0.5515  0.6132
 2732TIP3    H129831   2.698   0.724   7.607 -1.4867  2.9568 -1.4842
 2732TIP3    H229832   2.824   0.798   7.647  0.2276 -0.6392  0.3006
 2733TIP3   OH229833   3.017   0.283   2.015 -0.4629 -0.1887 -0.2056
 2733TIP3    H129834   3.085   0.248   2.072 -1.4236 -0.9800  0.4740
 2733TIP3    H229835   3.044   0.373   1.999 -0.3986  0.2261  1.9085
 2734TIP3   OH229836   4.233   6.087   6.798  0.0993  0.3400  0.0961
 2734TIP3    H129837   4.273   6.113   6.714  1.1543  1.4949  0.9226
 2734TIP3    H229838   4.156   6.143   6.806  0.3562  0.6877  0.1814
 2735TIP3   OH229839   3.462   6.846   7.168 -0.4768 -0.0009  0.2051
 2735TIP3    H129840   3.548   6.818   7.197  0.6470  0.1333 -2.6303
 2735TIP3    H229841   3.422   6.767   7.131 -0.0544  0.6176 -1.6960
 2736TIP3   OH229842   5.270   4.565   7.592 -0.7613  0.3401 -0.1987
 2736TIP3    H129843   5.290   4.635   7.654  0.9061  1.4689 -1.9115
 2736TIP3    H229844   5.291   4.484   7.639  1.1309  1.1986  0.5059
 2737TIP3   OH229845   3.256   5.504   0.073 -0.0836  0.4207 -0.7824
 2737TIP3    H129846   3.187   5.439   0.089  0.4139 -1.0107 -3.7392
 2737TIP3    H229847   3.245   5.529  -0.018  1.5653  2.3554 -0.5296
 2738TIP3   OH229848   2.644   1.442   7.524 -0.4118  0.0923  0.1985
 2738TIP3    H129849   2.593   1.405   7.452  2.2410  0.1198 -1.8946
 2738TIP3    H229850   2.656   1.534   7.500 -1.5692  0.7723  2.0438
 2739TIP3   OH229851   1.929   1.134   7.682  0.4742  0.7198  0.5840
 2739TIP3    H129852   2.005   1.144   7.739  0.8956  2.0644 -0.1719
 2739TIP3    H229853   1.908   1.223   7.653 -0.4433  0.2039 -0.4362
 2740TIP3   OH229854   1.550   2.181   8.523 -0.1691  0.6443  0.2325
 2740TIP3    H129855   1.603   2.120   8.574 -0.3080  1.3706  1.2727
 2740TIP3    H229856   1.516   2.244   8.587  0.9724  2.5722 -0.9325
 2741TIP3   OH229857   4.231   0.782   7.580 -0.2110 -0.3921  0.7082
 2741TIP3    H129858   4.205   0.848   7.644  1.0423 -0.5308  1.3967
 2741TIP3    H229859   4.290   0.829   7.520  0.5584 -0.8293  1.1059
 2742TIP3   OH229860   3.740   6.826   7.685 -0.3584 -0.2600 -0.2776
 2742TIP3    H129861   3.817   6.786   7.644 -0.0057 -0.1422  0.2512
 2742TIP3    H229862   3.668   6.805   7.627 -0.4934 -2.9972  0.7012
 2743TIP3   OH229863   3.830   3.163   8.529 -0.1202  0.2159 -0.7260
 2743TIP3    H129864   3.911   3.116   8.511 -0.0583  1.1937 -3.4310
 2743TIP3    H229865   3.856   3.235   8.585  1.0090  0.7728 -1.9137
 2744TIP3   OH229866   4.528   0.856   0.054  0.6769 -0.2583  0.0032
 2744TIP3    H129867   4.622   0.858   0.034  0.6244 -1.8197 -0.5691
 2744TIP3    H229868   4.509   0.943   0.089  1.8286  0.9289 -2.1124
 2745TIP3   OH229869   2.832   0.280   7.819  0.4674  0.7634 -0.4774
 2745TIP3    H129870   2.899   0.307   7.882  2.6486 -1.3117 -1.7305
 2745TIP3    H229871   2.865   0.311   7.734  0.2130 -0.8645 -1.1983
 2746TIP3   OH229872   2.325   5.946   1.120 -0.3374  0.1515  1.1049
 2746TIP3    H129873   2.329   5.863   1.168  0.7212 -1.0466 -0.9051
 2746TIP3    H229874   2.242   5.943   1.073  0.5968 -0.7965 -0.5832
 2747TIP3   OH229875   5.680   6.486   7.693 -0.5523 -0.0319  0.4428
 2747TIP3    H129876   5.719   6.555   7.639  0.4914 -0.0010  1.2289
 2747TIP3    H229877   5.669   6.412   7.633 -0.8925  0.5175 -0.1940
 2748TIP3   OH229878   1.088   3.576   0.186 -0.0349 -0.1117  0.0161
 2748TIP3    H129879   1.085   3.646   0.251  0.9829  0.0040 -0.0550
 2748TIP3    H229880   1.137   3.613   0.113  2.1315 -1.4421  0.6865
 2749TIP3   OH229881   4.872   6.021   1.070 -0.3552  0.0533 -0.0023
 2749TIP3    H129882   4.907   6.042   0.984  0.5404 -0.0592  0.3276
 2749TIP3    H229883   4.818   5.943   1.055 -0.0715 -0.0639 -0.4299
 2750TIP3   OH229884   1.230   1.267   1.685  0.2823 -0.1520 -0.0359
 2750TIP3    H129885   1.320   1.239   1.695 -0.2728 -1.8412  0.5745
 2750TIP3    H229886   1.208   1.311   1.767 -0.3109 -2.4239  1.1082
 2751TIP3   OH229887   2.683   0.950   7.381  0.0509  0.0626 -0.0338
 2751TIP3    H129888   2.664   0.998   7.462  0.0571  1.0746 -0.6203
 2751TIP3    H229889   2.598   0.913   7.355 -0.1595  0.5817 -0.0980
 2752TIP3   OH229890   3.496   3.984   7.940  0.0587  0.4248  0.1309
 2752TIP3    H129891   3.514   3.969   8.033 -0.0659 -1.2497 -0.0745
 2752TIP3    H229892   3.562   4.047   7.912  1.3996 -0.5872  0.9028
 2753TIP3   OH229893   1.845   4.477   8.005  0.0701  0.8042  0.6778
 2753TIP3    H129894   1.752   4.494   7.994 -0.0693 -0.7044 -1.0059
 2753TIP3    H229895   1.872   4.534   8.077 -1.8857  2.1261  0.4403
 2754TIP3   OH229896   5.084   4.259   8.152 -0.0027  0.3168  0.0593
 2754TIP3    H129897   5.146   4.196   8.116 -0.1007 -0.5898  1.4051
 2754TIP3    H229898   4.998   4.222   8.132 -0.0674  0.2681  0.4236
 2755TIP3   OH229899   1.744   4.926   6.640  0.9492 -0.2507  0.4448
 2755TIP3    H129900   1.775   4.873   6.567 -0.4089  1.7846 -1.7369
 2755TIP3    H229901   1.662   4.884   6.668  1.7993 -1.4064  1.3300
 2756TIP3   OH229902   1.405   0.656   0.360 -0.3573 -0.0026 -0.1315
 2756TIP3    H129903   1.480   0.689   0.411 -2.1494  0.5176  2.3520
 2756TIP3    H229904   1.421   0.562   0.352  1.0506  0.2489 -0.5491
 2757TIP3   OH229905   6.737   1.004   0.689  0.0770 -0.2491  0.0666
 2757TIP3    H129906   6.708   0.977   0.602 -0.8190 -0.3316  0.3842
 2757TIP3    H229907   6.831   0.983   0.691  0.2352  0.3133 -1.0798
 2758TIP3   OH229908   2.936   3.695   0.291  0.0828 -0.1524 -0.2822
 2758TIP3    H129909   2.922   3.713   0.384  0.0877 -1.2485 -0.0577
 2758TIP3    H229910   2.945   3.782   0.251 -1.8706  0.4265  0.4179
 2759TIP3   OH229911   5.087   1.317   7.978 -0.1361 -0.4550  0.4531
 2759TIP3    H129912   5.011   1.373   7.966  0.6666  0.2557 -1.7242
 2759TIP3    H229913   5.065   1.236   7.933  0.0833 -0.5614  0.5346
 2760TIP3   OH229914   5.005   5.398   2.516 -0.4198  0.5776  0.1690
 2760TIP3    H129915   4.994   5.491   2.537 -1.7816  0.7141 -0.9453
 2760TIP3    H229916   4.940   5.353   2.569 -0.8883  0.4567 -0.4930
 2761TIP3   OH229917   1.550   2.349   0.235  0.2272  0.1733 -0.2995
 2761TIP3    H129918   1.645   2.349   0.223  0.1433 -0.2949 -1.0843
 2761TIP3    H229919   1.537   2.366   0.328  1.1217 -0.9938  0.0600
 2762TIP3   OH229920   4.256   3.216   8.044 -0.1345  0.7022  0.5625
 2762TIP3    H129921   4.216   3.238   7.960  0.9697 -0.0335 -0.1916
 2762TIP3    H229922   4.347   3.246   8.035  0.3044 -0.4331  1.0452
 2763TIP3   OH229923   0.581   1.466   1.941 -0.3025  0.6803 -0.2696
 2763TIP3    H129924   0.582   1.557   1.971 -1.6719  1.1108 -1.3988
 2763TIP3    H229925   0.544   1.471   1.853 -1.4092 -1.0963  0.0589
 2764TIP3   OH229926   6.884   2.509   6.822  0.0684  0.2040 -1.2920
 2764TIP3    H129927   6.954   2.452   6.791  0.6225  0.3997 -0.4299
 2764TIP3    H229928   6.926   2.566   6.887 -1.3548 -1.2527  1.0518
 2765TIP3   OH229929   4.485   5.433   1.674  0.6315  0.1433  0.3592
 2765TIP3    H129930   4.571   5.465   1.701  0.7877  0.0197  0.0099
 2765TIP3    H229931   4.490   5.428   1.579  0.3829 -0.2775  0.3666
 2766TIP3   OH229932   2.797   5.496   0.860  0.3121  0.2515 -0.1049
 2766TIP3    H129933   2.802   5.558   0.933  0.1374  0.8761 -0.6182
 2766TIP3    H229934   2.812   5.549   0.782 -1.4775 -0.0517 -0.6937
 2767TIP3   OH229935   6.108   5.377   1.388 -0.3094 -0.3246 -0.1138
 2767TIP3    H129936   6.020   5.353   1.416 -1.0005 -0.1132 -2.0042
 2767TIP3    H229937   6.159   5.297   1.397 -0.8526 -0.6168  0.3755
 2768TIP3   OH229938   2.531   2.413   0.640  0.3178 -0.2773  0.1136
 2768TIP3    H129939   2.605   2.417   0.701  1.5591  2.3907 -1.3626
 2768TIP3    H229940   2.564   2.360   0.567  0.4980  0.2156 -0.1701
 2769TIP3   OH229941   3.897   6.187   7.853  0.1348 -0.2100 -0.3133
 2769TIP3    H129942   3.928   6.209   7.765  0.3449 -0.4643 -0.3056
 2769TIP3    H229943   3.965   6.130   7.889  1.0523  1.4736  0.7755
 2770TIP3   OH229944   5.906   5.647   0.697  0.8313  0.1375 -0.5083
 2770TIP3    H129945   5.871   5.603   0.775  1.6282  0.4077  0.0251
 2770TIP3    H229946   5.868   5.600   0.623 -1.6177  1.1841  0.0059
 2771TIP3   OH229947   1.270   1.545   8.521  0.1672 -0.6330  0.3511
 2771TIP3    H129948   1.304   1.622   8.477  0.0720 -0.2028  1.0221
 2771TIP3    H229949   1.187   1.574   8.560 -0.4405 -1.3724 -0.3431
 2772TIP3   OH229950   4.469   3.110   1.588 -0.3324 -0.5378 -0.2170
 2772TIP3    H129951   4.533   3.144   1.650  0.3004  0.4102 -1.3402
 2772TIP3    H229952   4.451   3.021   1.618 -0.3122  0.0106  1.4964
 2773TIP3   OH229953   4.094   2.771   1.923  0.5919 -0.5667 -0.5381
 2773TIP3    H129954   4.166   2.757   1.862  0.6639 -0.3669 -0.4990
 2773TIP3    H229955   4.033   2.699   1.905  0.7213 -0.6396 -0.6857
 2774TIP3   OH229956   5.065   3.633   0.189 -0.1172 -0.2461  0.1073
 2774TIP3    H129957   5.000   3.590   0.245  1.4232  0.1649  2.3453
 2774TIP3    H229958   5.054   3.726   0.206 -1.5075  0.1651 -2.5338
 2775TIP3   OH229959   0.781   3.860   6.350 -0.2888  0.2791  0.0062
 2775TIP3    H129960   0.757   3.936   6.402 -0.2505  0.6431 -0.5012
 2775TIP3    H229961   0.871   3.878   6.321 -0.3857  0.1812 -0.3632
 2776TIP3   OH229962   3.993   4.279   7.853 -0.3695  0.0378 -0.1499
 2776TIP3    H129963   4.027   4.364   7.824  1.1039  0.0961  1.5751
 2776TIP3    H229964   4.063   4.217   7.834 -0.6680 -0.4592  0.3188
 2777TIP3   OH229965   5.285   6.895   8.145  0.1953 -0.4641  0.4620
 2777TIP3    H129966   5.250   6.983   8.156  3.7842  1.0427  1.2942
 2777TIP3    H229967   5.282   6.856   8.232  0.7025 -0.2487  0.5805
 2778TIP3   OH229968   6.513   6.540   2.277  0.3724 -0.0187  0.3334
 2778TIP3    H129969   6.605   6.544   2.251 -0.0628 -2.3352 -2.0557
 2778TIP3    H229970   6.500   6.617   2.332  2.9472  2.2477 -1.9174
 2779TIP3   OH229971   6.218   1.072   2.668 -0.0716 -0.6838  0.6718
 2779TIP3    H129972   6.206   1.000   2.607 -1.6152 -1.5739  1.9444
 2779TIP3    H229973   6.279   1.131   2.624  1.7680 -3.0418 -0.1623
 2780TIP3   OH229974   4.838   4.225   7.198  0.0899  0.1960  0.1399
 2780TIP3    H129975   4.815   4.305   7.150  0.5973  1.0664  1.3160
 2780TIP3    H229976   4.782   4.158   7.158  0.4691  0.8717 -1.6443
 2781TIP3   OH229977   2.089   3.587   7.638 -0.1745 -0.0652 -0.1230
 2781TIP3    H129978   2.158   3.621   7.581  0.8572  0.7535  1.5064
 2781TIP3    H229979   2.089   3.648   7.713 -0.1105 -2.1233  1.6421
 2782TIP3   OH229980   3.583   6.053   7.056 -0.3288  0.0667  0.3449
 2782TIP3    H129981   3.525   6.064   6.980  0.6944 -0.2534 -0.5111
 2782TIP3    H229982   3.535   5.994   7.114 -0.7662 -0.3883 -0.4571
 2783TIP3   OH229983   3.786   2.796   0.866 -0.0164 -0.5171 -0.1997
 2783TIP3    H129984   3.700   2.824   0.835  0.1660 -0.8742 -1.0606
 2783TIP3    H229985   3.805   2.854   0.940 -0.3381  0.5644 -0.9397
 2784TIP3   OH229986   1.277   5.189   0.677  0.2800  0.2847  0.3117
 2784TIP3    H129987   1.217   5.158   0.609 -0.4445  0.9563  0.6247
 2784TIP3    H229988   1.364   5.166   0.645 -0.1521 -0.9775 -0.0159
 2785TIP3   OH229989   4.219   6.917   6.375  0.1917  0.5940 -0.1027
 2785TIP3    H129990   4.204   6.904   6.469  0.7382 -2.3053 -0.3300
 2785TIP3    H229991   4.145   6.969   6.346 -0.9248  0.0731  1.6505
 2786TIP3   OH229992   1.180   1.300   6.981  0.0196 -0.3491  0.0149
 2786TIP3    H129993   1.234   1.376   7.001 -0.3328 -0.0966  0.0252
 2786TIP3    H229994   1.105   1.307   7.040 -0.4670 -0.2068 -0.6102
 2787TIP3   OH229995   2.244   3.661   8.111 -0.1416  0.8977  0.1331
 2787TIP3    H129996   2.170   3.631   8.163 -0.4079  0.6810 -0.3713
 2787TIP3    H229997   2.211   3.667   8.021  0.6629  0.0348 -0.2369
 2788TIP3   OH229998   1.837   6.171   1.405 -0.5353 -0.3027  0.2354
 2788TIP3    H129999   1.893   6.179   1.482 -1.0705 -0.0181  0.6067
 2788TIP3    H230000   1.775   6.102   1.427 -0.9364  0.0468  0.2204
 2789TIP3   OH230001   5.695   1.594   0.726 -0.3661 -0.3760 -0.3596
 2789TIP3    H130002   5.730   1.512   0.761  1.2391  0.4176 -0.0286
 2789TIP3    H230003   5.744   1.608   0.645  1.1755  1.4846  0.8334
 2790TIP3   OH230004   6.072   4.488   6.690 -0.2991 -0.0598  0.0681
 2790TIP3    H130005   6.091   4.582   6.683 -0.4464  0.1740  2.1730
 2790TIP3    H230006   6.158   4.446   6.683  0.2072  0.4941  2.2811
 2791TIP3   OH230007   1.238   6.218   7.760 -0.4778 -0.1095  0.0985
 2791TIP3    H130008   1.318   6.257   7.723 -0.0404 -2.1526 -1.3073
 2791TIP3    H230009   1.266   6.132   7.791 -1.8654 -0.2864  0.9333
 2792TIP3   OH230010   0.661   5.691   7.679 -0.1508  0.3763 -0.3406
 2792TIP3    H130011   0.679   5.751   7.752 -0.5893  0.6077 -0.4191
 2792TIP3    H230012   0.724   5.715   7.612  1.0522 -0.6188  0.3929
 2793TIP3   OH230013   5.837   2.924   8.422 -0.0978  0.0067  0.9455
 2793TIP3    H130014   5.883   2.960   8.497 -1.5073  1.2407  1.2591
 2793TIP3    H230015   5.753   2.894   8.457  0.0878 -1.4190  0.2455
 2794TIP3   OH230016   0.609   5.437   7.777 -0.4844 -0.1541 -0.7337
 2794TIP3    H130017   0.671   5.387   7.725  0.9568  1.7425 -0.9572
 2794TIP3    H230018   0.621   5.528   7.748 -0.5076  0.8106  1.9792
 2795TIP3   OH230019   1.511   6.471   0.987 -0.5020  0.0829  0.2543
 2795TIP3    H130020   1.523   6.376   0.993  0.1165  0.2363  2.6061
 2795TIP3    H230021   1.419   6.484   1.007 -0.3255  0.0295  1.1428
 2796TIP3   OH230022   6.816   2.581   7.916 -0.4843  0.8533 -0.4322
 2796TIP3    H130023   6.879   2.630   7.863 -2.6804  2.4743 -1.7295
 2796TIP3    H230024   6.809   2.631   7.997  0.3063  0.3382 -0.0390
 2797TIP3   OH230025   3.985   4.845   6.546 -0.4552  0.1921 -0.6207
 2797TIP3    H130026   4.074   4.810   6.553  0.1873  1.7852 -0.3711
 2797TIP3    H230027   3.942   4.816   6.626  0.0776  0.0447 -0.3796
 2798TIP3   OH230028   3.641   2.386   1.872 -0.7593  0.6357  0.2577
 2798TIP3    H130029   3.641   2.415   1.963 -1.0038 -1.6614  1.0715
 2798TIP3    H230030   3.554   2.349   1.858 -0.9670  1.5912 -1.1557
 2799TIP3   OH230031   4.657   3.694   1.741 -0.6804 -0.2746  0.0036
 2799TIP3    H130032   4.565   3.704   1.718 -0.4779  1.2457 -0.2226
 2799TIP3    H230033   4.669   3.750   1.818 -0.0866 -0.9592  0.4206
 2800TIP3   OH230034   5.143   5.345   1.809  0.4668 -0.6911  0.5542
 2800TIP3    H130035   5.233   5.367   1.784  0.6962 -0.4371  1.5369
 2800TIP3    H230036   5.093   5.424   1.788  0.2038 -1.2875 -1.2104
 2801TIP3   OH230037   0.697   0.320   0.438 -0.3097  0.1729 -0.3270
 2801TIP3    H130038   0.715   0.234   0.400  0.4402  0.5233 -0.8074
 2801TIP3    H230039   0.685   0.304   0.531 -4.1711 -0.9998 -0.8655
 2802TIP3   OH230040   0.533   6.823   6.422  0.0501  0.0311 -0.0503
 2802TIP3    H130041   0.570   6.883   6.357 -0.1672 -0.9958 -1.1475
 2802TIP3    H230042   0.516   6.879   6.498 -0.9019  1.5676 -1.2969
 2803TIP3   OH230043   5.660   0.359   0.296  0.2230  0.1635  0.3438
 2803TIP3    H130044   5.622   0.314   0.371  0.2953 -0.2621  0.1256
 2803TIP3    H230045   5.596   0.428   0.276  1.2939  1.8106  2.2317
 2804TIP3   OH230046   5.765   3.054   1.335  0.2526  0.2168 -0.1614
 2804TIP3    H130047   5.702   3.069   1.405 -2.2872 -1.3471 -1.9223
 2804TIP3    H230048   5.744   3.119   1.268  1.4292  0.5386 -0.2463
 2805TIP3   OH230049   3.821   6.851   7.110  0.6957  0.1474  0.0013
 2805TIP3    H130050   3.899   6.855   7.055  2.4132  0.6280  2.2907
 2805TIP3    H230051   3.791   6.942   7.115  1.7001  0.4505  1.2875
 2806TIP3   OH230052   1.281   6.120   0.144 -0.2834  0.0571 -0.3477
 2806TIP3    H130053   1.259   6.200   0.095  0.1970  1.0848  1.0270
 2806TIP3    H230054   1.373   6.104   0.122 -0.1528  0.3459 -0.0201
 2807TIP3   OH230055   2.075   5.838   7.659  0.1857 -0.6549  0.2187
 2807TIP3    H130056   2.052   5.911   7.717 -0.6260 -0.7032 -0.0291
 2807TIP3    H230057   2.122   5.879   7.586  2.4737 -0.7407  1.5233
 2808TIP3   OH230058   5.640   3.257   1.170 -0.1478 -0.1553 -0.4430
 2808TIP3    H130059   5.641   3.351   1.188  0.2367 -0.1287 -0.5923
 2808TIP3    H230060   5.548   3.237   1.150  0.0205  0.5240 -2.0920
 2809TIP3   OH230061   2.803   6.051   7.962 -0.5147 -0.2710 -0.2455
 2809TIP3    H130062   2.841   6.116   8.021  0.5911 -0.1924 -1.0210
 2809TIP3    H230063   2.737   6.007   8.016 -0.0095  0.2520  0.8482
 2810TIP3   OH230064   5.749   3.204   7.463  0.0426 -0.1685  0.0803
 2810TIP3    H130065   5.780   3.147   7.393  0.5489  0.3912 -0.1627
 2810TIP3    H230066   5.829   3.243   7.499 -0.2996  0.4474  0.1870
 2811TIP3   OH230067   1.706   0.133   1.841 -0.5512  0.1272 -0.3476
 2811TIP3    H130068   1.708   0.123   1.936 -2.8927  0.0977 -0.2465
 2811TIP3    H230069   1.668   0.051   1.810  3.5157 -1.5286 -1.7389
 2812TIP3   OH230070   0.617   0.869   7.774  0.1637 -0.3537  0.3701
 2812TIP3    H130071   0.563   0.855   7.696 -0.2147  0.8290  0.4044
 2812TIP3    H230072   0.569   0.934   7.826  1.5146  0.6013  0.4820
 2813TIP3   OH230073   3.034   6.687   7.840 -0.7032  0.1198 -0.3166
 2813TIP3    H130074   2.942   6.712   7.829 -1.1624 -1.0436  0.6646
 2813TIP3    H230075   3.061   6.657   7.754 -1.3759  0.0762 -0.5205
 2814TIP3   OH230076   1.580   0.944   0.280  0.2685  0.1651 -0.0902
 2814TIP3    H130077   1.534   0.868   0.315  1.3582  0.3671  1.9156
 2814TIP3    H230078   1.594   0.923   0.187 -3.5149 -0.0101 -0.7775
 2815TIP3   OH230079   4.109   5.410   7.789 -0.5804  0.1212  0.0036
 2815TIP3    H130080   4.056   5.465   7.730 -1.6700 -0.3701  0.4842
 2815TIP3    H230081   4.192   5.455   7.796 -0.7328  0.6515 -1.2186
 2816TIP3   OH230082   4.843   1.293   2.239 -0.1824 -0.0915  0.2742
 2816TIP3    H130083   4.854   1.199   2.253 -3.3519 -0.4952  0.9044
 2816TIP3    H230084   4.872   1.333   2.321 -0.3294 -0.6778  0.6196
 2817TIP3   OH230085   5.323   5.932   8.401 -0.2144  0.7013  0.5672
 2817TIP3    H130086   5.366   6.005   8.356  1.2829  0.3126  1.3102
 2817TIP3    H230087   5.250   5.909   8.344  0.0783  1.9036 -0.3443
 2818TIP3   OH230088   5.081   5.481   8.244 -0.4692 -0.1464  0.5356
 2818TIP3    H130089   5.157   5.428   8.220 -0.7948 -0.2024 -0.4190
 2818TIP3    H230090   5.005   5.430   8.214 -0.8169  0.5597  0.1846
 2819TIP3   OH230091   1.403   1.517   7.058  0.2489 -0.1377  0.0127
 2819TIP3    H130092   1.384   1.547   6.970  0.8206  0.0696 -0.0469
 2819TIP3    H230093   1.488   1.556   7.079 -0.6515  1.2406  1.3056
 2820TIP3   OH230094   2.421   1.886   7.118 -0.0048 -0.1950  0.0918
 2820TIP3    H130095   2.357   1.936   7.066 -0.0364 -1.9021 -1.5946
 2820TIP3    H230096   2.374   1.807   7.144  0.0596  0.5164  2.7078
 2821TIP3   OH230097   6.312   5.333   7.290 -1.0876 -0.0936  0.3871
 2821TIP3    H130098   6.268   5.409   7.251  2.2650  0.9376 -1.8069
 2821TIP3    H230099   6.325   5.273   7.216 -0.3145 -1.1112  1.3241
 2822TIP3   OH230100   6.293   2.060   8.274 -0.3381  0.6897 -0.0632
 2822TIP3    H130101   6.277   2.028   8.185  1.2030  1.4352 -0.6429
 2822TIP3    H230102   6.376   2.107   8.268 -0.6670  1.5545  1.5804
 2823TIP3   OH230103   6.291   5.118   0.578 -0.2275 -0.3987 -0.2522
 2823TIP3    H130104   6.199   5.130   0.556 -1.1681 -2.1577  2.2388
 2823TIP3    H230105   6.320   5.045   0.524 -0.7818 -0.9219  0.1563
 2824TIP3   OH230106   1.875   3.755   8.256 -0.2890  0.2842  0.0275
 2824TIP3    H130107   1.866   3.832   8.312  0.1083  0.6951 -0.4639
 2824TIP3    H230108   1.791   3.748   8.210 -0.0837  0.8330 -0.4366
 2825TIP3   OH230109   2.074   3.619   1.170  0.3383  0.6809  0.2315
 2825TIP3    H130110   2.082   3.538   1.221 -0.7458 -0.6188 -1.5298
 2825TIP3    H230111   2.071   3.589   1.079  1.8264  2.8680 -0.6101
 2826TIP3   OH230112   5.020   1.880   8.331 -0.6390  0.1353  0.1576
 2826TIP3    H130113   5.107   1.882   8.289 -0.9872  0.6021 -0.5580
 2826TIP3    H230114   5.017   1.960   8.382 -0.5563 -0.0012  0.3772
 2827TIP3   OH230115   3.554   5.068   1.153 -0.0645 -0.3666  0.2703
 2827TIP3    H130116   3.602   5.069   1.070 -0.0608 -1.0635  0.2565
 2827TIP3    H230117   3.619   5.093   1.219 -0.2126  0.7956  0.0058
 2828TIP3   OH230118   2.605   3.486   1.656 -0.3407  0.0824  0.0494
 2828TIP3    H130119   2.547   3.557   1.682  0.6344  1.5923 -1.6016
 2828TIP3    H230120   2.550   3.426   1.605 -0.6863  1.0070 -0.6950
 2829TIP3   OH230121   2.750   1.625   7.303 -0.3391  0.9081  0.2576
 2829TIP3    H130122   2.679   1.600   7.245 -0.1058 -1.1500  0.7653
 2829TIP3    H230123   2.828   1.622   7.248 -0.4214  1.4665  0.1042
 2830TIP3   OH230124   0.417   1.148   8.341  0.0274 -0.1984 -0.0031
 2830TIP3    H130125   0.337   1.104   8.313  0.3204 -1.6670  1.3586
 2830TIP3    H230126   0.394   1.191   8.423  0.2007  0.7931 -0.4613
 2831TIP3   OH230127   6.656   0.118   7.906 -0.2904 -0.1970 -0.2265
 2831TIP3    H130128   6.736   0.131   7.855 -0.0993 -0.1058  0.0959
 2831TIP3    H230129   6.586   0.111   7.841 -0.4347  2.4083 -0.4486
 2832TIP3   OH230130   1.707   3.675   0.544  0.4992 -0.2264 -0.2982
 2832TIP3    H130131   1.625   3.629   0.528 -0.0214 -0.1419  1.7875
 2832TIP3    H230132   1.686   3.768   0.530  0.4239 -0.2609 -0.4146
 2833TIP3   OH230133   1.450   6.195   0.765 -0.5482 -0.0046 -0.0559
 2833TIP3    H130134   1.420   6.120   0.816 -1.8103 -0.5847 -1.5586
 2833TIP3    H230135   1.375   6.254   0.762  0.4234  1.3566  1.0854
 2834TIP3   OH230136   6.733   2.170   2.142  0.5361 -0.2020  0.2070
 2834TIP3    H130137   6.649   2.131   2.168 -0.0120 -0.9672 -2.3587
 2834TIP3    H230138   6.782   2.177   2.223 -1.4059 -1.2499  1.5750
 2835TIP3   OH230139   2.250   6.779   6.762 -0.0109 -0.1703 -0.3535
 2835TIP3    H130140   2.195   6.718   6.812 -0.9095 -0.0431 -1.1666
 2835TIP3    H230141   2.247   6.745   6.672  0.2698  0.5195 -0.6223
 2836TIP3   OH230142   4.603   2.922   0.791 -0.0712 -0.3748 -0.2771
 2836TIP3    H130143   4.571   2.944   0.704  0.1818 -0.6637 -0.4403
 2836TIP3    H230144   4.536   2.958   0.850 -0.0128  0.2274 -0.5682
 2837TIP3   OH230145   5.218   6.672   7.956  0.6515 -0.1656 -0.1588
 2837TIP3    H130146   5.227   6.734   8.028  1.9515  0.1359 -0.5565
 2837TIP3    H230147   5.246   6.721   7.878 -0.9782 -0.4040 -0.9238
 2838TIP3   OH230148   3.736   5.678   0.584  0.3618  0.1841  0.1646
 2838TIP3    H130149   3.719   5.634   0.667 -1.5266  0.7516  0.1197
 2838TIP3    H230150   3.831   5.673   0.573  0.4523 -1.6977  1.3460
 2839TIP3   OH230151   3.080   0.753   2.720  0.0042 -0.2293 -0.1683
 2839TIP3    H130152   3.162   0.744   2.672 -0.3387  1.0789 -1.0570
 2839TIP3    H230153   3.019   0.694   2.675  0.0077  0.0893 -0.5983
 2840TIP3   OH230154   0.304   1.051   2.136 -0.0163  0.1358  0.5969
 2840TIP3    H130155   0.331   0.962   2.116 -0.4278  0.3250 -0.9028
 2840TIP3    H230156   0.209   1.052   2.124  0.1586  1.1526 -1.1281
 2841TIP3   OH230157   0.865   3.180   7.029 -0.1818  0.1141  0.5151
 2841TIP3    H130158   0.918   3.247   6.987 -0.1257 -0.0395  0.3387
 2841TIP3    H230159   0.822   3.134   6.957 -1.9874  1.3887  0.7328
 2842TIP3   OH230160   1.736   5.458   1.072 -0.2506 -0.7111  0.4407
 2842TIP3    H130161   1.645   5.458   1.043 -0.7017 -2.5835  1.7515
 2842TIP3    H230162   1.786   5.436   0.993 -1.1657 -2.3512  0.2863
 2843TIP3   OH230163   4.782   3.234   7.702 -0.3280  0.3891  0.8414
 2843TIP3    H130164   4.778   3.141   7.725  0.2783  0.2005  0.2342
 2843TIP3    H230165   4.720   3.243   7.629  0.2200  0.2816  0.3551
 2844TIP3   OH230166   5.327   3.124   0.325 -0.3682  0.3706  0.8060
 2844TIP3    H130167   5.263   3.176   0.277 -0.6569 -1.0553 -0.4092
 2844TIP3    H230168   5.291   3.035   0.326  1.7214 -0.5763 -0.2697
 2845TIP3   OH230169   2.032   5.658   8.330  0.1875 -0.2197  0.0369
 2845TIP3    H130170   2.045   5.752   8.336  0.7305 -0.1933 -1.2907
 2845TIP3    H230171   1.941   5.644   8.357  0.4982  0.5060  1.6028
 2846TIP3   OH230172   1.019   4.094   2.148 -0.3304 -0.1070  0.0056
 2846TIP3    H130173   1.073   4.136   2.215  0.9272  0.6302 -1.3994
 2846TIP3    H230174   1.081   4.065   2.082 -1.4206 -1.9295 -0.2858
 2847TIP3   OH230175   0.947   6.272   0.487 -0.5765  0.5352  0.3428
 2847TIP3    H130176   0.936   6.348   0.430  0.6650 -0.2719 -1.0117
 2847TIP3    H230177   1.009   6.216   0.441 -0.8635 -0.9443  1.6955
 2848TIP3   OH230178   3.195   2.782   7.417 -0.1453  0.7892 -0.2706
 2848TIP3    H130179   3.282   2.770   7.456  0.3278 -0.2565 -1.5690
 2848TIP3    H230180   3.135   2.778   7.491  0.7764 -0.4631  0.4495
 2849TIP3   OH230181   4.403   5.645   7.397  0.0876 -0.0676 -0.3508
 2849TIP3    H130182   4.322   5.650   7.448  0.5683  0.5008  0.3853
 2849TIP3    H230183   4.438   5.734   7.400  0.7179 -0.2999 -0.6898
 2850TIP3   OH230184   3.634   2.497   1.359 -0.3400 -0.9190 -0.2250
 2850TIP3    H130185   3.564   2.433   1.372 -0.0389 -1.1855  0.1089
 2850TIP3    H230186   3.697   2.479   1.430  0.4063 -1.1372 -0.9291
 2851TIP3   OH230187   1.504   6.890   0.242 -0.0645  0.1515  0.4755
 2851TIP3    H130188   1.510   6.983   0.264  0.6078  0.1049  0.5161
 2851TIP3    H230189   1.595   6.861   0.234 -0.2758 -0.0774 -1.3787
 2852TIP3   OH230190   2.302   0.166   7.058  0.1455 -0.5978  0.6643
 2852TIP3    H130191   2.247   0.245   7.066  0.5081  0.2647 -3.4273
 2852TIP3    H230192   2.386   0.192   7.095 -0.2641  0.3114  0.9865
 2853TIP3   OH230193   3.030   3.279   0.161 -0.0306 -0.4008  0.5133
 2853TIP3    H130194   2.967   3.226   0.112 -0.4306  1.0345 -0.5851
 2853TIP3    H230195   3.104   3.290   0.101 -0.0228  0.4201  0.6640
 2854TIP3   OH230196   4.635   6.538   1.933 -0.1023  0.1873  0.6735
 2854TIP3    H130197   4.599   6.480   1.865 -0.5362  0.6769  0.4781
 2854TIP3    H230198   4.564   6.547   1.997  0.2675 -0.1863  1.1417
 2855TIP3   OH230199   4.142   5.724   7.548  0.0352  0.2457 -0.5423
 2855TIP3    H130200   4.226   5.755   7.581  0.6017 -1.2707 -0.4825
 2855TIP3    H230201   4.111   5.663   7.615 -1.7492  1.7040  0.0537
 2856TIP3   OH230202   5.407   2.544   6.788 -0.5461 -0.2663  0.3819
 2856TIP3    H130203   5.422   2.451   6.800  1.9989 -0.4953 -2.9421
 2856TIP3    H230204   5.402   2.555   6.693  0.3500  3.0751  0.5895
 2857TIP3   OH230205   0.935   6.931   1.128  0.1636 -0.6152  0.3522
 2857TIP3    H130206   0.960   6.958   1.217  2.4037 -1.9944  0.2273
 2857TIP3    H230207   0.963   6.839   1.123 -0.1771 -0.6365 -1.6951
 2858TIP3   OH230208   4.521   0.084   7.433  0.2042 -0.3536  0.4095
 2858TIP3    H130209   4.502   0.176   7.452  1.4826  0.0245 -0.0326
 2858TIP3    H230210   4.535   0.044   7.520  0.0650 -0.0356  0.5783
 2859TIP3   OH230211   1.164   6.669   8.538 -0.6308  0.2124  0.2860
 2859TIP3    H130212   1.196   6.741   8.484 -2.3260 -0.1631 -1.2837
 2859TIP3    H230213   1.185   6.696   8.628  0.5031  1.7382 -0.3871
 2860TIP3   OH230214   2.097   4.133   7.681 -0.1855 -0.2815 -0.1052
 2860TIP3    H130215   2.082   4.205   7.742  0.9606  0.1681 -0.3191
 2860TIP3    H230216   2.131   4.175   7.602  0.4787 -1.0446 -0.2449
 2861TIP3   OH230217   1.765   5.028   0.766 -0.1251  0.1831 -0.0440
 2861TIP3    H130218   1.821   5.088   0.816  0.4960 -0.5588  0.1901
 2861TIP3    H230219   1.679   5.069   0.765  0.5867  1.7271 -1.0530
 2862TIP3   OH230220   0.509   6.667   7.561 -0.1655 -0.0452 -0.0856
 2862TIP3    H130221   0.561   6.713   7.495  1.3085  0.3188  1.2792
 2862TIP3    H230222   0.440   6.729   7.584  0.7200  0.7902  0.4099
 2863TIP3   OH230223   0.669   4.379   1.164 -0.0283 -0.3145 -0.2393
 2863TIP3    H130224   0.751   4.428   1.174 -0.1439 -0.3212  0.8827
 2863TIP3    H230225   0.664   4.324   1.242 -0.2838 -1.5699 -1.0937
 2864TIP3   OH230226   6.085   1.531   0.133  0.1109 -0.2746 -0.0378
 2864TIP3    H130227   6.012   1.590   0.114 -0.4601 -1.3723 -1.5333
 2864TIP3    H230228   6.143   1.581   0.190 -0.1949  1.8539 -1.4536
 2865TIP3   OH230229   4.468   4.154   0.943 -0.4492 -0.0042 -0.8818
 2865TIP3    H130230   4.421   4.196   0.871 -0.0201  0.4554 -0.9071
 2865TIP3    H230231   4.401   4.112   0.996 -0.9050  0.8128 -0.8035
 2866TIP3   OH230232   3.686   0.549   0.864 -0.2397  0.2659 -0.0783
 2866TIP3    H130233   3.654   0.619   0.809 -1.6187  0.9698  1.5386
 2866TIP3    H230234   3.662   0.469   0.818 -2.6426  0.8091  0.1140
 2867TIP3   OH230235   5.834   0.981   0.497 -0.3689 -0.1638 -0.3641
 2867TIP3    H130236   5.877   1.018   0.420  0.4669  1.0422  0.6520
 2867TIP3    H230237   5.765   1.043   0.519 -1.3322 -1.0669 -0.7823
 2868TIP3   OH230238   4.661   4.244   1.937 -0.1385  0.7796 -0.3961
 2868TIP3    H130239   4.570   4.272   1.933  0.2165  2.4694  1.6271
 2868TIP3    H230240   4.672   4.208   2.025  0.4760 -2.2948 -1.5624
 2869TIP3   OH230241   0.146   1.310   1.442  0.2785  0.5075  0.4204
 2869TIP3    H130242   0.159   1.247   1.371  1.2149  0.8984  0.2260
 2869TIP3    H230243   0.232   1.316   1.484 -0.1906  0.4849  1.4253
 2870TIP3   OH230244   2.713   0.556   0.414 -0.1483  0.0160 -0.2220
 2870TIP3    H130245   2.665   0.616   0.471 -1.4469  1.1477 -2.3951
 2870TIP3    H230246   2.803   0.588   0.416 -0.3799  0.6481  0.3909
 2871TIP3   OH230247   6.027   5.637   0.317  0.4616 -0.0579 -0.3990
 2871TIP3    H130248   5.951   5.622   0.373  0.9800 -1.1192  0.0521
 2871TIP3    H230249   6.094   5.671   0.377  0.3973  0.7405 -0.7661
 2872TIP3   OH230250   1.881   3.808   1.139 -0.0291 -0.1338  0.1664
 2872TIP3    H130251   1.866   3.828   1.231  1.1773  2.2380 -0.0704
 2872TIP3    H230252   1.938   3.731   1.140 -0.8225 -0.7403  1.3421
 2873TIP3   OH230253   0.259   2.268   1.592  0.5511 -0.1701  0.2367
 2873TIP3    H130254   0.297   2.185   1.621  1.1643  0.7321  2.1907
 2873TIP3    H230255   0.245   2.317   1.672 -0.7302  1.2489 -0.8025
 2874TIP3   OH230256   6.349   0.702   0.351 -0.5134 -0.1049 -0.6700
 2874TIP3    H130257   6.264   0.702   0.394  0.1077 -0.8868  0.6335
 2874TIP3    H230258   6.329   0.704   0.257 -1.9703 -0.4944 -0.3895
 2875TIP3   OH230259   2.164   1.148   7.843  0.0062  0.6490  0.1719
 2875TIP3    H130260   2.147   1.132   7.936  0.5082  0.0097  0.1627
 2875TIP3    H230261   2.259   1.153   7.837 -0.0575  2.2536 -0.0734
 2876TIP3   OH230262   5.017   3.325   7.595 -0.4006  0.5003 -0.3016
 2876TIP3    H130263   4.929   3.300   7.623 -1.1670  1.1143 -2.0411
 2876TIP3    H230264   5.073   3.255   7.629 -1.7680 -0.7575 -0.5112
 2877TIP3   OH230265   5.405   1.202   2.524  0.1140  0.4208 -0.7263
 2877TIP3    H130266   5.321   1.183   2.483  0.4492  0.7168 -1.5709
 2877TIP3    H230267   5.388   1.199   2.618 -0.5336 -0.8758 -0.8749
 2878TIP3   OH230268   3.119   0.102   6.409  0.3353 -0.0306  0.3523
 2878TIP3    H130269   3.137   0.009   6.391  1.1730 -0.0291  1.0896
 2878TIP3    H230270   3.113   0.142   6.322 -1.3454 -0.9933 -0.0084
 2879TIP3   OH230271   0.781   2.096   7.682 -0.6984 -0.4330 -0.1638
 2879TIP3    H130272   0.761   2.153   7.608 -0.4434  0.5512  0.5040
 2879TIP3    H230273   0.873   2.071   7.669 -0.4702  0.2390  0.1429
 2880TIP3   OH230274   5.047   6.488   8.046  0.2696 -0.3981  0.1144
 2880TIP3    H130275   5.084   6.476   8.133 -1.2361 -0.6258  0.7553
 2880TIP3    H230276   5.110   6.544   8.000  1.6813 -1.2463  0.9296
 2881TIP3   OH230277   5.924   1.728   0.050  0.3858  0.1583  0.0388
 2881TIP3    H130278   5.913   1.823   0.058 -0.4716  0.0796 -0.1056
 2881TIP3    H230279   5.974   1.717  -0.030 -1.9251  0.3958 -1.5382
 2882TIP3   OH230280   0.565   1.605   0.436 -0.0556  0.0312  0.4950
 2882TIP3    H130281   0.583   1.606   0.530  1.3755 -1.2452  0.2785
 2882TIP3    H230282   0.470   1.614   0.429 -0.2899 -0.8572  2.1168
 2883TIP3   OH230283   6.003   5.937   0.413 -0.1537 -0.1627 -0.1867
 2883TIP3    H130284   6.079   5.994   0.420 -1.3418  1.3174  1.3844
 2883TIP3    H230285   5.982   5.936   0.320 -0.3323  2.3423 -0.2287
 2884TIP3   OH230286   2.269   1.711   7.284 -0.0452  0.1135 -0.3475
 2884TIP3    H130287   2.205   1.767   7.328 -0.1527  0.0513 -0.4243
 2884TIP3    H230288   2.310   1.661   7.355 -1.1496 -0.9566 -0.4351
 2885TIP3   OH230289   2.502   0.950   8.060  0.2266 -0.2860  0.2757
 2885TIP3    H130290   2.535   1.038   8.079  0.4994 -0.8887  3.0122
 2885TIP3    H230291   2.437   0.933   8.129 -0.6098 -1.8204 -0.8323
 2886TIP3   OH230292   1.806   4.030   6.881 -0.5445 -0.1672 -0.5639
 2886TIP3    H130293   1.751   4.087   6.935 -2.8424 -1.0983 -1.7837
 2886TIP3    H230294   1.760   4.025   6.797  0.0334 -3.0626 -0.7913
 2887TIP3   OH230295   1.789   2.994   6.951 -0.1750  0.1046  0.2238
 2887TIP3    H130296   1.701   2.994   6.914  0.0315 -1.3873 -0.3509
 2887TIP3    H230297   1.830   2.915   6.915  0.9628  0.0825  1.4712
 2888TIP3   OH230298   4.911   2.193   0.951 -0.3536 -0.2976  0.3657
 2888TIP3    H130299   4.915   2.265   1.014 -0.1715 -0.1103  0.1452
 2888TIP3    H230300   4.855   2.128   0.992 -1.0044  0.2194  0.3179
 2889TIP3   OH230301   2.043   6.518   1.033 -0.6605  0.1821 -0.5520
 2889TIP3    H130302   2.069   6.549   0.947  1.2632 -0.3070 -0.1920
 2889TIP3    H230303   2.121   6.529   1.087 -1.2823 -1.1855  0.6882
 2890TIP3   OH230304   6.773   5.745   7.164  0.4660  0.2468  0.2056
 2890TIP3    H130305   6.731   5.667   7.127  0.0410  0.2510  0.6721
 2890TIP3    H230306   6.863   5.740   7.134  0.6856 -0.9251  1.0236
 2891TIP3   OH230307   2.890   1.898   8.063  0.1713 -0.1002  0.1516
 2891TIP3    H130308   2.909   1.984   8.102  0.8894 -0.4865  0.6775
 2891TIP3    H230309   2.800   1.906   8.031  0.9152  1.5525 -1.7503
 2892TIP3   OH230310   2.234   6.013   2.351  0.1707 -0.7362  0.0592
 2892TIP3    H130311   2.169   6.054   2.408 -1.6674  0.2888 -2.5543
 2892TIP3    H230312   2.297   6.082   2.331  1.4519 -1.3908  1.5924
 2893TIP3   OH230313   2.660   5.063   7.423 -0.0820 -0.4543  0.7497
 2893TIP3    H130314   2.641   4.996   7.489 -0.5462 -1.1112 -0.0300
 2893TIP3    H230315   2.578   5.112   7.414 -0.5901 -1.4768 -0.5666
 2894TIP3   OH230316   4.868   5.957   8.076  0.1441  0.1670  0.0194
 2894TIP3    H130317   4.784   6.002   8.065  0.5968  1.1013  0.2254
 2894TIP3    H230318   4.930   6.011   8.027  0.5447 -0.7950 -0.5534
 2895TIP3   OH230319   5.568   5.327   2.550  0.2488 -0.0863 -0.6190
 2895TIP3    H130320   5.513   5.367   2.483 -1.8127  0.2346  1.1794
 2895TIP3    H230321   5.520   5.339   2.632  3.2775  0.7495  1.1875
 2896TIP3   OH230322   6.684   3.973   6.796 -0.4982  0.2288  0.0626
 2896TIP3    H130323   6.689   3.878   6.809  0.4440  0.4432  1.5715
 2896TIP3    H230324   6.706   3.986   6.704  1.6740 -0.8980  0.3400
 2897TIP3   OH230325   6.901   5.325   7.055 -0.1960 -0.0747 -0.2821
 2897TIP3    H130326   6.960   5.300   6.984  0.7654  1.8552 -0.2006
 2897TIP3    H230327   6.815   5.293   7.026  0.0828  1.0664 -2.5579
 2898TIP3   OH230328   1.056   4.505   2.271 -0.1815 -0.1424  0.5123
 2898TIP3    H130329   1.121   4.439   2.293 -0.8272 -0.7278  0.7252
 2898TIP3    H230330   0.998   4.508   2.348  0.2245  1.1623  0.7925
 2899TIP3   OH230331   0.650   3.085   8.174  0.3731 -0.4354  0.4915
 2899TIP3    H130332   0.614   3.004   8.210  0.1851 -0.8107 -0.5140
 2899TIP3    H230333   0.638   3.150   8.243 -1.0701 -0.8617  0.6621
 2900TIP3   OH230334   5.085   4.356   1.278  0.3743  0.1005  0.2060
 2900TIP3    H130335   5.129   4.438   1.303  0.5130  0.0133  0.2507
 2900TIP3    H230336   5.149   4.288   1.298 -0.6431 -0.2606  2.5608
 2901TIP3   OH230337   5.311   0.324   8.417  0.1234  0.4500 -0.0282
 2901TIP3    H130338   5.395   0.365   8.396  1.5823 -3.1955 -2.2733
 2901TIP3    H230339   5.322   0.291   8.506  1.0939  0.0610 -0.2784
 2902TIP3   OH230340   1.941   5.122   7.678 -0.2730 -0.3665  0.3400
 2902TIP3    H130341   1.944   5.050   7.741 -1.7672  0.2599  1.1951
 2902TIP3    H230342   1.937   5.201   7.733 -1.8097  0.1917 -0.5107
 2903TIP3   OH230343   4.386   1.321   1.174 -0.1087 -0.0255  0.5801
 2903TIP3    H130344   4.388   1.413   1.198 -1.6254  0.4018 -0.7227
 2903TIP3    H230345   4.401   1.274   1.256 -1.4329  1.3695  1.6711
 2904TIP3   OH230346   5.840   3.916   1.729  0.4347  0.3358  0.2619
 2904TIP3    H130347   5.785   3.970   1.671 -0.9521 -0.6518  0.6187
 2904TIP3    H230348   5.838   3.961   1.813 -0.7492 -0.2674  0.5677
 2905TIP3   OH230349   0.445   0.027   7.636  0.5139 -0.3948 -0.2408
 2905TIP3    H130350   0.453   0.110   7.588  0.2966  0.4848  1.1892
 2905TIP3    H230351   0.354   0.001   7.624  0.4370 -0.1343 -0.2245
 2906TIP3   OH230352   5.392   5.959   1.096  0.2480 -0.2605  0.1762
 2906TIP3    H130353   5.481   5.933   1.120  0.0306  0.6964  2.2465
 2906TIP3    H230354   5.401   5.997   1.009  1.8320 -0.3543  0.2628
 2907TIP3   OH230355   6.613   0.944   8.191  0.4340 -0.7191 -0.4651
 2907TIP3    H130356   6.670   0.932   8.116 -1.1060 -1.4310 -1.5966
 2907TIP3    H230357   6.560   0.864   8.193 -0.7024  0.0224  0.3389
 2908TIP3   OH230358   0.823   6.220   1.357  0.1380  0.5274 -0.3644
 2908TIP3    H130359   0.882   6.146   1.368  0.7091  0.6692 -2.1507
 2908TIP3    H230360   0.737   6.186   1.381  0.7194 -0.0586  0.9858
 2909TIP3   OH230361   4.864   3.714   1.565  0.0816  0.0410 -0.1594
 2909TIP3    H130362   4.807   3.703   1.642 -1.1094  2.5589 -0.5950
 2909TIP3    H230363   4.817   3.670   1.494 -0.6667  0.9157 -0.2170
 2910TIP3   OH230364   0.027   5.808   6.768 -0.0674 -0.5767 -0.4752
 2910TIP3    H130365   0.043   5.738   6.831  0.1045 -0.2742 -0.1777
 2910TIP3    H230366   0.103   5.866   6.776 -0.2874 -0.2671 -0.5980
 2911TIP3   OH230367   5.342   4.924   1.760  0.6188  0.9201  0.1443
 2911TIP3    H130368   5.335   4.831   1.779 -1.6106  0.9334 -0.3951
 2911TIP3    H230369   5.312   4.932   1.669  0.2855  2.2355  0.3560
 2912TIP3   OH230370   6.392   2.967   1.417  0.0803  0.2639  0.1905
 2912TIP3    H130371   6.415   3.056   1.388 -1.8928  0.9850  0.6554
 2912TIP3    H230372   6.353   2.927   1.339 -1.2547  0.6871  0.6167
 2913TIP3   OH230373   6.158   6.815   0.451  0.2269 -0.3135 -0.5155
 2913TIP3    H130374   6.118   6.842   0.533  0.5465 -1.8611  0.1960
 2913TIP3    H230375   6.094   6.755   0.412  1.5846 -2.5274  0.4598
 2914TIP3   OH230376   2.506   1.246   2.492  0.5431 -0.6813 -0.3757
 2914TIP3    H130377   2.555   1.308   2.547  3.4341 -0.9966 -2.3465
 2914TIP3    H230378   2.438   1.299   2.451  1.0996  0.5407  0.2054
 2915TIP3   OH230379   0.936   6.390   0.224  0.2795  0.3185 -0.2717
 2915TIP3    H130380   0.861   6.440   0.192 -0.8571  0.0047  1.7393
 2915TIP3    H230381   0.947   6.320   0.160 -2.9724 -1.3136  0.7099
 2916TIP3   OH230382   0.931   3.243   1.818 -0.1081  0.3283 -0.4873
 2916TIP3    H130383   0.882   3.169   1.855 -0.8034  0.1063 -1.8177
 2916TIP3    H230384   0.869   3.316   1.817  0.2804  0.6694 -0.0918
 2917TIP3   OH230385   2.328   4.734   1.386 -0.4588 -0.8043  0.7316
 2917TIP3    H130386   2.381   4.812   1.407 -1.2373 -0.0188 -0.1278
 2917TIP3    H230387   2.386   4.680   1.333 -0.4160 -0.0607 -0.0002
 2918TIP3   OH230388   0.519   3.905   1.424 -0.1749  0.4104  0.0161
 2918TIP3    H130389   0.559   3.973   1.369  3.1624 -0.2533  1.3655
 2918TIP3    H230390   0.522   3.826   1.370 -0.7658  0.5900 -0.2887
 2919TIP3   OH230391   6.731   3.429   1.861 -0.5156  0.0787 -0.4758
 2919TIP3    H130392   6.737   3.466   1.949 -0.2251 -0.2214 -0.3686
 2919TIP3    H230393   6.803   3.469   1.813 -1.9448  1.9119 -1.2089
 2920TIP3   OH230394   5.985   2.220   0.286  0.3208 -0.1945  0.0373
 2920TIP3    H130395   5.939   2.271   0.220  1.3486 -0.3297 -0.8263
 2920TIP3    H230396   6.008   2.138   0.241  0.8354 -0.3871  0.6350
 2921TIP3   OH230397   0.516   0.056   8.524  0.4055  0.4384 -0.2378
 2921TIP3    H130398   0.565   0.096   8.453 -0.7228  3.5739  0.5517
 2921TIP3    H230399   0.568   0.073   8.602  0.4074 -0.6577  0.0129
 2922TIP3   OH230400   4.400   5.060   1.701 -0.1701  0.4827 -0.1838
 2922TIP3    H130401   4.441   4.977   1.677  1.6130  0.6613  1.9481
 2922TIP3    H230402   4.334   5.036   1.766 -0.2721  0.6478 -0.2272
 2923TIP3   OH230403   5.497   0.904   0.647  0.2270 -0.0242  0.0063
 2923TIP3    H130404   5.485   0.813   0.619 -0.4866  0.4692 -1.4128
 2923TIP3    H230405   5.556   0.898   0.722  0.5484 -1.6267 -0.3194
 2924TIP3   OH230406   3.945   2.714   0.083  0.2842  0.2634  0.2386
 2924TIP3    H130407   4.007   2.665   0.030 -0.7451 -0.6850 -0.1194
 2924TIP3    H230408   3.993   2.735   0.163  1.7661  1.4677 -0.9133
 2925TIP3   OH230409   4.520   4.659   2.923  0.3428  0.6318  0.1410
 2925TIP3    H130410   4.514   4.755   2.921  1.6945  0.7357  0.6062
 2925TIP3    H230411   4.434   4.630   2.890 -0.0116  1.9904 -0.2199
 2926TIP3   OH230412   2.201   2.100   7.542 -0.0611 -0.0462 -0.3229
 2926TIP3    H130413   2.289   2.094   7.581 -0.5765  1.4808  1.1876
 2926TIP3    H230414   2.181   2.194   7.542 -1.8979 -0.3994 -0.1157
 2927TIP3   OH230415   3.895   6.064   1.827 -0.6335 -0.2405 -0.2074
 2927TIP3    H130416   3.924   5.975   1.809  1.0853  0.1675  0.3847
 2927TIP3    H230417   3.972   6.108   1.861 -1.8784  1.0275  1.1164
 2928TIP3   OH230418   3.658   5.986   8.158  0.4760  0.1845 -0.3325
 2928TIP3    H130419   3.691   6.070   8.191 -0.3538  0.2164  0.4630
 2928TIP3    H230420   3.571   5.978   8.197  0.4146 -0.8972 -0.6695
 2929TIP3   OH230421   3.936   4.374   6.868 -0.6581  0.4488  0.0581
 2929TIP3    H130422   3.908   4.459   6.835  0.9038  1.2473  0.6660
 2929TIP3    H230423   3.856   4.321   6.871 -1.6079  1.8037 -0.5850
 2930TIP3   OH230424   3.939   1.777   0.253 -0.0301 -0.1529  0.7428
 2930TIP3    H130425   3.972   1.865   0.274 -0.3420 -0.4760  2.7659
 2930TIP3    H230426   4.004   1.718   0.290 -0.3099 -0.7972  0.2309
 2931TIP3   OH230427   1.956   4.416   1.434  0.3574 -0.1753 -0.2656
 2931TIP3    H130428   2.009   4.483   1.391  0.5528  0.2646  0.6192
 2931TIP3    H230429   2.020   4.359   1.476  0.1683 -0.4380 -0.3368
 2932TIP3   OH230430   6.281   3.546   1.513 -0.1547  0.3514  0.1307
 2932TIP3    H130431   6.253   3.561   1.423 -0.7018  1.4618  0.4578
 2932TIP3    H230432   6.257   3.627   1.559  0.9217  0.1582  1.0805
 2933TIP3   OH230433   2.142   6.227   1.445 -0.1784 -0.3656 -0.3436
 2933TIP3    H130434   2.151   6.228   1.541 -1.3261 -1.3982 -0.2063
 2933TIP3    H230435   2.086   6.302   1.426  0.1217 -0.1053 -0.2306
 2934TIP3   OH230436   0.391   1.506   1.163  0.2395 -0.6265  0.1023
 2934TIP3    H130437   0.448   1.565   1.114  0.5960 -0.5136  0.6405
 2934TIP3    H230438   0.386   1.545   1.250 -0.3250 -0.8641  0.1796
 2935TIP3   OH230439   0.171   2.844   7.464 -0.6714  0.5108 -0.1507
 2935TIP3    H130440   0.085   2.849   7.507 -0.1894  0.3477  0.8513
 2935TIP3    H230441   0.218   2.776   7.512  0.2136  0.9842 -0.3390
 2936TIP3   OH230442   5.653   6.843   7.768  0.4068 -0.2132  0.5953
 2936TIP3    H130443   5.581   6.827   7.706  0.6145 -0.7164  0.4824
 2936TIP3    H230444   5.613   6.834   7.854  0.5618 -1.6355  0.5463
 2937TIP3   OH230445   4.100   1.357   7.066  0.1415  0.3407  0.2417
 2937TIP3    H130446   4.010   1.369   7.035  0.2050  1.3504  0.3844
 2937TIP3    H230447   4.154   1.383   6.991  0.3002  1.0035  0.5784
 2938TIP3   OH230448   0.023   1.763   0.922 -0.1168  0.5533 -0.6137
 2938TIP3    H130449  -0.003   1.737   0.834  0.9775 -1.0186 -0.5164
 2938TIP3    H230450   0.004   1.686   0.976  1.4851  0.5808  0.0481
 2939TIP3   OH230451   6.190   6.292   2.854  0.2880  0.4102 -0.8451
 2939TIP3    H130452   6.241   6.369   2.876 -0.0864  0.3982  0.1132
 2939TIP3    H230453   6.137   6.275   2.932 -0.5188 -0.0991 -1.4872
 2940TIP3   OH230454   0.614   4.613   0.719 -0.3208 -0.3964  0.3851
 2940TIP3    H130455   0.539   4.568   0.680  1.7350 -2.7386 -1.1996
 2940TIP3    H230456   0.640   4.558   0.793  0.6476 -0.4222  0.0475
 2941TIP3   OH230457   4.277   6.105   1.024 -0.6690  0.1913 -0.1169
 2941TIP3    H130458   4.337   6.105   0.949 -0.7678  1.7446 -0.2254
 2941TIP3    H230459   4.328   6.146   1.094 -1.1208  0.2060  0.2023
 2942TIP3   OH230460   4.744   2.089   1.865  0.5853 -0.5615  0.1688
 2942TIP3    H130461   4.774   2.049   1.946  0.0363 -0.5275  0.3944
 2942TIP3    H230462   4.697   2.168   1.893  2.1839  0.6064 -0.2967
 2943TIP3   OH230463   0.101   3.899   2.129  0.5816 -0.6972 -0.5922
 2943TIP3    H130464   0.028   3.837   2.129 -0.7975  0.8682  0.4530
 2943TIP3    H230465   0.179   3.843   2.132 -0.5007 -2.4300 -2.1282
 2944TIP3   OH230466   3.267   0.578   1.257 -0.4160  0.2248 -0.6187
 2944TIP3    H130467   3.352   0.587   1.215  0.4681  0.3869  1.0964
 2944TIP3    H230468   3.262   0.486   1.281  0.4782  0.6778  1.5587
 2945TIP3   OH230469   2.391   5.765   1.726  0.4498 -0.2329 -0.1236
 2945TIP3    H130470   2.451   5.691   1.735 -1.9303 -2.4213 -1.3097
 2945TIP3    H230471   2.308   5.727   1.698 -0.9023  2.9102 -0.8701
 2946TIP3   OH230472   4.329   6.804   0.990  0.4478  0.8593 -0.5310
 2946TIP3    H130473   4.345   6.822   0.897 -2.2233  2.5671 -0.7784
 2946TIP3    H230474   4.415   6.811   1.031  1.4357  1.8734 -2.6116
 2947TIP3   OH230475   0.258   4.149   1.180 -0.3768 -0.2786 -0.8837
 2947TIP3    H130476   0.298   4.098   1.110 -0.1979  0.8291 -1.6132
 2947TIP3    H230477   0.312   4.227   1.187 -1.0357  0.1369 -0.2515
 2948TIP3   OH230478   3.030   5.705   1.409  0.4935  0.3051  0.8379
 2948TIP3    H130479   3.064   5.750   1.332  0.9979 -1.6470 -0.1523
 2948TIP3    H230480   3.107   5.688   1.464  0.2234  1.1444  1.4969
 2949TIP3   OH230481   2.081   0.788   1.710 -0.1997  0.2220 -0.0587
 2949TIP3    H130482   2.049   0.852   1.774  1.2674  0.1438  0.8024
 2949TIP3    H230483   2.128   0.723   1.763  2.7604  1.1729 -1.3310
 2950TIP3   OH230484   4.887   5.248   6.960  0.1568 -0.0727 -0.1151
 2950TIP3    H130485   4.911   5.311   6.892  0.4904 -0.7825 -0.6712
 2950TIP3    H230486   4.951   5.177   6.951  0.9973  0.3904  1.7762
 2951TIP3   OH230487   0.239   5.479   1.551 -0.1729  0.2906  0.0856
 2951TIP3    H130488   0.266   5.413   1.615 -0.2600  0.7289  0.5888
 2951TIP3    H230489   0.312   5.486   1.490 -0.2158 -0.3589 -0.0484
 2952TIP3   OH230490   1.757   0.650   6.247  0.7177  0.6308 -0.4716
 2952TIP3    H130491   1.688   0.605   6.296  1.9889 -0.0692  0.7457
 2952TIP3    H230492   1.785   0.588   6.180  2.3024 -0.3792  1.0524
 2953TIP3   OH230493   4.815   1.798   1.170  0.3653  0.5692  0.3790
 2953TIP3    H130494   4.734   1.752   1.148 -1.1894  2.7871  1.0353
 2953TIP3    H230495   4.831   1.774   1.262  0.5421  0.0017  0.2016
 2954TIP3   OH230496   0.075   6.639   1.108 -0.1582 -0.2154 -0.4522
 2954TIP3    H130497   0.062   6.730   1.080 -1.7276 -0.3778 -0.3481
 2954TIP3    H230498   0.086   6.590   1.027 -0.8941 -0.1467 -0.6002
 2955TIP3   OH230499   1.313   4.322   8.265  0.0890  0.0691 -0.6636
 2955TIP3    H130500   1.305   4.247   8.206 -0.2197 -0.0409 -0.4821
 2955TIP3    H230501   1.267   4.393   8.220  0.8426  0.3090 -1.0896
 2956TIP3   OH230502   3.006   2.923   2.130 -0.1180 -0.0927 -0.1664
 2956TIP3    H130503   2.927   2.892   2.173  1.1128 -1.0884  1.4848
 2956TIP3    H230504   3.028   3.004   2.175  0.6455 -0.6307  0.4434
 2957TIP3   OH230505   1.685   5.725   0.169 -0.3081  0.4363 -0.1687
 2957TIP3    H130506   1.767   5.679   0.151  0.5657  2.1868 -1.0025
 2957TIP3    H230507   1.636   5.666   0.225  0.9319 -1.2667 -0.7723
 2958TIP3   OH230508   0.348   5.945   7.160  0.3480  0.4436 -0.2507
 2958TIP3    H130509   0.320   6.036   7.168  2.2506  1.0861 -0.3680
 2958TIP3    H230510   0.350   5.912   7.250 -0.1570  0.5596 -0.1926
 2959TIP3   OH230511   3.238   2.067   7.554  0.3789 -0.1669 -0.3957
 2959TIP3    H130512   3.219   2.136   7.490  0.2422  0.1315 -0.0383
 2959TIP3    H230513   3.219   1.985   7.508  0.1557  0.0512 -0.6927
 2960TIP3   OH230514   3.386   0.952   7.300 -0.3718  0.4130  0.0271
 2960TIP3    H130515   3.291   0.959   7.290 -0.2713  0.0061 -1.4810
 2960TIP3    H230516   3.421   0.997   7.223  0.5614 -2.4613 -1.3614
 2961TIP3   OH230517   5.449   0.964   1.093 -0.0696 -0.7955 -0.0234
 2961TIP3    H130518   5.528   0.913   1.112  0.2733 -0.1594  0.2805
 2961TIP3    H230519   5.459   1.044   1.145  0.3623  0.5192 -2.0363
 2962TIP3   OH230520   3.114   3.862   2.357  0.3435  0.0117 -0.0823
 2962TIP3    H130521   3.210   3.855   2.360  0.3014 -0.2724  0.8536
 2962TIP3    H230522   3.087   3.792   2.299  0.6417 -0.6615  0.5678
 2963TIP3   OH230523   4.299   5.971   0.571 -0.3667  0.1282 -0.3647
 2963TIP3    H130524   4.386   6.008   0.585 -1.2657  1.3939  3.0803
 2963TIP3    H230525   4.253   6.038   0.520 -0.5839  1.7572  1.8059
 2964TIP3   OH230526   6.623   4.632   7.379 -0.5507  0.7328  0.1234
 2964TIP3    H130527   6.599   4.638   7.472 -0.4035  1.1804  0.1350
 2964TIP3    H230528   6.691   4.564   7.377  0.3047  1.5459  0.5308
 2965TIP3   OH230529   3.842   4.625   0.317 -0.3726 -0.1591  0.2978
 2965TIP3    H130530   3.795   4.564   0.374 -0.0408 -0.1683  0.5677
 2965TIP3    H230531   3.791   4.626   0.236 -1.8312  1.1753  1.1803
 2966TIP3   OH230532   1.881   3.361   1.835  0.5575  0.3879  0.7231
 2966TIP3    H130533   1.801   3.359   1.888  1.0491  2.2095  1.5870
 2966TIP3    H230534   1.853   3.397   1.751 -0.1055 -1.9710 -0.1668
 2967TIP3   OH230535   4.352   2.921   7.130  0.2077 -0.5476  0.0120
 2967TIP3    H130536   4.342   2.989   7.196 -0.8208  0.5874 -1.2700
 2967TIP3    H230537   4.405   2.961   7.061  0.1535 -1.2717 -0.4594
 2968TIP3   OH230538   2.593   1.774   0.469  0.3094 -0.6284  0.3193
 2968TIP3    H130539   2.645   1.758   0.390 -0.8720  1.7526 -1.0209
 2968TIP3    H230540   2.649   1.742   0.540  1.9353 -1.7185 -1.3499
 2969TIP3   OH230541   2.927   1.276   0.799  0.0246 -0.0819  0.3560
 2969TIP3    H130542   2.926   1.294   0.893 -0.0863  1.4066  0.0829
 2969TIP3    H230543   2.838   1.245   0.780  0.4539 -1.8034  0.9751
 2970TIP3   OH230544   0.561   1.734   6.966 -0.3739 -0.0217  0.2167
 2970TIP3    H130545   0.526   1.705   6.882  0.2055 -0.3953  0.1033
 2970TIP3    H230546   0.573   1.654   7.017 -0.5491  0.1860  0.5963
 2971TIP3   OH230547   5.098   2.002   0.073 -0.1601 -0.6790 -0.2537
 2971TIP3    H130548   5.122   2.085   0.031  0.7206 -1.0593 -0.5154
 2971TIP3    H230549   5.124   2.014   0.165 -0.4752 -0.4879 -0.1899
 2972TIP3   OH230550   2.200   6.329   0.806  0.3244  0.0441  0.2198
 2972TIP3    H130551   2.120   6.278   0.820  0.0110  0.4867  0.0682
 2972TIP3    H230552   2.232   6.346   0.894  0.2792 -0.1804  0.2809
 2973TIP3   OH230553   5.849   1.242   1.523  0.4395 -0.4699 -0.8102
 2973TIP3    H130554   5.766   1.224   1.477 -0.8537  1.1104  0.8024
 2973TIP3    H230555   5.823   1.276   1.608  2.7738  0.6836 -0.4836
 2974TIP3   OH230556   2.895   4.639   7.144  0.2789 -0.5694 -0.0738
 2974TIP3    H130557   2.958   4.569   7.159  1.1222 -0.2205 -1.7444
 2974TIP3    H230558   2.893   4.650   7.049 -0.8755  0.7434  0.0624
 2975TIP3   OH230559   4.265   4.580   0.468 -0.4433 -0.7895  0.3924
 2975TIP3    H130560   4.326   4.507   0.473  2.3825  1.2957 -0.6782
 2975TIP3    H230561   4.249   4.592   0.374 -0.4118  0.2774  0.5053
 2976TIP3   OH230562   5.034   6.675   2.607 -0.2354 -0.0531  0.0188
 2976TIP3    H130563   5.065   6.751   2.558 -0.8919  1.0593  1.2517
 2976TIP3    H230564   5.069   6.600   2.560  1.0180  1.0268 -0.8430
 2977TIP3   OH230565   2.840   2.209   7.727  0.2635 -0.8507 -0.0111
 2977TIP3    H130566   2.834   2.117   7.699 -3.2663 -0.8232  0.2535
 2977TIP3    H230567   2.837   2.259   7.645  0.2761 -0.9162 -0.0516
 2978TIP3   OH230568   6.457   6.762   6.611 -0.1803 -0.2524  0.1245
 2978TIP3    H130569   6.366   6.737   6.592 -0.2676 -0.8046  1.1770
 2978TIP3    H230570   6.484   6.813   6.534 -1.2120 -0.4967 -0.4303
 2979TIP3   OH230571   5.481   4.190   7.668 -0.1113  0.3793  1.0978
 2979TIP3    H130572   5.480   4.221   7.577  0.8665  0.7751  1.2144
 2979TIP3    H230573   5.390   4.165   7.685  0.1339 -2.4199 -0.9042
 2980TIP3   OH230574   2.225   3.463   6.918  0.1918 -0.4562 -0.3021
 2980TIP3    H130575   2.253   3.417   6.997  2.1996  0.6617 -0.3024
 2980TIP3    H230576   2.274   3.545   6.919 -1.4458  0.6006 -1.5628
 2981TIP3   OH230577   4.820   6.464   7.712 -0.5259  0.0120  0.7153
 2981TIP3    H130578   4.748   6.511   7.753  0.3692  2.0086  0.1252
 2981TIP3    H230579   4.889   6.530   7.701 -0.0959 -0.7805 -2.4448
 2982TIP3   OH230580   1.393   3.912   0.942 -0.0873  0.2196 -0.0844
 2982TIP3    H130581   1.475   3.920   0.894 -0.9506 -0.5892 -1.7753
 2982TIP3    H230582   1.409   3.842   1.006  0.3732 -0.3399 -0.8012
 2983TIP3   OH230583   0.748   2.037   0.298  0.0441 -0.3453 -0.4699
 2983TIP3    H130584   0.689   2.033   0.222  0.3286  0.4021 -0.7400
 2983TIP3    H230585   0.831   2.069   0.262  0.7287 -1.6639 -0.1539
 2984TIP3   OH230586   3.184   0.498   1.844  0.5401 -0.2144 -0.8294
 2984TIP3    H130587   3.217   0.551   1.917 -0.6919  1.1792 -1.2307
 2984TIP3    H230588   3.252   0.433   1.829  1.3519  0.1944  0.7970
 2985TIP3   OH230589   2.495   3.585   8.437  0.2775 -0.2105  0.3006
 2985TIP3    H130590   2.473   3.677   8.449 -1.7335 -0.6712  0.5792
 2985TIP3    H230591   2.574   3.572   8.491 -0.1679  1.0522  1.3173
 2986TIP3   OH230592   0.125   3.926   8.448 -0.9423  0.1253  0.1188
 2986TIP3    H130593   0.198   3.951   8.504  0.1713 -0.9431 -0.7840
 2986TIP3    H230594   0.059   3.994   8.461 -0.0761  0.7307  1.5023
 2987TIP3   OH230595   5.750   5.219   7.371 -0.3809  0.0026 -0.1540
 2987TIP3    H130596   5.707   5.220   7.286 -0.0539 -1.4541 -0.3674
 2987TIP3    H230597   5.801   5.300   7.373  1.8051 -1.1284 -2.5568
 2988TIP3   OH230598   5.702   1.998   7.080 -0.2453  0.1370  0.5421
 2988TIP3    H130599   5.732   1.909   7.060  0.2554  0.2951  0.5557
 2988TIP3    H230600   5.771   2.054   7.044  0.3001  0.4544  2.0273
 2989TIP3   OH230601   3.772   1.805   0.771 -1.0681 -0.8825  0.0976
 2989TIP3    H130602   3.681   1.781   0.753 -1.6781  1.1847  0.1065
 2989TIP3    H230603   3.766   1.863   0.847  0.2830 -0.8990  0.2276
 2990TIP3   OH230604   5.554   1.673   7.734 -0.4172  0.1972  0.1359
 2990TIP3    H130605   5.543   1.679   7.639  1.8714 -0.9819 -0.2796
 2990TIP3    H230606   5.566   1.579   7.750 -1.1118  0.3484  1.6593
 2991TIP3   OH230607   4.743   0.567   1.041  0.0990  0.2226  0.3057
 2991TIP3    H130608   4.836   0.554   1.024  0.0146 -1.3577  0.8922
 2991TIP3    H230609   4.699   0.536   0.962  0.0159 -0.5877  0.6575
 2992TIP3   OH230610   4.598   6.245   2.023  0.1575  0.1686  0.3006
 2992TIP3    H130611   4.534   6.293   1.968  0.5583 -1.4490 -1.7045
 2992TIP3    H230612   4.581   6.276   2.112 -2.8492  0.4646 -0.2579
 2993TIP3   OH230613   1.706   0.175   1.258 -0.0570 -1.0377  0.2696
 2993TIP3    H130614   1.658   0.116   1.201  0.4099 -0.9380 -0.2408
 2993TIP3    H230615   1.672   0.158   1.346  0.5291 -2.5326  0.2335
 2994TIP3   OH230616   5.686   3.792   2.033  0.2949  0.1315  0.1056
 2994TIP3    H130617   5.722   3.864   1.981  2.1992 -0.9180 -0.1142
 2994TIP3    H230618   5.710   3.813   2.123  2.2836 -0.9594 -0.1220
 2995TIP3   OH230619   3.549   0.278   8.464 -0.0165 -0.1029 -0.3058
 2995TIP3    H130620   3.572   0.188   8.490 -0.1660  0.5720  2.5928
 2995TIP3    H230621   3.454   0.274   8.451 -0.4281 -0.0156  2.0736
 2996TIP3   OH230622   0.985   3.860   8.199  0.5139 -0.1979 -0.5010
 2996TIP3    H130623   0.957   3.847   8.108 -4.7144  0.0043  0.7763
 2996TIP3    H230624   0.986   3.772   8.237 -2.6077  0.0330  0.3586
 2997TIP3   OH230625   3.236   0.947   2.124  0.4206 -0.4542  0.2078
 2997TIP3    H130626   3.145   0.969   2.100  0.8578  1.7801  0.3635
 2997TIP3    H230627   3.256   0.869   2.072 -1.3885 -0.6446 -0.2831
 2998TIP3   OH230628   5.345   6.152   0.496 -0.3198  0.4814  0.6457
 2998TIP3    H130629   5.394   6.113   0.567 -0.9823 -1.2987  0.1660
 2998TIP3    H230630   5.275   6.202   0.539 -0.7635 -0.6513  1.2545
 2999TIP3   OH230631   2.095   3.544   2.289 -0.6435 -0.5340 -0.0307
 2999TIP3    H130632   2.112   3.636   2.309 -1.0212 -0.4490 -0.1051
 2999TIP3    H230633   2.106   3.499   2.373  2.9643 -0.9470 -0.5442
 3000TIP3   OH230634   6.770   6.075   2.123  0.0922  0.0751 -0.2700
 3000TIP3    H130635   6.844   6.118   2.082  1.3064 -0.7308  0.9703
 3000TIP3    H230636   6.806   5.993   2.157 -1.3872 -0.3837  0.2823
 3001TIP3   OH230637   1.525   0.296   6.663  0.3539 -0.1334 -0.2102
 3001TIP3    H130638   1.493   0.255   6.582  1.4001  0.2805 -0.8484
 3001TIP3    H230639   1.516   0.227   6.729  1.5971 -1.2460 -1.1489
 3002TIP3   OH230640   2.737   0.082   1.686  0.9278 -0.6012  0.0053
 3002TIP3    H130641   2.771   0.058   1.599  0.8259 -1.1488  0.1105
 3002TIP3    H230642   2.738  -0.000   1.735  0.6106 -0.3729  0.3994
 3003TIP3   OH230643   2.421   4.944   8.247 -0.0813  0.3033 -0.0704
 3003TIP3    H130644   2.459   4.942   8.160  1.4828 -1.0233  0.5785
 3003TIP3    H230645   2.352   4.878   8.245 -0.3585  0.6007 -0.4208
 3004TIP3   OH230646   4.200   2.933   2.172  0.2808  0.5032  0.5855
 3004TIP3    H130647   4.177   2.843   2.146  0.7249  0.4116  0.5043
 3004TIP3    H230648   4.117   2.972   2.199  0.1141  0.0056  0.8024
 3005TIP3   OH230649   6.770   4.089   2.256  0.2237  0.3350  0.3298
 3005TIP3    H130650   6.715   4.032   2.201  0.1763 -0.3412  1.0674
 3005TIP3    H230651   6.721   4.170   2.263  1.0885  1.1908 -2.2286
 3006TIP3   OH230652   6.647   2.109   7.938 -0.4186 -0.1863 -0.2229
 3006TIP3    H130653   6.646   2.204   7.951 -2.7234 -0.0184 -1.1068
 3006TIP3    H230654   6.680   2.073   8.021 -0.5433  1.3348  0.5094
 3007TIP3   OH230655   5.203   5.125   7.767 -0.1425 -0.6475  0.0455
 3007TIP3    H130656   5.205   5.115   7.862 -0.5973 -1.1929  0.0021
 3007TIP3    H230657   5.152   5.050   7.736 -0.4958 -0.1639 -0.5786
 3008TIP3   OH230658   1.302   4.129   7.246  0.0879 -0.3794  0.3970
 3008TIP3    H130659   1.365   4.186   7.291 -0.6809  0.9388 -0.1463
 3008TIP3    H230660   1.260   4.185   7.182 -1.0479 -1.4578  0.1551
 3009TIP3   OH230661   0.166   2.316   7.284  0.1388  0.5143  0.3698
 3009TIP3    H130662   0.123   2.400   7.302 -2.3050 -0.6900  0.6083
 3009TIP3    H230663   0.113   2.252   7.330  0.7718 -1.3748 -1.3905
 3010TIP3   OH230664   6.817   4.023   7.552 -0.1885  0.3450  0.0324
 3010TIP3    H130665   6.783   4.082   7.618  1.2841  1.2141  0.0413
 3010TIP3    H230666   6.887   3.974   7.596 -1.4207 -1.5185  0.0587
 3011TIP3   OH230667   4.972   0.442   0.872  0.1008  0.7956 -0.0214
 3011TIP3    H130668   5.054   0.467   0.829  1.3176  0.5045  1.9679
 3011TIP3    H230669   4.999   0.379   0.938 -1.5888  1.4914  1.4020
 3012TIP3   OH230670   3.236   6.759   0.712 -0.5871  0.2019  0.3075
 3012TIP3    H130671   3.149   6.728   0.684 -0.7855  0.1908  0.9246
 3012TIP3    H230672   3.295   6.687   0.689 -0.4705  0.8438 -1.5875
 3013TIP3   OH230673   2.410   5.751   7.236  0.3518 -0.4760  0.4306
 3013TIP3    H130674   2.384   5.842   7.252  0.4352 -0.5123  0.7826
 3013TIP3    H230675   2.363   5.726   7.157  0.5989 -0.0121  0.1288
 3014TIP3   OH230676   0.702   0.499   8.209  0.5871  0.1132 -0.2214
 3014TIP3    H130677   0.717   0.548   8.290  1.4389 -0.7928  0.2031
 3014TIP3    H230678   0.696   0.565   8.141  1.0973  0.8336  0.4182
 3015TIP3   OH230679   3.147   0.875   0.159  0.4741  0.4072 -0.0689
 3015TIP3    H130680   3.107   0.955   0.193  0.2958  1.0178 -1.6411
 3015TIP3    H230681   3.074   0.814   0.150  0.5179  0.2499  0.5809
 3016TIP3   OH230682   1.789   2.324   1.268  0.1985 -0.8682  0.4895
 3016TIP3    H130683   1.797   2.264   1.194 -2.4877 -0.1873 -0.4600
 3016TIP3    H230684   1.699   2.357   1.263  1.5209  3.4181  0.8029
 3017TIP3   OH230685   6.685   3.300   7.569  0.0859 -0.6048 -0.3989
 3017TIP3    H130686   6.715   3.363   7.635  1.0437  0.0905 -1.4523
 3017TIP3    H230687   6.629   3.351   7.511 -0.9158 -1.2626 -0.0370
 3018TIP3   OH230688   0.590   1.328   8.212  0.5368  0.1083  0.9097
 3018TIP3    H130689   0.554   1.245   8.244  0.2226  0.0804  0.4996
 3018TIP3    H230690   0.681   1.308   8.190  0.4960 -0.0972  0.9269
 3019TIP3   OH230691   5.581   3.187   0.135  0.1770 -0.5459 -0.3245
 3019TIP3    H130692   5.606   3.114   0.191  0.2664 -0.1566  0.1454
 3019TIP3    H230693   5.664   3.227   0.109  0.1237 -0.5470 -0.4988
 3020TIP3   OH230694   1.387   0.791   0.041  0.0266 -0.0711 -0.0623
 3020TIP3    H130695   1.432   0.709   0.060 -0.3623 -0.2791 -0.0357
 3020TIP3    H230696   1.380   0.793  -0.054 -1.8238 -1.0827  0.0163
 3021TIP3   OH230697   6.058   3.773   6.826 -0.1929 -0.4793  0.3241
 3021TIP3    H130698   6.041   3.754   6.733  1.2725  0.4545 -0.1736
 3021TIP3    H230699   6.153   3.767   6.834 -0.2794 -0.2618  1.7215
 3022TIP3   OH230700   6.442   2.477   2.097 -0.5845 -0.0375  0.4074
 3022TIP3    H130701   6.461   2.522   2.014  0.5108  0.6631  1.0104
 3022TIP3    H230702   6.347   2.466   2.097 -0.6049 -0.0505 -0.9351
 3023TIP3   OH230703   3.420   0.209   0.783  0.2016 -0.2929 -0.4015
 3023TIP3    H130704   3.479   0.180   0.714 -0.2664 -0.1280 -0.8736
 3023TIP3    H230705   3.355   0.264   0.738  0.2524  0.3221  0.2526
 3024TIP3   OH230706   2.675   4.438   7.993  0.1009  0.6785  0.5371
 3024TIP3    H130707   2.756   4.488   7.979 -0.2823  1.2124  0.2017
 3024TIP3    H230708   2.705   4.351   8.021  0.7730  1.2757  1.7515
 3025TIP3   OH230709   1.730   1.634   1.008 -0.3775 -0.1670 -0.0993
 3025TIP3    H130710   1.764   1.627   0.919  2.1619  1.2370  0.6692
 3025TIP3    H230711   1.741   1.727   1.030 -1.3245 -0.4152  1.5564
 3026TIP3   OH230712   3.603   5.749   8.449  0.7659  0.7920  0.0869
 3026TIP3    H130713   3.583   5.724   8.539 -1.2362 -1.1021 -0.7836
 3026TIP3    H230714   3.641   5.836   8.456  1.3258  0.4126  2.7928
 3027TIP3   OH230715   1.731   5.077   8.258 -0.0028 -0.4420 -0.1061
 3027TIP3    H130716   1.666   5.098   8.325  1.3818  0.1802  1.0904
 3027TIP3    H230717   1.812   5.060   8.307  0.6397 -1.6860 -1.5116
 3028TIP3   OH230718   2.627   0.001   1.151  0.0911 -0.6700  0.5080
 3028TIP3    H130719   2.712   0.041   1.136 -0.7114  0.9327  0.0260
 3028TIP3    H230720   2.631  -0.083   1.104  0.5056  0.5694 -1.8102
 3029TIP3   OH230721   0.546   0.045   1.394 -0.3161  0.2763  0.0597
 3029TIP3    H130722   0.580   0.128   1.429  0.3679 -0.2772  0.7298
 3029TIP3    H230723   0.595  -0.023   1.441 -0.9091 -0.5128 -0.4449
 3030TIP3   OH230724   2.822   2.001   7.563  0.1686 -0.0582 -0.0090
 3030TIP3    H130725   2.750   1.942   7.584  1.0801 -1.2692 -0.1811
 3030TIP3    H230726   2.815   2.015   7.468  1.1497 -1.5873 -0.3451
 3031TIP3   OH230727   2.735   0.825   7.083 -0.2974  0.0637  0.3374
 3031TIP3    H130728   2.796   0.895   7.058 -1.2239  0.6278 -0.3967
 3031TIP3    H230729   2.752   0.810   7.176  1.1317  0.0269  0.0908
 3032TIP3   OH230730   1.025   1.962   7.642  0.9293 -0.2065 -0.0030
 3032TIP3    H130731   1.073   1.893   7.596 -0.0298 -1.0508  0.2236
 3032TIP3    H230732   0.998   1.921   7.725  2.7847  1.3308  1.4466
 3033TIP3   OH230733   6.919   1.948   0.284 -0.2032  0.3375  0.0238
 3033TIP3    H130734   6.925   1.912   0.373  0.5434  2.3588  0.8715
 3033TIP3    H230735   6.875   2.032   0.296  1.2935  1.3515 -1.2666
 3034TIP3   OH230736   6.573   6.664   0.801 -0.9113 -0.4282 -0.2809
 3034TIP3    H130737   6.526   6.698   0.877 -1.3544  0.4167 -0.9118
 3034TIP3    H230738   6.665   6.670   0.825 -1.0934 -1.7520  0.8249
 3035TIP3   OH230739   1.631   2.861   7.266 -0.2478  0.3346 -0.0441
 3035TIP3    H130740   1.580   2.854   7.347 -2.2909  1.9808 -1.0992
 3035TIP3    H230741   1.715   2.897   7.294 -1.4232  2.2944  1.2446
 3036TIP3   OH230742   5.549   4.521   0.234 -0.2590 -0.3583  0.6317
 3036TIP3    H130743   5.517   4.467   0.161 -0.3621  0.5931 -0.0388
 3036TIP3    H230744   5.633   4.554   0.204 -0.1663 -0.2044  1.0641
 3037TIP3   OH230745   0.510   1.283   0.946 -0.2911 -0.1378  0.1130
 3037TIP3    H130746   0.603   1.260   0.941  0.1954  1.3819  1.4442
 3037TIP3    H230747   0.491   1.287   1.039 -1.6586 -0.2436 -0.1483
 3038TIP3   OH230748   0.269   1.081   2.412  0.0549  0.2908 -0.6328
 3038TIP3    H130749   0.319   1.014   2.460 -1.0599 -0.3775 -0.3834
 3038TIP3    H230750   0.313   1.087   2.327  1.5809  0.9300  0.1694
 3039TIP3   OH230751   6.575   4.571   8.355 -0.6760  0.5123 -0.1344
 3039TIP3    H130752   6.495   4.574   8.303 -0.4407 -2.5729 -0.8211
 3039TIP3    H230753   6.552   4.520   8.433  0.5897 -0.4174 -0.3420
 3040TIP3   OH230754   2.057   5.144   1.313 -0.7816 -0.0389  0.4200
 3040TIP3    H130755   2.024   5.191   1.237  0.3976 -0.1961 -0.2021
 3040TIP3    H230756   2.145   5.180   1.328 -0.2107 -1.3896  0.4782
 3041TIP3   OH230757   6.466   0.575   1.285 -0.6408 -0.5416 -0.3234
 3041TIP3    H130758   6.526   0.524   1.339 -0.5076  0.4657  0.5324
 3041TIP3    H230759   6.513   0.591   1.204  0.8166  1.2887  0.8006
 3042TIP3   OH230760   0.608   0.059   0.338 -0.6895 -0.0404 -0.0693
 3042TIP3    H130761   0.614  -0.003   0.266  0.9292  0.7517 -0.6562
 3042TIP3    H230762   0.540   0.122   0.310 -2.0937 -1.2884  0.3885
 3043TIP3   OH230763   5.720   6.451   0.817 -0.9206  0.1543 -0.0742
 3043TIP3    H130764   5.728   6.356   0.831 -0.2357 -0.1482 -2.1319
 3043TIP3    H230765   5.632   6.462   0.781 -0.0053 -0.1616 -2.6061
 3044TIP3   OH230766   4.499   2.133   0.643 -0.0978 -0.3469 -0.2217
 3044TIP3    H130767   4.500   2.126   0.548  0.3416  1.6750 -0.4148
 3044TIP3    H230768   4.591   2.147   0.667 -0.4296  1.2229  0.2639
 3045TIP3   OH230769   1.653   1.709   0.602 -0.7155  0.7349  0.2431
 3045TIP3    H130770   1.683   1.758   0.525  0.1443  2.0562  1.3613
 3045TIP3    H230771   1.715   1.636   0.609 -0.0657  1.2801  0.3438
 3046TIP3   OH230772   2.829   1.212   7.595 -0.1015 -0.3837  0.1870
 3046TIP3    H130773   2.888   1.273   7.550 -1.4975  0.8197 -0.0754
 3046TIP3    H230774   2.742   1.249   7.582 -1.1189 -2.8479 -0.6411
 3047TIP3   OH230775   6.544   3.429   0.216 -0.2990 -0.1560 -0.1768
 3047TIP3    H130776   6.489   3.352   0.226 -0.1513 -0.0859  1.4308
 3047TIP3    H230777   6.619   3.413   0.272  0.3740  0.6104 -0.8204
 3048TIP3   OH230778   4.964   6.271   7.829  0.7013  0.4050  0.0158
 3048TIP3    H130779   4.986   6.330   7.901 -1.1518  0.6167  0.4688
 3048TIP3    H230780   4.893   6.316   7.783  1.1440 -0.2222 -1.3078
 3049TIP3   OH230781   5.096   6.409   6.725 -0.1996  0.1146 -0.0144
 3049TIP3    H130782   5.086   6.372   6.638 -1.2792 -1.4825  0.7365
 3049TIP3    H230783   5.015   6.386   6.770  1.6380 -2.0928  2.4543
 3050TIP3   OH230784   4.699   3.385   2.340 -0.1601  0.3064 -0.2134
 3050TIP3    H130785   4.718   3.426   2.425 -1.3638  0.2214  0.1031
 3050TIP3    H230786   4.770   3.415   2.283  1.1146 -0.2650  1.0119
 3051TIP3   OH230787   6.387   3.284   7.968  0.2330  0.5707 -0.4096
 3051TIP3    H130788   6.298   3.273   7.934 -0.1923 -0.5601  0.9940
 3051TIP3    H230789   6.433   3.206   7.939  0.3485  0.4457  0.1029
 3052TIP3   OH230790   1.094   3.509   0.764  1.0979 -0.5642  0.2531
 3052TIP3    H130791   1.162   3.553   0.814 -0.0887  0.9039  0.6412
 3052TIP3    H230792   1.128   3.505   0.675  0.5870  2.7651 -0.1981
 3053TIP3   OH230793   5.549   5.061   1.018 -0.3398  0.2064 -0.3304
 3053TIP3    H130794   5.577   5.144   1.058  0.6369  0.6066 -1.7446
 3053TIP3    H230795   5.588   4.994   1.073  0.0752  0.7151  0.0096
 3054TIP3   OH230796   5.600   1.321   2.080 -0.5609 -0.6344  0.4129
 3054TIP3    H130797   5.609   1.226   2.083 -1.1309 -0.6945  0.2713
 3054TIP3    H230798   5.642   1.352   2.161  0.4065 -0.9344  0.0409
 3055TIP3   OH230799   1.765   0.928   8.023  0.3443  0.0186 -0.0506
 3055TIP3    H130800   1.680   0.973   8.025 -0.5804 -1.0217 -4.4210
 3055TIP3    H230801   1.827   0.995   7.993  0.6502  0.2144  0.9738
 3056TIP3   OH230802   1.123   1.484   6.557 -0.3495 -0.0636  0.5628
 3056TIP3    H130803   1.087   1.438   6.632  1.0779 -0.9359  0.7462
 3056TIP3    H230804   1.209   1.444   6.543 -1.6861 -2.0500 -3.3866
 3057TIP3   OH230805   0.052   5.633   0.627 -0.0333 -0.3287 -0.0595
 3057TIP3    H130806  -0.011   5.663   0.693 -1.0783 -2.5638  0.0691
 3057TIP3    H230807  -0.001   5.614   0.550  1.2706  2.9677 -1.9382
 3058TIP3   OH230808   0.169   2.900   1.550 -0.7293  0.2016 -0.1952
 3058TIP3    H130809   0.206   2.840   1.486  2.4031  1.6672  0.0925
 3058TIP3    H230810   0.202   2.869   1.634  1.2459  2.3786 -0.0725
 3059TIP3   OH230811   0.280   6.377   8.127  0.0333 -0.2396 -0.0313
 3059TIP3    H130812   0.233   6.419   8.055 -0.1229 -0.2165  0.0826
 3059TIP3    H230813   0.371   6.374   8.098  0.0263  0.0695 -0.0903
 3060TIP3   OH230814   4.753   0.120   1.191  0.1581  0.1861  0.1724
 3060TIP3    H130815   4.771   0.049   1.130 -0.4642 -0.1327  0.3560
 3060TIP3    H230816   4.831   0.123   1.248  0.5983  0.2779 -0.4265
 3061TIP3   OH230817   1.664   6.105   0.595  0.0573  0.0971  0.1384
 3061TIP3    H130818   1.656   6.175   0.530 -0.2870  1.2402  1.3732
 3061TIP3    H230819   1.589   6.118   0.654  0.4933 -0.7694  0.9090
 3062TIP3   OH230820   5.801   1.747   7.362  0.0661  0.0748 -0.0658
 3062TIP3    H130821   5.813   1.829   7.410 -0.0191 -0.2963  0.6086
 3062TIP3    H230822   5.720   1.710   7.398 -0.4124  0.1509 -1.0402
 3063TIP3   OH230823   6.329   1.728   0.191 -0.0231 -0.8911  0.2965
 3063TIP3    H130824   6.358   1.777   0.268  0.4879 -1.3303  0.3894
 3063TIP3    H230825   6.284   1.793   0.136 -0.4167 -0.5846  0.9759
 3064TIP3   OH230826   1.970   4.666   0.399  0.1205 -0.1339 -0.1422
 3064TIP3    H130827   1.991   4.683   0.491  0.3257 -1.2520  0.0261
 3064TIP3    H230828   1.880   4.695   0.390 -0.7223 -2.1859  1.0392
 3065TIP3   OH230829   3.659   3.277   6.611 -0.1759 -0.6809 -0.5933
 3065TIP3    H130830   3.613   3.195   6.598 -1.5221  0.0545 -0.6282
 3065TIP3    H230831   3.647   3.325   6.529  0.8125 -0.5407 -0.6702
 3066TIP3   OH230832   3.513   3.006   0.583 -0.6128  0.1651  0.2892
 3066TIP3    H130833   3.597   3.003   0.538 -1.4451 -1.1172 -1.2802
 3066TIP3    H230834   3.464   3.075   0.539 -1.3644 -0.9715 -0.7166
 3067TIP3   OH230835   0.841   4.120   0.907 -0.5462 -0.0616 -0.3463
 3067TIP3    H130836   0.871   4.032   0.932 -0.3948 -0.1671 -0.9030
 3067TIP3    H230837   0.920   4.175   0.912 -0.4750 -0.1220 -0.7732
 3068TIP3   OH230838   5.833   2.380   0.969  0.7791  0.1769 -0.1264
 3068TIP3    H130839   5.890   2.456   0.962  0.7581  0.0581 -2.5476
 3068TIP3    H230840   5.774   2.388   0.894 -1.9945 -0.0676  1.8580
 3069TIP3   OH230841   1.623   3.089   7.710  0.9485 -0.4073  0.1947
 3069TIP3    H130842   1.703   3.037   7.707  0.6219 -1.2261  3.1361
 3069TIP3    H230843   1.564   3.040   7.766 -0.6203  1.5479  0.3871
 3070TIP3   OH230844   4.076   0.331   2.484  0.2798 -0.5636 -0.2034
 3070TIP3    H130845   4.145   0.279   2.443 -0.5518 -2.4081  0.6086
 3070TIP3    H230846   4.005   0.269   2.499 -0.9393  0.9168  0.4603
 3071TIP3   OH230847   0.574   6.826   6.898  0.7265 -0.4731  0.3649
 3071TIP3    H130848   0.615   6.900   6.942  0.0728 -1.6288  3.0935
 3071TIP3    H230849   0.492   6.861   6.862  0.8666  0.3292  0.8249
 3072TIP3   OH230850   3.772   0.611   7.925  0.1353 -0.5790  0.2751
 3072TIP3    H130851   3.711   0.641   7.858  1.3005 -0.9742 -0.9795
 3072TIP3    H230852   3.729   0.534   7.964 -0.4465 -0.4795 -0.1652
 3073TIP3   OH230853   1.683   0.746   1.409 -0.3448  0.5509  0.1522
 3073TIP3    H130854   1.621   0.685   1.450 -0.9802  0.7406 -0.5037
 3073TIP3    H230855   1.769   0.713   1.436 -0.7089  0.0457  0.7508
 3074TIP3   OH230856   5.302   3.743   0.461 -0.0071  0.3139  0.1197
 3074TIP3    H130857   5.385   3.719   0.421 -0.0858  0.3031 -0.0353
 3074TIP3    H230858   5.237   3.728   0.393 -0.4031 -1.7400  0.8793
 3075TIP3   OH230859   4.492   1.307   0.626 -0.4352 -0.1674 -0.2968
 3075TIP3    H130860   4.494   1.373   0.696  1.7766  0.2638 -0.6855
 3075TIP3    H230861   4.583   1.301   0.596 -0.8156 -2.4079 -1.2263
 3076TIP3   OH230862   4.053   3.288   0.821  0.5633  0.1686 -0.8827
 3076TIP3    H130863   4.017   3.231   0.888 -0.0702 -0.5646 -1.8251
 3076TIP3    H230864   4.129   3.329   0.863  0.1555 -0.2196  0.2878
 3077TIP3   OH230865   0.713   3.777   6.928  0.2197  0.8936 -0.5427
 3077TIP3    H130866   0.674   3.730   6.854  0.7197 -2.9277  1.3673
 3077TIP3    H230867   0.660   3.751   7.003  0.9717  3.0185  0.8036
 3078TIP3   OH230868   0.813   0.106   0.055 -0.1600  0.1758  0.2062
 3078TIP3    H130869   0.815   0.056  -0.026  1.9509  0.5262 -0.0261
 3078TIP3    H230870   0.824   0.197   0.027  0.0932  0.3458  0.8456
 3079TIP3   OH230871   6.901   6.540   8.242  0.2787 -0.2274 -0.0170
 3079TIP3    H130872   6.847   6.529   8.320 -0.6734 -0.3423 -0.6756
 3079TIP3    H230873   6.984   6.496   8.264  0.7581  1.3545  1.6024
 3080TIP3   OH230874   5.948   0.700   1.158 -0.6344  0.3207 -0.1317
 3080TIP3    H130875   5.952   0.676   1.065 -0.4742 -1.5555  0.3172
 3080TIP3    H230876   6.033   0.673   1.193 -1.5605 -1.2505  1.0286
 3081TIP3   OH230877   6.809   6.871   1.325  0.2787 -0.2575  0.0100
 3081TIP3    H130878   6.725   6.836   1.357  0.7649  1.0578  3.0021
 3081TIP3    H230879   6.811   6.845   1.233 -2.2710 -2.4714  0.4421
 3082TIP3   OH230880   2.750   2.587   1.795 -0.4099  0.1462  0.1569
 3082TIP3    H130881   2.660   2.567   1.770  0.1363 -1.2962 -0.8160
 3082TIP3    H230882   2.769   2.525   1.866  0.1716 -0.4051 -0.4614
 3083TIP3   OH230883   2.896   6.243   8.136  0.2380 -0.2635  0.4888
 3083TIP3    H130884   2.912   6.314   8.074 -4.1444  1.0427  0.5154
 3083TIP3    H230885   2.920   6.279   8.221  1.4514 -0.2011  0.1350
 3084TIP3   OH230886   1.694   5.053   0.227 -0.5111 -0.0107  0.0931
 3084TIP3    H130887   1.675   5.144   0.206 -0.8679 -0.2005 -0.4498
 3084TIP3    H230888   1.726   5.054   0.317 -4.1796  0.2133  1.5414
 3085TIP3   OH230889   1.341   5.432   0.707 -0.0421  0.1540 -0.2931
 3085TIP3    H130890   1.305   5.343   0.711 -0.0268 -0.0388 -2.7919
 3085TIP3    H230891   1.350   5.450   0.613  5.3102  0.5953 -0.0062
 3086TIP3   OH230892   1.695   2.161   1.709  0.1190 -0.1518  0.3221
 3086TIP3    H130893   1.765   2.208   1.663 -2.3383  1.3836 -2.1850
 3086TIP3    H230894   1.730   2.073   1.722  2.5498  0.5842 -0.6735
 3087TIP3   OH230895   4.247   2.821   1.470 -0.2270 -0.4514  0.0656
 3087TIP3    H130896   4.196   2.799   1.548  0.5161  0.6636  0.8833
 3087TIP3    H230897   4.338   2.820   1.499 -0.0014  1.0563 -0.4932
 3088TIP3   OH230898   3.725   2.772   1.892  0.7702 -0.6106 -0.2125
 3088TIP3    H130899   3.671   2.741   1.819  0.6148 -0.4683 -0.1592
 3088TIP3    H230900   3.790   2.830   1.851 -0.3647  0.8398 -0.0600
 3089TIP3   OH230901   1.309   0.394   7.035 -0.7229 -0.0760 -0.2417
 3089TIP3    H130902   1.292   0.326   6.970  1.5433 -1.0946  0.1669
 3089TIP3    H230903   1.359   0.460   6.989 -0.9491  0.2316 -0.0532
 3090TIP3   OH230904   0.306   6.826   8.466 -0.0171 -0.2469  0.5181
 3090TIP3    H130905   0.261   6.798   8.545 -0.3702 -2.0003 -0.2596
 3090TIP3    H230906   0.384   6.871   8.498  0.6335 -2.2164  1.8999
 3091TIP3   OH230907   0.177   6.336   7.571  0.2000 -0.4655 -0.1286
 3091TIP3    H130908   0.143   6.394   7.639 -1.1431  0.0142 -1.1746
 3091TIP3    H230909   0.197   6.254   7.617  0.6247  0.2872  1.0753
 3092TIP3   OH230910   0.263   0.255   8.122  0.3561 -0.6764 -0.1441
 3092TIP3    H130911   0.248   0.197   8.196  0.4903 -0.3999  0.1045
 3092TIP3    H230912   0.258   0.199   8.045  1.8117 -1.2700  0.1641
 3093TIP3   OH230913   5.019   3.731   6.168 -0.9181  0.3920 -0.1373
 3093TIP3    H130914   5.104   3.769   6.190 -1.3896  1.5688 -0.2601
 3093TIP3    H230915   5.017   3.729   6.072 -1.0956  0.5512 -0.1390
 3094TIP3   OH230916   5.432   0.538   6.812  0.0712  0.1512  0.6354
 3094TIP3    H130917   5.436   0.446   6.787  0.2730  0.2352  0.3517
 3094TIP3    H230918   5.339   0.559   6.812  0.0633  0.1209  0.0590
 3095TIP3   OH230919   0.076   3.384   6.933  0.7368  0.7046 -0.5549
 3095TIP3    H130920   0.048   3.293   6.944 -2.2020  1.4426 -1.0721
 3095TIP3    H230921   0.095   3.392   6.840 -0.0356  0.8406 -0.7100
 3096TIP3   OH230922   2.019   2.022   1.333 -0.3035  0.5006  0.0265
 3096TIP3    H130923   2.110   2.046   1.350 -0.0205 -1.4276  1.4882
 3096TIP3    H230924   1.968   2.085   1.384  0.2224  1.1899 -0.2858
 3097TIP3   OH230925   6.474   4.237   1.782 -0.3946 -0.0865  0.0825
 3097TIP3    H130926   6.545   4.257   1.842  0.2987  0.2676 -0.8226
 3097TIP3    H230927   6.485   4.300   1.710 -1.0888 -0.5990 -0.4897
 3098TIP3   OH230928   6.826   4.636   8.233  0.1336  0.0811 -0.8078
 3098TIP3    H130929   6.845   4.718   8.279 -1.6566  0.9823 -1.5445
 3098TIP3    H230930   6.742   4.607   8.269  0.7368 -1.4647 -0.5590
 3099TIP3   OH230931   4.744   2.824   8.451 -0.3025 -0.0521  0.3820
 3099TIP3    H130932   4.709   2.912   8.434 -0.7208 -0.2790  0.0590
 3099TIP3    H230933   4.822   2.818   8.396 -1.9297 -0.9726 -1.9756
 3100TIP3   OH230934   4.381   2.422   2.093  0.4319 -0.2525  0.6597
 3100TIP3    H130935   4.347   2.381   2.173 -0.9635 -0.8365 -0.1969
 3100TIP3    H230936   4.439   2.355   2.056  0.3143 -0.3680  0.6820
 3101TIP3   OH230937   5.751   1.813   6.504 -0.2604 -0.2340 -0.2010
 3101TIP3    H130938   5.690   1.811   6.578 -0.8862 -0.1976 -0.7117
 3101TIP3    H230939   5.811   1.740   6.522 -1.3297 -1.1965 -0.4232
 3102TIP3   OH230940   6.225   0.666   7.662 -0.1005 -0.0027 -0.1329
 3102TIP3    H130941   6.298   0.706   7.616 -0.8538  0.3555 -1.0617
 3102TIP3    H230942   6.243   0.572   7.658  0.1883  0.0674 -0.5867
 3103TIP3   OH230943   0.661   4.723   7.412 -0.0807 -0.2826  0.1270
 3103TIP3    H130944   0.607   4.694   7.337 -0.6680  1.2800 -0.0873
 3103TIP3    H230945   0.597   4.758   7.475  0.5798  0.4874  0.3830
 3104TIP3   OH230946   3.657   5.569   1.196  0.2450 -0.7011  0.0331
 3104TIP3    H130947   3.642   5.545   1.104 -1.6965  0.7173 -0.0899
 3104TIP3    H230948   3.659   5.486   1.243 -0.3592 -1.3751 -1.0910
 3105TIP3   OH230949   5.275   5.472   0.747  0.6409 -0.3206 -0.6135
 3105TIP3    H130950   5.206   5.434   0.693 -1.9480 -0.8123  2.7088
 3105TIP3    H230951   5.293   5.406   0.814  0.9330  1.6405  1.3491
 3106TIP3   OH230952   4.017   5.133   0.896 -0.0546  0.1336 -0.4399
 3106TIP3    H130953   3.979   5.058   0.850  0.2123 -0.8322  0.8442
 3106TIP3    H230954   4.110   5.131   0.874  0.1013 -0.4190  0.2133
 3107TIP3   OH230955   4.007   1.684   0.821  0.4208 -0.5895  0.1722
 3107TIP3    H130956   3.930   1.725   0.781 -0.3815 -1.6549  0.5551
 3107TIP3    H230957   4.080   1.740   0.797  0.1869 -1.7049 -3.7686
 3108TIP3   OH230958   1.295   5.814   7.449 -0.1908  0.0461 -0.3651
 3108TIP3    H130959   1.225   5.752   7.468  0.5539 -0.3475  1.2565
 3108TIP3    H230960   1.327   5.787   7.363  0.9583 -2.7219  0.7894
 3109TIP3   OH230961   5.248   0.588   1.326 -0.3284 -0.2537  0.0702
 3109TIP3    H130962   5.228   0.656   1.261  0.6507  0.8536  0.8989
 3109TIP3    H230963   5.308   0.630   1.388  0.2055 -1.8416  0.6794
 3110TIP3   OH230964   1.473   4.907   7.047  0.3011  0.1417  0.7196
 3110TIP3    H130965   1.468   4.844   7.118  1.5488 -0.0242  0.6854
 3110TIP3    H230966   1.482   4.853   6.968  0.3421  0.3403  0.5876
 3111TIP3   OH230967   5.114   5.791   7.458 -0.2654 -0.1132 -0.6146
 3111TIP3    H130968   5.113   5.705   7.499  1.8557  0.7958  1.6078
 3111TIP3    H230969   5.117   5.772   7.364 -0.8086 -2.4143 -0.2307
 3112TIP3   OH230970   4.644   4.993   0.856  0.1693 -0.1573 -0.2293
 3112TIP3    H130971   4.644   5.089   0.849 -1.6496 -0.0225  0.7384
 3112TIP3    H230972   4.634   4.962   0.766 -2.4563  0.7297 -0.3434
 3113TIP3   OH230973   3.844   6.805   2.354  0.1419 -0.2526 -0.1032
 3113TIP3    H130974   3.851   6.717   2.392  1.7234 -0.3081 -0.4723
 3113TIP3    H230975   3.754   6.810   2.322 -0.9578 -0.6227  2.5788
 3114TIP3   OH230976   1.608   0.525   8.286 -0.4647  0.5866  0.4551
 3114TIP3    H130977   1.530   0.493   8.239 -0.8534  0.5387  1.1172
 3114TIP3    H230978   1.573   0.558   8.369  0.6013 -3.3063  2.7206
 3115TIP3   OH230979   0.943   1.147   7.535 -0.3279  0.4174  0.1848
 3115TIP3    H130980   0.962   1.228   7.488 -1.2142  1.4137  1.4786
 3115TIP3    H230981   0.882   1.100   7.478  0.3264  0.5545 -0.6547
 3116TIP3   OH230982   6.395   1.236   2.529 -0.0283  0.3093  0.2901
 3116TIP3    H130983   6.348   1.236   2.446 -1.4674 -0.8176  1.0547
 3116TIP3    H230984   6.481   1.272   2.508 -0.4437  0.2961 -1.6201
 3117TIP3   OH230985   0.856   3.515   8.495 -0.1946  0.1089  0.0884
 3117TIP3    H130986   0.936   3.567   8.487 -0.9260  1.7148  2.1267
 3117TIP3    H230987   0.878   3.447   8.559 -0.3538  0.3706  0.4259
 3118TIP3   OH230988   5.926   5.939   7.496  0.3387  0.5758  0.1787
 3118TIP3    H130989   5.942   5.925   7.589  0.8440  1.0920  0.1766
 3118TIP3    H230990   5.974   6.020   7.475 -0.9305  1.2440 -0.2180
 3119TIP3   OH230991   3.301   6.237   7.152 -0.5150  0.2005  0.2343
 3119TIP3    H130992   3.220   6.215   7.197 -1.3352  2.6452  0.1240
 3119TIP3    H230993   3.282   6.224   7.059 -0.2149 -0.8008  0.3052
 3120TIP3   OH230994   5.700   1.131   1.044  0.4881  0.2404 -0.0572
 3120TIP3    H130995   5.768   1.091   1.098  0.1870 -0.0081  0.1369
 3120TIP3    H230996   5.624   1.136   1.101  0.2588  0.2618 -0.3658
 3121TIP3   OH230997   5.184   3.917   6.852 -0.5406 -0.5078 -0.4307
 3121TIP3    H130998   5.267   3.937   6.809 -0.9321  0.8644 -0.5793
 3121TIP3    H230999   5.201   3.836   6.900  0.2464 -1.4290 -2.1774
 3122TIP3   OH231000   4.291   6.163   2.201  0.8800 -0.0758 -0.2745
 3122TIP3    H131001   4.362   6.219   2.233  0.8249 -0.1175 -0.0736
 3122TIP3    H231002   4.227   6.224   2.164  1.8879 -0.1413 -2.2609
 3123TIP3   OH231003   0.302   1.444   7.507 -0.3126  0.3621  0.4717
 3123TIP3    H131004   0.210   1.470   7.504 -0.4937 -0.3435 -0.5777
 3123TIP3    H231005   0.342   1.506   7.568 -1.3836  0.9786  0.5805
 3124TIP3   OH231006   4.940   3.347   7.901  0.5133  0.0489  0.0330
 3124TIP3    H131007   4.853   3.325   7.867 -0.2567 -1.7178  2.8677
 3124TIP3    H231008   4.994   3.271   7.882  0.8264  0.2151  0.2455
 3125TIP3   OH231009   1.934   0.200   1.417 -0.2739 -0.7334  0.0421
 3125TIP3    H131010   1.920   0.112   1.453  1.1431 -1.1980 -0.4754
 3125TIP3    H231011   1.869   0.208   1.348  0.0203 -1.6635 -0.3680
 3126TIP3   OH231012   0.637   2.919   8.563  0.0520  0.0818 -0.0724
 3126TIP3    H131013   0.727   2.891   8.552  0.2104  0.3628  0.4651
 3126TIP3    H231014   0.641   3.015   8.556  0.0999  0.2520  1.8896
 3127TIP3   OH231015   0.987   4.598   1.848 -0.3078  0.2389  0.5784
 3127TIP3    H131016   0.956   4.516   1.885 -0.6090 -0.4524 -1.1377
 3127TIP3    H231017   1.059   4.624   1.907 -0.4374 -1.0445  1.3548
 3128TIP3   OH231018   6.930   3.679   1.495 -0.5281 -0.3924  0.2783
 3128TIP3    H131019   6.998   3.747   1.495  0.0634 -0.9397 -1.1403
 3128TIP3    H231020   6.897   3.678   1.405 -1.6120 -0.9430  0.6610
 3129TIP3   OH231021   5.959   6.921   8.094 -0.0957  0.3472 -0.1918
 3129TIP3    H131022   5.987   6.984   8.160 -0.2317  0.5982 -0.3683
 3129TIP3    H231023   5.868   6.944   8.076 -0.9940 -1.5307  1.6046
 3130TIP3   OH231024   5.869   3.714   7.038  0.1894  0.2883  0.5505
 3130TIP3    H131025   5.954   3.758   7.031  1.1328 -1.4579  0.5755
 3130TIP3    H231026   5.818   3.750   6.965  1.7032 -0.1903 -0.8006
 3131TIP3   OH231027   4.743   5.970   1.779  0.2639  0.1397  0.1558
 3131TIP3    H131028   4.767   5.877   1.777 -0.3279 -0.0099 -1.1905
 3131TIP3    H231029   4.804   6.012   1.720  0.6556  0.6574  0.9156
 3132TIP3   OH231030   0.043   2.108   1.972  0.3448  0.1610 -0.3306
 3132TIP3    H131031  -0.033   2.108   2.030  1.0454 -1.9489  0.6912
 3132TIP3    H231032   0.036   2.025   1.924  2.1425 -0.2295  0.0324
 3133TIP3   OH231033   4.923   5.066   2.734 -0.1413  0.0165  0.2866
 3133TIP3    H131034   4.925   5.152   2.777  0.9997  0.2479 -0.2023
 3133TIP3    H231035   4.831   5.041   2.735 -0.5967  1.5753 -0.1814
 3134TIP3   OH231036   1.740   4.537   1.566 -0.4347 -0.5960 -0.1386
 3134TIP3    H131037   1.799   4.477   1.521  1.2327  0.0866  1.0390
 3134TIP3    H231038   1.689   4.578   1.496  3.5009  1.9938 -1.8522
 3135TIP3   OH231039   1.997   1.001   8.334 -0.1292 -0.1277  0.5180
 3135TIP3    H131040   2.030   0.914   8.312  0.1891 -0.2922  1.5872
 3135TIP3    H231041   1.962   0.992   8.423 -2.8856  0.0852 -0.4303
 3136TIP3   OH231042   4.769   3.439   8.418 -0.0987 -0.2529 -0.3116
 3136TIP3    H131043   4.752   3.527   8.450 -0.3781 -1.0216  1.7660
 3136TIP3    H231044   4.845   3.449   8.361 -1.1924  1.5761 -1.5346
 3137TIP3   OH231045   1.457   6.655   6.869 -0.2093 -0.0300  0.4182
 3137TIP3    H131046   1.546   6.648   6.904 -1.3324 -0.2014  3.5970
 3137TIP3    H231047   1.432   6.565   6.849 -0.0151 -0.1189  0.5697
 3138TIP3   OH231048   3.200   6.024   0.885  0.0511 -0.0456 -0.1464
 3138TIP3    H131049   3.188   6.098   0.826  0.7823 -1.0604 -1.6408
 3138TIP3    H231050   3.295   6.011   0.888  0.0383  0.0314  1.3557
 3139TIP3   OH231051   2.977   0.591   1.676 -0.0424  0.3078 -0.5172
 3139TIP3    H131052   3.044   0.560   1.738  0.6476  0.0999 -1.3525
 3139TIP3    H231053   2.908   0.526   1.682  0.5745 -0.3953 -0.8743
 3140TIP3   OH231054   2.500   2.306   1.152 -0.1840 -0.4457 -0.0926
 3140TIP3    H131055   2.466   2.227   1.193  0.1837  0.0812  1.3077
 3140TIP3    H231056   2.536   2.277   1.068  0.8217 -1.9398  0.8046
 3141TIP3   OH231057   0.806   5.908   0.823  0.0318 -0.5663  0.2027
 3141TIP3    H131058   0.866   5.978   0.797 -0.0908  0.4417  2.4018
 3141TIP3    H231059   0.725   5.928   0.776 -0.5663  1.8960  1.9949
 3142TIP3   OH231060   1.996   2.715   7.774 -0.1336  0.8285 -0.1604
 3142TIP3    H131061   1.922   2.701   7.834 -0.6908 -0.8328 -1.1558
 3142TIP3    H231062   2.049   2.635   7.783  0.3095  0.9996 -1.1148
 3143TIP3   OH231063   0.458   6.156   7.859  0.1908 -0.3630  0.4578
 3143TIP3    H131064   0.481   6.245   7.884 -2.2578  0.3983  0.1897
 3143TIP3    H231065   0.497   6.101   7.927 -0.4770  1.1261  2.0939
 3144TIP3   OH231066   4.549   1.160   8.325  0.5305  0.5027  0.3220
 3144TIP3    H131067   4.641   1.154   8.353  0.3426  1.0667  1.0981
 3144TIP3    H231068   4.506   1.208   8.396 -0.5797 -0.6736  0.4615
 3145TIP3   OH231069   6.103   0.926   2.895  0.4792  0.2936  0.1484
 3145TIP3    H131070   6.132   0.944   2.805 -0.6904 -0.1061 -0.3332
 3145TIP3    H231071   6.096   0.831   2.899  1.7423  0.2281  1.0785
 3146TIP3   OH231072   4.255   1.305   1.791 -0.1431 -0.8045  0.0213
 3146TIP3    H131073   4.341   1.314   1.833  0.5238  1.3004 -1.5930
 3146TIP3    H231074   4.221   1.395   1.788 -0.1808 -0.7798 -3.6607
 3147TIP3   OH231075   0.543   5.335   7.522  0.2319  0.1940  0.4253
 3147TIP3    H131076   0.548   5.378   7.436  0.0160 -1.2045 -0.3132
 3147TIP3    H231077   0.450   5.327   7.540  0.2536 -0.6149  0.2080
 3148TIP3   OH231078   3.982   0.353   8.571 -0.2275  0.6443  0.3417
 3148TIP3    H131079   3.981   0.261   8.545 -2.4107  0.6817  0.1031
 3148TIP3    H231080   3.902   0.389   8.534 -0.2816  2.2315  1.8798
 3149TIP3   OH231081   3.353   3.475   2.200 -0.0461 -0.1282 -0.1215
 3149TIP3    H131082   3.263   3.456   2.175 -0.0457 -0.0644 -0.1709
 3149TIP3    H231083   3.358   3.570   2.206 -0.1763 -0.1680  0.6225
 3150TIP3   OH231084   2.024   1.511   2.359 -0.4179  0.0382  0.1754
 3150TIP3    H131085   1.954   1.546   2.304 -0.9359 -0.6533  0.3860
 3150TIP3    H231086   2.046   1.427   2.318  1.2268  0.8307 -0.6808
 3151TIP3   OH231087   5.273   4.690   0.161  0.0782  0.3665 -0.1205
 3151TIP3    H131088   5.314   4.609   0.190  2.0836  1.2693 -0.2421
 3151TIP3    H231089   5.243   4.732   0.242 -1.4997 -0.7320 -0.1091
 3152TIP3   OH231090   4.314   5.369   1.266 -0.0348  0.1951 -0.3423
 3152TIP3    H131091   4.255   5.351   1.339 -0.6893 -0.7338 -1.0706
 3152TIP3    H231092   4.314   5.288   1.215  2.3234 -0.0268 -0.0696
 3153TIP3   OH231093   0.834   2.812   1.027 -0.3015 -0.3464  0.3356
 3153TIP3    H131094   0.816   2.719   1.012 -0.1391 -0.3035 -0.1497
 3153TIP3    H231095   0.804   2.855   0.947 -2.7410  0.3430  1.4981
 3154TIP3   OH231096   3.871   2.388   7.345  0.1667  0.1207  0.2290
 3154TIP3    H131097   3.861   2.444   7.268 -0.8977  0.4614  0.5977
 3154TIP3    H231098   3.909   2.445   7.412  1.3319 -0.2422 -0.1064
 3155TIP3   OH231099   4.963   1.722   1.752 -0.3511 -0.3649  0.0481
 3155TIP3    H131100   4.961   1.778   1.674 -0.6070  2.6123  2.0061
 3155TIP3    H231101   5.053   1.689   1.756  0.0233  0.4869 -0.8393
 3156TIP3   OH231102   4.611   2.554   1.144 -0.1444  0.1239  0.3754
 3156TIP3    H131103   4.628   2.610   1.068  1.5626  0.3929  0.9250
 3156TIP3    H231104   4.559   2.610   1.203  0.5273  0.7377  0.4017
 3157TIP3   OH231105   5.491   0.322   0.523 -0.8444 -0.2336  0.7244
 3157TIP3    H131106   5.508   0.258   0.593  1.1457 -2.7674 -1.8384
 3157TIP3    H231107   5.408   0.294   0.485 -0.4156 -0.7733  0.1706
 3158TIP3   OH231108   1.080   1.453   0.335 -0.2228  0.1863 -0.5885
 3158TIP3    H131109   0.994   1.414   0.352 -0.3451 -0.0161 -1.5889
 3158TIP3    H231110   1.143   1.389   0.367 -0.4379 -0.0787 -0.6968
 3159TIP3   OH231111   3.393   1.279   7.906 -0.6308  0.8665 -0.1953
 3159TIP3    H131112   3.484   1.302   7.887 -1.0506  1.9541 -0.9643
 3159TIP3    H231113   3.384   1.294   8.000  0.1920 -0.0154  0.0372
 3160TIP3   OH231114   6.275   5.958   7.316  0.0615  0.5386 -0.0046
 3160TIP3    H131115   6.318   5.975   7.400  0.1367 -1.7279  0.4919
 3160TIP3    H231116   6.341   5.981   7.251  1.3875 -1.0315  0.6991
 3161TIP3   OH231117   5.093   2.392   1.270 -0.0651 -0.5155  0.1698
 3161TIP3    H131118   5.147   2.321   1.238  2.5488  0.8222  1.2951
 3161TIP3    H231119   5.093   2.381   1.365 -1.9054 -0.4982  0.2169
 3162TIP3   OH231120   1.697   6.597   7.453  0.3437  0.5113  0.5148
 3162TIP3    H131121   1.723   6.507   7.471 -0.3876  0.4886  1.5075
 3162TIP3    H231122   1.602   6.597   7.461  0.4823  1.8635  2.8711
 3163TIP3   OH231123   2.873   3.300   7.574 -0.4519  0.2437  0.2640
 3163TIP3    H131124   2.878   3.347   7.658 -0.5322  2.6149 -0.9743
 3163TIP3    H231125   2.960   3.262   7.564 -0.1142  0.7931  0.9620
 3164TIP3   OH231126   3.276   0.682   7.277 -0.6469  0.5072  0.2813
 3164TIP3    H131127   3.338   0.754   7.295  1.2044 -0.5464 -1.4061
 3164TIP3    H231128   3.240   0.703   7.191  1.1644 -1.3048 -1.0055
 3165TIP3   OH231129   6.905   3.848   1.204 -0.1125  0.7207 -0.1547
 3165TIP3    H131130   6.921   3.914   1.272  0.7505  2.8559 -2.2723
 3165TIP3    H231131   6.810   3.834   1.207  0.0842 -0.6519  2.6172
 3166TIP3   OH231132   0.360   1.895   0.173  0.1953 -0.0900 -0.0124
 3166TIP3    H131133   0.357   1.841   0.252  1.3624 -1.8058 -1.0800
 3166TIP3    H231134   0.303   1.850   0.111  0.0916  0.6744 -0.4820
 3167TIP3   OH231135   1.796   2.078   0.357 -0.7579 -0.1419  0.1494
 3167TIP3    H131136   1.875   2.024   0.350 -1.7580 -1.6877  0.3341
 3167TIP3    H231137   1.823   2.165   0.326  0.9682 -0.6680  0.1050
 3168TIP3   OH231138   4.238   2.644   7.781 -0.6487 -1.1318  0.0319
 3168TIP3    H131139   4.247   2.561   7.734  0.7424 -1.0134  0.0467
 3168TIP3    H231140   4.240   2.710   7.712 -0.1382 -1.0311  0.1435
 3169TIP3   OH231141   4.558   0.450   7.273  0.0251  0.2321  0.4958
 3169TIP3    H131142   4.554   0.479   7.182  3.9770 -1.8494 -0.5669
 3169TIP3    H231143   4.487   0.387   7.281  0.8588 -1.1410 -1.8914
 3170TIP3   OH231144   1.758   1.135   0.077  0.3901 -0.0555  0.4749
 3170TIP3    H131145   1.853   1.147   0.071  0.4316 -0.7475 -0.5683
 3170TIP3    H231146   1.739   1.061   0.019 -0.7839  0.0403  0.6995
 3171TIP3   OH231147   0.454   0.654   8.419  0.5865  0.0499  0.1757
 3171TIP3    H131148   0.389   0.656   8.349 -1.2246 -0.6185  1.7367
 3171TIP3    H231149   0.414   0.705   8.490  1.8831 -0.1893  1.1154
 3172TIP3   OH231150   4.057   1.100   2.353 -0.7067  0.3236  0.4286
 3172TIP3    H131151   4.106   1.147   2.421  0.5669 -0.0337 -0.1984
 3172TIP3    H231152   4.083   1.009   2.363 -1.6953  0.0323  0.4302
 3173TIP3   OH231153   1.415   2.061   1.354  0.7658  0.3561 -0.0266
 3173TIP3    H131154   1.482   2.114   1.310  0.2925  1.3134  0.3711
 3173TIP3    H231155   1.373   2.122   1.415 -0.0404 -0.3931  0.1833
 3174TIP3   OH231156   1.172   6.812   6.135  0.2343 -0.6864 -0.0600
 3174TIP3    H131157   1.189   6.747   6.067  1.0219 -0.5821  0.0318
 3174TIP3    H231158   1.258   6.834   6.170  0.0186  0.6663 -0.3240
 3175TIP3   OH231159   6.833   6.537   0.460  0.3550 -0.1748  0.1904
 3175TIP3    H131160   6.763   6.533   0.395  1.5859 -1.4669 -1.1051
 3175TIP3    H231161   6.822   6.456   0.511 -0.0838  0.4269  1.0818
 3176TIP3   OH231162   3.867   0.203   0.529  0.3442  1.1114  0.2757
 3176TIP3    H131163   3.891   0.236   0.442 -0.6129  0.8137 -0.1077
 3176TIP3    H231164   3.843   0.112   0.514  1.0222  0.8046  1.0061
 3177TIP3   OH231165   5.235   6.915   1.572  0.4500  0.3400  0.2322
 3177TIP3    H131166   5.169   6.973   1.536 -0.2742 -0.3306  0.4357
 3177TIP3    H231167   5.198   6.827   1.561  2.3785 -0.3047 -1.9211
 3178TIP3   OH231168   1.715   6.181   1.011  0.3801  0.6002 -0.3889
 3178TIP3    H131169   1.742   6.109   0.954 -1.3139 -0.3821 -0.0348
 3178TIP3    H231170   1.789   6.195   1.069 -0.2079 -2.8992  1.4733
 3179TIP3   OH231171   0.387   2.473   0.072  0.3036  0.3503 -0.1739
 3179TIP3    H131172   0.382   2.407   0.141  0.4963  0.4452 -0.0675
 3179TIP3    H231173   0.437   2.544   0.111 -0.6516  0.9348  0.0033
 3180TIP3   OH231174   6.895   5.800   7.496  0.0854 -0.5785  0.2124
 3180TIP3    H131175   6.979   5.796   7.542  1.5699  3.0362 -1.7073
 3180TIP3    H231176   6.899   5.729   7.432  1.0130 -1.3487  1.0829
 3181TIP3   OH231177   5.002   4.482   6.447 -0.1412 -0.0541 -0.4542
 3181TIP3    H131178   5.048   4.517   6.371  0.6512  0.1125  0.0768
 3181TIP3    H231179   5.066   4.491   6.519 -1.2231  0.7666  0.4469
 3182TIP3   OH231180   3.224   3.241   1.839  0.0256  0.1028 -0.0043
 3182TIP3    H131181   3.164   3.167   1.840  0.7666 -0.4999  1.3439
 3182TIP3    H231182   3.260   3.241   1.750  1.0078 -1.9969  0.3273
 3183TIP3   OH231183   3.966   0.731   7.793  0.4556 -0.5423 -0.5137
 3183TIP3    H131184   3.911   0.669   7.840  1.6483 -0.2048  1.4506
 3183TIP3    H231185   3.997   0.792   7.860 -0.4996  2.1392 -2.2914
 3184TIP3   OH231186   0.372   1.075   1.571  0.0893  0.4100 -0.3509
 3184TIP3    H131187   0.410   1.075   1.483 -0.1359  0.6959 -0.4479
 3184TIP3    H231188   0.404   1.156   1.611 -0.0556  0.4289 -0.2754
 3185TIP3   OH231189   5.162   2.072   0.327  0.0733 -0.0104 -0.0505
 3185TIP3    H131190   5.222   2.147   0.332 -0.0159  0.0861 -0.3948
 3185TIP3    H231191   5.211   2.000   0.366  0.9921 -0.2925 -1.6184
 3186TIP3   OH231192   2.031   6.304   7.887 -0.3912  0.4874 -0.1473
 3186TIP3    H131193   1.948   6.342   7.914 -0.3865  0.3043  0.1287
 3186TIP3    H231194   2.083   6.299   7.967  0.0721  1.0614 -0.4035
 3187TIP3   OH231195   3.612   2.288   7.754  0.3766 -0.4368  0.1572
 3187TIP3    H131196   3.658   2.228   7.695 -0.1721 -0.4994 -0.2216
 3187TIP3    H231197   3.650   2.374   7.736  1.7660 -0.7761  1.3101
 3188TIP3   OH231198   4.728   3.697   8.542  0.2723 -0.8102 -0.1133
 3188TIP3    H131199   4.779   3.777   8.534  0.2213 -0.6605  0.9546
 3188TIP3    H231200   4.705   3.692   8.635 -2.8570 -0.1182 -0.7280
 3189TIP3   OH231201   6.179   4.956   7.489  0.4546 -0.1619 -0.7421
 3189TIP3    H131202   6.167   5.046   7.459  1.1657  0.5719  1.0826
 3189TIP3    H231203   6.260   4.927   7.448 -0.2122 -0.3069 -2.0158
 3190TIP3   OH231204   1.283   5.270   1.193 -0.0652 -0.1023  0.1595
 3190TIP3    H131205   1.365   5.285   1.240 -1.7851  0.5432  3.1879
 3190TIP3    H231206   1.279   5.339   1.128  1.8906 -0.3220 -0.2493
 3191TIP3   OH231207   1.573   1.796   0.077  0.1282  0.1907  0.4988
 3191TIP3    H131208   1.524   1.739   0.136  0.8272  0.6066  1.5203
 3191TIP3    H231209   1.593   1.742   0.001  0.7338 -0.9017  1.4196
 3192TIP3   OH231210   6.936   0.100   8.550 -0.0429 -0.5396  0.3504
 3192TIP3    H131211   6.917   0.013   8.513 -0.6050 -1.0384  1.7262
 3192TIP3    H231212   7.017   0.127   8.508 -0.1083 -1.5302 -0.4559
 3193TIP3   OH231213   0.864   3.531   1.555 -0.0351 -0.0333  0.1580
 3193TIP3    H131214   0.795   3.597   1.570  0.2807  0.0175  1.4503
 3193TIP3    H231215   0.946   3.578   1.567  0.2875  0.0308 -1.8927
 3194TIP3   OH231216   2.297   5.751   0.811  0.1409  1.1502  0.2296
 3194TIP3    H131217   2.271   5.756   0.719 -0.2775  0.6559  0.3106
 3194TIP3    H231218   2.220   5.782   0.859  0.0772  0.6801  0.4363
 3195TIP3   OH231219   3.006   1.852   1.917 -0.1572 -0.2706  0.0989
 3195TIP3    H131220   3.002   1.830   2.010  0.3820  0.8578  0.4070
 3195TIP3    H231221   2.966   1.939   1.911  0.0960 -0.1995 -0.6751
 3196TIP3   OH231222   4.324   4.526   7.261  0.3038 -0.3449  0.4653
 3196TIP3    H131223   4.368   4.608   7.238 -0.1740 -0.4742 -0.9754
 3196TIP3    H231224   4.271   4.548   7.338 -1.3527  1.2405 -1.0427
 3197TIP3   OH231225   3.276   1.504   8.561 -0.5146  0.5070 -0.1715
 3197TIP3    H131226   3.247   1.595   8.570  3.5300  2.4585 -3.2045
 3197TIP3    H231227   3.331   1.489   8.637 -0.6381  0.8786 -0.0060
 3198TIP3   OH231228   0.337   5.871   1.568  0.2675 -0.4393 -0.4941
 3198TIP3    H131229   0.280   5.818   1.513  0.2846  1.3132 -2.3036
 3198TIP3    H231230   0.357   5.948   1.515  3.8627 -0.6870  0.2553
 3199TIP3   OH231231   2.903   6.219   7.208  0.2252 -0.0791  0.1141
 3199TIP3    H131232   2.945   6.201   7.292  0.6046 -0.0758 -0.0732
 3199TIP3    H231233   2.857   6.302   7.221 -0.3308 -0.4447  0.5392
 3200TIP3   OH231234   5.067   1.645   1.345  0.4543  0.5864 -0.2756
 3200TIP3    H131235   5.011   1.575   1.313  0.6336 -0.1762  0.9948
 3200TIP3    H231236   5.007   1.718   1.364  0.0867  0.2847 -0.2831
 3201TIP3   OH231237   2.208   6.931   0.604 -0.5304  0.1650 -0.2528
 3201TIP3    H131238   2.250   6.984   0.671  1.2257 -0.7792 -0.5445
 3201TIP3    H231239   2.234   6.972   0.521 -1.9128  0.7728 -0.4131
 3202TIP3   OH231240   3.037   5.156   7.467 -0.2293  0.1820 -0.2806
 3202TIP3    H131241   3.100   5.182   7.534 -2.1695 -0.9882  2.1532
 3202TIP3    H231242   3.075   5.077   7.428  0.7356  0.6459 -0.3205
 3203TIP3   OH231243   3.011   2.300   7.950 -0.4386  0.0429 -0.1962
 3203TIP3    H131244   3.029   2.361   7.879  2.1607  0.1920  0.5100
 3203TIP3    H231245   3.055   2.219   7.924  0.1021 -0.0592  0.9821
 3204TIP3   OH231246   4.710   3.640   1.309  0.0688 -0.1594 -0.5338
 3204TIP3    H131247   4.630   3.592   1.287  0.8706 -0.8766 -2.0286
 3204TIP3    H231248   4.778   3.574   1.313  0.4546  0.3155  1.7101
 3205TIP3   OH231249   4.033   4.357   1.947 -0.3093 -0.2207 -0.6780
 3205TIP3    H131250   4.055   4.264   1.952  0.5320  0.0370  0.9746
 3205TIP3    H231251   3.958   4.360   1.887  0.1146 -1.8667 -1.3423
 3206TIP3   OH231252   2.085   4.918   8.061  0.5392  0.0846 -0.1070
 3206TIP3    H131253   2.099   5.012   8.058 -2.6800  0.7195  1.1213
 3206TIP3    H231254   2.112   4.892   8.149  1.4300 -0.2003 -0.4460
 3207TIP3   OH231255   4.412   3.285   2.351  0.9134  0.5841 -0.3304
 3207TIP3    H131256   4.409   3.206   2.404  0.3282  0.7672 -0.0793
 3207TIP3    H231257   4.501   3.318   2.362  1.6679 -0.8674 -1.6915
 3208TIP3   OH231258   5.978   4.420   0.583 -0.1461  0.2527 -0.0504
 3208TIP3    H131259   5.900   4.441   0.533  0.3155 -0.5573 -1.1459
 3208TIP3    H231260   6.039   4.491   0.563  0.1106 -0.1735 -0.8292
 3209TIP3   OH231261   0.313   3.704   0.387  0.1048 -0.2706  0.1100
 3209TIP3    H131262   0.238   3.675   0.336 -1.1061  2.1823  0.3687
 3209TIP3    H231263   0.332   3.792   0.355  2.9861 -0.8229 -0.0036
 3210TIP3   OH231264   1.090   4.158   6.842  0.3304  0.3152  0.2613
 3210TIP3    H131265   1.047   4.232   6.799 -1.1118 -0.6920 -0.0920
 3210TIP3    H231266   1.067   4.082   6.789  1.9092 -0.3940  0.5305
 3211TIP3   OH231267   6.312   6.246   0.132 -0.0665  0.0469  0.2807
 3211TIP3    H131268   6.292   6.340   0.136  1.0410  0.3018  0.2612
 3211TIP3    H231269   6.238   6.208   0.084  0.0124  1.0922 -0.7316
 3212TIP3   OH231270   4.505   0.213   1.821 -0.0988  0.3402 -0.4197
 3212TIP3    H131271   4.470   0.138   1.869 -0.8229  1.0023  0.1052
 3212TIP3    H231272   4.429   0.248   1.774 -0.6530  2.8422  2.0880
 3213TIP3   OH231273   0.340   2.570   1.562  0.1170 -0.1181 -0.4670
 3213TIP3    H131274   0.343   2.476   1.578  0.4389  0.0363  0.4554
 3213TIP3    H231275   0.261   2.583   1.509 -0.8645 -0.7145  0.8027
 3214TIP3   OH231276   0.110   6.446   8.487  0.2789  0.0131 -0.1879
 3214TIP3    H131277   0.084   6.466   8.577  0.4706 -0.3523 -0.0512
 3214TIP3    H231278   0.201   6.473   8.482  0.4207 -0.4416 -0.1192
 3215TIP3   OH231279   6.840   0.100   7.645 -0.3368  0.3424 -0.4642
 3215TIP3    H131280   6.863   0.169   7.707  0.0859  1.6443 -2.0172
 3215TIP3    H231281   6.760   0.130   7.602 -0.4869 -0.4159 -0.7366
 3216TIP3   OH231282   4.271   3.438   1.296  0.7058  0.6066 -0.1400
 3216TIP3    H131283   4.297   3.373   1.362  1.9585  0.6747 -0.5493
 3216TIP3    H231284   4.262   3.519   1.345 -0.2426  0.2754  0.2644
 3217TIP3   OH231285   4.758   3.266   0.462  0.9096 -0.2100  0.3828
 3217TIP3    H131286   4.668   3.290   0.484  0.9554  0.5145 -0.2006
 3217TIP3    H231287   4.802   3.258   0.547  0.2583 -0.7466  0.6778
 3218TIP3   OH231288   5.277   2.195   8.526 -0.7477 -0.0755  0.2334
 3218TIP3    H131289   5.326   2.264   8.572  2.3760 -2.6077  1.0504
 3218TIP3    H231290   5.324   2.183   8.444 -1.7548 -0.6987 -0.2654
 3219TIP3   OH231291   1.174   0.051   0.424  0.8493 -0.1282  0.3226
 3219TIP3    H131292   1.082   0.067   0.404  0.6770 -0.7468  0.6150
 3219TIP3    H231293   1.177  -0.039   0.458  1.7115 -0.5337 -0.7409
 3220TIP3   OH231294   1.239   2.063   7.456  0.2188  0.8442  0.0754
 3220TIP3    H131295   1.152   2.042   7.490  0.0731 -0.4819 -1.0516
 3220TIP3    H231296   1.286   1.980   7.458  1.3106  1.4390  0.1664
 3221TIP3   OH231297   2.134   5.494   1.466  0.4660 -0.3663 -0.2640
 3221TIP3    H131298   2.115   5.486   1.559 -1.5164 -0.1940 -0.5948
 3221TIP3    H231299   2.205   5.432   1.450  2.2195  1.0081  1.6747
 3222TIP3   OH231300   3.118   1.436   1.602  0.6018  0.3653 -0.0733
 3222TIP3    H131301   3.141   1.398   1.687 -0.8647  0.7480  0.5345
 3222TIP3    H231302   3.090   1.525   1.622 -2.5887 -0.4349 -0.4806
 3223TIP3   OH231303   3.387   2.527   8.297  0.4991  0.4153  0.4471
 3223TIP3    H131304   3.442   2.565   8.366  0.5236  0.1401  0.5813
 3223TIP3    H231305   3.439   2.454   8.263 -0.2019 -0.4953  1.2810
 3224TIP3   OH231306   0.276   6.157   1.931  0.1120 -0.5308  0.1309
 3224TIP3    H131307   0.188   6.125   1.952 -0.7948  1.4273 -0.4269
 3224TIP3    H231308   0.287   6.138   1.838 -0.2949  0.4358 -0.1232
 3225TIP3   OH231309   1.405   5.642   2.203  0.2550 -0.3307  0.1386
 3225TIP3    H131310   1.496   5.630   2.175 -0.5089 -2.0101 -1.8595
 3225TIP3    H231311   1.383   5.731   2.173  0.6681 -0.6451 -1.1472
 3226TIP3   OH231312   5.614   0.969   6.520 -0.0972  0.3419 -0.6644
 3226TIP3    H131313   5.577   1.005   6.601 -0.9152 -1.1254 -0.3467
 3226TIP3    H231314   5.623   1.045   6.462 -1.4278  1.1179  0.0818
 3227TIP3   OH231315   6.613   3.994   6.534  0.6627 -0.2101  0.0213
 3227TIP3    H131316   6.650   3.934   6.470 -0.1920  0.2511 -0.9431
 3227TIP3    H231317   6.526   3.958   6.554 -0.2030  1.0921 -1.1957
 3228TIP3   OH231318   5.442   6.563   2.025 -0.8796  0.0215  0.1857
 3228TIP3    H131319   5.499   6.493   1.992  0.2142  0.5948  0.7684
 3228TIP3    H231320   5.477   6.643   1.985 -0.4540  0.5420  1.5299
 3229TIP3   OH231321   1.520   3.105   6.177 -0.2589  0.2500  0.2668
 3229TIP3    H131322   1.557   3.040   6.237  1.5586 -0.2093 -1.2231
 3229TIP3    H231323   1.438   3.066   6.147  0.1888 -0.8045  0.3648
 3230TIP3   OH231324   4.201   6.332   1.179 -0.2356 -0.1538  0.0228
 3230TIP3    H131325   4.239   6.386   1.110 -0.7746  1.1792  0.7393
 3230TIP3    H231326   4.114   6.309   1.146 -1.2726  2.1131  1.0261
 3231TIP3   OH231327   1.198   0.092   8.136 -0.9381  0.6455 -0.5354
 3231TIP3    H131328   1.287   0.077   8.104 -0.8448  1.4151 -0.6425
 3231TIP3    H231329   1.160   0.154   8.074 -1.4350  0.5907 -0.2894
 3232TIP3   OH231330   6.894   4.258   2.700 -0.4485 -0.1523  0.2823
 3232TIP3    H131331   6.881   4.255   2.795 -0.3247  1.7945  0.3922
 3232TIP3    H231332   6.814   4.298   2.666  1.3511  3.6623  0.0988
 3233TIP3   OH231333   6.404   4.847   7.313  0.4211  0.2107 -0.1359
 3233TIP3    H131334   6.388   4.890   7.229  1.6758  0.3956 -0.2921
 3233TIP3    H231335   6.458   4.771   7.291  1.1252  0.5018  0.5504
 3234TIP3   OH231336   6.287   4.259   1.984 -0.8537 -0.3648 -0.3834
 3234TIP3    H131337   6.267   4.174   2.024  1.9608 -0.5379  0.8901
 3234TIP3    H231338   6.365   4.243   1.931 -1.6219  0.9843 -2.0289
 3235TIP3   OH231339   3.370   2.618   1.925 -0.5221 -0.0072  0.3292
 3235TIP3    H131340   3.384   2.689   1.987 -0.4768  1.1625 -0.9836
 3235TIP3    H231341   3.276   2.617   1.909 -0.4993 -0.1218  0.1964
 3236TIP3   OH231342   5.741   6.632   7.206 -0.5040 -0.1150 -0.1573
 3236TIP3    H131343   5.677   6.580   7.255 -0.1730 -1.6230 -1.2687
 3236TIP3    H231344   5.817   6.638   7.264 -1.1886  0.6642  0.6839
 3237TIP3   OH231345   1.964   6.299   8.343 -0.1433  0.2192  0.2936
 3237TIP3    H131346   1.963   6.228   8.279  0.0872  0.3248  0.1698
 3237TIP3    H231347   2.056   6.308   8.368 -0.2335  0.1690  0.6551
 3238TIP3   OH231348   3.928   1.229   1.488 -0.4208  0.3702  0.0566
 3238TIP3    H131349   3.892   1.151   1.446 -0.0529  1.1414 -1.8096
 3238TIP3    H231350   3.913   1.299   1.424  1.6950  1.2776  0.4775
 3239TIP3   OH231351   3.175   0.919   7.966 -0.0382  0.2880  0.1350
 3239TIP3    H131352   3.135   0.978   8.030 -2.8443  0.0369 -1.1986
 3239TIP3    H231353   3.202   0.976   7.895  0.2749  0.2797  0.2479
 3240TIP3   OH231354   2.170   2.604   2.766  0.2030  0.3042 -0.0593
 3240TIP3    H131355   2.259   2.571   2.750 -0.1121 -0.4889 -0.2306
 3240TIP3    H231356   2.159   2.595   2.861  0.2284  0.1872 -0.0663
 3241TIP3   OH231357   6.606   4.323   0.852  0.0966 -0.6058  0.4452
 3241TIP3    H131358   6.674   4.298   0.790  0.6604  0.7135  0.5105
 3241TIP3    H231359   6.526   4.327   0.800  0.1408 -1.6966  0.2755
 3242TIP3   OH231360   1.430   6.159   1.889  0.6492  0.2215 -0.0044
 3242TIP3    H131361   1.395   6.142   1.976  1.3255 -1.0136  0.0492
 3242TIP3    H231362   1.355   6.146   1.830  0.5498 -0.4348  0.2636
 3243TIP3   OH231363   5.957   3.381   8.182  0.2917 -0.0249 -0.3529
 3243TIP3    H131364   6.039   3.373   8.230  0.8660  1.6219 -1.0062
 3243TIP3    H231365   5.901   3.312   8.219  1.9145 -1.1285  0.1605
 3244TIP3   OH231366   4.677   0.314   2.607 -0.6227  0.5453 -0.3078
 3244TIP3    H131367   4.729   0.267   2.672 -0.3058  0.6209 -0.5043
 3244TIP3    H231368   4.713   0.403   2.607 -0.1905  0.3761 -1.0500
 3245TIP3   OH231369   2.062   0.909   1.960  0.0163  0.1149 -0.0575
 3245TIP3    H131370   2.094   0.892   2.048 -0.3833 -1.3682 -0.1680
 3245TIP3    H231371   2.140   0.932   1.909  0.2677  0.8308  0.6373
 3246TIP3   OH231372   6.680   4.521   1.734 -0.0568  0.3681  0.2424
 3246TIP3    H131373   6.742   4.476   1.791  0.4885 -1.0622 -1.3980
 3246TIP3    H231374   6.600   4.530   1.787 -0.4620 -3.2251  0.4837
 3247TIP3   OH231375   3.953   5.969   1.377  0.3320 -0.3166  0.4783
 3247TIP3    H131376   3.870   5.927   1.357  0.7427 -1.4688  1.0834
 3247TIP3    H231377   4.005   5.961   1.297 -0.3584  1.0405 -0.1420
 3248TIP3   OH231378   4.728   2.916   1.246 -0.1685  1.0745 -0.3147
 3248TIP3    H131379   4.748   2.849   1.311 -1.4848  0.4219 -0.5401
 3248TIP3    H231380   4.633   2.926   1.250 -0.2764  1.0608 -2.0931
 3249TIP3   OH231381   3.630   0.522   7.467  0.4621 -0.3165 -0.4553
 3249TIP3    H131382   3.656   0.609   7.437 -1.7105  0.6785  0.3243
 3249TIP3    H231383   3.604   0.476   7.387  1.2514 -0.1194 -0.8320
 3250TIP3   OH231384   5.737   0.437   0.051 -0.1995  0.6514 -0.2341
 3250TIP3    H131385   5.784   0.374  -0.004  0.7593  1.1921 -0.0572
 3250TIP3    H231386   5.711   0.387   0.128 -2.0736 -0.2776 -1.3730
 3251TIP3   OH231387   0.996   5.480   0.592 -0.0240  0.4652 -0.4913
 3251TIP3    H131388   1.077   5.530   0.577 -0.8663  2.2634  0.5616
 3251TIP3    H231389   0.987   5.479   0.688 -1.2289  0.2955 -0.5963
 3252TIP3   OH231390   4.877   1.232   7.448  0.4422 -0.5201  0.0603
 3252TIP3    H131391   4.913   1.270   7.528  0.2604 -0.6843  0.2180
 3252TIP3    H231392   4.944   1.170   7.419 -1.0947 -3.3506  2.1690
 3253TIP3   OH231393   1.929   6.279   1.124  0.5522  0.4766 -0.4964
 3253TIP3    H131394   1.963   6.368   1.111 -0.6465  1.0284 -0.0187
 3253TIP3    H231395   1.905   6.276   1.217 -1.0345  0.2494 -0.8930
 3254TIP3   OH231396   4.048   3.413   1.148  0.3063  0.7835 -0.3024
 3254TIP3    H131397   4.060   3.318   1.137 -3.1710  0.0355  0.9940
 3254TIP3    H231398   4.103   3.435   1.223  2.0437  0.1028 -1.3033
 3255TIP3   OH231399   2.402   5.463   8.564 -0.5463  0.0456  0.3320
 3255TIP3    H131400   2.315   5.453   8.526 -0.2415 -0.4461 -0.2457
 3255TIP3    H231401   2.427   5.375   8.590  0.2750 -0.0225 -0.6233
 3256TIP3   OH231402   4.306   2.919   2.674  0.0336  0.0178  0.2720
 3256TIP3    H131403   4.391   2.962   2.679  0.0013  0.3437 -1.3480
 3256TIP3    H231404   4.311   2.848   2.739  1.7130 -0.2434 -0.0933
 3257TIP3   OH231405   5.106   0.084   7.103  0.1023  0.0505 -0.0800
 3257TIP3    H131406   5.144   0.172   7.106 -0.3232  0.2864 -1.2725
 3257TIP3    H231407   5.120   0.054   7.013  0.1317 -1.0607  0.2716
 3258TIP3   OH231408   4.527   6.133   7.709 -0.2762 -0.3233  0.2993
 3258TIP3    H131409   4.556   6.132   7.618  0.2240  1.8104  0.3705
 3258TIP3    H231410   4.440   6.092   7.707 -0.0683 -0.7488 -1.0552
 3259TIP3   OH231411   0.730   5.590   0.202 -0.0470  0.8759 -0.1606
 3259TIP3    H131412   0.688   5.634   0.128  2.2804  0.3298 -1.9436
 3259TIP3    H231413   0.810   5.641   0.218  0.3426 -0.0094  0.8222
 3260TIP3   OH231414   1.966   0.472   6.961  0.1112  0.0159 -0.4278
 3260TIP3    H131415   1.880   0.492   6.997  0.1067 -0.2414 -0.2894
 3260TIP3    H231416   1.949   0.444   6.871 -0.2828 -2.7322  0.3921
 3261TIP3   OH231417   3.179   1.265   2.374  0.3639 -0.0641  0.8740
 3261TIP3    H131418   3.103   1.244   2.428 -1.1604  2.2163 -0.2240
 3261TIP3    H231419   3.181   1.361   2.371  1.5398 -0.0840 -1.4917
 3262TIP3   OH231420   5.827   2.872   0.690 -0.3039 -0.8018  0.4053
 3262TIP3    H131421   5.849   2.863   0.597  1.4736  1.2746  0.5460
 3262TIP3    H231422   5.750   2.928   0.692  1.7155  2.2114  0.1708
 3263TIP3   OH231423   1.767   0.221   6.776  0.1122  0.1470  0.2855
 3263TIP3    H131424   1.840   0.171   6.738  0.0056 -0.1038  0.4046
 3263TIP3    H231425   1.724   0.261   6.701 -0.9249 -1.4543 -0.0280
 3264TIP3   OH231426   5.207   1.620   1.694 -0.0722  0.4370  0.0531
 3264TIP3    H131427   5.270   1.683   1.729 -0.0945 -0.2594  1.3932
 3264TIP3    H231428   5.262   1.547   1.663 -0.0786  0.8856 -1.0703
 3265TIP3   OH231429   0.449   4.260   0.174  0.0811  0.8869  0.5506
 3265TIP3    H131430   0.462   4.352   0.198  0.8659  1.2037 -0.9678
 3265TIP3    H231431   0.511   4.212   0.228  0.9716  1.4542  0.0533
 3266TIP3   OH231432   1.574   4.295   0.552  0.1964  0.1493  0.3069
 3266TIP3    H131433   1.641   4.334   0.609  0.1197  1.3020 -0.3621
 3266TIP3    H231434   1.521   4.242   0.611 -1.2856  3.0695  1.8362
 3267TIP3   OH231435   2.645   4.743   8.297 -0.7519 -0.1550  0.1807
 3267TIP3    H131436   2.664   4.797   8.221  2.5978 -1.1781  0.1373
 3267TIP3    H231437   2.591   4.672   8.263  0.1600 -0.2597 -1.1140
 3268TIP3   OH231438   3.043   1.643   0.195  0.3310  0.7720  0.4656
 3268TIP3    H131439   3.102   1.586   0.243  0.9093  1.0203  0.0575
 3268TIP3    H231440   3.049   1.728   0.239  0.4169  0.8472  0.3083
 3269TIP3   OH231441   3.097   4.433   8.277  0.7186  0.1006 -0.5820
 3269TIP3    H131442   3.050   4.509   8.309  0.3878  1.2153 -3.4687
 3269TIP3    H231443   3.155   4.467   8.209  2.5042 -1.8745 -0.1421
 3270TIP3   OH231444   1.503   1.244   1.686  0.1387 -0.0434  0.0148
 3270TIP3    H131445   1.587   1.203   1.663 -0.2984 -0.8890 -0.1128
 3270TIP3    H231446   1.517   1.337   1.670  0.4945 -0.3682 -1.7338
 3271TIP3   OH231447   3.426   4.845   1.107  0.3140 -0.4721  0.2600
 3271TIP3    H131448   3.474   4.917   1.149 -1.7715  0.5804  0.9985
 3271TIP3    H231449   3.493   4.794   1.062  2.0535  1.0975  0.9477
 3272TIP3   OH231450   5.543   5.689   1.127 -0.8127  0.1600  0.0194
 3272TIP3    H131451   5.524   5.612   1.181 -2.2899  0.3578 -0.1569
 3272TIP3    H231452   5.475   5.686   1.059  1.5731 -0.6855 -2.4978
 3273TIP3   OH231453   2.105   5.722   0.226 -0.6065 -0.0886  0.6334
 3273TIP3    H131454   2.039   5.662   0.191  0.4694 -1.0537  0.1917
 3273TIP3    H231455   2.144   5.675   0.300  0.9151 -0.3719 -0.3097
 3274TIP3   OH231456   5.191   5.240   1.492  0.1392 -0.8798 -0.6275
 3274TIP3    H131457   5.213   5.248   1.399 -1.1582  1.2592 -0.8167
 3274TIP3    H231458   5.166   5.148   1.503  0.2559 -1.1569 -2.4007
 3275TIP3   OH231459   2.773   5.961   2.082 -0.5661  0.7284 -0.0909
 3275TIP3    H131460   2.781   5.933   1.990 -2.2334 -1.4558  0.3419
 3275TIP3    H231461   2.683   5.993   2.089 -1.1478 -1.0700  1.2106
 3276TIP3   OH231462   1.305   4.258   2.789 -0.1008  0.9670 -0.2582
 3276TIP3    H131463   1.354   4.313   2.728  1.9176  0.3939  0.7578
 3276TIP3    H231464   1.371   4.199   2.825 -2.2590 -2.6576 -1.8014
 3277TIP3   OH231465   0.859   4.736   1.637 -0.2563  0.4362  0.3244
 3277TIP3    H131466   0.886   4.696   1.720 -0.1141 -0.1081  0.0237
 3277TIP3    H231467   0.778   4.783   1.658 -2.7778 -3.3057 -0.0856
 3278TIP3   OH231468   4.031   0.388   1.599 -0.6084  0.3159  0.5474
 3278TIP3    H131469   4.044   0.397   1.505 -0.8478 -1.9463  0.2248
 3278TIP3    H231470   3.936   0.395   1.610 -0.7184 -0.7149  0.3986
 3279TIP3   OH231471   1.514   5.843   0.405 -0.2366  0.2681  0.6843
 3279TIP3    H131472   1.521   5.874   0.315  2.6895 -0.0839  0.6738
 3279TIP3    H231473   1.466   5.913   0.451 -0.5950  1.0813 -0.8647
 3280TIP3   OH231474   1.188   1.545   2.125  0.2860 -0.0626 -0.3622
 3280TIP3    H131475   1.133   1.624   2.130  1.4050  0.6941  0.3527
 3280TIP3    H231476   1.178   1.515   2.035 -0.7131  0.4819 -0.4486
 3281TIP3   OH231477   1.841   6.015   6.880 -0.8534  0.0605  0.4287
 3281TIP3    H131478   1.915   5.975   6.926 -0.8433  2.3306  2.6289
 3281TIP3    H231479   1.770   6.013   6.945 -1.4317  1.6577 -0.1037
 3282TIP3   OH231480   2.763   3.934   0.284  0.3842  0.2428  0.0332
 3282TIP3    H131481   2.834   3.956   0.344  1.0612 -0.4922 -0.4780
 3282TIP3    H231482   2.686   3.925   0.339  0.7938  0.5377  0.6639
 3283TIP3   OH231483   6.830   2.597   7.543  1.0164  0.4774 -0.1621
 3283TIP3    H131484   6.803   2.680   7.503 -0.7704  0.1345  0.2582
 3283TIP3    H231485   6.887   2.623   7.616  0.3220  1.3702  0.0867
 3284TIP3   OH231486   4.897   4.465   8.498 -0.0148 -0.3236  0.6725
 3284TIP3    H131487   4.819   4.516   8.476 -1.1436 -1.8945  0.8471
 3284TIP3    H231488   4.967   4.530   8.503 -1.0252  0.9786 -0.8389
 3285TIP3   OH231489   4.139   6.455   8.414 -0.6508 -0.2944 -0.0426
 3285TIP3    H131490   4.173   6.367   8.402 -0.2530 -0.6408  2.8084
 3285TIP3    H231491   4.187   6.489   8.490 -3.1585  1.0801  1.0538
 3286TIP3   OH231492   1.775   5.168   7.084 -0.1254 -0.6231  0.3222
 3286TIP3    H131493   1.712   5.162   7.156  0.6866  1.2394  1.2774
 3286TIP3    H231494   1.754   5.094   7.027 -1.8729 -1.1968  1.6125
 3287TIP3   OH231495   0.274   3.728   7.673 -0.2627 -0.2949 -0.3082
 3287TIP3    H131496   0.321   3.751   7.753 -0.8993 -1.4864  0.4466
 3287TIP3    H231497   0.240   3.640   7.690 -0.7602 -0.4064 -1.7378
 3288TIP3   OH231498   4.012   1.949   6.450  0.0896 -0.4722 -0.3699
 3288TIP3    H131499   4.007   2.044   6.462  1.6871 -0.3446 -0.3674
 3288TIP3    H231500   3.922   1.921   6.435 -0.6008  0.8449  1.0718
 3289TIP3   OH231501   6.043   0.408   8.151  0.3726 -0.4739 -0.0471
 3289TIP3    H131502   6.130   0.433   8.119  1.2939 -2.0660  1.0603
 3289TIP3    H231503   6.026   0.468   8.223  0.8651 -0.5861  0.1649
 3290TIP3   OH231504   3.715   6.015   7.662 -0.0326 -0.1030 -0.3737
 3290TIP3    H131505   3.623   6.040   7.666 -0.6254 -2.3108  1.5374
 3290TIP3    H231506   3.737   6.017   7.569 -1.7886  1.1040 -0.8000
 3291TIP3   OH231507   4.956   4.258   1.043  0.3751 -0.6712 -0.1690
 3291TIP3    H131508   5.001   4.289   1.122  0.3239  0.9166 -0.7249
 3291TIP3    H231509   4.871   4.228   1.075  0.9058 -1.4390  0.5661
 3292TIP3   OH231510   0.465   2.817   1.584  0.6062 -0.6276  0.2959
 3292TIP3    H131511   0.394   2.827   1.648 -1.2434  0.4309 -1.7910
 3292TIP3    H231512   0.455   2.727   1.552  1.5502 -1.1680  1.4155
 3293TIP3   OH231513   3.783   3.763   7.419 -0.3722  0.1515 -0.2377
 3293TIP3    H131514   3.779   3.671   7.392  0.8433  0.0586 -0.1948
 3293TIP3    H231515   3.704   3.778   7.470 -0.2828 -1.0534  0.2835
 3294TIP3   OH231516   1.177   1.533   7.201  0.7571 -0.1383 -0.4152
 3294TIP3    H131517   1.260   1.510   7.159  0.6990 -0.4184 -0.3795
 3294TIP3    H231518   1.198   1.605   7.259  1.0090 -0.3167 -0.2830
 3295TIP3   OH231519   5.779   5.051   1.758 -0.3242 -0.5847 -0.9013
 3295TIP3    H131520   5.700   5.084   1.801 -0.0868  0.5730 -1.3031
 3295TIP3    H231521   5.816   4.989   1.821 -0.9220 -0.2497 -0.1930
 3296TIP3   OH231522   5.917   4.313   2.450  0.4162 -0.1634  0.5723
 3296TIP3    H131523   5.919   4.383   2.516 -1.3096  0.4456  0.0315
 3296TIP3    H231524   5.841   4.260   2.474 -1.2822  1.0453 -1.8593
 3297TIP3   OH231525   4.645   2.051   7.262 -0.4750  0.5718 -0.4973
 3297TIP3    H131526   4.652   1.961   7.293  0.3595  0.6085 -0.5554
 3297TIP3    H231527   4.603   2.098   7.334 -0.7707  0.1715 -0.4063
 3298TIP3   OH231528   5.814   6.497   1.435 -0.1766  0.9037  0.3239
 3298TIP3    H131529   5.862   6.418   1.461 -0.7995  0.6793  0.8246
 3298TIP3    H231530   5.842   6.514   1.346  1.0558  0.9491  0.7077
 3299TIP3   OH231531   0.840   2.332   0.950 -0.3679  0.3308  0.3400
 3299TIP3    H131532   0.885   2.307   1.031  0.6132  0.5876 -0.1059
 3299TIP3    H231533   0.847   2.255   0.894 -2.9156 -0.6394  1.2155
 3300TIP3   OH231534   2.771   3.931   7.893  0.1367 -0.0905 -0.0848
 3300TIP3    H131535   2.695   3.915   7.950 -0.5521  1.0361 -0.6458
 3300TIP3    H231536   2.832   3.860   7.915 -0.5910 -0.3697  1.2031
 3301TIP3   OH231537   0.165   0.149   1.147 -0.8618  0.1101 -0.2500
 3301TIP3    H131538   0.097   0.217   1.144 -1.0584 -0.1038 -1.1893
 3301TIP3    H231539   0.149   0.097   1.068 -2.0652 -2.3279  1.4451
 3302TIP3   OH231540   0.117   1.950   7.139 -0.4768  0.2018 -0.0576
 3302TIP3    H131541   0.079   1.893   7.071 -0.4020 -2.5383  1.9948
 3302TIP3    H231542   0.206   1.968   7.108 -1.4227  1.6908 -2.1113
 3303TIP3   OH231543   6.933   2.625   0.980 -0.1487 -0.2840  0.3824
 3303TIP3    H131544   6.963   2.715   0.996 -1.9905  0.2083  1.2472
 3303TIP3    H231545   6.920   2.621   0.885  1.4849 -0.1805  0.1191
 3304TIP3   OH231546   6.648   4.162   1.097 -0.0669 -0.2583 -0.3194
 3304TIP3    H131547   6.665   4.193   1.008  0.5778  0.3769  0.0141
 3304TIP3    H231548   6.730   4.179   1.144 -0.1809 -1.1856  0.2385
 3305TIP3   OH231549   3.783   1.260   8.317 -0.5782  0.4477  0.5505
 3305TIP3    H131550   3.797   1.348   8.282  1.4639 -0.1631 -0.3154
 3305TIP3    H231551   3.727   1.218   8.252  0.9758  0.1829 -0.6900
 3306TIP3   OH231552   1.790   3.788   6.394  0.3230 -0.2204 -0.1633
 3306TIP3    H131553   1.697   3.765   6.391  0.2857 -0.3986  1.5612
 3306TIP3    H231554   1.791   3.884   6.391  0.0993 -0.2239 -0.3666
 3307TIP3   OH231555   3.223   3.864   7.449  0.3432  0.4891 -0.2286
 3307TIP3    H131556   3.253   3.773   7.439  0.6347  0.6827 -1.2462
 3307TIP3    H231557   3.128   3.858   7.447  0.3472  0.1529  0.2813
 3308TIP3   OH231558   2.178   6.546   8.569  0.1804  0.3427  0.1553
 3308TIP3    H131559   2.272   6.567   8.576  1.1469 -3.2494  0.0276
 3308TIP3    H231560   2.176   6.456   8.537 -3.3973  0.5930 -0.7294
 3309TIP3   OH231561   1.677   6.876   0.958 -0.6692  0.2179  0.5565
 3309TIP3    H131562   1.743   6.852   1.023  1.1651  0.9109 -0.9368
 3309TIP3    H231563   1.690   6.813   0.887  0.9365  2.4844 -1.3116
 3310TIP3   OH231564   0.517   6.540   8.234 -0.4809  0.1560 -0.2653
 3310TIP3    H131565   0.520   6.528   8.329 -2.4135 -1.2405 -0.3114
 3310TIP3    H231566   0.455   6.611   8.221  0.9681  1.4193 -0.4662
 3311TIP3   OH231567   4.426   0.089   7.040 -0.0019  0.2414 -0.2449
 3311TIP3    H131568   4.356   0.127   6.987  0.2490  1.4483  0.2424
 3311TIP3    H231569   4.498   0.152   7.033 -0.2498  0.9241  2.1920
 3312TIP3   OH231570   4.114   3.476   7.454  0.3567 -0.3652 -0.3286
 3312TIP3    H131571   4.114   3.512   7.366 -2.9551 -0.3975 -0.4563
 3312TIP3    H231572   4.076   3.388   7.444 -0.1621 -0.3345  1.1097
 3313TIP3   OH231573   3.769   3.291   2.168 -0.3640 -0.0026  0.0963
 3313TIP3    H131574   3.856   3.267   2.135  0.6726  0.5192  2.2345
 3313TIP3    H231575   3.775   3.385   2.185 -0.8633 -0.1842  1.4901
 3314TIP3   OH231576   4.738   0.532   7.729 -0.3396 -0.0468  0.0296
 3314TIP3    H131577   4.665   0.518   7.669 -0.0232 -1.0950 -0.1229
 3314TIP3    H231578   4.737   0.626   7.745 -1.3815  0.0353 -0.4003
 3315TIP3   OH231579   3.851   2.248   7.592  0.1798 -0.2791 -0.4792
 3315TIP3    H131580   3.863   2.289   7.507 -1.3515 -0.4847 -0.8235
 3315TIP3    H231581   3.810   2.163   7.573 -0.4164 -0.2259  0.4736
 3316TIP3   OH231582   1.379   1.278   0.029 -1.4148  0.2549 -0.1803
 3316TIP3    H131583   1.350   1.206   0.086 -1.4075 -1.4742 -2.2317
 3316TIP3    H231584   1.297   1.321   0.002 -1.5317  0.0334 -0.1786
 3317TIP3   OH231585   5.996   3.823   7.518 -0.1219  0.2095 -0.6385
 3317TIP3    H131586   6.048   3.753   7.478  0.7247 -0.3750  1.3475
 3317TIP3    H231587   5.942   3.857   7.446 -0.0532 -1.9931 -1.8276
 3318TIP3   OH231588   2.491   0.647   1.799 -0.1691  0.2267  0.3721
 3318TIP3    H131589   2.487   0.641   1.894  0.7319  1.9409  0.5449
 3318TIP3    H231590   2.443   0.726   1.777  0.8446  0.6405 -0.4707
 3319TIP3   OH231591   2.412   2.312   2.131  0.1158 -0.2600 -0.0928
 3319TIP3    H131592   2.503   2.339   2.142 -0.1181  0.8172 -0.5865
 3319TIP3    H231593   2.370   2.388   2.090 -0.7743 -1.1272 -0.8265
 3320TIP3   OH231594   1.326   1.382   1.447  0.4016  0.0963  0.1564
 3320TIP3    H131595   1.301   1.338   1.529 -0.4766  1.1423  0.4673
 3320TIP3    H231596   1.375   1.316   1.399 -1.1933 -1.3576  0.4442
 3321TIP3   OH231597   6.579   5.144   7.915 -0.0658  0.3591 -0.1234
 3321TIP3    H131598   6.577   5.238   7.933  0.1880  0.3222  0.1100
 3321TIP3    H231599   6.568   5.103   8.001  0.4637  0.1767 -0.1391
 3322TIP3   OH231600   3.811   3.407   1.755  0.3570 -0.4367 -0.0344
 3322TIP3    H131601   3.899   3.368   1.760  0.6086  0.0738 -0.4095
 3322TIP3    H231602   3.806   3.464   1.831  0.5234 -0.1165 -0.2626
 3323TIP3   OH231603   1.631   1.910   6.306 -0.1676  0.4423 -0.0060
 3323TIP3    H131604   1.694   1.928   6.237 -2.0062  1.7640 -1.4344
 3323TIP3    H231605   1.668   1.951   6.384  2.0608 -1.2847 -0.0549
 3324TIP3   OH231606   5.785   1.627   0.268  0.2935 -0.2268 -0.0568
 3324TIP3    H131607   5.811   1.625   0.176 -0.3886  1.4032 -0.3291
 3324TIP3    H231608   5.725   1.553   0.278 -0.4175  0.1678 -1.2030
 3325TIP3   OH231609   1.266   6.239   0.400 -0.2120 -0.1256 -0.1834
 3325TIP3    H131610   1.283   6.222   0.307 -0.1031 -0.9225 -0.0278
 3325TIP3    H231611   1.234   6.329   0.403 -1.9850 -0.6659 -1.2223
 3326TIP3   OH231612   5.588   5.002   7.053 -0.0605 -0.0643  0.1731
 3326TIP3    H131613   5.524   5.037   7.115 -0.4177  1.6824 -1.1069
 3326TIP3    H231614   5.537   4.950   6.992 -0.5047  2.0498 -1.3781
 3327TIP3   OH231615   1.548   6.436   8.168  0.7373  0.2873  0.3897
 3327TIP3    H131616   1.534   6.522   8.207 -0.0667  0.2517  0.1828
 3327TIP3    H231617   1.479   6.427   8.103  1.1411 -0.2940  0.0266
 3328TIP3   OH231618   1.327   2.376   7.056 -0.1683 -0.0199  0.2138
 3328TIP3    H131619   1.255   2.386   7.119 -0.0303 -0.9082  0.5185
 3328TIP3    H231620   1.285   2.341   6.977 -0.1573 -0.0008  0.1995
 3329TIP3   OH231621   0.760   2.475   7.276  0.2590  0.2282  0.1417
 3329TIP3    H131622   0.771   2.410   7.207  1.5767 -0.0147  0.5493
 3329TIP3    H231623   0.744   2.557   7.230  1.1226  0.0671 -0.4666
 3330TIP3   OH231624   4.287   2.467   6.842  0.5262 -0.1586 -0.2956
 3330TIP3    H131625   4.355   2.470   6.909  0.4320 -1.9926 -0.0649
 3330TIP3    H231626   4.205   2.480   6.890  0.6652  2.4037 -0.6188
 3331TIP3   OH231627   4.013   3.836   7.537 -0.0130 -0.3169 -0.0222
 3331TIP3    H131628   3.919   3.815   7.532 -0.1072 -0.1573  0.8266
 3331TIP3    H231629   4.028   3.897   7.465 -0.5687 -0.3411 -0.1645
 3332TIP3   OH231630   4.970   6.441   1.219 -0.3421  0.3424  0.2011
 3332TIP3    H131631   4.968   6.402   1.306 -1.6890 -1.1785 -0.4654
 3332TIP3    H231632   4.991   6.369   1.160 -0.0469  1.2204 -0.8084
 3333TIP3   OH231633   5.824   5.117   6.862 -0.2329  0.3480  0.2435
 3333TIP3    H131634   5.837   5.182   6.931  0.3933 -2.6833  3.2278
 3333TIP3    H231635   5.908   5.112   6.817  0.2707  0.3696  1.1613
 3334TIP3   OH231636   6.694   0.323   8.105 -0.2269 -0.1062 -0.0616
 3334TIP3    H131637   6.660   0.252   8.050  0.4560 -0.8296  0.4365
 3334TIP3    H231638   6.787   0.328   8.082 -0.4224  1.1704 -0.6642
 3335TIP3   OH231639   1.749   4.748   0.844  0.5094  0.3906 -0.6001
 3335TIP3    H131640   1.660   4.766   0.873 -0.2238 -1.3610 -1.6473
 3335TIP3    H231641   1.793   4.833   0.848 -1.5069  1.5071 -1.1523
 3336TIP3   OH231642   4.430   1.399   0.367 -0.8348 -0.4284  0.0931
 3336TIP3    H131643   4.430   1.439   0.455  0.4112  0.7440 -0.3949
 3336TIP3    H231644   4.501   1.336   0.370 -1.0650 -0.6917  0.0430
 3337TIP3   OH231645   0.038   1.023   2.516  0.0017  0.0858  0.1093
 3337TIP3    H131646   0.118   1.054   2.475 -0.0277 -0.6989 -0.5567
 3337TIP3    H231647  -0.030   1.085   2.488  0.4233  0.9792  0.9894
 3338TIP3   OH231648   2.416   4.328   0.558  0.4495 -0.0031 -0.6363
 3338TIP3    H131649   2.461   4.380   0.491  0.0121  2.2331  0.6999
 3338TIP3    H231650   2.326   4.358   0.555  0.1490 -0.7974  0.1064
 3339TIP3   OH231651   4.416   6.021   8.358 -0.7103  0.3288 -0.3519
 3339TIP3    H131652   4.436   6.014   8.265  1.0928  3.1847 -0.2980
 3339TIP3    H231653   4.475   5.958   8.400 -1.7345 -1.1852 -1.0887
 3340TIP3   OH231654   6.887   4.130   6.413  0.3183  0.5940  1.0436
 3340TIP3    H131655   6.834   4.053   6.394  1.2847  0.4739 -1.5742
 3340TIP3    H231656   6.956   4.098   6.471  1.4738 -0.9411 -1.0168
 3341TIP3   OH231657   6.206   2.245   1.406 -0.2507  0.7523  0.4069
 3341TIP3    H131658   6.211   2.331   1.364 -0.1743  1.0160  0.9483
 3341TIP3    H231659   6.188   2.265   1.498 -0.5895  0.1758  0.4654
 3342TIP3   OH231660   1.013   6.877   8.004  0.0994 -0.0653 -0.3099
 3342TIP3    H131661   1.087   6.900   8.060  1.2968 -1.5051 -1.2230
 3342TIP3    H231662   0.936   6.911   8.051  1.1347 -0.2814  1.6494
 3343TIP3   OH231663   4.926   6.577   7.221 -0.2498  0.6410 -0.3156
 3343TIP3    H131664   4.884   6.605   7.302  1.4153  0.7576  0.5568
 3343TIP3    H231665   4.981   6.503   7.246  2.4973  2.4125 -0.6771
 3344TIP3   OH231666   4.019   5.360   8.073  0.1243 -0.6463 -0.7440
 3344TIP3    H131667   4.088   5.386   8.012 -0.0609  0.2079 -0.6072
 3344TIP3    H231668   4.039   5.408   8.153 -0.0451 -1.2037 -0.3655
 3345TIP3   OH231669   2.441   6.710   8.471 -0.6143 -0.3326  0.5392
 3345TIP3    H131670   2.386   6.779   8.509  0.4377  0.0993  1.3087
 3345TIP3    H231671   2.469   6.746   8.387  0.8073  0.6587  1.4096
 3346TIP3   OH231672   5.944   3.739   0.785  0.3078 -0.3201  0.0872
 3346TIP3    H131673   5.945   3.763   0.878  1.5714 -0.9847  0.2653
 3346TIP3    H231674   6.001   3.662   0.779 -0.3852 -0.7653 -1.1180
 3347TIP3   OH231675   1.408   6.867   6.269  0.1170 -0.1642 -0.5346
 3347TIP3    H131676   1.473   6.935   6.251  1.2780 -1.1959 -0.3699
 3347TIP3    H231677   1.451   6.809   6.332 -0.4616 -1.5746 -1.3852
 3348TIP3   OH231678   0.160   0.214   0.173 -1.0263  0.4295  0.0304
 3348TIP3    H131679   0.099   0.175   0.110 -1.1703  0.0006  0.4340
 3348TIP3    H231680   0.118   0.200   0.258 -0.6117  0.6003  0.2637
 3349TIP3   OH231681   1.517   1.898   7.761 -0.0430 -0.1761  0.1055
 3349TIP3    H131682   1.571   1.868   7.834 -1.3731 -0.1470  1.1410
 3349TIP3    H231683   1.427   1.888   7.791 -0.6629 -0.6334 -1.7336
 3350TIP3   OH231684   5.927   5.309   8.070 -0.7350 -0.1236  0.0200
 3350TIP3    H131685   5.902   5.217   8.067 -0.9639 -0.0424 -0.4930
 3350TIP3    H231686   6.023   5.307   8.073 -0.7339 -0.3694 -0.1782
 3351TIP3   OH231687   4.727   5.315   2.702  0.3923 -0.2122  0.0964
 3351TIP3    H131688   4.658   5.377   2.679  0.6472  0.7853  1.8475
 3351TIP3    H231689   4.719   5.245   2.637 -1.4441  0.4812 -0.4818
 3352TIP3   OH231690   5.951   4.652   0.842 -0.3019 -0.0244  0.4778
 3352TIP3    H131691   5.970   4.578   0.784  4.8005  1.4274 -0.2145
 3352TIP3    H231692   6.012   4.641   0.915 -1.5394  1.9515  1.8976
 3353TIP3   OH231693   1.427   2.157   7.691  0.0295  0.3062 -0.0144
 3353TIP3    H131694   1.473   2.075   7.705 -0.1639  0.1282 -0.4084
 3353TIP3    H231695   1.375   2.142   7.612 -1.4285  0.1872  0.9304
 3354TIP3   OH231696   1.998   4.007   2.519  0.0820 -0.1499  0.5460
 3354TIP3    H131697   1.989   4.004   2.614 -1.4066 -0.8097  0.4121
 3354TIP3    H231698   1.908   4.018   2.486  0.5587  0.0104 -0.7816
 3355TIP3   OH231699   0.898   5.115   7.363 -0.5977  0.4571  0.6062
 3355TIP3    H131700   0.811   5.076   7.371 -0.7803  0.7205 -0.0102
 3355TIP3    H231701   0.945   5.085   7.440 -0.8932 -0.5669  0.3938
 3356TIP3   OH231702   1.330   5.744   6.805  0.5212 -0.9040 -0.2911
 3356TIP3    H131703   1.290   5.672   6.755  1.3658 -2.3432  1.0129
 3356TIP3    H231704   1.256   5.799   6.830  0.0792 -0.1277 -3.0740
 3357TIP3   OH231705   0.446   2.095   7.986 -0.2939  0.1593 -0.1977
 3357TIP3    H131706   0.426   2.004   7.963 -1.9638  0.9824 -2.4305
 3357TIP3    H231707   0.388   2.114   8.060  1.4286 -1.0503  1.5767
 3358TIP3   OH231708   3.111   1.739   8.026  0.2227  0.6796 -0.7737
 3358TIP3    H131709   3.165   1.772   7.954 -1.5742 -0.0259 -2.5555
 3358TIP3    H231710   3.040   1.803   8.034  0.0359  0.3982 -0.1194
 3359TIP3   OH231711   5.562   5.618   0.760 -0.3500 -0.7890  0.0632
 3359TIP3    H131712   5.560   5.531   0.801  0.6340 -1.3416 -1.0129
 3359TIP3    H231713   5.561   5.601   0.666  1.3043  0.2816 -0.1947
 3360TIP3   OH231714   1.553   2.068   7.396 -0.1396  0.0872 -0.9571
 3360TIP3    H131715   1.527   1.976   7.404 -1.0338  0.3059 -1.2302
 3360TIP3    H231716   1.470   2.115   7.384  0.3872  0.7977 -1.9522
 3361TIP3   OH231717   4.479   2.028   7.845 -0.0716 -0.3130 -0.9280
 3361TIP3    H131718   4.513   2.049   7.932  0.8367 -1.8289 -0.8916
 3361TIP3    H231719   4.549   2.053   7.785  0.8759 -2.6678 -0.9118
 3362TIP3   OH231720   3.443   1.366   6.835 -0.1362  0.1423  0.0526
 3362TIP3    H131721   3.391   1.445   6.820  0.8211  1.4355  2.8650
 3362TIP3    H231722   3.388   1.310   6.889 -0.4059 -0.6810 -1.0492
 3363TIP3   OH231723   1.111   0.141   7.382  0.2546  0.4260  0.0743
 3363TIP3    H131724   1.148   0.112   7.298  0.2415 -0.9525  0.5185
 3363TIP3    H231725   1.047   0.074   7.404 -3.1237  3.0156 -0.9866
 3364TIP3   OH231726   6.474   0.497   8.541  0.3262  0.2262 -0.0895
 3364TIP3    H131727   6.503   0.414   8.504 -3.1450 -2.0378  1.6863
 3364TIP3    H231728   6.432   0.543   8.468  0.4007 -0.6013 -0.6672
 3365TIP3   OH231729   4.770   0.232   1.720  0.5467  1.1856  0.5053
 3365TIP3    H131730   4.680   0.202   1.713  0.6984  0.5013  1.3454
 3365TIP3    H231731   4.777   0.304   1.657 -0.4363  0.9058  0.0705
 3366TIP3   OH231732   4.055   1.265   0.039 -0.2258  0.0732 -0.2743
 3366TIP3    H131733   4.091   1.278  -0.049  0.9153  0.3808  0.2253
 3366TIP3    H231734   3.960   1.271   0.027 -0.1418 -1.0025 -1.6622
 3367TIP3   OH231735   0.537   3.951   0.737  0.0304  0.7899 -0.3966
 3367TIP3    H131736   0.567   3.930   0.825 -0.9493  0.9206 -0.0216
 3367TIP3    H231737   0.533   3.865   0.693 -1.7417  0.4086  0.4274
 3368TIP3   OH231738   4.330   5.701   1.584  0.4609 -0.3989  0.3584
 3368TIP3    H131739   4.236   5.686   1.593  0.2470  0.9028  0.4974
 3368TIP3    H231740   4.367   5.614   1.569 -0.3042 -1.5970  4.1810
 3369TIP3   OH231741   4.391   3.365   7.512  0.2787  0.0962 -0.0857
 3369TIP3    H131742   4.467   3.309   7.499  0.7131  0.8999 -1.1823
 3369TIP3    H231743   4.363   3.388   7.423 -1.4274 -0.4196  0.2852
 3370TIP3   OH231744   1.882   4.214   1.649  0.6395  0.2071  0.1245
 3370TIP3    H131745   1.890   4.124   1.618  1.3571 -1.1109  3.6315
 3370TIP3    H231746   1.794   4.219   1.685  1.5929 -0.3236  2.8636
 3371TIP3   OH231747   6.448   2.865   8.097  0.2229  0.1864 -0.2837
 3371TIP3    H131748   6.390   2.790   8.096 -0.2991  0.5959 -1.3630
 3371TIP3    H231749   6.444   2.901   8.009 -0.7097  2.3758  0.5778
 3372TIP3   OH231750   2.679   5.521   8.526 -0.3991 -0.3358 -0.0653
 3372TIP3    H131751   2.673   5.443   8.472 -1.7547 -0.3474  0.0623
 3372TIP3    H231752   2.588   5.544   8.546 -0.0367  1.2181 -0.0258
 3373TIP3   OH231753   2.949   5.846   7.454 -0.2407 -0.0884 -0.0073
 3373TIP3    H131754   2.898   5.876   7.530 -1.3129 -1.0630 -0.3167
 3373TIP3    H231755   3.019   5.793   7.492 -0.8645 -0.7057  0.3126
 3374TIP3   OH231756   4.344   6.504   1.007  0.4328  0.3525 -0.1940
 3374TIP3    H131757   4.388   6.526   0.925 -0.4793  1.0793 -0.4979
 3374TIP3    H231758   4.369   6.574   1.067 -0.9176  1.2269 -0.6027
 3375TIP3   OH231759   5.595   5.531   0.168 -0.4374 -0.4673  0.1072
 3375TIP3    H131760   5.525   5.519   0.104 -0.7364 -0.4577  0.4285
 3375TIP3    H231761   5.636   5.445   0.175 -0.4103 -0.4709 -0.0864
 3376TIP3   OH231762   0.595   2.523   8.274 -0.4878  0.2609  0.0221
 3376TIP3    H131763   0.655   2.532   8.349  0.3030 -0.6438 -0.4752
 3376TIP3    H231764   0.640   2.567   8.202  0.3789 -1.7839 -0.7639
 3377TIP3   OH231765   3.425   2.073   0.744 -0.1051  0.1274  0.4005
 3377TIP3    H131766   3.464   2.015   0.809 -0.4267 -0.4441  0.0857
 3377TIP3    H231767   3.442   2.031   0.660 -1.2473 -0.0514  0.2413
 3378TIP3   OH231768   3.172   2.793   1.515  0.0960  0.1583 -0.3093
 3378TIP3    H131769   3.202   2.861   1.575 -1.5140 -0.1414  0.9055
 3378TIP3    H231770   3.248   2.736   1.503  0.9159  1.1320  0.1384
 3379TIP3   OH231771   5.324   4.395   1.423  0.0518  0.7440  0.1159
 3379TIP3    H131772   5.385   4.334   1.382 -1.3456  0.0160 -0.9738
 3379TIP3    H231773   5.334   4.476   1.373 -0.0961  0.5260 -0.2695
 3380TIP3   OH231774   5.540   3.923   7.324 -0.1842  0.1134  0.0224
 3380TIP3    H131775   5.515   3.929   7.232 -0.6419 -1.2687  0.0370
 3380TIP3    H231776   5.458   3.911   7.371  0.0180  1.1063  0.6572
 3381TIP3   OH231777   5.323   3.387   6.944 -0.1552  0.4491  0.6875
 3381TIP3    H131778   5.382   3.416   6.874 -1.0083 -0.3946 -0.4222
 3381TIP3    H231779   5.372   3.319   6.990 -1.1077 -2.2748 -1.9469
 3382TIP3   OH231780   1.533   2.449   2.115  0.3138  0.6840 -0.2531
 3382TIP3    H131781   1.448   2.419   2.148  0.9460 -0.0673  0.7276
 3382TIP3    H231782   1.580   2.368   2.095  1.1073  1.0789  0.0069
 3383TIP3   OH231783   1.838   3.780   7.010 -0.0356  0.6410 -0.5009
 3383TIP3    H131784   1.854   3.840   7.083 -0.1822  0.4966 -0.3489
 3383TIP3    H231785   1.828   3.836   6.933  3.1067  0.7014 -0.9918
 3384TIP3   OH231786   3.872   0.576   8.245  0.0479  0.0094 -0.7412
 3384TIP3    H131787   3.892   0.651   8.302  0.1634  0.3384 -1.2059
 3384TIP3    H231788   3.898   0.605   8.158  1.0480 -0.9382 -0.7827
 3385TIP3   OH231789   2.017   4.818   1.795 -0.4064 -0.1304 -0.0473
 3385TIP3    H131790   2.050   4.855   1.713 -2.4091  0.4413 -0.6447
 3385TIP3    H231791   1.984   4.893   1.844 -0.6246 -0.6491  0.6165
 3386TIP3   OH231792   5.863   3.489   7.474 -0.1271 -0.1956  0.0369
 3386TIP3    H131793   5.832   3.483   7.564  0.7704 -0.8079  0.3194
 3386TIP3    H231794   5.816   3.420   7.427 -1.3326  0.7581 -0.2079
 3387TIP3   OH231795   0.877   6.281   0.948 -0.1509  0.1745 -0.1277
 3387TIP3    H131796   0.890   6.345   1.018 -1.2583  0.2104  0.0535
 3387TIP3    H231797   0.909   6.324   0.869  1.4401  0.0034  0.3902
 3388TIP3   OH231798   1.506   5.638   8.066 -0.2432 -0.2747  0.0182
 3388TIP3    H131799   1.560   5.583   8.009  2.4107  0.9589  1.1911
 3388TIP3    H231800   1.417   5.608   8.049  0.8057 -2.9615 -1.4768
 3389TIP3   OH231801   0.778   3.364   0.382  0.5027  0.0821 -0.4101
 3389TIP3    H131802   0.690   3.348   0.348  0.7958 -0.7059 -0.8047
 3389TIP3    H231803   0.833   3.373   0.304  0.8866 -0.0684 -0.1609
 3390TIP3   OH231804   6.066   5.694   7.633 -0.1831  0.5579  0.2590
 3390TIP3    H131805   5.999   5.627   7.650 -0.4561  0.2171 -1.9136
 3390TIP3    H231806   6.048   5.762   7.698 -1.0921 -0.6174  1.2956
 3391TIP3   OH231807   2.825   4.771   0.736  0.1204  0.3057  0.0081
 3391TIP3    H131808   2.794   4.711   0.803  1.8899  0.3174  0.8976
 3391TIP3    H231809   2.812   4.858   0.774  0.3454  0.3513 -0.0180
 3392TIP3   OH231810   1.374   2.523   8.345  0.1097 -0.5587  0.2905
 3392TIP3    H131811   1.414   2.548   8.428 -0.9170 -0.5759  0.8067
 3392TIP3    H231812   1.447   2.493   8.291  0.8813  0.0965  0.9425
 3393TIP3   OH231813   1.592   3.632   7.836 -0.1383  0.2067 -0.3857
 3393TIP3    H131814   1.497   3.633   7.821 -0.5520 -1.7390  1.6059
 3393TIP3    H231815   1.627   3.583   7.762 -0.6303  1.1043 -1.2426
 3394TIP3   OH231816   6.278   3.586   7.254  0.7682  0.0143 -0.7690
 3394TIP3    H131817   6.280   3.503   7.206  0.2726 -0.3688 -0.1428
 3394TIP3    H231818   6.188   3.592   7.288  0.8626  0.7025 -0.6230
 3395TIP3   OH231819   2.252   6.762   6.454 -0.8958 -0.4349  0.3499
 3395TIP3    H131820   2.203   6.702   6.398 -0.5246 -0.6338  0.2307
 3395TIP3    H231821   2.208   6.846   6.444 -1.7501 -0.7959  0.9355
 3396TIP3   OH231822   0.196   1.978   0.715  0.9545 -0.5657  0.2600
 3396TIP3    H131823   0.257   1.961   0.787  1.9357  0.5262 -0.2939
 3396TIP3    H231824   0.133   2.040   0.752  0.1103 -1.7273  0.8450
 3397TIP3   OH231825   3.181   0.175   1.186  0.1229  0.1825  0.0362
 3397TIP3    H131826   3.237   0.171   1.108 -0.9610 -2.2818 -0.6995
 3397TIP3    H231827   3.175   0.084   1.216 -1.6458  0.7055  1.4263
 3398TIP3   OH231828   1.115   1.951   0.594  0.2432 -0.1541  0.1007
 3398TIP3    H131829   1.023   1.970   0.576  0.2856 -1.3736 -1.7150
 3398TIP3    H231830   1.126   1.860   0.566  1.6826 -0.4815  1.6115
 3399TIP3   OH231831   2.407   3.752   2.176  0.0634  0.0543 -0.1386
 3399TIP3    H131832   2.465   3.676   2.176 -0.7553 -0.6163  1.3614
 3399TIP3    H231833   2.358   3.745   2.257 -1.0842  1.4044 -0.6635
 3400TIP3   OH231834   4.382   4.565   1.521  0.5021  0.0640  0.1611
 3400TIP3    H131835   4.376   4.620   1.443 -0.3093  1.8848  1.4221
 3400TIP3    H231836   4.294   4.568   1.559  1.4659  1.5177  2.5611
 3401TIP3   OH231837   4.657   5.014   2.672  0.0303  0.4753 -0.2222
 3401TIP3    H131838   4.575   5.001   2.720  0.7135  1.2081  1.2093
 3401TIP3    H231839   4.656   4.948   2.603 -1.3228 -0.1404  0.3665
 3402TIP3   OH231840   2.564   1.003   0.585 -0.1379  0.2204 -0.0123
 3402TIP3    H131841   2.595   0.963   0.503 -2.3572 -0.9285 -0.3596
 3402TIP3    H231842   2.519   0.932   0.631 -0.8587  1.3978  1.1636
 3403TIP3   OH231843   2.632   1.760   6.964 -0.0594  0.0306  0.5685
 3403TIP3    H131844   2.684   1.838   6.949  0.5582 -0.4110  0.3715
 3403TIP3    H231845   2.585   1.777   7.046  0.6372  0.3031  0.9172
 3404TIP3   OH231846   5.357   2.141   1.752 -0.4732 -0.7864 -0.2485
 3404TIP3    H131847   5.438   2.111   1.793 -1.2569 -0.0112  1.9809
 3404TIP3    H231848   5.384   2.218   1.700  0.2942 -0.8238  0.0848
 3405TIP3   OH231849   1.782   0.205   7.933 -0.3258 -0.0483  0.0858
 3405TIP3    H131850   1.780   0.137   7.866  0.0753 -1.5488  1.5173
 3405TIP3    H231851   1.767   0.158   8.015  1.6423  1.3118  1.3244
 3406TIP3   OH231852   3.083   0.004   0.263 -0.2469 -0.1601 -0.5417
 3406TIP3    H131853   3.106   0.033   0.351  0.9905 -0.3726 -0.7754
 3406TIP3    H231854   3.058  -0.088   0.273  0.8419 -0.4660 -0.5439
 3407TIP3   OH231855   5.861   3.433   0.925  0.8325  0.1895 -0.1134
 3407TIP3    H131856   5.887   3.407   0.836  1.3618 -0.7936  0.3149
 3407TIP3    H231857   5.902   3.369   0.982  1.3556  1.4060  0.9328
 3408TIP3   OH231858   3.008   2.671   1.032  0.8281 -0.3535 -0.4285
 3408TIP3    H131859   3.092   2.664   0.987  0.4787  1.7998 -1.5062
 3408TIP3    H231860   2.944   2.646   0.966  0.3774  1.9567 -0.9421
 3409TIP3   OH231861   5.879   6.672   2.543  0.2981  0.0833  0.4130
 3409TIP3    H131862   5.816   6.606   2.514  1.2170 -0.7440  0.2501
 3409TIP3    H231863   5.945   6.623   2.591  1.1969  0.8310 -0.0170
 3410TIP3   OH231864   3.731   6.001   8.512  0.3562 -0.3023  0.0918
 3410TIP3    H131865   3.805   5.942   8.498  0.4731  0.0067 -0.6889
 3410TIP3    H231866   3.754   6.080   8.463 -0.8018 -0.4647 -0.7773
 3411TIP3   OH231867   5.910   2.490   7.821  0.0356 -0.0650 -0.2119
 3411TIP3    H131868   5.846   2.424   7.848  0.3638 -1.2282 -2.1378
 3411TIP3    H231869   5.870   2.533   7.745 -0.1628  1.9929  0.9873
 3412TIP3   OH231870   2.866   6.875   0.617  0.2308  0.0970  0.1116
 3412TIP3    H131871   2.870   6.780   0.608 -0.7862 -0.0738  1.1857
 3412TIP3    H231872   2.830   6.906   0.534 -0.1050 -0.5195  0.0245
 3413TIP3   OH231873   3.254   5.789   8.509 -0.9322  0.0044  0.4521
 3413TIP3    H131874   3.276   5.882   8.504 -1.2686  0.1529  1.4386
 3413TIP3    H231875   3.180   5.786   8.570 -0.1544 -1.0239  1.3918
 3414TIP3   OH231876   4.072   0.584   1.841 -0.3519 -0.1981  0.1654
 3414TIP3    H131877   4.078   0.513   1.776  0.6413  1.0731 -1.2038
 3414TIP3    H231878   4.014   0.649   1.800 -0.7571  0.0633  1.1311
 3415TIP3   OH231879   2.678   6.493   0.618  0.2643 -0.1359  0.0577
 3415TIP3    H131880   2.703   6.406   0.588  2.3997  0.3229  0.3624
 3415TIP3    H231881   2.650   6.480   0.709  1.6001 -0.3928  0.4575
 3416TIP3   OH231882   1.860   0.620   1.616  0.3277 -0.0870 -0.4579
 3416TIP3    H131883   1.936   0.648   1.667 -0.3733 -0.4653  0.8690
 3416TIP3    H231884   1.867   0.524   1.614  0.9476 -0.0259 -2.0846
 3417TIP3   OH231885   4.756   0.726   1.306 -0.2349 -0.2483 -0.3800
 3417TIP3    H131886   4.745   0.673   1.227 -1.5643  0.6836 -0.8660
 3417TIP3    H231887   4.667   0.744   1.335  0.2100  0.7333  0.4408
 3418TIP3   OH231888   5.508   3.104   8.089 -0.5255  0.2589 -0.1736
 3418TIP3    H131889   5.557   3.165   8.144  0.7418 -0.0657 -0.8995
 3418TIP3    H231890   5.571   3.075   8.023 -1.6557 -0.3065 -1.0544
 3419TIP3   OH231891   5.333   5.155   8.494 -0.4955  0.1860 -0.4717
 3419TIP3    H131892   5.295   5.072   8.523 -0.8084  1.1512  2.1165
 3419TIP3    H231893   5.415   5.162   8.543 -1.4561  2.2871  0.9947
 3420TIP3   OH231894   4.446   1.972   7.455  0.0116 -0.3275  0.6176
 3420TIP3    H131895   4.407   1.890   7.487 -1.4352  0.4928  1.0825
 3420TIP3    H231896   4.509   1.996   7.523  1.5791 -1.7950 -0.2507
 3421TIP3   OH231897   5.926   4.247   1.699 -0.1213  0.2160 -0.5410
 3421TIP3    H131898   5.983   4.281   1.630  0.8455 -0.0867  0.0883
 3421TIP3    H231899   5.981   4.187   1.749 -0.8371  0.3185  0.4146
 3422TIP3   OH231900   5.913   4.040   0.191 -0.2901 -0.3169 -0.0851
 3422TIP3    H131901   5.912   4.033   0.286 -0.3292  0.0218 -0.0612
 3422TIP3    H231902   6.001   4.072   0.170 -0.1527 -0.7590 -0.1887
 3423TIP3   OH231903   1.419   1.860   0.958 -0.9941 -0.0271  0.0605
 3423TIP3    H131904   1.458   1.807   1.027  2.4797  0.7943 -1.0866
 3423TIP3    H231905   1.427   1.807   0.879 -1.4733  0.5314 -0.3756
 3424TIP3   OH231906   6.609   4.271   6.510  0.7869  0.2595  0.5569
 3424TIP3    H131907   6.637   4.187   6.547  2.5165  0.5485  0.0164
 3424TIP3    H231908   6.659   4.336   6.560  1.1831  0.8044 -0.5115
 3425TIP3   OH231909   6.919   2.287   1.153 -0.1976 -0.2612 -0.1626
 3425TIP3    H131910   6.911   2.291   1.249  2.0586  1.3485  0.0390
 3425TIP3    H231911   6.841   2.239   1.125 -2.3471  1.4826  2.2721
 3426TIP3   OH231912   2.664   6.810   2.301  0.0550  0.3479  0.2120
 3426TIP3    H131913   2.677   6.761   2.220 -0.3014 -0.0258  0.3741
 3426TIP3    H231914   2.632   6.744   2.363  1.6980  0.2934  1.0767
 3427TIP3   OH231915   6.705   3.021   0.179 -0.0027  0.4217  0.3853
 3427TIP3    H131916   6.675   3.109   0.205 -2.1924 -0.0721 -0.2150
 3427TIP3    H231917   6.691   3.018   0.085  0.4240 -0.4452  0.3467
 3428TIP3   OH231918   3.345   0.786   1.902  0.0828  0.5301  0.1017
 3428TIP3    H131919   3.365   0.752   1.815  2.2432 -0.2351  0.8096
 3428TIP3    H231920   3.430   0.810   1.938 -0.7941  1.1566  1.8743
 3429TIP3   OH231921   5.109   1.428   0.336 -0.0571  0.0532 -0.3673
 3429TIP3    H131922   5.157   1.511   0.326 -1.0650  1.1790  2.7594
 3429TIP3    H231923   5.019   1.449   0.314 -0.2575 -0.2622  0.1127
 3430TIP3   OH231924   1.262   0.035   1.405  0.0686 -0.1665  0.5227
 3430TIP3    H131925   1.192   0.100   1.402  1.0270  0.9175  0.9631
 3430TIP3    H231926   1.237  -0.025   1.475  0.6858  1.5692  2.3072
 3431TIP3   OH231927   5.150   0.191   0.695  0.3289  0.2396  0.4460
 3431TIP3    H131928   5.210   0.192   0.770 -0.4935 -1.8195  1.2065
 3431TIP3    H231929   5.073   0.145   0.727  0.2835 -1.4669 -1.8910
 3432TIP3   OH231930   3.656   3.582   8.394  0.0686 -0.4416 -0.4055
 3432TIP3    H131931   3.579   3.633   8.416 -0.2694 -1.2506  0.3469
 3432TIP3    H231932   3.622   3.495   8.372  0.7999 -1.0248  0.6658
 3433TIP3   OH231933   6.521   3.629   7.552  0.4329  0.1541  0.0060
 3433TIP3    H131934   6.480   3.604   7.469  2.0463  1.4697 -1.2892
 3433TIP3    H231935   6.449   3.657   7.607 -0.7007 -0.8469 -0.9236
 3434TIP3   OH231936   4.544   3.612   7.596  0.2071 -0.3030  0.3597
 3434TIP3    H131937   4.458   3.604   7.557  1.0524 -1.2809 -1.4281
 3434TIP3    H231938   4.541   3.556   7.674 -0.9105  0.0910  0.6053
 3435TIP3   OH231939   6.723   6.026   0.139 -0.0444  0.4420  0.8601
 3435TIP3    H131940   6.787   6.058   0.203  1.7877 -0.0389 -0.6418
 3435TIP3    H231941   6.774   6.011   0.060 -1.5725 -2.3091  0.2712
 3436TIP3   OH231942   4.161   5.021   1.822 -0.0452 -0.0941  0.1833
 3436TIP3    H131943   4.095   4.983   1.764  0.2653  0.1613 -0.3437
 3436TIP3    H231944   4.110   5.069   1.888 -0.3854  0.1729 -0.2664
 3437TIP3   OH231945   0.970   0.841   7.561 -0.1257  0.3521  0.5889
 3437TIP3    H131946   1.014   0.916   7.521  2.3190 -1.0115  0.4970
 3437TIP3    H231947   0.882   0.842   7.523  0.7022  1.6207 -1.5092
 3438TIP3   OH231948   5.686   3.862   6.851  0.0549 -0.0984 -0.5601
 3438TIP3    H131949   5.634   3.888   6.927 -0.8364  0.4413 -1.3293
 3438TIP3    H231950   5.632   3.798   6.805  0.2465  0.1442 -1.1383
 3439TIP3   OH231951   2.195   2.174   8.142  0.1845  0.3309  0.3649
 3439TIP3    H131952   2.260   2.209   8.203 -0.0822  0.4867  0.5578
 3439TIP3    H231953   2.247   2.143   8.068  0.3622  1.9064 -0.1990
 3440TIP3   OH231954   5.605   1.626   1.248  0.1310 -0.1435 -0.0334
 3440TIP3    H131955   5.625   1.660   1.161 -1.3651  1.6861  0.2711
 3440TIP3    H231956   5.524   1.671   1.273 -0.8748 -2.5012  1.2806
 3441TIP3   OH231957   1.825   2.911   7.674 -0.0270 -0.0987 -0.1036
 3441TIP3    H131958   1.905   2.865   7.697 -0.6676 -0.8448  0.7464
 3441TIP3    H231959   1.852   3.001   7.659  0.8208 -0.1030  1.2444
 3442TIP3   OH231960   6.900   4.078   0.215  0.3996  0.1264  0.0718
 3442TIP3    H131961   6.965   4.075   0.285 -0.1468 -0.5242  0.5501
 3442TIP3    H231962   6.816   4.078   0.259 -0.0288 -2.6245 -0.5884
 3443TIP3   OH231963   1.375   1.604   7.717  0.4126 -0.0396 -0.4824
 3443TIP3    H131964   1.343   1.607   7.807 -1.1742  0.1778 -1.0201
 3443TIP3    H231965   1.438   1.532   7.716 -1.3788 -1.6923  0.2499
 3444TIP3   OH231966   5.942   6.808   0.640 -0.3056  0.0598 -0.6944
 3444TIP3    H131967   5.852   6.839   0.627 -0.6589 -0.1808  0.9889
 3444TIP3    H231968   5.939   6.715   0.616 -0.7157 -0.1444  0.1043
 3445TIP3   OH231969   4.658   3.539   0.738  0.3093  0.0432 -0.9171
 3445TIP3    H131970   4.741   3.561   0.781  0.1243  0.7820 -0.9232
 3445TIP3    H231971   4.618   3.474   0.796 -0.2213  1.4614  0.3976
 3446TIP3   OH231972   2.464   1.230   7.046  0.4418 -0.2978  0.2263
 3446TIP3    H131973   2.401   1.296   7.019 -0.5014 -1.4144 -0.3753
 3446TIP3    H231974   2.413   1.150   7.056  1.7541 -1.2426 -0.3209
 3447TIP3   OH231975   3.247   0.060   1.510  0.2575 -0.2475  0.1125
 3447TIP3    H131976   3.309   0.007   1.459  1.3401  0.1649  0.9520
 3447TIP3    H231977   3.302   0.125   1.554 -1.0783  1.8899 -1.2156
 3448TIP3   OH231978   2.656   0.114   6.613  0.3479  0.1241  0.9161
 3448TIP3    H131979   2.713   0.137   6.540  0.3231 -1.4263  0.3812
 3448TIP3    H231980   2.608   0.036   6.584 -2.5318  1.6677  1.0769
 3449TIP3   OH231981   3.919   1.457   1.304  0.0292 -0.3047  0.0414
 3449TIP3    H131982   4.014   1.460   1.288  0.1204  0.3041  0.6162
 3449TIP3    H231983   3.880   1.491   1.223  0.2610 -1.2665 -0.4840
 3450TIP3   OH231984   6.335   5.162   1.175 -0.0434  0.3832 -0.2765
 3450TIP3    H131985   6.243   5.143   1.157 -0.0324 -1.0579  1.0044
 3450TIP3    H231986   6.381   5.134   1.096 -0.4733 -1.2512  0.0257
 3451TIP3   OH231987   4.587   2.540   0.712 -0.4834  0.4228 -0.2234
 3451TIP3    H131988   4.548   2.460   0.747 -1.4650  0.4657 -1.1661
 3451TIP3    H231989   4.620   2.586   0.789 -2.0323  0.2180  0.5968
 3452TIP3   OH231990   2.191   0.174   1.692  0.5566 -0.0849  0.5605
 3452TIP3    H131991   2.143   0.090   1.690  1.5902 -0.6805  0.1803
 3452TIP3    H231992   2.225   0.179   1.782 -0.4284  0.4821  0.9225
 3453TIP3   OH231993   1.996   2.340   8.061  0.1801 -0.1926 -0.3621
 3453TIP3    H131994   2.047   2.273   8.106  2.4344  0.0100 -2.3763
 3453TIP3    H231995   1.937   2.291   8.004  2.0937 -0.6080 -2.1239
 3454TIP3   OH231996   3.270   3.200   6.594  0.3772 -0.7433 -0.0249
 3454TIP3    H131997   3.361   3.179   6.577  0.7933  1.1447 -0.3378
 3454TIP3    H231998   3.241   3.246   6.515 -0.2009  0.5720  0.9286
 3455TIP3   OH231999   0.571   6.283   2.771 -0.1231  0.3250  0.3868
 3455TIP3    H132000   0.525   6.216   2.720 -0.1475  0.0750  0.7324
 3455TIP3    H232001   0.663   6.271   2.747 -0.0883 -0.0654  0.7147
 3456TIP3   OH232002   1.852   5.167   1.001  0.8189  0.4851  0.1528
 3456TIP3    H132003   1.779   5.220   1.033  0.0958 -0.4282  0.0620
 3456TIP3    H232004   1.930   5.216   1.026  0.1780  1.4664  0.2805
 3457TIP3   OH232005   5.834   3.279   8.564  0.1885 -0.0366  0.6037
 3457TIP3    H132006   5.879   3.361   8.542 -1.4639  0.1635 -2.5160
 3457TIP3    H232007   5.902   3.212   8.555  0.9320  0.7088  0.4983
 3458TIP3   OH232008   0.711   5.592   0.811  0.3039 -0.2661  0.0299
 3458TIP3    H132009   0.757   5.650   0.872  0.7947 -0.8770  0.2460
 3458TIP3    H232010   0.619   5.608   0.829  0.4358 -0.7227  1.2200
 3459TIP3   OH232011   6.508   5.997   8.210  0.5780  0.0476  0.4586
 3459TIP3    H132012   6.458   6.025   8.287 -0.3759  0.5284 -0.3120
 3459TIP3    H232013   6.573   5.936   8.244 -1.3231 -1.5780  1.3654
 3460TIP3   OH232014   3.830   5.519   0.006 -0.4886  0.0107 -0.3710
 3460TIP3    H132015   3.762   5.472  -0.043 -0.5115  0.4569 -0.7742
 3460TIP3    H232016   3.784   5.561   0.078 -0.4057 -0.9128  0.2276
 3461TIP3   OH232017   2.487   5.227   7.772 -0.1469 -0.2433 -0.2766
 3461TIP3    H132018   2.463   5.154   7.829  1.7130  0.1642  1.1245
 3461TIP3    H232019   2.405   5.254   7.731 -1.4050 -1.0786  1.5867
 3462TIP3   OH232020   4.220   6.393   2.483  0.2779 -0.4351  0.3744
 3462TIP3    H132021   4.250   6.472   2.438 -0.8896  1.4076  2.5953
 3462TIP3    H232022   4.301   6.352   2.515  1.0128 -1.0575 -2.0783
 3463TIP3   OH232023   0.977   4.330   7.196 -0.5493 -0.4757 -0.1517
 3463TIP3    H132024   1.029   4.407   7.217 -2.1253 -0.2776  3.7766
 3463TIP3    H232025   0.930   4.354   7.116 -0.5088  2.3971  0.5939
 3464TIP3   OH232026   3.364   3.466   1.051 -0.2050  0.3191 -0.5314
 3464TIP3    H132027   3.437   3.449   0.991 -0.5798 -0.1578 -0.8540
 3464TIP3    H232028   3.404   3.457   1.138 -0.6984 -4.5376 -0.5003
 3465TIP3   OH232029   5.810   4.045   0.987  0.3634  0.3839  0.2165
 3465TIP3    H132030   5.897   4.036   0.946  0.3064 -1.8541  0.4504
 3465TIP3    H232031   5.807   4.136   1.016  2.8390  0.4047  0.6479
 3466TIP3   OH232032   3.700   5.334   7.590 -0.0747  0.2733 -0.1785
 3466TIP3    H132033   3.630   5.398   7.600  0.8444  1.1343  1.0382
 3466TIP3    H232034   3.759   5.372   7.525  0.3324  0.5522  0.3454
 3467TIP3   OH232035   3.258   4.235   2.503  0.6337  0.6189  0.1664
 3467TIP3    H132036   3.350   4.235   2.477  0.2363 -0.0428 -1.3536
 3467TIP3    H232037   3.232   4.327   2.502  0.7558  0.6648 -1.4626
 3468TIP3   OH232038   0.409   4.184   0.683  0.0071  0.6944 -0.0397
 3468TIP3    H132039   0.462   4.117   0.726  0.3443  0.4356 -0.8478
 3468TIP3    H232040   0.455   4.266   0.701  0.6295  0.4814 -0.6593
 3469TIP3   OH232041   3.642   0.422   0.159 -0.6844  0.0794  0.1528
 3469TIP3    H132042   3.684   0.453   0.079  0.0772  0.3558  0.6534
 3469TIP3    H232043   3.566   0.480   0.170  0.3374  1.3507  0.6987
 3470TIP3   OH232044   0.526   5.361   1.936  0.1145 -0.2121  0.5583
 3470TIP3    H132045   0.496   5.318   1.856  1.2142 -1.9253  1.0310
 3470TIP3    H232046   0.529   5.292   2.002 -0.1024  1.0187  1.9327
 3471TIP3   OH232047   5.649   6.078   8.053  0.0125 -0.0316  0.4478
 3471TIP3    H132048   5.581   6.032   8.103 -0.9623 -0.1169 -0.9253
 3471TIP3    H232049   5.606   6.105   7.972  1.8757 -1.0641 -0.9624
 3472TIP3   OH232050   3.635   2.643   0.402 -0.5364  0.1596 -0.3252
 3472TIP3    H132051   3.694   2.718   0.414 -0.1224 -0.1386 -0.4471
 3472TIP3    H232052   3.641   2.623   0.309  1.5954 -1.7979  0.1559
 3473TIP3   OH232053   4.831   5.045   0.628  0.2808 -0.1538  0.3398
 3473TIP3    H132054   4.871   5.055   0.715  3.2847  0.0644 -0.9298
 3473TIP3    H232055   4.771   4.972   0.638  1.8232 -1.2857  2.2445
 3474TIP3   OH232056   4.099   6.819   1.131 -0.2659  0.7188  0.4797
 3474TIP3    H132057   4.124   6.792   1.219 -1.4085 -4.3358 -0.4753
 3474TIP3    H232058   4.181   6.822   1.082  0.1416  1.5798  1.1774
 3475TIP3   OH232059   2.987   6.148   8.542 -0.4109 -0.2289  0.5560
 3475TIP3    H132060   2.909   6.109   8.504  0.2752  0.1720 -1.3938
 3475TIP3    H232061   3.039   6.073   8.573 -0.8301 -0.6032  0.3605
 3476TIP3   OH232062   5.774   4.658   2.734  0.1190  0.1297 -0.3513
 3476TIP3    H132063   5.809   4.620   2.814 -1.8232 -2.0709 -0.4355
 3476TIP3    H232064   5.843   4.643   2.668  1.2573  0.9563  0.6077
 3477TIP3   OH232065   3.720   3.471   0.137 -0.0327  0.2633  0.4681
 3477TIP3    H132066   3.742   3.534   0.068 -0.5309  0.5328  0.5469
 3477TIP3    H232067   3.634   3.500   0.168 -0.1089 -0.2574  0.7399
 3478TIP3   OH232068   2.354   6.028   7.118  0.2860  0.0173  0.0063
 3478TIP3    H132069   2.440   5.999   7.089 -0.1654  0.5554 -2.0418
 3478TIP3    H232070   2.349   6.119   7.090 -0.3690  0.4825  1.5284
 3479TIP3   OH232071   2.027   3.046   6.683  0.3649 -0.1429  0.0037
 3479TIP3    H132072   2.048   3.038   6.590 -0.4817 -1.1301 -0.1138
 3479TIP3    H232073   1.934   3.071   6.684  0.7902  1.6057  0.5675
 3480TIP3   OH232074   3.513   4.216   2.427 -0.7972  0.4557  0.0633
 3480TIP3    H132075   3.524   4.125   2.398 -2.2993  0.6386 -1.1766
 3480TIP3    H232076   3.470   4.260   2.354 -1.8969  1.6981  1.4108
 3481TIP3   OH232077   6.603   4.618   1.962  0.1549  0.2773 -0.2364
 3481TIP3    H132078   6.643   4.704   1.969 -1.2113  0.8975  0.3285
 3481TIP3    H232079   6.671   4.557   1.991  1.5971  1.0061 -1.9306
 3482TIP3   OH232080   5.166   4.422   1.641  0.4235 -0.7198  0.6112
 3482TIP3    H132081   5.214   4.401   1.561 -0.8207  0.1633 -0.4221
 3482TIP3    H232082   5.119   4.341   1.663  1.1477 -1.1092  0.7308
 3483TIP3   OH232083   3.851   1.579   6.685 -0.0411 -0.0717 -0.6117
 3483TIP3    H132084   3.930   1.558   6.635  0.1383  1.4953 -1.0578
 3483TIP3    H232085   3.784   1.593   6.618 -0.4848 -0.5353 -0.2734
 3484TIP3   OH232086   0.052   4.457   1.603 -0.5422  0.4546  0.0835
 3484TIP3    H132087   0.119   4.395   1.573 -0.8388  0.6304 -0.9802
 3484TIP3    H232088   0.034   4.431   1.693 -0.4379 -0.8224 -0.2434
 3485TIP3   OH232089   2.804   2.286   0.764  0.3631  0.5105  0.2913
 3485TIP3    H132090   2.872   2.352   0.779 -0.4970  1.5640 -0.3079
 3485TIP3    H232091   2.838   2.234   0.691  1.2639 -0.0373  1.0766
 3486TIP3   OH232092   6.483   5.913   0.161  0.5592  0.5057 -0.1212
 3486TIP3    H132093   6.447   5.895   0.074  0.3774 -0.5699  0.1633
 3486TIP3    H232094   6.573   5.942   0.145 -0.4041  3.4550 -0.8679
 3487TIP3   OH232095   3.526   2.847   0.828  0.2159 -0.1582  0.2962
 3487TIP3    H132096   3.443   2.829   0.873 -0.5333 -0.4997 -1.1684
 3487TIP3    H232097   3.506   2.922   0.772  1.2954  0.6311  0.9292
 3488TIP3   OH232098   2.766   0.193   7.107  0.4126  0.1722 -0.2719
 3488TIP3    H132099   2.746   0.106   7.140  1.2320 -0.8792 -2.3658
 3488TIP3    H232100   2.689   0.245   7.128  0.1814 -0.8465  1.6074
 3489TIP3   OH232101   1.644   6.874   6.540 -0.2294 -0.5060  0.6600
 3489TIP3    H132102   1.600   6.814   6.479  1.9592 -2.2535  0.6911
 3489TIP3    H232103   1.654   6.823   6.621 -1.4927  1.1766  1.9580
 3490TIP3   OH232104   0.792   2.322   7.891  0.1626 -0.2412  0.1516
 3490TIP3    H132105   0.818   2.343   7.981  1.0052 -2.1989  0.4228
 3490TIP3    H232106   0.792   2.226   7.888  1.9767 -0.2744 -2.3918
 3491TIP3   OH232107   3.411   4.346   1.694  0.1105 -0.3030 -0.1986
 3491TIP3    H132108   3.325   4.331   1.733 -0.2154  0.3131 -0.6656
 3491TIP3    H232109   3.398   4.331   1.601  0.9528 -2.0545 -0.0667
 3492TIP3   OH232110   5.814   5.369   2.648 -0.1435  0.3517  0.3499
 3492TIP3    H132111   5.723   5.351   2.624  0.0273 -0.2243  0.1075
 3492TIP3    H232112   5.834   5.452   2.607 -0.2441 -0.0223 -0.4664
 3493TIP3   OH232113   1.475   3.236   6.911 -0.0619 -0.4934 -0.2425
 3493TIP3    H132114   1.510   3.151   6.939 -1.7021 -1.3570 -0.6468
 3493TIP3    H232115   1.500   3.243   6.819  0.7671 -0.1407 -0.0005
 3494TIP3   OH232116   3.209   6.438   0.434 -0.3274  0.1891  0.0808
 3494TIP3    H132117   3.124   6.482   0.438 -0.7397 -0.6529  1.2949
 3494TIP3    H232118   3.188   6.345   0.436  0.6335 -0.0310  0.8465
 3495TIP3   OH232119   4.393   0.276   0.885  0.0364 -0.4150 -0.5517
 3495TIP3    H132120   4.453   0.350   0.887 -0.2904 -0.1536 -0.1031
 3495TIP3    H232121   4.402   0.240   0.797  1.4309 -0.8797 -0.2452
 3496TIP3   OH232122   3.233   5.459   8.311  1.1309 -0.0055  0.1353
 3496TIP3    H132123   3.167   5.399   8.346  0.5550  0.7138  0.3194
 3496TIP3    H232124   3.301   5.402   8.276  0.9211 -0.7607  0.9108
 3497TIP3   OH232125   1.495   4.892   7.390 -0.1919 -0.2187  0.0695
 3497TIP3    H132126   1.526   4.827   7.327  2.2098  0.7564  0.1625
 3497TIP3    H232127   1.509   4.851   7.475  0.7621  0.1860  0.1085
 3498TIP3   OH232128   1.494   5.409   7.334 -0.6701  0.9071 -0.1736
 3498TIP3    H132129   1.408   5.384   7.368 -1.5714  0.4614 -2.5946
 3498TIP3    H232130   1.511   5.347   7.264  1.6348  1.0432  0.1754
 3499TIP3   OH232131   2.984   5.480   6.939  0.3954  0.3137 -0.0878
 3499TIP3    H132132   2.978   5.557   6.996  0.2253  0.0555  0.2503
 3499TIP3    H232133   2.955   5.511   6.853  0.1539  0.5829  0.0906
 3500TIP3   OH232134   2.667   1.200   0.750 -0.2571 -0.0285  0.5904
 3500TIP3    H132135   2.611   1.181   0.825 -0.0588 -2.7533  0.1511
 3500TIP3    H232136   2.629   1.149   0.678  1.0862  0.4248 -0.4938
 3501TIP3   OH232137   5.783   0.942   8.290 -0.5698 -0.0870 -0.6325
 3501TIP3    H132138   5.707   0.894   8.324 -0.0967 -0.7502 -0.4897
 3501TIP3    H232139   5.838   0.875   8.250 -0.1864  0.4260 -0.9758
 3502TIP3   OH232140   4.547   6.566   0.008  0.0111  0.4143  0.2909
 3502TIP3    H132141   4.588   6.578  -0.078  0.5216 -0.8490  0.3412
 3502TIP3    H232142   4.616   6.531   0.063 -0.5911  0.2431  0.9523
 3503TIP3   OH232143   3.370   6.319   1.057 -0.0149  0.0994  0.2708
 3503TIP3    H132144   3.446   6.373   1.035  0.4799 -0.9369 -0.6553
 3503TIP3    H232145   3.305   6.340   0.990  0.1863 -0.4637 -0.1033
 3504TIP3   OH232146   1.417   3.777   1.513 -0.0737 -0.1599 -0.1473
 3504TIP3    H132147   1.396   3.695   1.469 -0.8067  0.2702 -0.6168
 3504TIP3    H232148   1.459   3.831   1.446  3.2217 -1.2084  0.9092
 3505TIP3   OH232149   6.329   3.766   0.607 -0.4382  0.2503 -0.0931
 3505TIP3    H132150   6.368   3.703   0.667  0.4759  0.5307 -0.3769
 3505TIP3    H232151   6.341   3.727   0.520 -3.6111 -1.1690 -0.0428
 3506TIP3   OH232152   1.538   3.320   1.182  0.0810  0.0899  0.0893
 3506TIP3    H132153   1.535   3.266   1.261  0.6579 -0.8313 -0.4956
 3506TIP3    H232154   1.454   3.304   1.138  0.6302 -1.1440 -0.5760
 3507TIP3   OH232155   0.791   5.211   0.922  0.8853  0.4260 -0.3610
 3507TIP3    H132156   0.777   5.254   1.007 -2.6615 -0.2277 -0.4620
 3507TIP3    H232157   0.809   5.120   0.944 -0.5889  0.1334 -0.2339
 3508TIP3   OH232158   4.052   2.929   7.262 -0.2828 -0.2323  0.1617
 3508TIP3    H132159   4.127   2.894   7.214 -0.8258  0.5764 -1.3631
 3508TIP3    H232160   3.986   2.945   7.194 -1.3409  0.3412  1.2839
 3509TIP3   OH232161   0.094   5.053   1.732  0.7071 -0.6491 -0.6943
 3509TIP3    H132162   0.125   5.127   1.784  1.2753 -0.3804 -1.3945
 3509TIP3    H232163   0.059   4.991   1.796  2.3852 -0.8107  0.0956
 3510TIP3   OH232164   3.172   4.901   0.290  0.5037 -0.6896  0.0411
 3510TIP3    H132165   3.134   4.973   0.341  1.4602 -1.3787  1.8388
 3510TIP3    H232166   3.105   4.878   0.226 -0.5779  0.5324  0.6917
 3511TIP3   OH232167   5.175   3.168   1.473  0.0775 -0.4675 -0.1282
 3511TIP3    H132168   5.229   3.161   1.552 -0.9951 -0.1606  0.6555
 3511TIP3    H232169   5.103   3.107   1.488  0.0205 -0.6265 -1.0123
 3512TIP3   OH232170   4.699   4.294   1.475  0.1263  0.8072 -0.1448
 3512TIP3    H132171   4.630   4.298   1.409 -0.1152 -1.6564 -0.1105
 3512TIP3    H232172   4.654   4.270   1.556  0.8026  0.8978  0.2647
 3513TIP3   OH232173   3.805   3.627   1.975 -0.1234 -0.4630  0.1301
 3513TIP3    H132174   3.827   3.591   2.061 -0.2883 -0.2256  0.2711
 3513TIP3    H232175   3.738   3.693   1.993 -1.9603 -2.1016 -0.4242
 3514TIP3   OH232176   2.942   6.463   6.907  0.1388  0.1143  0.1272
 3514TIP3    H132177   2.926   6.540   6.854  1.2502  0.6899  0.5864
 3514TIP3    H232178   2.985   6.401   6.847  1.6654  0.8762  0.3930
 3515TIP3   OH232179   6.096   6.813   2.804 -0.4418 -0.4333  0.3916
 3515TIP3    H132180   6.157   6.764   2.748  1.0721  0.5887  1.0659
 3515TIP3    H232181   6.048   6.869   2.744 -0.5251 -1.0540 -0.1326
 3516TIP3   OH232182   4.630   6.837   0.406  0.4796  0.4114  0.3655
 3516TIP3    H132183   4.672   6.763   0.361  2.1323  0.4988  1.6663
 3516TIP3    H232184   4.679   6.846   0.488 -1.4593  1.2318  1.4822
 3517TIP3   OH232185   2.152   4.299   1.574  0.0566 -0.0147 -0.3797
 3517TIP3    H132186   2.130   4.228   1.514 -0.1156 -1.4913  1.3645
 3517TIP3    H232187   2.125   4.267   1.660  2.1114  1.2021  0.7842
 3518TIP3   OH232188   4.164   0.990   7.747  0.1355 -0.0853  0.2999
 3518TIP3    H132189   4.228   1.061   7.750 -1.1237  1.1617 -1.1008
 3518TIP3    H232190   4.154   0.963   7.839  1.4487  0.7922  0.7191
 3519TIP3   OH232191   3.630   2.990   8.231 -0.0343  0.2017  0.1547
 3519TIP3    H132192   3.585   2.993   8.316 -1.2318  0.3410 -0.4703
 3519TIP3    H232193   3.672   3.076   8.224  0.6203 -0.0407  0.8758
 3520TIP3   OH232194   2.091   6.325   0.546 -0.0171 -0.1985 -0.0901
 3520TIP3    H132195   2.137   6.346   0.628 -0.3747 -0.0229  0.0670
 3520TIP3    H232196   2.154   6.347   0.477 -0.4621  1.7290  0.0421
 3521TIP3   OH232197   3.166   6.038   8.256 -0.2283 -0.1392 -0.2085
 3521TIP3    H132198   3.094   6.011   8.313  0.6318 -1.8171  0.1434
 3521TIP3    H232199   3.152   5.991   8.174  0.8904 -1.1244  0.1463
 3522TIP3   OH232200   2.246   6.275   7.688 -0.3071 -0.2871  0.3956
 3522TIP3    H132201   2.195   6.350   7.659  1.5990  0.9890  0.2357
 3522TIP3    H232202   2.190   6.233   7.754 -0.7866  2.1709  1.6497
 3523TIP3   OH232203   3.781   1.383   1.679  0.3515 -0.0070 -0.1675
 3523TIP3    H132204   3.746   1.449   1.618  1.8315  0.9132 -0.0739
 3523TIP3    H232205   3.846   1.335   1.627  0.6821 -0.0899  0.3179
 3524TIP3   OH232206   3.445   2.975   6.887  0.1962 -0.5757 -0.0568
 3524TIP3    H132207   3.506   2.950   6.957  1.3833  1.2618 -0.3785
 3524TIP3    H232208   3.477   3.059   6.856 -1.4966 -0.3998 -1.4727
 3525TIP3   OH232209   5.829   3.152   8.280  0.2869 -0.0218  0.5337
 3525TIP3    H132210   5.751   3.182   8.327  0.3697  0.8805  0.1265
 3525TIP3    H232211   5.861   3.078   8.332 -1.8956 -1.6685 -0.3090
 3526TIP3   OH232212   2.338   0.405   7.377 -0.1584  0.0879  0.1804
 3526TIP3    H132213   2.288   0.421   7.457 -1.2545  0.9977 -0.6699
 3526TIP3    H232214   2.273   0.403   7.308  0.8213 -0.3348 -0.7538
 3527TIP3   OH232215   0.630   3.420   7.193 -0.5419  0.3741 -0.5456
 3527TIP3    H132216   0.694   3.488   7.213  0.4158 -0.5156 -0.4700
 3527TIP3    H232217   0.606   3.436   7.102  2.1967 -1.0849 -1.6413
 3528TIP3   OH232218   5.212   6.113   0.024 -0.2102  0.2051  0.1703
 3528TIP3    H132219   5.290   6.168   0.030 -0.6436  0.9091 -0.6200
 3528TIP3    H232220   5.245   6.029  -0.010  0.3372  0.1757  0.7376
 3529TIP3   OH232221   4.195   5.557   0.459 -0.0987  0.4947 -0.2223
 3529TIP3    H132222   4.241   5.503   0.524 -1.1688  2.6494  2.5301
 3529TIP3    H232223   4.251   5.633   0.449 -1.6183  1.8448  1.0262
 3530TIP3   OH232224   6.460   5.073   7.458  0.0977 -0.0151  1.1507
 3530TIP3    H132225   6.489   5.047   7.545  1.3583 -1.0358  0.4538
 3530TIP3    H232226   6.432   4.992   7.416  1.2696  0.1588 -0.0325
 3531TIP3   OH232227   3.605   5.027   0.679  0.5720  0.7032  0.1842
 3531TIP3    H132228   3.661   4.963   0.635 -0.5143  1.8909 -3.3037
 3531TIP3    H232229   3.518   4.986   0.681  0.4963  0.8884  0.6762
 3532TIP3   OH232230   5.190   0.326   6.962 -0.0953  0.0855 -0.2967
 3532TIP3    H132231   5.196   0.413   6.922 -1.6219  0.2467 -0.2353
 3532TIP3    H232232   5.105   0.325   7.007  0.4570 -0.9950  0.7904
 3533TIP3   OH232233   2.465   1.086   2.089 -0.0671  0.4029 -0.3638
 3533TIP3    H132234   2.556   1.055   2.085 -0.3348 -0.3261 -1.1833
 3533TIP3    H232235   2.429   1.042   2.166  0.5989  1.6658  0.7098
 3534TIP3   OH232236   2.309   2.202   7.162 -0.1601 -0.3961 -0.0469
 3534TIP3    H132237   2.286   2.275   7.220  0.2720 -0.5475  0.3210
 3534TIP3    H232238   2.387   2.163   7.202  1.0311  0.3747 -1.5204
 3535TIP3   OH232239   1.948   4.649   0.676 -0.1046 -0.4400  0.2079
 3535TIP3    H132240   2.022   4.601   0.713 -0.0869  0.1865  1.0072
 3535TIP3    H232241   1.897   4.678   0.752 -0.6683 -0.0776 -0.2966
 3536TIP3   OH232242   3.448   1.133   2.152 -0.4785 -0.6792 -0.2675
 3536TIP3    H132243   3.366   1.083   2.148 -1.4768  0.8642  0.1503
 3536TIP3    H232244   3.447   1.174   2.238  0.9386 -0.9247 -0.1087
 3537TIP3   OH232245   1.827   3.482   1.583 -0.4975  0.2068  0.0035
 3537TIP3    H132246   1.732   3.476   1.577 -0.4978  0.3405 -0.1385
 3537TIP3    H232247   1.851   3.546   1.516 -0.3662  0.6267  0.4363
 3538TIP3   OH232248   2.715   6.403   1.657  0.3925 -0.2045 -0.3652
 3538TIP3    H132249   2.798   6.429   1.696  1.2818 -0.3468 -2.0910
 3538TIP3    H232250   2.719   6.307   1.653 -0.1350 -0.2527  0.1148
 3539TIP3   OH232251   1.225   3.098   7.759 -0.2931  0.4089  0.2057
 3539TIP3    H132252   1.262   3.047   7.831  0.3198  1.7022  0.8365
 3539TIP3    H232253   1.133   3.109   7.781 -1.2253 -2.8782 -1.3973
 3540TIP3   OH232254   1.804   0.916   1.870 -0.3336 -0.0605  0.0520
 3540TIP3    H132255   1.895   0.922   1.898  0.1364  0.3845 -1.4687
 3540TIP3    H232256   1.779   0.826   1.890  0.0578  0.1321  1.5190
 3541TIP3   OH232257   1.443   4.508   7.696 -0.0235 -0.0122  0.4185
 3541TIP3    H132258   1.374   4.465   7.747 -0.4103  1.9193  1.6654
 3541TIP3    H232259   1.401   4.529   7.612 -0.2660 -0.7627  0.3487
 3542TIP3   OH232260   1.946   4.027   2.772 -0.3760  0.6513  0.1048
 3542TIP3    H132261   1.860   3.984   2.777 -0.4186  0.2190 -2.6649
 3542TIP3    H232262   2.007   3.963   2.806 -0.8999 -0.0096 -0.1725
 3543TIP3   OH232263   3.617   0.386   2.043  0.5648  0.1250  0.1382
 3543TIP3    H132264   3.541   0.347   2.087  0.5009 -0.3690 -0.4094
 3543TIP3    H232265   3.688   0.376   2.106  0.3094  0.0732  0.4217
 3544TIP3   OH232266   0.055   1.030   1.407 -0.4122 -0.0097  0.3771
 3544TIP3    H132267   0.120   0.959   1.406  1.2115  1.2137  3.7515
 3544TIP3    H232268  -0.027   0.988   1.380  1.0226 -2.4692 -0.4633
 3545TIP3   OH232269   4.662   2.265   2.823 -0.1582 -0.1191  0.0180
 3545TIP3    H132270   4.623   2.229   2.903 -1.0187  1.4278  0.3328
 3545TIP3    H232271   4.754   2.276   2.845  0.1907 -2.2287 -0.1581
 3546TIP3   OH232272   2.436   1.752   0.730 -0.1094 -0.2591 -0.5565
 3546TIP3    H132273   2.452   1.787   0.818  0.8717 -1.7966 -0.0811
 3546TIP3    H232274   2.404   1.663   0.745  0.7255 -0.7958 -1.7482
 3547TIP3   OH232275   0.856   3.734   1.184 -0.0681 -0.2847 -0.5865
 3547TIP3    H132276   0.866   3.785   1.264 -1.1564  1.6472 -1.5934
 3547TIP3    H232277   0.769   3.695   1.192 -0.0714 -0.2997 -0.6953
 3548TIP3   OH232278   0.491   6.459   7.939  0.3196  0.3683  0.1012
 3548TIP3    H132279   0.551   6.448   7.865  0.5914 -0.7005  0.4634
 3548TIP3    H232280   0.546   6.487   8.012  0.0063  1.7316 -0.1519
 3549TIP3   OH232281   1.981   6.598   0.454 -0.2490  0.1764  0.1091
 3549TIP3    H132282   1.970   6.604   0.359 -0.7080 -1.4036  0.0226
 3549TIP3    H232283   2.059   6.543   0.466  0.7406  1.6271  0.6854
 3550TIP3   OH232284   0.013   1.837   0.516  0.3699 -0.1398  0.5228
 3550TIP3    H132285   0.081   1.879   0.569  0.4644  0.1686  0.1689
 3550TIP3    H232286   0.032   1.744   0.522  0.5508 -0.0864  0.8006
 3551TIP3   OH232287   5.039   6.050   7.529  0.5330 -0.3642 -0.3640
 3551TIP3    H132288   5.081   5.977   7.484  1.2214  0.2146 -0.6803
 3551TIP3    H232289   5.108   6.115   7.540  0.0828 -0.0060  0.4704
 3552TIP3   OH232290   3.580   0.372   6.758 -0.4723  0.1837 -0.7178
 3552TIP3    H132291   3.619   0.430   6.824 -0.9236 -0.6425  0.3002
 3552TIP3    H232292   3.529   0.309   6.809 -2.9052  1.0113 -1.9616
 3553TIP3   OH232293   1.855   0.405   8.228 -0.2595  0.1228 -0.0018
 3553TIP3    H132294   1.841   0.311   8.240 -1.3186  0.3326  0.5339
 3553TIP3    H232295   1.767   0.442   8.227  0.1473  1.1142 -0.2275
 3554TIP3   OH232296   0.658   0.883   1.004  0.2245  0.1102  0.2751
 3554TIP3    H132297   0.565   0.873   0.983  0.3776 -0.1691 -0.2780
 3554TIP3    H232298   0.684   0.798   1.038  1.1230 -1.0168 -2.8907
 3555TIP3   OH232299   5.284   0.298   7.259 -0.4301 -0.0074 -0.4175
 3555TIP3    H132300   5.317   0.339   7.179 -0.7459  0.7683 -0.1567
 3555TIP3    H232301   5.349   0.231   7.280 -0.1698  0.0155 -1.1337
 3556TIP3   OH232302   0.775   1.807   0.092 -0.0434 -0.2593  0.1961
 3556TIP3    H132303   0.692   1.827   0.048  0.1397 -3.0400 -1.7092
 3556TIP3    H232304   0.756   1.730   0.146  1.6348 -2.4265 -2.0591
 3557TIP3   OH232305   2.406   0.243   6.378  0.9340 -0.2198 -0.4778
 3557TIP3    H132306   2.420   0.175   6.311 -1.0783  0.1808 -1.3945
 3557TIP3    H232307   2.468   0.312   6.356  0.4434 -0.1870 -1.8684
 3558TIP3   OH232308   0.933   0.002   7.053  0.2701 -0.5256  0.0355
 3558TIP3    H132309   1.014   0.035   7.092  0.4618  0.3159 -1.0474
 3558TIP3    H232310   0.877  -0.018   7.129  0.3163  1.8687  0.7780
 3559TIP3   OH232311   5.987   6.053   1.580  0.4757 -0.0216  0.0047
 3559TIP3    H132312   6.077   6.041   1.610  1.0893  3.3645 -0.0585
 3559TIP3    H232313   5.980   6.000   1.502  2.4288 -0.3710  0.0280
 3560TIP3   OH232314   1.776   4.348   2.405 -0.0104  0.1044  0.6343
 3560TIP3    H132315   1.849   4.376   2.350  0.8404 -1.5071  0.8790
 3560TIP3    H232316   1.812   4.342   2.493 -0.7229  0.3087  0.9527
 3561TIP3   OH232317   6.917   6.751   8.538  0.4560  0.0039  0.2277
 3561TIP3    H132318   6.871   6.667   8.545  1.9908 -0.9988 -0.9770
 3561TIP3    H232319   6.988   6.744   8.602 -0.4100  1.1486  1.3852
 3562TIP3   OH232320   3.129   6.605   1.446  0.4197  0.3089  0.5636
 3562TIP3    H132321   3.190   6.586   1.518 -0.6284 -0.0675  1.3766
 3562TIP3    H232322   3.054   6.547   1.463 -0.6222  1.5175  0.1805
 3563TIP3   OH232323   5.962   0.241   1.761  0.0210  0.2261 -0.4034
 3563TIP3    H132324   5.918   0.313   1.807 -0.0464  0.2304 -0.4744
 3563TIP3    H232325   6.002   0.189   1.831 -0.6005 -0.1155 -0.2907
 3564TIP3   OH232326   0.485   3.380   1.346 -0.1624  0.3441  0.1849
 3564TIP3    H132327   0.445   3.364   1.432  0.1544  0.1610  0.3038
 3564TIP3    H232328   0.500   3.292   1.310  2.6166  0.2427  1.3219
 3565TIP3   OH232329   1.163   5.916   0.303 -0.7099 -0.1923  0.0442
 3565TIP3    H132330   1.207   5.926   0.387  0.5936 -1.7038 -0.4109
 3565TIP3    H232331   1.213   5.972   0.243 -2.4211  1.9259  0.4616
 3566TIP3   OH232332   0.813   6.627   0.163  0.1614 -0.2007 -0.0370
 3566TIP3    H132333   0.880   6.681   0.205  0.5159 -0.0980 -0.7203
 3566TIP3    H232334   0.731   6.656   0.203  0.4183  0.3629  0.0990
 3567TIP3   OH232335   6.823   6.263   0.837  0.1687 -0.2414 -0.1810
 3567TIP3    H132336   6.870   6.183   0.813 -0.3490 -0.3483 -0.9113
 3567TIP3    H232337   6.779   6.241   0.919  0.8915 -0.3455  0.1799
 3568TIP3   OH232338   1.392   0.963   7.343  0.0510 -0.2599  0.3325
 3568TIP3    H132339   1.362   0.970   7.434 -2.1365  0.6500 -0.3847
 3568TIP3    H232340   1.408   1.053   7.316  0.6983 -0.5246 -0.1986
 3569TIP3   OH232341   6.169   0.912   7.181  0.0465  0.0512 -0.0480
 3569TIP3    H132342   6.199   0.847   7.117 -1.1109 -1.0278  0.4520
 3569TIP3    H232343   6.228   0.986   7.170 -0.0027 -0.1831 -2.2350
 3570TIP3   OH232344   4.780   1.840   6.805  0.4022 -0.0766  0.1610
 3570TIP3    H132345   4.781   1.805   6.894 -2.4783 -0.5658  0.1145
 3570TIP3    H232346   4.783   1.935   6.816  3.3324 -0.1285  0.5325
 3571TIP3   OH232347   0.224   0.661   0.749 -0.1273  0.0823  0.2289
 3571TIP3    H132348   0.138   0.703   0.752  0.1676  0.8300 -1.0213
 3571TIP3    H232349   0.221   0.606   0.670  0.2292 -0.6030  0.6811
 3572TIP3   OH232350   2.824   0.955   6.271 -0.2018  0.3189 -0.0882
 3572TIP3    H132351   2.905   0.921   6.233 -0.9614 -1.3785 -0.2866
 3572TIP3    H232352   2.788   1.012   6.204  0.1612  0.0267 -0.5382
 3573TIP3   OH232353   5.255   4.903   0.000  0.5791  0.1085 -0.6753
 3573TIP3    H132354   5.317   4.851   0.050 -0.3586  0.1863  0.6282
 3573TIP3    H232355   5.169   4.872   0.029 -0.0054  0.2868 -2.1237
 3574TIP3   OH232356   3.316   3.380   0.667 -0.2060  0.3392 -0.0726
 3574TIP3    H132357   3.224   3.394   0.645 -0.1951  1.4093  0.4619
 3574TIP3    H232358   3.316   3.300   0.719 -0.8107  0.2104 -0.2574
 3575TIP3   OH232359   1.382   3.423   8.077 -0.3894 -0.3443  0.4881
 3575TIP3    H132360   1.406   3.393   7.989 -0.4173  0.5310  0.1790
 3575TIP3    H232361   1.370   3.517   8.068  0.2910 -0.1393  1.5861
 3576TIP3   OH232362   6.245   5.483   0.277 -0.5412  0.1837  0.2508
 3576TIP3    H132363   6.312   5.543   0.244 -1.4509  1.0018 -0.1503
 3576TIP3    H232364   6.172   5.539   0.301 -1.8077 -0.8275 -1.0750
 3577TIP3   OH232365   1.111   1.496   1.323 -0.9953 -0.0134 -0.3763
 3577TIP3    H132366   1.077   1.514   1.411 -3.1808  0.4255 -1.2585
 3577TIP3    H232367   1.195   1.452   1.339 -1.1505  0.3881  1.9120
 3578TIP3   OH232368   4.965   4.125   7.640  0.0982 -0.1346 -0.1325
 3578TIP3    H132369   4.983   4.033   7.620  1.6369 -0.1468  1.0705
 3578TIP3    H232370   4.870   4.130   7.650 -0.5364 -0.6688 -4.3525
 3579TIP3   OH232371   3.715   2.337   6.766  0.5971  0.5247 -0.2291
 3579TIP3    H132372   3.643   2.390   6.803  0.4672  0.7638 -0.8111
 3579TIP3    H232373   3.762   2.398   6.709  2.5314  0.9656  1.6802
 3580TIP3   OH232374   3.831   3.325   0.331 -0.6240  0.2347  0.2315
 3580TIP3    H132375   3.897   3.277   0.281 -0.2849  0.3631  0.5534
 3580TIP3    H232376   3.785   3.377   0.265 -0.6223 -0.1064 -0.0397
 3581TIP3   OH232377   0.936   1.674   8.401 -0.7331  0.2369  0.0746
 3581TIP3    H132378   0.892   1.591   8.418  0.1015 -0.2221  0.0030
 3581TIP3    H232379   0.956   1.708   8.488  1.1976 -0.8680  0.1128
 3582TIP3   OH232380   4.215   5.815   0.780 -0.3408  0.2346  0.5715
 3582TIP3    H132381   4.290   5.776   0.823 -0.6904  1.3667  2.3047
 3582TIP3    H232382   4.253   5.872   0.713  0.3075  0.1544  0.8630
 3583TIP3   OH232383   0.773   5.684   1.929 -0.0732 -0.0934 -0.5900
 3583TIP3    H132384   0.797   5.683   2.022  0.7180 -3.8569 -0.6925
 3583TIP3    H232385   0.677   5.688   1.929 -0.0963 -0.2666  0.4129
 3584TIP3   OH232386   4.511   6.072   7.190 -0.5305  0.5089  0.5879
 3584TIP3    H132387   4.525   5.981   7.165 -2.1161  0.6698 -1.0088
 3584TIP3    H232388   4.505   6.120   7.108  1.3874  2.2919  1.3929
 3585TIP3   OH232389   2.599   2.607   6.616 -0.0024 -0.2334  0.2067
 3585TIP3    H132390   2.635   2.695   6.611 -1.8165  0.5953  0.9458
 3585TIP3    H232391   2.519   2.610   6.563  0.7946 -1.9434 -1.2048
 3586TIP3   OH232392   3.297   0.025   0.088 -0.3398  0.1273  0.4700
 3586TIP3    H132393   3.219   0.007   0.139 -1.4808 -0.0652 -1.2584
 3586TIP3    H232394   3.271   0.095   0.028  0.4085 -0.8039 -0.9928
 3587TIP3   OH232395   1.956   6.938   1.742 -0.2060  0.2631 -0.0703
 3587TIP3    H132396   1.915   6.891   1.669  0.4411 -1.7551  0.7900
 3587TIP3    H232397   1.888   6.998   1.773 -0.9428  0.1844 -1.4587
 3588TIP3   OH232398   6.829   1.137   7.564 -0.4477 -0.2146 -0.0111
 3588TIP3    H132399   6.753   1.126   7.622  0.2892 -2.7297  0.5975
 3588TIP3    H232400   6.899   1.169   7.620  0.2578 -2.6242  0.6117
 3589TIP3   OH232401   6.621   0.150   7.124 -0.0883 -0.3810  0.1480
 3589TIP3    H132402   6.673   0.185   7.052 -2.0381 -1.4498 -1.9227
 3589TIP3    H232403   6.536   0.193   7.115 -0.6845 -1.2936  1.1748
 3590TIP3   OH232404   2.307   1.990   1.931  0.2622 -0.6579 -0.5824
 3590TIP3    H132405   2.393   1.985   1.973  0.7149 -1.0980 -1.5327
 3590TIP3    H232406   2.245   1.986   2.003  1.0269 -0.7925  0.0856
 3591TIP3   OH232407   1.595   5.923   7.879 -0.0840  0.1322  0.2748
 3591TIP3    H132408   1.613   6.015   7.895  1.8880 -0.0889 -0.3897
 3591TIP3    H232409   1.639   5.877   7.951 -0.2406 -0.3438  0.0737
 3592TIP3   OH232410   5.848   0.504   6.749 -0.0572  0.1006 -0.4934
 3592TIP3    H132411   5.813   0.425   6.707  1.0507 -0.0342 -1.2032
 3592TIP3    H232412   5.892   0.551   6.678  0.3639  0.7264  0.1735
 3593TIP3   OH232413   3.902   5.535   1.867  0.0364 -0.2725 -0.6914
 3593TIP3    H132414   3.936   5.450   1.897 -0.4891 -0.6739 -1.2128
 3593TIP3    H232415   3.807   5.523   1.865 -0.0995  0.6086  0.0473
 3594TIP3   OH232416   2.023   1.937   0.320 -0.5277  0.5103 -0.4553
 3594TIP3    H132417   2.108   1.958   0.283 -0.8264  2.5072 -0.1237
 3594TIP3    H232418   1.989   1.868   0.263  1.1064 -0.0249 -0.8385
 3595TIP3   OH232419   1.106   4.046   7.810 -0.0445 -0.2321  0.0951
 3595TIP3    H132420   1.144   4.086   7.732 -0.1681  1.0496  0.6691
 3595TIP3    H232421   1.179   3.999   7.850  0.5936  0.9453  0.3754
 3596TIP3   OH232422   3.238   5.614   0.494 -0.2768  0.0098  0.4709
 3596TIP3    H132423   3.319   5.590   0.540 -0.4293 -3.7867 -0.8881
 3596TIP3    H232424   3.184   5.655   0.561  0.9350 -1.8954  2.7835
 3597TIP3   OH232425   4.259   4.696   7.483  0.4177  0.0615 -0.3833
 3597TIP3    H132426   4.282   4.781   7.521  2.9619  0.1868 -1.9820
 3597TIP3    H232427   4.325   4.636   7.519 -1.0562 -1.1907  0.3436
 3598TIP3   OH232428   0.464   5.851   7.973 -0.2765  0.0267 -0.7625
 3598TIP3    H132429   0.522   5.924   7.992 -3.3937  2.6473 -0.6066
 3598TIP3    H232430   0.406   5.845   8.048  1.1625 -4.2320  0.3137
 3599TIP3   OH232431   0.353   6.329   2.113  0.3217  0.0694 -0.1727
 3599TIP3    H132432   0.294   6.285   2.051  0.7275  0.2783 -0.7168
 3599TIP3    H232433   0.326   6.297   2.199 -0.8698  0.4934 -0.3797
 3600TIP3   OH232434   5.741   1.394   0.976 -0.3748  0.7730 -0.3849
 3600TIP3    H132435   5.781   1.376   0.890 -1.6957 -1.2337 -0.6584
 3600TIP3    H232436   5.703   1.310   1.002  0.5830  1.1465  2.5160
 3601TIP3   OH232437   1.729   4.915   1.590  0.6511 -0.0813  0.1887
 3601TIP3    H132438   1.764   4.840   1.541 -0.1969  0.2142 -0.8869
 3601TIP3    H232439   1.751   4.991   1.536 -0.1720  0.2599  0.3281
 3602TIP3   OH232440   3.884   6.563   0.708 -0.0160 -0.0458 -0.3656
 3602TIP3    H132441   3.880   6.653   0.678 -0.2946 -0.3078 -1.1402
 3602TIP3    H232442   3.951   6.563   0.777  0.7900  0.5378 -1.1259
 3603TIP3   OH232443   2.075   0.753   8.237 -0.2531  0.2552 -0.2331
 3603TIP3    H132444   1.997   0.729   8.288  0.2252  1.3939  1.1119
 3603TIP3    H232445   2.059   0.716   8.150 -2.9326  1.5877 -0.4145
 3604TIP3   OH232446   6.287   4.897   1.546  0.2981 -0.9714  1.0785
 3604TIP3    H132447   6.318   4.810   1.572  1.4727 -0.6334  0.9062
 3604TIP3    H232448   6.336   4.915   1.465 -1.3993 -0.9623  0.0108
 3605TIP3   OH232449   3.156   6.302   0.858 -0.1847  0.2277  0.0320
 3605TIP3    H132450   3.173   6.313   0.764 -0.7988  0.3304 -0.0692
 3605TIP3    H232451   3.061   6.294   0.865 -0.0359 -1.5707  0.4629
 3606TIP3   OH232452   0.834   3.993   1.637  0.2308 -0.3519 -0.5122
 3606TIP3    H132453   0.812   4.081   1.607  1.6421  0.3886  0.5289
 3606TIP3    H232454   0.854   4.004   1.730 -1.6840 -2.1661  0.2060
 3607TIP3   OH232455   2.873   4.172   7.786 -0.4048 -0.1241  0.2991
 3607TIP3    H132456   2.838   4.092   7.825  0.3906 -0.5843  0.0855
 3607TIP3    H232457   2.800   4.205   7.732  0.0704 -2.1889 -1.8160
 3608TIP3   OH232458   1.844   2.114   2.265 -0.1800 -0.5362  0.0244
 3608TIP3    H132459   1.883   2.097   2.351  0.2165 -0.9363 -0.2309
 3608TIP3    H232460   1.917   2.144   2.211 -0.3264 -0.7994 -0.3208
 3609TIP3   OH232461   3.505   0.029   0.582 -0.5999  0.0253 -0.0827
 3609TIP3    H132462   3.419   0.053   0.547  0.4284  1.0899 -2.0514
 3609TIP3    H232463   3.542  -0.032   0.518  0.0772 -0.5120  0.7927
 3610TIP3   OH232464   4.377   0.593   0.119  1.0343 -0.0240  0.5157
 3610TIP3    H132465   4.343   0.641   0.196  2.1957 -0.7607  1.5255
 3610TIP3    H232466   4.438   0.655   0.079 -0.6152  0.9015 -0.6874
 3611TIP3   OH232467   6.792   0.122   1.757  0.0195  1.4103 -0.7157
 3611TIP3    H132468   6.771   0.033   1.784  0.6041  1.0525 -1.3971
 3611TIP3    H232469   6.712   0.171   1.771 -0.0157  1.0132  0.6334
 3612TIP3   OH232470   3.007   3.706   7.700 -0.1970  0.2680  0.3622
 3612TIP3    H132471   2.955   3.735   7.626  1.6182 -0.9841 -1.4914
 3612TIP3    H232472   3.057   3.784   7.725 -0.3280  0.5230 -0.1506
 3613TIP3   OH232473   3.512   1.982   8.177  0.6023 -0.1190  0.4439
 3613TIP3    H132474   3.437   1.968   8.120 -0.6625  0.0721  2.0023
 3613TIP3    H232475   3.543   2.070   8.155 -1.6965  1.1827  1.9865
 3614TIP3   OH232476   6.229   5.969   1.657  1.0427 -0.5232 -0.6351
 3614TIP3    H132477   6.260   5.883   1.629  1.2081 -1.0169  0.9959
 3614TIP3    H232478   6.256   5.976   1.749  0.0875  0.8243 -0.4296
 3615TIP3   OH232479   4.400   1.932   8.563  0.2836 -0.2221 -0.0853
 3615TIP3    H132480   4.465   1.990   8.601  0.8092 -1.3776  0.8263
 3615TIP3    H232481   4.441   1.845   8.565 -1.3542 -1.0091  0.6976
 3616TIP3   OH232482   3.637   2.280   0.140 -0.1202  0.1132 -0.3549
 3616TIP3    H132483   3.660   2.322   0.057  0.2061  0.4973 -0.0750
 3616TIP3    H232484   3.715   2.291   0.194  0.8339 -2.7594 -0.9778
 3617TIP3   OH232485   1.158   5.692   1.771 -0.1995  0.3375  0.3421
 3617TIP3    H132486   1.250   5.713   1.789 -0.4372  0.2946  1.7232
 3617TIP3    H232487   1.124   5.661   1.855 -1.4088  0.0735 -0.2251
 3618TIP3   OH232488   5.260   4.594   0.446  0.5745  0.1944 -0.1081
 3618TIP3    H132489   5.174   4.557   0.426  1.6686 -1.7224 -1.6822
 3618TIP3    H232490   5.248   4.641   0.528 -1.5685 -1.5773  0.6755
 3619TIP3   OH232491   0.583   6.193   1.494  0.4903  0.7005 -0.9503
 3619TIP3    H132492   0.503   6.149   1.464  0.6761  1.4587 -2.7185
 3619TIP3    H232493   0.589   6.173   1.587 -1.3805  0.0477 -0.9392
 3620TIP3   OH232494   3.572   0.888   7.930 -0.1149 -0.2694 -0.2939
 3620TIP3    H132495   3.597   0.880   7.838 -1.4365  0.6046 -0.7625
 3620TIP3    H232496   3.507   0.819   7.943  1.8519 -2.0571  0.7176
 3621TIP3   OH232497   0.182   6.701   0.706  0.0770  0.4014  0.3803
 3621TIP3    H132498   0.115   6.728   0.643 -0.5602 -1.5298  0.1589
 3621TIP3    H232499   0.145   6.623   0.747  1.2178  0.6412  1.9504
 3622TIP3   OH232500   1.855   3.003   7.372 -0.2290 -0.0429 -0.0877
 3622TIP3    H132501   1.835   3.087   7.415 -0.4490 -0.1591  0.0372
 3622TIP3    H232502   1.931   2.969   7.420 -0.1112  0.1082 -0.1681
 3623TIP3   OH232503   3.149   1.449   7.987  0.2894 -0.0928  0.3255
 3623TIP3    H132504   3.169   1.538   8.015 -2.3473  0.4362  0.7548
 3623TIP3    H232505   3.214   1.394   8.031  0.1685  1.3546  2.4126
 3624TIP3   OH232506   0.521   4.807   7.908  0.4830  0.3000  0.6881
 3624TIP3    H132507   0.505   4.802   8.002 -0.4589  0.1756  0.5346
 3624TIP3    H232508   0.469   4.881   7.879  0.4717  0.1080  0.2079
 3625TIP3   OH232509   6.631   4.002   0.357 -0.4823 -0.4060  0.0072
 3625TIP3    H132510   6.661   3.913   0.344 -3.1915 -1.5870  1.0688
 3625TIP3    H232511   6.676   4.031   0.437  4.3863  1.3036 -2.8684
 3626TIP3   OH232512   5.115   3.115   0.056 -0.4930 -0.6418  0.6128
 3626TIP3    H132513   5.097   3.063   0.134 -1.0201 -0.8691  0.3413
 3626TIP3    H232514   5.156   3.195   0.090 -0.1334 -1.0075  1.0698
 3627TIP3   OH232515   5.883   1.574   0.512  0.1743  0.3623 -0.5115
 3627TIP3    H132516   5.852   1.588   0.423 -1.9724 -1.6708 -0.2003
 3627TIP3    H232517   5.925   1.488   0.509  1.2341  0.8353  0.1983
 3628TIP3   OH232518   6.352   6.361   7.936 -0.3910 -0.4706  0.2057
 3628TIP3    H132519   6.330   6.402   8.019  0.7241 -0.1086  0.3376
 3628TIP3    H232520   6.438   6.322   7.950  0.5273  0.9190 -1.2035
 3629TIP3   OH232521   0.108   1.312   6.985 -0.2300 -0.5154 -0.4384
 3629TIP3    H132522   0.034   1.323   6.926 -0.4740 -0.8285 -0.2003
 3629TIP3    H232523   0.180   1.282   6.929  0.0573  0.9089 -0.8617
 3630TIP3   OH232524   2.686   4.541   0.915 -0.5461  0.1041 -0.0720
 3630TIP3    H132525   2.729   4.461   0.884  0.1724  0.6066 -0.3930
 3630TIP3    H232526   2.695   4.537   1.010 -0.0395  0.0593 -0.1192
 3631TIP3   OH232527   2.057   6.010   0.452 -0.0827 -0.1998 -0.4352
 3631TIP3    H132528   2.060   6.093   0.501  1.0549 -1.1988  1.2542
 3631TIP3    H232529   1.964   5.988   0.449 -0.7791  2.3138 -3.1319
 3632TIP3   OH232530   6.323   5.988   0.373  0.2115  0.2311  0.4791
 3632TIP3    H132531   6.320   6.082   0.358 -0.5070  0.4615  1.8722
 3632TIP3    H232532   6.361   5.952   0.293 -2.4907  1.3696 -1.4731
 3633TIP3   OH232533   2.571   0.237   1.965 -0.1726 -0.0163 -0.0522
 3633TIP3    H132534   2.522   0.263   1.887 -1.6637  0.5802  1.0393
 3633TIP3    H232535   2.538   0.293   2.034  1.3960 -0.2777  0.9567
 3634TIP3   OH232536   0.689   3.769   0.901 -0.5334 -0.1373  0.3221
 3634TIP3    H132537   0.772   3.759   0.947 -1.5484 -1.5842  1.9642
 3634TIP3    H232538   0.709   3.745   0.810  0.5592 -1.9916  0.9861
 3635TIP3   OH232539   6.824   3.227   0.831  0.1213 -0.4094 -0.3305
 3635TIP3    H132540   6.773   3.163   0.881 -1.6653  0.5554 -0.8244
 3635TIP3    H232541   6.912   3.221   0.867 -0.6497 -1.1442  1.5594
 3636TIP3   OH232542   6.538   2.372   2.331  0.0216 -0.5497  0.0533
 3636TIP3    H132543   6.567   2.283   2.312  1.1187  0.3242 -3.0778
 3636TIP3    H232544   6.510   2.407   2.246  1.5811  2.7303  0.7071
 3637TIP3   OH232545   4.550   4.801   7.996  0.0694 -0.1072 -0.3469
 3637TIP3    H132546   4.610   4.844   8.057  0.2072  0.6948 -1.0390
 3637TIP3    H232547   4.602   4.786   7.917  0.7106 -3.5798  0.5814
 3638TIP3   OH232548   3.251   5.278   2.250 -0.5180 -0.3818 -0.2045
 3638TIP3    H132549   3.226   5.315   2.165  0.1901 -0.0760 -0.2916
 3638TIP3    H232550   3.176   5.225   2.277 -0.7138 -0.5609 -1.0703
 3639TIP3   OH232551   5.466   1.702   1.791  0.3584 -0.0826  0.1356
 3639TIP3    H132552   5.411   1.745   1.856  0.9633  0.1097  0.5364
 3639TIP3    H232553   5.468   1.610   1.817  0.4715 -0.0344  0.2973
 3640TIP3   OH232554   2.697   5.904   0.536 -0.1045  0.2020 -0.4741
 3640TIP3    H132555   2.653   5.828   0.497  1.3685  0.0493 -1.9750
 3640TIP3    H232556   2.749   5.941   0.464 -0.1931  2.1922  0.4332
 3641TIP3   OH232557   5.106   4.070   6.508  0.1391  0.0712  0.6772
 3641TIP3    H132558   5.077   4.054   6.418  1.6919 -2.4252  0.5135
 3641TIP3    H232559   5.193   4.110   6.498 -0.4873  1.6126  1.1239
 3642TIP3   OH232560   4.073   6.920   6.621  0.0196 -0.7677  0.3705
 3642TIP3    H132561   3.993   6.941   6.670 -0.0506 -0.6112  0.1938
 3642TIP3    H232562   4.135   6.892   6.687 -0.3827 -1.5049  0.4410
 3643TIP3   OH232563   0.502   5.270   1.674  0.0952 -0.1456 -0.2568
 3643TIP3    H132564   0.459   5.193   1.637 -2.7235  1.4787 -0.6249
 3643TIP3    H232565   0.545   5.312   1.599 -0.2767 -0.1597 -0.4767
 3644TIP3   OH232566   6.389   5.680   0.912  0.4790  0.2819  0.2591
 3644TIP3    H132567   6.440   5.760   0.914  0.7084  0.3493 -3.1191
 3644TIP3    H232568   6.311   5.701   0.861  0.3835 -1.5319 -0.4452
 3645TIP3   OH232569   3.785   4.703   1.602  0.1055 -0.5754  0.0861
 3645TIP3    H132570   3.702   4.656   1.598 -0.8644  1.1402 -0.7613
 3645TIP3    H232571   3.764   4.787   1.644  0.6993  1.1973 -2.8802
 3646TIP3   OH232572   4.654   1.701   8.223 -0.1213  0.1581  0.4222
 3646TIP3    H132573   4.560   1.691   8.209  0.0456  0.8701 -1.5397
 3646TIP3    H232574   4.693   1.627   8.176  0.3604  0.8347 -0.2640
 3647TIP3   OH232575   3.045   2.727   2.609 -0.0737  0.2756  0.2380
 3647TIP3    H132576   2.983   2.706   2.538 -0.6376 -1.0313  1.0614
 3647TIP3    H232577   3.080   2.641   2.635  1.4089  0.9108  0.4086
 3648TIP3   OH232578   4.118   1.124   0.538 -0.2751  0.1376 -0.4277
 3648TIP3    H132579   4.136   1.178   0.461  0.7762  0.4261  0.0062
 3648TIP3    H232580   4.187   1.058   0.538  1.7733  2.0975  2.0376
 3649TIP3   OH232581   6.797   3.106   7.721  0.0713 -0.5931 -0.3860
 3649TIP3    H132582   6.890   3.110   7.701  0.0410  0.9011 -0.3170
 3649TIP3    H232583   6.758   3.177   7.670 -1.1052 -1.4658 -0.7475
 3650TIP3   OH232584   6.604   2.410   7.512  0.3384 -0.3326  0.6805
 3650TIP3    H132585   6.592   2.444   7.600 -1.4894  0.7083  0.0940
 3650TIP3    H232586   6.672   2.466   7.474 -0.3321  0.5725  0.7829
 3651TIP3   OH232587   5.524   0.911   7.434  0.0835  0.5374 -0.0604
 3651TIP3    H132588   5.595   0.892   7.495 -0.7266  3.8411  2.1512
 3651TIP3    H232589   5.565   0.967   7.367 -0.1300  1.5123  0.5983
 3652TIP3   OH232590   2.503   5.559   0.642 -0.2764 -0.0967 -0.1516
 3652TIP3    H132591   2.562   5.589   0.711 -1.9736  1.2750  0.7947
 3652TIP3    H232592   2.510   5.624   0.573  0.1348 -0.5367 -0.5302
 3653TIP3   OH232593   1.804   4.072   1.259 -0.8471 -0.7297 -0.1394
 3653TIP3    H132594   1.872   4.103   1.319 -1.5194 -0.7158  0.6377
 3653TIP3    H232595   1.785   4.147   1.202 -1.3294 -0.2103  0.6860
 3654TIP3   OH232596   4.978   5.068   8.080  0.2756 -0.2155  0.0857
 3654TIP3    H132597   5.059   5.021   8.058  2.4259  4.0444 -2.5251
 3654TIP3    H232598   4.998   5.110   8.164  0.8255  0.6851 -0.4688
 3655TIP3   OH232599   3.292   3.037   0.761  0.3018  0.1387 -0.4070
 3655TIP3    H132600   3.342   2.989   0.695 -0.4314 -2.4182  0.7620
 3655TIP3    H232601   3.202   3.034   0.728 -0.2160 -1.8867  0.9597
 3656TIP3   OH232602   3.445   0.226   7.665  0.2145 -0.1327  0.3335
 3656TIP3    H132603   3.479   0.154   7.613  3.6922  1.1096  0.6682
 3656TIP3    H232604   3.414   0.290   7.601 -2.1112 -1.4420  0.0309
 3657TIP3   OH232605   0.471   4.861   6.809 -0.2301 -0.1454  0.2747
 3657TIP3    H132606   0.401   4.808   6.847  0.9776 -3.3705 -1.5731
 3657TIP3    H232607   0.547   4.846   6.866  0.1400 -0.4965 -0.2999
 3658TIP3   OH232608   6.124   1.991   0.241 -0.2414 -0.4919  0.1985
 3658TIP3    H132609   6.161   1.971   0.155 -0.8648  0.0413 -0.2105
 3658TIP3    H232610   6.196   1.979   0.302  0.3740 -0.2866 -0.4725
 3659TIP3   OH232611   5.155   0.831   0.156 -0.0820 -0.2631  0.2308
 3659TIP3    H132612   5.222   0.818   0.088  0.6501  1.2761  0.6190
 3659TIP3    H232613   5.077   0.790   0.119  0.4471  0.0187 -1.3037
 3660TIP3   OH232614   3.595   0.062   6.314 -0.1491  0.0648  0.3850
 3660TIP3    H132615   3.528   0.063   6.382 -0.2758 -0.6161  0.2753
 3660TIP3    H232616   3.560   0.005   6.246 -0.1905  1.0273 -0.4286
 3661TIP3   OH232617   0.419   4.384   7.411 -0.0167 -0.2160  0.6297
 3661TIP3    H132618   0.452   4.343   7.491  0.3370 -1.3070 -0.0444
 3661TIP3    H232619   0.450   4.475   7.416  0.8023 -0.5181  1.2867
 3662TIP3   OH232620   6.150   6.270   8.214 -0.3158  0.3008 -0.0510
 3662TIP3    H132621   6.178   6.361   8.220  1.4840 -0.2879  0.9821
 3662TIP3    H232622   6.061   6.270   8.251  0.4194  1.3350  1.8653
 3663TIP3   OH232623   4.582   2.541   7.616 -0.1183  0.8162 -0.1007
 3663TIP3    H132624   4.573   2.621   7.565 -0.1867  1.1079  0.3735
 3663TIP3    H232625   4.509   2.486   7.587 -0.3783  1.1298 -0.0420
 3664TIP3   OH232626   4.306   1.262   2.359  0.4368 -0.3746 -0.3486
 3664TIP3    H132627   4.275   1.232   2.444 -0.3773  2.9507  0.6950
 3664TIP3    H232628   4.238   1.235   2.297  0.1655 -1.3023  0.3360
 3665TIP3   OH232629   0.350   3.060   7.399  0.1507 -0.1096  0.5210
 3665TIP3    H132630   0.289   2.993   7.431  0.0037  0.1693  0.8291
 3665TIP3    H232631   0.322   3.077   7.309 -0.7904  0.6591  0.9496
 3666TIP3   OH232632   4.740   1.539   2.660  0.0262  0.0210  0.3691
 3666TIP3    H132633   4.697   1.454   2.647  0.3309 -0.0976  0.1431
 3666TIP3    H232634   4.674   1.592   2.706  0.5028 -0.9346  2.2537
 3667TIP3   OH232635   0.418   3.361   7.382  0.2136  0.9152  0.7402
 3667TIP3    H132636   0.417   3.395   7.293  1.3083 -0.6235  0.1035
 3667TIP3    H232637   0.337   3.394   7.421 -0.0345  2.0343 -0.6363
 3668TIP3   OH232638   3.270   2.755   8.187  0.6267 -0.0364  0.9739
 3668TIP3    H132639   3.276   2.805   8.268 -0.5935  0.0573  1.0275
 3668TIP3    H232640   3.284   2.664   8.213  3.5640  0.2508  0.7796
 3669TIP3   OH232641   1.507   4.856   0.974  0.3186  0.5479 -0.2307
 3669TIP3    H132642   1.475   4.785   1.030  1.6973 -0.3706 -0.5325
 3669TIP3    H232643   1.541   4.921   1.035 -0.0642  0.5031  0.0351
 3670TIP3   OH232644   2.332   0.844   7.669 -0.2123 -0.6000  0.4979
 3670TIP3    H132645   2.284   0.792   7.733 -1.4980  0.2139  0.2166
 3670TIP3    H232646   2.276   0.918   7.650  0.6959 -0.1641 -0.6440
 3671TIP3   OH232647   5.216   5.410   1.168 -0.1665 -0.1050  0.6986
 3671TIP3    H132648   5.228   5.498   1.132  0.6676 -0.2373  0.6394
 3671TIP3    H232649   5.160   5.366   1.104  1.1173 -0.2646 -0.3414
 3672TIP3   OH232650   0.296   2.171   2.038 -0.2135  0.2834 -0.2534
 3672TIP3    H132651   0.213   2.146   1.996  0.8737 -2.5722 -0.9445
 3672TIP3    H232652   0.274   2.177   2.131 -1.4542  0.9496 -0.5573
 3673TIP3   OH232653   4.615   0.299   6.925 -0.3788 -0.5579  0.0358
 3673TIP3    H132654   4.683   0.267   6.985 -0.2849  0.6059  0.5959
 3673TIP3    H232655   4.598   0.389   6.955 -0.9996 -0.2703 -1.1176
 3674TIP3   OH232656   0.619   4.272   0.907  0.1897 -0.4856 -0.4475
 3674TIP3    H132657   0.691   4.210   0.915  0.3153 -0.2165  0.6928
 3674TIP3    H232658   0.634   4.336   0.977 -0.1961  0.5680 -1.3003
 3675TIP3   OH232659   4.429   3.670   2.461 -0.6028 -0.8929 -0.1951
 3675TIP3    H132660   4.381   3.670   2.544 -1.2476  0.6740 -0.5258
 3675TIP3    H232661   4.519   3.649   2.485 -0.6289  0.2704  1.0369
 3676TIP3   OH232662   2.507   2.791   7.513  0.2162  0.1068  0.2478
 3676TIP3    H132663   2.474   2.717   7.565  0.0277  0.7423  1.0492
 3676TIP3    H232664   2.603   2.780   7.516  0.1481 -1.0631 -1.0844
 3677TIP3   OH232665   0.534   6.094   7.529 -0.5933  0.0112  0.3697
 3677TIP3    H132666   0.615   6.129   7.493 -0.3050 -0.3273  0.6779
 3677TIP3    H232667   0.501   6.164   7.586  0.3574 -0.4644  1.5512
 3678TIP3   OH232668   3.503   5.357   1.696 -0.7431  0.1022 -0.2917
 3678TIP3    H132669   3.482   5.272   1.734  1.4283 -0.9532 -1.2853
 3678TIP3    H232670   3.543   5.337   1.612  1.3678  1.9997  0.1618
 3679TIP3   OH232671   2.816   5.054   8.398 -0.5252 -0.1947  0.3905
 3679TIP3    H132672   2.785   4.965   8.411  1.5015 -1.3078 -1.8002
 3679TIP3    H232673   2.897   5.059   8.449 -1.5927  1.1120  2.0926
 3680TIP3   OH232674   5.181   2.894   0.721 -0.0470  0.0354  0.0456
 3680TIP3    H132675   5.212   2.971   0.673 -0.0217 -0.4422 -0.7171
 3680TIP3    H232676   5.261   2.853   0.754 -0.0978  0.6802  1.0107
 3681TIP3   OH232677   5.948   1.938   0.610  0.0153 -0.0651 -0.2523
 3681TIP3    H132678   5.972   1.847   0.626 -0.4538 -0.0183  0.7714
 3681TIP3    H232679   5.964   1.951   0.516  2.4471 -0.4641  0.0524
 3682TIP3   OH232680   6.001   4.746   7.594 -0.0198 -1.1513 -0.9462
 3682TIP3    H132681   6.040   4.799   7.525  0.3058 -0.7391 -0.4585
 3682TIP3    H232682   6.074   4.695   7.630  0.7196  1.4488  1.6468
 3683TIP3   OH232683   4.305   2.176   7.712 -0.5952 -0.3568 -0.4819
 3683TIP3    H132684   4.359   2.130   7.775 -1.9651 -0.8811  0.3539
 3683TIP3    H232685   4.285   2.111   7.645 -0.1792 -0.1501 -0.8149
 3684TIP3   OH232686   6.417   3.811   1.450  0.4477  0.0716  0.0275
 3684TIP3    H132687   6.404   3.867   1.526  2.8199  0.3380  0.3030
 3684TIP3    H232688   6.436   3.872   1.379 -1.3423 -0.2018 -0.7427
 3685TIP3   OH232689   4.736   6.123   0.216  0.8592 -0.4385 -0.6762
 3685TIP3    H132690   4.729   6.062   0.143  1.4793  0.2124 -1.2948
 3685TIP3    H232691   4.727   6.068   0.294 -1.1974 -0.9653 -1.2199
 3686TIP3   OH232692   3.294   6.496   1.646 -0.5256  0.5891  0.2788
 3686TIP3    H132693   3.357   6.446   1.595 -1.6811  0.1890 -0.7864
 3686TIP3    H232694   3.325   6.487   1.737  0.1339 -0.7897 -0.0559
 3687TIP3   OH232695   3.408   6.567   7.845  0.3169  0.1237  0.2510
 3687TIP3    H132696   3.346   6.539   7.912 -0.6418  0.4174 -0.4955
 3687TIP3    H232697   3.396   6.662   7.839  0.2760  0.0773 -0.4569
 3688TIP3   OH232698   4.779   0.330   2.353  0.4946 -0.5613 -0.0007
 3688TIP3    H132699   4.843   0.259   2.350 -0.4363 -1.4167 -0.4094
 3688TIP3    H232700   4.744   0.327   2.442  1.9504  0.7927  0.6604
 3689TIP3   OH232701   4.939   3.095   8.422  0.1147 -0.1600  0.2202
 3689TIP3    H132702   4.967   3.122   8.510 -1.1681  0.0480  0.5848
 3689TIP3    H232703   4.978   3.009   8.410  2.0310  0.6764  0.1338
 3690TIP3   OH232704   3.380   3.594   8.390 -0.6152 -0.1452  0.5519
 3690TIP3    H132705   3.287   3.578   8.407 -0.2674 -1.1699  1.6083
 3690TIP3    H232706   3.399   3.540   8.314 -0.8282 -0.1177  0.4763
 3691TIP3   OH232707   4.922   2.130   7.433 -0.2223  0.1016  0.0489
 3691TIP3    H132708   5.004   2.123   7.482 -0.2267  0.9066  0.1837
 3691TIP3    H232709   4.899   2.039   7.412  1.1462 -0.0815 -0.7360
 3692TIP3   OH232710   2.221   6.804   0.968  0.4264  0.3493 -0.3854
 3692TIP3    H132711   2.300   6.757   0.943  0.2729  0.5547 -1.2730
 3692TIP3    H232712   2.151   6.739   0.965 -0.1184  0.9390 -3.3684
 3693TIP3   OH232713   0.464   5.411   0.088 -0.0588  0.6278 -0.2507
 3693TIP3    H132714   0.427   5.361   0.016 -0.9883 -0.5487  0.9919
 3693TIP3    H232715   0.544   5.364   0.112  2.1652  2.9156 -2.6400
 3694TIP3   OH232716   4.865   5.904   0.361  0.4342 -0.1376  0.3526
 3694TIP3    H132717   4.909   5.989   0.358 -0.8384  0.5441 -0.7586
 3694TIP3    H232718   4.901   5.856   0.286  0.1828 -0.0409  0.1660
 3695TIP3   OH232719   4.199   6.842   7.517  0.0103  0.0807 -0.0205
 3695TIP3    H132720   4.285   6.848   7.475  0.3805 -1.2331  0.5071
 3695TIP3    H232721   4.156   6.925   7.496  1.6283  1.0044  0.1900
 3696TIP3   OH232722   6.876   4.962   0.835 -0.2871  0.1348  0.5218
 3696TIP3    H132723   6.841   5.040   0.792 -0.5591 -0.9386 -1.3127
 3696TIP3    H232724   6.884   4.987   0.927  0.2444  2.5164 -0.1090
 3697TIP3   OH232725   5.527   2.577   8.046 -0.6634 -0.2515  0.0407
 3697TIP3    H132726   5.472   2.614   8.115  0.0663 -0.0222  0.5193
 3697TIP3    H232727   5.573   2.653   8.009  0.7520 -0.6331  0.9398
 3698TIP3   OH232728   2.244   6.571   0.535  0.4852 -0.6092  0.0642
 3698TIP3    H132729   2.230   6.661   0.505 -0.8177 -0.9471 -0.4488
 3698TIP3    H232730   2.315   6.538   0.479  0.1621 -0.2597 -0.5698
 3699TIP3   OH232731   2.111   3.793   6.815 -0.3743 -0.0970  0.4810
 3699TIP3    H132732   2.204   3.775   6.827 -0.4260 -0.3601  0.5057
 3699TIP3    H232733   2.095   3.873   6.864 -0.5208 -0.9990  1.9686
 3700TIP3   OH232734   1.968   2.150   1.963  0.3241  0.1977  0.3782
 3700TIP3    H132735   2.020   2.229   1.975 -0.7468  1.1325 -0.8408
 3700TIP3    H232736   1.984   2.123   1.872 -0.8098  0.1508  0.1751
 3701TIP3   OH232737   0.605   0.134   7.220  0.1951  0.1181 -0.4051
 3701TIP3    H132738   0.624   0.142   7.127 -1.8055  0.9096 -0.7757
 3701TIP3    H232739   0.537   0.067   7.226 -0.4979  0.8668  0.3629
 3702TIP3   OH232740   5.248   5.111   1.200  0.5284 -0.0929  0.0234
 3702TIP3    H132741   5.220   5.200   1.176  0.3140 -0.3200 -0.5974
 3702TIP3    H232742   5.175   5.076   1.250  0.7566  0.1986  0.5700
 3703TIP3   OH232743   4.883   2.992   7.396  0.1868  0.7743 -0.2227
 3703TIP3    H132744   4.891   3.087   7.407  2.2281  0.4327  2.2679
 3703TIP3    H232745   4.830   2.964   7.470  1.5057 -0.1998  0.3948
 3704TIP3   OH232746   3.424   5.005   2.231 -0.1124  0.2208  0.3754
 3704TIP3    H132747   3.375   4.945   2.288 -2.4561 -0.5776 -2.2600
 3704TIP3    H232748   3.394   5.092   2.258 -1.6372 -0.1747  0.0574
 3705TIP3   OH232749   0.117   6.929   1.859 -0.6130  0.3252  0.3954
 3705TIP3    H132750   0.208   6.903   1.873 -1.1240 -2.1029 -0.4451
 3705TIP3    H232751   0.100   6.994   1.928  1.9708  1.5322  0.0261
 3706TIP3   OH232752   5.249   6.661   6.742 -0.1594  0.3094 -0.3118
 3706TIP3    H132753   5.236   6.588   6.682 -0.9296  0.0543  0.1588
 3706TIP3    H232754   5.341   6.686   6.729  0.0484 -0.5871 -0.6436
 3707TIP3   OH232755   1.959   6.719   7.587  0.4850  1.0893 -0.0056
 3707TIP3    H132756   2.021   6.703   7.516  0.1036 -1.7287  0.1893
 3707TIP3    H232757   1.877   6.679   7.557 -0.2364  1.6000  1.2096
 3708TIP3   OH232758   3.896   6.129   0.154 -0.5703 -0.1487 -0.0172
 3708TIP3    H132759   3.923   6.208   0.109 -3.4615 -0.0566 -1.8568
 3708TIP3    H232760   3.956   6.061   0.122 -0.9511  0.4347 -2.0723
 3709TIP3   OH232761   1.364   0.288   7.443  0.1146  0.5837 -0.7370
 3709TIP3    H132762   1.391   0.378   7.424 -0.3522  0.9268  0.1339
 3709TIP3    H232763   1.288   0.273   7.387  0.6920  0.4351 -1.4881
 3710TIP3   OH232764   3.986   3.556   0.398 -0.7368  0.1313 -0.5740
 3710TIP3    H132765   3.933   3.484   0.363  0.7517 -1.7573  0.8942
 3710TIP3    H232766   4.022   3.598   0.320 -0.9184 -1.2816 -1.4665
 3711TIP3   OH232767   4.776   0.721   0.421  0.0877  0.0394  0.0066
 3711TIP3    H132768   4.823   0.700   0.502 -1.0430  0.0498  0.6946
 3711TIP3    H232769   4.827   0.791   0.381  0.6883  0.0084  0.6995
 3712TIP3   OH232770   6.895   4.261   1.198  0.0307 -0.0582  0.0846
 3712TIP3    H132771   6.967   4.213   1.239  0.0486  0.1840  0.3455
 3712TIP3    H232772   6.906   4.247   1.104 -1.1969 -2.3104  0.2217
 3713TIP3   OH232773   1.710   3.545   1.189  0.0854  0.0702 -0.6781
 3713TIP3    H132774   1.682   3.454   1.178 -0.7667  0.4123 -1.4922
 3713TIP3    H232775   1.744   3.570   1.103 -0.9192  0.9137 -0.8532
 3714TIP3   OH232776   4.282   5.313   1.819  0.4522 -0.3324  0.4343
 3714TIP3    H132777   4.349   5.371   1.783  0.1920  0.2939  0.9349
 3714TIP3    H232778   4.253   5.261   1.744 -1.4245  2.2195 -0.7551
 3715TIP3   OH232779   3.169   2.939   0.211 -0.3522 -0.0941 -0.1271
 3715TIP3    H132780   3.131   3.007   0.267 -0.4837  0.2890 -0.6777
 3715TIP3    H232781   3.165   2.860   0.264  1.9834  0.7451  1.4831
 3716TIP3   OH232782   4.960   3.565   0.843  1.0088 -0.5069 -0.2795
 3716TIP3    H132783   4.975   3.497   0.910  0.8235  0.6115  0.9386
 3716TIP3    H232784   4.975   3.647   0.890 -0.2099  0.3456 -1.3513
 3717TIP3   OH232785   2.792   4.553   0.021  0.3552 -0.2422 -0.4707
 3717TIP3    H132786   2.776   4.584   0.110 -1.9812  1.6272 -1.4438
 3717TIP3    H232787   2.728   4.482   0.009  0.5097 -0.3358 -0.7544
 3718TIP3   OH232788   4.258   3.417   0.974  0.1152  0.4191 -0.1313
 3718TIP3    H132789   4.214   3.389   1.054 -0.4117 -1.0086 -0.8750
 3718TIP3    H232790   4.344   3.376   0.979  0.0169  0.1775 -0.3591
 3719TIP3   OH232791   1.859   3.442   7.674 -0.1880 -0.0956 -0.0672
 3719TIP3    H132792   1.934   3.501   7.676 -0.3475  0.0977  0.3504
 3719TIP3    H232793   1.797   3.483   7.614 -0.7171  0.6867  0.9834
 3720TIP3   OH232794   1.040   0.628   0.620 -0.0755 -0.0446  0.3602
 3720TIP3    H132795   0.948   0.616   0.642 -0.2718 -1.3256 -0.9558
 3720TIP3    H232796   1.063   0.549   0.570  2.1925 -0.5720  2.0582
 3721TIP3   OH232797   6.732   1.691   1.472 -0.3181  0.1310 -0.1897
 3721TIP3    H132798   6.767   1.609   1.509 -2.7175 -0.6407  0.5382
 3721TIP3    H232799   6.732   1.752   1.546 -1.4721 -0.2063  0.1005
 3722TIP3   OH232800   0.697   6.259   7.046  0.0941  0.1758 -0.0435
 3722TIP3    H132801   0.752   6.245   7.124 -0.5147  0.9156  0.5302
 3722TIP3    H232802   0.758   6.293   6.980  0.1198  2.3170  1.0066
 3723TIP3   OH232803   2.463   3.916   7.884  0.2057 -0.0811 -0.1105
 3723TIP3    H132804   2.479   4.007   7.861  2.2668 -0.2522  0.3725
 3723TIP3    H232805   2.440   3.918   7.977 -1.1003  0.0351 -0.4227
 3724TIP3   OH232806   1.677   0.957   7.732 -0.3087 -0.0642  0.1648
 3724TIP3    H132807   1.613   0.981   7.799  0.0270 -1.2999  0.9663
 3724TIP3    H232808   1.735   1.032   7.725 -2.5564  1.6625 -1.5390
 3725TIP3   OH232809   5.338   1.971   7.337 -0.0652 -0.0532 -0.0918
 3725TIP3    H132810   5.394   2.045   7.315 -1.3128  0.9785  0.0975
 3725TIP3    H232811   5.330   1.922   7.255  1.8191 -0.7485  0.0895
 3726TIP3   OH232812   1.714   6.590   1.392  0.1640 -0.4995  0.2008
 3726TIP3    H132813   1.676   6.512   1.350 -1.2791  0.1437  0.2575
 3726TIP3    H232814   1.644   6.624   1.447  0.2205  1.6630 -0.9383
 3727TIP3   OH232815   1.723   2.806   0.096 -0.7577 -0.4574 -0.4935
 3727TIP3    H132816   1.761   2.756   0.024 -1.1721 -0.8482 -0.4486
 3727TIP3    H232817   1.788   2.800   0.166 -0.2406  0.1324 -0.9080
 3728TIP3   OH232818   6.524   0.208   0.448 -0.3049  0.2333  0.1498
 3728TIP3    H132819   6.556   0.291   0.412 -0.9858  0.6200  0.4303
 3728TIP3    H232820   6.525   0.148   0.373  1.0598  0.2255  0.1363
 3729TIP3   OH232821   6.164   2.404   2.114 -0.5223 -0.2257  0.2033
 3729TIP3    H132822   6.120   2.483   2.083  0.6985  0.7290  0.8348
 3729TIP3    H232823   6.095   2.337   2.113 -1.5497  0.7975 -0.4602
 3730TIP3   OH232824   3.154   3.878   7.986 -0.2618  0.1178  0.1207
 3730TIP3    H132825   3.211   3.801   7.989 -0.7451 -0.2639 -0.3088
 3730TIP3    H232826   3.069   3.846   8.016 -0.1496  0.7912  1.2182
 3731TIP3   OH232827   0.321   0.688   8.193  0.1375 -0.4116  0.0481
 3731TIP3    H132828   0.245   0.722   8.147  0.3158 -0.4763 -0.2968
 3731TIP3    H232829   0.342   0.606   8.148 -0.2584 -0.9657  0.8374
 3732TIP3   OH232830   4.317   2.400   7.580 -0.4338  0.5207 -0.4733
 3732TIP3    H132831   4.274   2.357   7.506 -0.4438 -0.8745  0.3110
 3732TIP3    H232832   4.316   2.335   7.650  1.3804  1.0731  0.1310
 3733TIP3   OH232833   4.124   6.662   8.026 -0.5486 -0.6977  0.2059
 3733TIP3    H132834   4.137   6.612   7.946 -1.7701 -0.6371 -0.0523
 3733TIP3    H232835   4.033   6.646   8.050 -0.7527  0.7838  0.5297
 3734TIP3   OH232836   4.314   2.569   1.595 -0.2507 -0.0371 -0.7697
 3734TIP3    H132837   4.380   2.532   1.654  0.4467  0.2675 -1.3458
 3734TIP3    H232838   4.244   2.599   1.653  1.4990  2.5645  0.2087
 3735TIP3   OH232839   2.087   4.411   7.493  0.2060  0.1041 -0.2891
 3735TIP3    H132840   1.998   4.428   7.522  0.1877  2.2779 -1.3659
 3735TIP3    H232841   2.142   4.451   7.561  0.4844 -2.4324  1.0956
 3736TIP3   OH232842   2.497   6.595   7.092 -0.0903  0.3394 -0.1228
 3736TIP3    H132843   2.439   6.560   7.160  1.7944  0.0431  1.4242
 3736TIP3    H232844   2.482   6.689   7.093  1.2659  0.6095  2.1590
 3737TIP3   OH232845   6.584   2.980   0.416 -0.0497  0.4506 -0.0978
 3737TIP3    H132846   6.653   3.025   0.465  0.8166 -1.7908  0.8828
 3737TIP3    H232847   6.622   2.964   0.330  0.3553 -0.0341  0.1657
 3738TIP3   OH232848   0.307   3.990   2.351  0.0793  0.7446 -0.3252
 3738TIP3    H132849   0.329   4.044   2.427  1.4515 -1.3709  0.9107
 3738TIP3    H232850   0.392   3.969   2.312 -0.4494 -0.0902 -1.0692
 3739TIP3   OH232851   0.265   0.061   1.416 -0.3690 -0.4528  0.5077
 3739TIP3    H132852   0.245   0.062   1.322 -1.0770  0.4327  0.6544
 3739TIP3    H232853   0.361   0.064   1.420 -0.3354  2.0873 -0.2079
 3740TIP3   OH232854   3.334   4.426   1.152 -0.3935 -0.6529 -0.3061
 3740TIP3    H132855   3.265   4.362   1.135 -1.0229 -0.3841  1.1105
 3740TIP3    H232856   3.288   4.504   1.184  0.5868 -0.6671  1.2156
 3741TIP3   OH232857   1.791   3.274   2.394  0.1787 -0.0584 -0.1896
 3741TIP3    H132858   1.872   3.311   2.428 -0.6507  0.2278  1.5797
 3741TIP3    H232859   1.802   3.274   2.299  1.4809  1.7416 -0.0764
 3742TIP3   OH232860   3.045   1.595   8.272 -0.2841  0.2127 -0.0955
 3742TIP3    H132861   3.099   1.637   8.338  0.5701 -0.7430 -0.1616
 3742TIP3    H232862   3.061   1.646   8.192 -0.6551  0.8392  0.2191
 3743TIP3   OH232863   1.643   5.372   8.401 -0.1980 -0.0101  0.0701
 3743TIP3    H132864   1.583   5.428   8.449 -2.3491 -2.3625  0.3225
 3743TIP3    H232865   1.598   5.288   8.395  1.8944 -1.1022 -2.2073
 3744TIP3   OH232866   4.969   1.315   6.781 -0.1206 -0.2025 -0.1615
 3744TIP3    H132867   4.886   1.296   6.738 -0.9649 -1.2801  1.7841
 3744TIP3    H232868   5.011   1.229   6.790  0.5947  0.1645  0.0496
 3745TIP3   OH232869   2.565   6.091   7.360 -0.1406 -0.2597  0.4458
 3745TIP3    H132870   2.613   6.016   7.325 -0.9059 -0.0394 -1.1698
 3745TIP3    H232871   2.632   6.157   7.377  0.3018 -0.5312 -0.2069
 3746TIP3   OH232872   1.814   6.338   0.469  0.1253  0.4995  0.3512
 3746TIP3    H132873   1.905   6.335   0.499  0.0280  1.6652  0.7795
 3746TIP3    H232874   1.786   6.427   0.485 -0.4685  0.7322 -1.6513
 3747TIP3   OH232875   4.097   0.240   0.903  0.1964 -0.2937  0.2808
 3747TIP3    H132876   4.098   0.309   0.836  2.2426 -0.3542  0.1875
 3747TIP3    H232877   4.186   0.239   0.938 -0.0612 -2.2104  1.0116
 3748TIP3   OH232878   2.264   5.733   1.307  0.6052  0.5049 -0.7664
 3748TIP3    H132879   2.288   5.664   1.369  2.3046  1.9018  0.2426
 3748TIP3    H232880   2.254   5.811   1.362 -0.3523  1.2678 -1.9843
 3749TIP3   OH232881   0.529   2.701   7.941  0.5841  0.1308 -0.0273
 3749TIP3    H132882   0.497   2.659   8.021  2.9751  0.4780  1.2127
 3749TIP3    H232883   0.459   2.761   7.915  0.1858  0.8768  2.5068
 3750TIP3   OH232884   1.998   1.251   8.463 -0.0896  0.3456  0.0481
 3750TIP3    H132885   2.005   1.339   8.427  0.0918  0.6843  0.8840
 3750TIP3    H232886   1.961   1.199   8.392  1.2236  0.7546 -0.9887
 3751TIP3   OH232887   1.801   3.681   1.397 -0.0400 -0.2941  0.3181
 3751TIP3    H132888   1.751   3.760   1.380  0.3363 -0.1798 -0.2913
 3751TIP3    H232889   1.761   3.615   1.340  0.3734 -0.2508 -0.0266
 3752TIP3   OH232890   4.855   0.970   7.059  0.0524  0.7440  0.0974
 3752TIP3    H132891   4.808   0.955   6.977 -0.8295 -0.0083  0.7240
 3752TIP3    H232892   4.941   1.002   7.032 -0.0017 -0.0924 -1.1391
 3753TIP3   OH232893   5.442   3.461   6.653  0.2943  0.7386  0.4436
 3753TIP3    H132894   5.480   3.511   6.580  1.0112  0.5830  0.7011
 3753TIP3    H232895   5.419   3.377   6.615  0.7553  0.6232  0.4102
 3754TIP3   OH232896   2.806   5.166   6.727 -0.5033  0.2557 -0.0982
 3754TIP3    H132897   2.839   5.151   6.816 -2.1429  0.7042  0.6197
 3754TIP3    H232898   2.802   5.079   6.688  0.6143  0.0966  0.1016
 3755TIP3   OH232899   1.932   2.765   0.259 -0.3052  0.2551 -0.4817
 3755TIP3    H132900   1.978   2.686   0.289 -0.3509  0.8958  1.4158
 3755TIP3    H232901   2.001   2.831   0.253 -0.6368  0.7083  0.4644
 3756TIP3   OH232902   5.900   4.024   6.903  0.2696 -0.0370  0.8056
 3756TIP3    H132903   5.957   3.971   6.847 -0.6778  0.2319 -0.4570
 3756TIP3    H232904   5.813   3.986   6.892 -0.3945  1.5945  0.0418
 3757TIP3   OH232905   0.370   1.322   8.567  0.4596  0.5260 -0.8431
 3757TIP3    H132906   0.335   1.256   8.626  0.6466  1.4742  0.3649
 3757TIP3    H232907   0.331   1.404   8.596  0.3485  0.9951 -2.2173
 3758TIP3   OH232908   0.232   1.281   8.082  0.1937 -0.2174 -0.4948
 3758TIP3    H132909   0.259   1.199   8.041  0.6862  0.2313 -1.1038
 3758TIP3    H232910   0.212   1.258   8.172  2.1359 -0.7062 -0.1389
 3759TIP3   OH232911   4.841   0.782   7.484 -0.5964  0.0425  0.3491
 3759TIP3    H132912   4.770   0.758   7.544  0.6536 -0.3117  1.7648
 3759TIP3    H232913   4.914   0.804   7.542 -0.2349  2.7014 -0.9917
 3760TIP3   OH232914   5.028   1.609   8.304  0.2031 -0.0683  0.3310
 3760TIP3    H132915   5.081   1.623   8.226 -1.7092  0.5564 -0.9250
 3760TIP3    H232916   4.999   1.697   8.330 -1.8485 -0.5103 -0.2696
 3761TIP3   OH232917   3.080   6.654   7.122  0.0930 -0.1465  0.2030
 3761TIP3    H132918   3.174   6.642   7.130 -0.2363 -1.9235  3.9845
 3761TIP3    H232919   3.050   6.575   7.077  0.2925 -0.4233  0.5481
 3762TIP3   OH232920   4.755   1.293   0.564  0.3809 -0.6303  0.0466
 3762TIP3    H132921   4.844   1.261   0.581  0.0975 -1.2094  0.5039
 3762TIP3    H232922   4.732   1.257   0.478  0.1107 -1.5876  0.5049
 3763TIP3   OH232923   4.490   4.233   1.679  0.5616  0.3380  0.7693
 3763TIP3    H132924   4.463   4.296   1.612  2.3502  0.9149  0.5441
 3763TIP3    H232925   4.422   4.239   1.747 -1.6107 -0.6548 -1.1632
 3764TIP3   OH232926   1.593   2.593   1.208  0.1083  0.6089  0.1142
 3764TIP3    H132927   1.575   2.499   1.214  1.5166  0.3862  1.7346
 3764TIP3    H232928   1.650   2.601   1.132  1.0535 -0.0794  0.7180
 3765TIP3   OH232929   1.375   4.914   0.497  0.5740 -0.3191  0.0014
 3765TIP3    H132930   1.375   4.913   0.592 -0.5926  1.4027  0.0732
 3765TIP3    H232931   1.430   4.840   0.472 -0.6134 -1.9909  1.9748
 3766TIP3   OH232932   4.508   6.237   8.530  0.8178  0.2642  0.2253
 3766TIP3    H132933   4.590   6.256   8.485  1.0787 -3.9264 -1.5186
 3766TIP3    H232934   4.447   6.304   8.497  2.8371  1.9276 -0.3970
 3767TIP3   OH232935   0.242   2.068   1.291 -0.0136  0.1357  0.0330
 3767TIP3    H132936   0.193   2.026   1.361 -0.4612  0.6598  0.0416
 3767TIP3    H232937   0.228   2.012   1.215  0.0224 -0.1411  0.2310
 3768TIP3   OH232938   2.070   5.250   1.626 -0.2663  0.3763  0.8274
 3768TIP3    H132939   2.102   5.208   1.546  0.7598  2.7137 -0.0747
 3768TIP3    H232940   2.146   5.248   1.685 -0.7930 -0.6548  1.5133
 3769TIP3   OH232941   1.821   3.771   7.394  0.6723 -0.3265  0.0221
 3769TIP3    H132942   1.878   3.695   7.389  1.1366  0.0680 -1.2099
 3769TIP3    H232943   1.851   3.828   7.323 -1.0185  0.0646 -0.4322
 3770TIP3   OH232944   1.152   5.706   8.490  0.1572 -0.2178  0.0969
 3770TIP3    H132945   1.115   5.766   8.425  1.1478 -0.2748 -0.5424
 3770TIP3    H232946   1.246   5.725   8.489  0.1846 -0.1925  1.5550
 3771TIP3   OH232947   1.499   1.045   1.091 -0.2523  0.1019 -0.0134
 3771TIP3    H132948   1.472   0.955   1.108  1.1970 -0.2738  0.4218
 3771TIP3    H232949   1.517   1.047   0.997 -0.4313 -0.0214 -0.0511
 3772TIP3   OH232950   6.721   6.665   7.858 -0.2892 -0.3263 -0.0520
 3772TIP3    H132951   6.694   6.653   7.949 -2.4568 -2.4535 -0.8755
 3772TIP3    H232952   6.745   6.577   7.828  1.5911  0.5200 -1.2451
 3773TIP3   OH232953   2.129   1.591   0.863  0.6455  0.5457 -0.7602
 3773TIP3    H132954   2.179   1.638   0.930 -0.2322  0.0359  0.2809
 3773TIP3    H232955   2.195   1.540   0.815  1.2282  0.4897  0.0840
 3774TIP3   OH232956   2.321   1.045   7.157  0.3424  0.0452 -0.1415
 3774TIP3    H132957   2.367   0.983   7.214 -0.2766 -0.5371 -0.2649
 3774TIP3    H232958   2.229   1.027   7.172  0.1264  1.6881  0.6283
 3775TIP3   OH232959   3.341   5.668   1.060  0.7230  0.0159  0.0061
 3775TIP3    H132960   3.402   5.729   1.102  1.1894  0.0805 -0.7532
 3775TIP3    H232961   3.390   5.633   0.985  0.3791 -1.1107  0.2925
 3776TIP3   OH232962   6.709   2.828   1.555  0.1982 -0.4528 -0.2931
 3776TIP3    H132963   6.699   2.881   1.634  1.1263 -0.1841 -0.3471
 3776TIP3    H232964   6.632   2.771   1.555  0.1035 -0.3451  0.7152
 3777TIP3   OH232965   6.838   2.041   7.716  0.5245  0.3537  0.2728
 3777TIP3    H132966   6.791   2.089   7.784  1.8909  0.3245  1.3036
 3777TIP3    H232967   6.925   2.081   7.715  1.0403 -0.7371 -0.2927
 3778TIP3   OH232968   0.896   3.398   1.071 -0.6132  0.4228 -0.4014
 3778TIP3    H132969   0.836   3.338   1.114  0.4432 -0.7669 -0.5469
 3778TIP3    H232970   0.868   3.398   0.979 -0.2303 -0.3472 -0.5230
 3779TIP3   OH232971   4.805   1.032   7.804 -0.0650  0.1073 -0.5650
 3779TIP3    H132972   4.899   1.045   7.795 -0.1575  1.6469  0.3071
 3779TIP3    H232973   4.769   1.121   7.806 -1.4860 -0.4433 -0.3894
 3780TIP3   OH232974   5.738   4.491   0.467  0.1319  0.0554  0.3675
 3780TIP3    H132975   5.730   4.523   0.377 -0.1131 -0.3028  0.2558
 3780TIP3    H232976   5.650   4.497   0.502  0.1089 -0.3448  0.3907
 3781TIP3   OH232977   3.618   2.347   8.269  0.3403 -0.2942  0.2554
 3781TIP3    H132978   3.678   2.312   8.335 -1.2843 -1.8461  0.9665
 3781TIP3    H232979   3.611   2.278   8.204  2.7462  1.5885 -2.2767
 3782TIP3   OH232980   3.888   4.306   7.552 -0.1970  0.2387 -0.7673
 3782TIP3    H132981   3.894   4.249   7.629  0.1869 -0.3608 -1.2401
 3782TIP3    H232982   3.937   4.261   7.484 -1.8518 -0.0286 -1.8482
 3783TIP3   OH232983   3.412   3.702   7.884  0.5443  0.2483  0.3305
 3783TIP3    H132984   3.424   3.796   7.873 -2.0075  0.6858  0.5810
 3783TIP3    H232985   3.477   3.662   7.826 -1.0271  2.2476 -3.1044
 3784TIP3   OH232986   5.762   5.064   1.508  0.2807 -0.1303  0.0913
 3784TIP3    H132987   5.796   5.152   1.496  1.9006 -0.4992  1.5535
 3784TIP3    H232988   5.763   5.051   1.603 -1.5682 -1.1233  0.0193
 3785TIP3   OH232989   6.825   1.447   0.309 -0.0304 -0.0215  0.2461
 3785TIP3    H132990   6.823   1.477   0.218 -0.0360 -0.8867 -0.0493
 3785TIP3    H232991   6.894   1.381   0.310  0.1444  0.1644  0.9362
 3786TIP3   OH232992   2.218   4.067   2.384 -0.4283 -0.3437 -0.0749
 3786TIP3    H132993   2.129   4.042   2.407 -0.7770  1.1183  0.2709
 3786TIP3    H232994   2.269   4.049   2.463 -0.6936  0.1070  0.2057
 3787TIP3   OH232995   3.487   3.121   1.097 -0.0182  0.1706  0.1363
 3787TIP3    H132996   3.398   3.135   1.130  0.0827  0.2271  0.3871
 3787TIP3    H232997   3.485   3.154   1.008  0.0768  1.3072  0.5458
 3788TIP3   OH232998   4.496   5.158   8.113 -0.0033 -0.3756  0.0947
 3788TIP3    H132999   4.413   5.114   8.092 -0.7803  0.5801  1.0466
 3788TIP3    H233000   4.558   5.123   8.049 -0.2309 -3.7710  1.5566
 3789TIP3   OH233001   2.272   0.576   0.738  0.1838 -0.4501  0.1133
 3789TIP3    H133002   2.296   0.611   0.824  1.0222 -1.0554  0.1332
 3789TIP3    H233003   2.176   0.576   0.739  0.1803 -0.4569  1.0562
 3790TIP3   OH233004   0.454   0.492   8.035  0.0148 -0.7650  0.6162
 3790TIP3    H133005   0.547   0.481   8.018 -0.5071 -2.9109 -1.4082
 3790TIP3    H233006   0.425   0.406   8.066 -1.6738 -0.9154 -1.1551
 3791TIP3   OH233007   0.856   1.946   0.536 -0.6287 -0.5351  0.0660
 3791TIP3    H133008   0.817   1.950   0.449 -0.5181 -0.4855  0.0189
 3791TIP3    H233009   0.854   1.853   0.559  0.2609 -0.6764 -0.4093
 3792TIP3   OH233010   0.795   0.548   0.727  0.6180  0.1491  0.3285
 3792TIP3    H133011   0.721   0.555   0.668  1.0964 -1.1629 -0.4740
 3792TIP3    H233012   0.783   0.464   0.771  1.6191 -0.1004  0.1614
 3793TIP3   OH233013   2.581   2.037   0.563  0.1217  0.5145  0.1227
 3793TIP3    H133014   2.587   1.946   0.536  2.7647  0.4168  0.7969
 3793TIP3    H233015   2.498   2.042   0.610  1.5094 -2.5599  3.3684
 3794TIP3   OH233016   0.176   3.946   1.814  0.1284  0.3864  0.3773
 3794TIP3    H133017   0.123   4.025   1.824 -0.3940  0.2150 -0.9271
 3794TIP3    H233018   0.138   3.884   1.877 -0.5652  0.5972  0.1701
 3795TIP3   OH233019   6.606   0.537   1.053  1.0004 -0.0972  0.1522
 3795TIP3    H133020   6.626   0.448   1.083 -1.2261 -0.3235  1.1401
 3795TIP3    H233021   6.537   0.525   0.987  2.5620  0.7584 -1.7408
 3796TIP3   OH233022   4.825   5.819   7.548  0.0899 -0.2223  0.9121
 3796TIP3    H133023   4.895   5.883   7.536  1.0787 -1.1920  1.3599
 3796TIP3    H233024   4.862   5.736   7.517 -1.2265 -0.5674  0.1767
 3797TIP3   OH233025   2.067   2.791   8.408  0.6404 -0.0489 -0.2777
 3797TIP3    H133026   2.104   2.767   8.492 -0.2721  1.3315  0.5543
 3797TIP3    H233027   2.053   2.886   8.414 -3.7648 -0.5317 -0.1745
 3798TIP3   OH233028   2.532   3.803   0.386  0.0890  0.1190 -0.0221
 3798TIP3    H133029   2.453   3.750   0.389  1.4299 -1.9730  1.4373
 3798TIP3    H233030   2.552   3.823   0.477  0.5024  1.8221 -0.4524
 3799TIP3   OH233031   5.659   3.512   1.998 -0.5985 -0.6567 -0.8325
 3799TIP3    H133032   5.653   3.606   2.013 -1.2156 -0.7058 -0.7389
 3799TIP3    H233033   5.666   3.474   2.086  2.2822 -0.5607 -0.9295
 3800TIP3   OH233034   1.994   3.882   7.697 -0.4928 -0.7247 -0.0535
 3800TIP3    H133035   1.914   3.881   7.644 -0.2110 -0.4048 -0.4916
 3800TIP3    H233036   2.028   3.970   7.687  1.1938 -1.4959 -1.8386
 3801TIP3   OH233037   1.640   1.575   6.459 -0.8042  0.3913 -0.4052
 3801TIP3    H133038   1.563   1.525   6.485  0.6977 -0.2853  3.3495
 3801TIP3    H233039   1.682   1.522   6.391 -1.6004 -1.2684  0.3379
 3802TIP3   OH233040   2.821   1.852   0.715  0.3910  0.8333 -0.1942
 3802TIP3    H133041   2.856   1.843   0.804 -0.0393 -0.9336 -0.1565
 3802TIP3    H233042   2.818   1.946   0.700 -1.0423  1.2734  2.2625
 3803TIP3   OH233043   6.701   0.069   8.354 -0.5164 -0.1221 -0.5348
 3803TIP3    H133044   6.622   0.119   8.333 -1.1111  0.0375  1.7390
 3803TIP3    H233045   6.668  -0.009   8.398  0.5712  0.0803  0.6998
 3804TIP3   OH233046   1.841   5.045   0.485  0.2366  0.2172  0.3359
 3804TIP3    H133047   1.847   5.140   0.475 -2.3285  0.3782 -0.3431
 3804TIP3    H233048   1.812   5.032   0.575 -0.9223  0.1858 -0.0318
 3805TIP3   OH233049   1.100   2.813   6.371  0.2283 -0.1484 -0.2111
 3805TIP3    H133050   1.068   2.759   6.299 -0.3280  1.0189 -0.8730
 3805TIP3    H233051   1.065   2.772   6.450 -1.4632  0.0890 -0.8001
 3806TIP3   OH233052   1.857   3.307   7.046 -0.5515 -0.2539  0.3619
 3806TIP3    H133053   1.916   3.378   7.071  0.4279 -0.2949 -1.6410
 3806TIP3    H233054   1.788   3.349   6.995 -0.2557 -0.6530 -0.3846
 3807TIP3   OH233055   4.209   4.852   7.809  0.0066  0.6608  0.0811
 3807TIP3    H133056   4.249   4.765   7.817  0.5072  0.7336 -1.4381
 3807TIP3    H233057   4.261   4.897   7.742 -2.0106  1.1303 -1.2373
 3808TIP3   OH233058   6.191   0.878   0.727  0.1749  0.3250 -0.2247
 3808TIP3    H133059   6.100   0.889   0.755  0.2772 -0.1843  0.3250
 3808TIP3    H233060   6.235   0.958   0.754 -0.1573  0.6670 -0.6906
 3809TIP3   OH233061   6.215   4.104   6.720  0.0802  0.5820 -0.2227
 3809TIP3    H133062   6.228   4.176   6.658 -0.6854  0.5833 -0.3880
 3809TIP3    H233063   6.144   4.052   6.683 -0.7074  0.8429  0.8737
 3810TIP3   OH233064   4.290   1.518   0.150  1.0385  0.4478 -0.0987
 3810TIP3    H133065   4.325   1.469   0.224 -0.4518  1.2376  1.2001
 3810TIP3    H233066   4.320   1.470   0.073 -1.1881 -3.2433  1.0283
 3811TIP3   OH233067   5.588   5.682   8.099  0.8347  0.3161  0.7654
 3811TIP3    H133068   5.621   5.596   8.124 -0.8287 -0.5402  0.1875
 3811TIP3    H233069   5.616   5.694   8.009 -0.3206 -0.3959  0.2856
 3812TIP3   OH233070   0.767   6.521   7.417 -0.5443  0.4056  0.1915
 3812TIP3    H133071   0.747   6.594   7.477 -1.8138  0.3352 -0.1018
 3812TIP3    H233072   0.851   6.487   7.447 -1.3732  0.0413  2.2771
 3813TIP3   OH233073   4.010   3.916   7.262  0.0951  0.9004 -0.0476
 3813TIP3    H133074   4.099   3.889   7.239 -0.1552 -0.7138  0.6927
 3813TIP3    H233075   3.961   3.834   7.267 -1.6045  1.7920 -1.0550
 3814TIP3   OH233076   6.001   2.352   7.510  0.3369  0.6242 -0.0950
 3814TIP3    H133077   6.078   2.401   7.481  1.8222 -0.9708  0.9019
 3814TIP3    H233078   6.004   2.271   7.459  0.9398 -0.6494  1.8550
 3815TIP3   OH233079   1.355   6.780   1.650  0.4207  0.0364  0.1581
 3815TIP3    H133080   1.277   6.724   1.650 -0.0985  0.6656  2.4328
 3815TIP3    H233081   1.359   6.815   1.738  1.4715  2.5980 -0.8238
 3816TIP3   OH233082   5.330   2.894   8.112  0.7024  0.0641 -0.0738
 3816TIP3    H133083   5.274   2.950   8.166  1.6880  1.0383 -0.0135
 3816TIP3    H233084   5.406   2.949   8.091  0.6595 -0.5053 -1.9063
 3817TIP3   OH233085   2.111   3.822   1.733  0.3557 -0.0946  0.0875
 3817TIP3    H133086   2.030   3.827   1.682  0.6158 -0.5499 -0.3636
 3817TIP3    H233087   2.157   3.904   1.713 -1.5149  1.8951  2.9629
 3818TIP3   OH233088   0.112   1.775   0.088  0.1176 -0.0739  0.3736
 3818TIP3    H133089   0.062   1.782   0.169  1.5281 -0.2120  1.2791
 3818TIP3    H233090   0.052   1.808   0.021 -1.2886 -0.4949  1.3634
 3819TIP3   OH233091   6.660   1.427   0.016 -0.1845 -0.0929 -0.3134
 3819TIP3    H133092   6.591   1.419   0.081  0.4946  0.2884  0.4681
 3819TIP3    H233093   6.638   1.507  -0.032 -1.0444 -0.7253 -1.0050
 3820TIP3   OH233094   0.062   6.612   1.741 -0.2769  0.3339 -0.1663
 3820TIP3    H133095   0.091   6.698   1.712  1.0969 -0.5891 -1.7102
 3820TIP3    H233096   0.020   6.574   1.664 -0.7971 -0.4282  0.4747
 3821TIP3   OH233097   5.803   1.348   7.466 -0.1462  0.0666 -0.6351
 3821TIP3    H133098   5.734   1.324   7.404 -0.2715 -1.7106  0.1494
 3821TIP3    H233099   5.758   1.361   7.549  0.4179 -0.9492 -0.1523
 3822TIP3   OH233100   3.774   2.512   7.743  0.2803 -0.4172 -0.0718
 3822TIP3    H133101   3.834   2.536   7.673  0.5544 -1.3050 -0.1612
 3822TIP3    H233102   3.821   2.445   7.793 -0.2823 -0.4766  0.3923
 3823TIP3   OH233103   4.809   3.394   7.019 -0.3197  0.0720 -0.0341
 3823TIP3    H133104   4.755   3.326   6.979 -0.0375  0.6805 -1.5395
 3823TIP3    H233105   4.896   3.380   6.980 -0.1352  0.9716  0.0475
 3824TIP3   OH233106   0.847   4.015   1.923  0.1224 -0.2023 -0.0581
 3824TIP3    H133107   0.815   3.988   2.009  0.4510  1.3476  0.5730
 3824TIP3    H233108   0.890   4.099   1.938 -0.9092  0.7312 -1.9571
 3825TIP3   OH233109   2.723   4.494   2.049 -0.7755 -0.4236 -0.7490
 3825TIP3    H133110   2.764   4.446   1.977  2.8672  1.9591 -0.5369
 3825TIP3    H233111   2.787   4.491   2.120 -1.5836  2.2394  0.2307
 3826TIP3   OH233112   3.829   0.758   7.132  0.2168  0.2212  0.1929
 3826TIP3    H133113   3.780   0.750   7.050  3.7251  0.3048 -2.0973
 3826TIP3    H233114   3.830   0.852   7.151  0.6890  0.3762 -0.5709
 3827TIP3   OH233115   4.547   5.798   7.180 -0.9204  0.5049  0.4053
 3827TIP3    H133116   4.546   5.749   7.262 -0.2076 -0.0939  0.0601
 3827TIP3    H233117   4.639   5.822   7.167 -1.2087  1.7509  0.4486
 3828TIP3   OH233118   0.674   1.208   7.216  0.5357 -0.3343  0.0234
 3828TIP3    H133119   0.597   1.208   7.159 -0.1046 -1.1379  0.8484
 3828TIP3    H233120   0.647   1.259   7.293 -0.1768 -2.7948  1.5270
 3829TIP3   OH233121   3.731   6.271   7.122  0.0767 -0.0492 -0.7316
 3829TIP3    H133122   3.676   6.205   7.078  1.1850  0.1541 -2.5317
 3829TIP3    H233123   3.752   6.334   7.053  1.0449  0.8643  0.3672
 3830TIP3   OH233124   0.600   2.116   1.748  0.7529  0.2376 -0.4390
 3830TIP3    H133125   0.513   2.082   1.725  0.3184  1.6990 -1.1111
 3830TIP3    H233126   0.583   2.178   1.819  1.1427  1.0321 -1.0259
 3831TIP3   OH233127   4.422   3.390   1.775 -0.7114 -0.2153 -0.0172
 3831TIP3    H133128   4.495   3.381   1.837  0.4923  0.4039 -1.2887
 3831TIP3    H233129   4.349   3.421   1.829 -0.1491 -1.1525  1.3490
 3832TIP3   OH233130   0.978   2.568   2.019  0.2080 -0.2076 -0.0587
 3832TIP3    H133131   1.048   2.611   2.068  1.1211 -0.8825 -0.7226
 3832TIP3    H233132   1.024   2.521   1.949 -0.9937  0.1221 -1.0996
 3833TIP3   OH233133   1.857   3.179   7.592 -0.4608  0.1754  0.1906
 3833TIP3    H133134   1.848   3.270   7.565  0.9620  0.1614 -0.3768
 3833TIP3    H233135   1.876   3.183   7.686 -1.5740  0.3870  0.4244
 3834TIP3   OH233136   6.099   3.221   7.953 -0.1464  0.5805  0.2221
 3834TIP3    H133137   6.068   3.217   8.043 -1.4310  0.8144 -0.1842
 3834TIP3    H233138   6.111   3.314   7.935  2.3213  0.4458  0.8277
 3835TIP3   OH233139   3.401   1.540   7.431 -0.2454 -0.1892 -0.0766
 3835TIP3    H133140   3.432   1.505   7.348  0.4335  0.5968 -0.1634
 3835TIP3    H233141   3.480   1.543   7.486 -0.4575  0.4263  0.1961
 3836TIP3   OH233142   0.653   1.935   1.448 -0.3121 -0.2488 -0.1996
 3836TIP3    H133143   0.704   1.928   1.529 -0.9956  2.3838  0.5452
 3836TIP3    H233144   0.717   1.919   1.378  0.5586 -1.3215  0.8002
 3837TIP3   OH233145   3.665   6.290   6.254  0.0003 -0.4747  0.5179
 3837TIP3    H133146   3.715   6.215   6.286  0.2107 -0.8169 -0.5896
 3837TIP3    H233147   3.724   6.333   6.191 -1.2120 -1.1082 -1.1141
 3838TIP3   OH233148   1.390   6.397   7.614  0.2179 -0.0392 -0.0724
 3838TIP3    H133149   1.446   6.345   7.556 -1.3366 -0.6869 -1.0345
 3838TIP3    H233150   1.307   6.403   7.568 -0.8444  0.0287  1.7714
 3839TIP3   OH233151   1.298   3.293   6.594  0.3792  0.6026  0.4688
 3839TIP3    H133152   1.391   3.300   6.617  0.4675 -0.3449  0.4121
 3839TIP3    H233153   1.260   3.374   6.628  1.2678  1.1304  0.2655
 3840TIP3   OH233154   6.159   5.136   1.447 -0.0971 -0.4908 -0.3335
 3840TIP3    H133155   6.240   5.084   1.442 -0.6510 -1.5703  1.0702
 3840TIP3    H233156   6.135   5.133   1.540 -0.7414  1.4127 -0.4015
 3841TIP3   OH233157   6.039   4.020   7.727 -0.4530  0.7527  0.2111
 3841TIP3    H133158   6.004   3.948   7.675 -1.1026  1.4596 -0.3553
 3841TIP3    H233159   5.976   4.091   7.715  0.6264  1.7125  0.0355
 3842TIP3   OH233160   4.647   3.687   0.480  0.0273  0.1242 -0.5074
 3842TIP3    H133161   4.673   3.762   0.534 -1.4844  0.2509  0.0892
 3842TIP3    H233162   4.636   3.615   0.543  1.1615 -0.5522 -1.0376
 3843TIP3   OH233163   2.428   5.052   1.608 -0.3338 -0.0868 -0.2937
 3843TIP3    H133164   2.474   5.009   1.537 -0.0210 -1.9103  0.9342
 3843TIP3    H233165   2.490   5.053   1.681 -0.9077  0.9971  0.2169
 3844TIP3   OH233166   6.935   2.232   0.765 -0.2417 -0.4330  1.0388
 3844TIP3    H133167   6.893   2.146   0.765 -0.6902 -0.2165  1.4792
 3844TIP3    H233168   6.867   2.293   0.792 -0.8083  0.5420 -2.2437
 3845TIP3   OH233169   2.051   4.905   2.577  0.2847 -0.6387 -0.0529
 3845TIP3    H133170   2.145   4.924   2.579 -0.0559  1.1632  0.8049
 3845TIP3    H233171   2.031   4.877   2.666 -0.2470  0.5262  0.2144
 3846TIP3   OH233172   5.840   6.266   0.509 -0.3181 -0.6697  0.0915
 3846TIP3    H133173   5.884   6.211   0.444  2.5498 -0.6484  1.8475
 3846TIP3    H233174   5.789   6.204   0.562  0.0925 -1.1787 -0.0921
 3847TIP3   OH233175   4.641   3.477   1.926 -0.4271 -0.2592  0.0451
 3847TIP3    H133176   4.644   3.502   1.833  2.8836 -0.4187 -0.0030
 3847TIP3    H233177   4.663   3.558   1.973 -3.5730  0.2276  0.9190
 3848TIP3   OH233178   5.153   0.734   0.491  0.6171 -0.5892  0.0519
 3848TIP3    H133179   5.190   0.819   0.465 -0.3672  0.0900  0.7929
 3848TIP3    H233180   5.107   0.703   0.413 -0.6498  0.4944  0.3370
 3849TIP3   OH233181   4.134   0.526   7.768  0.3761 -0.3653 -0.2258
 3849TIP3    H133182   4.168   0.518   7.679 -3.4153 -1.1169 -1.8200
 3849TIP3    H233183   4.087   0.610   7.768  2.8325  1.1875  2.1972
 3850TIP3   OH233184   5.661   3.556   2.592 -0.0167 -0.2999  0.2612
 3850TIP3    H133185   5.675   3.461   2.590  1.3762 -0.1097 -0.8639
 3850TIP3    H233186   5.567   3.566   2.579 -0.1113 -1.5191 -0.1648
 3851TIP3   OH233187   4.401   0.552   7.856 -0.0027  0.2710  0.4218
 3851TIP3    H133188   4.467   0.575   7.790  0.6718 -1.3920  0.4787
 3851TIP3    H233189   4.319   0.546   7.806  0.3231 -0.0001 -0.0923
 3852TIP3   OH233190   4.963   0.869   0.712 -0.0132  0.8489  0.2566
 3852TIP3    H133191   4.926   0.781   0.701  0.0903  0.5867  1.7990
 3852TIP3    H233192   5.053   0.860   0.681  0.7089 -0.2261  2.4401
 3853TIP3   OH233193   5.584   1.009   1.612  0.1529 -0.0271 -0.6099
 3853TIP3    H133194   5.637   1.082   1.643  0.5075 -0.3500 -0.4468
 3853TIP3    H233195   5.494   1.038   1.623  0.2938  0.6131 -1.0981
 3854TIP3   OH233196   4.647   3.897   7.976  0.0678  0.0632  0.2198
 3854TIP3    H133197   4.682   3.848   7.901  2.9348  0.0253  1.4577
 3854TIP3    H233198   4.590   3.963   7.936  1.6497  0.1978 -2.0624
 3855TIP3   OH233199   5.398   0.793   6.551 -0.1709 -0.2019  0.3102
 3855TIP3    H133200   5.459   0.863   6.527  0.1585 -0.5804  0.0422
 3855TIP3    H233201   5.443   0.746   6.621 -0.5929  0.1360  0.8163
 3856TIP3   OH233202   3.449   3.311   2.384 -0.2319  0.3266 -0.2264
 3856TIP3    H133203   3.384   3.366   2.341 -1.4245 -1.6744 -1.1318
 3856TIP3    H233204   3.419   3.306   2.475 -0.4443  0.7009 -0.2723
 3857TIP3   OH233205   4.787   0.179   7.084 -0.2254  0.0656 -0.5450
 3857TIP3    H133206   4.779   0.100   7.137 -2.2429  0.3856 -0.2943
 3857TIP3    H233207   4.869   0.218   7.112  1.3263 -2.3864 -1.3333
 3858TIP3   OH233208   6.349   0.886   8.008  0.8502  0.4749  0.7154
 3858TIP3    H133209   6.298   0.813   7.973  1.6750  0.6087 -0.8936
 3858TIP3    H233210   6.291   0.929   8.070 -0.1965 -0.6381  0.5470
 3859TIP3   OH233211   5.664   2.806   7.956 -0.1667 -0.0621 -0.2432
 3859TIP3    H133212   5.711   2.889   7.951 -0.0184 -0.0753  0.7151
 3859TIP3    H233213   5.642   2.785   7.865 -0.3224  1.0871 -0.4871
 3860TIP3   OH233214   2.808   3.089   0.524  0.6502  0.1158 -0.4843
 3860TIP3    H133215   2.843   3.015   0.475 -0.7429 -1.5960  0.9593
 3860TIP3    H233216   2.729   3.115   0.477  0.5407 -0.0454 -0.3901
 3861TIP3   OH233217   6.100   1.609   1.948 -0.4482  0.4037 -0.2217
 3861TIP3    H133218   6.165   1.655   2.001  0.1376  0.4530 -0.9696
 3861TIP3    H233219   6.116   1.516   1.966  0.2040  0.3936 -0.8300
 3862TIP3   OH233220   5.840   2.731   6.668 -0.1074  0.1620 -0.0440
 3862TIP3    H133221   5.908   2.676   6.705  0.2998  1.3161  0.9909
 3862TIP3    H233222   5.872   2.751   6.579  0.3762 -0.1661  0.0506
 3863TIP3   OH233223   5.160   0.826   7.199 -0.3180 -0.3468 -0.2511
 3863TIP3    H133224   5.148   0.861   7.111  1.6707  2.0970  0.3456
 3863TIP3    H233225   5.251   0.798   7.201  0.5925  2.3688  1.8088
 3864TIP3   OH233226   1.377   3.422   0.299  0.1085 -0.0370  0.6146
 3864TIP3    H133227   1.387   3.507   0.256  2.1011  0.4383  1.8658
 3864TIP3    H233228   1.455   3.373   0.275  0.3078 -0.4791  2.0336
 3865TIP3   OH233229   4.759   4.905   8.158  0.7030 -0.2818 -0.0535
 3865TIP3    H133230   4.841   4.947   8.134  0.1151  1.1423  0.3516
 3865TIP3    H233231   4.748   4.926   8.251  0.2175 -1.0538  0.0713
 3866TIP3   OH233232   4.916   4.847   0.074  0.1200  0.3925 -0.3304
 3866TIP3    H133233   4.839   4.815   0.027  0.9824 -0.1668 -1.4093
 3866TIP3    H233234   4.893   4.837   0.167 -1.2628  0.6516 -0.6212
 3867TIP3   OH233235   6.840   2.598   1.283  0.4841 -0.0896 -0.4468
 3867TIP3    H133236   6.754   2.629   1.258  0.4663  0.5174  0.3336
 3867TIP3    H233237   6.891   2.599   1.202  0.0959  0.7038 -0.6913
 3868TIP3   OH233238   2.429   1.014   2.344 -0.0170 -0.0762 -0.0758
 3868TIP3    H133239   2.472   0.946   2.396  0.1440 -0.7321 -1.0539
 3868TIP3    H233240   2.435   1.093   2.399  1.5634 -0.3816  0.2311
 3869TIP3   OH233241   4.035   3.297   0.132  0.5894  0.2167 -0.4589
 3869TIP3    H133242   4.117   3.334   0.100  0.8419  0.0772  0.0164
 3869TIP3    H233243   4.055   3.205   0.148 -0.0995 -0.2013 -1.8681
 3870TIP3   OH233244   2.542   0.457   0.685  0.0184  0.2816 -0.4507
 3870TIP3    H133245   2.618   0.473   0.741  0.4017  0.4582 -1.0069
 3870TIP3    H233246   2.466   0.480   0.738  0.1935 -1.9040  0.8733
 3871TIP3   OH233247   2.382   5.330   8.177  0.3783 -0.0944 -0.0269
 3871TIP3    H133248   2.458   5.271   8.180  0.7761  0.3905 -0.4753
 3871TIP3    H233249   2.411   5.404   8.125  0.0170  0.7136  0.8911
 3872TIP3   OH233250   5.732   5.774   0.124  0.7953  0.4195 -0.1220
 3872TIP3    H133251   5.654   5.830   0.114  1.9360  2.4093  1.3563
 3872TIP3    H233252   5.697   5.687   0.141 -1.1300  1.3086  0.7747
 3873TIP3   OH233253   2.766   0.334   0.547  0.7738 -0.1109 -0.2708
 3873TIP3    H133254   2.688   0.327   0.602  0.6161 -0.3757 -0.5262
 3873TIP3    H233255   2.745   0.404   0.485  1.0469  0.3558  0.1568
 3874TIP3   OH233256   4.318   0.529   8.128  0.8193  0.2580 -0.0002
 3874TIP3    H133257   4.268   0.610   8.136  0.8862  0.4676 -1.4645
 3874TIP3    H233258   4.352   0.530   8.039  0.6980 -1.4484 -0.1135
 3875TIP3   OH233259   4.346   4.962   7.611 -0.0547 -0.4658  0.2831
 3875TIP3    H133260   4.367   5.029   7.676  1.1803 -1.2811  0.7693
 3875TIP3    H233261   4.301   5.009   7.541  0.0613  0.7169  0.9854
 3876TIP3   OH233262   0.316   3.299   1.557  0.2504  0.0705  0.4449
 3876TIP3    H133263   0.367   3.219   1.547 -0.4114 -0.1949 -1.3214
 3876TIP3    H233264   0.313   3.315   1.651 -1.6182 -3.3699  1.1432
 3877TIP3   OH233265   2.726   6.459   7.102 -0.4961 -0.2163 -0.1989
 3877TIP3    H133266   2.779   6.457   7.022 -1.9797 -2.1884 -1.1985
 3877TIP3    H233267   2.658   6.524   7.084 -2.0499 -2.1096 -1.4229
 3878TIP3   OH233268   1.620   3.130   7.168 -0.1444 -0.5162  0.1155
 3878TIP3    H133269   1.582   3.070   7.233 -0.4165 -0.3169  0.1434
 3878TIP3    H233270   1.549   3.146   7.107  0.1971 -0.9224 -0.3938
 3879TIP3   OH233271   1.033   0.332   0.830  0.1860 -0.7196  0.9236
 3879TIP3    H133272   1.056   0.350   0.739  1.0475  0.5233  1.3422
 3879TIP3    H233273   1.096   0.265   0.858  1.1635  0.2340  1.0998
 3880TIP3   OH233274   3.457   6.750   8.118  0.2065 -0.2320 -0.2990
 3880TIP3    H133275   3.514   6.701   8.176 -0.2503  0.7056  0.9832
 3880TIP3    H233276   3.368   6.727   8.146 -0.1143 -1.8284 -2.3933
 3881TIP3   OH233277   1.633   3.034   8.559 -0.0106 -0.1585 -0.7196
 3881TIP3    H133278   1.620   3.059   8.650  2.1933  1.1510 -0.6916
 3881TIP3    H233279   1.677   2.950   8.563 -1.2159 -0.8133 -0.6552
 3882TIP3   OH233280   3.695   6.547   6.993 -0.0258 -0.1131  0.6023
 3882TIP3    H133281   3.731   6.480   6.935  0.6481  0.3057  0.5323
 3882TIP3    H233282   3.709   6.629   6.947 -1.1305  0.0665  0.5450
 3883TIP3   OH233283   3.067   5.647   0.222  0.3095  0.5087 -0.4860
 3883TIP3    H133284   3.151   5.608   0.195  0.1697 -1.2980  1.4318
 3883TIP3    H233285   3.006   5.621   0.153  0.3681 -2.2994  0.4019
 3884TIP3   OH233286   1.141   4.535   0.085  0.3024 -0.4605 -0.1112
 3884TIP3    H133287   1.175   4.614   0.042  4.7714 -1.3408  1.2391
 3884TIP3    H233288   1.146   4.467   0.018  3.5908 -0.9953  0.4808
 3885TIP3   OH233289   2.149   5.178   8.111  0.8831  0.1518 -0.0385
 3885TIP3    H133290   2.093   5.255   8.105 -0.1569 -0.6736 -1.4200
 3885TIP3    H233291   2.231   5.211   8.148 -0.3907  1.4243  1.8273
 3886TIP3   OH233292   0.893   0.495   6.972 -0.1941 -0.5793  0.1893
 3886TIP3    H133293   0.833   0.547   6.919  0.3801  0.1253  0.2103
 3886TIP3    H233294   0.943   0.444   6.908 -0.2853 -0.5916  0.1272
 3887TIP3   OH233295   0.481   2.521   7.013  0.4644  0.6543 -0.1460
 3887TIP3    H133296   0.416   2.452   7.022  0.7160  0.3808 -0.3874
 3887TIP3    H233297   0.532   2.496   6.936  1.4295  0.3769  0.5536
 3888TIP3   OH233298   2.797   4.437   1.211  0.1869 -0.3737 -0.4273
 3888TIP3    H133299   2.776   4.480   1.295  1.8945  0.2074 -0.2642
 3888TIP3    H233300   2.762   4.348   1.221 -0.3491 -0.0742  0.5797
 3889TIP3   OH233301   0.973   0.113   1.410  0.2737 -0.8563  0.1207
 3889TIP3    H133302   1.004   0.188   1.459 -0.5514 -0.8618  0.6726
 3889TIP3    H233303   0.883   0.135   1.385 -0.0402 -1.7041  0.4293
 3890TIP3   OH233304   6.235   6.677   6.951 -0.3897 -0.6787  0.4854
 3890TIP3    H133305   6.244   6.594   6.904  0.0979 -1.8673  2.5341
 3890TIP3    H233306   6.147   6.673   6.988 -0.6389  0.0805 -0.0029
 3891TIP3   OH233307   4.521   1.696   0.489  0.2090  0.6724  0.4289
 3891TIP3    H133308   4.557   1.687   0.401 -0.3291 -2.6696  0.4319
 3891TIP3    H233309   4.575   1.639   0.543 -0.9866  0.7543  1.7568
 3892TIP3   OH233310   4.717   6.906   0.943  0.4217 -0.0544  0.1255
 3892TIP3    H133311   4.692   6.844   0.874  1.6368 -1.2699  0.7273
 3892TIP3    H233312   4.681   6.990   0.914 -0.7491 -0.9071 -1.0207
 3893TIP3   OH233313   1.714   5.541   7.066 -0.3639 -0.5370 -0.1725
 3893TIP3    H133314   1.752   5.606   7.007  1.8746 -0.5044  1.1998
 3893TIP3    H233315   1.708   5.461   7.013 -0.2815 -0.0090 -0.9953
 3894TIP3   OH233316   0.963   6.118   8.211  0.6160 -0.1037 -0.4728
 3894TIP3    H133317   0.947   6.208   8.185  0.8659 -0.0069 -0.2908
 3894TIP3    H233318   0.966   6.070   8.128  2.4254  0.3672 -0.7245
 3895TIP3   OH233319   1.295   4.843   0.096  0.1491 -0.1210 -0.0732
 3895TIP3    H133320   1.216   4.873   0.051 -0.2269 -0.0223  0.6428
 3895TIP3    H233321   1.269   4.836   0.188  1.7174  2.6144  0.6763
 3896TIP3   OH233322   0.862   5.249   0.531  0.3980  0.0283 -0.1546
 3896TIP3    H133323   0.897   5.338   0.536 -1.3086  0.6757  0.9704
 3896TIP3    H233324   0.780   5.258   0.483  1.1794 -1.3086 -1.8786
 3897TIP3   OH233325   3.502   5.978   1.553  0.5609 -0.5246  0.0558
 3897TIP3    H133326   3.561   6.008   1.622  1.9844 -1.9075 -0.4943
 3897TIP3    H233327   3.424   5.947   1.598  1.0659 -0.4829  0.9691
 3898TIP3   OH233328   5.295   5.297   2.447  0.7504 -0.1352 -0.0106
 3898TIP3    H133329   5.256   5.248   2.520  0.5446 -0.1165 -0.1086
 3898TIP3    H233330   5.306   5.386   2.482 -0.8165  0.2862 -0.5051
 3899TIP3   OH233331   1.717   4.047   2.449  0.8048 -0.2610  0.0068
 3899TIP3    H133332   1.768   4.112   2.401 -0.3429  1.6365  1.2405
 3899TIP3    H233333   1.629   4.085   2.454  0.0004 -2.0891  0.4806
 3900TIP3   OH233334   1.442   0.194   8.451 -0.0551 -0.8504  0.3831
 3900TIP3    H133335   1.369   0.247   8.483  0.5671  0.0131  0.4386
 3900TIP3    H233336   1.516   0.219   8.507  0.2466 -1.8379  0.4444
 3901TIP3   OH233337   4.662   3.976   8.237  0.3436 -0.8939  0.3436
 3901TIP3    H133338   4.635   3.935   8.154  0.5121 -0.5180  0.0984
 3901TIP3    H233339   4.580   3.993   8.283  0.2872 -1.7823  0.5863
 3902TIP3   OH233340   2.152   3.759   7.866  0.4421  0.4401 -0.1105
 3902TIP3    H133341   2.093   3.812   7.812  1.2355  0.3022 -1.1382
 3902TIP3    H233342   2.237   3.803   7.860  0.7278 -0.0213  0.3965
 3903TIP3   OH233343   0.621   0.675   1.638 -0.2848 -0.0421  0.2477
 3903TIP3    H133344   0.530   0.701   1.649 -1.4720 -1.4149 -4.2869
 3903TIP3    H233345   0.661   0.746   1.587  0.0541 -1.0748 -1.0011
 3904TIP3   OH233346   2.670   2.406   7.818 -0.1956  0.0942  0.2689
 3904TIP3    H133347   2.685   2.423   7.911  1.0403  0.0442  0.1025
 3904TIP3    H233348   2.728   2.332   7.798  0.5371  0.9318 -0.8207
 3905TIP3   OH233349   0.899   3.767   0.688  0.1917 -0.5201  0.3520
 3905TIP3    H133350   0.910   3.843   0.631 -1.9089  0.5132  1.2157
 3905TIP3    H233351   0.986   3.752   0.725  0.9816  0.4949 -1.0076
 3906TIP3   OH233352   6.918   6.088   7.495 -0.4637 -0.0597 -0.1100
 3906TIP3    H133353   6.899   6.004   7.537 -0.7634  0.3056  0.5045
 3906TIP3    H233354   7.005   6.112   7.526 -1.5017  1.2271  2.0789
 3907TIP3   OH233355   1.314   0.691   8.286 -0.8953  0.5852  0.2930
 3907TIP3    H133356   1.229   0.670   8.247  0.5249 -2.6664 -1.4650
 3907TIP3    H233357   1.338   0.612   8.334  3.1717 -0.8758 -3.4241
 3908TIP3   OH233358   1.288   6.869   8.366 -0.4186  0.2746  0.7313
 3908TIP3    H133359   1.248   6.897   8.283  1.2054 -1.4827 -0.7581
 3908TIP3    H233360   1.322   6.950   8.404  0.3308  0.9438 -1.2335
 3909TIP3   OH233361   4.188   6.567   1.338  0.2700 -0.6121  0.5373
 3909TIP3    H133362   4.236   6.487   1.318  0.4314 -0.3049 -0.3235
 3909TIP3    H233363   4.097   6.546   1.316  0.5702  0.0066 -1.4396
 3910TIP3   OH233364   3.759   4.278   8.456  0.2420  0.1610  0.6261
 3910TIP3    H133365   3.822   4.349   8.470  1.0930 -0.6268  0.9023
 3910TIP3    H233366   3.806   4.215   8.400 -0.4170 -0.2898  0.5739
 3911TIP3   OH233367   0.299   3.695   7.252  0.0456  0.2604  0.4911
 3911TIP3    H133368   0.230   3.630   7.263 -0.9033  1.4575  2.2476
 3911TIP3    H233369   0.288   3.727   7.163 -0.0292 -1.3198 -0.0947
 3912TIP3   OH233370   5.803   0.466   1.812  0.1588  0.2573  0.4357
 3912TIP3    H133371   5.744   0.465   1.888  2.2923 -0.2439  2.2024
 3912TIP3    H233372   5.835   0.556   1.808 -1.0707  0.6572 -0.8366
 3913TIP3   OH233373   4.949   0.599   1.473 -0.1152  0.0441 -0.3995
 3913TIP3    H133374   4.872   0.624   1.423  1.1196  1.0546 -1.8968
 3913TIP3    H233375   5.021   0.647   1.432  1.7510 -2.8091 -0.7225
 3914TIP3   OH233376   1.132   2.662   7.422  0.1685  0.4143 -0.4681
 3914TIP3    H133377   1.221   2.643   7.453  0.3394  0.7908 -0.7227
 3914TIP3    H233378   1.145   2.712   7.341 -0.2315 -1.7917 -1.9888
 3915TIP3   OH233379   0.592   2.472   6.773 -0.3788 -0.1998  0.1737
 3915TIP3    H133380   0.568   2.379   6.768 -1.8670  0.1331  0.6416
 3915TIP3    H233381   0.613   2.496   6.683 -2.4506 -0.3997 -0.4124
 3916TIP3   OH233382   6.800   4.404   7.418 -0.1587 -0.3066  0.2015
 3916TIP3    H133383   6.762   4.393   7.506 -0.2388 -2.3567 -0.0307
 3916TIP3    H233384   6.894   4.389   7.431  0.2803  2.1748  0.3444
 3917TIP3   OH233385   4.011   0.749   0.668 -0.0055  0.1214 -0.0461
 3917TIP3    H133386   3.916   0.742   0.663 -0.0039  0.3296 -0.3902
 3917TIP3    H233387   4.043   0.709   0.587  0.3304 -2.3109  1.2004
 3918TIP3   OH233388   6.615   4.252   2.008 -0.3516  0.2722  0.4656
 3918TIP3    H133389   6.575   4.170   2.035 -1.5691  0.6061 -0.2052
 3918TIP3    H233390   6.640   4.295   2.090 -1.9735  0.3132  0.9806
 3919TIP3   OH233391   0.681   1.044   1.778  0.5320 -0.6828  0.2159
 3919TIP3    H133392   0.665   1.019   1.686  3.8322 -0.5264 -0.5069
 3919TIP3    H233393   0.737   0.974   1.812 -0.3860 -0.5591  2.0611
 3920TIP3   OH233394   2.140   3.173   7.918 -0.3751 -0.4187 -0.0873
 3920TIP3    H133395   2.121   3.191   8.010  0.4586 -1.6780  0.3597
 3920TIP3    H233396   2.135   3.078   7.910 -0.4550 -0.3263 -1.3529
 3921TIP3   OH233397   6.449   3.349   0.551 -0.0282 -0.0612 -0.1753
 3921TIP3    H133398   6.524   3.406   0.535  0.4956 -0.4628  0.7815
 3921TIP3    H233399   6.475   3.295   0.626 -0.2475 -2.0247 -1.4472
 3922TIP3   OH233400   1.891   0.709   7.924  0.0943  0.3844 -0.1166
 3922TIP3    H133401   1.823   0.772   7.947 -0.4090  0.3412 -1.4012
 3922TIP3    H233402   1.842   0.633   7.891  0.7575  0.2837 -0.8837
 3923TIP3   OH233403   5.396   0.435   0.938 -0.3806  0.1473  0.5401
 3923TIP3    H133404   5.490   0.438   0.956 -0.6287  0.4969  1.9360
 3923TIP3    H233405   5.382   0.499   0.869  0.5961 -0.9810 -0.7803
 3924TIP3   OH233406   2.765   4.317   0.215 -0.3356 -0.1299 -0.0409
 3924TIP3    H133407   2.849   4.301   0.258  0.3673  0.6226 -1.1206
 3924TIP3    H233408   2.757   4.247   0.150 -0.3937  0.0031 -0.1761
 3925TIP3   OH233409   5.342   6.658   0.088  0.4600  0.9185  0.4294
 3925TIP3    H133410   5.428   6.666   0.047  0.2997  0.0426 -0.0984
 3925TIP3    H233411   5.283   6.636   0.016 -0.3067  1.9605  0.7058
 3926TIP3   OH233412   1.515   6.904   5.946  0.4894 -0.3699  0.2284
 3926TIP3    H133413   1.582   6.838   5.962  1.7527  0.5320 -1.1246
 3926TIP3    H233414   1.547   6.983   5.990  1.0024  0.4215 -1.4657
 3927TIP3   OH233415   2.614   2.118   6.762  0.4121 -0.2331 -0.7074
 3927TIP3    H133416   2.533   2.067   6.763  1.3741 -1.9680  2.5043
 3927TIP3    H233417   2.623   2.148   6.671 -3.0285 -1.1661 -1.4937
 3928TIP3   OH233418   5.845   0.925   3.008 -0.3673  0.0878 -0.2069
 3928TIP3    H133419   5.837   0.848   3.063 -2.6768 -0.0293 -0.6088
 3928TIP3    H233420   5.936   0.924   2.977 -0.2254 -2.1827  0.1760
 3929TIP3   OH233421   3.462   1.632   7.049  0.4107 -0.1321  0.1387
 3929TIP3    H133422   3.425   1.615   6.963  1.7436  0.6810 -0.6123
 3929TIP3    H233423   3.386   1.654   7.104 -0.5465 -1.4668 -0.5825
 3930TIP3   OH233424   5.747   6.478   7.964  0.4083  0.0897  0.4256
 3930TIP3    H133425   5.729   6.468   7.870 -0.2274 -1.4628  0.6824
 3930TIP3    H233426   5.705   6.561   7.987  1.4734  1.0419 -0.8485
 3931TIP3   OH233427   5.890   4.132   1.277 -0.8471  0.3214 -0.2325
 3931TIP3    H133428   5.840   4.170   1.349  0.5559  1.0496  0.4061
 3931TIP3    H233429   5.886   4.198   1.208 -3.5521 -1.0472 -1.5336
 3932TIP3   OH233430   1.222   3.096   0.544 -0.0530  0.8821  0.3319
 3932TIP3    H133431   1.171   3.170   0.510  1.7259  1.6026 -0.9290
 3932TIP3    H233432   1.163   3.052   0.605 -2.0994  1.7719 -0.9043
 3933TIP3   OH233433   6.694   5.731   7.887  0.1455 -0.6458  0.1997
 3933TIP3    H133434   6.664   5.721   7.797 -0.3074  1.0115  0.1418
 3933TIP3    H233435   6.621   5.773   7.932  0.7247 -0.6016  1.1253
 3934TIP3   OH233436   0.881   2.146   6.881 -0.1592  0.5064 -0.1786
 3934TIP3    H133437   0.892   2.152   6.786 -0.4431 -1.7233 -0.4050
 3934TIP3    H233438   0.849   2.057   6.896  1.0744  0.3701  2.1200
 3935TIP3   OH233439   6.483   6.836   0.989  0.1275  0.2578  0.2742
 3935TIP3    H133440   6.408   6.865   0.938 -0.2244 -2.5918 -1.0765
 3935TIP3    H233441   6.445   6.799   1.069 -0.1752 -2.1912 -0.8865
 3936TIP3   OH233442   6.538   0.297   1.808  0.3103  0.0933  0.1723
 3936TIP3    H133443   6.512   0.305   1.900  1.5708  0.4634  0.5187
 3936TIP3    H233444   6.455   0.296   1.760 -0.4068 -0.9850  1.3619
 3937TIP3   OH233445   5.953   5.304   0.740 -0.0119 -0.1489  0.7841
 3937TIP3    H133446   6.000   5.264   0.813  2.3777  0.4330 -0.3514
 3937TIP3    H233447   5.900   5.372   0.780  0.9463 -0.0999  2.0285
 3938TIP3   OH233448   5.232   2.858   0.318  0.4265 -0.3453  0.1933
 3938TIP3    H133449   5.249   2.788   0.381 -1.0911 -0.1861  0.8193
 3938TIP3    H233450   5.138   2.875   0.326  0.3377  0.2241 -1.5505
 3939TIP3   OH233451   1.660   4.438   0.320 -0.1163 -0.2479 -0.0944
 3939TIP3    H133452   1.630   4.379   0.390  0.0507 -0.3365 -0.0970
 3939TIP3    H233453   1.744   4.401   0.292  0.4865  0.5655  0.5960
 3940TIP3   OH233454   1.555   1.059   0.556 -0.5384 -0.0580 -0.3057
 3940TIP3    H133455   1.484   1.115   0.586  0.1463  1.5289 -1.5435
 3940TIP3    H233456   1.514   0.999   0.494 -0.9631  0.1635 -0.2414
 3941TIP3   OH233457   6.134   0.638   2.874  0.2217  0.3095  0.6260
 3941TIP3    H133458   6.209   0.580   2.867  0.3087  0.4936  0.0336
 3941TIP3    H233459   6.083   0.622   2.794  0.1799  0.9539  0.5197
 3942TIP3   OH233460   6.551   2.245   7.158 -0.2561 -0.3061  0.3746
 3942TIP3    H133461   6.637   2.282   7.137 -0.3775 -0.3844 -0.2863
 3942TIP3    H233462   6.568   2.152   7.171 -0.3761 -0.4915 -0.6892
 3943TIP3   OH233463   5.188   4.624   7.120 -0.1300 -0.3333 -0.0139
 3943TIP3    H133464   5.183   4.674   7.039  2.5203  0.3421  0.1198
 3943TIP3    H233465   5.183   4.690   7.190  0.4087 -0.5697  0.2593
 3944TIP3   OH233466   5.356   3.490   8.465 -0.2896  0.4030  0.1182
 3944TIP3    H133467   5.386   3.477   8.555 -0.8161  0.5851  0.3218
 3944TIP3    H233468   5.301   3.568   8.469  1.5566  1.8237 -0.7868
 3945TIP3   OH233469   5.513   0.551   8.474  0.0002  0.5239 -0.2385
 3945TIP3    H133470   5.563   0.567   8.393  0.5595  0.5407  0.1044
 3945TIP3    H233471   5.574   0.502   8.529 -1.2086 -1.7381 -0.7810
 3946TIP3   OH233472   5.768   0.942   7.650  0.4106 -0.2603  0.6863
 3946TIP3    H133473   5.805   0.855   7.663  0.2317 -0.2365  1.4146
 3946TIP3    H233474   5.843   1.001   7.644  0.5016 -0.2409  1.9275
 3947TIP3   OH233475   2.469   1.830   6.731  0.9866 -0.3371 -0.0954
 3947TIP3    H133476   2.522   1.803   6.806  2.4661 -0.8320 -1.2520
 3947TIP3    H233477   2.513   1.791   6.655  0.7112  1.7705 -1.4408
 3948TIP3   OH233478   0.547   0.949   1.990  0.4804 -0.0725  0.5849
 3948TIP3    H133479   0.551   1.030   2.041  1.3748  0.7956 -0.7801
 3948TIP3    H233480   0.583   0.973   1.904  0.6993 -1.9032  0.1116
 3949TIP3   OH233481   0.923   6.486   1.343 -0.0960  0.1159 -0.0444
 3949TIP3    H133482   0.892   6.534   1.420 -1.2669 -0.8815  0.1369
 3949TIP3    H233483   0.892   6.397   1.356  1.5348 -0.5747 -0.6633
 3950TIP3   OH233484   3.937   2.963   2.320 -0.0986 -0.4333  0.0906
 3950TIP3    H133485   3.989   2.974   2.400 -0.2440  2.3665 -0.1083
 3950TIP3    H233486   3.849   2.990   2.346 -0.2138  0.1877 -0.9340
 3951TIP3   OH233487   4.404   2.163   1.862 -0.5676  0.1466 -0.1745
 3951TIP3    H133488   4.486   2.212   1.873  0.6431 -1.6221 -0.9258
 3951TIP3    H233489   4.396   2.112   1.943 -1.0062  0.3913 -0.0580
 3952TIP3   OH233490   0.244   0.855   8.485 -0.0761  0.6647 -0.4657
 3952TIP3    H133491   0.271   0.928   8.540  0.5978  0.3793 -0.3978
 3952TIP3    H233492   0.182   0.806   8.538  0.2521  0.6237 -0.1121
 3953TIP3   OH233493   5.312   4.451   1.045 -0.0793 -0.0071 -0.3936
 3953TIP3    H133494   5.345   4.499   0.969  0.4059  2.7618  1.4049
 3953TIP3    H233495   5.379   4.385   1.062  1.2688  1.2069 -0.7378
 3954TIP3   OH233496   5.765   1.970   6.774  0.3991  0.2668  0.6827
 3954TIP3    H133497   5.819   2.047   6.755  1.4948 -0.5237  0.4471
 3954TIP3    H233498   5.821   1.914   6.828  0.5572 -1.4059 -1.0769
 3955TIP3   OH233499   2.295   1.774   8.470 -0.2792 -0.0364 -0.5767
 3955TIP3    H133500   2.352   1.704   8.500 -0.1179  0.2811 -0.1276
 3955TIP3    H233501   2.354   1.848   8.453 -0.7164  0.9612  1.8299
 3956TIP3   OH233502   5.819   5.984   0.607 -0.3146 -0.2374  0.1446
 3956TIP3    H133503   5.867   5.951   0.531  0.0163  1.4159 -0.3882
 3956TIP3    H233504   5.825   5.913   0.672  0.3405 -1.2205 -0.9535
 3957TIP3   OH233505   5.440   5.894   1.832 -0.0847 -0.0662 -0.1194
 3957TIP3    H133506   5.471   5.804   1.842 -0.1280 -0.0687 -0.0012
 3957TIP3    H233507   5.345   5.886   1.830 -0.0558 -0.2096 -1.9952
 3958TIP3   OH233508   4.928   6.540   1.927 -0.8328  0.2702 -0.1743
 3958TIP3    H133509   4.939   6.469   1.991 -1.7665  1.9110  1.8974
 3958TIP3    H233510   4.838   6.531   1.896 -0.9423  0.5278  0.0684
 3959TIP3   OH233511   2.786   2.630   1.354  0.6466  0.5991  0.0599
 3959TIP3    H133512   2.756   2.714   1.390 -2.3582 -1.1612  2.1358
 3959TIP3    H233513   2.721   2.608   1.287  1.2348 -0.2308 -0.2525
 3960TIP3   OH233514   0.820   6.916   8.370 -0.3579 -0.0671  0.1200
 3960TIP3    H133515   0.889   6.980   8.352  0.8417 -1.1645  0.6162
 3960TIP3    H233516   0.790   6.888   8.284 -0.2300  0.4795 -0.1048
 3961TIP3   OH233517   5.121   6.136   1.901 -0.5548  0.1083 -0.2387
 3961TIP3    H133518   5.038   6.184   1.900 -0.2020  0.7513  0.4815
 3961TIP3    H233519   5.188   6.203   1.890 -0.0774 -0.2886  0.1984
 3962TIP3   OH233520   6.644   5.399   1.862 -0.2377 -0.4018 -0.8330
 3962TIP3    H133521   6.678   5.425   1.777 -0.4616 -0.6802 -1.0131
 3962TIP3    H233522   6.708   5.431   1.925 -0.8575  1.2158 -0.9744
 3963TIP3   OH233523   6.057   5.162   1.707  0.2623  0.2976  0.3317
 3963TIP3    H133524   5.971   5.129   1.733  0.3228 -0.0746  0.0676
 3963TIP3    H233525   6.120   5.100   1.746  0.3618 -0.1089 -0.4644
 3964TIP3   OH233526   5.909   0.679   2.335  0.6747  0.2611  0.3856
 3964TIP3    H133527   5.892   0.589   2.365 -1.4875 -0.1490 -1.7775
 3964TIP3    H233528   5.994   0.675   2.292  0.3225 -0.9309 -0.2417
 3965TIP3   OH233529   0.617   4.068   8.480  0.5839  0.0828  0.0514
 3965TIP3    H133530   0.585   4.079   8.390  0.1264 -1.0971  0.0446
 3965TIP3    H233531   0.591   3.978   8.503  1.1497  0.1968  1.1789
 3966TIP3   OH233532   0.166   3.331   6.670 -0.0556  0.0082  0.1907
 3966TIP3    H133533   0.229   3.282   6.616 -1.4296 -0.6653 -0.8710
 3966TIP3    H233534   0.216   3.404   6.705  1.3722 -0.6313 -0.4345
 3967TIP3   OH233535   1.102   5.120   0.460 -0.3041 -0.2663  0.0023
 3967TIP3    H133536   1.082   5.056   0.391  1.0722 -0.5293 -0.1738
 3967TIP3    H233537   1.016   5.154   0.486 -0.8854 -0.5260 -1.4813
 3968TIP3   OH233538   0.519   4.855   0.213 -0.1836  0.0051  0.0483
 3968TIP3    H133539   0.435   4.865   0.168 -0.5347 -0.5884  0.5699
 3968TIP3    H233540   0.538   4.942   0.248 -0.3988  0.2265 -0.3738
 3969TIP3   OH233541   4.302   0.377   1.672 -0.7137 -0.1871 -0.0316
 3969TIP3    H133542   4.329   0.435   1.601 -0.9521  1.3744  1.1007
 3969TIP3    H233543   4.214   0.347   1.647  0.0347 -1.4068 -1.3871
 3970TIP3   OH233544   3.568   0.283   1.006 -0.7132  0.4270  0.1738
 3970TIP3    H133545   3.647   0.263   0.956  0.3002 -1.3071  2.3293
 3970TIP3    H233546   3.496   0.254   0.949  0.2835  0.0783 -0.9451
 3971TIP3   OH233547   6.741   5.537   8.275 -0.3311 -0.3784 -0.2200
 3971TIP3    H133548   6.705   5.449   8.263 -0.2144 -0.6534  1.3115
 3971TIP3    H233549   6.788   5.554   8.193 -2.4917 -0.6776 -1.6076
 3972TIP3   OH233550   2.317   0.698   1.340 -0.0912  0.4339  0.1196
 3972TIP3    H133551   2.260   0.668   1.410  1.2562 -2.6380  0.1016
 3972TIP3    H233552   2.258   0.720   1.268 -1.3717 -1.8842  0.3545
 3973TIP3   OH233553   3.377   2.793   2.133  0.3033 -0.6889 -0.3256
 3973TIP3    H133554   3.319   2.735   2.183  3.0349 -1.2362  2.5590
 3973TIP3    H233555   3.389   2.869   2.189  0.2293  0.6791 -2.0966
 3974TIP3   OH233556   6.353   6.174   6.941 -0.2413  0.0323 -0.0087
 3974TIP3    H133557   6.262   6.191   6.918 -1.0145 -2.7818  0.5685
 3974TIP3    H233558   6.397   6.160   6.858 -0.3602  1.1293 -0.2744
 3975TIP3   OH233559   3.059   3.666   2.183  0.0426  0.0701 -0.5632
 3975TIP3    H133560   2.973   3.647   2.222  1.2619  0.1452  2.3914
 3975TIP3    H233561   3.072   3.595   2.120 -1.7293 -0.5341 -0.3240
 3976TIP3   OH233562   0.426   1.907   7.133  0.0047  0.3181 -0.0164
 3976TIP3    H133563   0.478   1.875   7.060 -0.3339 -0.1857 -0.0380
 3976TIP3    H233564   0.439   1.843   7.203  1.2009  1.3521  0.7646
 3977TIP3   OH233565   2.300   6.043   0.333  0.4614  0.4255 -0.2496
 3977TIP3    H133566   2.348   6.021   0.413  0.2892 -2.4111 -0.8247
 3977TIP3    H233567   2.208   6.038   0.358  0.3292 -2.5262 -0.9623
 3978TIP3   OH233568   2.325   1.802   1.332  0.4332 -0.2727 -0.2509
 3978TIP3    H133569   2.366   1.719   1.355  2.0395  0.6946  0.5264
 3978TIP3    H233570   2.398   1.859   1.308 -0.6460  0.9009 -0.8438
 3979TIP3   OH233571   5.987   4.829   8.550 -0.1110 -0.1876  0.3456
 3979TIP3    H133572   6.065   4.877   8.520 -1.2131  1.0825 -0.5969
 3979TIP3    H233573   6.004   4.738   8.525  0.4574  0.3124 -1.2054
 3980TIP3   OH233574   5.038   3.375   8.402  0.0483  0.1755  0.6120
 3980TIP3    H133575   5.030   3.280   8.395  0.0727  0.2450 -0.5915
 3980TIP3    H233576   5.125   3.394   8.366 -1.2598  0.9275 -2.4702
 3981TIP3   OH233577   0.205   1.893   1.097  0.4828  0.4676 -0.2181
 3981TIP3    H133578   0.135   1.851   1.046  0.2115  0.7007 -0.0455
 3981TIP3    H233579   0.264   1.929   1.032  1.9911 -2.1426 -0.4474
 3982TIP3   OH233580   1.965   6.884   0.743  0.0926  0.6913  0.4440
 3982TIP3    H133581   2.042   6.889   0.687  0.7352  0.2351  1.2639
 3982TIP3    H233582   1.980   6.950   0.810 -0.1676  0.5146  0.6788
 3983TIP3   OH233583   4.188   4.807   7.134 -0.2877  0.1502  0.3052
 3983TIP3    H133584   4.199   4.818   7.040  1.9186  0.4067  0.5372
 3983TIP3    H233585   4.270   4.768   7.163 -0.4619  1.1378  2.2935
 3984TIP3   OH233586   1.163   6.144   1.125  0.1059  0.3970  0.0277
 3984TIP3    H133587   1.084   6.129   1.073 -0.3637 -0.9429  1.0677
 3984TIP3    H233588   1.153   6.233   1.158 -1.9974 -0.4120  1.7698
 3985TIP3   OH233589   2.800   4.750   1.917  0.0580 -0.2797 -0.3141
 3985TIP3    H133590   2.795   4.805   1.996  1.5687  0.3432 -0.6273
 3985TIP3    H233591   2.771   4.663   1.947  2.3794 -0.5553  1.4475
 3986TIP3   OH233592   3.843   6.645   8.081 -0.3210 -0.3448 -0.9891
 3986TIP3    H133593   3.827   6.717   8.142 -1.0659 -1.3501  0.0464
 3986TIP3    H233594   3.803   6.673   7.999 -0.2741  0.5626 -0.7094
 3987TIP3   OH233595   3.810   0.762   7.437 -0.3748  0.0968  0.0359
 3987TIP3    H133596   3.850   0.761   7.350  1.1978 -1.2124  0.7162
 3987TIP3    H233597   3.872   0.810   7.491 -1.2203  0.6786  0.5103
 3988TIP3   OH233598   3.882   0.509   6.169 -0.8162 -0.1018 -0.5886
 3988TIP3    H133599   3.943   0.513   6.242  0.1289 -0.6853 -1.3245
 3988TIP3    H233600   3.812   0.452   6.199 -1.2559  0.9313  0.4292
 3989TIP3   OH233601   6.813   5.230   0.742 -0.8020  0.4285  0.5606
 3989TIP3    H133602   6.730   5.200   0.705 -0.8687  1.3397 -0.0681
 3989TIP3    H233603   6.865   5.256   0.666  0.1697 -0.3652  0.9267
 3990TIP3   OH233604   4.466   3.361   6.464 -0.1467 -0.4207 -0.0859
 3990TIP3    H133605   4.374   3.369   6.487 -0.6749 -3.1293 -0.9495
 3990TIP3    H233606   4.512   3.406   6.535 -2.0946  0.2553  0.8032
 3991TIP3   OH233607   1.156   3.343   0.423  0.1151 -0.4669 -0.2532
 3991TIP3    H133608   1.239   3.372   0.386  0.9650 -2.0342  0.3199
 3991TIP3    H233609   1.111   3.423   0.447  0.9849  0.4572 -1.5736
 3992TIP3   OH233610   6.639   6.210   1.049 -0.1850 -0.0332  0.3084
 3992TIP3    H133611   6.680   6.145   1.107  0.2949 -0.2110 -0.2246
 3992TIP3    H233612   6.628   6.287   1.105  0.6471 -0.0678  0.5269
 3993TIP3   OH233613   1.484   6.844   7.679  0.3066  0.2751  0.0285
 3993TIP3    H133614   1.420   6.903   7.719  0.3301  1.6346 -1.7956
 3993TIP3    H233615   1.432   6.787   7.622  0.5558  0.3967 -0.3246
 3994TIP3   OH233616   5.799   0.788   7.335 -0.2600 -0.0069 -0.6600
 3994TIP3    H133617   5.853   0.868   7.334  0.0218 -0.1925 -0.2877
 3994TIP3    H233618   5.852   0.724   7.382  0.2522 -0.9368 -2.4151
 3995TIP3   OH233619   4.898   4.914   6.867  0.2374  0.2563  0.6990
 3995TIP3    H133620   4.951   4.843   6.832 -1.7657 -0.7569 -0.4760
 3995TIP3    H233621   4.880   4.970   6.792 -0.6529  0.3801  0.9926
 3996TIP3   OH233622   5.797   5.324   0.198  0.3621  0.7181  0.1377
 3996TIP3    H133623   5.888   5.312   0.225  0.2489  0.6355  0.4919
 3996TIP3    H233624   5.797   5.309   0.103  0.6884  0.5613  0.1629
 3997TIP3   OH233625   0.166   4.280   0.559  0.3666 -0.0289  0.2498
 3997TIP3    H133626   0.187   4.348   0.494  0.4221 -1.1313 -0.9114
 3997TIP3    H233627   0.251   4.253   0.594  0.7444 -2.0502 -1.9613
 3998TIP3   OH233628   0.763   5.899   1.787  0.2517  0.0243  0.3627
 3998TIP3    H133629   0.801   5.827   1.838  0.8909 -0.4807 -0.7641
 3998TIP3    H233630   0.688   5.859   1.742 -1.9386  1.0924  2.8169
 3999TIP3   OH233631   5.863   4.333   1.032 -0.6108  0.1314 -0.1054
 3999TIP3    H133632   5.950   4.334   0.993 -0.1447  1.1007  0.8801
 3999TIP3    H233633   5.807   4.379   0.969  0.4620  3.1558  0.9816
 4000TIP3   OH233634   6.128   3.433   1.758 -0.3015 -0.3408  0.5511
 4000TIP3    H133635   6.193   3.449   1.691  0.6565 -0.7635  1.3459
 4000TIP3    H233636   6.088   3.518   1.774 -0.2920 -0.1724 -0.2887
 4001TIP3   OH233637   1.345   5.950   7.970  0.4803 -0.5248  0.5179
 4001TIP3    H133638   1.352   5.914   7.882 -0.1695  0.1220  0.1990
 4001TIP3    H233639   1.433   5.939   8.007  0.2627 -2.7357  0.5618
 4002TIP3   OH233640   3.645   6.302   7.900 -0.1820  0.6825 -0.3991
 4002TIP3    H133641   3.728   6.256   7.881 -0.7244 -0.6416  0.2892
 4002TIP3    H233642   3.651   6.383   7.850  2.0787  1.2234  0.6381
 4003TIP3   OH233643   4.843   3.787   1.072 -0.6603  0.9602  0.1435
 4003TIP3    H133644   4.749   3.768   1.070 -0.1833 -2.0135  0.4091
 4003TIP3    H233645   4.861   3.810   1.163 -1.1912  2.1376 -0.0329
 4004TIP3   OH233646   1.071   4.709   0.815 -0.1670 -0.4282  0.1544
 4004TIP3    H133647   1.146   4.650   0.822  1.4811  1.1886 -2.1955
 4004TIP3    H233648   1.042   4.701   0.724 -1.2544  0.8306  0.3583
 4005TIP3   OH233649   1.412   0.769   6.993  0.1911 -0.6763 -0.6681
 4005TIP3    H133650   1.402   0.836   6.926  3.2670  0.6962  0.0838
 4005TIP3    H233651   1.440   0.691   6.946  1.0648 -0.0941 -1.1412
 4006TIP3   OH233652   1.017   3.072   7.351  0.3893  0.2211  0.2634
 4006TIP3    H133653   1.097   3.037   7.312  0.2157 -1.0095  0.9264
 4006TIP3    H233654   0.958   2.997   7.353 -0.3500  0.8089  0.8828
 4007TIP3   OH233655   1.385   3.577   1.305 -0.1092  0.1003  0.0705
 4007TIP3    H133656   1.363   3.485   1.295 -1.3860  0.5516 -1.7130
 4007TIP3    H233657   1.442   3.597   1.230 -0.8145  1.0256 -0.2382
 4008TIP3   OH233658   4.737   4.158   1.187  0.1540 -0.1037  0.4271
 4008TIP3    H133659   4.693   4.074   1.177 -1.4916  0.8088 -0.4093
 4008TIP3    H233660   4.728   4.179   1.280 -2.3517  0.6079  0.0975
 4009TIP3   OH233661   6.386   6.340   2.409 -0.2758  0.1657 -0.0913
 4009TIP3    H133662   6.447   6.405   2.372 -1.1989  1.3049  0.3454
 4009TIP3    H233663   6.398   6.263   2.354  1.5775  0.3417 -0.0082
 4010TIP3   OH233664   5.114   1.452   1.021  0.0017 -0.4496 -0.0176
 4010TIP3    H133665   5.082   1.385   0.960 -0.1124 -0.7776  0.3943
 4010TIP3    H233666   5.063   1.438   1.101 -1.1460  1.1554 -0.4399
 4011TIP3   OH233667   3.003   5.854   8.512 -0.0668 -0.4561 -0.1879
 4011TIP3    H133668   2.944   5.807   8.571  0.1530 -0.5967 -0.0792
 4011TIP3    H233669   2.961   5.846   8.426 -1.0619  0.8625  0.1445
 4012TIP3   OH233670   5.677   2.441   1.458  0.4643 -0.1693  0.2186
 4012TIP3    H133671   5.662   2.535   1.457 -0.4162 -0.2941  0.5511
 4012TIP3    H233672   5.770   2.431   1.439  0.4406  0.7398 -0.4388
 4013TIP3   OH233673   3.880   3.930   7.957  0.6127 -0.1499 -0.4043
 4013TIP3    H133674   3.952   3.970   7.907 -0.4713  0.7908 -1.2522
 4013TIP3    H233675   3.865   3.847   7.912  0.0758  0.4015 -1.2744
 4014TIP3   OH233676   1.712   3.980   7.548 -0.3725 -0.2872 -0.1689
 4014TIP3    H133677   1.641   4.013   7.493  0.5223  0.5233 -0.8698
 4014TIP3    H233678   1.760   3.919   7.493 -0.0132 -0.1682  0.0038
 4015TIP3   OH233679   2.933   1.333   0.398  0.5135  0.1208  0.1726
 4015TIP3    H133680   2.960   1.425   0.392 -1.5264  0.8916  1.8021
 4015TIP3    H233681   3.002   1.291   0.449  1.4782  0.7169 -0.6031
 4016TIP3   OH233682   3.115   0.043   8.010  0.1908 -0.0631  0.9930
 4016TIP3    H133683   3.165   0.125   8.004  0.4448 -0.3242 -0.7838
 4016TIP3    H233684   3.066   0.039   7.928 -0.2189 -1.4539  1.2875
 4017TIP3   OH233685   2.085   1.401   7.653  0.1163 -0.0216 -0.6116
 4017TIP3    H133686   2.080   1.410   7.558 -1.2910 -1.1556 -0.6753
 4017TIP3    H233687   2.155   1.338   7.668 -1.1904 -1.6567 -1.0650
 4018TIP3   OH233688   6.491   4.229   6.825 -0.0972 -0.7735  0.2462
 4018TIP3    H133689   6.418   4.210   6.766  0.9471 -0.7532 -1.0928
 4018TIP3    H233690   6.516   4.143   6.860 -1.3800 -0.6675  1.5159
 4019TIP3   OH233691   6.403   4.257   2.276 -0.7474 -0.3209 -0.2814
 4019TIP3    H133692   6.321   4.255   2.225 -0.7790 -1.4596 -0.1972
 4019TIP3    H233693   6.386   4.201   2.351 -0.3184  0.4767  0.4207
 4020TIP3   OH233694   4.581   4.974   7.285  0.2828 -0.7394  0.1835
 4020TIP3    H133695   4.564   5.064   7.312  2.4554 -0.7563  1.9165
 4020TIP3    H233696   4.649   4.981   7.219  1.0699 -1.1203  0.9355
 4021TIP3   OH233697   3.126   5.782   0.722  0.3089  0.0166 -0.4948
 4021TIP3    H133698   3.210   5.755   0.758  0.1048  1.0156  0.7806
 4021TIP3    H233699   3.116   5.874   0.748 -0.3498  0.4826 -2.1985
 4022TIP3   OH233700   2.732   1.944   7.246 -0.2373 -0.7366 -0.6873
 4022TIP3    H133701   2.737   1.849   7.247 -0.6063 -0.7551 -0.3393
 4022TIP3    H233702   2.761   1.969   7.158  2.5775 -1.0067  0.0623
 4023TIP3   OH233703   0.805   6.182   7.780  0.2673 -0.0997 -0.3107
 4023TIP3    H133704   0.756   6.105   7.807  2.0073 -0.4549  2.2023
 4023TIP3    H233705   0.738   6.245   7.752 -1.3067 -1.8143 -0.5325
 4024TIP3   OH233706   5.893   5.875   1.374 -0.0584 -0.0614 -0.4090
 4024TIP3    H133707   5.933   5.790   1.359  1.4568  0.6735 -0.7304
 4024TIP3    H233708   5.799   5.858   1.376  0.1875 -1.6115 -1.2216
 4025TIP3   OH233709   3.774   0.448   1.688 -0.0860  0.2397 -0.2159
 4025TIP3    H133710   3.699   0.488   1.643 -0.6341  1.0264  1.3268
 4025TIP3    H233711   3.809   0.518   1.744  0.1254 -0.8844  1.1137
 4026TIP3   OH233712   4.924   1.516   0.003  0.5995  0.2421  0.2882
 4026TIP3    H133713   4.910   1.606   0.033  0.3986  0.4165 -0.3044
 4026TIP3    H233714   4.959   1.525  -0.086 -1.2801 -0.2473 -0.5743
 4027TIP3   OH233715   6.919   2.339   7.731 -0.3748  0.5588 -0.1704
 4027TIP3    H133716   6.923   2.308   7.822  0.0800 -0.6286 -0.5783
 4027TIP3    H233717   6.908   2.434   7.739  2.1326  0.8372  1.1611
 4028TIP3   OH233718   6.168   4.125   7.014  0.0402  0.2432 -0.3182
 4028TIP3    H133719   6.167   4.141   6.919  1.1460  1.1896 -0.1797
 4028TIP3    H233720   6.153   4.030   7.022 -1.4081  0.3472 -1.3658
 4029TIP3   OH233721   6.700   5.833   1.569  0.2092  0.2368 -0.4863
 4029TIP3    H133722   6.624   5.801   1.521 -0.7694 -0.3176  1.3374
 4029TIP3    H233723   6.770   5.770   1.548 -0.1248  0.1369 -1.3240
 4030TIP3   OH233724   0.894   3.533   7.238  0.7942 -0.7674  0.4590
 4030TIP3    H133725   0.924   3.618   7.207 -0.4988 -1.1876 -2.2129
 4030TIP3    H233726   0.945   3.469   7.189 -1.0529 -1.4799 -0.6327
 4031TIP3   OH233727   2.571   1.898   1.299 -0.3609 -0.5033  0.2720
 4031TIP3    H133728   2.562   1.993   1.289  1.0768 -0.3240  0.4730
 4031TIP3    H233729   2.665   1.884   1.312 -0.3264 -2.0992 -1.2597
 4032TIP3   OH233730   5.652   6.183   0.878  0.3200 -0.2980  0.7142
 4032TIP3    H133731   5.665   6.175   0.972 -1.5543 -1.5640  0.9363
 4032TIP3    H233732   5.694   6.106   0.840  3.0360  1.3111  0.1912
 4033TIP3   OH233733   4.770   4.687   7.289 -0.2148 -0.4681  0.1337
 4033TIP3    H133734   4.689   4.709   7.335  0.1194  1.0304  0.0438
 4033TIP3    H233735   4.803   4.771   7.257  0.8105 -1.1945 -0.7701
 4034TIP3   OH233736   3.679   4.947   2.411 -0.1985 -0.0761 -0.0465
 4034TIP3    H133737   3.625   5.020   2.442 -0.5734  0.1916 -1.2622
 4034TIP3    H233738   3.763   4.987   2.389 -0.7795  0.2372 -1.8252
 4035TIP3   OH233739   5.708   6.805   0.494 -0.1832 -0.1114  0.3495
 4035TIP3    H133740   5.669   6.720   0.471 -0.4921 -0.0935  0.8054
 4035TIP3    H233741   5.733   6.843   0.410 -1.3662 -0.0179  0.0281
 4036TIP3   OH233742   1.580   5.882   6.807 -0.7129  0.2743 -0.2227
 4036TIP3    H133743   1.491   5.850   6.799 -1.4215  1.7046  1.3218
 4036TIP3    H233744   1.633   5.803   6.815 -1.4557 -0.7217 -3.5542
 4037TIP3   OH233745   4.165   1.069   1.424  0.2481 -0.0962 -0.1642
 4037TIP3    H133746   4.213   1.152   1.424  1.1795 -0.5684  1.6542
 4037TIP3    H233747   4.082   1.088   1.466  0.6818 -0.1663  0.7495
 4038TIP3   OH233748   4.261   3.396   0.033 -0.1242  0.9187  0.2659
 4038TIP3    H133749   4.315   3.390  -0.045  3.1107  2.4770  2.1788
 4038TIP3    H233750   4.240   3.489   0.041 -2.3267  0.4904  0.1635
 4039TIP3   OH233751   5.510   2.452   2.507 -0.1391  0.2053  0.2246
 4039TIP3    H133752   5.450   2.512   2.551  1.1172  0.1342  2.1105
 4039TIP3    H233753   5.584   2.506   2.482  0.6997 -0.4016  1.3379
 4040TIP3   OH233754   4.345   3.972   7.013 -0.0570 -0.4500  0.1501
 4040TIP3    H133755   4.347   3.877   7.023  0.8824 -0.6196 -1.4240
 4040TIP3    H233756   4.396   3.990   6.934 -0.9267  1.3054 -0.0735
 4041TIP3   OH233757   6.483   6.911   7.436 -0.1909 -0.0805 -0.1518
 4041TIP3    H133758   6.575   6.898   7.413 -0.5184 -0.3175 -1.3848
 4041TIP3    H233759   6.486   6.950   7.524  1.0566 -0.6563  0.0881
 4042TIP3   OH233760   6.560   6.724   1.337  0.2610 -0.3119 -0.2782
 4042TIP3    H133761   6.497   6.677   1.282 -0.6032  0.1077  0.3348
 4042TIP3    H233762   6.507   6.764   1.406  1.3375 -0.9432  0.9577
 4043TIP3   OH233763   5.893   1.915   0.351  0.5523  0.0925 -0.4913
 4043TIP3    H133764   5.970   1.929   0.296  0.3786  0.9028 -0.5280
 4043TIP3    H233765   5.854   1.834   0.316  0.1863  0.8367 -1.8861
 4044TIP3   OH233766   0.631   0.414   7.269  0.4822 -0.3385  0.1653
 4044TIP3    H133767   0.721   0.402   7.237  1.0080  0.6941  1.1534
 4044TIP3    H233768   0.595   0.325   7.273  1.5176 -0.7916 -0.0963
 4045TIP3   OH233769   2.460   3.847   7.341  0.4702 -0.6187  0.5461
 4045TIP3    H133770   2.496   3.812   7.260  1.1973  1.4465 -0.0664
 4045TIP3    H233771   2.535   3.850   7.401  0.5171  0.3069  0.4437
 4046TIP3   OH233772   3.746   1.243   1.213 -0.1209 -0.1911 -0.0820
 4046TIP3    H133773   3.828   1.256   1.165  0.9051  1.8388  2.0710
 4046TIP3    H233774   3.692   1.318   1.188 -1.6245 -1.7415 -1.8382
 4047TIP3   OH233775   4.050   4.376   8.438 -0.0149 -0.0554 -0.5959
 4047TIP3    H133776   4.014   4.349   8.353 -2.0259  0.7516 -0.0508
 4047TIP3    H233777   4.123   4.433   8.416 -1.1454  0.9750 -1.8227
 4048TIP3   OH233778   5.701   4.111   2.456 -0.3420  0.3543  0.0696
 4048TIP3    H133779   5.606   4.122   2.446 -0.7679 -2.3826  0.1984
 4048TIP3    H233780   5.712   4.088   2.548  0.2514 -0.7813 -0.2733
 4049TIP3   OH233781   0.336   5.938   2.431 -0.5801 -0.6242  0.0738
 4049TIP3    H133782   0.286   5.859   2.449  0.8611 -1.7041 -0.5419
 4049TIP3    H233783   0.424   5.908   2.413  0.7744  1.3240  2.7143
 4050TIP3   OH233784   5.277   6.559   0.346  0.2249 -0.1006 -0.1421
 4050TIP3    H133785   5.334   6.483   0.344  1.2595  0.4918  2.1879
 4050TIP3    H233786   5.292   6.604   0.263  1.0095 -1.4315 -0.7426
 4051TIP3   OH233787   5.842   3.732   1.500  0.3024  0.1851  0.1563
 4051TIP3    H133788   5.890   3.758   1.421  0.8500  0.4003  0.5506
 4051TIP3    H233789   5.871   3.794   1.566  1.4668 -1.2754  1.0690
 4052TIP3   OH233790   3.321   6.836   6.801 -0.2678 -0.2043 -0.2274
 4052TIP3    H133791   3.239   6.883   6.785  1.5698  2.6692 -2.1662
 4052TIP3    H233792   3.345   6.857   6.891 -0.0416  1.7761 -0.7220
 4053TIP3   OH233793   5.978   3.453   0.299  0.5120  0.3587 -0.2399
 4053TIP3    H133794   5.985   3.485   0.208  0.7549  0.3247 -0.2341
 4053TIP3    H233795   5.952   3.531   0.349  1.1238  0.5549 -0.2244
 4054TIP3   OH233796   2.112   5.450   2.461  0.2564 -0.2456 -0.1200
 4054TIP3    H133797   2.135   5.397   2.385 -0.7470 -0.2380 -0.4364
 4054TIP3    H233798   2.096   5.386   2.531 -1.9620 -0.4714 -0.7646
 4055TIP3   OH233799   6.556   5.406   0.312 -0.2540  0.2265 -0.6422
 4055TIP3    H133800   6.498   5.338   0.277 -0.9968  1.3082 -1.5963
 4055TIP3    H233801   6.522   5.488   0.275  3.1115  0.7684 -2.9385
 4056TIP3   OH233802   3.520   0.642   8.138 -0.8133  0.5349  0.2371
 4056TIP3    H133803   3.572   0.562   8.129 -0.4885  0.6139  1.3113
 4056TIP3    H233804   3.468   0.646   8.057 -0.7062 -0.6686  0.0898
 4057TIP3   OH233805   0.399   6.844   1.900  0.6010  0.3886 -0.5575
 4057TIP3    H133806   0.353   6.808   1.976  1.4987  0.4974  0.0450
 4057TIP3    H233807   0.422   6.767   1.847  0.7033  0.2477 -0.3067
 4058TIP3   OH233808   0.841   4.047   7.605  0.2523  0.0902  0.6543
 4058TIP3    H133809   0.763   4.052   7.660  0.0275  1.0248  0.2588
 4058TIP3    H233810   0.841   4.128   7.554  0.5133 -0.7043 -0.6551
 4059TIP3   OH233811   4.622   4.003   1.523  0.0383 -0.0327  0.2969
 4059TIP3    H133812   4.693   3.960   1.571 -0.6023 -0.3650  0.9793
 4059TIP3    H233813   4.586   4.066   1.586  0.4012  0.8811 -0.3982
 4060TIP3   OH233814   5.107   3.418   7.158  0.1493 -0.2861 -0.1209
 4060TIP3    H133815   5.125   3.505   7.191  2.1053 -0.4345 -0.6605
 4060TIP3    H233816   5.161   3.410   7.079 -1.5179 -1.2801 -1.2514
 4061TIP3   OH233817   5.081   2.215   0.711 -0.4727 -0.0277 -0.1269
 4061TIP3    H133818   5.057   2.298   0.752 -1.1327 -0.0789 -0.4089
 4061TIP3    H233819   5.170   2.198   0.744 -0.8217  0.1311  0.9629
 4062TIP3   OH233820   6.781   1.619   2.205  0.2954 -0.4249 -0.0112
 4062TIP3    H133821   6.690   1.633   2.180  1.0279 -0.5376 -3.1216
 4062TIP3    H233822   6.822   1.705   2.194  0.8225 -0.6572  0.1142
 4063TIP3   OH233823   3.112   4.147   2.285 -0.1633 -0.4910 -0.0304
 4063TIP3    H133824   3.127   4.053   2.294  1.0434 -0.2144  1.0636
 4063TIP3    H233825   3.178   4.187   2.340 -0.0687  1.0410 -1.1976
 4064TIP3   OH233826   2.049   2.685   0.684  0.1552  0.3975  0.5653
 4064TIP3    H133827   2.070   2.632   0.607  1.8463  1.5735  0.1657
 4064TIP3    H233828   1.965   2.726   0.663  0.3589  0.3130 -0.4406
 4065TIP3   OH233829   6.628   4.882   1.654  0.1497  0.3489  0.4621
 4065TIP3    H133830   6.571   4.958   1.645  0.6607  0.6630 -0.1852
 4065TIP3    H233831   6.627   4.862   1.748  1.1023  1.9993  0.8500
 4066TIP3   OH233832   3.773   1.129   7.931  0.4583  0.1805 -0.5022
 4066TIP3    H133833   3.764   1.034   7.917  0.8843  0.0627  0.0068
 4066TIP3    H233834   3.755   1.141   8.024 -2.6527  0.9867 -1.0876
 4067TIP3   OH233835   2.153   3.280   1.964 -0.6485 -0.0763  0.1748
 4067TIP3    H133836   2.207   3.337   2.019 -1.0526  1.0247 -0.5136
 4067TIP3    H233837   2.113   3.340   1.901 -1.3268 -1.1046 -0.4005
 4068TIP3   OH233838   2.045   4.153   7.343  0.3433  0.1840 -0.5654
 4068TIP3    H133839   2.065   4.214   7.272 -0.9103 -0.0116 -1.1129
 4068TIP3    H233840   1.999   4.206   7.408 -3.2602 -0.5764 -2.2284
 4069TIP3   OH233841   6.536   3.057   7.901 -0.2064 -0.0352  0.0054
 4069TIP3    H133842   6.607   3.078   7.841  0.8262  0.5092  1.3870
 4069TIP3    H233843   6.571   3.074   7.988 -1.8877 -0.1694  0.7540
 4070TIP3   OH233844   6.662   5.947   7.563 -0.4051 -0.6469  0.7064
 4070TIP3    H133845   6.582   5.895   7.554 -0.2185 -1.0916  1.5162
 4070TIP3    H233846   6.733   5.887   7.543 -0.3176  0.2992 -2.2413
 4071TIP3   OH233847   0.992   6.432   0.725  0.1079 -1.0691  0.5812
 4071TIP3    H133848   0.977   6.407   0.633  1.4839  1.4117 -0.4188
 4071TIP3    H233849   0.991   6.527   0.724  0.9683 -0.9675  3.0428
 4072TIP3   OH233850   3.159   3.606   0.449  0.4831  0.0577  0.3005
 4072TIP3    H133851   3.114   3.605   0.534 -0.7593  1.3207 -0.3183
 4072TIP3    H233852   3.220   3.679   0.455  2.5827 -1.6785  1.1537
 4073TIP3   OH233853   6.871   6.590   7.540 -0.4306  0.2717 -0.0820
 4073TIP3    H133854   6.854   6.496   7.536  1.1213 -0.0508  0.4950
 4073TIP3    H233855   6.845   6.615   7.629 -1.7226  0.5945 -0.5280
 4074TIP3   OH233856   1.833   6.867   1.430  0.2005 -0.8815  0.3566
 4074TIP3    H133857   1.853   6.850   1.338 -0.2759 -1.2302  0.3107
 4074TIP3    H233858   1.748   6.825   1.444  0.0413 -0.4200  0.8305
 4075TIP3   OH233859   4.643   0.305   2.051 -0.0598 -0.0677  0.4128
 4075TIP3    H133860   4.622   0.283   1.961 -0.3795 -1.1191  0.7205
 4075TIP3    H233861   4.737   0.324   2.051  0.5697 -2.7469  0.2938
 4076TIP3   OH233862   1.167   2.697   2.184 -0.0441 -0.8463 -0.2084
 4076TIP3    H133863   1.185   2.604   2.194  0.7572 -0.6024  0.8666
 4076TIP3    H233864   1.177   2.733   2.273  1.0501  0.4875 -0.8301
 4077TIP3   OH233865   6.536   4.802   1.098  0.4767 -0.3637 -0.3446
 4077TIP3    H133866   6.449   4.795   1.061  0.6844  0.3371 -0.9841
 4077TIP3    H233867   6.592   4.752   1.039  0.7381  0.3934 -0.7490
 4078TIP3   OH233868   4.366   5.806   6.352  0.3971 -1.0693  0.0329
 4078TIP3    H133869   4.340   5.781   6.263  0.5474 -0.1526 -0.2768
 4078TIP3    H233870   4.291   5.854   6.387  0.6997 -0.6048  0.0525
 4079TIP3   OH233871   2.495   2.445   2.935  0.0857 -0.3596 -0.3344
 4079TIP3    H133872   2.453   2.442   2.849 -1.6227 -0.7967  0.4717
 4079TIP3    H233873   2.550   2.367   2.939 -0.4993 -0.7878 -0.6956
 4080TIP3   OH233874   3.032   3.231   1.048 -0.5786 -0.1068  0.3020
 4080TIP3    H133875   3.017   3.261   1.138  0.1275  0.3085  0.2889
 4080TIP3    H233876   2.946   3.234   1.007 -0.6277  1.3971  0.4609
 4081TIP3   OH233877   5.554   5.377   7.908 -0.3172  0.4873  0.5459
 4081TIP3    H133878   5.491   5.450   7.905 -0.1556  0.6224  0.4052
 4081TIP3    H233879   5.639   5.419   7.919  0.0332  0.4848 -1.6663
 4082TIP3   OH233880   3.759   5.037   7.119  0.0014  0.1721 -0.1270
 4082TIP3    H133881   3.828   5.023   7.055 -0.4702  1.2227 -0.8939
 4082TIP3    H233882   3.690   5.084   7.071 -2.2728 -2.7918 -0.0368
 4083TIP3   OH233883   3.850   1.847   1.137  0.2138  0.2749 -0.0137
 4083TIP3    H133884   3.825   1.905   1.209  0.6791 -0.2362  0.5715
 4083TIP3    H233885   3.845   1.902   1.059 -1.3994  0.5409  0.2487
 4084TIP3   OH233886   1.308   3.841   8.323  0.2513  0.0784 -0.0141
 4084TIP3    H133887   1.244   3.874   8.386 -1.6425 -2.4714 -0.4555
 4084TIP3    H233888   1.363   3.781   8.373  0.7227  0.3889 -0.1546
 4085TIP3   OH233889   5.334   3.210   6.559 -0.0172  0.4168  0.0409
 4085TIP3    H133890   5.251   3.247   6.530 -0.5550 -0.4958  0.3512
 4085TIP3    H233891   5.345   3.131   6.506  1.3342  1.2336 -0.9408
 4086TIP3   OH233892   2.187   5.086   7.437  0.2715  0.4624 -0.6955
 4086TIP3    H133893   2.133   5.028   7.383  1.7651 -0.6419 -1.0575
 4086TIP3    H233894   2.241   5.027   7.489 -0.9302  1.4992  1.8807
 4087TIP3   OH233895   3.754   0.600   2.408 -0.4624 -0.0542  0.2495
 4087TIP3    H133896   3.789   0.613   2.496 -0.2199 -1.9178  0.4776
 4087TIP3    H233897   3.827   0.562   2.359  0.2461  3.2235 -1.5441
 4088TIP3   OH233898   4.920   5.994   2.187 -0.3023  0.1085 -0.1341
 4088TIP3    H133899   4.991   5.976   2.126  1.4700  1.8465  1.2589
 4088TIP3    H233900   4.861   5.919   2.179  1.7609 -1.4971 -1.2454
 4089TIP3   OH233901   5.320   1.023   1.594 -0.3273 -0.0162 -0.2131
 4089TIP3    H133902   5.305   0.990   1.506 -0.4498  0.7828 -0.4929
 4089TIP3    H233903   5.257   1.093   1.605  1.7638  2.0664 -0.6885
 4090TIP3   OH233904   1.491   4.309   6.870  0.0400  0.7173  0.6459
 4090TIP3    H133905   1.553   4.352   6.929 -0.4705  1.2022  0.8412
 4090TIP3    H233906   1.546   4.262   6.808  0.5906 -0.0555  1.6880
 4091TIP3   OH233907   1.307   0.374   7.876  0.2243 -0.2654  0.0916
 4091TIP3    H133908   1.226   0.387   7.829  0.2183  0.3153  0.2624
 4091TIP3    H233909   1.366   0.442   7.845 -0.0079  0.5777  1.4161
 4092TIP3   OH233910   6.155   5.909   6.887  1.1209 -0.2206 -0.2522
 4092TIP3    H133911   6.097   5.939   6.818 -0.2392 -1.4275  0.3122
 4092TIP3    H233912   6.127   5.957   6.965 -0.5432 -2.2283  0.4756
 4093TIP3   OH233913   6.732   0.440   0.593  0.7888 -0.7052 -0.2006
 4093TIP3    H133914   6.701   0.387   0.666  0.8333 -0.3379  0.0906
 4093TIP3    H233915   6.722   0.531   0.624  2.2877 -0.5666 -0.0370
 4094TIP3   OH233916   3.199   4.175   8.111  0.1802 -0.1774  0.8537
 4094TIP3    H133917   3.227   4.088   8.083 -0.1580  0.5447 -2.0934
 4094TIP3    H233918   3.119   4.160   8.161 -1.0499 -1.5118 -1.3485
 4095TIP3   OH233919   2.769   5.834   2.345 -0.2929  0.0652  0.1881
 4095TIP3    H133920   2.805   5.890   2.276 -0.1146  1.6897  1.5171
 4095TIP3    H233921   2.684   5.874   2.365 -0.6520 -0.8085  0.4349
 4096TIP3   OH233922   1.100   4.705   1.098 -0.3916 -0.5109  0.3101
 4096TIP3    H133923   1.024   4.648   1.107 -1.6710  1.1798  0.7409
 4096TIP3    H233924   1.099   4.731   1.006 -1.0279  0.3613  0.5419
 4097TIP3   OH233925   1.014   1.924   8.242 -0.6580  0.1651 -0.6876
 4097TIP3    H133926   0.951   1.992   8.267 -0.7309  0.4732 -1.6547
 4097TIP3    H233927   0.976   1.843   8.276 -0.8086  0.5387  0.0599
 4098TIP3   OH233928   5.289   5.717   2.202 -0.0581  0.3309 -0.4289
 4098TIP3    H133929   5.370   5.733   2.251 -1.1008  0.3895  1.3860
 4098TIP3    H233930   5.220   5.725   2.268 -1.5130 -0.1678 -1.8360
 4099TIP3   OH233931   3.993   1.766   6.951 -0.1261 -0.0560  0.1977
 4099TIP3    H133932   3.943   1.806   6.880 -0.1527 -0.0123  0.2409
 4099TIP3    H233933   3.927   1.735   7.013 -0.0810  1.2087  0.9136
 4100TIP3   OH233934   5.157   0.440   1.611  0.0535  0.2245  0.1357
 4100TIP3    H133935   5.124   0.358   1.575 -1.0815  0.4696  0.5694
 4100TIP3    H233936   5.105   0.508   1.567 -1.7340  0.5158  2.4663
 4101TIP3   OH233937   2.350   2.593   0.836  0.0011 -0.1552 -0.2079
 4101TIP3    H133938   2.298   2.648   0.894 -1.1285 -0.5379 -0.8206
 4101TIP3    H233939   2.431   2.643   0.821 -0.2219  0.5022  0.6685
 4102TIP3   OH233940   3.333   6.462   8.542 -0.1629  0.1767 -0.0908
 4102TIP3    H133941   3.336   6.368   8.522  0.2194  0.1617  0.0321
 4102TIP3    H233942   3.248   6.491   8.508 -0.4407 -0.2880  0.1954
 4103TIP3   OH233943   1.267   2.496   0.253  0.2183  0.9126 -0.2344
 4103TIP3    H133944   1.260   2.495   0.348 -0.3443  1.3403 -0.2686
 4103TIP3    H233945   1.342   2.553   0.235  1.5906 -0.7290  0.0070
 4104TIP3   OH233946   6.388   2.383   2.548  0.4436  1.1050  0.4710
 4104TIP3    H133947   6.358   2.293   2.561 -0.9236  1.1653 -1.7091
 4104TIP3    H233948   6.447   2.377   2.473 -1.1611  2.2494 -0.9317
 4105TIP3   OH233949   2.582   0.318   6.817  0.4062  0.3902 -0.3033
 4105TIP3    H133950   2.597   0.237   6.768 -1.7133  0.4916 -1.2395
 4105TIP3    H233951   2.617   0.387   6.761  1.1008  0.2349 -0.0678
 4106TIP3   OH233952   1.272   0.808   1.497  0.2058  0.4919  0.1889
 4106TIP3    H133953   1.357   0.848   1.478  0.6887 -0.7168 -0.2388
 4106TIP3    H233954   1.246   0.848   1.581  0.8194  1.4444 -0.0559
 4107TIP3   OH233955   2.295   3.221   0.012  0.8103 -0.3999  0.1075
 4107TIP3    H133956   2.387   3.248   0.005  0.9626 -0.4846  1.5632
 4107TIP3    H233957   2.297   3.125   0.008  0.6055 -0.3725 -1.4476
 4108TIP3   OH233958   1.501   6.434   7.240  0.6400 -0.4738  0.2735
 4108TIP3    H133959   1.495   6.525   7.272 -0.6483 -0.3561 -0.2344
 4108TIP3    H233960   1.524   6.383   7.318 -0.1285  0.1022  0.9002
 4109TIP3   OH233961   1.623   5.869   2.023 -0.3888 -0.0092  0.2628
 4109TIP3    H133962   1.618   5.899   2.114  3.0489 -0.8381  0.8445
 4109TIP3    H233963   1.652   5.779   2.029  1.2333  0.3296 -1.6629
 4110TIP3   OH233964   5.067   6.928   0.347 -0.0175 -0.0267  0.7793
 4110TIP3    H133965   5.001   6.884   0.293  0.2074  0.2948  0.2402
 4110TIP3    H233966   5.043   7.020   0.344  1.5758  0.3741 -1.0394
 4111TIP3   OH233967   5.233   6.785   6.978  0.5229  0.0588 -0.0927
 4111TIP3    H133968   5.237   6.854   6.911 -1.1770 -1.3168 -1.7316
 4111TIP3    H233969   5.222   6.704   6.928 -0.2710 -1.0937  1.8416
 4112TIP3   OH233970   5.938   3.667   1.798 -0.0903 -0.1583 -0.2624
 4112TIP3    H133971   6.001   3.682   1.869 -2.0276 -0.1701  1.5402
 4112TIP3    H233972   5.911   3.754   1.771 -1.4321 -0.1371  1.0156
 4113TIP3   OH233973   0.968   1.312   8.565  0.2268 -0.3620 -0.3425
 4113TIP3    H133974   0.975   1.400   8.529  0.6911 -0.0495  0.4898
 4113TIP3    H233975   0.874   1.293   8.561  0.0958  0.2480 -0.3600
 4114TIP3   OH233976   1.849   1.977   6.066 -0.1822  0.0188  0.5933
 4114TIP3    H133977   1.943   1.976   6.087 -0.1677  0.0344  0.5293
 4114TIP3    H233978   1.822   2.068   6.078 -0.3331 -0.1098  1.2478
 4115TIP3   OH233979   3.283   2.431   0.475  0.1605  0.2577  0.3076
 4115TIP3    H133980   3.345   2.488   0.521  1.3974 -0.5719 -0.2514
 4115TIP3    H233981   3.337   2.359   0.442 -1.1229 -0.5092 -0.2050
 4116TIP3   OH233982   4.362   5.091   6.595 -0.3101 -0.9493  0.4619
 4116TIP3    H133983   4.455   5.096   6.618 -0.6420 -1.1538  1.9633
 4116TIP3    H233984   4.351   5.003   6.560  0.4095 -0.2924 -1.5577
 4117TIP3   OH233985   0.700   3.729   1.660 -0.0059 -0.2198 -0.0688
 4117TIP3    H133986   0.687   3.745   1.754  0.4412  0.2766 -0.0891
 4117TIP3    H233987   0.753   3.803   1.630 -1.4804  0.4939 -1.0494
 4118TIP3   OH233988   6.513   4.433   0.490 -0.2029 -0.4711  0.1929
 4118TIP3    H133989   6.543   4.358   0.542  0.6549 -0.9085 -0.9022
 4118TIP3    H233990   6.452   4.394   0.427  0.4536 -0.2974 -0.5547
 4119TIP3   OH233991   6.502   5.040   8.188  0.0782  0.1150 -0.2503
 4119TIP3    H133992   6.481   4.962   8.136 -1.1168  0.4345 -0.2717
 4119TIP3    H233993   6.586   5.019   8.228 -0.4956 -1.4766  0.2439
 4120TIP3   OH233994   5.425   2.211   1.382 -0.3560  0.6211  0.2934
 4120TIP3    H133995   5.429   2.124   1.420  5.0328  0.7845  0.9602
 4120TIP3    H233996   5.437   2.270   1.456  0.9423  1.5387 -0.5975
 4121TIP3   OH233997   3.176   4.584   0.068 -0.5742  0.8776  0.3400
 4121TIP3    H133998   3.135   4.507   0.109  0.1997 -0.0758 -0.6451
 4121TIP3    H233999   3.240   4.613   0.133  0.7415 -0.7077 -0.1670
 4122TIP3   OH234000   3.125   3.177   8.145  0.0070  0.0207  0.1810
 4122TIP3    H134001   3.212   3.138   8.137 -0.0184 -0.1859  0.9061
 4122TIP3    H234002   3.088   3.140   8.225 -0.5002  0.5963  0.2261
 4123TIP3   OH234003   3.055   3.974   7.747  0.2406  0.2171  0.0032
 4123TIP3    H134004   3.064   3.963   7.841  2.6970  0.7699 -0.0997
 4123TIP3    H234005   3.014   4.060   7.737 -1.3045 -0.4387  0.5568
 4124TIP3   OH234006   0.326   3.440   7.086  0.6831 -0.1606 -0.1353
 4124TIP3    H134007   0.259   3.425   7.019 -1.0268 -0.2153  1.4972
 4124TIP3    H234008   0.353   3.531   7.074 -0.8237  0.3458  0.1214
 4125TIP3   OH234009   3.775   3.067   7.420 -0.0404  0.3276  0.7299
 4125TIP3    H134010   3.808   2.980   7.442  0.8319  0.3676 -0.3831
 4125TIP3    H234011   3.767   3.111   7.505  1.0086 -0.3080  1.1833
 4126TIP3   OH234012   2.074   2.596   7.551  0.6960  0.5270  0.1462
 4126TIP3    H134013   2.026   2.667   7.595 -0.4400  1.8925 -3.0109
 4126TIP3    H234014   2.138   2.641   7.495  0.1490 -0.9157 -1.7372
 4127TIP3   OH234015   0.891   0.148   6.354  0.7404  0.7819  0.5403
 4127TIP3    H134016   0.977   0.148   6.311  1.2275  2.7556  1.4391
 4127TIP3    H234017   0.911   0.153   6.447 -0.3364  1.5378  0.7436
 4128TIP3   OH234018   0.278   1.099   7.619 -0.0680 -0.0158 -0.3091
 4128TIP3    H134019   0.246   1.026   7.672  0.3773 -0.1740 -0.2506
 4128TIP3    H234020   0.307   1.164   7.683 -1.1368  0.5241 -0.3578
 4129TIP3   OH234021   2.365   3.366   0.809 -0.2860  0.1648 -0.6261
 4129TIP3    H134022   2.351   3.456   0.836 -0.0439  0.4894 -1.5362
 4129TIP3    H234023   2.283   3.341   0.765 -0.4936 -0.1891 -0.0497
 4130TIP3   OH234024   4.114   5.508   7.125 -0.2034 -0.5714 -0.2301
 4130TIP3    H134025   4.027   5.533   7.093 -0.5168 -0.5859  0.5927
 4130TIP3    H234026   4.141   5.436   7.067  0.4924  1.2509 -2.3233
 4131TIP3   OH234027   5.872   5.811   7.131 -0.0499  0.3744  0.2686
 4131TIP3    H134028   5.903   5.734   7.084  1.1980  0.7613  0.4382
 4131TIP3    H234029   5.931   5.881   7.104 -0.7412  1.1203  0.6501
 4132TIP3   OH234030   0.945   4.367   1.990  0.2039 -0.3657 -0.1431
 4132TIP3    H134031   0.979   4.280   2.011  2.9235  0.6676  0.1708
 4132TIP3    H234032   0.896   4.394   2.068 -3.2639 -2.6318 -1.2894
 4133TIP3   OH234033   3.856   3.603   1.056 -0.1909  0.1250  0.4487
 4133TIP3    H134034   3.896   3.533   1.108  0.7519  0.2206 -0.1288
 4133TIP3    H234035   3.899   3.597   0.971 -2.9593 -1.2126 -0.9881
 4134TIP3   OH234036   4.265   5.244   1.546 -0.4247 -0.2426 -0.8825
 4134TIP3    H134037   4.185   5.192   1.538 -0.6928  0.0391 -0.1344
 4134TIP3    H234038   4.326   5.187   1.593 -0.1692 -0.4694 -1.4822
 4135TIP3   OH234039   4.013   3.476   8.345 -0.3113  0.0103 -0.1335
 4135TIP3    H134040   4.032   3.382   8.338  0.8272  0.1836  0.3856
 4135TIP3    H234041   3.966   3.497   8.265 -2.3233 -1.3845  0.5768
 4136TIP3   OH234042   1.555   3.022   1.074  0.3521  0.3715 -0.5141
 4136TIP3    H134043   1.601   3.018   1.158 -1.6570  0.7535  0.6751
 4136TIP3    H234044   1.624   3.038   1.010  1.8371  1.1618  1.1783
 4137TIP3   OH234045   2.298   5.241   1.413  0.5490  0.1754  0.0272
 4137TIP3    H134046   2.370   5.252   1.351  1.8576 -0.6180  1.3404
 4137TIP3    H234047   2.339   5.205   1.491 -1.0165  1.3173  1.4452
 4138TIP3   OH234048   2.982   0.994   8.473 -0.0153  0.0679 -0.0902
 4138TIP3    H134049   3.072   0.981   8.503  0.1071  1.0508 -0.0195
 4138TIP3    H234050   2.936   1.030   8.549 -0.2847  0.2917 -0.3531
 4139TIP3   OH234051   4.672   1.141   1.589  0.1194 -0.1117  0.3048
 4139TIP3    H134052   4.735   1.190   1.537  0.2982  1.2997  1.7495
 4139TIP3    H234053   4.725   1.099   1.657 -0.3874  0.7655  1.2915
 4140TIP3   OH234054   5.904   5.313   7.039 -0.3334  0.1052 -0.5042
 4140TIP3    H134055   5.894   5.331   7.133 -1.1996  0.1388 -0.5987
 4140TIP3    H234056   5.960   5.383   7.007  0.5871 -0.3230  0.1299
 4141TIP3   OH234057   3.091   5.891   8.040  0.1381  0.0869  0.1440
 4141TIP3    H134058   3.108   5.830   8.111  0.5811  1.6942  1.4838
 4141TIP3    H234059   3.006   5.864   8.005  1.7160 -3.3053 -1.5671
 4142TIP3   OH234060   0.918   5.924   0.024  0.6175 -0.1861  0.2425
 4142TIP3    H134061   0.901   6.011   0.060  2.2696  1.6349 -2.9597
 4142TIP3    H234062   0.920   5.866   0.101 -3.5756  1.9241  2.2857
 4143TIP3   OH234063   4.896   0.409   0.120  0.1112 -0.4153 -0.1681
 4143TIP3    H134064   4.864   0.394   0.031  0.8931  1.6284 -0.8648
 4143TIP3    H234065   4.817   0.424   0.172 -0.2927  0.3986 -0.9779
 4144TIP3   OH234066   5.998   0.158   8.317 -0.1080 -0.0845  0.3382
 4144TIP3    H134067   5.934   0.191   8.381  0.7967  0.3316  1.0427
 4144TIP3    H234068   6.031   0.236   8.274 -1.5732 -0.4112 -1.5445
 4145TIP3   OH234069   0.733   1.109   1.138 -0.7922 -0.2229  0.3998
 4145TIP3    H134070   0.741   1.168   1.063  1.0638 -1.1461 -0.1979
 4145TIP3    H234071   0.739   1.022   1.101 -0.2124 -0.7120  1.5835
 4146TIP3   OH234072   0.031   0.059   8.230  0.0719 -1.0080 -0.2449
 4146TIP3    H134073  -0.062   0.040   8.222  0.1543 -1.8835  0.7561
 4146TIP3    H234074   0.070  -0.020   8.267  0.6436  0.5191  2.7127
 4147TIP3   OH234075   4.934   2.361   8.562 -0.1577  0.2692  0.1775
 4147TIP3    H134076   4.872   2.423   8.525  0.4404  1.1187  0.5682
 4147TIP3    H234077   4.885   2.316   8.631 -1.0707 -0.8394 -1.1455
 4148TIP3   OH234078   4.988   0.377   7.152 -0.9034 -0.1540 -0.6284
 4148TIP3    H134079   5.022   0.420   7.231  1.7991 -1.4092 -1.0020
 4148TIP3    H234080   4.975   0.449   7.090  0.2706  0.5157 -0.1489
 4149TIP3   OH234081   1.914   4.004   6.581  0.5750  0.4123  0.0530
 4149TIP3    H134082   1.944   4.052   6.659 -0.2739  1.3584 -0.1818
 4149TIP3    H234083   1.875   4.071   6.525 -2.3063 -0.7488  0.5014
 4150TIP3   OH234084   3.610   6.420   6.538  0.4327 -0.1553 -0.6007
 4150TIP3    H134085   3.563   6.491   6.580  1.2567 -0.6968  1.3243
 4150TIP3    H234086   3.624   6.450   6.448  0.1821  1.8101 -0.0169
 4151TIP3   OH234087   1.919   2.700   1.638 -0.0765 -0.2713  0.1293
 4151TIP3    H134088   1.964   2.784   1.648 -1.2327  0.3995 -0.1275
 4151TIP3    H234089   1.854   2.715   1.570  0.5625 -1.7607 -0.8801
 4152TIP3   OH234090   0.501   1.590   1.663 -0.3074  0.4830  0.2969
 4152TIP3    H134091   0.587   1.604   1.622  0.4846 -1.1799  1.3119
 4152TIP3    H234092   0.502   1.649   1.738  0.4222 -0.3400  0.9484
 4153TIP3   OH234093   6.566   2.015   7.324 -0.2603 -0.7852 -0.0226
 4153TIP3    H134094   6.655   1.990   7.301 -0.2351  0.8794 -2.0255
 4153TIP3    H234095   6.572   2.047   7.414  1.4419  0.4592 -0.5247
 4154TIP3   OH234096   0.601   1.003   0.175  0.3155 -0.1019 -0.2571
 4154TIP3    H134097   0.559   0.917   0.176  1.8041 -0.8620 -0.1649
 4154TIP3    H234098   0.603   1.029   0.268 -0.7058  0.3485 -0.3455
 4155TIP3   OH234099   3.724   5.071   0.944  0.0404 -0.2240  0.1625
 4155TIP3    H134100   3.719   5.101   0.854  1.5453 -0.4222 -0.0096
 4155TIP3    H234101   3.729   4.975   0.937 -0.3994 -0.2747  0.4878
 4156TIP3   OH234102   6.130   0.122   1.946  0.4848  0.0064  0.5298
 4156TIP3    H134103   6.104   0.210   1.975  1.2780  0.6243 -0.5523
 4156TIP3    H234104   6.209   0.137   1.894 -0.9817 -0.9866 -2.1861
 4157TIP3   OH234105   0.302   3.150   8.255 -0.1771 -0.3246 -0.1720
 4157TIP3    H134106   0.331   3.061   8.236  1.4414  0.3796 -1.2594
 4157TIP3    H234107   0.374   3.188   8.306  0.4680  1.1760 -2.0661
 4158TIP3   OH234108   2.512   5.631   7.819  0.8119  0.0615 -0.1236
 4158TIP3    H134109   2.425   5.671   7.825  0.7528 -0.0670 -0.1291
 4158TIP3    H234110   2.523   5.583   7.900  1.1550  0.6336  0.1773
 4159TIP3   OH234111   6.422   2.371   8.117 -0.0504 -0.2029 -0.7164
 4159TIP3    H134112   6.381   2.323   8.045  0.3868  0.0764 -1.1602
 4159TIP3    H234113   6.503   2.405   8.080  0.0980  0.0913 -0.1379
 4160TIP3   OH234114   2.494   5.573   8.099  0.5683  0.1340 -0.6139
 4160TIP3    H134115   2.423   5.584   8.162  0.3496  1.0000 -0.9970
 4160TIP3    H234116   2.574   5.590   8.149  0.5122 -0.7643 -0.2009
 4161TIP3   OH234117   2.304   6.031   8.231  0.1492 -0.6632 -0.6568
 4161TIP3    H134118   2.316   5.947   8.275  1.3335 -0.8133 -1.2311
 4161TIP3    H234119   2.227   6.018   8.175 -0.2085 -1.0766 -0.0727
 4162TIP3   OH234120   3.099   5.036   7.123  0.1132 -0.1684  0.2787
 4162TIP3    H134121   3.185   5.028   7.081  0.9020  0.1485  1.7743
 4162TIP3    H234122   3.051   5.096   7.066  1.7676  1.6621  0.7037
 4163TIP3   OH234123   3.119   5.066   0.918 -0.2898 -0.5959 -0.6588
 4163TIP3    H134124   3.059   5.128   0.959  2.7488  1.8189  0.5078
 4163TIP3    H234125   3.110   5.082   0.824 -0.3411  0.8909 -0.4275
 4164TIP3   OH234126   5.171   0.037   6.800 -0.1907 -0.2720 -0.0065
 4164TIP3    H134127   5.104   0.063   6.736  0.2664 -0.1086 -0.4244
 4164TIP3    H234128   5.252   0.078   6.768  0.1282 -0.5483  0.4395
 4165TIP3   OH234129   2.761   5.199   1.447  0.0321  0.2211  0.2031
 4165TIP3    H134130   2.759   5.269   1.512 -1.3943 -1.1014  1.6966
 4165TIP3    H234131   2.854   5.184   1.431  0.4692  0.3216  2.3066
 4166TIP3   OH234132   5.311   5.181   7.431 -0.0315  0.7806  0.4768
 4166TIP3    H134133   5.216   5.171   7.426  0.1833 -0.7769 -2.0209
 4166TIP3    H234134   5.330   5.171   7.525 -2.1037 -1.6680  0.7841
 4167TIP3   OH234135   0.980   3.821   6.924  0.0330  0.4114  0.0726
 4167TIP3    H134136   0.896   3.776   6.925 -0.1793  0.7957  0.7812
 4167TIP3    H234137   0.986   3.861   6.838  0.8217 -2.0205 -1.1076
 4168TIP3   OH234138   0.170   1.727   7.414 -0.1779 -0.6943 -0.4337
 4168TIP3    H134139   0.260   1.718   7.380  0.3984 -2.0862  1.3103
 4168TIP3    H234140   0.117   1.673   7.355  0.4776 -1.4559 -0.3512
 4169TIP3   OH234141   1.871   4.177   7.885 -0.0922  0.3429 -0.1872
 4169TIP3    H134142   1.795   4.234   7.891  0.3941  0.8564  1.5021
 4169TIP3    H234143   1.858   4.111   7.953  0.9895  0.4894  0.1862
 4170TIP3   OH234144   2.759   0.848   1.464  0.2812 -0.8154  0.6233
 4170TIP3    H134145   2.805   0.913   1.411  0.0012 -0.0627  1.3028
 4170TIP3    H234146   2.817   0.772   1.462 -0.1677 -1.1882 -1.5831
 4171TIP3   OH234147   2.570   5.228   7.188 -0.2353  0.8296 -0.3151
 4171TIP3    H134148   2.596   5.293   7.122  0.8031  2.2309  1.3939
 4171TIP3    H234149   2.553   5.279   7.267 -0.0517 -0.9237  0.9099
 4172TIP3   OH234150   3.581   6.397   0.762  0.4979 -0.5878  0.4194
 4172TIP3    H134151   3.659   6.446   0.735  0.4999 -0.0706  1.3360
 4172TIP3    H234152   3.615   6.310   0.785  1.2810  0.4046  3.4078
 4173TIP3   OH234153   1.851   2.814   0.542  0.3137  0.1702 -0.2952
 4173TIP3    H134154   1.836   2.817   0.448 -0.9879  2.2781 -0.0859
 4173TIP3    H234155   1.871   2.905   0.566 -0.0781 -0.1926  1.5639
 4174TIP3   OH234156   5.060   3.795   1.940 -0.2859 -0.5655 -0.2146
 4174TIP3    H134157   5.083   3.799   1.847 -1.4403  0.0495 -0.4918
 4174TIP3    H234158   5.063   3.702   1.961 -0.8233 -0.7931 -1.0911
 4175TIP3   OH234159   6.548   4.121   7.695  0.4745 -0.7452 -0.0730
 4175TIP3    H134160   6.492   4.064   7.641  0.4547  0.3394 -1.2480
 4175TIP3    H234161   6.550   4.078   7.780 -2.3661 -0.7165  0.1247
 4176TIP3   OH234162   4.802   2.699   1.858 -0.7231  0.0043 -0.3830
 4176TIP3    H134163   4.742   2.643   1.907 -1.3770  0.2675 -0.8653
 4176TIP3    H234164   4.779   2.788   1.887 -0.8213  0.1293 -0.8414
 4177TIP3   OH234165   0.485   3.153   2.009  0.8710 -0.0860  0.2248
 4177TIP3    H134166   0.515   3.066   1.985  1.0626  0.2024 -0.6081
 4177TIP3    H234167   0.391   3.143   2.023  0.9472 -0.4881  0.4487
 4178TIP3   OH234168   5.179   5.529   1.519  0.2255 -0.3027  0.2913
 4178TIP3    H134169   5.202   5.437   1.534 -1.2863 -0.5636  1.1056
 4178TIP3    H234170   5.084   5.529   1.508  0.2653  1.1026 -0.2651
 4179TIP3   OH234171   1.887   5.312   0.504  0.0865 -0.5557  0.5222
 4179TIP3    H134172   1.855   5.402   0.510  1.4449  0.4159 -3.4005
 4179TIP3    H234173   1.954   5.306   0.572  1.2558  2.1419 -0.2161
 4180TIP3   OH234174   2.634   3.314   7.425  0.4802 -0.4204 -0.1489
 4180TIP3    H134175   2.714   3.297   7.474  1.2559  2.3450 -0.2806
 4180TIP3    H234176   2.663   3.359   7.345 -1.2106  1.4284  0.1935
 4181TIP3   OH234177   0.057   3.660   8.285 -0.7326  0.0376 -0.2689
 4181TIP3    H134178   0.104   3.742   8.303  0.3251 -0.6641  0.3380
 4181TIP3    H234179  -0.035   3.683   8.292 -0.4422  1.0471  0.5573
 4182TIP3   OH234180   5.078   1.110   7.758 -0.5142 -0.1078  0.1745
 4182TIP3    H134181   5.116   1.050   7.694 -2.4846  0.0202 -1.2183
 4182TIP3    H234182   5.116   1.195   7.738 -1.5552  0.0500 -1.3069
 4183TIP3   OH234183   1.309   5.021   7.800 -0.6087 -0.3464 -0.3142
 4183TIP3    H134184   1.367   4.947   7.817 -0.1904 -0.3275 -1.5785
 4183TIP3    H234185   1.237   5.010   7.862 -0.6983 -1.9901 -0.6662
 4184TIP3   OH234186   3.687   1.300   7.570 -0.3149  0.4907  0.0098
 4184TIP3    H134187   3.642   1.277   7.652 -3.3079 -0.3116 -1.6837
 4184TIP3    H234188   3.700   1.395   7.576 -1.7560  0.6713  0.8869
 4185TIP3   OH234189   6.277   2.585   8.516  0.1063 -0.3490  0.0914
 4185TIP3    H134190   6.263   2.595   8.610 -0.6103  1.4911 -0.1730
 4185TIP3    H234191   6.191   2.560   8.482  0.0404  0.2839 -0.2204
 4186TIP3   OH234192   5.075   3.100   2.520 -0.4932  0.1444  0.8089
 4186TIP3    H134193   5.083   3.188   2.482  0.1618 -0.6639 -0.9986
 4186TIP3    H234194   5.162   3.082   2.557  0.6173 -1.1524 -2.1353
 4187TIP3   OH234195   3.589   1.860   0.157  0.5765 -0.5438  0.1543
 4187TIP3    H134196   3.573   1.771   0.190  0.2937 -1.0566 -1.2732
 4187TIP3    H234197   3.677   1.854   0.118  0.6093 -0.1608  0.1741
 4188TIP3   OH234198   4.319   0.295   7.296  0.0983 -0.0535 -0.0112
 4188TIP3    H134199   4.314   0.235   7.370 -1.6695  0.6987  0.5217
 4188TIP3    H234200   4.254   0.262   7.234  0.0058  0.5931 -0.2656
 4189TIP3   OH234201   1.738   5.390   1.329  0.2564 -0.6919 -0.7817
 4189TIP3    H134202   1.764   5.458   1.391 -0.6883 -0.8678 -0.1722
 4189TIP3    H234203   1.738   5.434   1.243 -2.6527  0.7786 -0.1462
 4190TIP3   OH234204   1.192   0.115   7.136  0.3093  0.2197 -0.3970
 4190TIP3    H134205   1.192   0.074   7.050 -0.4928  1.1479 -0.8664
 4190TIP3    H234206   1.277   0.158   7.142  0.6861 -0.5160 -0.3845
 4191TIP3   OH234207   3.616   0.362   8.078 -0.5078 -0.2611  0.3092
 4191TIP3    H134208   3.558   0.314   8.019 -0.0151 -0.9756  0.3897
 4191TIP3    H234209   3.700   0.316   8.072  0.0207  0.6743  0.2896
 4192TIP3   OH234210   6.104   3.713   8.151  0.0112  0.0111 -0.4011
 4192TIP3    H134211   6.010   3.731   8.151 -0.0854 -0.4628 -1.0148
 4192TIP3    H234212   6.120   3.672   8.236 -0.1367  1.0474  0.1418
 4193TIP3   OH234213   3.668   4.641   6.435  0.4331 -0.6854 -0.3919
 4193TIP3    H134214   3.638   4.640   6.526 -1.3666  2.9238 -0.7566
 4193TIP3    H234215   3.651   4.553   6.403 -0.0592 -1.7062  2.4295
 4194TIP3   OH234216   3.531   0.108   6.809 -0.5909  0.6274  0.1644
 4194TIP3    H134217   3.473   0.140   6.878 -1.8499 -0.7220 -0.2096
 4194TIP3    H234218   3.472   0.065   6.747  0.8502 -1.2274  0.0044
 4195TIP3   OH234219   5.736   4.067   1.945 -0.8376  0.0647 -0.3114
 4195TIP3    H134220   5.727   4.161   1.929 -2.6053  0.3925  2.0208
 4195TIP3    H234221   5.783   4.060   2.028  0.0314 -1.1640 -0.8700
 4196TIP3   OH234222   2.206   5.120   0.813 -0.1896 -0.2574 -0.5604
 4196TIP3    H134223   2.297   5.118   0.840  0.4581  0.9876 -2.4769
 4196TIP3    H234224   2.171   5.034   0.840  1.5407 -0.7817  0.1128
 4197TIP3   OH234225   0.931   2.912   6.829  0.4861  0.2837  0.1649
 4197TIP3    H134226   0.877   2.951   6.760 -0.9874 -0.1010  1.0515
 4197TIP3    H234227   0.906   2.820   6.830  1.6386 -0.0334  0.1824
 4198TIP3   OH234228   4.418   6.199   7.973 -0.0672 -0.3574  0.2348
 4198TIP3    H134229   4.342   6.256   7.988 -0.3635 -0.2030 -1.5897
 4198TIP3    H234230   4.441   6.214   7.882  2.5023 -0.0325  0.8778
 4199TIP3   OH234231   1.563   3.500   8.278  0.3218  0.2353 -0.4206
 4199TIP3    H134232   1.623   3.428   8.297 -1.0989 -0.8918 -0.0627
 4199TIP3    H234233   1.513   3.471   8.202  0.1873  1.1443 -0.6940
 4200TIP3   OH234234   6.013   5.566   8.559 -0.1421  0.0225  0.3613
 4200TIP3    H134235   5.929   5.526   8.538  1.4665 -3.1231 -0.7301
 4200TIP3    H234236   6.036   5.530   8.645 -0.3431  1.7549  1.1898
 4201TIP3   OH234237   6.379   6.100   7.513  0.3347 -0.8435 -0.1043
 4201TIP3    H134238   6.377   6.103   7.608 -0.9920 -0.4531 -0.1300
 4201TIP3    H234239   6.459   6.147   7.489 -1.2985  2.6354  0.7039
 4202TIP3   OH234240   4.696   6.915   0.074  0.1112 -0.1944  0.0088
 4202TIP3    H134241   4.784   6.877   0.081  0.9755  1.2868 -1.7491
 4202TIP3    H234242   4.690   6.977   0.147 -0.3472 -1.8211  1.4036
 4203TIP3   OH234243   4.972   2.848   7.782 -0.2978 -0.1563  0.2529
 4203TIP3    H134244   5.028   2.849   7.704  0.5280  1.8868  0.7943
 4203TIP3    H234245   4.942   2.758   7.789  0.9747 -0.7718 -1.4578
 4204TIP3   OH234246   5.601   2.881   6.724  0.8107 -0.0163 -0.0773
 4204TIP3    H134247   5.551   2.849   6.649 -0.9348 -0.2541  1.1430
 4204TIP3    H234248   5.687   2.839   6.715 -0.7627 -3.7916  0.4649
 4205TIP3   OH234249   1.889   6.728   6.699 -0.1389  0.6593  0.0124
 4205TIP3    H134250   1.936   6.809   6.677  1.8404 -0.5419 -0.4905
 4205TIP3    H234251   1.945   6.686   6.764 -0.9552 -0.4778 -0.0050
 4206TIP3   OH234252   3.669   5.565   8.043 -0.0615 -0.2673  0.4463
 4206TIP3    H134253   3.741   5.514   8.006  0.3925  0.7092 -0.0527
 4206TIP3    H234254   3.623   5.601   7.966  0.0979  0.7034  0.7985
 4207TIP3   OH234255   6.749   1.841   1.731 -0.7019 -0.1092 -0.2615
 4207TIP3    H134256   6.826   1.839   1.788  0.3853 -1.4708 -1.6739
 4207TIP3    H234257   6.675   1.837   1.791  0.3489 -0.1410  1.0988
 4208TIP3   OH234258   2.903   3.743   8.042  0.1269  0.1618 -0.7638
 4208TIP3    H134259   2.967   3.677   8.067  0.4496  1.1365  1.1673
 4208TIP3    H234260   2.840   3.744   8.115 -1.5373 -0.0553 -2.1307
 4209TIP3   OH234261   0.075   3.919   7.685 -0.0290  0.3299  0.5636
 4209TIP3    H134262   0.037   3.906   7.771  2.5004  0.1576  1.7523
 4209TIP3    H234263   0.147   3.856   7.681  0.2596  0.7119 -1.4782
 4210TIP3   OH234264   5.880   6.557   1.743  0.0161  0.4087 -0.3556
 4210TIP3    H134265   5.922   6.472   1.756 -0.2926  0.3177  0.0478
 4210TIP3    H234266   5.872   6.565   1.648 -1.1512 -0.6115 -0.3613
 4211TIP3   OH234267   0.230   4.560   0.442  0.3089 -0.5758  0.0044
 4211TIP3    H134268   0.143   4.597   0.456  1.0030  0.6162  1.5766
 4211TIP3    H234269   0.231   4.532   0.351 -2.0407 -1.5320  0.2077
 4212TIP3   OH234270   1.597   3.922   1.342 -0.0782 -0.3147 -0.4004
 4212TIP3    H134271   1.658   3.995   1.345 -0.7057  0.2536 -1.0458
 4212TIP3    H234272   1.517   3.959   1.305 -1.1299 -0.8124  1.2741
 4213TIP3   OH234273   1.863   1.828   8.472  0.2724  0.1993  0.1301
 4213TIP3    H134274   1.783   1.784   8.445  0.3197  0.4993 -0.5170
 4213TIP3    H234275   1.922   1.821   8.397 -0.1109  2.3005 -0.4428
 4214TIP3   OH234276   5.912   2.654   1.223  0.1844 -0.2162  0.7561
 4214TIP3    H134277   5.921   2.566   1.260  0.2880  0.5851  2.7667
 4214TIP3    H234278   6.002   2.679   1.200  1.0637  1.1670  4.8104
 4215TIP3   OH234279   0.627   0.495   0.226 -0.1177  0.2644  0.0852
 4215TIP3    H134280   0.639   0.427   0.292 -0.5951  0.9010  0.8544
 4215TIP3    H234281   0.703   0.552   0.236  1.0692 -0.9688 -1.5970
 4216TIP3   OH234282   0.045   4.949   0.535  0.3387 -0.3096  0.0931
 4216TIP3    H134283   0.019   4.908   0.617  2.1155 -2.1925 -0.2064
 4216TIP3    H234284  -0.001   4.898   0.467  1.5560 -1.0349 -0.2159
 4217TIP3   OH234285   4.427   1.493   0.868  0.3656 -0.0165 -0.5259
 4217TIP3    H134286   4.475   1.426   0.917  0.9211 -2.1612 -3.6389
 4217TIP3    H234287   4.483   1.570   0.872 -0.3384  0.4978  3.2793
 4218TIP3   OH234288   2.968   3.869   8.517  0.2706  0.5922  0.2449
 4218TIP3    H134289   3.010   3.932   8.574  2.3505 -1.5497  1.2321
 4218TIP3    H234290   3.030   3.856   8.445 -0.2762 -0.0577 -0.1244
 4219TIP3   OH234291   0.020   6.246   8.310  0.4303 -0.0682 -0.0416
 4219TIP3    H134292   0.044   6.300   8.385 -0.3352  0.0367  0.1298
 4219TIP3    H234293  -0.075   6.239   8.314  0.4153 -0.3954 -0.7739
 4220TIP3   OH234294   2.489   2.159   7.701  0.1127 -0.3844  0.3693
 4220TIP3    H134295   2.521   2.099   7.634  0.5457  0.2597 -0.0095
 4220TIP3    H234296   2.529   2.243   7.680 -0.9727  0.1911  0.5171
 4221TIP3   OH234297   2.809   1.507   1.595  0.1066  0.1789  0.5839
 4221TIP3    H134298   2.794   1.581   1.654 -1.0100 -0.0844  0.6390
 4221TIP3    H234299   2.842   1.548   1.514 -2.0690  0.9375  0.0202
 4222TIP3   OH234300   1.263   4.506   1.521 -0.2847 -0.2462 -0.1147
 4222TIP3    H134301   1.178   4.475   1.550  0.5469 -2.0823  0.5106
 4222TIP3    H234302   1.321   4.431   1.531  1.7603  1.3701  1.0095
 4223TIP3   OH234303   3.894   2.751   2.177  0.6490 -0.0099  0.0304
 4223TIP3    H134304   3.918   2.775   2.087 -0.0726 -0.2629 -0.2432
 4223TIP3    H234305   3.884   2.835   2.222 -0.4765  0.1909 -0.5444
 4224TIP3   OH234306   0.384   5.760   0.629  0.2190 -0.7208  0.0735
 4224TIP3    H134307   0.426   5.844   0.649  0.2158 -0.5274 -0.6852
 4224TIP3    H234308   0.374   5.717   0.714 -0.5159  0.3859  0.5654
 4225TIP3   OH234309   1.167   6.652   0.924 -0.0794 -0.2788 -0.0987
 4225TIP3    H134310   1.242   6.711   0.916 -0.6588  0.4835 -0.0106
 4225TIP3    H234311   1.133   6.669   1.012 -2.1826  1.6576 -1.1687
 4226TIP3   OH234312   5.449   2.369   1.630 -0.5280 -0.2856  0.7180
 4226TIP3    H134313   5.423   2.458   1.654  0.6696  0.5407 -0.8207
 4226TIP3    H234314   5.543   2.376   1.613 -0.1063 -2.1860  1.9616
 4227TIP3   OH234315   1.750   4.414   2.828  0.2943 -0.0474 -0.4120
 4227TIP3    H134316   1.687   4.422   2.900 -0.6764 -3.6113 -0.6510
 4227TIP3    H234317   1.716   4.471   2.759 -0.5827  0.8967  0.7519
 4228TIP3   OH234318   0.467   3.657   8.233 -0.1340  0.5348 -0.1220
 4228TIP3    H134319   0.485   3.751   8.233 -1.5467  0.8240 -0.1574
 4228TIP3    H234320   0.524   3.622   8.164  0.9984  1.2287  0.4431
 4229TIP3   OH234321   4.222   0.562   1.148  0.2234  0.2805  0.1958
 4229TIP3    H134322   4.153   0.619   1.182  1.2977  1.2484  0.8155
 4229TIP3    H234323   4.208   0.561   1.053 -1.2238 -0.3398  0.3943
 4230TIP3   OH234324   1.957   0.540   7.645  0.1019  0.3057  0.2111
 4230TIP3    H134325   1.888   0.482   7.612 -0.6838 -0.0747  2.3416
 4230TIP3    H234326   1.933   0.556   7.737  1.3595  2.4569  0.2256
 4231TIP3   OH234327   3.120   4.752   0.584 -0.7175  0.0315 -0.3875
 4231TIP3    H134328   3.059   4.756   0.510  0.2093  1.2581 -1.1328
 4231TIP3    H234329   3.125   4.842   0.616  0.0560 -0.2128  0.2051
 4232TIP3   OH234330   6.090   2.191   1.830 -0.3896  0.1335 -0.0864
 4232TIP3    H134331   6.043   2.211   1.911 -2.2169 -0.8262 -0.8451
 4232TIP3    H234332   6.135   2.109   1.848  0.0799  0.4735  0.2924
 4233TIP3   OH234333   0.414   1.845   7.913  0.1908 -0.2236  0.1909
 4233TIP3    H134334   0.330   1.828   7.869 -0.0768  0.0963  0.5761
 4233TIP3    H234335   0.406   1.802   7.998 -0.2733  1.3112  0.9445
 4234TIP3   OH234336   0.025   6.763   0.496 -0.8489  0.0374 -0.2561
 4234TIP3    H134337  -0.036   6.690   0.494 -1.5164  0.5362  0.6575
 4234TIP3    H234338  -0.006   6.823   0.428 -0.5756 -0.3235 -0.6962
 4235TIP3   OH234339   2.071   5.913   8.410 -0.2295 -0.1050  0.3103
 4235TIP3    H134340   1.982   5.946   8.404 -0.8137 -1.0626  2.6618
 4235TIP3    H234341   2.104   5.946   8.494  0.3525 -2.5885  1.1386
 4236TIP3   OH234342   5.367   6.288   2.582  0.5450  0.4029 -0.3625
 4236TIP3    H134343   5.282   6.265   2.543  0.3684  0.0082  0.2278
 4236TIP3    H234344   5.372   6.233   2.661  1.7268 -0.1927 -0.8366
 4237TIP3   OH234345   6.046   0.199   0.632 -0.4197 -0.0407  0.7018
 4237TIP3    H134346   5.963   0.169   0.595  0.1505 -0.9553  0.1269
 4237TIP3    H234347   6.054   0.291   0.605 -0.8401 -0.2003  0.0441
 4238TIP3   OH234348   6.066   0.625   7.178  0.4535  0.0292  0.1589
 4238TIP3    H134349   6.068   0.688   7.106  1.0582  0.2400  0.3566
 4238TIP3    H234350   6.009   0.664   7.243 -1.6898 -1.0367 -0.9904
 4239TIP3   OH234351   5.565   4.821   2.671  0.0313  0.6750 -0.3754
 4239TIP3    H134352   5.595   4.911   2.660  2.8034 -0.1159  0.0140
 4239TIP3    H234353   5.644   4.771   2.688 -1.2101 -2.1143 -2.0545
 4240TIP3   OH234354   0.234   2.183   0.339 -0.2246  0.4688  0.9371
 4240TIP3    H134355   0.273   2.135   0.266 -1.0683 -1.9640  1.9791
 4240TIP3    H234356   0.305   2.191   0.403 -0.4272 -0.8145  1.3665
 4241TIP3   OH234357   1.240   3.361   1.490 -0.0448  0.6500 -0.0548
 4241TIP3    H134358   1.225   3.308   1.569  0.0420  0.8078  0.0681
 4241TIP3    H234359   1.169   3.336   1.431 -0.4665  0.9817  0.3053
 4242TIP3   OH234360   4.666   3.670   8.209  0.6634 -0.0634  0.3876
 4242TIP3    H134361   4.761   3.659   8.197  1.1435  1.1393  2.5597
 4242TIP3    H234362   4.655   3.679   8.304 -1.4217  1.7019  0.0504
 4243TIP3   OH234363   3.378   4.035   0.229  0.6839  0.3727 -0.4638
 4243TIP3    H134364   3.388   4.129   0.218  0.8597  0.4492  0.3102
 4243TIP3    H234365   3.311   4.026   0.297  1.2498 -0.0493  0.0483
 4244TIP3   OH234366   6.201   5.570   7.203  0.4455 -0.1222  0.0385
 4244TIP3    H134367   6.135   5.623   7.248 -0.2305  0.7620 -1.8462
 4244TIP3    H234368   6.284   5.609   7.228  0.0694  0.5742  0.2292
 4245TIP3   OH234369   1.357   5.282   7.878  0.1675  0.4567 -0.4845
 4245TIP3    H134370   1.446   5.313   7.861 -0.1934  1.6837 -0.2567
 4245TIP3    H234371   1.353   5.197   7.835  2.2114 -0.7822  1.5587
 4246TIP3   OH234372   6.019   1.796   7.180  0.1963 -0.6349 -0.4384
 4246TIP3    H134373   5.956   1.788   7.251  0.0281  0.9389 -0.3756
 4246TIP3    H234374   6.088   1.853   7.215  1.8346 -2.5147 -0.4093
 4247TIP3   OH234375   0.428   0.101   2.691 -0.0804  0.1482  0.6267
 4247TIP3    H134376   0.335   0.111   2.668 -0.4652 -0.0500  2.0208
 4247TIP3    H234377   0.440   0.006   2.699  0.6213  0.0684 -0.9219
 4248TIP3   OH234378   0.588   2.208   1.998 -0.7483  0.1476 -0.5580
 4248TIP3    H134379   0.609   2.264   2.073 -1.0460  2.2927 -1.9890
 4248TIP3    H234380   0.494   2.192   2.006 -0.4913 -0.9975  0.3753
 4249TIP3   OH234381   5.625   3.594   8.205 -0.5743  0.0017  0.6151
 4249TIP3    H134382   5.654   3.524   8.147 -1.3318  0.2568 -0.0995
 4249TIP3    H234383   5.562   3.552   8.263  0.6898 -0.4063  1.7348
 4250TIP3   OH234384   0.457   3.108   2.607  0.3791  0.6585  0.7213
 4250TIP3    H134385   0.415   3.194   2.602 -0.7184  0.0849 -0.2370
 4250TIP3    H234386   0.395   3.048   2.565  2.2168 -0.2102 -0.9057
 4251TIP3   OH234387   5.095   6.331   7.238  0.1435 -0.9241 -0.1587
 4251TIP3    H134388   5.085   6.344   7.332  0.5833  0.5338 -0.3008
 4251TIP3    H234389   5.007   6.307   7.208 -0.3112 -0.0083  0.4133
 4252TIP3   OH234390   3.724   5.769   2.038  0.3490  0.4740 -0.3279
 4252TIP3    H134391   3.736   5.717   1.959 -1.0998  0.1582 -0.3647
 4252TIP3    H234392   3.631   5.762   2.058  0.5192  1.3008  0.8922
 4253TIP3   OH234393   5.224   4.108   7.739  0.3640  0.5895 -0.3111
 4253TIP3    H134394   5.141   4.144   7.708  1.3349  1.5794 -1.9224
 4253TIP3    H234395   5.221   4.016   7.713  0.1424  0.8418 -1.2125
 4254TIP3   OH234396   4.502   2.621   0.242 -0.1508 -0.6340 -0.7894
 4254TIP3    H134397   4.509   2.633   0.336 -0.3889 -1.4507 -0.6630
 4254TIP3    H234398   4.520   2.708   0.205  1.2963 -0.5946 -0.0603
 4255TIP3   OH234399   0.966   0.695   8.197  0.4056  0.4882 -0.2260
 4255TIP3    H134400   0.877   0.693   8.230  1.4441  1.0594  2.8814
 4255TIP3    H234401   0.970   0.774   8.142 -1.0432  0.2341 -0.7451
 4256TIP3   OH234402   4.842   0.828   8.043 -0.1251  0.1216  0.5910
 4256TIP3    H134403   4.809   0.874   8.120 -0.6074 -0.4325  0.7201
 4256TIP3    H234404   4.792   0.865   7.970  0.5217  0.8398  0.4980
 4257TIP3   OH234405   0.025   0.628   7.202  0.7557  0.6808  0.2816
 4257TIP3    H134406   0.027   0.605   7.295  0.2767 -0.7433 -0.0384
 4257TIP3    H234407   0.050   0.547   7.157  0.9818  1.3530 -0.8314
 4258TIP3   OH234408   5.994   0.261   6.503 -0.1838  0.3611  0.7807
 4258TIP3    H134409   5.925   0.258   6.568 -0.1402 -1.3030  0.7888
 4258TIP3    H234410   5.948   0.270   6.419 -0.5267 -1.7328  0.6903
 4259TIP3   OH234411   1.241   4.287   7.017 -0.1070 -0.1208 -0.8702
 4259TIP3    H134412   1.173   4.240   6.970 -0.5494  2.1654 -2.6808
 4259TIP3    H234413   1.315   4.288   6.957  1.1905 -1.5393  0.6076
 4260TIP3   OH234414   6.713   3.720   7.757  0.3765 -0.1723  0.2920
 4260TIP3    H134415   6.665   3.702   7.676 -1.7041  1.5186  1.0300
 4260TIP3    H234416   6.754   3.805   7.742  2.7301 -1.3102 -0.0867
 4261TIP3   OH234417   5.528   4.823   0.043  0.3180  0.0989  0.0736
 4261TIP3    H134418   5.541   4.863  -0.043 -2.1547 -0.1435 -0.5025
 4261TIP3    H234419   5.526   4.729   0.025 -0.4883  0.0608  0.3211
 4262TIP3   OH234420   3.677   3.988   0.327  0.0454 -0.0940 -0.0679
 4262TIP3    H134421   3.597   3.937   0.317  1.0346 -1.7505 -0.0975
 4262TIP3    H234422   3.691   4.029   0.242 -0.7974  0.2518 -0.0437
 4263TIP3   OH234423   3.626   0.962   0.859  0.3341 -0.0849  0.4462
 4263TIP3    H134424   3.537   0.928   0.848  0.5837 -1.1072  1.4165
 4263TIP3    H234425   3.622   1.050   0.822 -0.6519 -0.6971 -1.0147
 4264TIP3   OH234426   3.137   5.697   1.785  0.2432  0.1389  0.2244
 4264TIP3    H134427   3.160   5.788   1.764  1.9989 -0.3559 -0.2283
 4264TIP3    H234428   3.214   5.646   1.757 -0.7929 -1.5192  0.2285
 4265TIP3   OH234429   5.753   4.267   1.479  0.3498 -0.0630 -0.4349
 4265TIP3    H134430   5.802   4.265   1.561 -2.2972 -1.1719  1.2586
 4265TIP3    H234431   5.729   4.359   1.467  0.7056  0.1030  0.1060
 4266TIP3   OH234432   6.134   1.460   8.022  0.0452 -0.0879 -0.6729
 4266TIP3    H134433   6.219   1.498   8.002  0.6425 -1.4030 -0.7204
 4266TIP3    H234434   6.096   1.439   7.936 -0.5725  0.9941 -0.6748
 4267TIP3   OH234435   3.137   1.892   0.328  0.7318 -0.2811  0.5883
 4267TIP3    H134436   3.212   1.950   0.313  0.9288 -0.7817 -0.4604
 4267TIP3    H234437   3.171   1.823   0.384  1.4581 -1.2263 -0.9396
 4268TIP3   OH234438   4.627   1.661   6.640 -0.1768  0.1964  0.1718
 4268TIP3    H134439   4.684   1.640   6.566 -0.6774  1.2602 -0.5392
 4268TIP3    H234440   4.674   1.730   6.687 -0.4794  0.4755  0.0666
 4269TIP3   OH234441   6.864   2.272   7.461  0.1236  0.2152 -0.1913
 4269TIP3    H134442   6.871   2.297   7.553  1.0172  0.9439 -0.4400
 4269TIP3    H234443   6.770   2.265   7.445 -0.0491  0.3999  0.6868
 4270TIP3   OH234444   1.438   6.411   7.904 -0.1531  0.2721 -0.3130
 4270TIP3    H134445   1.403   6.417   7.816 -0.5449  3.0074 -0.0697
 4270TIP3    H234446   1.361   6.395   7.960 -0.2193  0.6459 -0.2933
 4271TIP3   OH234447   5.887   3.042   6.684 -0.0867  0.4055 -0.3977
 4271TIP3    H134448   5.846   2.981   6.622 -2.0459  2.5938 -1.3928
 4271TIP3    H234449   5.979   3.044   6.658 -0.4686 -0.2885 -1.9203
 4272TIP3   OH234450   0.987   0.374   1.096 -0.7130 -0.1081  0.1055
 4272TIP3    H134451   0.898   0.385   1.130 -0.5148  1.8576  0.0982
 4272TIP3    H234452   0.976   0.374   1.001 -0.6453  1.0523  0.0837
 4273TIP3   OH234453   5.012   4.695   0.855  0.1967  0.6781 -0.1281
 4273TIP3    H134454   4.951   4.684   0.928 -0.1240 -0.0361 -0.4993
 4273TIP3    H234455   4.965   4.661   0.779  1.2358 -0.3587 -0.3321
 4274TIP3   OH234456   0.936   3.351   0.166  0.4376  0.1117 -0.2640
 4274TIP3    H134457   0.987   3.432   0.172  1.1961 -0.4278  1.1139
 4274TIP3    H234458   0.989   3.286   0.213 -1.7418 -0.3645  1.7485
 4275TIP3   OH234459   6.920   6.690   7.302 -0.2831 -0.0052 -0.1417
 4275TIP3    H134460   6.907   6.650   7.388 -2.9661  0.6381 -0.1719
 4275TIP3    H234461   6.843   6.745   7.288  1.8951  3.0609 -1.3082
 4276TIP3   OH234462   4.197   5.111   7.427  0.0922 -0.1259 -0.0572
 4276TIP3    H134463   4.163   5.114   7.338 -0.1765 -0.9294  0.0195
 4276TIP3    H234464   4.239   5.197   7.439 -1.3380  0.6498 -0.3611
 4277TIP3   OH234465   1.278   5.551   7.678  0.1915 -0.4448 -0.1994
 4277TIP3    H134466   1.215   5.572   7.609  1.6770 -0.9649 -1.7817
 4277TIP3    H234467   1.308   5.463   7.657  1.6402 -0.1105  0.3435
 4278TIP3   OH234468   6.926   3.542   0.692  0.4788  0.5437  0.1179
 4278TIP3    H134469   7.021   3.535   0.685  0.3112 -1.3750 -0.7001
 4278TIP3    H234470   6.907   3.527   0.785  0.9469  0.9753  0.2913
 4279TIP3   OH234471   0.841   0.223   6.636  0.1551 -0.2783  0.6767
 4279TIP3    H134472   0.804   0.136   6.648 -0.2530 -0.2427 -0.2849
 4279TIP3    H234473   0.766   0.280   6.626  0.4368  0.0599  0.4629
 4280TIP3   OH234474   1.880   6.066   8.210 -0.4590 -0.2727 -0.2629
 4280TIP3    H134475   1.957   6.020   8.177 -0.7004 -0.6675 -0.2797
 4280TIP3    H234476   1.811   5.999   8.213 -1.3424  0.4919 -2.0674
 4281TIP3   OH234477   2.978   2.065   8.355 -0.6887 -0.3463 -0.1846
 4281TIP3    H134478   3.050   2.126   8.374 -1.7813  1.3940 -1.3824
 4281TIP3    H234479   2.949   2.034   8.441  2.3351 -2.2307  0.3181
 4282TIP3   OH234480   0.438   4.177   7.942 -0.6153  0.9858  0.1188
 4282TIP3    H134481   0.405   4.118   8.009 -0.7232 -0.7548 -1.3961
 4282TIP3    H234482   0.363   4.191   7.884  0.2930 -0.1306 -1.3849
 4283TIP3   OH234483   4.876   4.020   6.730 -0.6084 -0.0985  0.3944
 4283TIP3    H134484   4.919   4.036   6.814 -1.2929  1.1637  0.5331
 4283TIP3    H234485   4.941   4.046   6.665 -0.7539  0.7481  0.5803
 4284TIP3   OH234486   1.398   5.825   8.492  0.0107 -0.0360 -0.0935
 4284TIP3    H134487   1.355   5.876   8.423  1.6975 -1.0192 -1.9950
 4284TIP3    H234488   1.490   5.851   8.487  0.1768 -0.1617  1.8112
 4285TIP3   OH234489   6.652   0.245   1.503 -0.4679 -0.7360  0.1208
 4285TIP3    H134490   6.596   0.175   1.537 -1.1269  0.1222  0.8781
 4285TIP3    H234491   6.643   0.316   1.567  1.9504 -0.7604  0.5659
 4286TIP3   OH234492   6.163   1.029   6.840 -0.5255  0.4049  0.1703
 4286TIP3    H134493   6.138   0.942   6.871 -0.5484 -0.2081 -1.4480
 4286TIP3    H234494   6.161   1.021   6.744  0.4085  1.9192 -0.0009
 4287TIP3   OH234495   1.518   5.589   8.557 -0.2029 -0.7677 -0.0269
 4287TIP3    H134496   1.534   5.630   8.642 -1.4526  0.6494 -0.4528
 4287TIP3    H234497   1.463   5.651   8.510  1.8643 -0.6999 -2.5583
 4288TIP3   OH234498   6.067   2.140   8.434 -0.2298  0.3197 -0.4555
 4288TIP3    H134499   6.138   2.095   8.389 -0.7825  0.9754 -2.0562
 4288TIP3    H234500   6.092   2.232   8.434 -0.2530  0.3368  0.5843
 4289TIP3   OH234501   5.893   4.263   6.524  0.4219  0.3095 -0.1157
 4289TIP3    H134502   5.940   4.191   6.566 -1.4281 -0.8568  0.0694
 4289TIP3    H234503   5.919   4.341   6.572  1.9376 -0.3213  0.1340
 4290TIP3   OH234504   3.226   5.974   1.825 -0.4028 -0.5097  0.3765
 4290TIP3    H134505   3.238   5.946   1.916 -0.8869 -1.9992  0.0057
 4290TIP3    H234506   3.280   6.052   1.817  1.2632 -1.4899  1.4147
 4291TIP3   OH234507   1.994   4.411   0.377 -0.1131 -0.1825  0.3093
 4291TIP3    H134508   2.089   4.405   0.374 -0.2234 -2.9171 -1.3792
 4291TIP3    H234509   1.976   4.505   0.384  2.6695  0.3534  1.5146
 4292TIP3   OH234510   5.121   5.180   7.179  0.6648 -0.0409  0.3488
 4292TIP3    H134511   5.042   5.219   7.216  0.4369  1.3464 -1.5106
 4292TIP3    H234512   5.108   5.181   7.085  2.5020 -0.6909  0.0344
 4293TIP3   OH234513   3.975   5.411   1.286  0.2407  0.4219 -0.4283
 4293TIP3    H134514   3.990   5.389   1.378  0.1704  0.1269 -0.4863
 4293TIP3    H234515   3.903   5.353   1.259 -1.3090  2.0886 -0.0506
 4294TIP3   OH234516   5.093   0.556   7.326  0.2698 -0.3853 -0.4331
 4294TIP3    H134517   5.184   0.581   7.339  0.0128  1.0179 -1.1901
 4294TIP3    H234518   5.062   0.530   7.413  1.0453  0.2999  0.0561
 4295TIP3   OH234519   5.373   3.106   0.605  0.0347 -0.5012  0.0094
 4295TIP3    H134520   5.334   3.177   0.554  3.3033  0.1272 -1.8728
 4295TIP3    H234521   5.414   3.150   0.680  1.3562 -0.4153 -0.7254
 4296TIP3   OH234522   0.147   2.647   1.393  0.0345 -0.2353  0.0779
 4296TIP3    H134523   0.184   2.647   1.304  0.4273 -1.4099  0.2252
 4296TIP3    H234524   0.052   2.651   1.379  0.1231  0.6058 -0.3600
 4297TIP3   OH234525   1.906   1.656   0.755  0.0229 -0.0769  0.1499
 4297TIP3    H134526   1.898   1.744   0.718  0.2210  0.1695  0.6875
 4297TIP3    H234527   1.986   1.658   0.808 -1.2329  0.1850  2.1673
 4298TIP3   OH234528   6.591   6.285   7.302  0.1036 -0.3097 -0.1588
 4298TIP3    H134529   6.498   6.296   7.285  0.5763  1.4595 -1.9296
 4298TIP3    H234530   6.621   6.229   7.230  0.5242 -0.3799  0.0697
 4299TIP3   OH234531   4.504   6.096   1.668 -0.3261  0.5700 -0.0792
 4299TIP3    H134532   4.465   6.057   1.589 -0.9211  0.8308  0.0784
 4299TIP3    H234533   4.586   6.049   1.680 -0.8763 -0.4012 -0.0777
 4300TIP3   OH234534   4.349   6.229   6.517 -0.5989  0.2941  0.2569
 4300TIP3    H134535   4.407   6.259   6.587 -2.9319  1.8762  1.6077
 4300TIP3    H234536   4.370   6.285   6.442 -1.5764  2.1515  1.3034
 4301TIP3   OH234537   1.585   3.046   0.751  0.3664  0.3900 -0.8266
 4301TIP3    H134538   1.673   3.014   0.772 -0.2766 -0.4323  0.8635
 4301TIP3    H234539   1.532   2.966   0.747 -0.9444  1.0380  1.6991
 4302TIP3   OH234540   2.291   1.631   7.992 -0.1668 -0.1104 -0.1791
 4302TIP3    H134541   2.284   1.538   8.014 -1.4401 -0.2108 -0.9135
 4302TIP3    H234542   2.258   1.637   7.902 -0.5154  1.1123  0.0167
 4303TIP3   OH234543   5.934   6.197   7.780 -0.8837  0.2714 -0.4694
 4303TIP3    H134544   5.997   6.178   7.711 -0.1362  0.0600  0.2567
 4303TIP3    H234545   5.937   6.292   7.790  1.3143  0.0993  1.3463
 4304TIP3   OH234546   3.377   4.235   0.938 -0.3320  0.2994  0.1838
 4304TIP3    H134547   3.409   4.325   0.945 -1.7075  0.7798  0.6179
 4304TIP3    H234548   3.307   4.240   0.874  0.0399 -0.6107 -0.3036
 4305TIP3   OH234549   5.551   3.758   6.614  0.0923 -0.1163  0.0944
 4305TIP3    H134550   5.555   3.676   6.565 -2.7913  0.1561 -0.7723
 4305TIP3    H234551   5.631   3.805   6.589  1.8880 -2.6064  0.7166
 4306TIP3   OH234552   0.673   5.309   1.184  0.0607 -0.3824  0.0363
 4306TIP3    H134553   0.659   5.403   1.198  0.5059 -0.5769  2.1188
 4306TIP3    H234554   0.762   5.293   1.215  0.8690 -1.1520 -2.4232
 4307TIP3   OH234555   6.072   4.646   7.924 -0.4103 -0.0158 -0.3689
 4307TIP3    H134556   5.980   4.623   7.911 -1.5839  3.9273 -0.3742
 4307TIP3    H234557   6.074   4.692   8.008  2.0036 -1.5501  0.5489
 4308TIP3   OH234558   2.703   4.853   8.557  0.0464 -0.3322 -0.1791
 4308TIP3    H134559   2.627   4.910   8.562  0.8983  1.0863 -1.9874
 4308TIP3    H234560   2.692   4.805   8.475  1.7449  1.0117 -1.2775
 4309TIP3   OH234561   5.646   3.961   7.645  0.2501  0.1433  0.2282
 4309TIP3    H134562   5.613   4.041   7.687 -0.1701  0.3603 -0.5086
 4309TIP3    H234563   5.642   3.979   7.551  2.6512  0.2500  0.0887
 4310TIP3   OH234564   2.226   0.398   7.641 -0.0564  0.1015  0.3519
 4310TIP3    H134565   2.173   0.477   7.629 -1.3077 -1.0492 -3.2103
 4310TIP3    H234566   2.167   0.336   7.684 -0.8157 -0.3236 -1.2059
 4311TIP3   OH234567   2.052   1.857   1.092 -0.0233 -0.2101  0.2933
 4311TIP3    H134568   2.052   1.902   1.177  0.6463 -1.3916  0.9529
 4311TIP3    H234569   2.142   1.828   1.080 -0.3616 -1.1050 -0.2380
 4312TIP3   OH234570   5.406   0.359   7.808  0.0967  0.3182  0.1355
 4312TIP3    H134571   5.335   0.406   7.763  0.0504  0.0837 -0.0397
 4312TIP3    H234572   5.384   0.367   7.901 -0.4176 -0.1547  0.0631
 4313TIP3   OH234573   2.236   5.460   7.899  0.1274  0.6300  0.6112
 4313TIP3    H134574   2.167   5.487   7.960  1.1074 -0.6308  2.3828
 4313TIP3    H234575   2.290   5.398   7.949  2.1418  1.0203 -0.9133
 4314TIP3   OH234576   5.396   4.450   7.172  0.4446  0.3993 -0.2624
 4314TIP3    H134577   5.330   4.520   7.170 -1.6374 -1.4225  0.6362
 4314TIP3    H234578   5.396   4.420   7.263  0.0812 -1.8258 -0.9394
 4315TIP3   OH234579   5.730   4.053   2.758  0.2754  0.2238 -0.4757
 4315TIP3    H134580   5.734   3.957   2.758  0.7738  0.1846  1.4937
 4315TIP3    H234581   5.652   4.074   2.810  1.3844  0.8182  1.0450
 4316TIP3   OH234582   5.904   4.938   7.799  0.4546  0.2084  0.2437
 4316TIP3    H134583   5.861   5.000   7.741 -0.4421  0.0089  0.6608
 4316TIP3    H234584   5.934   4.868   7.742  1.2224  0.8851 -0.1933
 4317TIP3   OH234585   2.079   1.854   7.414  0.4182  0.0462  0.9021
 4317TIP3    H134586   1.986   1.869   7.396 -0.0947 -3.3390  0.2008
 4317TIP3    H234587   2.106   1.931   7.465 -2.6094  1.3478  0.7379
 4318TIP3   OH234588   0.372   0.427   6.470  0.6996 -0.1023  0.0530
 4318TIP3    H134589   0.340   0.373   6.398  1.1856 -0.8205  0.3588
 4318TIP3    H234590   0.374   0.367   6.545  0.1449  0.6455  0.6840
 4319TIP3   OH234591   4.364   1.336   8.025 -0.2430  0.5130  0.1631
 4319TIP3    H134592   4.416   1.330   8.105  1.6710  1.8903 -0.8738
 4319TIP3    H234593   4.275   1.313   8.051  0.4393  0.3600  2.5412
 4320TIP3   OH234594   0.847   2.475   0.231  0.4410 -0.0829  0.0861
 4320TIP3    H134595   0.878   2.440   0.315 -0.8812  1.0803  1.1209
 4320TIP3    H234596   0.901   2.553   0.216 -0.3975  0.6365  0.7155
 4321TIP3   OH234597   5.292   4.020   0.562 -0.1288  0.2810  0.0131
 4321TIP3    H134598   5.312   3.930   0.590 -0.6847  0.6266  1.6056
 4321TIP3    H234599   5.262   4.010   0.471 -1.2245 -1.2950  0.4970
 4322TIP3   OH234600   1.355   1.132   1.300  0.0261  0.1106 -0.1787
 4322TIP3    H134601   1.382   1.084   1.378 -0.0347  1.9039  0.9856
 4322TIP3    H234602   1.410   1.097   1.230  2.2180  0.5540  1.2509
 4323TIP3   OH234603   5.946   6.682   7.039  0.4279  0.1500 -0.6273
 4323TIP3    H134604   5.965   6.597   7.000  0.4752  0.0634 -0.4192
 4323TIP3    H234605   5.860   6.671   7.078 -0.3659  0.7393 -2.1388
 4324TIP3   OH234606   0.295   6.780   2.232 -0.3147  0.4560 -0.2124
 4324TIP3    H134607   0.209   6.739   2.236 -0.1886  0.1741 -0.4506
 4324TIP3    H234608   0.349   6.721   2.180  0.0572  0.5724  0.0337
 4325TIP3   OH234609   4.465   5.180   7.743  0.4375  0.2078  0.1916
 4325TIP3    H134610   4.503   5.196   7.657  0.5097 -0.8172  0.0259
 4325TIP3    H234611   4.526   5.221   7.804  0.9777 -0.0378 -0.1745
 4326TIP3   OH234612   2.782   6.773   7.791 -0.4596 -0.4021 -0.6968
 4326TIP3    H134613   2.745   6.805   7.709 -0.2566  0.4748 -0.4533
 4326TIP3    H234614   2.707   6.742   7.842 -0.6826 -0.1105 -0.8492
 4327TIP3   OH234615   3.762   6.211   8.308 -0.0930  0.3381 -0.0048
 4327TIP3    H134616   3.684   6.249   8.268  0.2405  1.4515  0.3582
 4327TIP3    H234617   3.835   6.249   8.259  0.2364 -0.5708 -0.2376
 4328TIP3   OH234618   0.725   2.563   1.038 -0.2844  0.9166  0.0344
 4328TIP3    H134619   0.769   2.485   1.005  1.2909  2.4926 -1.8546
 4328TIP3    H234620   0.678   2.534   1.115  1.6666 -1.5172  0.4079
 4329TIP3   OH234621   4.258   3.854   1.081 -0.4843 -0.3706 -0.2445
 4329TIP3    H134622   4.269   3.841   1.175  0.2091 -2.9528 -0.5928
 4329TIP3    H234623   4.235   3.946   1.072 -2.3103 -0.4069  2.5971
 4330TIP3   OH234624   2.893   6.555   1.814 -0.3941 -0.3471 -0.5523
 4330TIP3    H134625   2.982   6.552   1.849 -0.5431  0.0836 -0.1210
 4330TIP3    H234626   2.839   6.521   1.885 -0.8186  1.5100  0.0748
 4331TIP3   OH234627   5.463   3.492   5.990  0.2061  0.2904  0.5451
 4331TIP3    H134628   5.469   3.542   6.071 -0.0386 -0.2313  0.8930
 4331TIP3    H234629   5.406   3.418   6.011 -1.5534  1.2260 -0.6598
 4332TIP3   OH234630   4.279   2.264   0.087 -0.3823 -0.0363  0.1870
 4332TIP3    H134631   4.336   2.304   0.021 -1.4128 -0.8896 -1.2878
 4332TIP3    H234632   4.323   2.279   0.170  0.6810  1.5917 -0.6325
 4333TIP3   OH234633   1.378   0.208   1.055 -0.4202 -0.1929 -0.3802
 4333TIP3    H134634   1.449   0.230   0.994 -0.0806  0.5233  0.2652
 4333TIP3    H234635   1.321   0.284   1.054 -0.1023  0.0741  0.6313
 4334TIP3   OH234636   6.046   6.732   1.514  0.2730 -0.5850  0.0673
 4334TIP3    H134637   6.029   6.781   1.433  2.7001  0.4817  0.1061
 4334TIP3    H234638   6.074   6.646   1.484  4.2022  0.7215 -0.5423
 4335TIP3   OH234639   4.521   4.061   8.471 -0.0580  0.5092  0.1736
 4335TIP3    H134640   4.497   4.004   8.544 -0.3429  1.2620  0.6887
 4335TIP3    H234641   4.604   4.100   8.497 -0.0981  0.6845  0.0402
 4336TIP3   OH234642   6.180   0.734   2.244  0.0915 -0.3363 -0.5936
 4336TIP3    H134643   6.245   0.771   2.304 -2.4330 -0.5256  2.5641
 4336TIP3    H234644   6.155   0.807   2.187  0.8802  0.5948  0.2096
 4337TIP3   OH234645   1.599   3.933   7.808  0.2585  0.2502 -0.0516
 4337TIP3    H134646   1.645   3.977   7.737 -0.3374 -2.3962 -2.2704
 4337TIP3    H234647   1.593   3.842   7.780 -3.8265 -0.1489  1.3457
 4338TIP3   OH234648   5.274   1.876   8.201  0.3275 -1.1048 -0.1498
 4338TIP3    H134649   5.304   1.816   8.269  3.5082  1.3777  0.9032
 4338TIP3    H234650   5.355   1.912   8.164 -1.2072  3.5878  0.3999
 4339TIP3   OH234651   5.908   3.472   2.706  0.1274  0.5969 -0.0843
 4339TIP3    H134652   5.836   3.498   2.649 -0.1256 -0.9000 -0.4705
 4339TIP3    H234653   5.906   3.376   2.706  1.5965  0.5401  0.5644
 4340TIP3   OH234654   0.657   0.741   8.025 -0.4213 -0.0700  0.2486
 4340TIP3    H134655   0.610   0.739   7.941 -0.9313 -2.1484  0.5231
 4340TIP3    H234656   0.601   0.792   8.083 -1.0386 -0.2610 -0.1707
 4341TIP3   OH234657   5.827   2.383   0.137 -0.6380 -0.2311 -0.4828
 4341TIP3    H134658   5.841   2.417   0.049 -0.5507  0.0012 -0.3820
 4341TIP3    H234659   5.732   2.369   0.142 -0.6215 -0.4121 -0.6716
 4342TIP3   OH234660   0.988   5.425   0.887  0.8441  0.6739 -0.0900
 4342TIP3    H134661   0.905   5.387   0.859 -0.2405  2.9475 -0.2407
 4342TIP3    H234662   1.042   5.350   0.913 -2.1536 -0.8124  2.5127
 4343TIP3   OH234663   2.086   1.721   1.485  0.5911 -0.0872  0.2544
 4343TIP3    H134664   2.153   1.789   1.485  0.9890 -0.4699  0.4741
 4343TIP3    H234665   2.123   1.652   1.430 -0.1041  0.1550 -0.5297
 4344TIP3   OH234666   5.388   1.830   2.284  0.4875 -0.3011  0.4976
 4344TIP3    H134667   5.359   1.835   2.375  0.9043 -1.2281  0.6950
 4344TIP3    H234668   5.345   1.752   2.250 -0.5579  0.6457 -0.4489
 4345TIP3   OH234669   0.073   0.828   0.274  0.4252  0.1232  0.5497
 4345TIP3    H134670   0.054   0.881   0.197 -1.0503 -1.5112 -0.2916
 4345TIP3    H234671   0.005   0.852   0.337 -0.1776 -0.6198  0.2083
 4346TIP3   OH234672   5.746   6.507   0.428 -0.1525  0.6382 -0.6802
 4346TIP3    H134673   5.798   6.439   0.470 -1.3846  1.0780  1.7018
 4346TIP3    H234674   5.727   6.471   0.341 -1.8791 -2.7429  0.8937
 4347TIP3   OH234675   2.228   0.408   6.773  0.2063  0.3031 -0.1360
 4347TIP3    H134676   2.246   0.318   6.747  0.1410  0.6462 -1.4344
 4347TIP3    H234677   2.134   0.419   6.756  0.2008  0.6020  0.0820
 4348TIP3   OH234678   4.010   5.461   2.200  0.7120 -0.4396 -0.0351
 4348TIP3    H134679   3.975   5.429   2.117  2.1431  1.3214 -1.3901
 4348TIP3    H234680   4.055   5.385   2.238 -0.6187 -1.4668 -0.4661
 4349TIP3   OH234681   3.941   4.040   8.217 -0.1883  0.5593 -0.3328
 4349TIP3    H134682   3.875   4.004   8.277  0.5880 -1.7359 -0.7548
 4349TIP3    H234683   3.919   4.001   8.132 -0.2439  2.4098 -1.2109
 4350TIP3   OH234684   3.098   3.310   1.429  0.0661  0.3474 -0.1415
 4350TIP3    H134685   3.087   3.386   1.372 -0.3146 -0.5489 -1.2976
 4350TIP3    H234686   3.033   3.247   1.399 -0.4122 -0.0227  1.5526
 4351TIP3   OH234687   6.373   3.919   8.533 -0.1948 -0.6263 -0.2361
 4351TIP3    H134688   6.281   3.918   8.508 -0.1272 -0.4651 -0.4953
 4351TIP3    H234689   6.377   3.867   8.613 -0.8364  1.0763  0.9402
 4352TIP3   OH234690   1.473   2.106   8.110 -0.8198 -0.3791  0.3694
 4352TIP3    H134691   1.411   2.074   8.044  0.2938  0.0261 -0.9273
 4352TIP3    H234692   1.457   2.051   8.186 -0.3783 -2.7125 -1.1124
 4353TIP3   OH234693   4.995   0.283   1.093 -0.8598 -0.1576 -0.0987
 4353TIP3    H134694   4.904   0.268   1.120 -0.8937  2.8891  2.0776
 4353TIP3    H234695   5.040   0.308   1.174  1.3565  0.6471 -1.4746
 4354TIP3   OH234696   2.429   0.411   1.158 -0.4302 -0.3906 -0.1007
 4354TIP3    H134697   2.436   0.347   1.087  0.6241  1.1822 -1.4850
 4354TIP3    H234698   2.514   0.454   1.161 -1.4666  1.8545 -0.1500
 4355TIP3   OH234699   4.216   6.413   0.632  0.4247  0.3431  0.3679
 4355TIP3    H134700   4.177   6.367   0.707 -1.6181  0.0161 -0.8455
 4355TIP3    H234701   4.160   6.489   0.618 -0.5761 -0.7245 -2.0971
 4356TIP3   OH234702   5.079   6.047   1.238  0.0219  0.5962  0.2438
 4356TIP3    H134703   5.031   6.014   1.162  1.3138  1.8729 -1.1832
 4356TIP3    H234704   5.169   6.019   1.224 -0.1244 -1.5306  2.7497
 4357TIP3   OH234705   5.668   4.814   0.553  0.0969  0.3371  0.6054
 4357TIP3    H134706   5.718   4.818   0.635  0.3425 -0.6379  0.5101
 4357TIP3    H234707   5.733   4.834   0.485 -0.0061  0.6942  0.6115
 4358TIP3   OH234708   4.343   3.796   6.635 -1.3157  0.2096  0.1721
 4358TIP3    H134709   4.281   3.866   6.615 -0.7301  0.2943 -1.4647
 4358TIP3    H234710   4.429   3.833   6.616 -1.0409 -1.1735 -1.5633
 4359TIP3   OH234711   6.667   4.799   0.724  0.0068 -0.4521 -0.6682
 4359TIP3    H134712   6.735   4.850   0.769 -2.3196  2.7109 -0.3646
 4359TIP3    H234713   6.630   4.743   0.792  0.8534 -0.5804 -0.3014
 4360TIP3   OH234714   1.537   5.232   1.339  0.1958  0.7099 -0.1633
 4360TIP3    H134715   1.606   5.296   1.323  0.2557  0.6129 -0.2875
 4360TIP3    H234716   1.562   5.189   1.421  1.5413 -0.9894 -1.3897
 4361TIP3   OH234717   3.844   2.862   1.360  0.3619 -0.0703 -0.4605
 4361TIP3    H134718   3.872   2.922   1.430 -0.8964  1.3806 -1.1511
 4361TIP3    H234719   3.751   2.847   1.378 -0.1132  0.7224 -2.0625
 4362TIP3   OH234720   3.396   3.026   7.563  0.0408 -0.1245  0.3535
 4362TIP3    H134721   3.436   3.020   7.649  1.2768  0.6133 -0.1479
 4362TIP3    H234722   3.419   2.943   7.520  0.8638  0.2077  0.1434
 4363TIP3   OH234723   0.483   1.692   1.390 -0.1826  0.3641 -0.0151
 4363TIP3    H134724   0.389   1.713   1.392 -0.0429  1.1989 -1.1213
 4363TIP3    H234725   0.526   1.775   1.408  0.3578  0.2666 -0.8233
 4364TIP3   OH234726   6.224   4.507   0.439 -0.6579 -0.0299  0.0767
 4364TIP3    H134727   6.239   4.417   0.412  0.1319  0.0048  0.3638
 4364TIP3    H234728   6.229   4.558   0.358 -0.0621 -0.1315  0.0420
 4365TIP3   OH234729   3.233   5.917   1.539 -0.1736  0.2073  0.0457
 4365TIP3    H134730   3.247   5.954   1.626 -1.1024  1.0219 -0.1356
 4365TIP3    H234731   3.163   5.970   1.501 -0.2062 -0.5289 -0.9667
 4366TIP3   OH234732   6.115   4.955   0.826  0.1208 -0.4826  0.2198
 4366TIP3    H134733   6.038   4.923   0.874 -0.5701  0.4351 -0.2407
 4366TIP3    H234734   6.123   4.895   0.751 -0.9803  0.2023 -0.4713
 4367TIP3   OH234735   1.609   5.320   0.267  0.2184 -0.5709 -0.2716
 4367TIP3    H134736   1.547   5.350   0.201 -0.1762  1.1693  0.8357
 4367TIP3    H234737   1.684   5.379   0.257 -0.0280 -0.0032  1.1020
 4368TIP3   OH234738   0.824   6.266   6.353 -0.3619  0.1269 -0.0994
 4368TIP3    H134739   0.826   6.351   6.310 -0.3427  0.0887 -0.1745
 4368TIP3    H234740   0.884   6.276   6.428  2.8396 -0.9750 -2.2915
 4369TIP3   OH234741   4.297   1.890   1.218  0.3484 -0.2872  0.5907
 4369TIP3    H134742   4.321   1.848   1.135  1.6413 -0.0132  0.8010
 4369TIP3    H234743   4.376   1.883   1.271 -0.1206  0.5194  1.4104
 4370TIP3   OH234744   3.875   5.681   2.252  0.1079  0.9011 -0.1081
 4370TIP3    H134745   3.921   5.598   2.238  0.5193  1.0558  0.3063
 4370TIP3    H234746   3.803   5.680   2.188  0.3158  0.3814 -0.3365
 4371TIP3   OH234747   0.308   5.483   6.934 -0.6287  0.4512 -0.0567
 4371TIP3    H134748   0.359   5.504   6.856 -1.3245 -0.3609 -0.7482
 4371TIP3    H234749   0.344   5.400   6.966 -0.8387  0.4004  0.0535
 4372TIP3   OH234750   5.561   5.365   0.872 -0.3274  0.2794 -0.7398
 4372TIP3    H134751   5.587   5.298   0.935 -3.1759 -0.0635  0.2067
 4372TIP3    H234752   5.558   5.319   0.788  1.0755  0.1416 -0.7488
 4373TIP3   OH234753   1.771   4.359   6.652  0.0947 -0.1960 -0.3643
 4373TIP3    H134754   1.686   4.319   6.631 -0.3796 -0.3446  1.6676
 4373TIP3    H234755   1.835   4.289   6.637 -0.2797 -0.4834 -0.6336
 4374TIP3   OH234756   1.964   0.662   7.276  0.1530  0.2410 -0.0147
 4374TIP3    H134757   1.877   0.642   7.242  0.3225 -0.2772 -0.1686
 4374TIP3    H234758   2.017   0.679   7.198 -0.1255  1.9737  0.1356
 4375TIP3   OH234759   6.418   0.974   7.591  0.0932 -1.1560 -0.2570
 4375TIP3    H134760   6.441   1.011   7.506 -0.4022  3.0764  1.2152
 4375TIP3    H234761   6.323   0.963   7.588  0.0435 -0.7588 -0.1843
 4376TIP3   OH234762   3.921   2.131   7.103 -0.3592  0.1833 -0.7414
 4376TIP3    H134763   3.983   2.202   7.120  0.2255 -0.1546 -1.4543
 4376TIP3    H234764   3.893   2.102   7.190 -0.2169  0.9377 -0.4336
 4377TIP3   OH234765   2.527   0.186   0.630  0.1056 -0.2450 -0.1575
 4377TIP3    H134766   2.580   0.166   0.707 -1.8801  0.8224  1.5512
 4377TIP3    H234767   2.514   0.281   0.633 -1.7650 -0.4503 -0.5951
 4378TIP3   OH234768   5.671   4.086   0.035  0.3875 -0.0385  0.2456
 4378TIP3    H134769   5.760   4.069   0.065  0.8837 -1.0021 -1.6167
 4378TIP3    H234770   5.675   4.075  -0.060 -1.7867 -0.4354  0.1462
 4379TIP3   OH234771   0.277   5.693   0.308 -0.5059  0.2378 -0.4273
 4379TIP3    H134772   0.362   5.656   0.331  0.1844  1.2731 -1.2000
 4379TIP3    H234773   0.223   5.618   0.285  0.2096 -0.4337  0.0414
 4380TIP3   OH234774   4.166   1.789   8.137  0.2704  0.0133  0.7042
 4380TIP3    H134775   4.191   1.814   8.048 -1.9407  0.8770  0.2696
 4380TIP3    H234776   4.188   1.696   8.142  1.7543  0.2810 -0.2246
 4381TIP3   OH234777   0.387   3.977   6.618  0.1545 -0.3101 -0.0204
 4381TIP3    H134778   0.463   4.018   6.576  1.4698  0.9680  3.2813
 4381TIP3    H234779   0.413   3.886   6.630  0.6061 -0.1912 -0.0803
 4382TIP3   OH234780   2.438   1.573   1.420  0.1005  0.6663  0.3806
 4382TIP3    H134781   2.369   1.513   1.449 -0.2091  1.3865  1.1817
 4382TIP3    H234782   2.514   1.548   1.472  0.5761 -0.3924 -0.7916
 4383TIP3   OH234783   3.225   2.259   8.160  0.1477  0.3907 -0.2871
 4383TIP3    H134784   3.291   2.295   8.102  1.2930  0.1105  0.8005
 4383TIP3    H234785   3.150   2.242   8.103  0.7191  1.4382 -1.4045
 4384TIP3   OH234786   1.341   6.500   0.670  0.6542 -0.1906  0.3178
 4384TIP3    H134787   1.397   6.451   0.730  0.5320  1.8488  2.2621
 4384TIP3    H234788   1.264   6.523   0.723 -0.8601 -0.7542 -1.5309
 4385TIP3   OH234789   3.461   4.334   0.328  0.4997 -0.6684 -0.1827
 4385TIP3    H134790   3.399   4.407   0.335  0.5274 -0.7453  1.1760
 4385TIP3    H234791   3.506   4.349   0.245 -1.0091 -0.3560 -0.9928
 4386TIP3   OH234792   2.935   6.247   1.930  0.2231  0.1309 -0.0440
 4386TIP3    H134793   3.007   6.279   1.984 -1.2970  1.7050  1.1490
 4386TIP3    H234794   2.860   6.302   1.954 -1.3828 -1.4095 -1.2638
 4387TIP3   OH234795   5.122   1.209   1.581  0.0578 -0.0715 -0.1425
 4387TIP3    H134796   5.057   1.181   1.517 -2.1884 -0.6601  2.2184
 4387TIP3    H234797   5.118   1.305   1.580  0.3148 -0.0644 -1.0896
 4388TIP3   OH234798   5.279   3.686   0.749  0.4457 -0.2217 -0.3308
 4388TIP3    H134799   5.227   3.726   0.818 -0.6017 -1.4571 -0.3820
 4388TIP3    H234800   5.252   3.731   0.669 -1.3553 -1.5261 -0.5163
 4389TIP3   OH234801   6.476   2.779   6.844 -0.2414  0.1974  0.1736
 4389TIP3    H134802   6.521   2.826   6.914  0.8080  0.3828 -0.5958
 4389TIP3    H234803   6.543   2.724   6.805 -0.8994 -0.1886 -0.4416
 4390TIP3   OH234804   5.220   2.579   7.164  0.2201  0.4902 -0.5382
 4390TIP3    H134805   5.151   2.571   7.230  0.7349  0.3231 -0.0007
 4390TIP3    H234806   5.253   2.490   7.153  1.5469  0.7941  0.5655
 4391TIP3   OH234807   5.560   4.852   7.784 -0.4788 -0.4446  0.0100
 4391TIP3    H134808   5.626   4.789   7.755 -0.4864 -0.8521  0.8544
 4391TIP3    H234809   5.582   4.933   7.737  1.6667 -0.0824  1.5222
 4392TIP3   OH234810   2.776   0.537   7.143  0.1834 -0.5050 -0.5766
 4392TIP3    H134811   2.820   0.511   7.062  0.8510 -0.3538 -0.2751
 4392TIP3    H234812   2.759   0.630   7.132  1.3285 -0.2198 -0.0872
 4393TIP3   OH234813   4.054   3.533   7.184 -0.1399  0.8633 -0.4121
 4393TIP3    H134814   3.969   3.574   7.167 -0.6904 -0.6217 -1.4143
 4393TIP3    H234815   4.109   3.561   7.112 -0.2197  0.6525 -0.5556
 4394TIP3   OH234816   4.434   5.696   0.864  0.0395 -0.1037 -0.0221
 4394TIP3    H134817   4.403   5.640   0.935  1.2260 -0.5800  0.1394
 4394TIP3    H234818   4.482   5.637   0.806  0.6284  0.5971 -0.2624
 4395TIP3   OH234819   1.291   4.390   6.639  0.7850  0.0540  0.2757
 4395TIP3    H134820   1.304   4.402   6.733 -0.8805  0.1696  0.5326
 4395TIP3    H234821   1.328   4.304   6.620 -0.5007 -0.8045  1.4397
 4396TIP3   OH234822   0.977   4.396   1.291 -0.4723  0.0463  0.7271
 4396TIP3    H134823   0.943   4.481   1.264 -0.5377  0.4824  2.1407
 4396TIP3    H234824   0.956   4.390   1.384  2.0114 -0.2936  1.3163
 4397TIP3   OH234825   5.085   5.821   6.985 -0.6069 -0.5639 -0.8336
 4397TIP3    H134826   5.093   5.903   7.033  1.2703 -1.2722  0.1734
 4397TIP3    H234827   5.080   5.847   6.893  2.1753  0.6641 -0.7265
 4398TIP3   OH234828   2.099   2.009   6.197  0.0060 -0.4265 -0.5293
 4398TIP3    H134829   2.172   2.039   6.252 -0.3871 -0.2237 -0.1152
 4398TIP3    H234830   2.050   1.950   6.253 -0.2001 -0.4962 -0.7834
 4399TIP3   OH234831   2.227   3.237   6.755 -0.2677 -0.1721 -0.4057
 4399TIP3    H134832   2.215   3.310   6.816  0.0281 -0.0496 -0.4933
 4399TIP3    H234833   2.161   3.173   6.781 -0.5135  0.1184 -0.3152
 4400TIP3   OH234834   1.850   0.083   0.025 -0.3673  0.3474 -0.1315
 4400TIP3    H134835   1.818   0.012   0.080 -0.9635 -0.0223 -0.9297
 4400TIP3    H234836   1.899   0.039  -0.045  1.0673  0.8536  0.5156
 4401TIP3   OH234837   5.329   2.658   0.164  0.2160 -0.3108 -0.2684
 4401TIP3    H134838   5.267   2.586   0.180  1.6263 -1.2123  1.5372
 4401TIP3    H234839   5.285   2.736   0.197 -0.7265 -0.5895 -0.8365
 4402TIP3   OH234840   5.664   5.454   6.975 -0.2614  0.1524  0.1771
 4402TIP3    H134841   5.657   5.510   7.052  1.2695 -0.5977  0.9095
 4402TIP3    H234842   5.748   5.409   6.985 -1.4258 -2.3137 -0.3523
 4403TIP3   OH234843   0.720   2.883   0.754 -0.3304 -0.5993 -0.1112
 4403TIP3    H134844   0.691   2.796   0.726  1.3542 -1.1970 -0.1048
 4403TIP3    H234845   0.738   2.930   0.673 -2.8722  0.3974 -0.1856
 4404TIP3   OH234846   4.813   6.338   8.140 -0.5110  0.7348  0.2381
 4404TIP3    H134847   4.881   6.405   8.131  1.0507 -0.8251 -0.3349
 4404TIP3    H234848   4.737   6.375   8.095  0.0464  2.4003  0.5853
 4405TIP3   OH234849   6.570   2.543   0.582 -0.2562 -0.1798  0.1526
 4405TIP3    H134850   6.602   2.462   0.543 -1.7956 -1.0090  0.5627
 4405TIP3    H234851   6.492   2.518   0.630 -0.0283  1.3280  1.3908
 4406TIP3   OH234852   6.818   4.863   7.685 -0.1782  0.2987 -0.5164
 4406TIP3    H134853   6.827   4.831   7.595  0.2739 -0.5794 -0.1676
 4406TIP3    H234854   6.807   4.785   7.738  1.8193  0.6142  0.4620
 4407TIP3   OH234855   3.884   4.949   1.254  0.0997 -0.2205 -0.6722
 4407TIP3    H134856   3.915   4.865   1.287 -2.2590 -0.5793  0.8563
 4407TIP3    H234857   3.805   4.928   1.205 -1.7228  1.1899  1.4498
 4408TIP3   OH234858   2.978   2.481   1.237 -0.1664  0.2151  0.0833
 4408TIP3    H134859   3.002   2.524   1.155 -0.3106 -0.7597 -0.4838
 4408TIP3    H234860   2.926   2.546   1.284 -0.3108  0.6986 -0.7236
 4409TIP3   OH234861   1.628   1.425   0.449 -0.0249 -0.1303 -0.3864
 4409TIP3    H134862   1.651   1.336   0.421 -0.3428 -0.5286  0.5656
 4409TIP3    H234863   1.683   1.441   0.525  1.2319  1.1562 -1.5226
 4410TIP3   OH234864   1.867   4.849   0.152  0.4581 -0.1329 -0.0135
 4410TIP3    H134865   1.821   4.771   0.183 -0.2480  0.2223 -0.1321
 4410TIP3    H234866   1.800   4.918   0.154  0.2875 -0.1238 -2.4917
 4411TIP3   OH234867   4.421   3.717   6.875 -0.0556  0.2662 -0.0377
 4411TIP3    H134868   4.511   3.751   6.874  1.4312 -3.1749 -0.0849
 4411TIP3    H234869   4.384   3.742   6.791  1.8486 -0.3724 -1.1370
 4412TIP3   OH234870   5.503   3.052   7.540  0.3381 -0.1523  0.4314
 4412TIP3    H134871   5.438   3.119   7.522 -0.1307 -0.7824 -0.2926
 4412TIP3    H234872   5.587   3.091   7.515  0.0516  0.1162 -0.1092
 4413TIP3   OH234873   3.671   0.430   0.543 -0.3103  0.3376  0.0219
 4413TIP3    H134874   3.738   0.362   0.549 -1.3568 -0.6626  0.7198
 4413TIP3    H234875   3.720   0.512   0.544  0.9285 -0.3791  0.0121
 4414TIP3   OH234876   5.504   2.301   7.953  0.5625  0.7553 -0.0785
 4414TIP3    H134877   5.515   2.384   7.999  0.7329  0.8266 -0.2496
 4414TIP3    H234878   5.470   2.325   7.867 -0.6664  0.5592  0.3360
 4415TIP3   OH234879   5.707   4.561   1.413 -0.0033  0.1019 -0.8242
 4415TIP3    H134880   5.772   4.553   1.343 -0.5675  1.1609 -1.4982
 4415TIP3    H234881   5.747   4.621   1.476 -0.2476  0.6370 -1.1679
 4416TIP3   OH234882   5.807   1.144   1.905  0.1537 -0.6223  0.2067
 4416TIP3    H134883   5.871   1.074   1.912  0.9090 -0.3458 -2.7720
 4416TIP3    H234884   5.724   1.099   1.888  0.4652 -0.8489 -0.7623
 4417TIP3   OH234885   6.474   0.218   0.878  0.3643  0.0524  0.4077
 4417TIP3    H134886   6.439   0.281   0.815  1.1122  0.2966  0.2366
 4417TIP3    H234887   6.540   0.169   0.830 -0.0218 -0.6901  0.6145
 4418TIP3   OH234888   6.834   2.862   7.542  0.2531 -0.0047 -0.3992
 4418TIP3    H134889   6.821   2.932   7.477 -0.6041 -0.5846 -0.8729
 4418TIP3    H234890   6.821   2.905   7.626  1.6273  0.8178 -0.5711
 4419TIP3   OH234891   5.770   3.513   7.748  0.0015 -0.0936 -0.1962
 4419TIP3    H134892   5.763   3.609   7.750 -0.5775 -0.1409  0.6238
 4419TIP3    H234893   5.682   3.483   7.726  0.8609 -0.3984 -3.9005
 4420TIP3   OH234894   3.993   2.908   0.701 -0.3987  0.0679 -0.0652
 4420TIP3    H134895   4.075   2.859   0.708  0.0327  0.7501 -0.2189
 4420TIP3    H234896   3.941   2.880   0.776 -1.0669 -2.2322 -1.2635
 4421TIP3   OH234897   3.054   1.103   8.151  0.7771  0.0631 -0.1287
 4421TIP3    H134898   2.973   1.084   8.199  0.7128 -1.1336 -0.6798
 4421TIP3    H234899   3.028   1.170   8.087  0.5888  0.7926  0.6904
 4422TIP3   OH234900   4.093   3.604   0.868 -0.3869  0.1344 -0.0462
 4422TIP3    H134901   4.115   3.543   0.938 -0.3682 -0.5515 -0.6374
 4422TIP3    H234902   4.138   3.569   0.791  2.2621  2.5926  0.2370
 4423TIP3   OH234903   5.779   4.444   7.203 -0.3363 -0.1896 -0.6896
 4423TIP3    H134904   5.859   4.417   7.157  0.9557 -0.7349  1.6840
 4423TIP3    H234905   5.811   4.477   7.287 -2.5604  0.7902 -0.1629
 4424TIP3   OH234906   3.643   3.645   7.760 -0.4776 -0.3176 -0.2970
 4424TIP3    H134907   3.660   3.734   7.728  1.7459 -0.2653  0.8205
 4424TIP3    H234908   3.718   3.594   7.728 -1.4637 -1.6787 -0.4796
 4425TIP3   OH234909   5.776   6.015   8.477 -0.8510 -0.4461 -0.0470
 4425TIP3    H134910   5.825   6.014   8.559 -3.0387  0.3209  1.3595
 4425TIP3    H234911   5.695   5.967   8.497 -0.9037 -1.3362 -2.1582
 4426TIP3   OH234912   0.015   5.703   1.017 -0.2360 -0.1752  0.1876
 4426TIP3    H134913  -0.013   5.624   0.970 -0.1061 -0.3772  0.4454
 4426TIP3    H234914  -0.025   5.695   1.104  0.8789 -0.6407  0.6792
 4427TIP3   OH234915   4.510   1.855   0.743 -0.5100  0.7824 -0.5884
 4427TIP3    H134916   4.527   1.949   0.732  0.8881  0.6246  0.0177
 4427TIP3    H234917   4.552   1.814   0.667  2.1551  0.3821  0.9616
 4428TIP3   OH234918   5.372   1.068   8.555 -0.0702 -0.0468  0.6605
 4428TIP3    H134919   5.343   0.989   8.601 -0.9001  0.3377  0.8023
 4428TIP3    H234920   5.378   1.134   8.624  0.4022  0.0834  0.5011
 4429TIP3   OH234921   2.050   4.965   1.007 -0.1734  0.3932  0.7513
 4429TIP3    H134922   2.048   4.993   1.099 -1.0300  0.8173  0.6142
 4429TIP3    H234923   1.975   5.010   0.967 -0.6648 -0.8957  0.1663
 4430TIP3   OH234924   6.339   4.898   0.128  0.0599  0.1612  0.3211
 4430TIP3    H134925   6.289   4.971   0.092 -0.9579  0.0973  1.5334
 4430TIP3    H234926   6.332   4.829   0.062 -0.2597  0.6374 -0.1488
 4431TIP3   OH234927   2.276   0.266   1.340  1.0964 -0.5222 -1.0062
 4431TIP3    H134928   2.341   0.300   1.279  1.5172 -0.7278 -0.6786
 4431TIP3    H234929   2.231   0.196   1.292 -0.1339  0.8125 -1.8666
 4432TIP3   OH234930   1.262   6.596   8.236  0.4129 -0.3181 -0.4724
 4432TIP3    H134931   1.351   6.612   8.268  1.1464 -0.8089 -2.1388
 4432TIP3    H234932   1.207   6.604   8.314  1.9222 -0.1325  0.6319
 4433TIP3   OH234933   5.547   4.579   6.916 -0.2681  0.1628 -0.0279
 4433TIP3    H134934   5.603   4.618   6.983  1.0157 -1.6355  0.0327
 4433TIP3    H234935   5.461   4.573   6.957 -0.1511  1.5284  0.4579
 4434TIP3   OH234936   2.202   3.331   1.203 -0.4509 -0.4932 -0.1085
 4434TIP3    H134937   2.205   3.360   1.294  0.5716  1.7284 -0.7720
 4434TIP3    H234938   2.276   3.270   1.194  1.4718  1.7163 -0.1342
 4435TIP3   OH234939   3.223   4.155   0.452 -0.1776  0.3382  0.7292
 4435TIP3    H134940   3.195   4.185   0.538  0.0424  0.1647  0.8626
 4435TIP3    H234941   3.216   4.233   0.396  0.8551  0.7777  1.1826
 4436TIP3   OH234942   2.572   0.333   8.393 -0.2714  0.2583  0.5021
 4436TIP3    H134943   2.493   0.381   8.368  0.6423  1.6960  0.2204
 4436TIP3    H234944   2.554   0.301   8.481  0.0090  3.4523  1.8640
 4437TIP3   OH234945   6.104   3.504   7.945 -0.7995 -0.1036 -0.4825
 4437TIP3    H134946   6.086   3.524   8.037  0.8762  0.0607 -0.1642
 4437TIP3    H234947   6.099   3.589   7.900  0.9789  0.2817 -0.0514
 4438TIP3   OH234948   1.672   4.510   8.566  0.0674 -0.3640  0.4674
 4438TIP3    H134949   1.623   4.581   8.608  1.0465 -0.3972  1.7308
 4438TIP3    H234950   1.630   4.499   8.481 -1.6685  0.0559  1.2275
 4439TIP3   OH234951   6.773   1.264   7.985 -0.2862 -0.2208 -0.3867
 4439TIP3    H134952   6.777   1.334   7.920 -3.0298  1.3235  0.9034
 4439TIP3    H234953   6.780   1.308   8.069 -4.0723 -1.0081  0.5750
 4440TIP3   OH234954   5.969   5.209   1.983 -0.7431  0.1899  0.5816
 4440TIP3    H134955   5.897   5.242   1.928 -1.4724 -0.2161  1.2730
 4440TIP3    H234956   5.956   5.114   1.984  0.2217  0.0484  0.1499
 4441TIP3   OH234957   2.572   6.235   1.048  0.0614 -0.0323  0.3890
 4441TIP3    H134958   2.591   6.196   1.133 -1.6408 -0.8157  0.4565
 4441TIP3    H234959   2.527   6.166   0.999 -1.9774  1.4183  0.0757
 4442TIP3   OH234960   3.695   4.769   0.686 -0.5368 -0.6509  0.7013
 4442TIP3    H134961   3.747   4.707   0.737  1.2838 -2.7597 -3.2502
 4442TIP3    H234962   3.620   4.718   0.655  0.1027 -0.4883 -1.2534
 4443TIP3   OH234963   2.489   3.342   7.937 -0.3937 -0.1109 -0.3439
 4443TIP3    H134964   2.414   3.372   7.886  0.8161 -0.2949 -2.3044
 4443TIP3    H234965   2.556   3.409   7.924 -0.4271  0.4756  2.0573
 4444TIP3   OH234966   6.062   0.043   2.599 -0.5877 -0.1030 -0.2641
 4444TIP3    H134967   6.136   0.020   2.543  1.1569 -1.7543  2.5142
 4444TIP3    H234968   6.077   0.135   2.621 -0.7091  0.2494 -1.5452
 4445TIP3   OH234969   5.642   6.201   2.516 -0.0767 -0.5370  0.3546
 4445TIP3    H134970   5.628   6.107   2.500 -0.6529 -0.1227 -1.9818
 4445TIP3    H234971   5.556   6.235   2.537 -0.3400 -0.1813 -1.1506
 4446TIP3   OH234972   4.448   4.758   7.155  0.4587 -0.0646 -0.6317
 4446TIP3    H134973   4.505   4.812   7.210  0.3164  0.2414 -0.7769
 4446TIP3    H234974   4.487   4.765   7.068 -1.7814  3.2245 -1.5974
 4447TIP3   OH234975   5.187   4.313   0.546  0.2725  0.1003 -0.0992
 4447TIP3    H134976   5.259   4.314   0.483 -0.9034  0.1693 -1.4929
 4447TIP3    H234977   5.109   4.330   0.493 -0.8762 -0.8103  1.2431
 4448TIP3   OH234978   2.037   5.591   1.174 -0.1253 -0.4808  0.6106
 4448TIP3    H134979   2.109   5.617   1.231 -0.2332  1.9512 -0.2354
 4448TIP3    H234980   1.960   5.635   1.211 -0.2659  0.8190 -1.1285
 4449TIP3   OH234981   3.746   3.863   0.785 -0.7257 -0.0377 -0.0555
 4449TIP3    H134982   3.823   3.868   0.842 -0.5995  0.1724 -0.2413
 4449TIP3    H234983   3.773   3.805   0.714 -0.4805  0.6028 -0.5044
 4450TIP3   OH234984   0.472   4.133   1.601  0.5669  0.6953 -1.0138
 4450TIP3    H134985   0.527   4.122   1.679  0.8046  0.3904 -1.2225
 4450TIP3    H234986   0.482   4.051   1.554 -2.7252 -0.7928  0.6009
 4451TIP3   OH234987   3.730   1.959   2.153  0.0613 -0.2291 -0.4321
 4451TIP3    H134988   3.637   1.948   2.136 -0.6035  1.3427  1.7345
 4451TIP3    H234989   3.746   2.053   2.144  1.1690 -0.3249  0.2969
 4452TIP3   OH234990   3.519   5.165   2.466  0.5060 -0.3036 -0.4226
 4452TIP3    H134991   3.488   5.254   2.480 -0.5194 -0.9796  2.0967
 4452TIP3    H234992   3.443   5.110   2.486  1.6929 -1.8072  0.1649
 4453TIP3   OH234993   2.046   6.230   7.467  0.1594 -0.1877 -0.3032
 4453TIP3    H134994   2.128   6.233   7.517  0.4655  0.4520 -0.8323
 4453TIP3    H234995   2.073   6.217   7.376 -0.1771  2.1450 -0.8009
 4454TIP3   OH234996   4.217   4.868   2.160  0.1123  0.1742 -0.0241
 4454TIP3    H134997   4.278   4.836   2.227  1.6148 -0.6511 -1.6861
 4454TIP3    H234998   4.163   4.793   2.139  0.2819  0.1497 -0.3868
 4455TIP3   OH234999   4.970   1.788   0.918  0.7135  0.1954 -0.7575
 4455TIP3    H135000   4.924   1.798   1.002 -0.0729 -3.5006 -0.5967
 4455TIP3    H235001   4.980   1.878   0.886 -0.3790  1.6374  2.5115
 4456TIP3   OH235002   5.026   1.577   7.371 -0.6432  0.4198  0.3902
 4456TIP3    H135003   5.058   1.636   7.303  2.6165 -1.9577 -0.4216
 4456TIP3    H235004   4.954   1.530   7.331 -1.1182  1.5353 -0.0900
 4457TIP3   OH235005   2.730   3.813   0.041 -0.3113 -0.5000 -0.4523
 4457TIP3    H135006   2.800   3.842  -0.017 -1.4694 -1.0097 -2.1602
 4457TIP3    H235007   2.750   3.855   0.125  0.5951  1.4688 -1.5903
 4458TIP3   OH235008   3.037   1.499   0.636  0.1094 -0.5079 -0.3027
 4458TIP3    H135009   3.033   1.407   0.663  1.7974 -0.2853  0.8510
 4458TIP3    H235010   3.033   1.549   0.718 -1.4781  0.5189 -0.9492
 4459TIP3   OH235011   1.101   2.949   1.126  0.2904 -0.2789 -0.2901
 4459TIP3    H135012   1.062   2.880   1.072 -1.2628  0.5504 -0.2882
 4459TIP3    H235013   1.091   2.918   1.216  0.5983 -0.5335 -0.3414
 4460TIP3   OH235014   0.652   4.003   6.540 -0.1510 -0.1633  0.3300
 4460TIP3    H135015   0.632   3.915   6.572  0.6873 -1.4135 -2.3038
 4460TIP3    H235016   0.700   4.044   6.612 -0.7465 -1.7748  1.7112
 4461TIP3   OH235017   1.841   3.722   1.881 -0.0022  0.3778  0.5639
 4461TIP3    H135018   1.842   3.665   1.959  0.4267  0.6414  0.7548
 4461TIP3    H235019   1.893   3.675   1.816  0.1326  0.4300  0.6338
 4462TIP3   OH235020   1.708   2.491   7.368 -0.3027 -0.5236 -0.1605
 4462TIP3    H135021   1.726   2.426   7.436  0.3931 -0.7312 -0.5320
 4462TIP3    H235022   1.752   2.457   7.290  0.4434  0.5948 -0.2575
 4463TIP3   OH235023   4.528   3.393   7.792  0.1811 -0.3923 -0.3226
 4463TIP3    H135024   4.434   3.388   7.776 -0.3070  3.6185  0.1960
 4463TIP3    H235025   4.541   3.346   7.874 -1.4920 -0.5874 -0.1286
 4464TIP3   OH235026   4.830   6.460   2.689 -0.4114 -0.1411 -0.1354
 4464TIP3    H135027   4.852   6.440   2.780 -0.9093  1.5975  0.4187
 4464TIP3    H235028   4.910   6.442   2.640 -0.3447 -1.7539  0.5171
 4465TIP3   OH235029   4.272   5.573   1.043 -0.1477  0.1334  0.0516
 4465TIP3    H135030   4.270   5.513   0.969  1.4115  0.5915 -0.4147
 4465TIP3    H235031   4.288   5.517   1.119  1.2410 -0.0803 -0.3715
 4466TIP3   OH235032   5.738   6.729   1.193 -0.4260  0.6198 -0.1618
 4466TIP3    H135033   5.783   6.811   1.174 -1.0986  0.7381 -1.3067
 4466TIP3    H235034   5.681   6.714   1.118 -0.9075 -0.4928  0.3942
 4467TIP3   OH235035   6.163   6.609   7.927  0.6010 -0.5674  0.3314
 4467TIP3    H135036   6.248   6.631   7.889  0.5719  2.9134  1.9243
 4467TIP3    H235037   6.181   6.590   8.019 -0.3567  0.7662  0.8250
 4468TIP3   OH235038   3.679   2.596   8.183 -0.1023 -0.2633 -0.0244
 4468TIP3    H135039   3.677   2.522   8.244 -0.9684  0.2236  0.5464
 4468TIP3    H235040   3.772   2.607   8.163  0.0086 -1.7713 -0.4565
 4469TIP3   OH235041   3.127   5.833   1.146 -0.7702 -0.0123 -0.0771
 4469TIP3    H135042   3.059   5.886   1.106 -0.5560 -1.4560 -2.5441
 4469TIP3    H235043   3.162   5.780   1.075  2.9596  0.6034  1.0294
 4470TIP3   OH235044   5.456   3.887   7.948 -0.1656 -0.1579 -0.2571
 4470TIP3    H135045   5.552   3.884   7.945 -0.1967 -1.1271 -1.0092
 4470TIP3    H235046   5.430   3.795   7.942 -1.1394  0.0359  0.6473
 4471TIP3   OH235047   5.449   3.391   7.787 -0.6440  0.3560  0.0206
 4471TIP3    H135048   5.488   3.386   7.700 -0.8291  2.2256 -0.2190
 4471TIP3    H235049   5.385   3.320   7.789 -0.2052 -0.0960 -1.1369
 4472TIP3   OH235050   6.312   6.123   8.367 -0.1826 -0.7773 -0.4081
 4472TIP3    H135051   6.264   6.114   8.449  0.1930 -1.3216 -0.2427
 4472TIP3    H235052   6.257   6.179   8.313  0.0211  0.3974  0.5625
 4473TIP3   OH235053   3.108   3.608   8.171  0.0132  0.2427  0.8176
 4473TIP3    H135054   3.094   3.554   8.248 -3.8074 -0.7796 -0.3494
 4473TIP3    H235055   3.132   3.546   8.102 -4.0342 -0.1859 -0.4402
 4474TIP3   OH235056   5.894   2.922   1.632 -0.2131 -0.0847 -0.5894
 4474TIP3    H135057   5.876   3.012   1.662  1.4343 -0.4572  1.8994
 4474TIP3    H235058   5.981   2.928   1.593  0.4290 -0.7599  0.6820
 4475TIP3   OH235059   5.329   6.215   0.908  0.3617  0.5402 -0.3775
 4475TIP3    H135060   5.299   6.125   0.896 -0.5384  0.6263  1.0132
 4475TIP3    H235061   5.415   6.207   0.949  0.4179  0.3170 -0.5394
 4476TIP3   OH235062   2.194   4.908   1.612 -0.3743 -0.7305 -0.3650
 4476TIP3    H135063   2.247   4.987   1.603  2.1209 -2.0198  1.6739
 4476TIP3    H235064   2.220   4.854   1.537  0.0761 -0.7614 -0.1868
 4477TIP3   OH235065   3.854   5.898   2.466  0.7908 -0.1733  0.4226
 4477TIP3    H135066   3.856   5.860   2.379 -1.2503  0.4223  0.0627
 4477TIP3    H235067   3.772   5.868   2.504  2.0099 -1.1348  2.5197
 4478TIP3   OH235068   0.473   6.862   8.008  0.1939  0.1114  0.2342
 4478TIP3    H135069   0.440   6.791   8.062  0.9559  0.0855  0.6798
 4478TIP3    H235070   0.395   6.910   7.980 -0.1669  1.5407  3.2669
 4479TIP3   OH235071   0.204   5.422   7.577 -0.1147 -0.0725 -0.8099
 4479TIP3    H135072   0.134   5.479   7.607  0.1329  1.0865 -2.2978
 4479TIP3    H235073   0.159   5.350   7.534 -0.4197 -0.8355  0.7176
 4480TIP3   OH235074   3.083   6.088   7.708  0.1246  0.0573 -0.1566
 4480TIP3    H135075   3.142   6.027   7.752 -0.5585 -0.0641  0.6028
 4480TIP3    H235076   2.997   6.046   7.711 -0.6962  1.6965  1.7621
 4481TIP3   OH235077   1.174   0.306   2.110  0.2422  0.3769  0.2487
 4481TIP3    H135078   1.192   0.396   2.080 -1.2694  0.6544  0.0942
 4481TIP3    H235079   1.090   0.312   2.154  1.0168 -0.6303  1.9458
 4482TIP3   OH235080   3.582   3.103   7.224  0.0905 -0.0098 -0.0717
 4482TIP3    H135081   3.647   3.066   7.283 -0.0666 -0.0683  0.0637
 4482TIP3    H235082   3.579   3.042   7.150 -0.0004 -0.1460  0.0436
 4483TIP3   OH235083   4.940   4.256   0.317 -0.2135  0.5707 -0.0565
 4483TIP3    H135084   5.034   4.238   0.305 -0.3911  0.3183 -1.1719
 4483TIP3    H235085   4.935   4.352   0.319  0.1349  0.5823  0.6564
 4484TIP3   OH235086   0.151   5.120   2.291  0.5451 -0.3454 -0.5174
 4484TIP3    H135087   0.228   5.072   2.261  2.2848  1.6754  0.4571
 4484TIP3    H235088   0.143   5.193   2.231  0.5494  0.4857  0.4568
 4485TIP3   OH235089   1.219   5.301   8.333  0.0517  0.2512  0.1238
 4485TIP3    H135090   1.254   5.271   8.417 -0.3663 -1.7774 -0.3897
 4485TIP3    H235091   1.151   5.364   8.357  0.6667  0.5057  1.2633
 4486TIP3   OH235092   5.387   4.924   8.262 -0.5809 -0.1629 -0.1933
 4486TIP3    H135093   5.322   4.854   8.258 -0.7436 -0.2740  2.5848
 4486TIP3    H235094   5.360   4.978   8.336  1.1007  1.2526 -0.5509
 4487TIP3   OH235095   3.023   4.375   6.583  0.1976 -0.0298 -0.4092
 4487TIP3    H135096   3.058   4.294   6.544  1.2375  0.4995 -0.6182
 4487TIP3    H235097   2.963   4.344   6.651 -0.5285 -0.9687 -1.4406
 4488TIP3   OH235098   0.753   1.747   0.787 -0.0983  0.2084  0.7958
 4488TIP3    H135099   0.791   1.699   0.713 -1.3197 -1.0859  0.9631
 4488TIP3    H235100   0.686   1.802   0.748 -0.0482  0.2929  0.8292
 4489TIP3   OH235101   5.315   6.189   1.613 -0.1118  0.1205 -0.6741
 4489TIP3    H135102   5.287   6.222   1.528 -1.7459 -0.5947 -0.4514
 4489TIP3    H235103   5.326   6.094   1.599 -0.6247 -0.0370 -0.0333
 4490TIP3   OH235104   5.880   6.229   2.724  0.0769 -0.0936  0.2400
 4490TIP3    H135105   5.793   6.208   2.758 -0.4800 -0.0315 -1.0843
 4490TIP3    H235106   5.939   6.170   2.771 -0.7765 -0.7094  0.5660
 4491TIP3   OH235107   1.536   3.300   0.101  0.1161  0.3208  0.1427
 4491TIP3    H135108   1.464   3.263   0.049  1.1688 -0.3238 -0.8815
 4491TIP3    H235109   1.573   3.225   0.148  0.3157  0.6034  0.4401
 4492TIP3   OH235110   1.693   6.240   0.257 -0.5497 -0.3639 -0.1389
 4492TIP3    H135111   1.630   6.298   0.214 -0.5998 -1.1678 -1.2089
 4492TIP3    H235112   1.718   6.286   0.337 -0.0716  1.4377 -1.2773
 4493TIP3   OH235113   5.378   4.333   7.426 -0.1079  0.4878 -0.3335
 4493TIP3    H135114   5.292   4.319   7.386 -0.1164  1.5898 -0.7464
 4493TIP3    H235115   5.363   4.403   7.490  0.4027  0.4179 -0.1339
 4494TIP3   OH235116   4.656   3.089   8.514  0.3885  0.2841  0.1626
 4494TIP3    H135117   4.628   3.066   8.603  0.8370 -0.1288  0.2011
 4494TIP3    H235118   4.725   3.154   8.527 -0.4626  1.2328  0.0690
 4495TIP3   OH235119   0.557   1.162   1.354 -0.2032  0.8306  0.6217
 4495TIP3    H135120   0.623   1.150   1.286 -1.8268  1.0111 -1.0639
 4495TIP3    H235121   0.474   1.171   1.306 -1.3416  1.5460  2.5977
 4496TIP3   OH235122   3.602   1.420   0.930  0.6496 -0.0771  0.4113
 4496TIP3    H135123   3.535   1.388   0.990  1.6704 -0.6178  1.2932
 4496TIP3    H235124   3.657   1.477   0.983  1.0634  0.1523 -0.2418
 4497TIP3   OH235125   0.111   2.796   8.031 -0.1196  0.0483 -0.7011
 4497TIP3    H135126   0.119   2.743   7.951  2.4856  0.5916 -0.9001
 4497TIP3    H235127   0.088   2.883   8.000 -0.4022 -0.0328 -0.7250
 4498TIP3   OH235128   6.336   0.344   0.620  0.2860  0.2313 -0.0608
 4498TIP3    H135129   6.354   0.260   0.578 -2.3142 -1.5315  1.9420
 4498TIP3    H235130   6.277   0.389   0.560  0.7609  0.1157 -0.6213
 4499TIP3   OH235131   1.520   3.137   1.399  0.0617 -0.0552 -0.5693
 4499TIP3    H135132   1.511   3.045   1.373  0.5076 -0.7659  1.5387
 4499TIP3    H235133   1.453   3.149   1.467 -0.8286  1.5720 -1.6747
 4500TIP3   OH235134   0.881   5.878   7.492 -0.1102  0.4491 -0.2537
 4500TIP3    H135135   0.934   5.956   7.510  2.3625 -1.4115  1.1928
 4500TIP3    H235136   0.846   5.892   7.404  0.8504  2.8460 -0.3180
 4501TIP3   OH235137   5.260   3.096   6.837  0.4401  0.0049 -0.1978
 4501TIP3    H135138   5.270   3.155   6.762  2.6909 -0.7543 -0.5697
 4501TIP3    H235139   5.257   3.008   6.799 -1.9492 -0.2484  0.4146
 4502TIP3   OH235140   5.112   5.144   6.905 -0.4150 -0.8553  0.3948
 4502TIP3    H135141   5.107   5.190   6.822  0.3451  0.6308  1.1230
 4502TIP3    H235142   5.178   5.076   6.892  0.0405 -0.3316 -0.0899
 4503TIP3   OH235143   1.536   5.775   0.689  0.2975 -0.6455  0.2928
 4503TIP3    H135144   1.450   5.737   0.710  0.6784 -0.8300  1.5937
 4503TIP3    H235145   1.525   5.811   0.601 -0.6130 -2.1785 -0.2739
 4504TIP3   OH235146   5.862   2.707   7.624 -0.1518 -0.1031  0.8054
 4504TIP3    H135147   5.795   2.773   7.642 -1.2675 -0.9043 -0.2025
 4504TIP3    H235148   5.859   2.695   7.529  0.7909 -0.8102  0.8524
 4505TIP3   OH235149   4.406   2.461   7.274 -0.0798  0.2569 -0.5296
 4505TIP3    H135150   4.451   2.444   7.191  3.2064 -2.3438  1.5030
 4505TIP3    H235151   4.356   2.382   7.291  0.5055  0.1238  0.6336
 4506TIP3   OH235152   1.178   0.620   0.200 -0.0290 -0.2585 -0.1170
 4506TIP3    H135153   1.161   0.664   0.116  0.4804  2.1841  0.9995
 4506TIP3    H235154   1.264   0.650   0.226 -1.0831  0.8300  2.3471
 4507TIP3   OH235155   5.262   1.380   1.301  0.1120  0.6118 -0.1972
 4507TIP3    H135156   5.288   1.338   1.219 -2.9514  0.5905 -1.2682
 4507TIP3    H235157   5.230   1.467   1.275  2.0147  1.9128  1.4398
 4508TIP3   OH235158   3.587   5.243   6.696  0.0279  0.0338 -0.4562
 4508TIP3    H135159   3.498   5.266   6.672  0.2950  0.9285 -0.6428
 4508TIP3    H235160   3.580   5.208   6.785 -0.4412  0.5995 -0.2664
 4509TIP3   OH235161   5.015   2.281   7.965  0.1633 -0.2330  0.1251
 4509TIP3    H135162   5.087   2.277   8.028  0.3452 -1.2891 -0.1240
 4509TIP3    H235163   5.051   2.329   7.890  0.0303  0.7913  0.6938
 4510TIP3   OH235164   0.348   4.793   1.255  0.1623 -0.3876 -0.0188
 4510TIP3    H135165   0.352   4.852   1.180 -1.6740 -1.1542 -0.7867
 4510TIP3    H235166   0.260   4.804   1.290  0.0202 -2.1060  0.2625
 4511TIP3   OH235167   3.475   3.624   0.201  0.0550 -0.0394  0.0877
 4511TIP3    H135168   3.465   3.659   0.289 -0.3386 -0.1090  0.0755
 4511TIP3    H235169   3.401   3.564   0.191 -1.1770  1.5688 -1.0443
 4512TIP3   OH235170   6.070   2.323   0.529  0.5276 -0.0029  0.6646
 4512TIP3    H135171   6.067   2.280   0.443  1.2091  1.1283  0.0463
 4512TIP3    H235172   6.014   2.400   0.519 -1.4494 -1.1662  2.0491
 4513TIP3   OH235173   2.272   1.726   1.067  0.2959 -0.1508 -0.1083
 4513TIP3    H135174   2.352   1.680   1.040 -1.3338 -4.6402  1.8014
 4513TIP3    H235175   2.284   1.741   1.161 -0.5794  0.3602 -0.0672
 4514TIP3   OH235176   4.576   6.356   7.232 -0.2670  0.1400  0.2792
 4514TIP3    H135177   4.529   6.275   7.253 -2.5029  1.3022 -0.0126
 4514TIP3    H235178   4.513   6.409   7.183  1.4446  1.7034 -0.3471
 4515TIP3   OH235179   5.944   4.855   6.809  0.3383  0.3326 -0.1300
 4515TIP3    H135180   6.017   4.806   6.846  1.0940  1.8540  0.4894
 4515TIP3    H235181   5.985   4.923   6.754 -0.6951 -0.3337 -1.8237
 4516TIP3   OH235182   0.897   2.347   0.492 -0.1258 -0.6127  0.0533
 4516TIP3    H135183   0.898   2.423   0.550 -4.1569 -1.0074  0.9714
 4516TIP3    H235184   0.898   2.272   0.551 -4.3403 -1.0266 -0.0840
 4517TIP3   OH235185   4.839   6.923   7.743  0.0972  0.0011  0.3169
 4517TIP3    H135186   4.804   6.870   7.815 -1.5282 -0.5669 -0.8445
 4517TIP3    H235187   4.765   6.976   7.714  0.0676 -1.3280 -2.3159
 4518TIP3   OH235188   5.794   0.733   1.932  0.1629 -0.2773  0.1223
 4518TIP3    H135189   5.728   0.756   1.866  1.9918  0.4922 -1.5521
 4518TIP3    H235190   5.745   0.720   2.012 -2.0066  0.3153 -1.0384
 4519TIP3   OH235191   1.338   4.013   1.291  0.0159  0.6006 -0.1623
 4519TIP3    H135192   1.333   4.065   1.211  3.1141 -1.5288 -1.9103
 4519TIP3    H235193   1.287   3.934   1.272  0.7592  0.0824 -0.0332
 4520TIP3   OH235194   1.629   5.593   0.404 -0.3215 -0.6829  0.3672
 4520TIP3    H135195   1.710   5.581   0.455  0.8884 -1.0012 -1.5170
 4520TIP3    H235196   1.613   5.687   0.408 -0.2525 -0.6928  1.2875
 4521TIP3   OH235197   4.138   5.924   6.473 -0.4235 -0.5546  0.1322
 4521TIP3    H135198   4.125   6.003   6.420  0.8838  0.7968  1.7457
 4521TIP3    H235199   4.049   5.891   6.488 -1.1251  1.4572  0.6614
 4522TIP3   OH235200   5.910   4.516   2.924  0.2914  0.1223 -0.1400
 4522TIP3    H135201   5.867   4.456   2.863  1.9813 -0.0097 -1.2449
 4522TIP3    H235202   5.989   4.470   2.951  1.9522  2.0235 -1.4742
 4523TIP3   OH235203   6.518   4.624   1.309 -0.2257  0.1339  1.0178
 4523TIP3    H135204   6.601   4.581   1.329  0.0229  0.4568  0.6800
 4523TIP3    H235205   6.542   4.701   1.258 -0.9323 -1.6804 -2.3345
 4524TIP3   OH235206   0.915   4.227   0.348 -0.4253 -0.1205  0.6452
 4524TIP3    H135207   0.839   4.241   0.403 -1.0287 -0.9981  0.0611
 4524TIP3    H235208   0.923   4.308   0.297 -0.9230  0.0075  0.7633
 4525TIP3   OH235209   2.875   1.754   1.465 -0.0067 -0.3834  0.2520
 4525TIP3    H135210   2.905   1.805   1.540  3.3835 -2.2080  0.3541
 4525TIP3    H235211   2.864   1.818   1.395  1.8919  0.8134  0.9586
 4526TIP3   OH235212   6.925   5.592   7.336  0.3500  0.2723  0.4068
 4526TIP3    H135213   6.829   5.597   7.329  0.4341  2.2325  0.2801
 4526TIP3    H235214   6.943   5.498   7.337 -1.6906 -0.1845  1.9698
 4527TIP3   OH235215   0.389   1.897   0.528 -0.2471 -0.6101 -0.2859
 4527TIP3    H135216   0.424   1.978   0.491  0.8495 -1.7979 -1.9582
 4527TIP3    H235217   0.337   1.926   0.604  3.5572  1.3285  1.8615
 4528TIP3   OH235218   3.905   0.233   8.298 -0.0539  0.5381  0.4844
 4528TIP3    H135219   4.000   0.228   8.305  0.1934  0.6302 -2.0172
 4528TIP3    H235220   3.885   0.326   8.308  0.2230  0.6494 -0.0005
 4529TIP3   OH235221   6.450   5.616   0.164  0.2104  0.3248 -0.2761
 4529TIP3    H135222   6.447   5.611   0.069 -0.0607  1.3481 -0.3332
 4529TIP3    H235223   6.498   5.697   0.183 -1.5828  1.2899  0.4078
 4530TIP3   OH235224   5.720   6.354   0.172  0.3132 -0.1144 -0.4675
 4530TIP3    H135225   5.739   6.400   0.090  1.0504 -2.1987 -1.5436
 4530TIP3    H235226   5.793   6.293   0.183 -0.0818 -0.3076  1.4511
 4531TIP3   OH235227   6.762   5.815   2.316 -0.0553 -0.2195  0.3799
 4531TIP3    H135228   6.687   5.857   2.359 -0.5702  1.4689 -1.9418
 4531TIP3    H235229   6.723   5.749   2.259  0.3457 -0.4945  0.4248
 4532TIP3   OH235230   0.257   0.519   0.214  0.5830  0.7279  0.5234
 4532TIP3    H135231   0.281   0.480   0.130  0.1337  0.1588  0.6536
 4532TIP3    H235232   0.162   0.509   0.219  0.3405  2.5078  0.2329
 4533TIP3   OH235233   5.627   0.756   6.862  0.6600  0.4242  0.3391
 4533TIP3    H135234   5.557   0.816   6.889  1.3010  1.9702 -1.2740
 4533TIP3    H235235   5.582   0.674   6.842 -0.6568  1.2612 -0.2664
 4534TIP3   OH235236   4.934   5.496   2.103  0.2647  0.3592  0.5374
 4534TIP3    H135237   4.928   5.413   2.055 -2.8625  1.9533 -2.2341
 4534TIP3    H235238   5.025   5.500   2.132  0.5065 -4.1321  1.2029
 4535TIP3   OH235239   2.551   0.181   2.277  0.2624 -0.0964 -0.2372
 4535TIP3    H135240   2.473   0.162   2.329 -0.7096  1.1620 -1.1624
 4535TIP3    H235241   2.530   0.263   2.231  1.5280 -0.5262 -1.6810
 4536TIP3   OH235242   0.619   6.469   1.449  0.0718 -0.3204 -0.4649
 4536TIP3    H135243   0.626   6.375   1.435 -0.4534 -0.4204 -0.0740
 4536TIP3    H235244   0.525   6.486   1.452  0.1415  0.3806 -1.5761
 4537TIP3   OH235245   6.092   3.917   0.589  0.3477 -0.2112 -0.0501
 4537TIP3    H135246   6.025   3.860   0.628 -0.3805  0.5352 -0.2057
 4537TIP3    H235247   6.169   3.860   0.580  0.0645 -0.8099  1.0771
 4538TIP3   OH235248   3.497   0.545   1.139 -0.1545 -0.3078  0.1402
 4538TIP3    H135249   3.579   0.585   1.167 -0.7245  0.2969  0.9945
 4538TIP3    H235250   3.523   0.465   1.094  0.8933 -0.1788  0.5031
 4539TIP3   OH235251   3.344   2.213   2.447  0.0197  0.7399  0.4137
 4539TIP3    H135252   3.293   2.143   2.488 -2.1646  1.0175 -1.6258
 4539TIP3    H235253   3.403   2.243   2.516 -0.0982 -1.9845  1.8444
 4540TIP3   OH235254   2.317   4.916   7.613  0.3938  0.0834  0.0480
 4540TIP3    H135255   2.318   4.960   7.698  0.9502  0.1799 -0.0038
 4540TIP3    H235256   2.241   4.858   7.617 -0.6408  1.3945 -0.0638
 4541TIP3   OH235257   3.291   4.635   6.883 -0.3877  0.6508 -0.2147
 4541TIP3    H135258   3.214   4.626   6.826 -0.6219  0.7105  0.0919
 4541TIP3    H235259   3.311   4.728   6.881 -0.4348  0.6622 -0.1468
 4542TIP3   OH235260   6.227   3.867   7.164  0.3221  0.1670  0.0592
 4542TIP3    H135261   6.321   3.857   7.180  0.5054 -0.3792 -1.2412
 4542TIP3    H235262   6.187   3.790   7.204  0.6082 -0.3759 -0.6644
 4543TIP3   OH235263   1.792   0.502   0.187  0.5490 -0.9106  0.1241
 4543TIP3    H135264   1.873   0.552   0.193 -0.0148 -0.0343  0.7160
 4543TIP3    H235265   1.761   0.518   0.098 -2.1180  3.9691  1.5283
 4544TIP3   OH235266   1.500   6.123   6.711 -0.2224  0.4577  0.0619
 4544TIP3    H135267   1.470   6.158   6.795 -1.4583 -0.4213  0.0148
 4544TIP3    H235268   1.530   6.034   6.732  0.8429  0.7396 -0.1923
 4545TIP3   OH235269   1.850   4.938   1.315 -0.5558 -0.1131 -0.3037
 4545TIP3    H135270   1.923   4.998   1.300 -1.3172  0.1035 -3.7404
 4545TIP3    H235271   1.888   4.870   1.372  1.6591  1.1634 -0.1314
 4546TIP3   OH235272   3.491   1.896   7.659  0.5292 -0.2269 -0.0387
 4546TIP3    H135273   3.516   1.977   7.613 -0.1853  1.2099  1.9528
 4546TIP3    H235274   3.408   1.871   7.617  0.8361 -0.0293 -0.7866
 4547TIP3   OH235275   0.123   0.862   1.917 -0.7051  0.6890  0.1323
 4547TIP3    H135276   0.136   0.820   2.003 -0.2814 -2.5875 -1.3681
 4547TIP3    H235277   0.039   0.905   1.925 -1.5642 -1.0787  1.7079
 4548TIP3   OH235278   6.687   5.987   1.205  0.5206 -0.3168  0.3468
 4548TIP3    H135279   6.757   5.923   1.214  2.5907  1.7794  0.0002
 4548TIP3    H235280   6.684   6.032   1.290  0.7224  0.6888 -0.1676
 4549TIP3   OH235281   1.768   5.698   0.838  0.1597  0.6421  0.1417
 4549TIP3    H135282   1.771   5.603   0.822  0.8664  0.8871 -1.4011
 4549TIP3    H235283   1.694   5.728   0.785  0.9703  1.1635 -0.7195
 4550TIP3   OH235284   0.522   5.065   8.456  0.2241 -0.6221 -0.6192
 4550TIP3    H135285   0.611   5.046   8.487  0.0901  0.7188  0.7467
 4550TIP3    H235286   0.465   5.016   8.515 -0.0199  1.6602  1.2086
 4551TIP3   OH235287   4.554   5.379   8.256  0.6256 -0.0534  0.5471
 4551TIP3    H135288   4.498   5.449   8.221  1.0285  0.0153  0.0249
 4551TIP3    H235289   4.522   5.300   8.214  0.2362 -0.1722  1.0602
 4552TIP3   OH235290   6.030   4.878   1.662  0.0347 -0.3801  0.4518
 4552TIP3    H135291   6.100   4.904   1.602 -2.3038 -0.8227 -2.7822
 4552TIP3    H235292   6.059   4.794   1.697  1.4824 -0.1578 -0.1354
 4553TIP3   OH235293   4.011   3.608   0.132 -0.0429  0.1406  0.0347
 4553TIP3    H135294   3.942   3.671   0.113 -1.7674 -1.5281  0.4799
 4553TIP3    H235295   3.991   3.532   0.077  0.4931 -0.9948  1.3325
 4554TIP3   OH235296   5.510   2.547   1.909 -0.3253  0.2428 -0.1077
 4554TIP3    H135297   5.509   2.637   1.878 -2.3386 -0.2921 -1.8870
 4554TIP3    H235298   5.462   2.549   1.992 -0.6510  0.7565 -0.3051
 4555TIP3   OH235299   0.143   4.035   0.460 -0.6276 -0.5443  0.3040
 4555TIP3    H135300   0.131   4.114   0.512  0.2869  0.1161 -0.4544
 4555TIP3    H235301   0.238   4.028   0.449 -0.7828 -0.8456 -0.9838
 4556TIP3   OH235302   0.771   4.544   1.429 -0.2728 -0.0827  0.9579
 4556TIP3    H135303   0.804   4.571   1.515 -0.1674 -1.5874  1.4090
 4556TIP3    H235304   0.683   4.582   1.425  0.2398  1.1806  1.1168
 4557TIP3   OH235305   5.138   0.246   1.432  0.2788 -0.8174 -0.4713
 4557TIP3    H135306   5.076   0.211   1.368  0.2191 -1.1726 -0.2199
 4557TIP3    H235307   5.203   0.293   1.380 -1.0638  0.9524 -0.6649
 4558TIP3   OH235308   5.441   1.655   0.134 -0.3915 -0.0061  0.2360
 4558TIP3    H135309   5.478   1.567   0.145 -1.6193 -0.9809 -2.5905
 4558TIP3    H235310   5.507   1.702   0.083 -1.0015 -0.3053 -0.8694
 4559TIP3   OH235311   2.875   0.715   7.935 -0.2839 -0.5268  0.2791
 4559TIP3    H135312   2.876   0.797   7.885  0.1101 -1.5908 -1.5481
 4559TIP3    H235313   2.792   0.674   7.910 -0.6374 -0.5484  1.4541
 4560TIP3   OH235314   2.808   3.124   0.077  0.2396  0.5863 -0.0907
 4560TIP3    H135315   2.796   3.134  -0.017 -2.2225  0.1913  0.1187
 4560TIP3    H235316   2.801   3.030   0.093  1.6337  0.5350  0.4215
 4561TIP3   OH235317   0.053   4.664   1.008 -0.5343 -0.0573  0.2928
 4561TIP3    H135318   0.043   4.750   1.049  0.7536 -0.2933  1.1681
 4561TIP3    H235319  -0.004   4.606   1.059 -2.1770  0.4163 -0.9100
 4562TIP3   OH235320   4.289   5.608   2.520 -0.0181  0.2556 -0.3593
 4562TIP3    H135321   4.300   5.544   2.450 -0.7060  0.1035 -0.3365
 4562TIP3    H235322   4.195   5.624   2.524  0.1164  1.0921 -0.2050
 4563TIP3   OH235323   1.990   3.060   8.343 -0.1287 -0.2738  0.3703
 4563TIP3    H135324   2.052   3.120   8.301 -1.7805  0.4954 -1.0543
 4563TIP3    H235325   1.944   3.115   8.406  0.2239 -0.7164  1.0249
 4564TIP3   OH235326   6.716   3.733   7.049  0.4442 -0.4233  0.1131
 4564TIP3    H135327   6.749   3.770   7.130  1.6592 -0.7189 -0.2321
 4564TIP3    H235328   6.791   3.689   7.010 -0.2960 -0.8916 -0.8292
 4565TIP3   OH235329   4.348   0.860   6.536  0.1044 -0.1404 -0.2546
 4565TIP3    H135330   4.428   0.819   6.503  0.6923  1.8679 -1.4252
 4565TIP3    H235331   4.369   0.883   6.627  0.2408 -1.0979 -0.0243
 4566TIP3   OH235332   0.317   2.437   6.603 -0.5779 -0.2887  0.2467
 4566TIP3    H135333   0.359   2.519   6.578 -1.0314 -0.0624  0.2116
 4566TIP3    H235334   0.387   2.373   6.604  0.0690  0.3806  1.6876
 4567TIP3   OH235335   3.783   0.314   7.592 -0.0774 -0.0134  0.1355
 4567TIP3    H135336   3.753   0.244   7.533 -0.1126  0.2598 -0.1760
 4567TIP3    H235337   3.729   0.389   7.569  0.7958  0.4724 -0.3954
 4568TIP3   OH235338   0.564   0.011   2.449 -0.4940 -0.4908  0.2324
 4568TIP3    H135339   0.501   0.044   2.385  1.3389 -0.1531 -1.4818
 4568TIP3    H235340   0.536   0.049   2.532 -1.6141  0.9295 -0.7507
 4569TIP3   OH235341   3.596   0.833   2.371  0.4618  0.0758 -0.3864
 4569TIP3    H135342   3.556   0.850   2.457  0.0388 -0.6498 -0.4301
 4569TIP3    H235343   3.646   0.752   2.384 -0.2515 -0.4866 -1.0171
 4570TIP3   OH235344   4.424   4.484   7.564 -0.0245 -0.2548 -0.0146
 4570TIP3    H135345   4.382   4.410   7.607  1.1792 -0.3358  1.1134
 4570TIP3    H235346   4.491   4.445   7.507  0.1743 -0.0716  0.0873
 4571TIP3   OH235347   1.008   3.103   7.972  0.6840 -0.3916  0.0722
 4571TIP3    H135348   1.043   3.113   8.060  1.2464 -2.3070  0.0996
 4571TIP3    H235349   0.957   3.022   7.975  0.3204 -0.2413 -1.2456
 4572TIP3   OH235350   1.486   0.725   7.252  0.0616 -0.3681 -0.0541
 4572TIP3    H135351   1.436   0.728   7.170  1.8419  1.0805 -1.1465
 4572TIP3    H235352   1.465   0.807   7.296 -0.0017 -0.6372  0.4301
 4573TIP3   OH235353   3.011   3.649   1.726 -0.5196  0.1832  0.1695
 4573TIP3    H135354   2.942   3.584   1.716 -0.9236  0.7585 -0.8514
 4573TIP3    H235355   2.971   3.732   1.701  0.6004  0.4962 -0.6781
 4574TIP3   OH235356   0.705   1.187   0.020 -0.1617 -0.0298 -0.1871
 4574TIP3    H135357   0.672   1.118   0.078 -1.3328  0.5199 -0.1586
 4574TIP3    H235358   0.634   1.201  -0.043  0.4876  0.4270 -0.8388
 4575TIP3   OH235359   6.180   3.120   8.226 -0.0922  0.1003 -0.3253
 4575TIP3    H135360   6.269   3.152   8.210 -1.1007  2.7128 -1.2076
 4575TIP3    H235361   6.155   3.160   8.309 -0.9629  0.7089 -0.8590
 4576TIP3   OH235362   2.152   3.885   7.392 -0.2801 -0.2597 -0.3221
 4576TIP3    H135363   2.120   3.972   7.371  0.5165  1.4006  4.2510
 4576TIP3    H235364   2.087   3.850   7.454  0.3560 -2.1821 -0.6795
 4577TIP3   OH235365   3.323   0.833   1.506  0.0521  0.1438  0.2811
 4577TIP3    H135366   3.325   0.857   1.414 -0.5851 -0.4914  0.0887
 4577TIP3    H235367   3.268   0.899   1.548  0.7229  0.6961  0.2886
 4578TIP3   OH235368   6.286   0.268   1.674 -0.4235 -0.5385  0.4546
 4578TIP3    H135369   6.268   0.362   1.673 -0.6195 -0.5780 -0.1952
 4578TIP3    H235370   6.217   0.230   1.620  0.1694 -0.9658 -0.0055
 4579TIP3   OH235371   2.258   0.900   6.218  0.3660  0.3263  0.5371
 4579TIP3    H135372   2.199   0.848   6.163  1.5037  0.1618 -0.5771
 4579TIP3    H235373   2.200   0.956   6.270 -0.7923  1.9261 -2.2433
 4580TIP3   OH235374   4.829   0.317   8.450 -0.1457  0.1414 -0.1406
 4580TIP3    H135375   4.891   0.246   8.466  1.5963  1.5087 -0.4752
 4580TIP3    H235376   4.856   0.353   8.365 -2.2591 -0.0581 -0.9382
 4581TIP3   OH235377   2.356   1.491   0.723  0.5978 -0.3796 -0.6454
 4581TIP3    H135378   2.354   1.404   0.684  1.7784 -0.9463  0.4889
 4581TIP3    H235379   2.449   1.511   0.733  0.3399  0.5265  0.1372
 4582TIP3   OH235380   2.236   3.050   1.885  0.6556  0.4396 -0.1108
 4582TIP3    H135381   2.159   3.017   1.839  1.2637 -0.7129 -0.3363
 4582TIP3    H235382   2.207   3.132   1.924 -0.3498  0.6228 -1.1773
 4583TIP3   OH235383   4.270   4.754   8.411  0.1086 -0.0263 -0.0561
 4583TIP3    H135384   4.332   4.809   8.460 -0.6630  0.5303  0.3154
 4583TIP3    H235385   4.317   4.671   8.398  1.0349  0.4766 -0.0271
 4584TIP3   OH235386   2.241   3.520   6.449 -0.0117  0.0422  0.7536
 4584TIP3    H135387   2.161   3.542   6.402  0.2697  0.6617  0.5542
 4584TIP3    H235388   2.299   3.595   6.436  0.0400  0.2897  2.1693
 4585TIP3   OH235389   2.128   6.879   7.130 -0.0195 -0.0944  0.0414
 4585TIP3    H135390   2.182   6.958   7.137 -0.6006  0.3334 -0.2421
 4585TIP3    H235391   2.044   6.910   7.095  0.0358 -0.9603 -0.9001
 4586TIP3   OH235392   0.979   2.184   1.173 -0.3261 -0.2683  0.1429
 4586TIP3    H135393   1.002   2.193   1.266  4.5454 -1.5742 -0.6685
 4586TIP3    H235394   0.936   2.099   1.167 -0.4892 -0.2735  1.1531
 4587TIP3   OH235395   0.835   6.758   7.559 -0.2861  0.7175  0.1105
 4587TIP3    H135396   0.793   6.843   7.550 -0.6999  0.6266  1.0491
 4587TIP3    H235397   0.868   6.757   7.649  0.9642  0.4351 -0.3306
 4588TIP3   OH235398   1.111   1.920   1.022 -0.6986  0.1457 -0.5532
 4588TIP3    H135399   1.107   1.952   1.112 -0.4320 -0.7379 -0.2171
 4588TIP3    H235400   1.200   1.887   1.012 -1.0009 -0.6038 -0.8348
 4589TIP3   OH235401   6.391   2.543   1.769 -0.3244 -0.3096  0.3337
 4589TIP3    H135402   6.349   2.621   1.806 -0.7293  0.1442 -1.0082
 4589TIP3    H235403   6.427   2.573   1.686  3.7486 -0.3841  1.8680
 4590TIP3   OH235404   0.426   4.768   6.506 -0.0378  0.3704  0.7325
 4590TIP3    H135405   0.509   4.740   6.467  0.9625 -0.4245  3.2385
 4590TIP3    H235406   0.379   4.687   6.525 -2.0856  0.8283 -1.8411
 4591TIP3   OH235407   0.494   1.674   8.352  0.2323  0.1343 -0.0511
 4591TIP3    H135408   0.486   1.749   8.410 -0.3551 -0.7183  1.0125
 4591TIP3    H235409   0.531   1.709   8.271 -1.1055  1.7573  0.0036
 4592TIP3   OH235410   3.638   4.480   7.439 -0.1192 -0.0405  0.1983
 4592TIP3    H135411   3.590   4.398   7.434  0.7641 -0.5232 -0.9926
 4592TIP3    H235412   3.727   4.454   7.463 -0.2929  0.7801  1.8491
 4593TIP3   OH235413   0.241   4.323   1.969  0.9199 -0.4879  0.0239
 4593TIP3    H135414   0.306   4.254   1.978  0.7093 -0.7999 -0.7278
 4593TIP3    H235415   0.283   4.401   2.006  0.9148 -1.1472  1.4621
 4594TIP3   OH235416   3.034   5.084   8.566 -0.0858 -0.7973 -0.2714
 4594TIP3    H135417   3.120   5.099   8.605 -0.7066  0.6038  0.6468
 4594TIP3    H235418   2.997   5.012   8.617  0.6822 -1.6749 -0.9289
 4595TIP3   OH235419   3.310   1.243   0.311  0.2532 -0.4860  0.1241
 4595TIP3    H135420   3.232   1.231   0.257  0.5684 -2.5817  0.0553
 4595TIP3    H235421   3.383   1.240   0.249  0.4365  2.7541  0.0086
 4596TIP3   OH235422   3.855   1.584   7.136 -0.4856  0.2749 -0.2741
 4596TIP3    H135423   3.776   1.587   7.190  0.2899  0.3601  0.9136
 4596TIP3    H235424   3.844   1.506   7.082 -1.7047  0.6972 -0.6753
 4597TIP3   OH235425   2.570   5.359   0.929 -0.3384 -0.2428  0.1403
 4597TIP3    H135426   2.531   5.400   1.007 -0.4447  1.1637 -0.6290
 4597TIP3    H235427   2.625   5.427   0.890 -0.9399 -0.6372 -1.4786
 4598TIP3   OH235428   3.338   2.761   0.370  0.5902  0.6165 -0.4066
 4598TIP3    H135429   3.377   2.805   0.294  0.7118 -0.5516 -1.0311
 4598TIP3    H235430   3.412   2.723   0.417  0.3429 -0.4224 -0.8369
 4599TIP3   OH235431   6.517   0.446   0.238 -0.0050  0.2571  0.7089
 4599TIP3    H135432   6.481   0.441   0.149  1.5235  0.2332  0.0642
 4599TIP3    H235433   6.458   0.505   0.284 -0.6625  0.5081 -0.4122
 4600TIP3   OH235434   6.525   6.766   8.533 -0.1989  0.2662 -0.3069
 4600TIP3    H135435   6.555   6.676   8.544 -0.5063  0.0804 -0.9507
 4600TIP3    H235436   6.444   6.758   8.482 -0.5951  0.8564  0.2235
 4601TIP3   OH235437   6.247   3.655   8.398  0.5202 -0.9223  0.3288
 4601TIP3    H135438   6.334   3.697   8.396 -0.7224  2.0235 -2.7808
 4601TIP3    H235439   6.252   3.590   8.328 -0.1533  0.4697 -1.0950
 4602TIP3   OH235440   2.854   5.252   7.265  0.0685  0.0827  0.2659
 4602TIP3    H135441   2.915   5.212   7.328  0.0547  1.1311  0.9649
 4602TIP3    H235442   2.770   5.212   7.285  0.4093 -0.9710 -0.3416
 4603TIP3   OH235443   5.154   2.929   6.618 -0.3039  0.2422  0.1289
 4603TIP3    H135444   5.086   2.997   6.613  0.0389  0.5703 -0.1351
 4603TIP3    H235445   5.106   2.847   6.611 -0.8887  0.3875  1.7631
 4604TIP3   OH235446   2.408   5.574   6.479  0.7804  0.2628  0.0789
 4604TIP3    H135447   2.397   5.668   6.497 -0.3539  0.2664 -0.4843
 4604TIP3    H235448   2.501   5.563   6.461  0.9635  1.2470  0.3731
 4605TIP3   OH235449   4.945   5.748   0.122 -0.0659  0.3767  0.2195
 4605TIP3    H135450   5.038   5.727   0.131 -0.0684  0.1771 -0.1824
 4605TIP3    H235451   4.900   5.664   0.135 -0.3863  0.9149  3.1641
 4606TIP3   OH235452   2.333   1.301   8.372 -0.3943 -0.2078  0.1308
 4606TIP3    H135453   2.276   1.225   8.384  2.2801 -2.2428  0.9415
 4606TIP3    H235454   2.337   1.341   8.458 -0.1433 -0.3884  0.2012
 4607TIP3   OH235455   2.092   5.134   2.306 -0.4333  0.1403 -0.0798
 4607TIP3    H135456   2.036   5.100   2.375 -0.8908 -0.9552 -0.9678
 4607TIP3    H235457   2.171   5.080   2.309  0.1354  0.9645  0.4427
 4608TIP3   OH235458   3.079   1.614   1.332 -0.0432  0.4392 -0.2884
 4608TIP3    H135459   3.013   1.571   1.278  0.1060  3.1789 -2.9531
 4608TIP3    H235460   3.031   1.642   1.411 -1.8636  1.3564 -1.6406
 4609TIP3   OH235461   4.751   4.138   6.528  0.4427  0.2916  0.2685
 4609TIP3    H135462   4.698   4.218   6.531 -1.8033 -1.0856  0.0299
 4609TIP3    H235463   4.777   4.123   6.618  0.3755  0.9862  0.4061
 4610TIP3   OH235464   3.014   2.903   7.175 -0.6027 -0.1445  0.1473
 4610TIP3    H135465   3.025   2.842   7.247 -1.2292 -1.2535 -0.6703
 4610TIP3    H235466   3.081   2.878   7.111  0.1295  1.0021  0.4334
 4611TIP3   OH235467   2.336   3.901   6.554  0.0604 -0.2014 -0.1268
 4611TIP3    H135468   2.395   3.852   6.497  1.2106 -1.3512  1.9254
 4611TIP3    H235469   2.248   3.880   6.521  0.6857  1.1220 -2.9050
 4612TIP3   OH235470   4.125   6.185   1.936  0.0024 -0.3046  0.6446
 4612TIP3    H135471   4.198   6.135   1.899 -0.4464 -1.3303  1.1169
 4612TIP3    H235472   4.165   6.268   1.964  1.1266 -1.0863  1.4514
 4613TIP3   OH235473   2.764   4.205   1.862  0.7008 -0.2673 -0.4219
 4613TIP3    H135474   2.721   4.128   1.900  1.0851 -1.1158 -1.6329
 4613TIP3    H235475   2.857   4.187   1.870  0.7971 -0.5751 -1.8904
 4614TIP3   OH235476   2.421   6.554   0.140  0.1927 -0.1127  0.1076
 4614TIP3    H135477   2.421   6.597   0.225  1.7149 -0.4333  0.2918
 4614TIP3    H235478   2.470   6.613   0.082  1.3905 -1.0531  0.1104
 4615TIP3   OH235479   5.304   4.125   6.995  0.3631  0.6767  0.7980
 4615TIP3    H135480   5.249   4.107   7.072 -0.4373 -0.9704 -0.1235
 4615TIP3    H235481   5.277   4.061   6.930 -0.7604  3.5481 -1.7956
 4616TIP3   OH235482   5.888   0.643   2.999 -0.2212  0.1315  0.3358
 4616TIP3    H135483   5.871   0.555   2.967  2.1728 -0.5066  0.6361
 4616TIP3    H235484   5.981   0.658   2.982  0.1883  1.3913  3.0342
 4617TIP3   OH235485   5.925   3.370   7.075  0.2404 -0.0966 -0.0940
 4617TIP3    H135486   5.997   3.381   7.137 -0.2480 -0.9810  0.6474
 4617TIP3    H235487   5.958   3.308   7.010  0.6719  0.6592 -0.6161
 4618TIP3   OH235488   1.104   2.367   7.228  0.3613 -0.2908  0.0878
 4618TIP3    H135489   1.049   2.426   7.176 -2.3823 -0.9719  2.0073
 4618TIP3    H235490   1.056   2.284   7.228  1.3657 -0.9211  1.9015
 4619TIP3   OH235491   5.078   5.855   1.524 -0.4582 -0.0678 -0.4015
 4619TIP3    H135492   5.056   5.945   1.498 -1.3524  0.4450  1.8888
 4619TIP3    H235493   5.112   5.815   1.444 -0.3677  2.1901 -1.5877
 4620TIP3   OH235494   1.427   0.667   7.788 -0.2815  0.2636 -0.3056
 4620TIP3    H135495   1.480   0.720   7.728 -0.8297  2.1960  0.8406
 4620TIP3    H235496   1.435   0.711   7.873 -0.7891 -1.5047  0.7171
 4621TIP3   OH235497   1.649   3.868   0.377 -0.5136  0.1682 -0.1251
 4621TIP3    H135498   1.725   3.842   0.326 -0.2967 -0.2336  0.3909
 4621TIP3    H235499   1.636   3.960   0.356  0.1960  0.2719 -0.1261
 4622TIP3   OH235500   1.813   5.192   1.548  0.5479 -0.4427 -0.1759
 4622TIP3    H135501   1.809   5.237   1.464 -0.7513 -0.3080 -0.0620
 4622TIP3    H235502   1.887   5.232   1.594  0.7256  0.0859 -0.9121
 4623TIP3   OH235503   1.706   3.027   2.239  0.4279 -0.0149 -0.6730
 4623TIP3    H135504   1.667   2.952   2.283  0.2577 -0.3505 -1.3727
 4623TIP3    H235505   1.642   3.098   2.249  0.4861 -0.0301 -0.2090
 4624TIP3   OH235506   2.723   2.884   0.698  0.0728 -0.0746  0.2642
 4624TIP3    H135507   2.762   2.815   0.644  0.7591  1.3130 -1.0850
 4624TIP3    H235508   2.742   2.965   0.651 -2.6381  0.8789  0.6433
 4625TIP3   OH235509   1.388   5.531   1.366 -0.5703  0.4954 -0.3469
 4625TIP3    H135510   1.311   5.583   1.389 -0.3201 -0.0499  2.0604
 4625TIP3    H235511   1.458   5.568   1.420 -0.0091 -1.2185  0.1711
 4626TIP3   OH235512   4.451   6.823   0.021  0.5432  0.3401  0.6936
 4626TIP3    H135513   4.470   6.730   0.012 -1.0789 -0.1250  1.7925
 4626TIP3    H235514   4.531   6.861   0.057  2.3393 -0.0358 -2.5313
 4627TIP3   OH235515   0.829   5.147   1.409  0.0601  0.7055 -0.2458
 4627TIP3    H135516   0.922   5.143   1.389  0.0274 -0.2630 -0.2460
 4627TIP3    H235517   0.818   5.228   1.458  1.3738 -0.4306  2.0717
 4628TIP3   OH235518   2.508   0.221   1.006  0.3005  0.0037 -0.0226
 4628TIP3    H135519   2.595   0.207   0.967  1.3353  0.1437  2.1037
 4628TIP3    H235520   2.502   0.155   1.075 -1.3872 -0.1004 -0.2345
 4629TIP3   OH235521   1.626   3.108   1.667 -0.2268  0.1527  0.1592
 4629TIP3    H135522   1.639   3.073   1.579 -1.3769  0.9769 -0.3675
 4629TIP3    H235523   1.564   3.048   1.708 -1.6048  1.0844 -0.4788
 4630TIP3   OH235524   0.557   3.166   7.075  0.1135  0.4119 -0.2101
 4630TIP3    H135525   0.605   3.187   7.155  1.8648 -0.6223 -0.9241
 4630TIP3    H235526   0.592   3.227   7.010 -0.2100  0.2581 -0.5260
 4631TIP3   OH235527   4.358   2.672   0.484  0.2157 -0.5594  0.7009
 4631TIP3    H135528   4.272   2.655   0.522  0.3553 -0.5062  1.0461
 4631TIP3    H235529   4.414   2.603   0.520  0.2231 -0.8568  0.1355
 4632TIP3   OH235530   1.185   6.901   2.155 -0.5840  0.1340 -0.0869
 4632TIP3    H135531   1.189   6.958   2.231  1.5724  1.1135 -0.8693
 4632TIP3    H235532   1.152   6.817   2.189  0.7761  0.4001  2.0191
 4633TIP3   OH235533   5.938   6.088   8.102 -0.8806  0.2945 -0.2335
 4633TIP3    H135534   5.988   6.147   8.045 -1.9915  0.5253 -1.0076
 4633TIP3    H235535   5.847   6.099   8.073 -1.1959 -1.2939  0.0640
 4634TIP3   OH235536   3.108   4.816   8.501 -0.6145 -0.1872  0.2049
 4634TIP3    H135537   3.136   4.730   8.531 -0.2028  0.3263  1.3502
 4634TIP3    H235538   3.046   4.846   8.568  0.1757  0.9069  0.4652
 4635TIP3   OH235539   3.561   4.224   8.142  0.8153  0.6590  0.1246
 4635TIP3    H135540   3.526   4.139   8.168  2.6660 -0.2284 -0.1344
 4635TIP3    H235541   3.510   4.287   8.193 -0.8728 -0.5412  0.0203
 4636TIP3   OH235542   4.226   4.782   2.640  0.2952  0.6166  0.2779
 4636TIP3    H135543   4.145   4.782   2.693  0.9635  0.7812  1.3279
 4636TIP3    H235544   4.195   4.789   2.550 -1.0741 -2.6535  0.3342
 4637TIP3   OH235545   3.363   0.439   2.424  0.0683 -0.5212  0.1049
 4637TIP3    H135546   3.424   0.454   2.496  0.4629 -1.1127 -0.0932
 4637TIP3    H235547   3.407   0.373   2.369  0.5623  1.0981 -1.5754
 4638TIP3   OH235548   2.838   0.339   7.374  0.3642  0.4519 -0.2787
 4638TIP3    H135549   2.763   0.299   7.331 -0.3835  0.2426  1.1731
 4638TIP3    H235550   2.913   0.314   7.320 -0.1394 -2.3809  0.1899
 4639TIP3   OH235551   5.341   5.475   7.439 -0.3883  0.0331 -0.3172
 4639TIP3    H135552   5.260   5.512   7.473 -1.0798 -0.6140 -1.1986
 4639TIP3    H235553   5.312   5.407   7.378  0.7746 -2.3525  1.6108
 4640TIP3   OH235554   3.847   6.915   8.161  0.5107 -1.1312  0.1643
 4640TIP3    H135555   3.852   6.920   8.065 -0.3427 -0.1093  0.1530
 4640TIP3    H235556   3.896   6.991   8.191 -1.8643  0.4185  0.4125
 4641TIP3   OH235557   6.915   1.344   0.037  0.0650  0.1272 -0.1876
 4641TIP3    H135558   6.956   1.388  -0.037 -1.1391  1.1766 -0.2489
 4641TIP3    H235559   6.822   1.363   0.029 -0.2925 -1.0989  0.7018
 4642TIP3   OH235560   2.053   0.214   7.799  0.3406  0.5981 -0.5052
 4642TIP3    H135561   1.979   0.223   7.859  1.2099  0.2197  0.6695
 4642TIP3    H235562   2.102   0.139   7.832  0.3680 -0.2153 -2.2624
 4643TIP3   OH235563   5.883   4.489   6.864 -0.5417 -0.2163 -0.5156
 4643TIP3    H135564   5.851   4.401   6.845 -1.0308  0.1907 -1.7503
 4643TIP3    H235565   5.948   4.506   6.796 -2.5641  1.4243 -2.2168
 4644TIP3   OH235566   6.810   2.150   1.670  0.4235  0.3551  0.0112
 4644TIP3    H135567   6.745   2.109   1.727 -1.2769  0.2277 -1.9374
 4644TIP3    H235568   6.879   2.084   1.662  0.9567  0.5594  2.2291
 4645TIP3   OH235569   2.468   3.102   8.363 -0.2578 -0.1304 -0.1569
 4645TIP3    H135570   2.438   3.139   8.280 -1.9059  1.1512  0.9423
 4645TIP3    H235571   2.521   3.171   8.402 -0.3770 -0.3117  0.3264
 4646TIP3   OH235572   4.983   1.145   0.624  0.3923  0.5993 -0.3959
 4646TIP3    H135573   4.957   1.059   0.657 -0.6163  0.3804 -1.6746
 4646TIP3    H235574   5.078   1.137   0.610  0.7932  0.5668  1.9119
 4647TIP3   OH235575   3.564   6.302   8.154 -0.3606 -0.0130 -0.9068
 4647TIP3    H135576   3.599   6.298   8.065  0.6224 -0.5496 -0.5214
 4647TIP3    H235577   3.574   6.393   8.180 -0.2055  0.0508 -1.1840
 4648TIP3   OH235578   4.727   4.286   6.806 -0.2828 -0.0301 -0.0414
 4648TIP3    H135579   4.816   4.291   6.840  0.3520 -0.8815 -1.5269
 4648TIP3    H235580   4.689   4.210   6.849 -0.3524  0.3950  0.6719
 4649TIP3   OH235581   0.453   3.454   0.836  0.4229  0.0891 -0.6501
 4649TIP3    H135582   0.522   3.449   0.770  0.3689 -0.5473 -0.6587
 4649TIP3    H235583   0.435   3.363   0.860  0.4736  0.3210  0.2824
 4650TIP3   OH235584   3.597   4.946   7.775 -0.1504 -0.6776  0.3883
 4650TIP3    H135585   3.649   5.026   7.784 -1.9552  0.8312 -1.6782
 4650TIP3    H235586   3.630   4.904   7.696  0.2719 -1.6463  1.0486
 4651TIP3   OH235587   0.489   5.639   8.310  0.2636 -0.3658 -0.1921
 4651TIP3    H135588   0.441   5.565   8.273 -1.4799 -0.3533  1.8701
 4651TIP3    H235589   0.452   5.716   8.267  0.1509 -0.5062 -0.3468
 4652TIP3   OH235590   6.764   2.180   1.402  0.0646 -0.1169 -0.4409
 4652TIP3    H135591   6.682   2.135   1.380 -1.6863  1.8110  1.6516
 4652TIP3    H235592   6.767   2.180   1.497  2.6794 -0.2968 -0.4491
 4653TIP3   OH235593   2.937   6.172   1.245  0.1784 -0.5228  0.7999
 4653TIP3    H135594   2.986   6.250   1.221  1.0419 -1.4384 -0.5866
 4653TIP3    H235595   2.929   6.123   1.163  0.8714 -2.5319  1.8548
 4654TIP3   OH235596   0.226   1.082   0.075 -0.0473  0.2530 -0.2692
 4654TIP3    H135597   0.157   1.148   0.067 -0.3015  0.0511  0.1755
 4654TIP3    H235598   0.205   1.036   0.156  0.3522 -0.1152 -0.3710
 4655TIP3   OH235599   5.017   4.617   6.814  0.0192  0.2576 -0.0759
 4655TIP3    H135600   5.074   4.608   6.890 -1.7719 -0.6320  1.2321
 4655TIP3    H235601   5.069   4.583   6.741  1.7295  1.0143  0.7299
 4656TIP3   OH235602   1.584   6.670   1.746  0.3280 -0.1691  0.1686
 4656TIP3    H135603   1.549   6.594   1.792  0.0247  0.7721  1.5428
 4656TIP3    H235604   1.509   6.708   1.701  0.4802 -0.6548 -0.5208
 4657TIP3   OH235605   5.743   3.588   0.669 -0.0706  0.1278 -0.5489
 4657TIP3    H135606   5.784   3.504   0.689  1.3522  0.2501 -2.6115
 4657TIP3    H235607   5.797   3.653   0.713 -0.3578  0.0575 -0.0866
 4658TIP3   OH235608   3.463   1.590   7.766  0.2109  0.3217  0.0247
 4658TIP3    H135609   3.505   1.613   7.849 -1.2817  1.1635  0.5859
 4658TIP3    H235610   3.417   1.670   7.739 -0.5953 -0.3939 -0.8083
 4659TIP3   OH235611   4.585   5.310   7.500 -0.1042 -0.1765 -0.4923
 4659TIP3    H135612   4.502   5.314   7.453  0.1216  1.3483 -0.8290
 4659TIP3    H235613   4.633   5.388   7.471  0.9980 -0.4474  0.5078
 4660TIP3   OH235614   2.456   6.286   1.698 -0.3392 -0.2331  0.1256
 4660TIP3    H135615   2.510   6.224   1.748  0.8978  0.1159 -0.7422
 4660TIP3    H235616   2.517   6.355   1.671 -1.6031  1.1548  0.6891
 4661TIP3   OH235617   2.379   2.776   1.794 -0.3447  0.1643 -0.0751
 4661TIP3    H135618   2.320   2.842   1.830 -0.4740 -0.5662  1.1284
 4661TIP3    H235619   2.344   2.693   1.826  1.1384 -0.3112  0.4207
 4662TIP3   OH235620   5.376   6.860   2.618  0.8247 -0.4265 -0.1326
 4662TIP3    H135621   5.369   6.770   2.649 -0.9599 -0.3298 -0.2050
 4662TIP3    H235622   5.316   6.865   2.544  1.1157  0.7621 -0.3095
 4663TIP3   OH235623   4.184   2.234   0.546  0.1813  0.0087 -0.1186
 4663TIP3    H135624   4.248   2.239   0.475  0.4501  2.3967  0.2126
 4663TIP3    H235625   4.229   2.184   0.614 -0.2809 -2.7911 -1.7078
 4664TIP3   OH235626   2.713   0.502   1.674  0.2528 -0.3453 -0.3146
 4664TIP3    H135627   2.672   0.486   1.589  0.4671 -3.3121  0.0543
 4664TIP3    H235628   2.641   0.526   1.732 -0.1556 -0.1855 -0.8765
 4665TIP3   OH235629   6.250   1.813   1.621 -0.1638  0.0967  0.0759
 4665TIP3    H135630   6.168   1.822   1.572 -0.6754  1.8524  1.1862
 4665TIP3    H235631   6.301   1.891   1.599  1.1389 -0.8326 -0.3787
 4666TIP3   OH235632   4.450   4.367   0.484 -0.7029 -0.1597  0.1789
 4666TIP3    H135633   4.507   4.407   0.418 -0.7901 -0.2483  0.0502
 4666TIP3    H235634   4.489   4.282   0.502  1.2281  1.1330  2.6636
 4667TIP3   OH235635   1.802   5.885   0.489 -0.2770  0.0601  0.6068
 4667TIP3    H135636   1.726   5.938   0.511 -0.3087 -0.4105  1.6919
 4667TIP3    H235637   1.775   5.835   0.412 -1.0208  0.0089  0.8938
 4668TIP3   OH235638   1.573   0.508   0.723  0.6849  0.1828 -0.2585
 4668TIP3    H135639   1.619   0.458   0.655 -2.0410  0.6304 -2.6695
 4668TIP3    H235640   1.538   0.442   0.783  0.8962 -0.4748 -0.8469
 4669TIP3   OH235641   2.191   2.584   0.055 -0.5725 -0.7829  0.1418
 4669TIP3    H135642   2.277   2.569   0.016  0.0047  0.7840  0.7247
 4669TIP3    H235643   2.136   2.515   0.019  0.7659 -1.4317 -0.7514
 4670TIP3   OH235644   1.771   6.905   7.803 -0.1651 -0.1745  0.1296
 4670TIP3    H135645   1.677   6.897   7.789 -0.0590  0.2642 -0.9083
 4670TIP3    H235646   1.803   6.815   7.806 -0.6175 -0.3208  0.4369
 4671TIP3   OH235647   1.041   1.580   0.107 -0.1757 -0.3061 -0.0422
 4671TIP3    H135648   0.947   1.597   0.117  0.0972  2.2147 -1.1048
 4671TIP3    H235649   1.066   1.535   0.188 -2.2366 -0.8305  0.3583
 4672TIP3   OH235650   6.198   2.695   1.913 -0.0623 -0.2592  0.6598
 4672TIP3    H135651   6.135   2.668   1.846 -0.2308  1.0208  0.2588
 4672TIP3    H235652   6.145   2.717   1.989 -0.2231  1.5273  0.0853
 4673TIP3   OH235653   4.568   0.372   0.010 -0.3190  0.5560  0.4282
 4673TIP3    H135654   4.652   0.341  -0.023 -0.6575  1.3571 -1.2760
 4673TIP3    H235655   4.589   0.407   0.097  1.3245  1.6337 -0.3395
 4674TIP3   OH235656   6.683   1.738   6.664  0.1356 -0.0441  0.8507
 4674TIP3    H135657   6.600   1.768   6.700 -0.7832 -1.4842  0.0288
 4674TIP3    H235658   6.736   1.817   6.657 -1.6754  1.1596  0.0336
 4675TIP3   OH235659   1.743   4.536   7.671  0.2080  0.6749 -0.6505
 4675TIP3    H135660   1.647   4.533   7.665 -0.1938  0.8885  3.0654
 4675TIP3    H235661   1.772   4.449   7.643 -0.8281  1.1895 -3.5932
 4676TIP3   OH235662   2.180   6.711   7.400  0.0112  0.5772  0.3825
 4676TIP3    H135663   2.105   6.739   7.348  0.1141  0.1583  0.0046
 4676TIP3    H235664   2.253   6.762   7.366  0.1666 -0.0140 -0.1972
 4677TIP3   OH235665   3.363   1.349   8.157 -0.4369 -0.1712 -0.3040
 4677TIP3    H135666   3.389   1.298   8.234  0.0676 -0.9361 -0.9620
 4677TIP3    H235667   3.370   1.441   8.185 -1.5037 -0.4530  0.9417
 4678TIP3   OH235668   5.430   6.891   1.773  0.5670  0.4382 -0.3811
 4678TIP3    H135669   5.455   6.808   1.731 -1.7228  0.2606 -1.5239
 4678TIP3    H235670   5.376   6.936   1.708 -2.7611  0.3701  2.0896
 4679TIP3   OH235671   1.920   5.330   8.523  0.3268 -0.3056 -0.0270
 4679TIP3    H135672   1.846   5.302   8.470 -1.2271 -0.0362  1.8533
 4679TIP3    H235673   1.984   5.260   8.514 -1.1319 -1.7126  0.1112
 4680TIP3   OH235674   6.908   3.974   0.917 -0.3006 -0.3167  0.1230
 4680TIP3    H135675   6.912   3.904   0.982 -0.5932 -1.6207 -1.1941
 4680TIP3    H235676   6.999   3.999   0.902 -0.3183  1.3127  2.3261
 4681TIP3   OH235677   6.739   5.759   0.739  0.1242  0.1115  0.5398
 4681TIP3    H135678   6.757   5.816   0.814 -1.5752  0.0645  1.0263
 4681TIP3    H235679   6.729   5.672   0.777 -1.9784  0.2768  0.4875
 4682TIP3   OH235680   5.790   3.443   1.774  0.0609 -0.1921 -1.1684
 4682TIP3    H135681   5.741   3.447   1.855  1.5402 -0.2840 -0.2289
 4682TIP3    H235682   5.838   3.526   1.770 -0.0749 -0.1393 -2.0035
 4683TIP3   OH235683   5.100   5.618   1.782  0.1611 -0.4692 -0.2144
 4683TIP3    H135684   5.143   5.596   1.699 -1.9782  3.2355 -2.5988
 4683TIP3    H235685   5.119   5.711   1.796 -2.4611 -0.0749  1.4999
 4684TIP3   OH235686   3.818   2.062   7.360  0.1294 -0.0229 -0.2459
 4684TIP3    H135687   3.807   1.967   7.369  0.9421 -0.0601  0.5476
 4684TIP3    H235688   3.755   2.100   7.422  2.6951 -0.1856  2.7180
 4685TIP3   OH235689   1.657   6.380   8.398  0.4457  0.5087  0.0930
 4685TIP3    H135690   1.669   6.285   8.405  0.9719  0.6353  1.2215
 4685TIP3    H235691   1.616   6.393   8.313 -2.8458 -1.0432  1.2421
 4686TIP3   OH235692   6.513   3.257   7.182  0.3109  0.2365  0.3566
 4686TIP3    H135693   6.567   3.287   7.108  1.1249 -0.8018  0.4942
 4686TIP3    H235694   6.462   3.184   7.146  0.5474 -0.1300  0.7419
 4687TIP3   OH235695   3.538   2.894   0.219  0.4017  0.0925  0.5387
 4687TIP3    H135696   3.603   2.859   0.158 -1.2369 -0.4914 -0.9359
 4687TIP3    H235697   3.591   2.934   0.289  2.3967  1.5928 -1.6434
 4688TIP3   OH235698   5.250   4.363   6.938  0.4771 -0.3784  0.1259
 4688TIP3    H135699   5.256   4.372   7.033 -3.0867 -1.0729  0.5700
 4688TIP3    H235700   5.239   4.269   6.924 -3.7292 -0.0290 -0.3439
 4689TIP3   OH235701   0.298   5.567   7.249  0.0263 -0.4034 -0.3159
 4689TIP3    H135702   0.278   5.506   7.178  0.3435 -0.6448 -0.1981
 4689TIP3    H235703   0.218   5.618   7.260 -1.0139 -2.1810  0.9865
 4690TIP3   OH235704   0.556   2.890   7.121 -0.3098 -0.1597  0.4055
 4690TIP3    H135705   0.462   2.873   7.120 -0.2772 -0.6239 -2.6356
 4690TIP3    H235706   0.563   2.983   7.102 -0.1580 -0.3149 -0.3225
 4691TIP3   OH235707   6.441   3.531   8.237 -0.2208 -0.2662  0.1316
 4691TIP3    H135708   6.461   3.534   8.144  0.4143 -0.3792  0.2619
 4691TIP3    H235709   6.526   3.529   8.281 -0.5105 -0.0659  0.7206
 4692TIP3   OH235710   5.637   0.133   1.631 -0.0886 -0.0460 -0.5623
 4692TIP3    H135711   5.721   0.089   1.617  0.0080 -0.6759  1.5130
 4692TIP3    H235712   5.575   0.083   1.579  0.3061 -1.7302  0.4815
 4693TIP3   OH235713   0.847   1.925   0.964  0.0529 -0.1114 -0.3015
 4693TIP3    H135714   0.799   1.890   0.889  0.4292 -1.3162  0.0047
 4693TIP3    H235715   0.938   1.926   0.935  0.1574 -0.2675  0.0223
 4694TIP3   OH235716   0.098   3.497   7.287 -0.3919 -0.4394 -0.5467
 4694TIP3    H135717   0.099   3.444   7.207  0.1136 -2.6010  0.8184
 4694TIP3    H235718   0.008   3.490   7.319 -0.3604 -0.3522 -0.4400
 4695TIP3   OH235719   2.597   5.798   6.533  0.4594 -0.3512  0.2067
 4695TIP3    H135720   2.509   5.827   6.509  0.9888  1.4988  0.3546
 4695TIP3    H235721   2.652   5.824   6.459  0.8626 -1.7689 -0.0209
 4696TIP3   OH235722   4.229   3.787   7.203  0.4056  0.5579  0.0599
 4696TIP3    H135723   4.215   3.721   7.135  2.2567 -0.2690  0.4225
 4696TIP3    H235724   4.324   3.794   7.211  0.2689  0.6733  2.5106
 4697TIP3   OH235725   3.443   2.629   8.011  0.2253  0.6066  0.8040
 4697TIP3    H135726   3.487   2.633   8.096 -1.2412  2.7614  1.5417
 4697TIP3    H235727   3.366   2.684   8.021 -1.2198 -0.8810 -1.2677
 4698TIP3   OH235728   6.828   6.001   7.239 -0.6118  0.0300 -0.4165
 4698TIP3    H135729   6.799   5.910   7.239 -0.6514  0.0233  0.9690
 4698TIP3    H235730   6.835   6.025   7.332  0.8023  0.9962 -0.7288
 4699TIP3   OH235731   1.572   2.313   7.170  0.0949 -0.1034 -0.2490
 4699TIP3    H135732   1.499   2.357   7.126 -0.7168 -0.1575  0.9889
 4699TIP3    H235733   1.561   2.336   7.262 -0.3893 -2.8788  0.4671
 4700TIP3   OH235734   2.347   4.312   7.832  0.5486 -0.3071  0.6007
 4700TIP3    H135735   2.259   4.331   7.864  0.0085 -1.6615  0.0115
 4700TIP3    H235736   2.382   4.249   7.894  0.1316 -1.6577 -0.4769
 4701TIP3   OH235737   4.727   5.718   0.697 -0.1516 -0.4020  0.3590
 4701TIP3    H135738   4.679   5.755   0.624  0.7309 -1.3520 -0.7577
 4701TIP3    H235739   4.716   5.781   0.769 -0.6661  0.7739 -0.7230
 4702TIP3   OH235740   4.808   6.223   7.530 -0.0878  0.3054 -0.0887
 4702TIP3    H135741   4.839   6.298   7.581 -0.4258  1.3817 -1.3802
 4702TIP3    H235742   4.880   6.161   7.531 -0.6191 -0.4151  2.9251
 4703TIP3   OH235743   1.088   6.615   7.776  0.4112  0.4714 -0.3740
 4703TIP3    H135744   1.140   6.647   7.850 -1.4798  2.4404  0.1860
 4703TIP3    H235745   0.997   6.632   7.800 -0.3614 -0.1799 -2.5608
 4704TIP3   OH235746   3.944   1.335   1.030  0.0337  0.4870  0.0449
 4704TIP3    H135747   3.959   1.241   1.021 -0.3339  0.4696 -0.4742
 4704TIP3    H235748   4.011   1.375   0.974  0.3204  0.5469  0.4252
 4705TIP3   OH235749   0.699   6.664   0.504  0.0215  0.2148 -1.0564
 4705TIP3    H135750   0.631   6.701   0.448 -1.8789 -1.6910 -0.1443
 4705TIP3    H235751   0.692   6.569   0.491  3.6318 -0.0544 -2.1420
 4706TIP3   OH235752   2.854   2.112   0.545 -0.1253 -0.2191  0.3395
 4706TIP3    H135753   2.761   2.090   0.550  0.0686 -1.3022 -0.5259
 4706TIP3    H235754   2.876   2.104   0.453  0.4468  1.7733  0.2537
 4707TIP3   OH235755   2.718   3.936   1.904  0.1184  0.2963  0.0449
 4707TIP3    H135756   2.664   3.862   1.931  0.4284  0.5366  1.3862
 4707TIP3    H235757   2.794   3.895   1.862  0.8470 -0.2430  1.7879
 4708TIP3   OH235758   0.064   5.101   8.129  0.2639  0.6809 -0.0588
 4708TIP3    H135759   0.056   5.044   8.053 -0.4165  0.0616  0.4570
 4708TIP3    H235760   0.081   5.188   8.093 -2.3773  0.8657 -1.0641
 4709TIP3   OH235761   4.820   0.645   1.737  0.2504  0.0482 -0.1212
 4709TIP3    H135762   4.782   0.731   1.719  1.8788  0.8981  0.2627
 4709TIP3    H235763   4.843   0.610   1.651  0.9217  0.6623 -0.1997
 4710TIP3   OH235764   3.494   3.249   7.455 -0.1312  0.3891  0.7098
 4710TIP3    H135765   3.482   3.163   7.495  0.3561 -0.0125  0.0277
 4710TIP3    H235766   3.519   3.229   7.364  1.8798  1.1864  1.0362
 4711TIP3   OH235767   5.592   2.700   6.968  0.0306 -0.3025 -0.4794
 4711TIP3    H135768   5.597   2.779   6.915  1.0262  0.4701  0.7194
 4711TIP3    H235769   5.578   2.629   6.905  1.4480  0.5394 -1.7918
 4712TIP3   OH235770   0.710   0.142   6.950 -0.3731 -0.1341 -0.4399
 4712TIP3    H135771   0.806   0.142   6.943 -0.4759  0.3125 -2.3893
 4712TIP3    H235772   0.683   0.227   6.917 -1.5303 -1.0682 -2.0568
 4713TIP3   OH235773   5.423   4.838   2.073 -0.0253 -0.0878  0.3349
 4713TIP3    H135774   5.343   4.873   2.113  0.5983  0.2428  1.3375
 4713TIP3    H235775   5.436   4.753   2.115  0.0606 -0.2165  0.0526
 4714TIP3   OH235776   1.371   5.650   7.220  0.1978  0.3401 -0.0187
 4714TIP3    H135777   1.444   5.591   7.237 -0.2712 -0.4837 -0.7497
 4714TIP3    H235778   1.402   5.708   7.151  0.0118 -0.3488 -0.7050
 4715TIP3   OH235779   3.796   4.635   1.920  0.0412 -0.4694 -0.1282
 4715TIP3    H135780   3.773   4.548   1.888 -0.9745 -0.2156 -0.1143
 4715TIP3    H235781   3.810   4.687   1.841 -2.1294  0.0685 -0.2024
 4716TIP3   OH235782   4.427   2.724   2.397 -0.3676  0.2047  0.2552
 4716TIP3    H135783   4.416   2.645   2.450 -3.5171  0.3493 -0.0062
 4716TIP3    H235784   4.522   2.740   2.397  0.5111 -3.9904 -0.4068
 4717TIP3   OH235785   1.427   1.202   7.174  0.2100 -0.0571 -0.3441
 4717TIP3    H135786   1.522   1.190   7.167  0.2854  0.1100  0.2825
 4717TIP3    H235787   1.392   1.168   7.092  0.6931 -1.4020 -0.0183
 4718TIP3   OH235788   5.994   4.741   0.395  0.0788 -0.2747 -0.0530
 4718TIP3    H135789   5.948   4.825   0.395 -1.0809 -0.7347  3.7518
 4718TIP3    H235790   5.944   4.686   0.335 -1.8546  0.5011  0.7730
 4719TIP3   OH235791   3.112   0.894   6.210 -0.0759  0.7170  0.5569
 4719TIP3    H135792   3.175   0.914   6.278 -1.8256 -1.6501  3.0942
 4719TIP3    H235793   3.143   0.812   6.171 -0.3337  0.8080  0.1533
 4720TIP3   OH235794   6.808   0.639   1.228 -0.3738  0.0766  0.8687
 4720TIP3    H135795   6.885   0.599   1.187  0.3143  0.6369  1.6136
 4720TIP3    H235796   6.737   0.622   1.165  0.3009 -0.6270  0.2757
 4721TIP3   OH235797   0.971   3.255   8.215  0.1434  0.2552 -0.3015
 4721TIP3    H135798   0.940   3.187   8.275 -0.5316  0.3919 -0.4848
 4721TIP3    H235799   0.922   3.334   8.240 -0.6709  0.1474 -1.4687
 4722TIP3   OH235800   2.693   2.527   8.076  0.4846  0.2292 -0.0673
 4722TIP3    H135801   2.776   2.495   8.111  1.6791  2.1897 -0.9261
 4722TIP3    H235802   2.707   2.621   8.064 -1.7736  0.5567 -0.5260
 4723TIP3   OH235803   6.336   2.303   7.862  0.4207  0.5160 -0.3756
 4723TIP3    H135804   6.335   2.258   7.778  0.3819 -0.0426 -0.0786
 4723TIP3    H235805   6.277   2.378   7.851 -1.3053 -0.7685 -0.1799
 4724TIP3   OH235806   6.813   0.229   0.283 -0.3311  0.0785 -0.2982
 4724TIP3    H135807   6.866   0.308   0.297 -0.7443 -0.0529  2.9691
 4724TIP3    H235808   6.761   0.249   0.205  1.0347  2.1764 -0.7734
 4725TIP3   OH235809   0.342   4.155   2.590 -0.2632  0.5942  0.3560
 4725TIP3    H135810   0.390   4.209   2.527  1.8411 -1.4991  0.0060
 4725TIP3    H235811   0.384   4.172   2.674  1.6831 -1.6640 -0.0412
 4726TIP3   OH235812   2.918   6.078   6.958 -0.0354 -0.6728  0.0211
 4726TIP3    H135813   2.890   6.125   7.037 -0.8912 -1.7317  0.3801
 4726TIP3    H235814   2.981   6.136   6.916 -1.9138  1.3313 -0.1787
 4727TIP3   OH235815   4.391   2.606   1.328  0.0717  1.0538 -0.6943
 4727TIP3    H135816   4.369   2.512   1.325  0.0786  1.0661 -1.5619
 4727TIP3    H235817   4.362   2.635   1.414  0.9809  0.0324 -0.0106
 4728TIP3   OH235818   4.111   1.504   1.636  0.8317  0.1235  0.0094
 4728TIP3    H135819   4.143   1.589   1.606 -0.4079  0.6377  0.1256
 4728TIP3    H235820   4.100   1.452   1.556  1.3972  0.1211 -0.0744
 4729TIP3   OH235821   0.297   1.666   0.378 -0.0591  0.3174  0.3387
 4729TIP3    H135822   0.225   1.625   0.427  0.5026 -0.9375  0.1636
 4729TIP3    H235823   0.310   1.751   0.420 -3.3581  1.7931 -1.2226
 4730TIP3   OH235824   5.345   0.247   1.735 -0.3279  0.0263  0.0539
 4730TIP3    H135825   5.418   0.203   1.691 -1.4002 -0.8463 -0.8968
 4730TIP3    H235826   5.306   0.303   1.668 -1.3807 -0.5780  0.1491
 4731TIP3   OH235827   0.814   2.894   7.725  0.2217  0.0022 -0.1945
 4731TIP3    H135828   0.828   2.906   7.819 -1.6322  1.8240 -0.0856
 4731TIP3    H235829   0.883   2.946   7.683  0.6484 -0.2778  0.1539
 4732TIP3   OH235830   2.455   1.978   8.354 -0.0294 -0.4392 -0.2957
 4732TIP3    H135831   2.531   1.920   8.350  0.4119  0.1512 -0.6044
 4732TIP3    H235832   2.403   1.955   8.277  0.0576 -0.5412 -0.3239
 4733TIP3   OH235833   2.968   2.233   6.641 -0.6550 -0.2222 -0.0651
 4733TIP3    H135834   3.053   2.242   6.600  0.3693 -2.1131  1.4812
 4733TIP3    H235835   2.970   2.293   6.715 -1.8362  1.8540 -1.5770
 4734TIP3   OH235836   5.720   5.197   0.470 -0.0404 -0.0992 -0.2540
 4734TIP3    H135837   5.693   5.220   0.559  3.3840  2.1598  0.3852
 4734TIP3    H235838   5.681   5.265   0.415  2.8169  2.3160  0.4795
 4735TIP3   OH235839   6.720   5.838   8.286 -0.2220  0.0101 -0.1061
 4735TIP3    H135840   6.708   5.746   8.262 -0.5278  0.2749 -1.0032
 4735TIP3    H235841   6.788   5.837   8.353  0.3845 -0.7970 -0.7234
 4736TIP3   OH235842   5.307   0.135   2.168  0.0732 -0.5780  0.0911
 4736TIP3    H135843   5.274   0.195   2.101  1.7170 -0.1101 -0.3450
 4736TIP3    H235844   5.270   0.169   2.250 -0.1430  0.2042 -0.3140
 4737TIP3   OH235845   2.906   5.942   8.267 -0.5349  0.8976 -0.7954
 4737TIP3    H135846   2.891   6.011   8.203 -1.0399  0.3928 -1.2328
 4737TIP3    H235847   2.930   5.866   8.214  2.1261  1.2524 -0.2330
 4738TIP3   OH235848   5.863   0.000   1.637  0.2357 -0.0557  0.2634
 4738TIP3    H135849   5.910  -0.056   1.575  0.7336 -0.1740  0.7366
 4738TIP3    H235850   5.916   0.080   1.641 -1.2900  1.1633 -1.6224
 4739TIP3   OH235851   2.002   3.834   2.275 -0.4640 -0.1345 -0.2839
 4739TIP3    H135852   1.994   3.805   2.184 -1.3598 -1.7758  0.2752
 4739TIP3    H235853   2.085   3.882   2.278  0.3778 -1.4196 -1.6134
 4740TIP3   OH235854   6.061   3.559   1.240 -0.3845  0.0279  0.8450
 4740TIP3    H135855   6.088   3.651   1.242  1.0516 -0.3821  1.3969
 4740TIP3    H235856   6.014   3.545   1.322 -1.7687  0.5675  0.1868
 4741TIP3   OH235857   1.513   5.166   6.477  0.1445 -0.1738  0.8027
 4741TIP3    H135858   1.597   5.172   6.521  0.8538 -1.5204 -0.3013
 4741TIP3    H235859   1.527   5.103   6.406 -1.4609  0.4719 -0.1534
 4742TIP3   OH235860   1.461   4.197   2.450 -0.3349  0.4710  0.8488
 4742TIP3    H135861   1.373   4.163   2.462 -0.4736  0.4652 -0.1110
 4742TIP3    H235862   1.465   4.275   2.506 -0.1748 -0.7892  2.6835
 4743TIP3   OH235863   4.967   6.566   8.547 -0.0409  0.0868  0.4243
 4743TIP3    H135864   4.997   6.499   8.609  0.4766 -1.9049 -1.8145
 4743TIP3    H235865   4.879   6.538   8.522 -0.0871  0.6022 -0.0101
 4744TIP3   OH235866   4.154   0.203   7.106 -0.0012  0.4243  0.4471
 4744TIP3    H135867   4.156   0.252   7.023  0.2263 -0.1405  0.1138
 4744TIP3    H235868   4.061   0.187   7.122 -0.0051 -0.3348 -0.2330
 4745TIP3   OH235869   3.263   6.570   8.255 -0.0886  0.1680 -0.2879
 4745TIP3    H135870   3.193   6.621   8.214 -0.8838  0.1927  1.0318
 4745TIP3    H235871   3.289   6.623   8.331  1.6901  0.3671 -1.0040
 4746TIP3   OH235872   4.381   5.187   0.313 -0.1802  0.5192  0.4572
 4746TIP3    H135873   4.302   5.197   0.260 -0.7966  1.6184  1.5131
 4746TIP3    H235874   4.433   5.264   0.294  1.1434 -0.6748 -0.9698
 4747TIP3   OH235875   6.007   0.954   2.309 -0.2605 -0.2267  0.0462
 4747TIP3    H135876   6.032   0.894   2.380  0.6583  0.8077  0.6217
 4747TIP3    H235877   5.956   1.022   2.353 -0.8035 -0.2751 -0.5063
 4748TIP3   OH235878   3.412   4.345   7.299  0.0259  0.1960 -0.5617
 4748TIP3    H135879   3.367   4.382   7.375  0.0482  0.4260 -0.6608
 4748TIP3    H235880   3.402   4.250   7.309 -2.4880  0.2225 -1.7407
 4749TIP3   OH235881   6.037   5.064   1.096 -0.8000 -0.2199 -0.4133
 4749TIP3    H135882   6.093   5.094   1.024  0.1357  0.0915  0.4195
 4749TIP3    H235883   5.984   5.140   1.118 -0.7876 -0.1868 -0.4958
 4750TIP3   OH235884   3.767   2.015   0.934  0.3193 -0.5184 -0.5234
 4750TIP3    H135885   3.762   2.074   0.859 -1.7539 -0.6920 -0.5805
 4750TIP3    H235886   3.724   2.063   1.006 -1.9664 -2.0691 -0.7246
 4751TIP3   OH235887   2.898   2.564   7.269 -0.3020  0.1570 -0.4219
 4751TIP3    H135888   2.990   2.556   7.244 -0.5448 -0.7340 -1.0855
 4751TIP3    H235889   2.850   2.545   7.188 -1.0728  2.4312 -0.5742
 4752TIP3   OH235890   2.711   6.382   8.474 -0.2857 -0.2920 -0.2248
 4752TIP3    H135891   2.769   6.362   8.402 -0.0227  0.8427 -0.3490
 4752TIP3    H235892   2.624   6.389   8.434  0.1163  2.2089 -0.8169
 4753TIP3   OH235893   5.994   1.692   2.480  0.0530 -0.1196  0.0184
 4753TIP3    H135894   6.055   1.664   2.548  1.6857  1.0246 -0.9123
 4753TIP3    H235895   6.023   1.647   2.401 -0.2731  0.4661 -0.4438
 4754TIP3   OH235896   2.717   1.888   8.360  0.0928  0.9604 -0.1974
 4754TIP3    H135897   2.795   1.931   8.325  0.7846  0.3129  0.5156
 4754TIP3    H235898   2.741   1.862   8.449 -0.1956 -1.0687 -0.6445
 4755TIP3   OH235899   5.541   0.092   8.342 -0.3143  0.1773 -0.6331
 4755TIP3    H135900   5.546   0.030   8.415 -0.2913 -0.6517 -1.3179
 4755TIP3    H235901   5.448   0.095   8.319 -0.4032  0.8836 -0.2057
 4756TIP3   OH235902   4.261   0.794   1.739  0.1756  0.6037 -0.4096
 4756TIP3    H135903   4.284   0.824   1.652 -2.0295  0.8847 -0.9400
 4756TIP3    H235904   4.166   0.796   1.741  0.1498 -0.3014  1.6936
 4757TIP3   OH235905   2.557   4.355   1.719 -0.4407 -0.0213 -0.0035
 4757TIP3    H135906   2.643   4.316   1.732 -0.4321 -0.1666 -0.4781
 4757TIP3    H235907   2.505   4.321   1.792 -0.0982  0.0653  0.2822
 4758TIP3   OH235908   5.533   0.489   7.098  0.1748 -0.0887  0.3327
 4758TIP3    H135909   5.486   0.503   7.016  0.1161 -0.6855  0.2584
 4758TIP3    H235910   5.536   0.575   7.140  1.3109  0.4906 -0.8850
 4759TIP3   OH235911   3.883   3.202   8.055  1.3520 -0.1081  0.6031
 4759TIP3    H135912   3.943   3.245   7.994  0.6104  2.1885  1.3683
 4759TIP3    H235913   3.902   3.242   8.140 -0.8751  0.3954  0.9532
 4760TIP3   OH235914   2.928   4.813   1.374  0.0348 -0.4222  0.1302
 4760TIP3    H135915   2.924   4.800   1.279 -0.8522 -4.5074  0.5352
 4760TIP3    H235916   2.841   4.792   1.405  0.1571  1.3802  1.9084
 4761TIP3   OH235917   3.039   4.039   2.608  0.7149  0.3787 -0.2534
 4761TIP3    H135918   3.088   3.960   2.628 -0.7988 -0.4732  0.2310
 4761TIP3    H235919   3.103   4.098   2.568  1.7476 -1.3019 -1.1728
 4762TIP3   OH235920   5.259   4.627   1.278 -0.1060  0.1192  0.2388
 4762TIP3    H135921   5.275   4.582   1.195 -0.7304  1.2045 -0.4989
 4762TIP3    H235922   5.286   4.717   1.262  2.3121 -0.1926  2.0693
 4763TIP3   OH235923   3.094   3.456   8.373  0.0653  0.2008  0.1909
 4763TIP3    H135924   3.139   3.373   8.389 -1.0502 -0.4631  0.0109
 4763TIP3    H235925   3.079   3.493   8.460 -0.2916 -0.2637  0.3307
 4764TIP3   OH235926   2.531   0.906   1.308  0.5176  0.1933  0.3048
 4764TIP3    H135927   2.469   0.834   1.323 -0.5323  0.8861 -0.5917
 4764TIP3    H235928   2.612   0.876   1.349  0.4100 -1.9624 -0.9171
 4765TIP3   OH235929   4.065   5.902   0.049 -0.1968 -0.2251 -0.2260
 4765TIP3    H135930   4.156   5.886   0.073 -0.1727 -0.0892 -0.2283
 4765TIP3    H235931   4.062   5.888  -0.046 -0.0679  0.2846 -0.3056
 4766TIP3   OH235932   2.855   6.440   1.371 -0.2622  0.0249  0.2117
 4766TIP3    H135933   2.906   6.360   1.382  0.0331  0.1413 -0.2542
 4766TIP3    H235934   2.781   6.430   1.431  0.5911  0.0913  1.3138
 4767TIP3   OH235935   4.186   4.850   6.858 -0.2728 -0.2256 -0.0832
 4767TIP3    H135936   4.193   4.846   6.763  0.2516 -1.1154 -0.0105
 4767TIP3    H235937   4.094   4.829   6.877 -0.9155  1.9581 -0.4847
 4768TIP3   OH235938   1.001   1.369   6.757  0.1643  0.4363 -0.1406
 4768TIP3    H135939   0.936   1.417   6.808  0.3541 -0.0439  0.5719
 4768TIP3    H235940   1.056   1.326   6.823  0.8607  0.3860 -0.7425
 4769TIP3   OH235941   2.146   0.786   7.868  0.2641 -0.0238  0.1087
 4769TIP3    H135942   2.050   0.785   7.866  0.2713  0.2575 -0.8290
 4769TIP3    H235943   2.168   0.850   7.936 -0.2088  0.0253  0.2215
 4770TIP3   OH235944   0.239   4.881   1.531 -0.1643  0.5199  0.1888
 4770TIP3    H135945   0.310   4.894   1.593  0.2208  0.2826 -0.1941
 4770TIP3    H235946   0.244   4.788   1.509  0.0268  0.7049 -0.5758
 4771TIP3   OH235947   6.750   5.530   0.879  0.5629 -0.1166  0.0625
 4771TIP3    H135948   6.692   5.526   0.954  0.4697  0.1076  0.0060
 4771TIP3    H235949   6.745   5.443   0.839  0.7828 -0.3020  0.4384
 4772TIP3   OH235950   4.735   3.285   1.299 -0.2154 -0.0377  0.3930
 4772TIP3    H135951   4.806   3.306   1.361  0.0947  0.6438 -0.1827
 4772TIP3    H235952   4.734   3.189   1.295  0.7846 -0.0492  0.2809
 4773TIP3   OH235953   4.049   6.401   7.602  0.4268 -0.2271  0.3335
 4773TIP3    H135954   4.109   6.416   7.529 -0.1728  0.0838 -0.1069
 4773TIP3    H235955   3.962   6.417   7.565  0.0672 -0.7218  0.9459
 4774TIP3   OH235956   1.692   1.794   8.182  0.1904  0.1375  0.4452
 4774TIP3    H135957   1.719   1.702   8.175 -0.0108  0.0917  0.2711
 4774TIP3    H235958   1.602   1.795   8.149  0.4561  0.5255 -0.2923
 4775TIP3   OH235959   6.005   6.389   2.568  0.2197  0.2825  0.4859
 4775TIP3    H135960   5.952   6.343   2.633 -1.1237 -0.3019 -0.9567
 4775TIP3    H235961   6.000   6.334   2.490 -1.6904  2.9375 -1.4140
 4776TIP3   OH235962   0.014   3.536   0.322  0.3412  0.3501  0.2497
 4776TIP3    H135963   0.052   3.591   0.254  0.9609  0.8252  0.9621
 4776TIP3    H235964  -0.018   3.599   0.388 -0.1950 -0.0997  0.4222
 4777TIP3   OH235965   3.251   2.184   8.420  0.0750 -0.0174 -0.4822
 4777TIP3    H135966   3.235   2.215   8.331 -0.1960 -0.0906 -0.4616
 4777TIP3    H235967   3.309   2.109   8.410 -0.6645 -0.5789 -0.6735
 4778TIP3   OH235968   0.054   5.961   7.854  0.3070  0.1044  0.1230
 4778TIP3    H135969   0.113   6.008   7.794  3.7025 -0.2574  2.8474
 4778TIP3    H235970   0.070   5.868   7.836 -0.4964 -0.0209  0.0032
 4779TIP3   OH235971   5.001   3.553   2.077  0.3199  0.6788  0.1671
 4779TIP3    H135972   5.047   3.474   2.105 -2.2902  0.0431  3.2308
 4779TIP3    H235973   4.979   3.537   1.985  3.2330 -0.3212 -0.4559
 4780TIP3   OH235974   6.525   6.417   1.738  0.2103 -0.0296  0.1545
 4780TIP3    H135975   6.614   6.424   1.774  1.7940 -2.6404 -2.7745
 4780TIP3    H235976   6.536   6.373   1.654 -3.9755 -1.1896 -0.0197
 4781TIP3   OH235977   2.920   0.281   8.177 -0.0907  0.4508  0.1096
 4781TIP3    H135978   2.844   0.340   8.170  0.1202  0.9102  1.3185
 4781TIP3    H235979   2.995   0.340   8.183  0.1720  0.0612  0.8271
 4782TIP3   OH235980   2.260   2.905   8.571  0.5046  0.7445 -0.6843
 4782TIP3    H135981   2.309   2.915   8.489  0.9683 -2.1975 -0.8832
 4782TIP3    H235982   2.321   2.862   8.630 -0.8593 -0.2254  0.0746
 4783TIP3   OH235983   2.906   4.333   0.557  0.3994 -0.5663  0.8721
 4783TIP3    H135984   2.951   4.352   0.475  0.6459 -0.2480  1.0750
 4783TIP3    H235985   2.856   4.412   0.575  0.2009 -0.7064  0.9332
 4784TIP3   OH235986   3.784   4.573   0.847  0.2733  0.7410 -0.1673
 4784TIP3    H135987   3.867   4.560   0.893  0.1994  1.7978  0.2978
 4784TIP3    H235988   3.760   4.486   0.815  0.1068 -0.1553  2.1725
 4785TIP3   OH235989   2.988   4.030   1.196  0.4665  0.0586  0.1446
 4785TIP3    H135990   2.935   4.090   1.144  1.0277 -0.0417 -0.5585
 4785TIP3    H235991   3.073   4.030   1.154  0.8726 -0.2016  0.9378
 4786TIP3   OH235992   1.484   3.790   1.921 -0.2079 -0.4975  0.4469
 4786TIP3    H135993   1.441   3.804   1.836 -1.5776 -0.4779  1.1211
 4786TIP3    H235994   1.531   3.707   1.911 -0.8086 -0.7745 -0.1651
 4787TIP3   OH235995   1.092   4.247   0.977  0.1728  0.9717  0.1670
 4787TIP3    H135996   1.116   4.339   0.982  0.8092  0.7442  1.9614
 4787TIP3    H235997   1.167   4.200   1.015 -0.5972 -0.1869  0.3188
 4788TIP3   OH235998   1.382   3.035   6.528  0.7756  0.0532 -0.0543
 4788TIP3    H135999   1.382   3.130   6.540  1.8419  0.0134  0.3621
 4788TIP3    H236000   1.366   3.022   6.435  2.2046  0.7013 -0.4108
 4789TIP3   OH236001   6.743   0.935   8.443 -0.3411 -0.1846 -0.4583
 4789TIP3    H136002   6.703   0.920   8.358  0.0146  0.1770 -0.6959
 4789TIP3    H236003   6.699   0.874   8.502  0.5908 -1.6768 -1.2447
 4790TIP3   OH236004   2.716   3.511   7.229 -0.5010  0.2725  0.2037
 4790TIP3    H136005   2.674   3.536   7.147 -0.4073  0.5346  0.2340
 4790TIP3    H236006   2.678   3.570   7.294 -2.3626 -1.4775  0.8114
 4791TIP3   OH236007   1.060   0.324   0.537 -0.2871  0.1656 -0.6658
 4791TIP3    H136008   1.120   0.250   0.543  0.9121  1.1484 -0.2821
 4791TIP3    H236009   1.040   0.331   0.443 -0.8479 -0.9423 -0.6586
 4792TIP3   OH236010   5.890   1.085   0.244  0.3225 -0.4854 -0.3524
 4792TIP3    H136011   5.958   1.039   0.195  0.2116 -1.5041  0.4368
 4792TIP3    H236012   5.821   1.101   0.179  1.2433  0.4816 -1.1398
 4793TIP3   OH236013   1.507   5.365   2.746  0.2061  0.3969 -0.2979
 4793TIP3    H136014   1.512   5.387   2.653  2.6124  1.9492  0.0903
 4793TIP3    H236015   1.537   5.444   2.790 -0.3802 -0.4863  1.7963
 4794TIP3   OH236016   5.062   6.778   0.592 -0.2292  0.1573  0.5450
 4794TIP3    H136017   5.149   6.752   0.622 -0.0539 -0.5378 -0.5115
 4794TIP3    H236018   5.080   6.837   0.519 -0.6364 -0.5079 -0.1028
 4795TIP3   OH236019   1.855   2.693   8.008 -0.0550 -0.2100 -0.3071
 4795TIP3    H136020   1.929   2.684   8.068 -0.3304 -0.4359 -0.0041
 4795TIP3    H236021   1.802   2.763   8.046 -0.9170 -1.2357  0.4296
 4796TIP3   OH236022   1.453   6.373   6.846  0.2948 -0.3034  0.1049
 4796TIP3    H136023   1.491   6.353   6.761 -0.6768 -1.1695 -0.1538
 4796TIP3    H236024   1.525   6.363   6.908  0.1413 -4.2092 -0.0711
 4797TIP3   OH236025   4.625   3.193   6.304  0.2794  0.4001  0.0961
 4797TIP3    H136026   4.706   3.177   6.353 -0.0879 -0.3636  0.4629
 4797TIP3    H236027   4.567   3.237   6.366  0.2168  0.4661 -0.0079
 4798TIP3   OH236028   0.672   4.986   6.632 -0.7460 -0.6190 -0.0938
 4798TIP3    H136029   0.710   4.907   6.593  1.1638  0.3441 -0.3251
 4798TIP3    H236030   0.745   5.025   6.681 -1.0006  2.0449 -1.6364
 4799TIP3   OH236031   5.877   5.451   0.489 -0.7724 -0.8554  0.1404
 4799TIP3    H136032   5.912   5.391   0.555 -3.5783  0.1103  2.7370
 4799TIP3    H236033   5.872   5.399   0.409  1.5680 -2.4844  0.9377
 4800TIP3   OH236034   1.689   2.493   7.869  0.2483 -0.1050  0.2958
 4800TIP3    H136035   1.756   2.541   7.917  0.3323  0.4290 -0.3284
 4800TIP3    H236036   1.637   2.562   7.826  0.2620 -0.5576 -0.4693
 4801TIP3   OH236037   5.147   0.753   1.125 -0.2266  0.3952  0.0889
 4801TIP3    H136038   5.058   0.784   1.140 -0.6519 -0.8669  0.2555
 4801TIP3    H236039   5.175   0.798   1.045 -0.5532  1.7179  0.6837
 4802TIP3   OH236040   6.020   5.716   7.353  0.4401 -0.1129  0.2531
 4802TIP3    H136041   5.975   5.797   7.330 -0.9350 -1.3450 -1.7145
 4802TIP3    H236042   6.022   5.715   7.449 -1.4912  1.1999  0.3501
 4803TIP3   OH236043   1.090   6.707   2.342 -0.0508  0.9085 -0.3144
 4803TIP3    H136044   1.145   6.651   2.396 -0.0454  1.3465  0.1371
 4803TIP3    H236045   1.009   6.657   2.329 -0.4559  1.2185  0.9440
 4804TIP3   OH236046   1.505   3.924   7.360 -0.5573  0.1508  0.0895
 4804TIP3    H136047   1.510   4.016   7.334 -0.7446 -0.4575 -2.3486
 4804TIP3    H236048   1.418   3.915   7.400 -0.3730  1.1008  0.7290
 4805TIP3   OH236049   0.680   2.058   8.213  0.0587  0.2076 -0.4670
 4805TIP3    H136050   0.665   2.117   8.138  1.0833 -0.2361 -1.0464
 4805TIP3    H236051   0.659   2.111   8.290  1.6288  1.5855 -0.9376
 4806TIP3   OH236052   5.199   6.891   1.925  0.0716  0.4657  0.1787
 4806TIP3    H136053   5.221   6.963   1.984  1.0847 -0.3863  0.8867
 4806TIP3    H236054   5.280   6.875   1.876  0.2191 -0.8504  0.7830
 4807TIP3   OH236055   5.664   5.272   1.124 -0.1938 -0.5891 -0.0265
 4807TIP3    H136056   5.760   5.267   1.123 -0.0578  1.2610 -1.3963
 4807TIP3    H236057   5.645   5.359   1.157 -1.4105 -0.7878 -0.1775
 4808TIP3   OH236058   3.734   1.077   2.521 -0.3146 -0.3505  0.4199
 4808TIP3    H136059   3.752   1.163   2.557  0.2021 -0.5737  0.6971
 4808TIP3    H236060   3.767   1.081   2.431 -3.6400  0.9764 -0.9366
 4809TIP3   OH236061   1.129   3.601   1.555  0.2569 -0.3356  0.5911
 4809TIP3    H136062   1.179   3.651   1.620  0.6297  0.9445 -0.6242
 4809TIP3    H236063   1.187   3.529   1.530  2.4680  2.0939 -2.0980
 4810TIP3   OH236064   6.239   4.583   7.310 -0.1131  0.2123 -0.0367
 4810TIP3    H136065   6.158   4.617   7.271 -0.4620 -0.7149 -0.1476
 4810TIP3    H236066   6.267   4.652   7.371  0.3276  1.6076 -1.7110
 4811TIP3   OH236067   4.594   5.337   1.159  0.1205 -0.8123 -0.5637
 4811TIP3    H136068   4.610   5.431   1.145  2.1390 -1.2129 -1.2328
 4811TIP3    H236069   4.615   5.324   1.251 -2.7705 -0.1821  0.2994
 4812TIP3   OH236070   2.103   3.786   2.017  0.7528 -0.0225  0.1867
 4812TIP3    H136071   2.078   3.806   1.927 -2.4140  0.5220  1.0716
 4812TIP3    H236072   2.144   3.699   2.012 -0.5206 -0.5691 -1.6214
 4813TIP3   OH236073   5.928   6.525   1.192  0.2882  0.1311 -0.3803
 4813TIP3    H136074   5.876   6.596   1.154 -0.8281 -0.9567 -0.9923
 4813TIP3    H236075   5.955   6.472   1.117  0.8914 -0.2269  0.0804
 4814TIP3   OH236076   0.798   5.345   8.012  0.1756 -0.5971  0.2847
 4814TIP3    H136077   0.779   5.323   8.103 -0.7297 -1.4375 -0.0920
 4814TIP3    H236078   0.814   5.439   8.012 -1.4225 -0.2980  1.0681
 4815TIP3   OH236079   4.865   6.291   1.733  0.2152  0.0537 -0.0615
 4815TIP3    H136080   4.850   6.367   1.678  1.0683 -0.7685 -1.5104
 4815TIP3    H236081   4.784   6.240   1.727 -0.8244  1.3842  1.8997
 4816TIP3   OH236082   0.272   1.000   7.997 -1.0633  0.0592 -0.2166
 4816TIP3    H136083   0.216   0.968   8.067  0.1193 -0.8920  0.3172
 4816TIP3    H236084   0.212   1.017   7.924 -2.0447 -0.9455  0.3319
 4817TIP3   OH236085   6.606   1.153   1.844  0.9564 -0.2313  0.3057
 4817TIP3    H136086   6.554   1.098   1.785 -0.4778  0.8770  0.4745
 4817TIP3    H236087   6.657   1.209   1.786  1.1709 -0.5927  0.1384
 4818TIP3   OH236088   0.319   5.554   1.841 -0.5136 -0.2886 -0.2705
 4818TIP3    H136089   0.328   5.470   1.886 -0.0246 -0.4231 -0.6191
 4818TIP3    H236090   0.233   5.587   1.869 -0.4697 -0.6424  0.2976
 4819TIP3   OH236091   5.483   6.759   6.488  0.5106 -0.7605 -0.0626
 4819TIP3    H136092   5.404   6.799   6.451  1.6337  0.3265 -1.4044
 4819TIP3    H236093   5.533   6.833   6.524  1.9245 -1.0988 -1.2317
 4820TIP3   OH236094   0.370   4.474   0.677 -0.0245  0.4838 -0.3927
 4820TIP3    H136095   0.291   4.478   0.731 -1.9235  0.7171 -2.9898
 4820TIP3    H236096   0.338   4.484   0.588  2.8241 -0.8924 -1.6836
 4821TIP3   OH236097   1.001   2.179   0.230 -0.0218 -0.0931  0.0161
 4821TIP3    H136098   1.095   2.179   0.250  0.4522 -1.6026 -2.0280
 4821TIP3    H236099   0.979   2.272   0.222  0.9407  0.3496  1.8953
 4822TIP3   OH236100   4.488   0.020   8.041  0.1821  0.0227 -0.3262
 4822TIP3    H136101   4.505   0.107   8.006  0.2408  0.6841  1.2503
 4822TIP3    H236102   4.398   0.000   8.016  0.1642  0.5337 -0.6772
 4823TIP3   OH236103   6.314   6.107   7.796  0.1909  0.2254  0.6336
 4823TIP3    H136104   6.334   6.045   7.866  1.1169 -0.6222 -0.3560
 4823TIP3    H236105   6.322   6.193   7.837 -0.7323 -0.2711  1.9319
 4824TIP3   OH236106   0.973   6.414   7.615  0.2926 -0.1348 -0.2196
 4824TIP3    H136107   1.036   6.394   7.545  0.7546 -0.9739  0.4159
 4824TIP3    H236108   1.021   6.472   7.674  0.3364 -0.4560  0.0610
 4825TIP3   OH236109   4.146   6.095   1.559  0.3821  0.5444 -0.9753
 4825TIP3    H136110   4.219   6.043   1.527  1.6525  2.2050 -0.9352
 4825TIP3    H236111   4.072   6.068   1.504  1.2801 -0.3830 -1.7829
 4826TIP3   OH236112   0.929   2.172   6.617  0.4808 -0.6155 -0.4825
 4826TIP3    H136113   1.020   2.143   6.618  1.1482  1.3676  0.2835
 4826TIP3    H236114   0.912   2.194   6.526  0.7119 -1.1326 -0.6561
 4827TIP3   OH236115   1.363   5.681   2.749 -0.1013  0.4065 -0.2631
 4827TIP3    H136116   1.418   5.758   2.735 -0.3343  0.5020 -0.6635
 4827TIP3    H236117   1.361   5.637   2.664  1.2048 -0.8288  0.3123
 4828TIP3   OH236118   2.775   4.557   0.578 -0.6867  0.2296 -0.0736
 4828TIP3    H136119   2.798   4.635   0.627  0.8161  1.7021 -2.9133
 4828TIP3    H236120   2.706   4.585   0.518 -1.3047 -1.0668 -0.0218
 4829TIP3   OH236121   0.250   2.478   7.906 -0.5991 -0.2347 -0.0571
 4829TIP3    H136122   0.209   2.546   7.853  2.4807  1.2141 -0.8050
 4829TIP3    H236123   0.305   2.429   7.844 -0.6870 -1.6911  0.9645
 4830TIP3   OH236124   3.308   6.500   6.837 -0.1879 -0.6993  0.1244
 4830TIP3    H136125   3.368   6.519   6.765  2.4566 -2.2035  1.8027
 4830TIP3    H236126   3.262   6.421   6.809 -0.1954 -0.5022 -0.4477
 4831TIP3   OH236127   2.635   3.998   1.371  0.2573  0.3391  0.3153
 4831TIP3    H136128   2.583   3.935   1.322  0.9480 -0.5699  0.7048
 4831TIP3    H236129   2.604   3.989   1.461 -0.9918  1.9824  0.0869
 4832TIP3   OH236130   4.031   1.039   2.002 -0.1139 -0.2227  0.5100
 4832TIP3    H136131   4.009   0.946   2.012 -2.3475  0.1334 -0.4149
 4832TIP3    H236132   4.044   1.050   1.908  3.2073 -0.1303  0.8702
 4833TIP3   OH236133   3.073   2.591   1.922  0.3424  0.4814 -0.6030
 4833TIP3    H136134   3.053   2.662   1.862 -0.5135 -0.2936 -1.2647
 4833TIP3    H236135   2.988   2.561   1.953  0.7747  1.0953  1.3097
 4834TIP3   OH236136   3.072   2.016   7.215  0.1978  0.4414  0.3291
 4834TIP3    H136137   3.077   1.975   7.129  0.0107 -1.0994  1.0302
 4834TIP3    H236138   3.000   1.971   7.260 -0.4561  1.9883  0.9142
 4835TIP3   OH236139   3.449   3.606   0.693  0.1799 -0.5096  0.1420
 4835TIP3    H136140   3.400   3.531   0.660 -0.2915  0.2999 -1.0789
 4835TIP3    H236141   3.508   3.569   0.759 -0.3142 -1.8783 -0.1448
 4836TIP3   OH236142   4.752   5.247   0.948 -0.2190  0.3326 -0.0035
 4836TIP3    H136143   4.685   5.270   1.013 -1.9278 -0.5388 -1.3480
 4836TIP3    H236144   4.754   5.321   0.888 -0.5195  0.0604 -0.3576
 4837TIP3   OH236145   4.659   1.726   1.908  0.4834 -0.1580 -0.2756
 4837TIP3    H136146   4.673   1.720   2.003 -0.0506  1.9377 -0.0005
 4837TIP3    H236147   4.727   1.786   1.879 -1.0923  1.5150 -0.6998
 4838TIP3   OH236148   0.749   0.062   7.445  0.2198  0.6352  0.3602
 4838TIP3    H136149   0.776   0.130   7.505 -0.1386 -0.0404  1.3094
 4838TIP3    H236150   0.709   0.109   7.371 -1.8868  1.4397  1.9003
 4839TIP3   OH236151   2.784   6.504   7.348  0.3742 -0.7414  0.1642
 4839TIP3    H136152   2.811   6.596   7.357 -2.1974  0.0224  1.1877
 4839TIP3    H236153   2.749   6.498   7.260 -1.7848  0.0614  0.8820
 4840TIP3   OH236154   0.468   6.561   2.136 -0.3540 -0.1202  0.3243
 4840TIP3    H136155   0.535   6.521   2.191  0.7958  0.9592 -0.2339
 4840TIP3    H236156   0.407   6.490   2.117  1.8283 -1.7681 -0.9803
 4841TIP3   OH236157   0.548   1.706   1.024  0.4920  0.0409  0.9990
 4841TIP3    H136158   0.620   1.745   0.973  0.8807 -0.2292  1.3368
 4841TIP3    H236159   0.555   1.747   1.110 -1.1940  1.7636  0.3840
 4842TIP3   OH236160   3.680   1.817   6.984  0.1908 -0.0279 -0.2959
 4842TIP3    H136161   3.648   1.727   6.993 -3.8770  1.2269 -0.2829
 4842TIP3    H236162   3.684   1.832   6.889  0.8751 -0.1847 -0.2988
 4843TIP3   OH236163   3.342   0.983   6.719  0.4982 -0.1269 -0.0770
 4843TIP3    H136164   3.314   1.028   6.799 -0.3016  0.6875 -0.7904
 4843TIP3    H236165   3.434   0.961   6.734  0.5608  0.6926  0.7715
 4844TIP3   OH236166   5.970   6.469   7.799 -0.4909  0.8519 -1.0953
 4844TIP3    H136167   5.911   6.497   7.869 -0.5423 -1.0233 -0.3190
 4844TIP3    H236168   6.056   6.502   7.827 -1.0441  3.2310 -2.0255
 4845TIP3   OH236169   6.118   6.191   7.531  0.0334 -0.0888 -0.1365
 4845TIP3    H136170   6.151   6.251   7.597 -0.3891 -1.8206  1.7425
 4845TIP3    H236171   6.194   6.139   7.505 -0.0313 -0.1728 -0.1611
 4846TIP3   OH236172   2.374   6.612   0.843  0.1162  0.0598 -0.0351
 4846TIP3    H136173   2.308   6.597   0.776  1.3272  2.4810 -1.9360
 4846TIP3    H236174   2.442   6.547   0.824 -0.3707 -0.4955  0.0780
 4847TIP3   OH236175   0.434   0.237   0.212  0.0679 -0.2531  0.5802
 4847TIP3    H136176   0.347   0.199   0.221  0.7153 -1.4904  1.8772
 4847TIP3    H236177   0.427   0.293   0.134 -0.8626 -3.2522 -1.7004
 4848TIP3   OH236178   2.816   2.361   0.018  1.0599 -0.7095 -0.1020
 4848TIP3    H136179   2.754   2.296  -0.014 -0.4902  1.1511 -1.0436
 4848TIP3    H236180   2.898   2.312   0.028  0.0628 -2.7164 -1.0465
 4849TIP3   OH236181   3.180   6.046   0.189 -0.6083  0.0028  0.5349
 4849TIP3    H136182   3.243   6.073   0.122 -1.3791  2.3513  0.6317
 4849TIP3    H236183   3.203   5.956   0.210  0.5018 -0.3626 -1.9126
 4850TIP3   OH236184   5.521   2.712   1.507 -0.2985  0.4138 -0.0320
 4850TIP3    H136185   5.609   2.743   1.483 -0.3444  0.4859 -0.1104
 4850TIP3    H236186   5.464   2.746   1.437 -0.4691  0.8186  0.2952
 4851TIP3   OH236187   0.928   3.789   7.696  0.5973 -0.2068 -0.1723
 4851TIP3    H136188   1.011   3.814   7.737  0.9819  1.1915 -1.7093
 4851TIP3    H236189   0.897   3.868   7.652 -2.0374 -0.4331  1.0567
 4852TIP3   OH236190   2.407   0.731   0.546 -0.4982 -0.3703 -0.0002
 4852TIP3    H136191   2.372   0.672   0.613  0.6292 -0.4333  0.5593
 4852TIP3    H236192   2.332   0.783   0.519 -0.6983  0.8235  2.5433
 4853TIP3   OH236193   0.191   5.758   7.652 -0.3329 -0.5227 -0.3688
 4853TIP3    H136194   0.194   5.731   7.744 -1.1927  0.5497 -0.0045
 4853TIP3    H236195   0.280   5.743   7.620  0.5266  0.8671  1.1884
 4854TIP3   OH236196   5.587   4.232   1.029  0.2187 -0.0509 -0.3121
 4854TIP3    H136197   5.576   4.287   0.951 -1.7767  0.4246  0.2348
 4854TIP3    H236198   5.636   4.287   1.090  1.2417 -0.1930 -0.9812
 4855TIP3   OH236199   1.526   6.529   0.366  0.2841 -0.6418 -0.0196
 4855TIP3    H136200   1.606   6.563   0.405  0.2347 -0.5755  0.0233
 4855TIP3    H236201   1.460   6.538   0.434  0.3866 -1.3125  0.1787
 4856TIP3   OH236202   2.641   3.558   7.875 -0.1663 -0.7788  0.2342
 4856TIP3    H136203   2.659   3.605   7.956  1.0675 -0.8111 -0.0084
 4856TIP3    H236204   2.724   3.517   7.851 -0.4527 -0.6167 -1.1499
 4857TIP3   OH236205   3.381   3.070   8.134  0.3724  0.0803 -0.5863
 4857TIP3    H136206   3.349   2.981   8.153  2.3672 -0.8777 -1.4166
 4857TIP3    H236207   3.476   3.061   8.130  0.5404  1.9294 -2.3318
 4858TIP3   OH236208   2.936   5.446   0.062 -0.0145  0.0858 -0.3019
 4858TIP3    H136209   2.845   5.424   0.081  0.1130  0.4883  0.8196
 4858TIP3    H236210   2.950   5.414  -0.027 -2.2464  2.9382 -1.8561
 4859TIP3   OH236211   0.450   1.497   8.043 -0.3402  0.1169 -0.4792
 4859TIP3    H136212   0.514   1.447   8.093 -0.1967  0.7663  0.0053
 4859TIP3    H236213   0.365   1.464   8.072 -0.2376 -0.5519 -0.9180
 4860TIP3   OH236214   4.912   1.798   0.082  0.5617  0.3059 -0.3815
 4860TIP3    H136215   4.847   1.811   0.012  1.5538  0.4250 -1.3194
 4860TIP3    H236216   4.959   1.881   0.086  0.1335  0.4990  0.8635
 4861TIP3   OH236217   2.932   6.787   7.333 -0.2598  0.0643 -0.1840
 4861TIP3    H136218   2.979   6.746   7.260  0.7331  1.7961 -0.5677
 4861TIP3    H236219   3.000   6.834   7.382 -1.4363  1.9496 -0.2753
 4862TIP3   OH236220   6.388   4.365   2.573 -0.1015 -0.1883 -0.0377
 4862TIP3    H136221   6.353   4.453   2.561  0.6143 -0.0807 -1.6200
 4862TIP3    H236222   6.311   4.311   2.594 -1.3678 -0.0071 -3.5961
 4863TIP3   OH236223   6.687   0.270   6.875 -0.6048 -0.1195  0.4320
 4863TIP3    H136224   6.636   0.345   6.845  0.1610  0.1956 -0.1246
 4863TIP3    H236225   6.768   0.274   6.824  0.4184 -0.0263  1.9703
 4864TIP3   OH236226   4.668   5.304   7.891  0.6636  0.1712 -0.4586
 4864TIP3    H136227   4.721   5.317   7.970  1.8036  0.7326 -1.2768
 4864TIP3    H236228   4.708   5.362   7.826 -1.5190  1.2520 -0.8953
 4865TIP3   OH236229   6.916   0.319   1.054 -0.4221  0.3449  0.4376
 4865TIP3    H136230   6.941   0.411   1.048  0.2375  0.0943 -1.5782
 4865TIP3    H236231   6.828   0.320   1.093 -0.0866  1.7428  1.1997
 4866TIP3   OH236232   1.245   6.734   0.538 -0.9152  0.3023  0.5430
 4866TIP3    H136233   1.292   6.652   0.550 -0.7589  0.3819  0.4885
 4866TIP3    H236234   1.164   6.724   0.588 -1.7663 -0.5998 -0.9485
 4867TIP3   OH236235   1.569   4.098   0.246  0.5929  0.3696  0.0124
 4867TIP3    H136236   1.493   4.154   0.264 -1.1323 -1.3796 -1.4144
 4867TIP3    H236237   1.643   4.159   0.245 -0.4603  1.9387  3.0214
 4868TIP3   OH236238   4.753   6.692   7.923 -0.0617  0.4146  0.3245
 4868TIP3    H136239   4.685   6.709   7.988 -2.0588 -0.2351 -1.4958
 4868TIP3    H236240   4.811   6.628   7.965 -0.7643  0.6746  1.7706
 4869TIP3   OH236241   3.444   5.165   8.272 -0.3950 -0.1386  0.1107
 4869TIP3    H136242   3.430   5.092   8.332  0.0963  1.0295  1.7318
 4869TIP3    H236243   3.517   5.137   8.217 -0.6802 -1.1339  0.2123
 4870TIP3   OH236244   2.036   3.647   0.893 -0.0785  0.8998 -0.4596
 4870TIP3    H136245   1.999   3.734   0.877 -1.2541  0.5112  0.0351
 4870TIP3    H236246   1.977   3.587   0.848 -0.4604  0.2116  0.8866
 4871TIP3   OH236247   2.229   2.516   8.305 -0.5263 -0.2718 -0.5674
 4871TIP3    H136248   2.260   2.426   8.315 -0.2312 -0.4516 -2.6293
 4871TIP3    H236249   2.295   2.570   8.349 -0.7785 -1.0401  0.8118
 4872TIP3   OH236250   3.314   0.535   2.085 -0.0806 -0.0570  0.1619
 4872TIP3    H136251   3.338   0.462   2.143  0.0830  0.6856  1.0484
 4872TIP3    H236252   3.288   0.605   2.144 -2.4827 -0.1092 -0.7044
 4873TIP3   OH236253   6.235   6.218   6.407  0.0252  0.1977 -0.0172
 4873TIP3    H136254   6.190   6.222   6.323  0.4387  1.5391 -0.1992
 4873TIP3    H236255   6.274   6.131   6.410 -0.3774 -0.0226 -1.0100
 4874TIP3   OH236256   6.931   0.174   1.464 -0.1766  0.2192  0.3324
 4874TIP3    H136257   6.946   0.106   1.398 -0.0641 -0.9997  1.5769
 4874TIP3    H236258   6.842   0.205   1.446 -0.4593 -0.6848  0.1232
 4875TIP3   OH236259   4.047   3.335   7.833 -0.1485 -0.2813  0.3627
 4875TIP3    H136260   4.084   3.423   7.841  0.5220 -0.5182 -0.0234
 4875TIP3    H236261   4.115   3.284   7.788 -1.6008 -0.3311 -1.8932
 4876TIP3   OH236262   2.452   0.117   8.071 -0.0355  0.3476 -0.3424
 4876TIP3    H136263   2.396   0.193   8.055  1.5727  1.5631 -0.4490
 4876TIP3    H236264   2.498   0.104   7.988 -0.1912 -0.6608 -0.2747
 4877TIP3   OH236265   6.389   2.058   1.582  0.0416  1.2845 -0.0452
 4877TIP3    H136266   6.415   2.106   1.660  0.4802  2.4833 -0.8978
 4877TIP3    H236267   6.353   2.125   1.523  0.5767  0.5611 -1.2333
 4878TIP3   OH236268   3.198   6.218   2.375  0.1690  0.2111  0.1948
 4878TIP3    H136269   3.181   6.312   2.370  0.2387  0.1461 -2.2325
 4878TIP3    H236270   3.165   6.183   2.293 -1.8338 -2.2605  1.8997
 4879TIP3   OH236271   4.533   5.057   6.926 -0.0803  0.0560  0.6238
 4879TIP3    H136272   4.527   4.963   6.911  0.0567 -0.2234  2.1019
 4879TIP3    H236273   4.555   5.094   6.841 -1.2662 -1.1220 -0.2414
 4880TIP3   OH236274   6.077   5.313   7.499  0.2777 -0.2807 -0.1114
 4880TIP3    H136275   6.164   5.351   7.512  0.2442  1.2299 -3.2427
 4880TIP3    H236276   6.017   5.388   7.508 -0.7797 -1.2738  1.8793
 4881TIP3   OH236277   0.656   6.529   1.844  0.4817  0.0346  1.2386
 4881TIP3    H136278   0.565   6.554   1.828  0.7704  0.6204  0.4711
 4881TIP3    H236279   0.650   6.449   1.895 -0.5071 -1.7966 -1.5406
 4882TIP3   OH236280   6.784   4.222   1.699 -0.0770 -0.3335 -0.0445
 4882TIP3    H136281   6.793   4.274   1.618 -2.0688 -0.1505 -0.2053
 4882TIP3    H236282   6.847   4.261   1.760  0.8126  0.1151 -1.2095
 4883TIP3   OH236283   6.452   4.120   0.163 -0.0827  0.2389 -0.1352
 4883TIP3    H136284   6.511   4.102   0.236  0.4608 -0.7159 -0.7829
 4883TIP3    H236285   6.432   4.033   0.127 -1.3647  0.5958 -0.3332
 4884TIP3   OH236286   4.227   2.638   7.462  0.1741 -0.0715  1.0695
 4884TIP3    H136287   4.279   2.718   7.465  0.3984 -0.1245 -0.6021
 4884TIP3    H236288   4.285   2.571   7.499  0.8094  0.1204  0.4332
 4885TIP3   OH236289   5.017   0.838   1.668 -0.4319  0.1826 -0.3923
 4885TIP3    H136290   5.006   0.747   1.697  1.8934  0.2008  0.8140
 4885TIP3    H236291   4.959   0.888   1.725 -0.8021 -0.4473 -0.2080
 4886TIP3   OH236292   3.712   0.217   2.716  0.1810 -0.2282 -0.2285
 4886TIP3    H136293   3.752   0.304   2.724  0.4043 -0.0478 -2.5310
 4886TIP3    H236294   3.766   0.172   2.651 -2.0253 -0.7487 -1.8417
 4887TIP3   OH236295   2.345   1.756   0.317 -0.2411  0.0291 -0.3220
 4887TIP3    H136296   2.267   1.736   0.368  0.5733  0.8861  1.3061
 4887TIP3    H236297   2.416   1.758   0.381  0.5614  2.8112 -1.1768
 4888TIP3   OH236298   2.294   2.243   1.839 -0.1509 -0.4668 -0.2517
 4888TIP3    H136299   2.312   2.160   1.882 -0.3092  0.7315  2.2732
 4888TIP3    H236300   2.225   2.284   1.892 -0.3216  1.1402 -1.6134
 4889TIP3   OH236301   1.823   4.891   6.991  0.0934 -0.2890 -0.4397
 4889TIP3    H136302   1.795   4.855   6.907  0.7862  0.5452 -1.0484
 4889TIP3    H236303   1.918   4.881   6.991  0.0160 -1.1101  0.6466
 4890TIP3   OH236304   1.200   0.132   0.088 -0.2817  0.2497 -0.3042
 4890TIP3    H136305   1.280   0.084   0.108  0.0836  1.1371  0.4150
 4890TIP3    H236306   1.137   0.104   0.155  0.3031  1.6445  0.8836
 4891TIP3   OH236307   1.066   3.034   0.758 -0.2965  0.4190  0.7919
 4891TIP3    H136308   1.044   2.942   0.775 -1.1314  0.7894  1.8845
 4891TIP3    H236309   1.138   3.052   0.818 -0.6480  0.6714  1.1473
 4892TIP3   OH236310   6.709   2.932   8.484  0.2497 -0.5245 -0.0519
 4892TIP3    H136311   6.632   2.957   8.432  0.3489  1.2780  0.5800
 4892TIP3    H236312   6.781   2.928   8.421  0.2481  1.0341 -0.2008
 4893TIP3   OH236313   2.620   5.229   8.140 -0.3294  0.0628 -0.1648
 4893TIP3    H136314   2.684   5.270   8.082 -0.2929  0.7378  0.3387
 4893TIP3    H236315   2.612   5.139   8.108  0.8962 -0.0383 -0.2214
 4894TIP3   OH236316   4.463   4.407   2.361 -0.2407  0.4951 -0.7071
 4894TIP3    H136317   4.424   4.326   2.330  1.8334 -1.5826  1.6906
 4894TIP3    H236318   4.478   4.393   2.454  0.1398  3.7092 -0.1521
 4895TIP3   OH236319   6.628   2.835   7.082 -0.2215  0.7933 -0.2315
 4895TIP3    H136320   6.657   2.896   7.149  1.3471 -1.3369  1.1745
 4895TIP3    H236321   6.593   2.761   7.131 -1.2201  0.1517 -1.8333
 4896TIP3   OH236322   6.426   4.786   8.065  0.5479  0.2394  0.1417
 4896TIP3    H136323   6.393   4.788   7.975 -1.9592 -0.2488  0.9698
 4896TIP3    H236324   6.496   4.720   8.063  0.1032 -0.2437 -1.3128
 4897TIP3   OH236325   1.242   1.039   0.234  0.1969  0.4779 -0.6106
 4897TIP3    H136326   1.247   0.955   0.279  0.2579 -0.3964 -2.2030
 4897TIP3    H236327   1.176   1.027   0.166  1.6249  1.0516 -2.1721
 4898TIP3   OH236328   2.285   4.502   0.364  0.3710  0.1066  0.5681
 4898TIP3    H136329   2.291   4.583   0.315 -0.6040  0.3969  0.9042
 4898TIP3    H236330   2.316   4.434   0.303 -0.9261  0.4354 -0.4996
 4899TIP3   OH236331   0.670   2.948   6.231  0.2383  0.2687 -0.2430
 4899TIP3    H136332   0.610   2.873   6.241 -0.9933  1.1215 -1.0082
 4899TIP3    H236333   0.651   3.004   6.306 -0.3348  0.8109 -0.7865
 4900TIP3   OH236334   3.817   0.458   2.797  0.5296  0.4376 -0.9961
 4900TIP3    H136335   3.847   0.525   2.736 -0.2468  1.7274 -0.0269
 4900TIP3    H236336   3.896   0.432   2.844  0.6720  1.5336 -0.5973
 4901TIP3   OH236337   5.262   0.761   7.845 -0.7481 -0.3742 -0.5674
 4901TIP3    H136338   5.182   0.776   7.897 -0.7468  0.7283 -0.8697
 4901TIP3    H236339   5.250   0.673   7.809 -0.6134 -1.3078  1.5301
 4902TIP3   OH236340   0.116   0.638   1.748 -0.9230  0.1508  0.5833
 4902TIP3    H136341   0.167   0.676   1.677 -1.1146 -2.1841 -0.9171
 4902TIP3    H236342   0.126   0.699   1.821  2.9993  0.4461  0.0092
 4903TIP3   OH236343   2.829   5.693   1.060  0.3560 -0.5868 -0.2592
 4903TIP3    H136344   2.836   5.787   1.073 -1.8874 -0.0568 -2.2664
 4903TIP3    H236345   2.814   5.658   1.148 -2.3925  1.3874  0.1980
 4904TIP3   OH236346   2.406   0.199   0.042 -0.2489 -0.4199  0.6455
 4904TIP3    H136347   2.375   0.126   0.096  0.1010  0.2319  1.7813
 4904TIP3    H236348   2.480   0.235   0.091  0.4815 -0.1690 -0.5936
 4905TIP3   OH236349   2.203   5.688   6.671  0.2894 -0.2960  0.0120
 4905TIP3    H136350   2.142   5.629   6.715 -0.1118 -0.6213 -0.9531
 4905TIP3    H236351   2.201   5.660   6.579 -0.8896  2.0263 -0.7461
 4906TIP3   OH236352   2.826   5.711   0.078 -0.2951  0.0893 -0.6557
 4906TIP3    H136353   2.811   5.625   0.039 -1.5909 -0.9231  1.8182
 4906TIP3    H236354   2.749   5.763   0.055  0.0028  0.2672 -1.2781
 4907TIP3   OH236355   3.622   4.210   7.464  0.0943 -0.2927 -0.1626
 4907TIP3    H136356   3.683   4.217   7.538 -0.0492 -0.5420 -0.0186
 4907TIP3    H236357   3.563   4.138   7.489  0.1954 -0.5371 -0.6274
 4908TIP3   OH236358   4.423   1.518   1.543 -0.1832  0.4396  0.3418
 4908TIP3    H136359   4.447   1.599   1.498 -0.5362  0.7969  0.7785
 4908TIP3    H236360   4.402   1.546   1.632  2.2784 -0.4809  1.2847
 4909TIP3   OH236361   4.696   3.211   8.279  0.6525 -0.0850 -0.2150
 4909TIP3    H136362   4.739   3.283   8.326  0.1684  0.5269 -0.6919
 4909TIP3    H236363   4.671   3.149   8.347  2.2206 -0.4234  0.0812
 4910TIP3   OH236364   5.982   6.824   7.836  0.0830 -0.0754 -0.2643
 4910TIP3    H136365   5.998   6.852   7.926  1.5633  0.7563 -0.7478
 4910TIP3    H236366   6.037   6.746   7.826 -0.3092 -0.3383 -0.3544
 4911TIP3   OH236367   1.664   6.319   7.040  0.0303 -0.4652 -0.3315
 4911TIP3    H136368   1.608   6.345   7.113  1.4244  0.4022  0.4639
 4911TIP3    H236369   1.750   6.354   7.062  0.4136  0.1398 -2.5572
 4912TIP3   OH236370   2.983   1.465   2.692 -0.4245  0.3942 -0.0584
 4912TIP3    H136371   3.010   1.380   2.656  2.1506  1.5242 -0.9826
 4912TIP3    H236372   2.910   1.491   2.636 -1.9211 -1.5687  0.8421
 4913TIP3   OH236373   5.714   6.691   8.214  0.4880 -0.5153 -0.0747
 4913TIP3    H136374   5.810   6.696   8.216  0.4503  0.4701 -0.0126
 4913TIP3    H236375   5.688   6.712   8.304  0.1981 -0.0138 -0.2712
 4914TIP3   OH236376   6.176   0.752   6.948  0.3003  0.7922 -0.2126
 4914TIP3    H136377   6.092   0.713   6.925  0.3305  0.2685  0.5036
 4914TIP3    H236378   6.240   0.685   6.924  0.3265  0.2068  1.3896
 4915TIP3   OH236379   0.429   3.613   8.566 -0.3974 -0.1181 -0.0195
 4915TIP3    H136380   0.449   3.613   8.472  1.6054 -1.4726  0.3313
 4915TIP3    H236381   0.390   3.527   8.582 -1.8135  0.5526  0.2131
 4916TIP3   OH236382   4.390   2.937   7.698 -0.0566 -0.0010  0.5271
 4916TIP3    H136383   4.453   2.912   7.765 -0.3166 -0.7176  0.5048
 4916TIP3    H236384   4.420   2.893   7.619  0.6516  1.3896 -0.0208
 4917TIP3   OH236385   6.047   1.367   7.776  0.5122 -0.3597  0.1811
 4917TIP3    H136386   6.016   1.278   7.764  1.5658 -0.7232  0.0129
 4917TIP3    H236387   6.095   1.387   7.696  0.4717  0.2693  0.3100
 4918TIP3   OH236388   4.633   4.137   2.179 -0.0121  0.1042 -0.4352
 4918TIP3    H136389   4.657   4.053   2.219  2.1211  0.9796  0.2096
 4918TIP3    H236390   4.546   4.155   2.215 -0.1056 -1.3623  0.1790
 4919TIP3   OH236391   6.625   4.547   7.927 -0.1857  0.1130  0.1234
 4919TIP3    H136392   6.633   4.482   7.996  1.6846 -0.0460 -0.1746
 4919TIP3    H236393   6.709   4.594   7.928 -0.1780  0.2556 -1.8441
 4920TIP3   OH236394   5.502   3.836   8.489  0.7619 -0.0318 -0.5592
 4920TIP3    H136395   5.546   3.852   8.405 -0.5543 -4.7963 -2.5050
 4920TIP3    H236396   5.565   3.785   8.540  0.8632  1.2354  0.6099
 4921TIP3   OH236397   5.859   3.663   0.424 -0.1270  0.5730  0.3820
 4921TIP3    H136398   5.813   3.656   0.507 -0.0237  0.5035  0.4342
 4921TIP3    H236399   5.921   3.735   0.437  0.5997 -0.1036  0.7083
 4922TIP3   OH236400   1.505   5.457   0.936  0.0573 -0.0295  0.1874
 4922TIP3    H136401   1.506   5.441   0.842 -0.6797 -0.2272  0.2023
 4922TIP3    H236402   1.418   5.426   0.964  0.3980 -0.3011  0.9813
 4923TIP3   OH236403   6.728   0.911   7.382  0.3687 -0.1785  0.2870
 4923TIP3    H136404   6.676   0.863   7.446 -1.3421  1.7382  0.4586
 4923TIP3    H236405   6.817   0.908   7.416 -0.0953 -1.1891  1.4944
 4924TIP3   OH236406   6.092   4.090   1.851  0.1915 -0.6005  0.1849
 4924TIP3    H136407   6.181   4.102   1.886  0.2104  0.2732 -0.1180
 4924TIP3    H236408   6.036   4.087   1.929  0.2763  0.9134  0.3475
 4925TIP3   OH236409   4.789   2.691   0.555  0.1554  0.0792  0.8888
 4925TIP3    H136410   4.737   2.628   0.606 -0.0506  0.3793  1.0515
 4925TIP3    H236411   4.749   2.776   0.573  1.3776  0.4784  1.8999
 4926TIP3   OH236412   3.107   5.722   8.270  0.2305  0.7887 -0.1664
 4926TIP3    H136413   3.167   5.749   8.340 -0.7959  1.2096  0.5724
 4926TIP3    H236414   3.125   5.628   8.259  2.6768  1.3232 -1.6366
 4927TIP3   OH236415   4.872   0.951   0.312  0.4990 -0.3719  0.1270
 4927TIP3    H136416   4.816   0.983   0.382  0.4573  1.3035 -0.6252
 4927TIP3    H236417   4.940   1.018   0.302 -0.4624  0.3583 -2.5235
 4928TIP3   OH236418   0.868   6.741   6.867  0.0630 -0.6425  0.4021
 4928TIP3    H136419   0.870   6.806   6.938 -0.0826 -0.5678  0.3363
 4928TIP3    H236420   0.915   6.783   6.795  1.5764 -1.2966  0.9516
 4929TIP3   OH236421   4.638   2.378   8.291  0.2912 -0.0597  0.0318
 4929TIP3    H136422   4.719   2.351   8.247  0.1810 -0.3612  0.0098
 4929TIP3    H236423   4.613   2.302   8.344  2.0067  1.2347  2.9937
 4930TIP3   OH236424   5.674   2.298   7.013 -0.1231 -0.4695 -1.0301
 4930TIP3    H136425   5.631   2.339   6.938  1.6267  1.6562 -0.9605
 4930TIP3    H236426   5.755   2.261   6.977  1.0934  1.2117 -0.1366
 4931TIP3   OH236427   3.237   0.630   6.166 -0.3843 -0.4098 -0.5252
 4931TIP3    H136428   3.184   0.558   6.131  0.8523 -1.6178 -0.0097
 4931TIP3    H236429   3.327   0.602   6.151  0.1351  0.5050  0.7524
 4932TIP3   OH236430   0.867   6.729   7.829  0.5983  0.3520 -0.5199
 4932TIP3    H136431   0.788   6.782   7.833  0.2545 -0.0434 -1.7081
 4932TIP3    H236432   0.916   6.752   7.909  0.4553  2.4000 -0.9703
 4933TIP3   OH236433   1.005   3.218   7.584 -0.0041  0.3280  0.3946
 4933TIP3    H136434   1.012   3.180   7.497  1.2974 -0.1945  0.6972
 4933TIP3    H236435   1.090   3.200   7.625  0.1884  2.3769  1.0308
 4934TIP3   OH236436   5.818   6.426   8.206 -0.0446  0.0564 -0.2080
 4934TIP3    H136437   5.847   6.516   8.224 -2.4469  0.8953 -0.1543
 4934TIP3    H236438   5.801   6.424   8.112 -0.5978 -0.1479 -0.1061
 4935TIP3   OH236439   0.907   3.484   7.502 -0.0832 -0.0140 -0.6539
 4935TIP3    H136440   0.898   3.506   7.410  1.0528 -1.0788 -1.0444
 4935TIP3    H236441   0.925   3.390   7.503 -0.3055 -0.0629  0.6652
 4936TIP3   OH236442   0.055   2.370   0.107  0.2770 -0.2420  0.9935
 4936TIP3    H136443   0.147   2.345   0.103 -0.1132 -1.6904 -1.2732
 4936TIP3    H236444   0.053   2.460   0.073  0.7493 -0.7985 -0.6251
 4937TIP3   OH236445   5.882   2.652   0.262  0.1059  0.2122 -0.3247
 4937TIP3    H136446   5.921   2.733   0.294  0.9421 -0.3305  0.0842
 4937TIP3    H236447   5.788   2.667   0.265  0.2373  0.9769  0.2540
 4938TIP3   OH236448   4.579   1.443   7.266 -0.3883  0.0702  0.1175
 4938TIP3    H136449   4.498   1.488   7.240 -0.6081 -0.1914  0.3394
 4938TIP3    H236450   4.586   1.370   7.204 -0.6054 -0.2163  0.4295
 4939TIP3   OH236451   5.763   4.942   0.103 -0.8505  0.0214  0.2323
 4939TIP3    H136452   5.834   4.890   0.065  0.2097  0.7316  1.1862
 4939TIP3    H236453   5.686   4.886   0.094  0.1105 -1.4191  0.5591
 4940TIP3   OH236454   0.864   3.490   6.793  0.0862  0.7487  0.0955
 4940TIP3    H136455   0.949   3.463   6.828  0.7193  0.3134 -1.6308
 4940TIP3    H236456   0.883   3.571   6.745 -0.6349  1.0535  0.3157
 4941TIP3   OH236457   0.352   6.532   1.386  0.2661 -0.0746  0.5575
 4941TIP3    H136458   0.262   6.555   1.408 -0.4328 -0.8933 -1.1680
 4941TIP3    H236459   0.343   6.465   1.318  2.1685  0.6319 -0.4799
 4942TIP3   OH236460   0.526   2.167   7.077  0.0549 -0.9596  0.6747
 4942TIP3    H136461   0.497   2.081   7.108 -0.0256 -0.6054  1.6219
 4942TIP3    H236462   0.445   2.214   7.059 -0.0009 -0.1945  2.6962
 4943TIP3   OH236463   6.255   0.695   0.096  0.3745 -0.1323  0.0623
 4943TIP3    H136464   6.327   0.702   0.033  0.0937 -1.9014 -0.5275
 4943TIP3    H236465   6.176   0.711   0.044  0.2660  0.8317  0.5046
 4944TIP3   OH236466   2.129   3.978   0.541  0.2322  0.3822  0.2469
 4944TIP3    H136467   2.147   3.925   0.463  0.0466 -0.9486  1.0966
 4944TIP3    H236468   2.038   4.007   0.529 -0.5072 -1.5204  0.9047
 4945TIP3   OH236469   6.761   4.354   1.408 -0.6030 -0.3628  0.1712
 4945TIP3    H136470   6.807   4.438   1.409 -0.3072 -0.4938 -0.9041
 4945TIP3    H236471   6.815   4.298   1.352 -0.5024 -1.4540  1.3125
 4946TIP3   OH236472   3.591   5.446   0.963 -0.1417 -0.1835  0.6569
 4946TIP3    H136473   3.669   5.495   0.937  1.8365 -1.6707  3.2673
 4946TIP3    H236474   3.546   5.427   0.880  1.9452  1.2321 -0.9135
 4947TIP3   OH236475   1.947   4.517   2.296 -0.3375 -0.1268 -0.1381
 4947TIP3    H136476   1.884   4.574   2.252 -0.4046 -1.2347 -1.5796
 4947TIP3    H236477   1.996   4.575   2.355 -1.7999  0.9947  0.0176
 4948TIP3   OH236478   2.846   2.006   1.315 -0.2095 -0.2284 -0.0520
 4948TIP3    H136479   2.925   2.043   1.275 -1.4263  0.2219 -2.2014
 4948TIP3    H236480   2.810   2.078   1.367 -0.3156  0.2758 -0.8026
 4949TIP3   OH236481   6.111   4.314   2.989 -0.5143 -0.1839 -0.3036
 4949TIP3    H136482   6.148   4.306   2.902 -0.7974 -0.0169 -0.4401
 4949TIP3    H236483   6.180   4.358   3.040 -0.0246 -1.0096 -0.2267
 4950TIP3   OH236484   4.054   6.846   6.951 -0.1612 -0.3319  0.6306
 4950TIP3    H136485   4.129   6.792   6.927 -0.5712 -1.7489  2.3348
 4950TIP3    H236486   4.090   6.934   6.963  0.1752  0.4746 -4.3016
 4951TIP3   OH236487   3.014   1.857   2.215  0.5745 -0.5574 -0.1431
 4951TIP3    H136488   2.994   1.800   2.289 -1.4141  2.9336  2.3384
 4951TIP3    H236489   3.104   1.885   2.229  0.0220  0.5532  1.4385
 4952TIP3   OH236490   2.575   4.873   7.588 -0.1638  0.1527 -0.0416
 4952TIP3    H136491   2.583   4.839   7.677 -0.6442 -0.3346 -0.1785
 4952TIP3    H236492   2.484   4.902   7.581 -0.4910 -0.9836 -0.7725
 4953TIP3   OH236493   6.577   3.969   8.298  0.2159  0.2769  0.5680
 4953TIP3    H136494   6.514   3.981   8.370 -1.2297  2.4881 -0.9062
 4953TIP3    H236495   6.522   3.963   8.220  1.7930  0.9512 -0.6463
 4954TIP3   OH236496   3.732   0.912   1.762 -0.2034 -0.1410 -0.0093
 4954TIP3    H136497   3.681   0.889   1.684  0.4582  0.5364 -0.6494
 4954TIP3    H236498   3.666   0.940   1.826 -0.7571 -0.7781 -0.2895
 4955TIP3   OH236499   3.834   4.532   7.702  0.1754 -0.2667 -0.3059
 4955TIP3    H136500   3.856   4.471   7.632  0.7721  0.4799 -0.7721
 4955TIP3    H236501   3.919   4.562   7.736 -0.0311  2.5573 -2.0511
 4956TIP3   OH236502   1.322   3.665   0.739  0.1429  0.4766 -1.1022
 4956TIP3    H136503   1.335   3.616   0.659  1.4398  0.0787 -0.6791
 4956TIP3    H236504   1.390   3.633   0.799 -2.1720 -0.8973  0.9786
 4957TIP3   OH236505   1.951   4.808   2.836  0.2180  0.5284  0.3553
 4957TIP3    H136506   1.969   4.728   2.786 -1.0165  0.2530  0.3149
 4957TIP3    H236507   1.895   4.779   2.908 -0.2920  1.3680  0.3084
 4958TIP3   OH236508   4.779   6.399   0.170  0.0542  0.0698 -0.0063
 4958TIP3    H136509   4.784   6.380   0.076 -0.3401 -0.8847  0.1593
 4958TIP3    H236510   4.754   6.316   0.210  0.4697  0.4077  0.9780
 4959TIP3   OH236511   0.835   1.535   6.895 -0.4675  0.3511  0.6830
 4959TIP3    H136512   0.807   1.559   6.983 -0.4604 -1.0947  1.1063
 4959TIP3    H236513   0.756   1.542   6.842 -0.6979  0.2915  1.0165
 4960TIP3   OH236514   5.920   4.941   7.140 -0.3272  0.1789  0.1187
 4960TIP3    H136515   5.981   4.996   7.189 -1.7688  0.4353  1.7006
 4960TIP3    H236516   5.847   4.926   7.199 -0.3484 -2.8973 -0.4909
 4961TIP3   OH236517   3.258   3.542   1.675 -0.3956  0.6408  0.0205
 4961TIP3    H136518   3.263   3.506   1.586  0.5063 -1.9765  1.0201
 4961TIP3    H236519   3.171   3.582   1.681 -1.3630 -1.1312 -1.3521
 4962TIP3   OH236520   2.582   3.000   1.324  0.3623  0.3964 -0.2103
 4962TIP3    H136521   2.538   3.072   1.368  0.4810  0.6414 -0.4843
 4962TIP3    H236522   2.623   3.040   1.247  2.9361  0.6331  1.1693
 4963TIP3   OH236523   6.756   2.554   8.357 -0.3097 -0.1505  0.0584
 4963TIP3    H136524   6.668   2.517   8.347  0.3522 -1.5818 -0.8266
 4963TIP3    H236525   6.785   2.571   8.267  0.5513 -0.2638  0.3034
 4964TIP3   OH236526   5.751   4.915   7.357  0.1295 -0.0152 -0.1475
 4964TIP3    H136527   5.665   4.879   7.380  0.3721  0.0517  0.9481
 4964TIP3    H236528   5.758   4.995   7.410  1.5092 -0.8658  1.0323
 4965TIP3   OH236529   4.640   6.825   8.221  0.2566 -0.1408 -0.2481
 4965TIP3    H136530   4.586   6.859   8.150 -0.6566 -1.1800 -0.0629
 4965TIP3    H236531   4.651   6.899   8.281  0.2811  0.4833 -1.0121
 4966TIP3   OH236532   0.567   5.205   8.213  0.3066 -0.2393 -0.4235
 4966TIP3    H136533   0.504   5.270   8.180  0.1570  0.4619  1.1694
 4966TIP3    H236534   0.525   5.168   8.291  1.8399  0.2170  0.6634
 4967TIP3   OH236535   3.165   2.537   7.233 -0.0785  0.0006  0.0623
 4967TIP3    H136536   3.227   2.568   7.168  0.1957 -0.2542  0.1999
 4967TIP3    H236537   3.192   2.581   7.314 -0.3883  0.2792  0.0168
 4968TIP3   OH236538   4.471   2.158   8.396 -0.1119 -0.3496  0.3031
 4968TIP3    H136539   4.474   2.064   8.379 -0.0281 -0.0756 -1.3557
 4968TIP3    H236540   4.378   2.181   8.393 -0.1777 -0.4290  1.1947
 4969TIP3   OH236541   2.733   4.930   2.122  0.1580  0.3134 -0.2602
 4969TIP3    H136542   2.641   4.953   2.121  0.1430  0.2626 -0.9974
 4969TIP3    H236543   2.779   5.012   2.104  0.2568  0.3417  0.1188
 4970TIP3   OH236544   4.269   1.079   1.043  0.2117  0.8536 -0.2837
 4970TIP3    H136545   4.303   1.152   1.095 -0.4795  1.1240 -0.1974
 4970TIP3    H236546   4.236   1.120   0.963 -0.0107  0.6127 -0.3168
 4971TIP3   OH236547   6.358   4.829   7.798 -0.7506 -0.0872  0.3852
 4971TIP3    H136548   6.312   4.769   7.739 -0.7942  0.4252 -0.1130
 4971TIP3    H236549   6.421   4.875   7.741 -1.3489  0.9913  0.5595
 4972TIP3   OH236550   6.645   4.370   2.336  0.6532  0.0665  0.1483
 4972TIP3    H136551   6.665   4.373   2.430  0.2628 -0.6015  0.2589
 4972TIP3    H236552   6.556   4.335   2.331  1.1916 -1.2934 -0.5236
 4973TIP3   OH236553   6.478   6.827   6.888  0.0558  0.4239  0.0235
 4973TIP3    H136554   6.488   6.816   6.793  2.7907  0.0315  0.2535
 4973TIP3    H236555   6.398   6.780   6.909 -0.2101 -0.1399 -2.0022
 4974TIP3   OH236556   1.571   3.378   1.580 -0.2278 -0.0125 -0.3762
 4974TIP3    H136557   1.577   3.287   1.608 -2.0408 -0.0369  0.0067
 4974TIP3    H236558   1.515   3.377   1.503 -0.8000  0.8524  0.0130
 4975TIP3   OH236559   6.251   6.402   1.172  0.0521 -0.0356  0.0923
 4975TIP3    H136560   6.174   6.404   1.116 -0.8680  0.7688  1.3148
 4975TIP3    H236561   6.223   6.353   1.250  1.3154 -1.2053 -0.1493
 4976TIP3   OH236562   3.591   1.213   0.730  0.0294 -0.0282 -0.6320
 4976TIP3    H136563   3.589   1.302   0.765 -0.8067  0.2961 -1.4662
 4976TIP3    H236564   3.677   1.207   0.687  0.8962 -0.2933  1.0292
 4977TIP3   OH236565   6.325   3.462   6.273 -1.0764 -0.1545  0.6525
 4977TIP3    H136566   6.417   3.444   6.257 -1.3233 -1.1745  0.2461
 4977TIP3    H236567   6.324   3.540   6.329 -0.0036  0.2534  0.1218
 4978TIP3   OH236568   6.050   4.589   1.730 -0.3701  0.1608 -0.6703
 4978TIP3    H136569   6.088   4.505   1.704  1.8365  1.5083 -2.1545
 4978TIP3    H236570   6.081   4.604   1.819  0.4422  0.0441 -0.9271
 4979TIP3   OH236571   1.097   4.250   8.066  0.0958  0.0826  0.0534
 4979TIP3    H136572   1.169   4.187   8.073 -0.8374 -1.3808 -2.1793
 4979TIP3    H236573   1.019   4.196   8.052 -1.3390  1.6562  1.4833
 4980TIP3   OH236574   1.745   5.511   1.797 -0.7387 -0.0243 -0.7214
 4980TIP3    H136575   1.656   5.501   1.829 -0.2808  2.7469  1.8790
 4980TIP3    H236576   1.740   5.585   1.735 -0.3019 -0.0894 -0.8394
 4981TIP3   OH236577   5.300   3.341   8.176  0.2224  0.2399  0.5700
 4981TIP3    H136578   5.381   3.294   8.153 -0.3387 -1.6107  2.1023
 4981TIP3    H236579   5.328   3.406   8.240  0.2837 -1.8998  2.8541
 4982TIP3   OH236580   0.971   6.386   8.247  0.3460 -0.3625  0.3331
 4982TIP3    H136581   0.993   6.460   8.191 -0.0646  0.3341  1.0677
 4982TIP3    H236582   0.965   6.424   8.335  0.5792 -1.3550  0.7892
 4983TIP3   OH236583   4.875   0.838   2.168  0.1649 -0.6093  0.2361
 4983TIP3    H136584   4.888   0.907   2.233 -1.6516  0.4175 -0.3964
 4983TIP3    H236585   4.839   0.764   2.217 -4.9615  1.4034  0.1542
 4984TIP3   OH236586   1.113   0.522   6.302 -0.0888 -0.1019 -0.2388
 4984TIP3    H136587   1.128   0.610   6.268 -1.8467  0.1774 -0.3999
 4984TIP3    H236588   1.039   0.532   6.362 -0.3648 -1.4828 -0.3220
 4985TIP3   OH236589   2.993   4.831   7.655  0.2350  0.0166  0.6793
 4985TIP3    H136590   3.039   4.870   7.580  1.1072  0.9676  1.6682
 4985TIP3    H236591   2.950   4.905   7.698 -0.1435 -0.4922  1.1866
 4986TIP3   OH236592   3.332   2.959   1.711  0.6947 -0.2817 -0.1296
 4986TIP3    H136593   3.360   3.037   1.665 -0.4737  0.4783  0.3945
 4986TIP3    H236594   3.277   2.991   1.783 -0.0538 -1.5829 -0.0793
 4987TIP3   OH236595   2.468   3.953   0.154  0.2461  0.0276  0.1284
 4987TIP3    H136596   2.529   3.901   0.207  0.3668 -1.0815 -1.0454
 4987TIP3    H236597   2.482   4.043   0.183  1.1532 -0.4148  1.1400
 4988TIP3   OH236598   5.670   2.668   2.172 -0.7041  0.2822  0.2358
 4988TIP3    H136599   5.684   2.623   2.255 -0.2232  0.2166  0.1219
 4988TIP3    H236600   5.578   2.652   2.151 -0.1804 -2.0229 -0.6042
 4989TIP3   OH236601   6.718   2.076   1.108 -0.4083  0.3455  0.6511
 4989TIP3    H136602   6.707   2.011   1.038 -0.3064  1.0043  0.0121
 4989TIP3    H236603   6.701   2.028   1.189  0.8829 -0.7803  0.2846
 4990TIP3   OH236604   5.759   0.361   1.563  0.0774 -0.5656 -0.2857
 4990TIP3    H136605   5.699   0.287   1.572 -0.1036 -0.2456  1.6565
 4990TIP3    H236606   5.786   0.380   1.653 -0.7431  2.4240 -0.5644
 4991TIP3   OH236607   3.652   1.694   1.264  0.0139  0.2116 -0.5405
 4991TIP3    H136608   3.637   1.625   1.200 -1.9823  0.8468 -0.8321
 4991TIP3    H236609   3.731   1.738   1.234 -0.2594 -0.2032 -1.9538
 4992TIP3   OH236610   2.344   3.980   2.018  0.3001  0.6269  0.5170
 4992TIP3    H136611   2.263   4.026   2.041 -0.0589 -0.2125  0.9700
 4992TIP3    H236612   2.352   3.912   2.085  1.2452  0.5419  0.3189
 4993TIP3   OH236613   0.149   0.412   1.371  0.2265 -0.1848 -0.5777
 4993TIP3    H136614   0.080   0.469   1.404  0.3167  0.1491 -0.9548
 4993TIP3    H236615   0.145   0.335   1.427  0.4156  0.3900  0.2561
 4994TIP3   OH236616   6.380   3.198   0.218  0.8553 -0.1599  0.5429
 4994TIP3    H136617   6.370   3.214   0.124  0.4459  0.4803  0.6950
 4994TIP3    H236618   6.406   3.106   0.223  2.0434  0.1063 -0.2675
 4995TIP3   OH236619   6.784   6.337   7.491 -1.1138 -0.3113  0.0725
 4995TIP3    H136620   6.833   6.256   7.481  0.4254  0.6365 -0.3638
 4995TIP3    H236621   6.708   6.327   7.435 -0.1286 -0.8528 -1.2031
 4996TIP3   OH236622   6.533   4.658   0.349  0.0023  0.1038 -0.3243
 4996TIP3    H136623   6.522   4.628   0.259  1.4542 -0.5142 -0.3148
 4996TIP3    H236624   6.505   4.584   0.402  3.0691 -1.1693 -0.3029
 4997TIP3   OH236625   4.939   5.195   8.366 -0.2377 -0.2783  0.6475
 4997TIP3    H136626   4.901   5.180   8.452 -0.0853 -0.9335  0.6023
 4997TIP3    H236627   4.899   5.278   8.337  0.1191  0.2286  1.5597
 4998TIP3   OH236628   1.038   5.204   7.156  0.0116  0.2049  0.1770
 4998TIP3    H136629   0.994   5.236   7.077 -0.1131  2.1240  0.9691
 4998TIP3    H236630   0.967   5.174   7.212 -0.0714  0.7141  0.3492
 4999TIP3   OH236631   3.309   3.230   1.583  0.3168  0.2547  0.4490
 4999TIP3    H136632   3.386   3.236   1.527  2.3187  1.9548  3.1303
 4999TIP3    H236633   3.235   3.244   1.524  1.8133 -2.8557 -2.4965
 5000TIP3   OH236634   6.725   4.867   7.173 -0.2970  0.0690  0.2490
 5000TIP3    H136635   6.694   4.859   7.083 -0.9478 -0.0868  0.4807
 5000TIP3    H236636   6.673   4.939   7.210 -3.4223 -2.7267  1.8588
 5001TIP3   OH236637   4.374   5.412   0.647 -0.0876  0.0592 -0.5771
 5001TIP3    H136638   4.430   5.396   0.723  2.1181  0.5104 -2.0061
 5001TIP3    H236639   4.355   5.324   0.613  0.1712 -0.0828 -0.3578
 5002TIP3   OH236640   5.432   4.459   8.546  0.2024  0.0555  0.3233
 5002TIP3    H136641   5.338   4.460   8.559 -0.3639 -1.0213 -2.7945
 5002TIP3    H236642   5.456   4.366   8.546  0.8472  0.1909 -1.0535
 5003TIP3   OH236643   6.243   1.129   0.828  0.6917 -0.5800  0.0812
 5003TIP3    H136644   6.313   1.187   0.796  0.7112 -1.2799 -1.2089
 5003TIP3    H236645   6.177   1.189   0.865  0.6459  0.2787 -1.3270
 5004TIP3   OH236646   1.276   5.703   0.752  0.1166  0.1924 -0.0108
 5004TIP3    H136647   1.292   5.609   0.746  1.9330  0.5216 -0.8804
 5004TIP3    H236648   1.186   5.714   0.720 -0.4358 -1.3138  0.9401
 5005TIP3   OH236649   6.898   4.788   7.401  0.6958  0.4170  0.2025
 5005TIP3    H136650   6.830   4.841   7.359  2.0018  2.2486  0.2916
 5005TIP3    H236651   6.935   4.736   7.329  1.1372  1.5794 -0.4401
 5006TIP3   OH236652   3.565   6.741   1.607 -0.2765  0.4618  0.2922
 5006TIP3    H136653   3.526   6.789   1.534 -1.4503  0.3924  0.8564
 5006TIP3    H236654   3.592   6.658   1.569  0.1056  0.8440 -0.2911
 5007TIP3   OH236655   0.911   6.816   6.326  0.1575  0.0159  0.3447
 5007TIP3    H136656   0.984   6.842   6.269 -0.6768 -0.4574 -0.9869
 5007TIP3    H236657   0.848   6.887   6.320  0.2667  0.1755  1.0566
 5008TIP3   OH236658   2.572   1.690   7.921  0.1371 -0.2997  0.4526
 5008TIP3    H136659   2.486   1.661   7.953 -0.1276  1.7758  1.8391
 5008TIP3    H236660   2.628   1.686   7.998  1.1449 -1.0172 -0.2999
 5009TIP3   OH236661   1.623   5.603   7.451 -0.3076 -0.3057  0.2109
 5009TIP3    H136662   1.571   5.534   7.409  0.2542 -0.9024  0.4805
 5009TIP3    H236663   1.576   5.623   7.531 -1.3888  0.8399 -0.6785
 5010TIP3   OH236664   6.750   0.910   0.421  0.1615  0.4424  0.1098
 5010TIP3    H136665   6.678   0.970   0.402  1.2455  1.6170 -0.4481
 5010TIP3    H236666   6.729   0.830   0.373 -1.1419  0.4931  0.5838
 5011TIP3   OH236667   0.976   6.015   1.669  0.1235  0.0912 -0.3089
 5011TIP3    H136668   0.893   5.992   1.711 -0.3467  2.1501  0.0007
 5011TIP3    H236669   0.960   6.002   1.576  0.1572 -1.4596 -0.1401
 5012TIP3   OH236670   4.093   4.525   0.679  0.3683  0.1231  0.2052
 5012TIP3    H136671   4.145   4.574   0.616 -0.3042  0.7008  0.0959
 5012TIP3    H236672   4.035   4.471   0.626 -1.0365  1.4833  0.2856
 5013TIP3   OH236673   6.762   2.386   7.053  0.4314  0.1585  0.0463
 5013TIP3    H136674   6.769   2.432   6.970 -1.1532  0.1641 -0.1107
 5013TIP3    H236675   6.824   2.313   7.045  3.0445  2.1914  0.3401
 5014TIP3   OH236676   0.317   2.975   0.158 -0.4622 -0.3927 -0.0724
 5014TIP3    H136677   0.297   2.958   0.066  0.1616  0.0334 -0.2984
 5014TIP3    H236678   0.405   3.013   0.156 -1.3939  1.9466  0.4784
 5015TIP3   OH236679   4.753   3.758   6.457 -0.1964 -0.3599  0.1412
 5015TIP3    H136680   4.760   3.812   6.378 -0.6564 -2.1852 -1.2239
 5015TIP3    H236681   4.728   3.671   6.424 -3.1860 -0.5400  2.5149
 5016TIP3   OH236682   1.155   5.521   2.268 -0.0499  0.8052  0.6109
 5016TIP3    H136683   1.206   5.571   2.332  1.0989 -2.3257  2.3587
 5016TIP3    H236684   1.220   5.472   2.218 -1.1653 -1.4000  1.2036
 5017TIP3   OH236685   2.062   1.027   7.236  0.0559  0.3159 -0.0972
 5017TIP3    H136686   2.001   0.956   7.258 -0.6831  0.3269 -1.9800
 5017TIP3    H236687   2.021   1.105   7.274 -0.4894  0.1386 -0.3009
 5018TIP3   OH236688   1.837   2.285   6.730 -0.3949  0.3257 -0.1557
 5018TIP3    H136689   1.897   2.251   6.664 -1.3117 -0.0599 -0.8241
 5018TIP3    H236690   1.881   2.361   6.768  1.2464 -0.9509  0.6005
 5019TIP3   OH236691   5.298   1.789   7.718  0.0695  0.0656  0.3631
 5019TIP3    H136692   5.258   1.817   7.800 -0.1380 -0.8247  0.5875
 5019TIP3    H236693   5.390   1.772   7.740  0.2108  0.6305  0.2119
 5020TIP3   OH236694   2.402   4.606   1.152  0.5366 -0.1622  0.3056
 5020TIP3    H136695   2.416   4.514   1.174  0.4657 -0.3498 -0.4183
 5020TIP3    H236696   2.367   4.604   1.063 -1.3443  0.4615  1.0017
 5021TIP3   OH236697   2.474   6.681   7.844  0.2505 -0.1059 -0.4797
 5021TIP3    H136698   2.402   6.720   7.795 -0.5478 -1.0565 -0.1096
 5021TIP3    H236699   2.460   6.586   7.835  3.2250 -0.4600 -3.0078
 5022TIP3   OH236700   4.498   2.410   1.716  0.2119 -0.3417  0.0754
 5022TIP3    H136701   4.546   2.394   1.797 -0.4602  0.0250  0.5583
 5022TIP3    H236702   4.490   2.323   1.676  2.5989 -0.2194 -0.8078
 5023TIP3   OH236703   3.980   4.340   0.532  0.3164 -0.2622 -0.2686
 5023TIP3    H136704   3.899   4.332   0.481 -0.5849 -0.6072  1.1410
 5023TIP3    H236705   4.031   4.263   0.508 -1.3989 -2.0911  1.4558
 5024TIP3   OH236706   2.299   6.543   1.188  0.3483 -0.3307 -0.1481
 5024TIP3    H136707   2.300   6.471   1.251  0.3993  0.9614  1.4298
 5024TIP3    H236708   2.384   6.540   1.146  0.3203 -1.2268 -0.1461
 5025TIP3   OH236709   3.945   2.989   1.977  0.2610 -0.0637 -0.1814
 5025TIP3    H136710   4.018   2.939   1.941 -0.6934  0.7651 -3.6848
 5025TIP3    H236711   3.982   3.076   1.994  0.2538  0.2526 -1.6162
 5026TIP3   OH236712   4.793   4.568   0.460 -0.9598 -0.7203  0.3338
 5026TIP3    H136713   4.734   4.495   0.438 -0.5722 -1.6528  2.2350
 5026TIP3    H236714   4.830   4.544   0.544  1.2354  0.4330 -0.2376
 5027TIP3   OH236715   4.769   1.863   8.415 -0.7055 -0.2250  0.0585
 5027TIP3    H136716   4.846   1.909   8.381 -0.7977 -0.5190 -0.5478
 5027TIP3    H236717   4.744   1.801   8.346 -0.8984 -0.8248  0.6512
 5028TIP3   OH236718   0.473   5.434   1.393 -0.0816 -0.1446 -0.3788
 5028TIP3    H136719   0.508   5.348   1.414 -0.1596 -0.4892 -1.5866
 5028TIP3    H236720   0.542   5.495   1.421 -1.0061 -0.3500  2.7540
 5029TIP3   OH236721   1.989   1.480   8.311 -0.1367 -0.6117  0.3687
 5029TIP3    H136722   1.899   1.500   8.283 -0.0359 -0.9698 -0.2419
 5029TIP3    H236723   2.033   1.565   8.313  0.2942 -0.6866 -2.2018
 5030TIP3   OH236724   3.221   2.978   1.154 -0.0148  0.5373 -0.5674
 5030TIP3    H136725   3.168   3.056   1.140 -0.7046  0.0563 -0.7202
 5030TIP3    H236726   3.165   2.920   1.206 -0.2599 -0.6162 -2.0482
 5031TIP3   OH236727   2.282   3.780   2.437  0.0025  0.2688  0.4041
 5031TIP3    H136728   2.197   3.808   2.471 -0.2624  1.0498 -0.8144
 5031TIP3    H236729   2.339   3.778   2.513 -0.9774  0.2549  1.1565
 5032TIP3   OH236730   2.753   1.186   7.260  0.5286 -0.7933  0.1411
 5032TIP3    H136731   2.670   1.233   7.267 -0.1197 -1.8338 -0.2006
 5032TIP3    H236732   2.735   1.101   7.301  1.1812 -1.3283 -0.6473
 5033TIP3   OH236733   2.464   5.784   8.497 -0.5120  0.0243 -0.1675
 5033TIP3    H136734   2.499   5.870   8.521 -1.8657  1.0545 -1.6472
 5033TIP3    H236735   2.435   5.746   8.580 -0.0091  1.0377  0.4994
 5034TIP3   OH236736   4.404   4.942   2.769 -0.4609  0.3358  0.1827
 5034TIP3    H136737   4.370   4.914   2.684  0.0331  1.7843 -0.5319
 5034TIP3    H236738   4.353   5.020   2.791  0.1963  0.6482  0.6447
 5035TIP3   OH236739   4.815   4.477   1.310  0.2461 -0.0355 -0.6026
 5035TIP3    H136740   4.905   4.455   1.335 -0.0786 -0.4800  0.1921
 5035TIP3    H236741   4.760   4.434   1.375 -0.5490  0.2738 -1.0513
 5036TIP3   OH236742   5.878   5.469   7.302 -0.3257 -0.1703  0.3654
 5036TIP3    H136743   5.931   5.548   7.291 -1.2647  0.3888 -0.2739
 5036TIP3    H236744   5.789   5.501   7.319 -0.5867 -1.0874  0.7975
 5037TIP3   OH236745   3.026   6.346   8.359  0.5505 -0.1359 -0.5453
 5037TIP3    H136746   3.021   6.279   8.427  1.2262 -0.0086 -0.3625
 5037TIP3    H236747   3.119   6.367   8.353  0.1783  2.1540  0.7429
 5038TIP3   OH236748   0.193   5.435   0.177 -0.3195 -0.5734 -0.8896
 5038TIP3    H136749   0.183   5.450   0.083  0.1658 -0.6019 -0.9495
 5038TIP3    H236750   0.286   5.451   0.194  0.1560 -3.0351 -0.8694
 5039TIP3   OH236751   4.782   6.625   0.327 -0.3233 -0.1491 -0.4532
 5039TIP3    H136752   4.785   6.572   0.248  2.3431  0.3058 -0.7259
 5039TIP3    H236753   4.865   6.609   0.371 -0.1774  2.4077  0.3808
 5040TIP3   OH236754   4.755   4.497   2.402  0.3583 -0.0288  0.5843
 5040TIP3    H136755   4.677   4.481   2.455  0.0081  1.1079  0.4278
 5040TIP3    H236756   4.813   4.424   2.424 -0.9044 -1.1554  0.3623
 5041TIP3   OH236757   3.242   3.974   6.945 -0.0055 -0.4650  0.3903
 5041TIP3    H136758   3.326   3.934   6.923  2.2043  2.7348  2.1309
 5041TIP3    H236759   3.226   4.037   6.876 -2.1046 -2.2840 -0.9345
 5042TIP3   OH236760   1.373   4.258   1.517  0.1110 -0.0191  0.2215
 5042TIP3    H136761   1.369   4.204   1.438  0.6852 -0.6149  0.5901
 5042TIP3    H236762   1.450   4.226   1.564 -1.3943 -1.1508  2.0782
 5043TIP3   OH236763   1.125   5.761   0.983 -0.2404 -0.4179 -0.2171
 5043TIP3    H136764   1.126   5.751   0.888 -1.6706 -1.5629 -0.1559
 5043TIP3    H236765   1.196   5.705   1.014  0.4513  0.2254 -0.6101
 5044TIP3   OH236766   3.249   1.791   7.548  0.1454 -0.1177  0.0415
 5044TIP3    H136767   3.166   1.762   7.585  1.6736 -2.0694  2.2792
 5044TIP3    H236768   3.286   1.712   7.508  2.0609 -0.0435  1.5099
 5045TIP3   OH236769   2.697   0.121   0.837  0.1335  0.0311 -0.7417
 5045TIP3    H136770   2.662   0.035   0.859 -0.5063  0.7772  1.4388
 5045TIP3    H236771   2.782   0.103   0.799  0.0062 -1.5661 -0.3592
 5046TIP3   OH236772   1.954   3.246   0.173  0.1671  0.0777  0.5761
 5046TIP3    H136773   1.882   3.266   0.113  0.1872 -0.9150  0.1969
 5046TIP3    H236774   1.975   3.329   0.214  0.3468  0.8770 -1.0325
 5047TIP3   OH236775   0.320   1.328   2.001 -0.4325  0.9234  0.4463
 5047TIP3    H136776   0.350   1.335   2.092  1.2430  3.3553 -0.2037
 5047TIP3    H236777   0.379   1.263   1.962 -0.6056  0.5026  0.8685
 5048TIP3   OH236778   5.030   0.090   8.432 -0.1498  0.7299 -0.4109
 5048TIP3    H136779   4.999   0.020   8.374  1.8762 -0.3892 -0.2619
 5048TIP3    H236780   5.125   0.077   8.435 -0.1361  0.7672  3.0913
 5049TIP3   OH236781   0.302   2.332   0.729 -0.0246 -0.1188  0.2876
 5049TIP3    H136782   0.261   2.323   0.643  0.9881 -0.5688 -0.1682
 5049TIP3    H236783   0.233   2.310   0.792 -0.5000 -0.7746 -0.4505
 5050TIP3   OH236784   1.733   4.767   2.665  0.1547 -0.2316 -0.0643
 5050TIP3    H136785   1.805   4.739   2.722 -1.0257 -0.0882  1.5765
 5050TIP3    H236786   1.688   4.685   2.643 -0.4751 -0.1125  0.7568
 5051TIP3   OH236787   2.076   1.758   8.292  0.1306  0.4105  0.1826
 5051TIP3    H136788   2.079   1.821   8.220  0.9059  0.5261  0.3138
 5051TIP3    H236789   2.161   1.765   8.334 -0.1819  0.0833  0.8940
 5052TIP3   OH236790   1.268   2.993   6.283  0.6548 -0.4602 -0.0463
 5052TIP3    H136791   1.244   2.995   6.190  0.8596 -1.0889 -0.1215
 5052TIP3    H236792   1.201   2.938   6.324  1.0254 -0.8618  0.0292
 5053TIP3   OH236793   0.437   6.269   7.006  0.8297 -0.2603 -0.3580
 5053TIP3    H136794   0.396   6.254   7.090 -1.1680 -1.0792 -1.4148
 5053TIP3    H236795   0.531   6.265   7.023  0.4679 -0.2449  1.8214
 5054TIP3   OH236796   0.023   0.981   2.808  0.2096  0.0523  0.5496
 5054TIP3    H136797   0.032   0.960   2.715 -2.2050  1.1589 -0.0121
 5054TIP3    H236798  -0.001   1.074   2.809  1.7928  0.4915  2.4121
 5055TIP3   OH236799   5.967   6.527   2.830  0.5026 -0.5216  0.0437
 5055TIP3    H136800   6.053   6.560   2.856  0.2642 -0.3332  0.6120
 5055TIP3    H236801   5.984   6.443   2.788  1.0031 -0.2668 -0.2643
 5056TIP3   OH236802   2.594   1.352   1.493 -0.2256  0.0195  0.1761
 5056TIP3    H136803   2.683   1.384   1.510 -0.0090 -0.2416 -0.4238
 5056TIP3    H236804   2.556   1.339   1.580  0.2518  0.3319  0.4369
 5057TIP3   OH236805   3.588   2.409   0.545  0.1766 -0.4494  0.0168
 5057TIP3    H136806   3.564   2.418   0.638 -0.1318 -0.5337 -0.0523
 5057TIP3    H236807   3.609   2.498   0.517 -1.6928 -0.0832 -0.3517
 5058TIP3   OH236808   2.063   5.328   0.723  0.7119 -0.2687 -0.9336
 5058TIP3    H136809   2.132   5.393   0.738  1.4426 -1.2685  0.3514
 5058TIP3    H236810   2.108   5.244   0.735 -0.1060 -1.0531 -2.9674
 5059TIP3   OH236811   1.561   2.427   0.484  0.0029  0.8616 -0.4137
 5059TIP3    H136812   1.494   2.430   0.552 -0.0765  0.2790 -0.4630
 5059TIP3    H236813   1.605   2.512   0.490 -0.3764  1.0336 -0.0161
 5060TIP3   OH236814   1.175   3.794   1.276 -0.6562  0.2038 -0.2497
 5060TIP3    H136815   1.212   3.714   1.313  0.8858  1.3567  0.8412
 5060TIP3    H236816   1.116   3.827   1.344  0.9573  1.4825  0.6032
 5061TIP3   OH236817   6.401   5.202   0.212 -0.0916 -0.1345 -0.3858
 5061TIP3    H136818   6.312   5.236   0.211 -0.5574 -1.1669  1.5353
 5061TIP3    H236819   6.391   5.107   0.226  1.2847  0.0336  2.4928
 5062TIP3   OH236820   0.014   0.305   6.716 -0.1535  0.4610 -0.4135
 5062TIP3    H136821   0.076   0.234   6.699  0.6234  0.8778  0.5573
 5062TIP3    H236822  -0.004   0.343   6.629  0.4607 -0.0667 -0.7776
 5063TIP3   OH236823   6.437   2.906   1.083 -0.1129 -0.1395 -0.4082
 5063TIP3    H136824   6.450   2.999   1.066 -0.1314  0.1306  0.8853
 5063TIP3    H236825   6.345   2.890   1.066 -0.5228  0.5059  1.0216
 5064TIP3   OH236826   1.296   0.510   1.628 -0.1877 -0.3916  0.4643
 5064TIP3    H136827   1.277   0.596   1.593 -0.8112  0.2190  2.1886
 5064TIP3    H236828   1.308   0.524   1.722  1.4225 -1.9155  0.5519
 5065TIP3   OH236829   4.142   5.673   6.145 -0.3190  0.1195  0.0573
 5065TIP3    H136830   4.156   5.583   6.176  1.1744  0.5097  0.6100
 5065TIP3    H236831   4.048   5.678   6.128 -1.0014 -0.6516  2.9668
 5066TIP3   OH236832   1.982   5.910   2.053  0.1686 -0.3513  0.2082
 5066TIP3    H136833   1.908   5.871   2.006  0.3443  0.3383 -0.6556
 5066TIP3    H236834   1.952   5.915   2.144 -0.7329 -0.3656 -0.0766
 5067TIP3   OH236835   0.955   5.603   8.121  0.4348  0.1133  0.7573
 5067TIP3    H136836   0.996   5.560   8.196  1.1876  0.9599  0.8383
 5067TIP3    H236837   0.877   5.644   8.157 -1.7861 -3.2118  0.2547
 5068TIP3   OH236838   2.842   1.647   0.535  0.0024 -0.3932  0.8292
 5068TIP3    H136839   2.823   1.717   0.598  0.1270 -0.1900  0.6404
 5068TIP3    H236840   2.903   1.590   0.581  1.5095  0.6986  0.2753
 5069TIP3   OH236841   5.075   6.119   0.302  0.6625  0.3233 -0.4663
 5069TIP3    H136842   5.133   6.046   0.324 -1.3240 -1.7181 -1.5852
 5069TIP3    H236843   5.104   6.148   0.216  0.8339  0.1792 -0.4566
 5070TIP3   OH236844   1.995   3.358   1.006  0.2835 -0.4047 -0.7901
 5070TIP3    H136845   2.053   3.318   1.070 -1.7426 -1.0276  0.7437
 5070TIP3    H236846   2.029   3.329   0.921  1.4346 -1.7914  0.1069
 5071TIP3   OH236847   6.569   0.712   7.504 -0.3060  0.7104  0.4584
 5071TIP3    H136848   6.559   0.624   7.468  1.0362  0.0478  1.6111
 5071TIP3    H236849   6.495   0.762   7.467 -2.1808 -1.3423  1.2010
 5072TIP3   OH236850   0.795   2.240   1.600 -0.4241 -0.4241 -0.0602
 5072TIP3    H136851   0.867   2.239   1.663  0.1807 -1.5511 -0.7319
 5072TIP3    H236852   0.734   2.174   1.632 -1.8979  1.4926  1.2759
 5073TIP3   OH236853   5.739   2.328   7.573 -0.1948 -0.3828 -0.8307
 5073TIP3    H136854   5.826   2.359   7.546 -0.6464  2.1781  0.3191
 5073TIP3    H236855   5.684   2.341   7.496  0.3911 -2.0132 -1.5634
 5074TIP3   OH236856   4.204   6.121   0.189  0.6194 -0.0959  0.0546
 5074TIP3    H136857   4.160   6.137   0.273 -0.5810 -1.2395 -0.3253
 5074TIP3    H236858   4.237   6.032   0.195  0.6418 -0.1410 -0.6288
 5075TIP3   OH236859   5.539   1.048   7.750 -0.1893  0.3448  0.0490
 5075TIP3    H136860   5.604   0.994   7.705  0.1433  0.3953  0.4626
 5075TIP3    H236861   5.456   1.005   7.732 -0.0864  0.4784 -0.7797
 5076TIP3   OH236862   6.739   4.631   1.466 -0.1882  0.1017  0.1985
 5076TIP3    H136863   6.736   4.726   1.473  0.5648  0.1797 -0.4290
 5076TIP3    H236864   6.794   4.604   1.540  0.2532  0.2196 -0.0829
 5077TIP3   OH236865   2.618   5.325   6.896  0.3428 -0.0981 -0.0554
 5077TIP3    H136866   2.705   5.286   6.893  1.0228  1.3417 -3.3155
 5077TIP3    H236867   2.560   5.259   6.860  0.5667 -0.1041 -0.4118
 5078TIP3   OH236868   0.631   1.809   8.126 -0.3158 -0.0909  0.4347
 5078TIP3    H136869   0.639   1.895   8.167 -1.5759  0.5043 -0.5090
 5078TIP3    H236870   0.658   1.822   8.035  0.0064 -0.8274  0.4130
 5079TIP3   OH236871   1.453   1.537   0.176  0.0646 -0.1889 -0.2504
 5079TIP3    H136872   1.386   1.540   0.107  0.7744  1.6325 -0.9232
 5079TIP3    H236873   1.532   1.507   0.131  0.1403 -0.5780  0.1432
 5080TIP3   OH236874   1.741   6.716   8.072  0.5721 -0.4840 -0.5945
 5080TIP3    H136875   1.699   6.693   7.989  1.2016 -1.0081 -0.7722
 5080TIP3    H236876   1.829   6.678   8.066  1.9179  2.4455 -1.1784
 5081TIP3   OH236877   6.585   1.352   7.499  0.6593  0.0710 -1.0365
 5081TIP3    H136878   6.641   1.417   7.542 -0.4064  0.6062 -0.4147
 5081TIP3    H236879   6.525   1.323   7.568  0.1623 -0.4824 -1.6895
 5082TIP3   OH236880   0.199   4.240   8.245 -0.1233  0.1529  0.2289
 5082TIP3    H136881   0.228   4.289   8.322 -2.2535 -0.7019  1.6610
 5082TIP3    H236882   0.146   4.303   8.195  0.1351  0.3171  0.1570
 5083TIP3   OH236883   0.936   6.464   1.835  0.2489 -0.5374 -0.0911
 5083TIP3    H136884   0.844   6.484   1.854  0.9114  1.6669  1.0687
 5083TIP3    H236885   0.932   6.404   1.760 -2.1154 -0.4039 -0.1438
 5084TIP3   OH236886   3.569   0.877   7.504  0.3151 -0.1036 -0.2789
 5084TIP3    H136887   3.526   0.896   7.421 -0.1286 -0.3182 -0.1012
 5084TIP3    H236888   3.663   0.885   7.485  0.2357 -0.6150 -0.9165
 5085TIP3   OH236889   3.643   6.544   7.717  0.1548 -0.2575  0.1307
 5085TIP3    H136890   3.556   6.528   7.752  0.2550 -1.0441  0.0391
 5085TIP3    H236891   3.665   6.632   7.747  0.3819 -1.0137  2.3728
 5086TIP3   OH236892   1.749   0.164   0.694  0.3701 -0.0388 -0.6242
 5086TIP3    H136893   1.826   0.210   0.729  1.3581 -0.6693 -1.8468
 5086TIP3    H236894   1.779   0.074   0.680 -0.9961 -0.6204  0.0617
 5087TIP3   OH236895   5.776   1.308   0.703 -0.1385  0.0808 -0.3559
 5087TIP3    H136896   5.717   1.252   0.654 -0.3842  0.7941 -0.8984
 5087TIP3    H236897   5.854   1.317   0.648  0.4271 -0.7420  0.2937
 5088TIP3   OH236898   3.090   2.633   0.443  0.5200  0.0157 -0.1452
 5088TIP3    H136899   3.152   2.686   0.392 -0.3019 -1.5474 -2.9636
 5088TIP3    H236900   3.135   2.549   0.455 -0.2986 -0.4776 -0.4980
 5089TIP3   OH236901   6.261   6.688   8.486 -0.1470  0.2657 -0.6472
 5089TIP3    H136902   6.239   6.770   8.441 -1.1513 -0.1715 -0.9889
 5089TIP3    H236903   6.263   6.622   8.416  1.1590  0.0742 -0.4522
 5090TIP3   OH236904   1.709   6.641   6.988  0.3753 -0.7588 -0.5929
 5090TIP3    H136905   1.738   6.714   6.935  0.1098 -0.4719 -0.3503
 5090TIP3    H236906   1.673   6.682   7.067  0.4727 -1.1617 -0.3380
 5091TIP3   OH236907   0.095   4.193   2.493 -0.1844  0.3855  0.5716
 5091TIP3    H136908   0.028   4.186   2.561 -2.5781  1.6988 -1.4936
 5091TIP3    H236909   0.178   4.200   2.542 -1.6997  0.7773  3.3116
 5092TIP3   OH236910   0.300   1.098   0.935  0.6749  0.7232 -0.4094
 5092TIP3    H136911   0.357   1.023   0.922 -0.5328 -0.7719  2.1029
 5092TIP3    H236912   0.357   1.174   0.925  2.4198 -0.5944 -0.8577
 5093TIP3   OH236913   5.968   5.073   5.875  0.1246 -0.0235  0.0249
 5093TIP3    H136914   6.018   5.012   5.929 -0.7053 -1.2957 -0.5836
 5093TIP3    H236915   5.881   5.034   5.868 -0.6290  1.5637  0.1188
 5094TIP3   OH236916   0.805   4.893   7.855  0.4037  0.0328  0.3674
 5094TIP3    H136917   0.781   4.985   7.856 -0.0252 -0.0845  0.9376
 5094TIP3    H236918   0.722   4.846   7.847  0.5966 -0.3145  0.3878
 5095TIP3   OH236919   3.345   0.705   7.931 -0.4645 -0.6201 -0.2175
 5095TIP3    H136920   3.288   0.781   7.927  2.7286  1.9928 -0.5900
 5095TIP3    H236921   3.315   0.648   7.860 -1.4422  1.5041 -1.5947
 5096TIP3   OH236922   5.998   6.889   2.113 -0.1067 -0.0528  0.0238
 5096TIP3    H136923   5.930   6.859   2.052 -0.1639 -1.4059  0.7118
 5096TIP3    H236924   6.071   6.916   2.056  0.4201 -2.6822 -0.6986
 5097TIP3   OH236925   0.364   0.794   1.638  0.0575 -0.6037  0.6102
 5097TIP3    H136926   0.338   0.798   1.730 -1.3427 -0.4047  0.2345
 5097TIP3    H236927   0.371   0.885   1.611  0.5683 -0.6615  0.5390
 5098TIP3   OH236928   1.687   6.635   0.553 -0.1009 -0.1262  0.4165
 5098TIP3    H136929   1.783   6.644   0.549 -0.2806  3.8361  0.9284
 5098TIP3    H236930   1.665   6.656   0.644 -1.5291  0.2610  0.0043
 5099TIP3   OH236931   2.372   0.619   7.178 -0.2989 -0.2727  0.5538
 5099TIP3    H136932   2.289   0.571   7.182 -0.7876  0.4962 -0.0067
 5099TIP3    H236933   2.406   0.602   7.090 -1.5333  2.0428 -0.4664
 5100TIP3   OH236934   6.326   2.894   0.719  0.0534 -1.6500 -1.3128
 5100TIP3    H136935   6.272   2.857   0.649  0.5528 -2.5230 -1.2446
 5100TIP3    H236936   6.371   2.967   0.677 -0.9808 -1.0637 -1.4316
 5101TIP3   OH236937   6.817   4.533   2.134 -0.0024 -0.0920  0.4933
 5101TIP3    H136938   6.852   4.618   2.160  0.9882 -0.9020  1.9139
 5101TIP3    H236939   6.769   4.501   2.210  0.5007 -1.2463  0.3502
 5102TIP3   OH236940   5.765   3.919   2.266 -0.0504  0.7422 -0.7644
 5102TIP3    H136941   5.721   3.893   2.348  0.2689  1.8482 -0.2218
 5102TIP3    H236942   5.775   4.014   2.274  1.6301  0.6228 -1.2860
 5103TIP3   OH236943   4.631   0.420   1.463  0.5300  0.5246 -0.8315
 5103TIP3    H136944   4.603   0.442   1.375 -1.3977 -1.3027 -0.7536
 5103TIP3    H236945   4.579   0.476   1.520 -0.2145 -0.1639 -0.8104
 5104TIP3   OH236946   1.906   1.206   8.061 -0.5852  0.0967 -0.0398
 5104TIP3    H136947   1.999   1.224   8.075 -0.3929 -1.1771  0.4256
 5104TIP3    H236948   1.882   1.260   7.985  0.7808 -0.3293 -0.8041
 5105TIP3   OH236949   2.102   2.346   0.261  0.1143  0.8456  0.0395
 5105TIP3    H136950   2.010   2.333   0.237  0.0516  1.7560 -0.2689
 5105TIP3    H236951   2.116   2.288   0.335 -0.8943  1.1474  0.4926
 5106TIP3   OH236952   1.060   3.586   0.499 -0.5336 -0.6396 -0.5069
 5106TIP3    H136953   1.077   3.644   0.425  0.8850 -0.8850 -0.3894
 5106TIP3    H236954   0.969   3.604   0.522 -0.0186  1.8923 -0.1427
 5107TIP3   OH236955   6.252   5.797   7.906  0.6925 -0.5723  0.1228
 5107TIP3    H136956   6.346   5.809   7.918  0.6842 -1.5542  1.3759
 5107TIP3    H236957   6.212   5.865   7.959  0.7058 -1.4007  1.2361
 5108TIP3   OH236958   2.593   6.556   1.157 -0.0715  0.2147 -0.1254
 5108TIP3    H136959   2.603   6.597   1.243  0.7764 -0.5065  0.1263
 5108TIP3    H236960   2.577   6.464   1.177  1.9806 -0.3268 -0.7551
 5109TIP3   OH236961   3.168   5.149   8.233  0.5001  0.3260  0.3692
 5109TIP3    H136962   3.139   5.061   8.210 -0.6462  0.3140  1.6989
 5109TIP3    H236963   3.253   5.136   8.277  2.0176  0.2402 -2.3748
 5110TIP3   OH236964   0.002   0.029   2.768 -0.0035 -0.0577 -0.1151
 5110TIP3    H136965  -0.084   0.010   2.805  0.7492  1.6452  2.8946
 5110TIP3    H236966   0.046  -0.056   2.763 -0.9793 -0.6317  0.8113
 5111TIP3   OH236967   4.431   5.915   7.969  0.1967  0.1979 -0.1695
 5111TIP3    H136968   4.413   6.009   7.964  0.2360  0.1331 -2.6372
 5111TIP3    H236969   4.514   5.909   8.017 -1.5306  1.0934  3.2662
 5112TIP3   OH236970   4.164   3.532   0.616  0.4069  0.5922 -0.1940
 5112TIP3    H136971   4.119   3.561   0.536  1.9012  1.3173 -0.8070
 5112TIP3    H236972   4.252   3.569   0.609  0.9616 -0.3768  1.2013
 5113TIP3   OH236973   1.881   4.598   8.261 -0.2137  0.5476 -0.3148
 5113TIP3    H136974   1.899   4.504   8.256  1.2438  0.8391 -1.1731
 5113TIP3    H236975   1.793   4.604   8.298 -1.5283 -1.2599 -2.8301
 5114TIP3   OH236976   0.331   4.701   6.977 -0.0798  0.5451  0.2291
 5114TIP3    H136977   0.238   4.682   6.965  0.1412 -0.6818  0.3229
 5114TIP3    H236978   0.373   4.615   6.981  1.0766  1.0822  0.0835
 5115TIP3   OH236979   0.236   3.573   6.726 -0.0923  0.0666 -0.4080
 5115TIP3    H136980   0.330   3.586   6.739 -0.0011 -1.0350  0.1767
 5115TIP3    H236981   0.199   3.660   6.732  0.7579  0.3842  0.6630
 5116TIP3   OH236982   5.234   6.638   7.340 -0.0293  0.2728  0.7179
 5116TIP3    H136983   5.200   6.551   7.362 -0.1217 -0.1288 -0.8680
 5116TIP3    H236984   5.156   6.691   7.327  0.0195  0.4299  1.0647
 5117TIP3   OH236985   4.365   6.655   1.792  0.0464 -0.2838 -0.0970
 5117TIP3    H136986   4.387   6.605   1.871  1.0919 -0.3592 -0.4191
 5117TIP3    H236987   4.407   6.606   1.721  0.0951  0.4217 -0.5537
 5118TIP3   OH236988   1.448   3.225   0.594  0.0647 -0.0119  0.0238
 5118TIP3    H136989   1.378   3.172   0.556  0.9391 -1.1262 -0.0863
 5118TIP3    H236990   1.491   3.167   0.657 -0.8541  1.5287  2.2107
 5119TIP3   OH236991   1.567   5.096   8.470  0.0065 -0.2957  0.9564
 5119TIP3    H136992   1.511   5.125   8.541 -2.3010 -2.2216  0.0786
 5119TIP3    H236993   1.543   5.004   8.456  2.4869 -0.8473 -0.3851
 5120TIP3   OH236994   2.830   5.551   1.327  0.1559 -0.5493 -0.1379
 5120TIP3    H136995   2.905   5.603   1.356 -0.9965  0.9114  0.3983
 5120TIP3    H236996   2.861   5.460   1.329  1.9191  0.0185 -0.0556
 5121TIP3   OH236997   1.687   3.543   0.095 -0.0867 -0.2306 -0.5774
 5121TIP3    H136998   1.699   3.567   0.003  0.3397  0.4811 -0.3436
 5121TIP3    H236999   1.627   3.468   0.092  0.6716 -0.8291 -1.4875
 5122TIP3   OH237000   0.026   1.064   2.187 -0.7376 -0.7195  0.1497
 5122TIP3    H137001  -0.014   0.979   2.207  0.8224 -1.7617 -0.8409
 5122TIP3    H237002   0.026   1.111   2.270 -1.9480 -1.5585  0.6457
 5123TIP3   OH237003   0.626   6.594   1.202  0.7035  0.0857 -0.1669
 5123TIP3    H137004   0.617   6.554   1.288 -1.6701 -0.2979 -0.5396
 5123TIP3    H237005   0.699   6.548   1.161  2.2210  0.6494  1.7919
 5124TIP3   OH237006   4.098   0.626   0.020  0.3834 -0.0409  0.2338
 5124TIP3    H137007   4.128   0.677  -0.056 -0.2907  0.5040  0.3251
 5124TIP3    H237008   4.005   0.646   0.027  0.5112  0.2215  1.4445
 5125TIP3   OH237009   3.885   2.916   2.648  0.0094 -0.0026  0.0908
 5125TIP3    H137010   3.963   2.971   2.639 -0.2181  0.2712 -0.2215
 5125TIP3    H237011   3.848   2.941   2.733 -1.0647  1.6116 -0.7981
 5126TIP3   OH237012   2.873   6.527   0.917  0.5757 -0.7379  0.3118
 5126TIP3    H137013   2.913   6.542   1.003  2.6138 -1.5692 -0.4282
 5126TIP3    H237014   2.850   6.434   0.918  0.3745 -0.6894  0.0460
 5127TIP3   OH237015   6.889   1.810   6.973  0.6681  0.6113 -0.2873
 5127TIP3    H137016   6.880   1.732   7.027 -0.9011  1.0658  0.1592
 5127TIP3    H237017   6.811   1.811   6.918 -0.0253  2.5415  0.6466
 5128TIP3   OH237018   4.138   0.988   0.038  0.9551  0.3391 -0.0565
 5128TIP3    H137019   4.104   0.956   0.121 -0.7855 -1.2633 -1.3019
 5128TIP3    H237020   4.105   1.078   0.031  2.5898  1.1329  1.7094
 5129TIP3   OH237021   1.115   0.852   1.258 -0.1443 -0.1883  0.1390
 5129TIP3    H137022   1.120   0.937   1.302 -0.2381 -1.2160  2.3016
 5129TIP3    H237023   1.161   0.793   1.318  2.6264 -1.1699 -2.7151
 5130TIP3   OH237024   2.502   6.832   6.567  0.0683  0.7998 -0.3279
 5130TIP3    H137025   2.416   6.796   6.544  0.5343  1.1287 -2.8238
 5130TIP3    H237026   2.563   6.760   6.553  0.2806  0.6555  1.1638
 5131TIP3   OH237027   2.324   4.060   1.318 -0.2785  0.5106  0.1657
 5131TIP3    H137028   2.319   3.964   1.317 -0.1884  0.4709  1.7757
 5131TIP3    H237029   2.346   4.083   1.228  0.3723 -1.0212 -0.1061
 5132TIP3   OH237030   2.166   2.859   6.850  0.3797  0.5432  0.1738
 5132TIP3    H137031   2.089   2.810   6.880  0.7421  1.4283  2.8160
 5132TIP3    H237032   2.130   2.934   6.803 -0.4431  1.0735  1.5792
 5133TIP3   OH237033   3.607   0.679   2.097 -0.9107  0.1924 -0.6173
 5133TIP3    H137034   3.577   0.745   2.160 -0.3041 -0.9119  0.8880
 5133TIP3    H237035   3.573   0.596   2.131  2.4299 -0.9523  0.3568
 5134TIP3   OH237036   2.524   0.817   0.823 -0.5369  0.0959  0.3036
 5134TIP3    H137037   2.612   0.852   0.839  0.7062 -1.8799 -1.6583
 5134TIP3    H237038   2.515   0.746   0.886 -0.1431 -0.5855 -0.3970
 5135TIP3   OH237039   5.615   2.692   0.263 -0.3282  0.4620  0.3206
 5135TIP3    H137040   5.541   2.674   0.205 -0.1932  0.1196  0.2518
 5135TIP3    H237041   5.614   2.787   0.275  1.1358  0.9082 -2.2699
 5136TIP3   OH237042   0.432   2.794   7.572 -0.2373  0.5614 -0.8533
 5136TIP3    H137043   0.430   2.857   7.645  1.1065  0.0678 -0.3466
 5136TIP3    H237044   0.488   2.836   7.507  2.2478 -0.7935  0.2453
 5137TIP3   OH237045   4.959   3.370   1.031  0.4978 -0.0864  0.5686
 5137TIP3    H137046   5.029   3.320   1.072  0.3466 -0.8343 -0.0631
 5137TIP3    H237047   4.885   3.363   1.091  0.7745  0.1892  0.9425
 5138TIP3   OH237048   5.605   3.695   7.174 -0.4123 -0.3952  0.5254
 5138TIP3    H137049   5.675   3.755   7.202  0.5075  1.2745 -4.3954
 5138TIP3    H237050   5.651   3.619   7.139 -0.8862  0.5529 -2.4109
 5139TIP3   OH237051   4.392   5.337   0.942 -0.3280  0.5430 -0.1959
 5139TIP3    H137052   4.407   5.320   1.035  0.8849  1.3582 -0.2094
 5139TIP3    H237053   4.353   5.256   0.908  0.2593 -0.1742  0.7886
 5140TIP3   OH237054   6.100   2.514   7.157 -0.5231  0.3905 -0.0404
 5140TIP3    H137055   6.161   2.570   7.108 -0.1024  0.4792  0.5647
 5140TIP3    H237056   6.015   2.533   7.119  0.0824 -1.5466 -2.5655
 5141TIP3   OH237057   1.892   5.514   0.189  0.6684  0.2568 -0.2050
 5141TIP3    H137058   1.891   5.440   0.249  1.9893 -0.0974 -0.5708
 5141TIP3    H237059   1.915   5.476   0.104  1.4934  1.0783 -0.3725
 5142TIP3   OH237060   2.863   4.812   1.097 -0.3750  0.7901  0.1931
 5142TIP3    H137061   2.784   4.829   1.148 -0.5420  0.4336  0.0551
 5142TIP3    H237062   2.844   4.846   1.010 -0.0121  1.5900  0.4134
 5143TIP3   OH237063   3.794   5.348   0.625 -0.3413  0.4151  0.4988
 5143TIP3    H137064   3.849   5.387   0.556  1.6075  1.0709  2.2985
 5143TIP3    H237065   3.856   5.305   0.684 -1.7062  1.3895  2.7941
 5144TIP3   OH237066   5.830   0.074   1.165  0.2429  0.0463  0.9363
 5144TIP3    H137067   5.754   0.047   1.114 -0.6940  0.0647  2.2589
 5144TIP3    H237068   5.874   0.139   1.111  1.8112 -2.9907 -1.7915
 5145TIP3   OH237069   4.822   0.947   0.927 -0.3885  0.2195 -0.0466
 5145TIP3    H137070   4.756   0.902   0.876 -0.0345  1.9416 -2.1629
 5145TIP3    H237071   4.903   0.935   0.877  0.2056  1.0101  0.7012
 5146TIP3   OH237072   1.956   1.462   1.039  0.6505  0.1756  0.1643
 5146TIP3    H137073   1.882   1.523   1.030  0.0245 -0.6303 -0.3223
 5146TIP3    H237074   2.015   1.486   0.968  0.4059  0.2250 -0.0260
 5147TIP3   OH237075   2.136   4.129   2.108 -0.0081 -0.6587 -0.0043
 5147TIP3    H137076   2.125   4.165   2.196 -0.2534 -1.1471  0.1694
 5147TIP3    H237077   2.145   4.205   2.051 -1.1572 -0.2904  0.2690
 5148TIP3   OH237078   3.506   0.391   1.774  0.2397 -0.2516 -0.0022
 5148TIP3    H137079   3.566   0.319   1.752  1.3861  0.6343  0.1294
 5148TIP3    H237080   3.536   0.422   1.859 -1.2810 -0.6519  0.7105
 5149TIP3   OH237081   4.972   0.025   0.900  0.2749  0.3706  0.4705
 5149TIP3    H137082   4.987   0.033   0.994 -0.9447  1.4645  0.5883
 5149TIP3    H237083   4.878   0.011   0.891  0.3323  0.5661 -0.5990
 5150TIP3   OH237084   3.593   6.859   0.043 -0.4258 -0.4815  0.0793
 5150TIP3    H137085   3.662   6.878  -0.020  0.0629 -1.1371  0.4033
 5150TIP3    H237086   3.589   6.937   0.099 -1.4107  0.4503 -1.2160
 5151TIP3   OH237087   4.396   2.981   0.981 -0.4590  0.5171  0.1584
 5151TIP3    H137088   4.382   2.945   1.069  1.2821 -2.4550 -0.6398
 5151TIP3    H237089   4.346   2.923   0.923 -0.6654  1.7437 -0.9401
 5152TIP3   OH237090   1.369   2.458   0.930 -0.1088 -0.5492 -0.5813
 5152TIP3    H137091   1.329   2.372   0.920  1.9791 -1.4416 -1.9811
 5152TIP3    H237092   1.387   2.486   0.840  1.0384  0.4620 -0.0569
 5153TIP3   OH237093   6.716   0.990   0.990  0.2038  0.0952  1.1044
 5153TIP3    H137094   6.690   0.972   0.900  0.1916 -0.9140  1.2883
 5153TIP3    H237095   6.774   1.065   0.985  1.2010 -0.7147  0.1013
 5154TIP3   OH237096   2.942   2.590   0.104  0.7500 -0.3606  0.0886
 5154TIP3    H137097   2.870   2.528   0.089  0.9353 -0.4362 -0.4921
 5154TIP3    H237098   3.013   2.536   0.140  1.3867 -0.7575 -1.6602
 5155TIP3   OH237099   3.969   5.951   0.546  0.5266 -0.3804 -0.1014
 5155TIP3    H137100   3.952   5.896   0.622  0.6307 -0.7440 -0.3390
 5155TIP3    H237101   4.010   5.892   0.482  1.0817  0.0746 -0.1803
 5156TIP3   OH237102   4.102   2.246   2.075 -0.9907  0.0265  0.4863
 5156TIP3    H137103   4.060   2.331   2.080  0.2908  0.8210 -1.1768
 5156TIP3    H237104   4.045   2.194   2.017 -1.2741  0.0515  0.7395
 5157TIP3   OH237105   5.157   1.538   7.598  0.0522 -0.1741  0.0910
 5157TIP3    H137106   5.182   1.618   7.643 -0.7022  0.6570 -0.9077
 5157TIP3    H237107   5.142   1.565   7.507  1.1441 -1.7131 -0.5994
 5158TIP3   OH237108   4.461   6.270   1.340  0.0644  0.2583 -0.3398
 5158TIP3    H137109   4.438   6.178   1.353 -0.4103 -0.1116 -3.1721
 5158TIP3    H237110   4.404   6.318   1.401 -1.4231 -1.1983 -0.5063
 5159TIP3   OH237111   5.123   2.344   2.697  1.0008  0.0788 -0.1417
 5159TIP3    H137112   5.206   2.299   2.683  1.8474  1.4263  0.3509
 5159TIP3    H237113   5.113   2.400   2.619  0.5046 -0.1563 -0.2473
 5160TIP3   OH237114   5.982   0.646   6.480 -0.3997  0.1038  0.1433
 5160TIP3    H137115   5.919   0.702   6.527 -0.4318  1.0193 -0.9446
 5160TIP3    H237116   5.967   0.666   6.387  2.1098  1.0727 -0.1425
 5161TIP3   OH237117   6.801   6.884   6.839 -0.5786 -0.2163 -0.4662
 5161TIP3    H137118   6.774   6.930   6.759 -1.2228  1.1136  0.4787
 5161TIP3    H237119   6.736   6.910   6.904 -0.0717 -1.2915  0.4879
 5162TIP3   OH237120   3.238   1.820   1.248 -0.0681 -0.6470  0.3891
 5162TIP3    H137121   3.300   1.852   1.314  0.5717 -1.0120 -0.0175
 5162TIP3    H237122   3.203   1.739   1.285  0.3491 -0.8930  0.2524
 5163TIP3   OH237123   3.827   5.386   7.893  0.0323  0.1222 -0.4859
 5163TIP3    H137124   3.905   5.359   7.941 -1.5790 -2.7742  0.7906
 5163TIP3    H237125   3.846   5.365   7.802  0.3757 -1.7116 -0.0268
 5164TIP3   OH237126   0.380   2.469   2.143 -0.0685 -0.8485  0.0963
 5164TIP3    H137127   0.384   2.564   2.139 -1.6039 -0.7913 -2.2249
 5164TIP3    H237128   0.286   2.449   2.140  0.2368 -2.4319 -0.0561
 5165TIP3   OH237129   2.822   3.669   8.322  0.3661 -0.8275  0.4982
 5165TIP3    H137130   2.873   3.625   8.390  0.2628 -1.4706  0.1589
 5165TIP3    H237131   2.830   3.762   8.343 -1.4331 -1.0765  2.7049
 5166TIP3   OH237132   1.482   3.574   0.943 -0.3075  0.4095  0.1474
 5166TIP3    H137133   1.533   3.523   0.880  0.3821 -0.2077  1.1957
 5166TIP3    H237134   1.444   3.509   1.002 -0.2315  1.0400  0.9009
 5167TIP3   OH237135   1.170   2.681   6.897  0.0498  0.1030 -0.1747
 5167TIP3    H137136   1.106   2.610   6.888  1.6579 -1.4381 -0.1050
 5167TIP3    H237137   1.184   2.711   6.807  0.2036 -0.4729 -0.3502
 5168TIP3   OH237138   1.009   6.057   0.679 -0.1351 -0.3666  0.1963
 5168TIP3    H137139   0.970   6.115   0.614 -0.7065 -1.7203 -0.7184
 5168TIP3    H237140   1.068   6.113   0.729  1.1130  0.5276 -2.1516
 5169TIP3   OH237141   2.733   2.818   8.043 -0.1407  0.5519 -0.1868
 5169TIP3    H137142   2.822   2.830   8.078  0.1487 -0.3699 -0.5729
 5169TIP3    H237143   2.728   2.879   7.969 -0.3654  1.6908  0.7324
 5170TIP3   OH237144   2.712   6.837   6.937 -0.8832  0.2901  0.5350
 5170TIP3    H137145   2.623   6.854   6.908 -0.9156 -0.1731  0.3561
 5170TIP3    H237146   2.762   6.824   6.857 -1.0347 -1.2898  0.6703
 5171TIP3   OH237147   3.183   5.453   0.983 -0.2422  0.0120 -0.4527
 5171TIP3    H137148   3.210   5.534   1.027 -0.5528  0.3307 -0.8481
 5171TIP3    H237149   3.255   5.392   1.000  0.2563  0.5401 -0.6283
 5172TIP3   OH237150   6.459   2.624   1.471 -0.2050  0.5462  0.5302
 5172TIP3    H137151   6.367   2.635   1.448 -0.5739 -1.5600  0.7595
 5172TIP3    H237152   6.507   2.655   1.393 -1.1006  1.3688  0.2883
 5173TIP3   OH237153   6.288   4.538   0.725  0.3743 -0.0953 -0.0942
 5173TIP3    H137154   6.343   4.549   0.647 -1.1409 -2.0010 -1.5274
 5173TIP3    H237155   6.215   4.598   0.712  0.7893  0.5833  0.5794
 5174TIP3   OH237156   6.022   0.103   0.170  0.1681 -0.1209  0.2521
 5174TIP3    H137157   6.099   0.072   0.218 -0.5203 -0.2841  1.2969
 5174TIP3    H237158   6.006   0.036   0.103 -0.3271 -1.2281  1.4264
 5175TIP3   OH237159   4.084   4.384   7.194 -0.4650 -0.1310 -0.0138
 5175TIP3    H137160   4.157   4.432   7.233 -0.4048  0.4786 -0.8529
 5175TIP3    H237161   4.113   4.293   7.193  0.9832  0.3159 -1.8505
 5176TIP3   OH237162   1.986   1.996   6.797  0.4974  0.4308 -0.3171
 5176TIP3    H137163   1.987   2.058   6.869  0.1956  0.1439 -0.0672
 5176TIP3    H237164   2.016   2.047   6.721 -0.5257  1.1004 -0.2918
 5177TIP3   OH237165   0.219   0.026   7.974  0.3272 -0.6926 -0.0198
 5177TIP3    H137166   0.156  -0.007   7.911  0.8690  0.0575 -0.9966
 5177TIP3    H237167   0.202  -0.022   8.054 -0.5456 -1.4935 -0.6751
 5178TIP3   OH237168   3.151   1.216   0.536 -0.8193 -0.1691 -0.0793
 5178TIP3    H137169   3.213   1.227   0.464  0.1665 -2.2062  0.3962
 5178TIP3    H237170   3.197   1.251   0.613 -1.0127  0.0293 -0.0525
 5179TIP3   OH237171   5.898   3.164   1.773  0.6086  0.5099  0.0153
 5179TIP3    H137172   5.900   3.259   1.762 -0.4858  0.6239  0.6722
 5179TIP3    H237173   5.808   3.145   1.797  1.1352 -0.5569  1.2177
 5180TIP3   OH237174   3.270   1.050   8.315  0.5124  0.1085  0.7299
 5180TIP3    H137175   3.273   0.957   8.293  1.4172  0.3474 -0.2282
 5180TIP3    H237176   3.206   1.087   8.253  1.5702  0.4348 -0.1996
 5181TIP3   OH237177   5.155   3.862   7.628  0.1005 -0.0819  0.3701
 5181TIP3    H137178   5.213   3.887   7.555  0.2785  0.4224  0.6810
 5181TIP3    H237179   5.117   3.779   7.600  1.0490 -0.4725  0.1928
 5182TIP3   OH237180   3.607   0.690   7.714  0.3978 -0.6303  0.8242
 5182TIP3    H137181   3.623   0.606   7.671  3.0674  0.2058 -0.0463
 5182TIP3    H237182   3.588   0.750   7.643 -0.0009 -0.1803  1.3020
 5183TIP3   OH237183   1.886   2.944   8.118 -0.8427 -0.0931  0.5901
 5183TIP3    H137184   1.952   2.900   8.064 -1.6394  0.8573 -1.2212
 5183TIP3    H237185   1.938   2.999   8.178  0.0496  0.6013 -0.7645
 5184TIP3   OH237186   2.386   5.465   7.118  0.0372 -0.9209  0.9952
 5184TIP3    H137187   2.427   5.510   7.193  0.6531 -0.7268  0.5531
 5184TIP3    H237188   2.325   5.403   7.158  1.5761 -2.0412  1.7340
 5185TIP3   OH237189   0.230   3.457   1.045 -0.4587  0.1770  0.6109
 5185TIP3    H137190   0.244   3.549   1.067  1.5003  0.6296 -1.9751
 5185TIP3    H237191   0.311   3.431   1.000 -2.1747 -1.8761 -1.5186
 5186TIP3   OH237192   0.876   6.342   6.866 -0.3861  0.4249 -0.2680
 5186TIP3    H137193   0.925   6.263   6.845  1.3199  1.4195 -0.2401
 5186TIP3    H237194   0.941   6.412   6.864 -1.7971  1.8089 -0.0794
 5187TIP3   OH237195   4.902   4.481   0.687  0.7070 -0.1413 -0.3710
 5187TIP3    H137196   4.824   4.445   0.729  0.1753  2.8610  1.5118
 5187TIP3    H237197   4.974   4.426   0.718 -0.3025 -1.1803  0.1979
 5188TIP3   OH237198   1.210   1.529   7.487  0.0791 -0.0388  0.0482
 5188TIP3    H137199   1.249   1.539   7.574  1.2240 -0.2443 -0.4118
 5188TIP3    H237200   1.252   1.451   7.451  1.8891  1.6511 -1.8043
 5189TIP3   OH237201   4.141   0.375   0.681  0.0274 -0.8822 -0.0057
 5189TIP3    H137202   4.221   0.336   0.648  0.1933 -1.6169  1.2124
 5189TIP3    H237203   4.099   0.413   0.604  2.0032  0.3707 -0.5336
 5190TIP3   OH237204   1.624   1.394   0.014  0.2033 -0.0262  0.3367
 5190TIP3    H137205   1.703   1.349  -0.019 -0.2481  0.1390 -1.0068
 5190TIP3    H237206   1.565   1.322   0.040  0.6102 -0.1525  0.9548
 5191TIP3   OH237207   4.527   6.123   0.501  0.3262  0.0486 -0.8057
 5191TIP3    H137208   4.514   6.178   0.424 -0.3375  1.1379  0.0606
 5191TIP3    H237209   4.577   6.178   0.561  0.8806 -0.8067 -0.4567
 5192TIP3   OH237210   4.070   1.105   1.719  0.0981  0.2526  0.3993
 5192TIP3    H137211   4.144   1.164   1.736 -0.4919  1.5187 -1.1253
 5192TIP3    H237212   4.025   1.146   1.645 -2.5412 -0.0779  1.7355
 5193TIP3   OH237213   4.768   5.577   7.187 -0.0294 -0.1249 -0.6545
 5193TIP3    H137214   4.774   5.562   7.092 -2.2498  1.3514 -1.0867
 5193TIP3    H237215   4.820   5.656   7.202 -0.4697  0.1953 -0.8067
 5194TIP3   OH237216   2.470   1.099   6.669  0.3115  0.6629 -0.3259
 5194TIP3    H137217   2.505   1.070   6.753  0.3670  1.1946 -0.1564
 5194TIP3    H237218   2.540   1.082   6.607 -0.5574 -1.8750 -0.7090
 5195TIP3   OH237219   4.921   2.677   1.099  0.0673  0.4651 -0.4951
 5195TIP3    H137220   4.945   2.641   1.185 -1.0549  0.7423 -0.0561
 5195TIP3    H237221   4.937   2.771   1.108  1.3090  0.3277 -1.0688
 5196TIP3   OH237222   4.098   4.105   0.508 -0.2194 -0.2974  0.1085
 5196TIP3    H137223   4.105   4.038   0.575  0.1942 -1.4010 -0.9988
 5196TIP3    H237224   4.030   4.073   0.449 -1.4065  1.2195  0.5905
 5197TIP3   OH237225   5.887   0.772   6.935  0.2895  0.1873  0.0088
 5197TIP3    H137226   5.847   0.859   6.937 -0.9675 -0.3739  0.7599
 5197TIP3    H237227   5.822   0.717   6.893  0.2534 -0.7473  1.2256
 5198TIP3   OH237228   3.453   2.047   0.006 -0.6058  0.1563  0.1625
 5198TIP3    H137229   3.484   1.985   0.072 -0.1712 -0.0201 -0.2035
 5198TIP3    H237230   3.486   2.132   0.035 -2.6410  0.5424  1.6097
 5199TIP3   OH237231   0.803   3.280   2.112  0.6034 -0.2351 -0.0560
 5199TIP3    H137232   0.871   3.304   2.175 -0.6427  2.8384  0.2826
 5199TIP3    H237233   0.834   3.313   2.028  0.6075 -1.0262 -0.3754
 5200TIP3   OH237234   4.601   4.710   7.725 -0.0699 -0.6069 -0.5750
 5200TIP3    H137235   4.534   4.645   7.705 -0.3894 -0.3318 -0.4151
 5200TIP3    H237236   4.597   4.771   7.651 -1.6880  0.7641  0.5517
 5201TIP3   OH237237   5.270   1.104   0.596  0.6737 -0.3460  0.2387
 5201TIP3    H137238   5.306   1.049   0.527 -1.0119 -1.1508 -0.0340
 5201TIP3    H237239   5.283   1.194   0.565  0.3248 -0.6873 -0.9176
 5202TIP3   OH237240   1.541   6.787   1.449  0.2821  0.4970 -0.0166
 5202TIP3    H137241   1.494   6.813   1.370  0.0481 -0.4775 -0.1977
 5202TIP3    H237242   1.474   6.786   1.518 -0.2749 -2.1032 -0.5144
 5203TIP3   OH237243   4.173   6.302   8.037 -0.2291 -1.0784  0.0923
 5203TIP3    H137244   4.092   6.267   7.999 -0.4515  0.4629 -0.9293
 5203TIP3    H237245   4.143   6.349   8.115 -0.3150 -0.5566 -0.2537
 5204TIP3   OH237246   6.846   1.970   0.806 -0.2872 -0.0012 -0.5340
 5204TIP3    H137247   6.807   1.898   0.756 -2.5939  0.8340 -0.0665
 5204TIP3    H237248   6.908   1.927   0.865  0.7097 -1.2449 -2.4121
 5205TIP3   OH237249   2.752   1.604   0.908  0.5584  0.0913 -0.6276
 5205TIP3    H137250   2.731   1.556   0.828 -0.7953  2.6261 -1.9096
 5205TIP3    H237251   2.844   1.627   0.899  0.3211  0.6796 -1.6745
 5206TIP3   OH237252   5.558   2.362   0.098 -0.2238 -0.0250  0.4903
 5206TIP3    H137253   5.485   2.346   0.158  1.3585  0.9046  2.8036
 5206TIP3    H237254   5.541   2.448   0.061  0.2227  0.7230  1.9412
 5207TIP3   OH237255   6.210   1.506   6.593 -0.6427 -0.3050 -0.2496
 5207TIP3    H137256   6.260   1.440   6.545  2.3760  2.2723 -0.9319
 5207TIP3    H237257   6.191   1.465   6.677  1.6248 -1.8599 -0.4146
 5208TIP3   OH237258   5.627   6.677   0.935  0.1854 -0.5590 -0.1216
 5208TIP3    H137259   5.653   6.763   0.900  0.5335 -0.6306 -0.0421
 5208TIP3    H237260   5.676   6.614   0.882 -0.9988 -0.7729 -1.0085
 5209TIP3   OH237261   3.378   3.434   7.920  0.1727 -0.7578  0.3455
 5209TIP3    H137262   3.388   3.394   7.834 -2.1156 -0.1501 -0.2919
 5209TIP3    H237263   3.404   3.525   7.907  0.4169 -0.8140  0.4477
 5210TIP3   OH237264   1.981   6.572   0.195 -0.2903  0.4578  0.4149
 5210TIP3    H137265   2.041   6.549   0.124 -1.9297 -2.4325 -0.1796
 5210TIP3    H237266   1.894   6.557   0.158 -1.2024 -2.7261  3.3831
 5211TIP3   OH237267   2.645   3.652   7.457  0.5193 -0.2522  0.0009
 5211TIP3    H137268   2.652   3.704   7.537  0.4158  1.4394 -1.0483
 5211TIP3    H237269   2.560   3.609   7.464  0.6678 -0.4197  0.9556
 5212TIP3   OH237270   3.750   6.682   0.347 -0.6876  0.4917  0.7835
 5212TIP3    H137271   3.669   6.705   0.301 -1.6245  0.4831  2.3657
 5212TIP3    H237272   3.749   6.587   0.351 -0.6781  0.4984  0.9402
 5213TIP3   OH237273   3.561   4.562   1.611  0.5294  0.1865  0.6392
 5213TIP3    H137274   3.470   4.531   1.605  0.3975  0.7357 -0.6109
 5213TIP3    H237275   3.614   4.487   1.584  0.3914  0.1384  0.5000
 5214TIP3   OH237276   6.052   2.043   1.338 -0.5330  0.3218 -0.2888
 5214TIP3    H137277   5.991   2.078   1.274 -0.6955  1.3387  0.3955
 5214TIP3    H237278   6.112   2.115   1.356 -0.3076 -0.0404  0.4771
 5215TIP3   OH237279   2.250   2.737   7.405  0.3052  0.4695 -0.3497
 5215TIP3    H137280   2.339   2.766   7.425 -0.1418  1.2841  0.5770
 5215TIP3    H237281   2.200   2.819   7.399 -0.3407  0.0338 -1.1217
 5216TIP3   OH237282   3.976   5.099   8.118 -0.1387  1.0834  0.2653
 5216TIP3    H137283   3.987   5.191   8.094 -0.7119  0.7377 -1.3899
 5216TIP3    H237284   4.050   5.082   8.177 -0.6786  2.8962  1.5616
 5217TIP3   OH237285   2.271   6.242   6.393  0.2190  0.2303  0.4202
 5217TIP3    H137286   2.246   6.153   6.366 -0.9852  0.2995  1.2395
 5217TIP3    H237287   2.256   6.244   6.487 -0.3696  1.4802  0.3226
 5218TIP3   OH237288   2.459   6.152   8.514  0.0772  0.4713 -1.1463
 5218TIP3    H137289   2.551   6.127   8.529 -0.2259 -0.0151 -0.0151
 5218TIP3    H237290   2.409   6.088   8.564 -0.8862  0.8013 -1.6735
 5219TIP3   OH237291   0.398   5.050   0.941 -0.2610  0.1672 -0.4028
 5219TIP3    H137292   0.472   4.994   0.917 -0.4073 -0.7994  1.2380
 5219TIP3    H237293   0.351   5.065   0.859  0.3839 -1.2281 -1.0637
 5220TIP3   OH237294   6.894   4.497   0.045 -0.5841  0.1360 -0.1348
 5220TIP3    H137295   6.945   4.417   0.028 -1.0402 -0.1254 -0.2702
 5220TIP3    H237296   6.871   4.491   0.138 -2.5014 -0.9970 -0.6371
 5221TIP3   OH237297   1.741   0.882   6.976 -0.3547 -0.2389  0.7758
 5221TIP3    H137298   1.751   0.790   7.000 -1.5384 -1.0918 -1.6606
 5221TIP3    H237299   1.688   0.881   6.896  0.4074  2.5079  0.1098
 5222TIP3   OH237300   3.664   4.279   1.556  0.8145 -0.3755  0.4445
 5222TIP3    H137301   3.695   4.260   1.467  0.2841 -4.4752  0.9322
 5222TIP3    H237302   3.569   4.282   1.548  0.8222  2.3228  0.5068
 5223TIP3   OH237303   5.191   4.108   1.319  0.0742 -0.2382 -0.5575
 5223TIP3    H137304   5.156   4.021   1.299  1.1831 -0.9902  0.5525
 5223TIP3    H237305   5.279   4.090   1.352  0.7443  1.4111 -1.3637
 5224TIP3   OH237306   3.855   1.002   1.364  0.4374  0.1029 -0.1115
 5224TIP3    H137307   3.919   1.000   1.293 -0.7459 -0.8590 -1.1979
 5224TIP3    H237308   3.807   0.920   1.355 -1.8018  1.3494 -0.1442
 5225TIP3   OH237309   4.528   0.968   1.005  0.1756 -0.1121  0.4498
 5225TIP3    H137310   4.536   0.945   0.912  1.0459  0.3303  0.4020
 5225TIP3    H237311   4.440   1.005   1.013  0.2412  0.2337 -0.2933
 5226TIP3   OH237312   2.893   3.560   1.480  0.5837  0.6259 -0.1091
 5226TIP3    H137313   2.900   3.465   1.468  2.2328  0.9981 -2.9422
 5226TIP3    H237314   2.802   3.574   1.504  0.1946 -1.6233 -0.0238
 5227TIP3   OH237315   2.607   2.553   1.153 -0.0718 -0.0026 -0.2383
 5227TIP3    H137316   2.605   2.567   1.058 -0.4887  0.0559 -0.2239
 5227TIP3    H237317   2.571   2.465   1.165  1.4489 -0.6593 -0.2406
 5228TIP3   OH237318   2.511   5.657   0.979 -0.4859 -0.5215 -0.1149
 5228TIP3    H137319   2.569   5.709   0.923  1.2148 -2.1050  0.0668
 5228TIP3    H237320   2.423   5.677   0.948  0.2727  0.3859 -1.8200
 5229TIP3   OH237321   0.939   2.862   7.109  0.1863  0.0833 -0.1831
 5229TIP3    H137322   0.966   2.817   7.028 -1.6222 -0.9394 -0.2758
 5229TIP3    H237323   0.913   2.949   7.080 -4.4379 -1.4505 -1.6402
 5230TIP3   OH237324   5.825   2.254   7.279 -0.5280  0.3116 -0.0031
 5230TIP3    H137325   5.774   2.173   7.279 -0.6893  0.4028 -0.7427
 5230TIP3    H237326   5.892   2.239   7.212 -0.1122  0.5198  0.3650
 5231TIP3   OH237327   3.659   3.905   1.690 -0.1237  0.2308 -0.2008
 5231TIP3    H137328   3.703   3.831   1.648  1.8234  0.2605  1.6071
 5231TIP3    H237329   3.669   3.977   1.628  1.6642 -0.0026 -0.2350
 5232TIP3   OH237330   4.934   5.044   0.905  0.5294 -0.4927 -0.2333
 5232TIP3    H137331   4.899   4.962   0.939  2.0127 -0.8840  0.4074
 5232TIP3    H237332   4.879   5.112   0.944 -0.2194 -1.1276 -0.1549
 5233TIP3   OH237333   5.833   4.971   0.379 -0.0889 -0.3059 -0.4328
 5233TIP3    H137334   5.788   5.046   0.418  0.6101 -0.5394  0.8779
 5233TIP3    H237335   5.808   4.973   0.287 -1.2471  0.6776 -0.1168
 5234TIP3   OH237336   1.461   6.176   1.147  0.2001 -0.8387 -0.0001
 5234TIP3    H137337   1.382   6.185   1.094  0.4332 -0.9336 -0.3750
 5234TIP3    H237338   1.529   6.155   1.083  0.4936 -0.9213  0.3384
 5235TIP3   OH237339   6.670   0.690   8.320  0.3621  0.2446 -0.0261
 5235TIP3    H137340   6.633   0.688   8.232 -0.5230  0.3296  0.3318
 5235TIP3    H237341   6.664   0.600   8.352 -0.9641  0.5247  0.5914
 5236TIP3   OH237342   2.168   2.897   0.796 -0.1746  0.4397 -0.3467
 5236TIP3    H137343   2.259   2.903   0.767  0.3250  0.1469  1.1022
 5236TIP3    H237344   2.131   2.826   0.744 -0.1928  1.8514 -2.4084
 5237TIP3   OH237345   1.527   4.656   6.544  0.7185 -0.2214 -0.1554
 5237TIP3    H137346   1.565   4.715   6.478  1.1621 -1.7696 -1.3349
 5237TIP3    H237347   1.551   4.569   6.514 -2.4212 -1.2234 -0.0795
 5238TIP3   OH237348   1.892   0.455   1.882 -1.0475  0.3165 -0.3756
 5238TIP3    H137349   1.901   0.384   1.945 -1.5915 -0.0804 -0.7333
 5238TIP3    H237350   1.928   0.420   1.800  0.7821  1.2439 -0.0189
 5239TIP3   OH237351   5.929   2.552   2.037  0.2178 -0.3276  0.3445
 5239TIP3    H137352   5.902   2.469   1.998  0.9707 -0.1698 -0.5624
 5239TIP3    H237353   5.874   2.617   1.993 -2.0119 -0.4822  2.6675
 5240TIP3   OH237354   4.679   3.550   6.310 -0.1748  0.0957 -0.2036
 5240TIP3    H137355   4.661   3.461   6.341 -2.4027  0.4638 -0.2179
 5240TIP3    H237356   4.672   3.545   6.215 -2.5915  0.6251 -0.1275
 5241TIP3   OH237357   5.238   4.162   0.268  0.0742  0.4729  0.3739
 5241TIP3    H137358   5.303   4.210   0.319  0.7319  0.0879 -0.0747
 5241TIP3    H237359   5.288   4.093   0.224 -1.0191 -1.5196  2.0502
 5242TIP3   OH237360   1.340   5.298   7.558  0.2287  0.1773 -0.1006
 5242TIP3    H137361   1.426   5.259   7.573  0.6502  1.3149  0.5884
 5242TIP3    H237362   1.310   5.259   7.476  0.7850 -1.2613  0.3516
 5243TIP3   OH237363   5.885   5.877   8.249 -0.2279 -0.2971 -0.2498
 5243TIP3    H137364   5.897   5.949   8.187 -0.9491 -0.5152 -0.6575
 5243TIP3    H237365   5.868   5.920   8.333  1.0514 -0.0013 -0.1279
 5244TIP3   OH237366   4.256   2.842   0.733 -0.3598 -0.4786  0.4331
 5244TIP3    H137367   4.246   2.908   0.665 -0.7859 -0.0374  0.9174
 5244TIP3    H237368   4.310   2.773   0.692  0.3018  0.2779  0.0062
 5245TIP3   OH237369   1.713   1.597   7.730  0.1234  0.1668  0.6642
 5245TIP3    H137370   1.715   1.632   7.641  0.3413 -0.9867  0.1948
 5245TIP3    H237371   1.711   1.674   7.786  2.7598  1.0232 -0.2592
 5246TIP3   OH237372   4.921   5.300   1.576 -0.3613 -0.9598 -0.3794
 5246TIP3    H137373   5.013   5.281   1.558  0.0238 -0.0260  0.5312
 5246TIP3    H237374   4.901   5.250   1.656 -0.4798 -0.7085 -0.2504
 5247TIP3   OH237375   4.581   2.553   7.879 -0.4083 -0.0859 -0.1271
 5247TIP3    H137376   4.590   2.537   7.785 -0.0118 -0.4138 -0.0405
 5247TIP3    H237377   4.524   2.629   7.885  0.0468  0.3073 -0.6511
 5248TIP3   OH237378   0.100   3.149   7.612 -0.3742 -0.2489 -0.6361
 5248TIP3    H137379   0.106   3.245   7.615 -0.4882 -0.2511  1.9414
 5248TIP3    H237380   0.190   3.119   7.624 -0.3014 -0.5182 -1.6944
 5249TIP3   OH237381   1.478   2.337   1.686  0.1382  0.4378  0.4242
 5249TIP3    H137382   1.458   2.287   1.607  0.4783  2.9464 -1.3859
 5249TIP3    H237383   1.564   2.304   1.713 -0.1873 -0.7833  0.0615
 5250TIP3   OH237384   4.362   2.674   6.639 -0.0063 -0.1825 -0.6180
 5250TIP3    H137385   4.300   2.630   6.697 -1.2584 -0.0185 -1.7839
 5250TIP3    H237386   4.437   2.614   6.633 -0.8525 -1.2703 -0.6573
 5251TIP3   OH237387   1.039   4.669   2.658  0.1241  0.1368 -0.1632
 5251TIP3    H137388   1.004   4.601   2.601  0.4043  0.5125 -0.7959
 5251TIP3    H237389   1.046   4.628   2.744 -1.6196 -0.0367 -0.0661
 5252TIP3   OH237390   2.821   5.825   1.622  0.3783 -0.8287 -0.4077
 5252TIP3    H137391   2.884   5.754   1.613 -0.4132 -2.1759  3.0417
 5252TIP3    H237392   2.866   5.891   1.675 -0.5454 -1.1154  0.7771
 5253TIP3   OH237393   3.561   1.624   1.622 -0.6301  0.4324  0.5180
 5253TIP3    H137394   3.511   1.690   1.573  0.3348  0.6928 -0.1349
 5253TIP3    H237395   3.530   1.540   1.587  0.2322  0.6165 -0.7500
 5254TIP3   OH237396   2.810   2.601   0.854 -0.2062  0.1766  0.6120
 5254TIP3    H137397   2.824   2.592   0.760 -0.8296 -0.7976  0.6000
 5254TIP3    H237398   2.734   2.660   0.861 -0.0599  0.3764  0.5084
 5255TIP3   OH237399   2.357   2.268   8.396  0.5415 -0.3217  0.1913
 5255TIP3    H137400   2.322   2.259   8.484  0.6866 -1.4588  0.1514
 5255TIP3    H237401   2.398   2.183   8.378  1.7169  0.3644 -0.4530
 5256TIP3   OH237402   2.386   5.685   0.150  0.6716 -0.7098  0.4955
 5256TIP3    H137403   2.291   5.676   0.161  0.7596 -0.6006  1.4253
 5256TIP3    H237404   2.416   5.597   0.128  0.4257 -0.8823  0.8310
 5257TIP3   OH237405   0.556   3.985   2.214 -0.5610 -0.0818  0.2831
 5257TIP3    H137406   0.604   4.061   2.182 -1.3323  0.5708  0.6348
 5257TIP3    H237407   0.623   3.918   2.227  0.0323  0.3024 -0.7221
 5258TIP3   OH237408   3.549   1.033   1.151  0.0399 -0.6250  0.3572
 5258TIP3    H137409   3.612   1.101   1.174 -0.2464 -0.3075  0.2102
 5258TIP3    H237410   3.588   0.987   1.077  0.5864 -1.1179  0.9370
 5259TIP3   OH237411   6.159   3.081   6.611  0.0018 -0.2497  0.0897
 5259TIP3    H137412   6.251   3.057   6.621  0.1131  0.5612  1.1196
 5259TIP3    H237413   6.160   3.176   6.598 -0.7369 -0.1026  1.0264
 5260TIP3   OH237414   0.870   4.772   7.591 -0.1945  0.3206  0.2090
 5260TIP3    H137415   0.860   4.853   7.641 -0.4699  0.8179 -0.6246
 5260TIP3    H237416   0.817   4.786   7.512  0.4924 -0.3079 -0.3825
 5261TIP3   OH237417   5.084   1.326   2.636 -0.4006 -0.0195 -0.7568
 5261TIP3    H137418   5.073   1.244   2.589  1.6716  0.1329 -1.6255
 5261TIP3    H237419   5.155   1.310   2.698  0.6922  1.3162 -1.5844
 5262TIP3   OH237420   1.402   4.731   1.611 -0.4026 -0.3215 -0.2046
 5262TIP3    H137421   1.488   4.709   1.577 -0.1445 -0.1588  0.3274
 5262TIP3    H237422   1.349   4.652   1.596  0.0178 -0.6556  0.0440
 5263TIP3   OH237423   2.564   3.158   0.280  0.3200 -0.2106  0.3348
 5263TIP3    H137424   2.616   3.191   0.207 -0.8795  1.0337 -0.0078
 5263TIP3    H237425   2.549   3.235   0.335 -0.2614 -0.7686  0.9783
 5264TIP3   OH237426   3.756   0.038   8.423  0.1824  0.4859 -0.0577
 5264TIP3    H137427   3.766  -0.027   8.354 -2.5497  1.7437 -1.7825
 5264TIP3    H237428   3.777   0.121   8.381 -0.3012  1.1465  0.9742
 5265TIP3   OH237429   6.517   1.198   8.187 -0.8276  0.1159  0.5816
 5265TIP3    H137430   6.587   1.256   8.217 -0.7927  0.2534  0.2441
 5265TIP3    H237431   6.552   1.110   8.196 -0.1481  0.2238 -0.7032
 5266TIP3   OH237432   5.764   4.608   8.508  0.2517  0.0938 -0.3537
 5266TIP3    H137433   5.721   4.687   8.476 -0.0108  0.7836  1.5782
 5266TIP3    H237434   5.808   4.572   8.431 -0.4601  1.5460 -1.4989
 5267TIP3   OH237435   5.039   5.308   0.988 -0.4762  0.5795  0.6618
 5267TIP3    H137436   4.947   5.316   1.015 -0.9193  1.0650 -0.8895
 5267TIP3    H237437   5.035   5.267   0.902  0.8851 -0.9787  1.2731
 5268TIP3   OH237438   1.717   0.629   7.115 -0.4919  0.6142  0.3915
 5268TIP3    H137439   1.632   0.644   7.157 -1.1167  0.7562 -0.8680
 5268TIP3    H237440   1.695   0.581   7.035  0.7489 -0.4494  0.6632
 5269TIP3   OH237441   5.468   6.422   0.625 -0.3540  0.4624  0.2604
 5269TIP3    H137442   5.494   6.415   0.533 -0.5133  0.3064  0.2278
 5269TIP3    H237443   5.409   6.348   0.639 -0.5601  0.6538  0.4089
 5270TIP3   OH237444   5.238   4.922   2.451 -0.5019  0.1502 -0.2447
 5270TIP3    H137445   5.212   4.879   2.370  1.9843 -1.4468 -0.3153
 5270TIP3    H237446   5.289   4.998   2.424 -1.4550  0.8518 -0.1274
 5271TIP3   OH237447   2.971   2.356   0.449 -0.4031 -0.5449  0.5925
 5271TIP3    H137448   2.954   2.371   0.356 -2.6723 -0.2428  0.9973
 5271TIP3    H237449   2.884   2.346   0.488  0.3485  1.2788  2.9991
 5272TIP3   OH237450   2.010   1.821   7.871 -0.2054  0.2896 -0.0880
 5272TIP3    H137451   2.015   1.898   7.815 -0.4591  0.8748  0.6769
 5272TIP3    H237452   2.048   1.849   7.954 -0.2819 -0.4138  0.1910
 5273TIP3   OH237453   3.013   5.075   1.430 -0.2553 -0.3080 -0.1376
 5273TIP3    H137454   3.104   5.051   1.448 -0.7314 -1.0746  1.4671
 5273TIP3    H237455   2.972   4.993   1.403 -1.0397 -0.5717  1.7131
 5274TIP3   OH237456   4.254   4.540   1.906 -0.0515 -0.3510 -0.0266
 5274TIP3    H137457   4.185   4.502   1.851  1.1160 -1.0228 -1.0731
 5274TIP3    H237458   4.208   4.567   1.986 -1.7702  0.4244 -1.1989
 5275TIP3   OH237459   1.094   2.783   7.748 -0.3753  0.2021  0.1337
 5275TIP3    H137460   1.161   2.731   7.793 -1.1805 -0.5543  0.4844
 5275TIP3    H237461   1.013   2.734   7.761 -0.9983  1.0915 -0.3091
 5276TIP3   OH237462   6.236   5.274   8.393 -0.2894 -0.0727 -0.0301
 5276TIP3    H137463   6.222   5.366   8.372  2.3392  0.5071  0.3353
 5276TIP3    H237464   6.328   5.270   8.418 -0.2851 -2.8620 -0.2392
 5277TIP3   OH237465   1.487   3.164   1.939 -0.1264 -0.1310  1.0959
 5277TIP3    H137466   1.401   3.203   1.951  0.2188  0.5274  1.5293
 5277TIP3    H237467   1.470   3.073   1.916 -0.9588  0.3796 -0.3950
 5278TIP3   OH237468   5.952   0.998   1.685  0.2768  0.3969  0.1127
 5278TIP3    H137469   5.905   1.061   1.631  0.8309  1.2875  0.6324
 5278TIP3    H237470   6.036   0.985   1.640  0.2838  0.2686  0.1629
 5279TIP3   OH237471   1.157   2.773   0.862 -0.1477  0.1099 -0.4592
 5279TIP3    H137472   1.101   2.699   0.886  0.5849 -1.1121 -2.2889
 5279TIP3    H237473   1.224   2.776   0.930 -0.9160 -0.0541  0.3318
 5280TIP3   OH237474   6.737   6.500   8.456 -0.0114  0.1232 -0.1321
 5280TIP3    H137475   6.662   6.450   8.423 -1.6773  1.8146  0.9010
 5280TIP3    H237476   6.728   6.496   8.551 -0.6692  2.9321 -0.0072
 5281TIP3   OH237477   3.033   4.838   7.955  0.6853  0.0009  0.0897
 5281TIP3    H137478   3.067   4.855   7.868  1.9448  0.2123  0.6037
 5281TIP3    H237479   2.952   4.788   7.940  0.9607 -0.0953 -1.1801
 5282TIP3   OH237480   0.023   1.570   7.245 -0.3999 -0.1624  0.1453
 5282TIP3    H137481  -0.068   1.593   7.266 -0.3652 -0.8559  1.1641
 5282TIP3    H237482   0.021   1.476   7.228 -0.0753  0.0457 -1.1329
 5283TIP3   OH237483   2.907   0.775   7.294  0.2471  0.0105  0.0909
 5283TIP3    H137484   2.855   0.848   7.327  0.8008  1.8633 -2.7817
 5283TIP3    H237485   2.981   0.769   7.355 -0.6919  0.7128  1.3324
 5284TIP3   OH237486   6.147   0.943   7.640  0.2214 -0.0861 -0.1145
 5284TIP3    H137487   6.151   0.974   7.730  0.5621  0.0686 -0.1805
 5284TIP3    H237488   6.142   0.848   7.646 -1.7902  0.0007  0.1227
 5285TIP3   OH237489   5.531   0.598   0.545  0.0618  0.1756  0.6186
 5285TIP3    H137490   5.568   0.510   0.536 -0.8405 -0.1285 -0.3157
 5285TIP3    H237491   5.465   0.591   0.613 -2.0801 -0.6292 -1.4089
 5286TIP3   OH237492   1.710   4.730   0.352 -0.3505 -0.1012 -0.0917
 5286TIP3    H137493   1.661   4.713   0.433  0.2466 -0.5225  0.1950
 5286TIP3    H237494   1.684   4.659   0.293  1.2640 -1.4392  0.7026
 5287TIP3   OH237495   0.588   0.378   1.168  0.5025  0.3313 -1.1968
 5287TIP3    H137496   0.552   0.307   1.115  0.6832 -1.2421  0.6793
 5287TIP3    H237497   0.511   0.426   1.199  0.2360 -0.3231 -0.8161
 5288TIP3   OH237498   3.971   4.337   8.139 -0.2277  0.2150 -0.5235
 5288TIP3    H137499   3.930   4.251   8.139  0.5098 -0.1602  0.6409
 5288TIP3    H237500   4.037   4.332   8.071 -1.8584  0.7420 -2.2421
 5289TIP3   OH237501   1.539   1.511   2.089 -0.4518  0.4654 -0.0838
 5289TIP3    H137502   1.579   1.533   2.004  3.1041 -0.4473  1.1641
 5289TIP3    H237503   1.571   1.422   2.107 -0.9949  0.7028  2.2701
 5290TIP3   OH237504   6.455   3.367   7.416 -0.1955 -0.2301 -0.2028
 5290TIP3    H137505   6.362   3.378   7.398  0.3706  2.2666 -2.2410
 5290TIP3    H237506   6.488   3.316   7.342  0.1461 -0.7082  0.2688
 5291TIP3   OH237507   3.721   0.111   2.143 -0.3373  0.2375  0.0554
 5291TIP3    H137508   3.625   0.102   2.142 -0.2604 -2.0141  2.1793
 5291TIP3    H237509   3.737   0.184   2.203 -0.6732  0.9919 -0.7348
 5292TIP3   OH237510   0.571   6.358   0.758  0.5020  0.7800 -0.2010
 5292TIP3    H137511   0.528   6.436   0.725 -1.6947 -0.7165 -1.1351
 5292TIP3    H237512   0.587   6.304   0.679  0.2026 -0.5247  0.5950
 5293TIP3   OH237513   2.140   1.676   6.952 -0.0381 -0.3980  0.3848
 5293TIP3    H137514   2.082   1.718   7.015 -0.2117  0.6128 -0.4328
 5293TIP3    H237515   2.185   1.748   6.909  1.3663 -1.1362  0.5495
 5294TIP3   OH237516   2.523   4.524   8.210  0.3741 -0.2944  0.0548
 5294TIP3    H137517   2.581   4.497   8.139  0.8834 -1.3124  0.8333
 5294TIP3    H237518   2.448   4.464   8.204 -0.6886  1.0792 -1.0100
 5295TIP3   OH237519   6.490   1.243   0.730 -0.0955 -0.0260 -0.2142
 5295TIP3    H137520   6.501   1.271   0.639  0.7462  0.6813  0.0916
 5295TIP3    H237521   6.541   1.162   0.736  0.0308  0.0449 -0.3231
 5296TIP3   OH237522   0.837   4.259   1.577 -0.2069 -0.2246  0.0354
 5296TIP3    H137523   0.781   4.319   1.626 -0.7153  2.0647 -3.0753
 5296TIP3    H237524   0.926   4.292   1.590 -0.4026  0.7601 -0.9999
 5297TIP3   OH237525   4.034   6.507   7.111  0.4007 -0.2564 -1.1326
 5297TIP3    H137526   3.979   6.585   7.096  1.2973  0.1500 -2.4701
 5297TIP3    H237527   4.053   6.474   7.024  0.3446 -1.7866 -0.5904
 5298TIP3   OH237528   1.508   6.406   0.132 -0.0009 -0.1779 -0.1412
 5298TIP3    H137529   1.499   6.438   0.222  2.4197 -0.8392  0.3937
 5298TIP3    H237530   1.572   6.465   0.091  0.9168 -1.4336 -0.5955
 5299TIP3   OH237531   0.052   4.229   8.540  0.3912  0.2853  0.1476
 5299TIP3    H137532   0.010   4.172   8.603  0.9226  0.9066  1.0920
 5299TIP3    H237533   0.002   4.218   8.459 -1.1463  0.4796  1.0393
 5300TIP3   OH237534   1.302   4.155   0.029  0.2564 -0.1467 -0.4453
 5300TIP3    H137535   1.327   4.237   0.071 -0.0318 -0.8052  1.0506
 5300TIP3    H237536   1.382   4.124  -0.014  0.7289  0.2116  0.1745
 5301TIP3   OH237537   0.168   0.629   0.464  0.0874 -0.2825  0.1626
 5301TIP3    H137538   0.128   0.575   0.395  0.0838 -0.9337  0.6630
 5301TIP3    H237539   0.197   0.708   0.419 -2.0098  0.3581 -0.1907
 5302TIP3   OH237540   3.310   1.261   0.754  1.3251 -0.5060 -0.0722
 5302TIP3    H137541   3.395   1.237   0.717  0.8305 -1.9166 -0.3570
 5302TIP3    H237542   3.312   1.226   0.843  1.4173  0.3607  0.2774
 5303TIP3   OH237543   3.790   5.319   6.889  0.7750 -0.0221 -0.1275
 5303TIP3    H137544   3.708   5.327   6.840  0.9303  1.3937 -0.2200
 5303TIP3    H237545   3.822   5.231   6.869 -0.3369 -0.3181 -0.6933
 5304TIP3   OH237546   1.053   0.376   0.239  0.3726 -0.1386  0.5196
 5304TIP3    H137547   1.086   0.466   0.236 -1.8567  0.7665  1.3590
 5304TIP3    H237548   1.042   0.351   0.147  1.5007  0.2081  0.2658
 5305TIP3   OH237549   0.944   6.925   0.837  0.3275  0.3409  0.2055
 5305TIP3    H137550   1.022   6.981   0.834  0.9539 -0.3521  1.9539
 5305TIP3    H237551   0.927   6.914   0.931 -1.6313  0.1079 -0.1377
 5306TIP3   OH237552   0.188   3.416   0.059  0.0668  0.1312 -0.6138
 5306TIP3    H137553   0.101   3.455   0.053  0.6391  1.3620 -1.3303
 5306TIP3    H237554   0.177   3.342   0.117 -1.0188  1.5873  1.1520
 5307TIP3   OH237555   2.592   1.286   8.557 -0.0395  0.8590  0.6303
 5307TIP3    H137556   2.593   1.284   8.653  0.0577  1.1291  0.6346
 5307TIP3    H237557   2.673   1.331   8.533 -0.7317  2.0375  0.4537
 5308TIP3   OH237558   5.962   3.941   8.045  0.5195  0.2879 -0.0332
 5308TIP3    H137559   5.966   4.031   8.012  1.3491  0.7057  1.1537
 5308TIP3    H237560   6.016   3.942   8.124 -1.0492 -0.7583  1.1274
 5309TIP3   OH237561   0.897   2.818   8.552 -0.2145  0.2047  0.6634
 5309TIP3    H137562   0.886   2.783   8.640 -0.0550 -1.9601 -0.1295
 5309TIP3    H237563   0.939   2.748   8.503 -1.4863  0.8479 -1.4828
 5310TIP3   OH237564   4.038   2.523   2.108  0.3469 -0.0110 -0.2345
 5310TIP3    H137565   3.958   2.564   2.140  0.2774  0.9094 -1.4884
 5310TIP3    H237566   4.108   2.582   2.138  0.6163 -0.9770  1.1275
 5311TIP3   OH237567   3.982   0.533   6.888 -0.4501  0.2589 -0.7607
 5311TIP3    H137568   3.954   0.442   6.893  1.5824 -0.3755  3.1795
 5311TIP3    H237569   3.901   0.584   6.901 -1.2040 -1.1117  0.1331
 5312TIP3   OH237570   3.787   3.210   7.730  0.2542 -1.1050 -0.1349
 5312TIP3    H137571   3.807   3.122   7.760 -0.3363 -1.5409 -0.9882
 5312TIP3    H237572   3.873   3.252   7.721  0.6942 -2.2648 -1.7065
 5313TIP3   OH237573   0.216   6.286   0.661 -0.2663  0.5079  0.3839
 5313TIP3    H137574   0.144   6.240   0.620 -0.6733 -0.0966  1.7230
 5313TIP3    H237575   0.275   6.217   0.692 -0.0258  0.9293  0.8926
 5314TIP3   OH237576   5.381   5.747   6.993 -0.3719  0.6744  0.0459
 5314TIP3    H137577   5.353   5.790   7.074 -1.3038 -0.0885  0.1519
 5314TIP3    H237578   5.406   5.819   6.935 -2.4232  1.4500  0.0164
 5315TIP3   OH237579   4.840   4.014   1.791 -0.7326  0.1857 -0.0968
 5315TIP3    H137580   4.767   3.965   1.828 -1.6726  0.5095 -1.4380
 5315TIP3    H237581   4.917   3.959   1.809 -1.2175  0.0449  1.6977
 5316TIP3   OH237582   5.829   1.483   7.963  0.0470  0.1469  0.6849
 5316TIP3    H137583   5.790   1.403   7.928 -0.1923  0.4420  0.2711
 5316TIP3    H237584   5.889   1.452   8.031 -1.0290 -0.2934  1.4621
 5317TIP3   OH237585   3.566   3.951   2.323 -0.0285 -0.4730 -0.2437
 5317TIP3    H137586   3.503   3.942   2.251  0.8136  0.4277 -1.1178
 5317TIP3    H237587   3.554   3.872   2.376  0.8787 -2.2933 -2.6008
 5318TIP3   OH237588   4.914   6.854   8.234  0.0422  0.1583 -0.7246
 5318TIP3    H137589   4.822   6.830   8.224 -0.2541  0.0104  1.6649
 5318TIP3    H237590   4.938   6.896   8.151 -1.1022 -2.9666 -2.7810
 5319TIP3   OH237591   2.103   0.288   8.374  0.3670  0.4220  0.2810
 5319TIP3    H137592   2.174   0.226   8.356  0.7898  1.2775 -1.1540
 5319TIP3    H237593   2.046   0.283   8.297  0.3515  1.7108  0.1797
 5320TIP3   OH237594   2.391   1.178   0.456  0.6440 -0.3267 -0.4827
 5320TIP3    H137595   2.313   1.127   0.476  0.9608 -1.1926 -1.4221
 5320TIP3    H237596   2.464   1.125   0.488  0.8952  0.2607 -0.0458
 5321TIP3   OH237597   5.189   5.920   7.834 -0.5404  0.2490  0.1127
 5321TIP3    H137598   5.137   5.961   7.765 -1.9414  1.6669  1.9193
 5321TIP3    H237599   5.247   5.989   7.864  0.3827 -0.4943  0.0819
 5322TIP3   OH237600   0.404   5.068   7.877  0.9192 -0.1118 -0.3637
 5322TIP3    H137601   0.351   5.050   7.799 -0.2899 -1.2710  0.6799
 5322TIP3    H237602   0.339   5.083   7.947  1.9757  0.1432  0.5913
 5323TIP3   OH237603   3.790   0.857   8.381 -0.0592  0.1065  0.2992
 5323TIP3    H137604   3.849   0.931   8.390 -0.9489  0.9821 -0.7542
 5323TIP3    H237605   3.702   0.895   8.391 -0.6184 -0.4973 -1.8398
 5324TIP3   OH237606   4.489   4.295   1.289 -0.2824  0.4520 -0.1684
 5324TIP3    H137607   4.502   4.290   1.194  1.1629 -0.3180  0.0344
 5324TIP3    H237608   4.396   4.313   1.300 -0.6426 -0.3006 -1.7221
 5325TIP3   OH237609   2.600   2.639   0.146  0.4530 -0.3351  0.4077
 5325TIP3    H137610   2.515   2.643   0.188  0.2819  1.2503 -0.0485
 5325TIP3    H237611   2.580   2.640   0.052  0.9767  2.7393  0.2251
 5326TIP3   OH237612   2.434   6.912   6.934  0.1240 -0.6230  0.6146
 5326TIP3    H137613   2.377   6.873   6.868 -0.6378 -0.3928  1.1251
 5326TIP3    H237614   2.391   6.993   6.959  1.2958  0.1861  0.1373
 5327TIP3   OH237615   0.583   1.525   6.750  0.0146 -0.3508 -0.0716
 5327TIP3    H137616   0.562   1.610   6.711 -0.7878  0.1754  1.4407
 5327TIP3    H237617   0.509   1.469   6.727 -0.4407 -0.0513  0.6475
 5328TIP3   OH237618   6.013   4.332   7.101  0.3976 -0.6937  0.3779
 5328TIP3    H137619   6.062   4.404   7.061  0.1618 -0.7827 -0.0775
 5328TIP3    H237620   6.057   4.253   7.070 -0.3566 -0.7937 -0.4890
 5329TIP3   OH237621   3.076   0.085   7.721 -0.2504 -0.7037  0.7050
 5329TIP3    H137622   2.988   0.083   7.760 -0.1620 -1.7509  0.8990
 5329TIP3    H237623   3.086   0.174   7.687 -1.5467 -0.6848  0.3125
 5330TIP3   OH237624   6.810   6.021   8.084 -0.3538 -0.2948  0.2266
 5330TIP3    H137625   6.866   5.980   8.018 -1.0550 -0.3043 -0.3771
 5330TIP3    H237626   6.816   5.963   8.160  1.6269  0.4862  0.7277
 5331TIP3   OH237627   5.901   5.111   7.585 -0.0425  0.2844  0.3399
 5331TIP3    H137628   5.995   5.122   7.571 -0.2567  0.3490 -1.1474
 5331TIP3    H237629   5.861   5.132   7.501 -1.3688 -0.1127  0.8443
 5332TIP3   OH237630   1.247   3.117   0.936  0.2614  0.0016 -0.0115
 5332TIP3    H137631   1.210   3.071   1.010 -0.4454  1.2013  0.4043
 5332TIP3    H237632   1.325   3.066   0.912 -0.0097 -0.8910  0.9689
 5333TIP3   OH237633   3.112   2.007   0.715  0.4788 -0.2252  0.0684
 5333TIP3    H137634   3.191   2.053   0.744  0.5599 -0.5101  0.3031
 5333TIP3    H237635   3.079   2.061   0.643  1.3907 -0.5730 -0.6439
 5334TIP3   OH237636   2.730   3.359   6.864  0.0049 -1.0889  0.0594
 5334TIP3    H137637   2.695   3.288   6.918 -0.5300 -0.3399  0.7192
 5334TIP3    H237638   2.671   3.433   6.879  0.6442 -0.4467 -0.4799
 5335TIP3   OH237639   3.659   5.132   1.446 -0.1332  0.2322 -0.1237
 5335TIP3    H137640   3.600   5.057   1.450 -0.1101  0.2227  0.0842
 5335TIP3    H237641   3.742   5.099   1.482 -0.4022  0.6121  0.8935
 5336TIP3   OH237642   6.304   4.580   8.199  0.6983  0.4138 -0.0014
 5336TIP3    H137643   6.330   4.662   8.156 -1.6848  1.4145  0.3103
 5336TIP3    H237644   6.244   4.607   8.268  0.4794 -1.5662  0.6450
 5337TIP3   OH237645   3.130   1.113   6.607 -0.1494 -0.1859 -0.0166
 5337TIP3    H137646   3.121   1.206   6.625 -0.6755 -0.1344 -0.5278
 5337TIP3    H237647   3.196   1.083   6.670  0.8888  0.7496 -0.6314
 5338TIP3   OH237648   3.746   3.408   1.382  0.5053  0.1064  0.2094
 5338TIP3    H137649   3.769   3.355   1.306  0.5171 -0.2562  0.4648
 5338TIP3    H237650   3.766   3.352   1.458 -0.8367 -0.0684  0.4568
 5339TIP3   OH237651   1.915   4.009   1.988  0.7522  0.6329 -0.0482
 5339TIP3    H137652   1.919   3.915   1.967 -1.0176  0.4278  0.3405
 5339TIP3    H237653   1.999   4.028   2.030  1.3288 -0.6649 -0.5507
 5340TIP3   OH237654   3.161   1.266   1.814 -0.3448  0.1220  0.6524
 5340TIP3    H137655   3.152   1.288   1.907  1.3709  0.2121  0.8341
 5340TIP3    H237656   3.184   1.173   1.814 -0.4141  0.1063  0.3107
 5341TIP3   OH237657   3.698   3.489   7.385 -0.4787  0.3344 -0.2973
 5341TIP3    H137658   3.638   3.511   7.314  1.0699  1.4642 -1.3223
 5341TIP3    H237659   3.648   3.429   7.441 -2.2731  0.6345 -1.4891
 5342TIP3   OH237660   6.546   6.129   1.428  0.2223  0.2152  0.0825
 5342TIP3    H137661   6.489   6.205   1.415 -0.0988 -0.1820 -0.8686
 5342TIP3    H237662   6.617   6.163   1.483 -0.7656  0.7849  1.0655
 5343TIP3   OH237663   1.385   2.777   1.052  0.3183 -0.8584  0.1046
 5343TIP3    H137664   1.451   2.843   1.074  1.0498 -1.3805 -0.4926
 5343TIP3    H237665   1.412   2.699   1.100 -0.4575 -0.7784  0.6848
 5344TIP3   OH237666   3.858   0.837   8.108 -0.1895 -0.4487 -0.1759
 5344TIP3    H137667   3.782   0.800   8.064 -1.5453  0.6198  1.1642
 5344TIP3    H237668   3.822   0.883   8.184  1.6833  1.0129 -0.0938
 5345TIP3   OH237669   6.285   1.514   8.511  0.8290 -0.2793  0.3413
 5345TIP3    H137670   6.300   1.419   8.512  1.8095 -0.1902  3.1026
 5345TIP3    H237671   6.215   1.528   8.575  1.4945  0.9575  0.8337
 5346TIP3   OH237672   5.861   1.291   8.267 -0.0618  0.0774  0.8535
 5346TIP3    H137673   5.808   1.370   8.275  0.6811  0.6116  0.6360
 5346TIP3    H237674   5.833   1.236   8.340  0.0055  0.9057  1.5257
 5347TIP3   OH237675   3.699   1.224   6.800  0.2130 -0.3679 -0.3382
 5347TIP3    H137676   3.670   1.139   6.833  0.6294  0.6866  3.2273
 5347TIP3    H237677   3.623   1.282   6.810 -0.0046 -0.1767 -2.5287
 5348TIP3   OH237678   0.077   0.733   6.781 -0.0689 -0.0273 -0.5711
 5348TIP3    H137679   0.129   0.654   6.793  1.5784  1.1701  0.5508
 5348TIP3    H237680   0.136   0.796   6.740 -1.8106  0.1966 -2.9646
 5349TIP3   OH237681   5.315   6.320   1.840  0.0398  0.4686 -0.3233
 5349TIP3    H137682   5.279   6.409   1.845 -0.1218  0.4242 -0.6301
 5349TIP3    H237683   5.310   6.298   1.747  0.9129  0.4744 -0.3735
 5350TIP3   OH237684   6.855   0.552   7.462 -0.1607  0.4339  0.2102
 5350TIP3    H137685   6.809   0.468   7.463 -1.3838  1.0487 -1.3517
 5350TIP3    H237686   6.786   0.617   7.466  0.7374  1.3952  0.5666
 5351TIP3   OH237687   2.545   5.210   1.234  0.1968  0.0519  0.1146
 5351TIP3    H137688   2.619   5.219   1.293 -0.4500  0.0207  0.9590
 5351TIP3    H237689   2.510   5.299   1.226  0.4456  0.1031 -0.4523
 5352TIP3   OH237690   5.855   2.749   6.991 -0.0196 -0.7936  0.4281
 5352TIP3    H137691   5.777   2.696   7.007 -0.1848 -1.1018 -1.2247
 5352TIP3    H237692   5.916   2.689   6.949  0.5882 -0.1892  0.4354
 5353TIP3   OH237693   0.309   1.657   0.846 -0.3169  0.4163 -0.7531
 5353TIP3    H137694   0.222   1.626   0.872 -0.3697 -2.0330 -3.3477
 5353TIP3    H237695   0.355   1.673   0.929 -2.2202 -1.3289  0.7353
 5354TIP3   OH237696   3.911   6.388   0.318  0.2493 -0.6731  0.0890
 5354TIP3    H137697   3.993   6.433   0.339  0.1916 -0.8731  0.7646
 5354TIP3    H237698   3.899   6.326   0.390 -1.9237  1.2361  1.4777
 5355TIP3   OH237699   5.894   2.625   0.822 -0.3769 -0.4236  0.6655
 5355TIP3    H137700   5.874   2.702   0.770  0.1313  1.3371  2.9199
 5355TIP3    H237701   5.940   2.566   0.761  0.3514  1.5655 -0.8223
 5356TIP3   OH237702   0.641   0.785   7.280 -0.0791 -0.0705  0.1479
 5356TIP3    H137703   0.589   0.802   7.201  0.5632 -0.7532 -0.4344
 5356TIP3    H237704   0.694   0.709   7.257  0.8560  0.3474  0.8925
 5357TIP3   OH237705   6.444   3.250   0.978  0.0661  0.3804  0.1040
 5357TIP3    H137706   6.393   3.280   0.903  1.2748  2.4411  0.0254
 5357TIP3    H237707   6.449   3.326   1.036  1.3970 -0.3415  0.9927
 5358TIP3   OH237708   3.539   4.628   1.331 -0.1029  0.4091 -0.3879
 5358TIP3    H137709   3.445   4.643   1.328 -0.2087 -0.3756 -1.5347
 5358TIP3    H237710   3.553   4.577   1.411 -0.6930  0.2296 -0.3951
 5359TIP3   OH237711   3.590   2.253   7.265 -0.0390  0.2707  0.1165
 5359TIP3    H137712   3.561   2.241   7.175  1.8922 -0.7681 -0.4075
 5359TIP3    H237713   3.680   2.285   7.258  0.7955 -1.5482  1.6439
 5360TIP3   OH237714   0.152   0.098   0.426  0.3045  0.2830  0.4010
 5360TIP3    H137715   0.214   0.167   0.450 -0.3466  1.3253 -0.7984
 5360TIP3    H237716   0.070   0.126   0.467  0.8142 -1.7373  3.0727
 5361TIP3   OH237717   6.654   4.909   6.533 -0.5136 -0.1755  0.1585
 5361TIP3    H137718   6.668   4.863   6.450 -0.3824  2.2114 -1.2369
 5361TIP3    H237719   6.661   5.002   6.510 -2.0018  0.6167  2.5828
 5362TIP3   OH237720   3.774   4.196   2.494  0.5151 -0.2295  0.4836
 5362TIP3    H137721   3.683   4.224   2.494  0.9121  1.6067  3.9739
 5362TIP3    H237722   3.773   4.109   2.534  0.2509 -0.5795 -0.2693
 5363TIP3   OH237723   3.699   0.755   0.671  0.1598  0.0568  0.5313
 5363TIP3    H137724   3.633   0.758   0.602 -0.9281 -1.3228  1.4541
 5363TIP3    H237725   3.680   0.832   0.725 -0.6693 -0.3044  0.7621
 5364TIP3   OH237726   5.538   3.977   1.071 -0.2218 -0.1088  0.2032
 5364TIP3    H137727   5.524   4.071   1.058  1.4345  0.2430  0.6852
 5364TIP3    H237728   5.633   3.966   1.061 -0.3994 -1.7451  0.1074
 5365TIP3   OH237729   0.970   2.243   8.415 -0.1691 -0.0529 -0.2425
 5365TIP3    H137730   1.029   2.302   8.462  0.2940 -0.2323 -0.5868
 5365TIP3    H237731   0.954   2.171   8.477  0.7495 -0.4840 -0.4842
 5366TIP3   OH237732   2.839   6.777   6.718 -0.4379  0.2320  0.2768
 5366TIP3    H137733   2.796   6.758   6.635  0.6922  1.3603 -0.6131
 5366TIP3    H237734   2.933   6.766   6.700 -0.0905  1.6583  1.0324
 5367TIP3   OH237735   5.590   3.649   1.476  0.2384  0.7180 -0.1397
 5367TIP3    H137736   5.681   3.671   1.498 -0.2349  0.2742  2.7424
 5367TIP3    H237737   5.538   3.693   1.544 -1.3121 -2.5218  1.0003
 5368TIP3   OH237738   3.170   1.850   0.997 -0.3764 -0.1011  0.2470
 5368TIP3    H137739   3.179   1.857   1.092  0.4364  2.1118  0.0734
 5368TIP3    H237740   3.259   1.864   0.964 -0.9690  1.2524 -0.8869
 5369TIP3   OH237741   1.120   0.512   7.191  0.5773 -0.1830 -1.0682
 5369TIP3    H137742   1.198   0.476   7.148  0.1737 -0.3301 -1.6993
 5369TIP3    H237743   1.048   0.458   7.158 -0.1741  1.7193 -2.7423
 5370TIP3   OH237744   6.555   2.060   0.127  0.1118  0.3846 -0.9024
 5370TIP3    H137745   6.610   2.129   0.090 -0.8122  0.7641 -1.6209
 5370TIP3    H237746   6.575   2.060   0.221  2.2376 -0.3407 -1.3048
 5371TIP3   OH237747   4.724   3.801   7.655  0.1371 -0.0618 -0.0227
 5371TIP3    H137748   4.661   3.729   7.649  0.0605  0.0796 -1.2079
 5371TIP3    H237749   4.804   3.760   7.688 -0.3183 -0.4073  0.6714
 5372TIP3   OH237750   5.706   4.334   1.841  0.3315  0.0123 -0.2803
 5372TIP3    H137751   5.776   4.309   1.781 -0.6896 -0.3767 -1.3727
 5372TIP3    H237752   5.630   4.348   1.783 -0.3580  0.9220  0.8050
 5373TIP3   OH237753   4.405   1.236   1.466 -0.0889 -0.3507  0.1918
 5373TIP3    H137754   4.482   1.201   1.511  2.1370  1.7834 -1.6746
 5373TIP3    H237755   4.404   1.329   1.489  0.7135  0.6771 -3.3509
 5374TIP3   OH237756   1.163   4.546   7.265  0.5279 -0.2948  0.5841
 5374TIP3    H137757   1.151   4.626   7.316  0.1141 -1.0374  1.6959
 5374TIP3    H237758   1.250   4.515   7.290  0.9454  0.1187 -0.3162
 5375TIP3   OH237759   5.613   4.364   2.203  0.1814 -0.9702  0.1928
 5375TIP3    H137760   5.697   4.409   2.193 -0.3630 -0.0581 -0.3803
 5375TIP3    H237761   5.585   4.386   2.292  0.4249 -1.0596  0.2929
 5376TIP3   OH237762   1.994   0.611   0.764 -0.1102 -0.6324  0.3898
 5376TIP3    H137763   1.936   0.561   0.707 -0.1679 -0.2447  0.1058
 5376TIP3    H237764   1.972   0.580   0.852  1.9511 -3.3104  0.0831
 5377TIP3   OH237765   0.266   2.384   1.823 -0.8947 -0.7010 -0.8643
 5377TIP3    H137766   0.228   2.462   1.865 -0.5710 -1.1452  0.2861
 5377TIP3    H237767   0.279   2.322   1.895 -0.0161 -1.3674 -1.5791
 5378TIP3   OH237768   6.902   4.690   1.821  0.4116 -0.4840  0.4263
 5378TIP3    H137769   6.859   4.746   1.886  0.1599 -1.3998  1.0736
 5378TIP3    H237770   6.836   4.676   1.754 -0.1719 -1.4681  1.1676
 5379TIP3   OH237771   5.860   2.238   8.094 -0.2895 -0.1847  0.3323
 5379TIP3    H137772   5.785   2.273   8.143 -0.1522  2.2456 -1.0050
 5379TIP3    H237773   5.833   2.245   8.002  0.6607 -1.6325 -0.0779
 5380TIP3   OH237774   4.501   6.419   7.728 -0.5618 -0.7851 -0.3197
 5380TIP3    H137775   4.508   6.329   7.697  1.8874 -0.6157 -0.3954
 5380TIP3    H237776   4.485   6.470   7.649 -0.2346 -0.9726 -0.5080
 5381TIP3   OH237777   0.711   5.721   8.144  0.3082  0.2147  0.0427
 5381TIP3    H137778   0.662   5.641   8.161 -0.5731  0.4132 -1.4169
 5381TIP3    H237779   0.683   5.781   8.213 -0.9657  0.0836 -0.3365
 5382TIP3   OH237780   1.437   2.881   1.353 -0.6374  0.2327  0.2501
 5382TIP3    H137781   1.433   2.818   1.281  0.0726  1.0801 -0.5595
 5382TIP3    H237782   1.352   2.874   1.395 -1.7724  0.9832 -1.7868
 5383TIP3   OH237783   1.284   3.201   7.361 -0.2601 -0.4578 -0.1881
 5383TIP3    H137784   1.289   3.114   7.322 -0.0220 -0.4225 -0.2355
 5383TIP3    H237785   1.366   3.210   7.410 -0.1051 -0.0989 -0.5158
 5384TIP3   OH237786   1.325   2.467   0.669  0.0952  0.0172 -0.1864
 5384TIP3    H137787   1.321   2.551   0.625  1.0436 -1.3089 -3.0298
 5384TIP3    H237788   1.233   2.442   0.681 -0.1987  0.5381 -1.2500
 5385TIP3   OH237789   4.739   5.435   1.806  0.2363  0.0783 -0.2490
 5385TIP3    H137790   4.736   5.346   1.772  1.2907  0.2000 -0.6856
 5385TIP3    H237791   4.805   5.432   1.875  0.7239  0.6534 -0.6793
 5386TIP3   OH237792   3.220   1.786   8.514 -0.4639 -0.0498 -0.2655
 5386TIP3    H137793   3.299   1.821   8.471  0.5221 -1.4681  0.3147
 5386TIP3    H237794   3.206   1.844   8.589 -0.0352  0.2667 -0.4250
 5387TIP3   OH237795   3.047   0.703   1.399 -0.4258 -0.0204 -0.3388
 5387TIP3    H137796   3.131   0.671   1.366  0.0066  0.2175  0.4945
 5387TIP3    H237797   3.054   0.694   1.494 -1.1022  0.5832 -0.2225
 5388TIP3   OH237798   5.615   0.776   1.734  0.0211 -0.1301  0.5608
 5388TIP3    H137799   5.639   0.726   1.656  1.7828  0.7372  0.5000
 5388TIP3    H237800   5.603   0.866   1.702 -0.3659  0.0190  1.1177
 5389TIP3   OH237801   0.483   3.203   0.958  0.1383  0.7256  0.6380
 5389TIP3    H137802   0.449   3.120   0.926 -1.1525  1.3966  0.2142
 5389TIP3    H237803   0.510   3.184   1.049 -0.7670  0.0133  0.7682
 5390TIP3   OH237804   1.665   1.532   1.394  0.1144 -0.1449  0.2368
 5390TIP3    H137805   1.721   1.455   1.382 -0.3849 -0.9840  2.6144
 5390TIP3    H237806   1.702   1.576   1.471 -0.2291  1.4213 -0.4694
 5391TIP3   OH237807   3.391   6.597   1.271  0.0200  0.3407 -0.0997
 5391TIP3    H137808   3.305   6.573   1.236  0.3430  1.1166 -1.5139
 5391TIP3    H237809   3.453   6.563   1.206  0.8758 -1.0260  1.3579
 5392TIP3   OH237810   3.547   0.505   1.504 -0.1364  0.0790 -0.1295
 5392TIP3    H137811   3.480   0.510   1.436 -1.4926  0.3167  1.1772
 5392TIP3    H237812   3.506   0.454   1.574  1.7169 -1.3514 -0.0062
 5393TIP3   OH237813   0.835   4.589   8.144  0.0466 -0.3855  0.2505
 5393TIP3    H137814   0.906   4.548   8.194  0.6690 -0.9263 -1.0313
 5393TIP3    H237815   0.777   4.626   8.210 -0.0253 -2.4924  1.4463
 5394TIP3   OH237816   2.584   1.459   6.310  0.0890  0.0926  0.7709
 5394TIP3    H137817   2.635   1.518   6.366 -1.7367  2.6841 -0.1003
 5394TIP3    H237818   2.616   1.477   6.221  1.3377 -2.2787  0.6537
 5395TIP3   OH237819   4.088   1.635   7.251  0.3702  0.6731  0.7590
 5395TIP3    H137820   4.015   1.616   7.193  0.5208 -1.2097  1.1248
 5395TIP3    H237821   4.088   1.563   7.315  3.4090 -0.2579 -0.1259
 5396TIP3   OH237822   4.600   3.472   1.581  0.2733  0.0898  0.6379
 5396TIP3    H137823   4.529   3.439   1.637  1.2333 -0.3675  1.6263
 5396TIP3    H237824   4.583   3.566   1.574 -0.3457  0.0132  0.9862
 5397TIP3   OH237825   1.994   4.321   8.291  0.2922  0.1666  0.4646
 5397TIP3    H137826   2.039   4.251   8.243 -0.1958  0.4111 -0.3642
 5397TIP3    H237827   1.924   4.276   8.338  0.1946  0.0516  0.2101
 5398TIP3   OH237828   3.031   6.164   0.605  0.0068  0.5446  0.2722
 5398TIP3    H137829   3.004   6.253   0.582  1.5838  0.8474 -0.5929
 5398TIP3    H237830   3.115   6.152   0.559 -0.0749 -1.3169  0.5299
 5399TIP3   OH237831   5.156   1.514   2.348  0.0410 -0.2161 -0.1095
 5399TIP3    H137832   5.204   1.484   2.425  1.8854 -2.8630 -2.1265
 5399TIP3    H237833   5.064   1.499   2.370  0.3446  0.7968  2.1698
 5400TIP3   OH237834   5.415   2.974   1.373 -0.4504 -0.3141 -0.2592
 5400TIP3    H137835   5.342   3.033   1.391  1.2336  2.0451 -0.6566
 5400TIP3    H237836   5.473   2.984   1.448  1.5384  1.3757 -1.9026
 5401TIP3   OH237837   5.944   2.402   1.370 -0.0497 -0.1900  1.1983
 5401TIP3    H137838   5.934   2.339   1.298  2.8763  1.1273 -0.5182
 5401TIP3    H237839   5.990   2.352   1.438 -0.2806 -0.6704  1.0110
 5402TIP3   OH237840   4.314   6.366   6.961 -0.1447 -0.1940 -0.1954
 5402TIP3    H137841   4.365   6.426   6.905 -0.9913 -0.9158 -1.8107
 5402TIP3    H237842   4.224   6.394   6.949 -0.3007  0.1101  1.4622
 5403TIP3   OH237843   2.864   5.589   2.381  0.2646 -0.2460 -0.0921
 5403TIP3    H137844   2.844   5.683   2.377 -1.0920 -0.5629 -2.6299
 5403TIP3    H237845   2.779   5.546   2.377  0.9291 -1.5999 -0.1582
 5404TIP3   OH237846   2.907   5.974   0.280  0.3117 -0.0794  0.1384
 5404TIP3    H137847   2.932   5.895   0.328 -0.8915  0.4684  1.7716
 5404TIP3    H237848   2.981   6.033   0.290  0.3260 -0.2070  0.8128
 5405TIP3   OH237849   5.029   2.508   0.426  0.1420 -0.2606  0.3536
 5405TIP3    H137850   5.116   2.549   0.429  0.2116 -0.4467  1.0792
 5405TIP3    H237851   4.968   2.582   0.423  0.3499 -0.1110 -2.2592
 5406TIP3   OH237852   5.429   5.482   8.539  0.5191 -0.0031 -0.3619
 5406TIP3    H137853   5.334   5.479   8.535  0.3726  1.6292  0.8769
 5406TIP3    H237854   5.457   5.396   8.507 -1.3884 -0.9166  0.2531
 5407TIP3   OH237855   6.543   6.215   2.166  0.2844  0.4589  0.0905
 5407TIP3    H137856   6.620   6.159   2.166  0.3087  0.4898  1.0975
 5407TIP3    H237857   6.579   6.304   2.164  0.2466  0.4835 -1.7912
 5408TIP3   OH237858   1.147   2.677   8.452  0.0027 -0.4243  0.0710
 5408TIP3    H137859   1.208   2.610   8.422  0.0840  0.0722 -0.9215
 5408TIP3    H237860   1.203   2.746   8.487 -0.1035 -1.2247  1.9512
 5409TIP3   OH237861   2.091   6.611   6.920  0.1489  0.2284 -0.0154
 5409TIP3    H137862   2.075   6.520   6.945 -3.0216  0.5164 -0.6649
 5409TIP3    H237863   2.086   6.660   7.002  0.7827 -0.0133  0.1810
 5410TIP3   OH237864   0.948   3.495   2.491  0.0103  0.3997  0.2839
 5410TIP3    H137865   0.906   3.467   2.410  0.6349 -0.2621  0.1801
 5410TIP3    H237866   0.898   3.573   2.518 -0.5121  0.3380 -0.4641
 5411TIP3   OH237867   6.052   6.872   1.256  0.8757  0.3457 -0.7734
 5411TIP3    H137868   6.107   6.847   1.182  1.4251  2.1312 -1.0130
 5411TIP3    H237869   5.979   6.921   1.217  1.1332  1.2462 -0.1494
 5412TIP3   OH237870   5.527   5.123   1.868  0.0323  0.1017  0.8416
 5412TIP3    H137871   5.465   5.190   1.839  1.0458  1.4253  1.6311
 5412TIP3    H237872   5.496   5.043   1.826 -0.5837  1.2551 -1.0684
 5413TIP3   OH237873   3.021   1.295   1.049  0.5212  0.7385 -0.0228
 5413TIP3    H137874   2.975   1.365   1.096  0.1863 -0.5495  1.6498
 5413TIP3    H237875   3.082   1.259   1.113  0.1260 -1.0284 -0.5900
 5414TIP3   OH237876   5.467   4.926   0.377  0.3746  0.2583 -0.1513
 5414TIP3    H137877   5.546   4.917   0.430  0.9590  2.3090 -0.5747
 5414TIP3    H237878   5.489   4.883   0.294  1.0030  0.6641 -0.2035
 5415TIP3   OH237879   6.931   1.282   7.238 -0.4617  0.8415 -0.4431
 5415TIP3    H137880   6.957   1.279   7.146  1.3001  1.2838 -0.0036
 5415TIP3    H237881   7.006   1.245   7.285 -1.3165  0.6455  0.8311
 5416TIP3   OH237882   3.132   0.044   7.080  0.5391 -0.1713 -0.1116
 5416TIP3    H137883   3.075   0.064   7.006  1.2248 -0.1432 -0.6423
 5416TIP3    H237884   3.121  -0.050   7.093 -1.5103  0.2036  1.3991
 5417TIP3   OH237885   4.020   2.047   0.391  0.0592 -0.5988  0.1173
 5417TIP3    H137886   3.945   2.017   0.442  1.0890 -0.6159  1.6700
 5417TIP3    H237887   4.076   2.092   0.454  0.4800  1.0721 -1.3715
 5418TIP3   OH237888   0.908   2.819   7.392 -0.4308  0.2317 -0.0127
 5418TIP3    H137889   0.990   2.774   7.412 -0.8268 -0.9478 -0.9140
 5418TIP3    H237890   0.906   2.824   7.296 -1.6978 -0.3456 -0.0446
 5419TIP3   OH237891   5.310   4.944   1.496 -0.7712 -0.0634 -0.4149
 5419TIP3    H137892   5.392   4.993   1.497  0.1608 -1.5425  1.0257
 5419TIP3    H237893   5.301   4.913   1.406 -0.9799  1.9765 -1.1656
 5420TIP3   OH237894   5.006   0.041   7.968 -0.3150 -0.4526  0.3694
 5420TIP3    H137895   5.076   0.107   7.968  1.4477 -2.2391  0.9719
 5420TIP3    H237896   4.982   0.032   7.876  1.3252 -0.8633 -0.0509
 5421TIP3   OH237897   6.557   0.740   7.788  0.5864  0.4853  0.6193
 5421TIP3    H137898   6.588   0.829   7.805 -1.7228  1.5397 -0.3276
 5421TIP3    H237899   6.529   0.741   7.697 -0.7575 -0.7961  0.9792
 5422TIP3   OH237900   0.820   0.887   0.777  0.5545  0.3455  0.0818
 5422TIP3    H137901   0.871   0.807   0.783  0.8313  0.4454 -0.8751
 5422TIP3    H237902   0.775   0.893   0.862  1.7329 -0.0021  0.7585
 5423TIP3   OH237903   5.233   6.398   8.246  0.6864 -0.3097 -0.1074
 5423TIP3    H137904   5.311   6.370   8.198  1.6531 -1.1753  1.8828
 5423TIP3    H237905   5.264   6.465   8.306 -0.7629  1.7654 -1.5103
 5424TIP3   OH237906   1.386   5.817   1.849  0.4155 -0.4653  0.2974
 5424TIP3    H137907   1.423   5.860   1.926  2.6239  0.8471 -1.3877
 5424TIP3    H237908   1.419   5.727   1.855  1.4108 -0.1105  0.4024
 5425TIP3   OH237909   5.068   3.076   0.997 -0.0036 -0.1865 -0.4931
 5425TIP3    H137910   5.027   3.028   0.925 -1.8377 -0.7949  0.8611
 5425TIP3    H237911   5.076   3.011   1.067 -2.4398  1.3311  1.3593
 5426TIP3   OH237912   4.189   0.578   7.055 -0.1665 -0.1219 -0.4078
 5426TIP3    H137913   4.161   0.598   7.145  0.4471 -0.0192 -0.2367
 5426TIP3    H237914   4.108   0.579   7.005 -0.5366 -0.3073  0.1676
 5427TIP3   OH237915   1.752   4.296   2.011 -0.2246 -0.0400  0.0787
 5427TIP3    H137916   1.693   4.285   1.936 -0.3611  1.7905 -0.1486
 5427TIP3    H237917   1.775   4.207   2.038  1.2839 -0.8289 -3.2888
 5428TIP3   OH237918   4.880   2.153   1.480  0.7675 -0.1562 -0.1526
 5428TIP3    H137919   4.952   2.164   1.417  2.0851  0.8628  1.4589
 5428TIP3    H237920   4.920   2.169   1.565 -1.0638 -1.1003  0.9332
 5429TIP3   OH237921   1.017   4.345   6.662  0.2576 -0.0021  0.2830
 5429TIP3    H137922   1.107   4.321   6.639 -0.1736 -1.6335  0.1181
 5429TIP3    H237923   1.014   4.440   6.655  1.9463  0.0660  0.2196
 5430TIP3   OH237924   1.763   1.837   2.193 -0.8323  0.8540 -0.2679
 5430TIP3    H137925   1.779   1.928   2.217 -0.9939  1.1703 -1.3156
 5430TIP3    H237926   1.685   1.812   2.244 -1.8543  1.8649 -1.2669
 5431TIP3   OH237927   5.112   2.227   7.639 -0.1185 -0.2152 -0.1929
 5431TIP3    H137928   5.062   2.309   7.642 -0.7556 -0.6236  1.7091
 5431TIP3    H237929   5.186   2.246   7.581 -0.4080  1.6164 -0.0106
 5432TIP3   OH237930   6.083   3.297   7.326  0.0848 -0.0490  0.7092
 5432TIP3    H137931   6.140   3.226   7.297 -1.2703 -1.0282  0.3839
 5432TIP3    H237932   6.065   3.278   7.418 -1.8936 -1.2886  0.1150
 5433TIP3   OH237933   2.998   2.154   0.945 -0.5952  0.2515  0.0583
 5433TIP3    H137934   2.995   2.060   0.928  0.0388  0.0404  1.0159
 5433TIP3    H237935   3.027   2.193   0.862 -1.7230 -0.2969 -0.6148
 5434TIP3   OH237936   3.821   0.754   1.166 -0.1453  0.6813  0.3608
 5434TIP3    H137937   3.846   0.673   1.121 -1.5462 -0.5966  1.7632
 5434TIP3    H237938   3.845   0.823   1.105  0.0110 -0.8531 -1.4124
 5435TIP3   OH237939   6.894   5.007   1.158 -0.3444  0.4750 -0.0087
 5435TIP3    H137940   6.799   5.011   1.156 -0.3908 -0.4537 -0.1525
 5435TIP3    H237941   6.914   4.937   1.220  0.2322  0.3988 -0.2723
 5436TIP3   OH237942   4.020   4.663   2.087 -0.5790 -0.1886 -0.0277
 5436TIP3    H137943   3.948   4.667   2.024 -1.2799  1.6472  0.7960
 5436TIP3    H237944   3.992   4.598   2.151 -0.7698 -0.6360 -0.5607
 5437TIP3   OH237945   2.157   2.384   1.239 -0.1798  0.2656  0.0716
 5437TIP3    H137946   2.169   2.407   1.147  1.9726  1.0965  0.5040
 5437TIP3    H237947   2.114   2.460   1.278  2.0453  1.4450  0.3938
 5438TIP3   OH237948   4.175   5.776   8.357 -0.2007 -0.3460 -0.2718
 5438TIP3    H137949   4.140   5.864   8.342  1.6907  0.8776  1.8526
 5438TIP3    H237950   4.207   5.749   8.271  0.2110  1.5617 -0.7696
 5439TIP3   OH237951   3.732   4.747   7.924  0.0976 -0.6229 -0.0369
 5439TIP3    H137952   3.711   4.818   7.864  0.1790 -1.0230 -0.5411
 5439TIP3    H237953   3.826   4.757   7.941  0.8641 -2.3914 -2.5347
 5440TIP3   OH237954   2.508   0.288   7.194  0.4076 -0.1354  0.8086
 5440TIP3    H137955   2.469   0.328   7.272 -0.4598  2.5712 -0.8622
 5440TIP3    H237956   2.540   0.362   7.143  0.4739 -1.7615 -1.6615
 5441TIP3   OH237957   5.778   1.964   7.525  0.8713  0.7716  0.9978
 5441TIP3    H137958   5.683   1.973   7.526  0.6463 -0.8298 -0.1915
 5441TIP3    H237959   5.802   1.947   7.616 -0.3572 -1.4502  0.9881
 5442TIP3   OH237960   1.398   3.437   6.069 -0.2102  0.1809 -0.0295
 5442TIP3    H137961   1.405   3.403   6.158  2.4525 -1.5110 -0.7760
 5442TIP3    H237962   1.437   3.369   6.014  0.7238  2.3241 -2.2075
 5443TIP3   OH237963   2.349   6.094   0.688  0.1958  0.2363  0.3745
 5443TIP3    H137964   2.287   6.165   0.701 -1.6569 -1.3889  0.9337
 5443TIP3    H237965   2.397   6.088   0.770  1.1089  1.4796 -0.0445
 5444TIP3   OH237966   1.023   6.769   7.367  0.2706  0.4859  0.0401
 5444TIP3    H137967   0.988   6.733   7.285 -0.2312 -0.1820  0.5402
 5444TIP3    H237968   0.947   6.778   7.424  0.5151  1.5757  0.2193
 5445TIP3   OH237969   3.354   6.482   0.642  0.0323  0.4489 -0.0925
 5445TIP3    H137970   3.419   6.421   0.678 -0.5662  0.1545  0.5011
 5445TIP3    H237971   3.349   6.458   0.549  0.4964  0.2239 -0.0639
 5446TIP3   OH237972   3.752   5.731   1.637  0.7873  0.0600 -0.0023
 5446TIP3    H137973   3.688   5.761   1.702 -0.6294 -0.2214 -1.2113
 5446TIP3    H237974   3.771   5.809   1.585  0.6310 -0.0923 -0.2891
 5447TIP3   OH237975   1.627   2.538   0.918 -0.4796 -0.4957 -0.3968
 5447TIP3    H137976   1.544   2.496   0.938 -1.2613  0.3834 -1.6920
 5447TIP3    H237977   1.679   2.468   0.877 -0.4849 -1.0893  0.5639
 5448TIP3   OH237978   4.873   1.871   1.430  0.1096 -0.1492 -0.2407
 5448TIP3    H137979   4.935   1.941   1.451 -0.2884  0.3313 -0.6449
 5448TIP3    H237980   4.795   1.891   1.482  1.5890 -2.9845  3.5659
 5449TIP3   OH237981   4.822   4.103   0.603  0.0154  1.0552  0.5242
 5449TIP3    H137982   4.813   4.141   0.515 -0.9064  2.4028  1.1654
 5449TIP3    H237983   4.850   4.013   0.587  0.8823  1.5641 -1.1144
 5450TIP3   OH237984   6.467   6.210   6.668 -0.0288 -0.7826 -0.0389
 5450TIP3    H137985   6.391   6.256   6.634 -1.1205 -1.6098  1.2112
 5450TIP3    H237986   6.542   6.255   6.628 -1.1033  0.9490 -0.2046
 5451TIP3   OH237987   5.506   3.417   0.904  0.4469 -0.1055  0.2930
 5451TIP3    H137988   5.567   3.380   0.968  2.2250  1.0864 -0.6379
 5451TIP3    H237989   5.533   3.508   0.896 -0.3202 -0.0065 -1.4674
 5452TIP3   OH237990   0.633   3.999   7.821 -0.0254 -0.8718  0.3714
 5452TIP3    H137991   0.557   4.051   7.849  0.0959 -0.1851 -0.4903
 5452TIP3    H237992   0.708   4.043   7.861  0.1082 -0.1496 -0.6285
 5453TIP3   OH237993   1.591   2.735   7.709  0.1810  0.4238 -0.0578
 5453TIP3    H137994   1.662   2.800   7.699  0.0222  0.9033  1.5177
 5453TIP3    H237995   1.541   2.741   7.628 -0.0667  2.6135  0.1740
 5454TIP3   OH237996   4.802   4.387   8.020  0.0743 -0.3968  0.1306
 5454TIP3    H137997   4.729   4.378   7.959  0.4757  1.4128 -0.6937
 5454TIP3    H237998   4.814   4.300   8.057 -2.3225 -0.8115  0.0911
 5455TIP3   OH237999   4.759   5.338   2.302 -0.0146 -0.1940 -0.3671
 5455TIP3    H138000   4.825   5.366   2.238  2.0534 -1.5667  1.0504
 5455TIP3    H238001   4.755   5.410   2.365 -0.7964  0.4050 -1.0695
 5456TIP3   OH238002   6.763   6.889   0.320 -0.6320 -0.2842  0.8354
 5456TIP3    H138003   6.799   6.978   0.318 -0.1467 -0.4765  0.9262
 5456TIP3    H238004   6.694   6.891   0.253 -1.9583  0.7060  2.1666
 5457TIP3   OH238005   5.861   0.425   2.830 -0.0712  0.1602 -0.3972
 5457TIP3    H138006   5.937   0.418   2.772 -0.0951  0.7821 -0.5183
 5457TIP3    H238007   5.805   0.352   2.805  0.0773  0.2203 -0.9302
 5458TIP3   OH238008   2.726   4.279   7.276  0.6253  0.0927 -0.4123
 5458TIP3    H138009   2.807   4.276   7.226  1.0601  1.1494  0.2070
 5458TIP3    H238010   2.753   4.297   7.366 -0.3149  0.9347 -0.2819
 5459TIP3   OH238011   4.875   0.306   1.387 -0.2564  0.1164  0.2926
 5459TIP3    H138012   4.780   0.307   1.383 -0.2295 -0.2856 -3.1061
 5459TIP3    H238013   4.899   0.396   1.408 -1.3742  0.5214 -0.0975
 5460TIP3   OH238014   1.867   6.128   8.521  0.5163  0.1943  0.0613
 5460TIP3    H138015   1.902   6.200   8.467 -0.6434  1.3176  0.7618
 5460TIP3    H238016   1.820   6.172   8.592 -1.2459 -1.2556 -0.1463
 5461TIP3   OH238017   0.772   1.052   8.197 -0.4071 -0.0976 -0.1721
 5461TIP3    H138018   0.691   1.005   8.218  0.3669 -1.7718 -0.7728
 5461TIP3    H238019   0.780   1.045   8.102  1.6653 -2.1425  0.0731
 5462TIP3   OH238020   1.860   4.035   0.977  0.1774  0.0289  0.2206
 5462TIP3    H138021   1.872   3.983   0.897 -1.2633  1.2934 -0.8712
 5462TIP3    H238022   1.854   3.969   1.047 -3.3297 -1.5428 -1.2925
 5463TIP3   OH238023   6.598   2.014   0.411  0.1895 -0.1996  0.0112
 5463TIP3    H138024   6.568   2.104   0.423  0.5241 -0.2328  1.1480
 5463TIP3    H238025   6.562   1.966   0.485  2.6978 -0.3098  1.2675
 5464TIP3   OH238026   1.648   3.449   6.897 -0.8408 -0.0298 -0.5269
 5464TIP3    H138027   1.643   3.451   6.802 -0.4313 -0.9183 -0.5707
 5464TIP3    H238028   1.601   3.370   6.922 -1.4465  0.4970  0.0516
 5465TIP3   OH238029   3.215   3.499   2.531 -0.8076 -0.1606  0.4715
 5465TIP3    H138030   3.128   3.520   2.495  0.3036  0.0809 -2.2690
 5465TIP3    H238031   3.220   3.404   2.527 -0.8897 -0.1646  0.4528
 5466TIP3   OH238032   3.654   5.656   6.909  0.0013 -0.0912  0.0479
 5466TIP3    H138033   3.701   5.674   6.828 -2.4947 -0.1277 -1.5010
 5466TIP3    H238034   3.563   5.648   6.883 -1.2225  1.8704  3.1229
 5467TIP3   OH238035   6.472   0.064   1.625 -1.0250  0.1936 -0.4146
 5467TIP3    H138036   6.434   0.140   1.669 -0.3969  0.8956 -1.0619
 5467TIP3    H238037   6.418   0.053   1.546  0.0145  1.1283 -1.2819
 5468TIP3   OH238038   5.977   0.943   2.047  0.0688 -0.0466 -0.5275
 5468TIP3    H138039   5.895   0.894   2.051  1.1739 -1.9160  1.7718
 5468TIP3    H238040   5.999   0.961   2.138  1.9624  0.8975 -1.1094
 5469TIP3   OH238041   0.888   0.981   0.365  0.1227  0.6967 -0.5941
 5469TIP3    H138042   0.922   0.959   0.452 -0.3703  0.7519 -0.3855
 5469TIP3    H238043   0.880   0.896   0.321  0.4180  0.6733 -0.6046
 5470TIP3   OH238044   4.277   4.776   1.348  0.3234 -0.4542 -0.3472
 5470TIP3    H138045   4.181   4.773   1.344  0.3028 -1.4094  0.4752
 5470TIP3    H238046   4.296   4.863   1.382 -0.1329  0.7040 -2.8708
 5471TIP3   OH238047   0.770   1.983   1.958  0.8191  0.0605 -0.5397
 5471TIP3    H138048   0.720   2.065   1.957 -0.4107 -0.6590 -1.2795
 5471TIP3    H238049   0.803   1.976   2.047 -1.1814  0.1383  0.2739
 5472TIP3   OH238050   3.874   2.530   1.771  0.3256  0.2315  0.3125
 5472TIP3    H138051   3.822   2.542   1.850  0.5115 -0.4671  0.5469
 5472TIP3    H238052   3.853   2.441   1.741  0.5342  0.3546 -0.2148
 5473TIP3   OH238053   4.338   6.894   7.277 -0.2694 -0.0898 -0.1026
 5473TIP3    H138054   4.422   6.928   7.309 -1.7309  2.0570  1.7444
 5473TIP3    H238055   4.333   6.923   7.186  1.3258 -1.0343 -0.5380
 5474TIP3   OH238056   6.406   3.248   8.494  0.0193  0.2020 -0.7494
 5474TIP3    H138057   6.442   3.169   8.455  2.0889  0.4542  0.4844
 5474TIP3    H238058   6.470   3.316   8.473 -0.2995  0.9417  0.5625
 5475TIP3   OH238059   4.682   6.027   1.263  0.2915  0.2889  0.4301
 5475TIP3    H138060   4.686   5.966   1.337 -1.7132 -1.2617 -0.6463
 5475TIP3    H238061   4.772   6.029   1.230  0.4015 -2.4255  0.2912
 5476TIP3   OH238062   0.930   2.525   2.477  0.0382  0.2194  0.1972
 5476TIP3    H138063   0.848   2.540   2.430 -0.0136  0.5027  0.3776
 5476TIP3    H238064   0.983   2.603   2.460 -0.0576  0.4129  0.7675
 5477TIP3   OH238065   3.375   3.610   2.719 -0.3968  0.1440  0.6470
 5477TIP3    H138066   3.317   3.572   2.785  0.5688  0.6551  1.8299
 5477TIP3    H238067   3.362   3.556   2.642 -2.4307  0.2416  0.8758
 5478TIP3   OH238068   2.681   3.529   0.058  0.6929  0.0554 -0.6441
 5478TIP3    H138069   2.698   3.623   0.055  2.2066 -0.1603  0.0312
 5478TIP3    H238070   2.725   3.499   0.137 -1.4883 -0.9313  0.2602
 5479TIP3   OH238071   3.655   5.469   1.899  0.0209  0.5598 -0.2212
 5479TIP3    H138072   3.600   5.448   1.824 -0.2839  0.7370 -0.0450
 5479TIP3    H238073   3.600   5.453   1.976 -0.1865  1.8607 -0.0690
 5480TIP3   OH238074   1.066   5.024   0.006  0.1474  0.1035  0.3772
 5480TIP3    H138075   1.021   4.999  -0.075 -0.4313 -0.7405  0.9474
 5480TIP3    H238076   1.001   5.008   0.075  0.3055  1.7157  0.9230
 5481TIP3   OH238077   4.741   3.071   0.243 -0.7912  0.3142  0.4655
 5481TIP3    H138078   4.751   3.108   0.331  1.9354 -1.0979  0.8673
 5481TIP3    H238079   4.795   3.128   0.188  1.1271 -1.2620  0.5913
 5482TIP3   OH238080   2.787   4.899   7.247  0.4600  0.0285  0.1706
 5482TIP3    H138081   2.840   4.834   7.292 -1.8497 -3.1745 -1.3515
 5482TIP3    H238082   2.740   4.944   7.317  0.4331 -1.5449  1.2187
 5483TIP3   OH238083   2.131   0.428   7.164  0.0792 -0.0214  0.5769
 5483TIP3    H138084   2.072   0.402   7.234  0.5513 -1.7173  0.3788
 5483TIP3    H238085   2.075   0.444   7.089 -0.4123  1.6317  1.2392
 5484TIP3   OH238086   2.136   2.621   6.542  0.5284 -0.2281  0.1742
 5484TIP3    H138087   2.114   2.535   6.508 -1.4348 -0.0068  0.7378
 5484TIP3    H238088   2.064   2.642   6.602  1.5647  1.2973  0.9593
 5485TIP3   OH238089   5.091   0.898   1.408  0.3827 -0.0891 -0.5295
 5485TIP3    H138090   5.017   0.947   1.373  0.5270 -0.4070 -1.3005
 5485TIP3    H238091   5.080   0.904   1.503 -1.5073 -1.4300 -0.6015
 5486TIP3   OH238092   2.617   5.778   7.620  0.5215  0.0015  0.0866
 5486TIP3    H138093   2.575   5.729   7.691 -0.0082  0.9068  0.4106
 5486TIP3    H238094   2.692   5.724   7.595  1.7460  0.4755  2.5033
 5487TIP3   OH238095   0.780   0.099   1.829  0.2494 -0.2436  0.1739
 5487TIP3    H138096   0.774   0.150   1.910  0.2344 -1.3456  0.8941
 5487TIP3    H238097   0.872   0.073   1.824  0.8588  1.9840 -1.5766
 5488TIP3   OH238098   6.798   4.828   0.360  0.5721 -0.2003  0.4689
 5488TIP3    H138099   6.744   4.869   0.293  2.1373  0.6349 -0.3481
 5488TIP3    H238100   6.741   4.821   0.436 -0.8087  0.1931 -0.4912
 5489TIP3   OH238101   5.149   0.746   8.125  1.0163 -0.2117 -0.0336
 5489TIP3    H138102   5.173   0.818   8.183 -0.4434  0.6057 -0.3941
 5489TIP3    H238103   5.053   0.749   8.121  0.8514 -2.6151  0.4780
 5490TIP3   OH238104   5.440   6.343   0.332 -0.2875  0.0722  0.6008
 5490TIP3    H138105   5.406   6.254   0.338 -2.2901  0.8586  2.4222
 5490TIP3    H238106   5.535   6.332   0.328 -0.5143 -2.1536 -1.3057
 5491TIP3   OH238107   3.780   6.495   2.356  0.0501  0.2356 -0.1441
 5491TIP3    H138108   3.834   6.489   2.435 -0.9076  1.4703  0.6257
 5491TIP3    H238109   3.825   6.438   2.293 -0.3583 -2.5612  1.9191
 5492TIP3   OH238110   5.713   1.162   8.453 -0.3858 -0.3003 -0.0000
 5492TIP3    H138111   5.725   1.094   8.387  0.7039 -1.6690  1.5132
 5492TIP3    H238112   5.671   1.116   8.526 -1.7963  1.2250  0.1948
 5493TIP3   OH238113   4.343   6.938   8.325 -0.0474  0.2854 -0.2477
 5493TIP3    H138114   4.414   6.962   8.265  0.8441 -0.2770  0.5399
 5493TIP3    H238115   4.388   6.892   8.397 -1.4327 -2.1342 -0.8198
 5494TIP3   OH238116   2.750   6.888   8.556 -0.2137 -0.3400 -0.3683
 5494TIP3    H138117   2.756   6.933   8.471 -0.5675 -1.4137 -0.9788
 5494TIP3    H238118   2.767   6.796   8.536  0.9469 -0.4408  0.9257
 5495TIP3   OH238119   2.940   3.824   7.447 -0.1635 -0.2673 -0.3181
 5495TIP3    H138120   2.909   3.782   7.367 -0.1692 -1.3960  0.2436
 5495TIP3    H238121   2.865   3.874   7.479 -0.6913 -1.1133 -0.1899
 5496TIP3   OH238122   1.587   5.073   8.024  0.0012  0.0586 -0.4545
 5496TIP3    H138123   1.515   5.108   8.076 -0.4397  0.1677 -1.1276
 5496TIP3    H238124   1.662   5.073   8.083 -0.1658  1.4492 -0.2161
 5497TIP3   OH238125   1.269   5.648   0.214 -0.0562  0.3407  0.3370
 5497TIP3    H138126   1.238   5.643   0.124 -1.6212 -2.9541  0.8849
 5497TIP3    H238127   1.240   5.734   0.245 -0.7673  0.9506 -1.8752
 5498TIP3   OH238128   4.023   6.015   8.316  0.0221 -0.6066 -0.0836
 5498TIP3    H138129   3.976   6.007   8.233 -1.0179 -1.4657  0.5632
 5498TIP3    H238130   4.034   6.109   8.329 -0.8814 -0.4162 -0.6135
 5499TIP3   OH238131   0.443   1.595   7.689 -0.1084 -0.2066 -0.0096
 5499TIP3    H138132   0.402   1.682   7.686  0.7333  0.1730 -0.8628
 5499TIP3    H238133   0.537   1.613   7.684  0.2726 -1.0169  2.6330
 5500TIP3   OH238134   6.756   4.008   7.842 -0.0301 -0.2449  0.0239
 5500TIP3    H138135   6.699   3.964   7.905  0.6273  0.3217  1.0607
 5500TIP3    H238136   6.811   4.065   7.896 -1.6986  2.8786 -1.2893
 5501TIP3   OH238137   3.481   1.900   1.878 -0.2424  0.3647  0.1639
 5501TIP3    H138138   3.494   1.888   1.972  0.4196 -1.2586 -0.1093
 5501TIP3    H238139   3.560   1.945   1.848  0.1426 -0.2982  0.1745
 5502TIP3   OH238140   6.657   5.666   2.073  0.0060 -0.2453  0.0465
 5502TIP3    H138141   6.732   5.607   2.073  0.8489  0.7908 -0.0025
 5502TIP3    H238142   6.670   5.722   1.996 -0.7097  0.0815  0.1480
 5503TIP3   OH238143   3.573   0.999   8.441 -0.1620 -0.2647 -0.1146
 5503TIP3    H138144   3.522   1.069   8.401 -0.6473 -0.9823 -0.7764
 5503TIP3    H238145   3.510   0.948   8.491 -0.0649 -1.0092 -0.7264
 5504TIP3   OH238146   3.360   1.696   0.728 -0.4464  0.3543 -0.0378
 5504TIP3    H138147   3.271   1.704   0.694 -0.7237 -2.3655 -0.1645
 5504TIP3    H238148   3.395   1.618   0.686  0.7063 -0.7185  2.6567
 5505TIP3   OH238149   5.559   2.966   0.314  0.6263 -0.5355  0.3635
 5505TIP3    H138150   5.562   2.939   0.406  0.2574  0.5935  0.7197
 5505TIP3    H238151   5.477   3.016   0.307  1.2149  0.3549 -0.2928
 5506TIP3   OH238152   4.241   0.090   2.060 -0.2046 -0.5734 -1.0114
 5506TIP3    H138153   4.186   0.136   1.996 -0.9695 -0.2391 -0.1512
 5506TIP3    H238154   4.189   0.015   2.086 -0.6263  0.1601  0.3819
 5507TIP3   OH238155   3.609   3.241   7.982 -0.3428  0.1301  0.1118
 5507TIP3    H138156   3.581   3.332   7.983 -1.0079 -0.0536 -0.7108
 5507TIP3    H238157   3.704   3.244   7.998 -0.2802  0.9933 -0.3939
 5508TIP3   OH238158   2.559   2.058   2.033 -0.1485 -0.0468  0.5812
 5508TIP3    H138159   2.494   2.117   2.070 -0.0209 -0.1224  0.9319
 5508TIP3    H238160   2.618   2.038   2.106 -0.8768 -1.5597  0.7818
 5509TIP3   OH238161   0.585   2.240   0.724  0.1324 -0.4811  0.6604
 5509TIP3    H138162   0.609   2.263   0.813 -0.8863 -0.6765  1.0002
 5509TIP3    H238163   0.505   2.290   0.707 -0.2418 -1.2181  0.2164
 5510TIP3   OH238164   6.280   6.527   0.160  0.7494 -0.0641 -0.4684
 5510TIP3    H138165   6.306   6.602   0.107 -1.3257  0.3154 -1.0594
 5510TIP3    H238166   6.313   6.546   0.248 -0.3420  1.9354 -0.4397
 5511TIP3   OH238167   2.724   2.563   8.407 -0.3652 -1.0231  0.5355
 5511TIP3    H138168   2.732   2.495   8.341  0.6857  0.0915 -0.5235
 5511TIP3    H238169   2.768   2.527   8.484  0.1924 -1.5332 -0.0139
 5512TIP3   OH238170   2.674   6.194   0.652  0.6795 -0.3423 -0.8164
 5512TIP3    H138171   2.616   6.206   0.577  1.1402 -0.4091 -1.1964
 5512TIP3    H238172   2.621   6.151   0.718  0.5547 -1.3032 -1.5159
 5513TIP3   OH238173   5.479   0.085   1.085  0.5254 -0.3270  0.5246
 5513TIP3    H138174   5.448   0.076   1.175 -0.6922 -0.3526  0.1153
 5513TIP3    H238175   5.400   0.090   1.032  1.2088  0.5742 -0.4734
 5514TIP3   OH238176   6.661   0.505   1.647 -0.2355  0.2235  0.4945
 5514TIP3    H138177   6.627   0.472   1.730 -2.2274  1.8655  0.4067
 5514TIP3    H238178   6.627   0.594   1.640  0.5521  0.4328 -1.7099
 5515TIP3   OH238179   1.481   5.939   1.594 -0.2095  0.2730 -0.0951
 5515TIP3    H138180   1.437   5.885   1.659  0.5555  0.5969  0.6959
 5515TIP3    H238181   1.452   6.028   1.613  1.8107  0.6910  1.3336
 5516TIP3   OH238182   5.528   1.935   8.129 -0.1741 -0.4465 -0.0387
 5516TIP3    H138183   5.592   1.865   8.115  1.3273  0.5610  1.4124
 5516TIP3    H238184   5.529   1.985   8.048  0.5724 -0.7056 -0.1984
 5517TIP3   OH238185   4.189   6.649   6.800 -0.1386  0.3549  0.4141
 5517TIP3    H138186   4.134   6.572   6.793 -0.7115  0.2525  4.1164
 5517TIP3    H238187   4.279   6.615   6.796 -0.3836 -0.3047  0.4271
 5518TIP3   OH238188   1.250   0.379   8.548 -0.2498 -0.0660  0.4799
 5518TIP3    H138189   1.221   0.302   8.597  0.2703 -1.3503 -1.1766
 5518TIP3    H238190   1.169   0.414   8.509 -0.4427  0.1161  1.0158
 5519TIP3   OH238191   2.031   5.674   0.919  0.1752 -0.2840 -0.0939
 5519TIP3    H138192   1.949   5.707   0.884  0.9019  0.9974 -0.6387
 5519TIP3    H238193   2.008   5.639   1.005 -0.8512  0.4360 -0.0643
 5520TIP3   OH238194   2.566   5.025   0.692 -0.7037 -0.0935 -0.3603
 5520TIP3    H138195   2.598   4.936   0.701 -0.6169  0.0737  1.3037
 5520TIP3    H238196   2.488   5.029   0.748 -0.2317  1.0909  0.2477
 5521TIP3   OH238197   2.761   1.627   0.131 -0.1105  0.1202  0.3625
 5521TIP3    H138198   2.852   1.599   0.136 -0.4083 -0.6195  3.7207
 5521TIP3    H238199   2.760   1.714   0.171 -0.7945  0.4172 -0.2732
 5522TIP3   OH238200   6.043   5.269   0.274  0.0246  0.2086  0.2183
 5522TIP3    H138201   6.112   5.335   0.287  0.8651 -0.3138 -1.3103
 5522TIP3    H238202   6.034   5.228   0.360 -0.2963  2.0721  1.1344
 5523TIP3   OH238203   6.835   1.152   6.795 -0.1377  0.0615 -0.1742
 5523TIP3    H138204   6.847   1.132   6.702  1.2074  0.5682 -0.1288
 5523TIP3    H238205   6.825   1.247   6.799  0.7609  0.1423  0.2823
 5524TIP3   OH238206   2.963   2.941   7.851 -0.2521  0.1163 -0.4676
 5524TIP3    H138207   2.939   3.032   7.872  0.7522  0.1431  0.6670
 5524TIP3    H238208   2.967   2.898   7.936 -1.1896 -1.1340 -1.0299
 5525TIP3   OH238209   4.738   1.524   7.483 -0.5549  0.5284  0.3390
 5525TIP3    H138210   4.777   1.445   7.522  1.1630  0.5030 -1.2894
 5525TIP3    H238211   4.686   1.491   7.409  1.6443  0.9441 -1.4972
 5526TIP3   OH238212   1.259   0.202   6.848 -0.0194  0.5505 -0.3100
 5526TIP3    H138213   1.255   0.214   6.753  0.3577 -0.2365 -0.4335
 5526TIP3    H238214   1.295   0.114   6.860 -1.2724  0.1252  0.5524
 5527TIP3   OH238215   0.429   1.279   7.064  0.1356 -0.5520 -0.1308
 5527TIP3    H138216   0.382   1.348   7.113 -1.1917 -2.1173  0.9152
 5527TIP3    H238217   0.403   1.293   6.973 -2.0643 -1.0559  0.3556
 5528TIP3   OH238218   3.118   3.153   0.380  0.1423  0.1485 -0.3639
 5528TIP3    H138219   3.046   3.155   0.442 -0.6092 -0.5048 -1.1757
 5528TIP3    H238220   3.081   3.190   0.299  1.2365  1.4413 -0.3028
 5529TIP3   OH238221   2.994   0.033   2.270 -0.4563  0.2359  0.4347
 5529TIP3    H138222   3.009  -0.051   2.226 -2.3080  0.9493 -1.7274
 5529TIP3    H238223   3.060   0.091   2.234 -1.0272  0.4325 -0.3185
 5530TIP3   OH238224   5.631   4.576   7.429 -0.6488  0.9789 -0.6688
 5530TIP3    H138225   5.614   4.496   7.379 -0.5814  2.2345 -2.8367
 5530TIP3    H238226   5.554   4.631   7.412 -0.7676  1.3423  0.9186
 5531TIP3   OH238227   1.660   5.399   6.831 -0.5570 -0.2468 -0.0120
 5531TIP3    H138228   1.570   5.416   6.859 -0.2020 -1.3367  1.9985
 5531TIP3    H238229   1.654   5.321   6.776 -1.1684  1.4512 -2.4914
 5532TIP3   OH238230   0.897   5.017   0.716 -0.1251 -0.2707 -0.7279
 5532TIP3    H138231   0.952   5.070   0.774 -0.1999 -0.6779 -0.2817
 5532TIP3    H238232   0.841   5.081   0.671 -0.2398  0.0263 -0.1669
 5533TIP3   OH238233   1.519   3.236   2.287 -0.3875  0.2869 -0.0331
 5533TIP3    H138234   1.435   3.190   2.294 -0.7433  1.1192  1.5324
 5533TIP3    H238235   1.494   3.329   2.284  0.5165  0.6201  1.8673
 5534TIP3   OH238236   1.802   3.190   1.113  0.5606  1.0522 -0.0343
 5534TIP3    H138237   1.717   3.233   1.102  0.3575  0.8609  0.7160
 5534TIP3    H238238   1.865   3.251   1.075  0.1236  1.3701 -0.2503
 5535TIP3   OH238239   0.643   6.134   1.772 -0.1870 -0.2113 -0.1064
 5535TIP3    H138240   0.631   6.188   1.850 -0.7095 -0.3951 -0.0536
 5535TIP3    H238241   0.671   6.049   1.805  1.3331  0.2208 -0.2320
 5536TIP3   OH238242   2.209   1.191   0.982  0.3424  0.1807 -0.0897
 5536TIP3    H138243   2.186   1.116   0.926 -0.4198  0.6968 -0.4857
 5536TIP3    H238244   2.152   1.182   1.058  0.4058  0.2372 -0.0359
 5537TIP3   OH238245   3.775   2.495   7.134 -0.0435  0.1870 -0.0490
 5537TIP3    H138246   3.812   2.580   7.111 -0.6855  0.7496  0.9531
 5537TIP3    H238247   3.684   2.500   7.105  0.1416 -0.4950 -0.7870
 5538TIP3   OH238248   5.379   5.973   1.413  0.6540  0.1269  0.0128
 5538TIP3    H138249   5.381   6.022   1.331  1.6259 -0.1740 -0.1524
 5538TIP3    H238250   5.346   5.886   1.389 -0.0881  0.3626  0.1355
 5539TIP3   OH238251   6.319   4.415   8.472  0.3702  0.6831  0.4847
 5539TIP3    H138252   6.369   4.348   8.426  2.1465  2.4108 -0.2255
 5539TIP3    H238253   6.267   4.366   8.536 -0.4273 -1.5818 -1.7381
 5540TIP3   OH238254   1.519   2.656   7.436  0.2571  0.0338  0.2706
 5540TIP3    H138255   1.606   2.617   7.435  0.0957 -0.3337 -0.8156
 5540TIP3    H238256   1.464   2.594   7.387 -0.4739  0.5751  0.3790
 5541TIP3   OH238257   0.498   1.064   7.892  0.0086 -0.7047  0.1599
 5541TIP3    H138258   0.433   1.037   7.957  0.4079  1.3450  1.5143
 5541TIP3    H238259   0.466   1.149   7.861  0.6233 -0.9550 -1.2256
 5542TIP3   OH238260   2.937   4.503   1.490  0.0985 -0.0471  0.0929
 5542TIP3    H138261   2.983   4.420   1.504  0.7024  0.1066 -0.8906
 5542TIP3    H238262   2.995   4.554   1.434 -1.0186  0.3653 -0.7510
 5543TIP3   OH238263   3.033   3.753   1.184 -0.2277  0.5972 -0.1800
 5543TIP3    H138264   3.092   3.731   1.257 -1.1283  0.3970  0.5136
 5543TIP3    H238265   3.026   3.848   1.187  0.7265  0.7104 -0.8246
 5544TIP3   OH238266   0.396   0.521   7.148  0.3495 -0.0071 -0.0022
 5544TIP3    H138267   0.465   0.485   7.203  1.0526  1.3766  0.0617
 5544TIP3    H238268   0.441   0.549   7.068 -0.5337 -1.2759 -0.9736
 5545TIP3   OH238269   0.932   1.672   2.174  0.0132  0.2898  0.2842
 5545TIP3    H138270   0.910   1.764   2.186 -0.1476  0.0764  1.8314
 5545TIP3    H238271   0.847   1.627   2.174  0.1154  0.0925 -0.0116
 5546TIP3   OH238272   0.880   5.654   1.384 -0.4814  0.4974 -0.1187
 5546TIP3    H138273   0.969   5.643   1.419 -1.1300  0.0774  1.5209
 5546TIP3    H238274   0.888   5.719   1.315  0.9147  1.3400  0.8018
 5547TIP3   OH238275   1.930   0.028   0.434  0.4346  0.4309  0.0386
 5547TIP3    H138276   1.995  -0.025   0.480  1.0291  0.4406 -0.7657
 5547TIP3    H238277   1.968   0.116   0.432  0.7757  0.2765 -1.1057
 5548TIP3   OH238278   0.857   4.624   1.190 -0.2634 -0.5345  0.3507
 5548TIP3    H138279   0.833   4.633   1.282  0.5743  0.7813  0.4692
 5548TIP3    H238280   0.854   4.713   1.155 -1.3624 -1.1047 -1.1244
 5549TIP3   OH238281   0.800   0.876   1.572  0.5847  0.3160  0.1373
 5549TIP3    H138282   0.840   0.956   1.606 -2.0231  2.0702 -0.6767
 5549TIP3    H238283   0.825   0.873   1.480  0.8362  0.0558  0.2103
 5550TIP3   OH238284   6.682   3.550   0.565  0.1851  0.3454  0.8587
 5550TIP3    H138285   6.624   3.583   0.634  0.6432 -0.1848  1.5167
 5550TIP3    H238286   6.768   3.543   0.607  0.2782 -0.8695  0.5174
 5551TIP3   OH238287   0.738   1.208   0.546 -0.3647  0.7105  0.0704
 5551TIP3    H138288   0.823   1.180   0.582 -0.4951  0.0913 -0.0857
 5551TIP3    H238289   0.755   1.219   0.452 -0.8703 -1.1728 -0.2764
 5552TIP3   OH238290   1.641   2.096   0.807  0.0574  0.0149 -0.3851
 5552TIP3    H138291   1.631   2.036   0.734  0.1413  0.7166 -0.9876
 5552TIP3    H238292   1.629   2.042   0.885  0.0902 -0.7637 -0.9131
 5553TIP3   OH238293   2.704   6.009   8.445  0.4237  0.6285  0.4511
 5553TIP3    H138294   2.778   5.965   8.403  0.8347  0.8356  0.9433
 5553TIP3    H238295   2.647   6.035   8.373  1.5054  1.6889 -0.0419
 5554TIP3   OH238296   1.319   3.098   1.601  0.3417 -0.0812  0.3895
 5554TIP3    H138297   1.301   3.173   1.657  0.4024  0.1431  0.1111
 5554TIP3    H238298   1.295   3.022   1.654  1.4472  0.0630  1.1300
 5555TIP3   OH238299   6.695   5.240   1.383  0.3845 -0.4180  0.2404
 5555TIP3    H138300   6.712   5.271   1.294 -0.3487 -0.5655  0.0453
 5555TIP3    H238301   6.781   5.209   1.413  0.3555 -1.8502 -1.0009
 5556TIP3   OH238302   6.248   5.767   0.494  0.0648 -0.6610 -0.5106
 5556TIP3    H138303   6.258   5.859   0.469 -2.4404 -1.2180 -4.4485
 5556TIP3    H238304   6.337   5.732   0.495  0.9844  1.5593  0.1537
 5557TIP3   OH238305   0.581   4.911   0.776  0.2365 -0.6117  0.7623
 5557TIP3    H138306   0.560   4.962   0.698  2.2826 -0.6299  0.1465
 5557TIP3    H238307   0.580   4.820   0.747 -2.1254 -0.9238  1.5639
 5558TIP3   OH238308   1.328   3.470   6.936  0.2965  0.0882 -0.4384
 5558TIP3    H138309   1.370   3.387   6.915 -0.4912 -0.2139 -0.8637
 5558TIP3    H238310   1.340   3.480   7.031 -2.8124 -2.3876  0.3821
 5559TIP3   OH238311   2.719   6.861   7.517  0.3875 -0.0695  0.0164
 5559TIP3    H138312   2.790   6.817   7.471  0.9769 -1.5356  2.1426
 5559TIP3    H238313   2.671   6.909   7.449 -0.1215 -3.7444 -2.5002
 5560TIP3   OH238314   4.921   2.076   7.784  0.0378  0.1557  0.1127
 5560TIP3    H138315   4.949   2.114   7.868  1.8719 -0.2227 -0.2721
 5560TIP3    H238316   4.983   2.111   7.720 -0.9274 -0.0780 -0.9756
 5561TIP3   OH238317   4.641   1.094   7.403  0.0304  0.0408  0.5702
 5561TIP3    H138318   4.603   1.129   7.322  1.0416  0.6574  0.3597
 5561TIP3    H238319   4.732   1.121   7.401  0.5144 -1.4672  1.0578
 5562TIP3   OH238320   4.459   3.373   8.342 -0.1219  0.5690  0.7388
 5562TIP3    H138321   4.463   3.279   8.323 -0.1385  1.2828 -3.7204
 5562TIP3    H238322   4.547   3.394   8.374  1.1425 -0.4345 -1.8105
 5563TIP3   OH238323   6.606   5.117   7.157 -0.5476  0.0786  0.0189
 5563TIP3    H138324   6.574   5.201   7.126 -1.6574 -0.0859  0.6782
 5563TIP3    H238325   6.574   5.053   7.093 -1.0420 -0.0204  0.3651
 5564TIP3   OH238326   4.520   1.365   6.916  0.2318 -0.1145 -0.0836
 5564TIP3    H138327   4.571   1.443   6.934 -1.4006  0.8449  0.5905
 5564TIP3    H238328   4.573   1.315   6.854 -0.1056  3.1019 -3.2686
 5565TIP3   OH238329   6.565   5.639   7.668 -0.0597 -0.7763  0.5786
 5565TIP3    H138330   6.471   5.646   7.653 -0.3651 -0.3519  2.3898
 5565TIP3    H238331   6.600   5.599   7.589 -1.7459 -0.8407 -0.1665
 5566TIP3   OH238332   6.486   5.164   0.904 -0.1420 -1.1035 -0.1363
 5566TIP3    H138333   6.438   5.247   0.902 -0.2174 -1.1359  0.2890
 5566TIP3    H238334   6.520   5.154   0.815  1.9204  0.5911  0.3877
 5567TIP3   OH238335   0.515   0.107   1.761 -0.2215 -0.1813 -0.1554
 5567TIP3    H138336   0.610   0.117   1.755 -0.1117 -1.9206 -3.9378
 5567TIP3    H238337   0.503   0.025   1.810  0.2414 -0.2167 -0.0961
 5568TIP3   OH238338   1.755   4.375   1.245 -0.2002 -0.2769 -0.3456
 5568TIP3    H138339   1.817   4.359   1.317  0.0232 -0.6355 -0.6134
 5568TIP3    H238340   1.706   4.452   1.272  1.7125  1.2481 -1.0174
 5569TIP3   OH238341   0.995   3.071   8.460 -0.1054  0.6646  0.0829
 5569TIP3    H138342   0.974   2.978   8.452 -5.1058  1.5065  0.2604
 5569TIP3    H238343   0.989   3.090   8.554  2.9024  0.9809  0.3321
 5570TIP3   OH238344   4.606   1.169   7.147 -0.1206  0.9179  0.4463
 5570TIP3    H138345   4.642   1.183   7.059 -0.9761  1.1920  0.1323
 5570TIP3    H238346   4.589   1.075   7.151  0.6056  0.7878  0.5928
 5571TIP3   OH238347   1.019   4.086   7.292  0.2916  0.0982  0.1748
 5571TIP3    H138348   1.113   4.073   7.280  0.3682  0.1794  0.6625
 5571TIP3    H238349   1.003   4.175   7.259  0.4748  0.2730  0.5557
 5572TIP3   OH238350   6.416   3.237   1.665  0.1751  0.1821 -0.1523
 5572TIP3    H138351   6.349   3.220   1.599 -0.1865 -0.3945  0.3560
 5572TIP3    H238352   6.492   3.187   1.635  0.6168  1.3434 -1.0726
 5573TIP3   OH238353   0.926   2.702   6.549 -0.1326  0.1377 -0.2924
 5573TIP3    H138354   0.849   2.712   6.492  0.1016 -1.5486 -0.9624
 5573TIP3    H238355   0.895   2.647   6.621  0.5836 -1.0809 -0.8919
 5574TIP3   OH238356   3.231   5.478   7.763  0.0446  0.1988 -0.2337
 5574TIP3    H138357   3.299   5.500   7.699 -0.1563  0.3016 -0.4154
 5574TIP3    H238358   3.170   5.421   7.715  0.3883 -0.4916  0.1411
 5575TIP3   OH238359   2.852   5.706   0.381  0.3062  0.5710 -0.0227
 5575TIP3    H138360   2.919   5.675   0.321  0.6356 -2.7865  1.7888
 5575TIP3    H238361   2.770   5.695   0.334  0.6787 -0.3305 -0.4762
 5576TIP3   OH238362   2.566   6.300   0.418 -0.2274  0.2768  0.5192
 5576TIP3    H138363   2.609   6.320   0.335  1.0815 -1.6522  0.6566
 5576TIP3    H238364   2.473   6.301   0.398  0.0974 -2.3101 -1.6006
 5577TIP3   OH238365   6.498   3.887   7.285  0.1980 -0.2296  0.2498
 5577TIP3    H138366   6.580   3.867   7.330 -0.4262 -0.8937  1.1368
 5577TIP3    H238367   6.433   3.895   7.355 -0.1801  2.0608 -0.2836
 5578TIP3   OH238368   6.529   2.348   6.723 -0.1277 -0.0111 -0.1497
 5578TIP3    H138369   6.461   2.338   6.657  0.1374 -1.3699 -0.2463
 5578TIP3    H238370   6.496   2.416   6.782 -0.9397  0.2998 -0.9429
 5579TIP3   OH238371   5.304   6.297   6.907 -0.2273 -0.2082 -0.0910
 5579TIP3    H138372   5.239   6.334   6.848 -0.2339  0.6090  0.4071
 5579TIP3    H238373   5.337   6.372   6.956 -1.1703 -1.0199  1.8987
 5580TIP3   OH238374   5.317   2.307   7.163  0.1763  0.3452  0.1152
 5580TIP3    H138375   5.263   2.266   7.095 -0.8418  1.2246  0.3573
 5580TIP3    H238376   5.394   2.251   7.170 -0.6251 -0.8697 -0.3669
 5581TIP3   OH238377   2.138   2.982   7.438 -0.0059  0.0190  0.2762
 5581TIP3    H138378   2.190   3.031   7.502  1.5719  0.3477 -1.1711
 5581TIP3    H238379   2.171   3.011   7.353 -0.5557 -1.9572 -0.6795
 5582TIP3   OH238380   3.344   4.081   7.256 -0.0351 -0.2062 -0.3244
 5582TIP3    H138381   3.284   4.019   7.297  0.3374 -1.7264 -1.9165
 5582TIP3    H238382   3.305   4.100   7.171 -1.3486  3.7179  0.9496
 5583TIP3   OH238383   2.221   6.306   8.444  0.3101 -0.5393  0.3185
 5583TIP3    H138384   2.295   6.355   8.408  0.4541 -0.3962  0.8033
 5583TIP3    H238385   2.255   6.217   8.456 -0.1494 -0.9452 -1.1952
 5584TIP3   OH238386   3.795   5.263   8.247  0.0345  0.4645  0.2156
 5584TIP3    H138387   3.868   5.306   8.203  0.4486 -0.8468 -0.4337
 5584TIP3    H238388   3.768   5.193   8.187 -1.0974  0.2883  0.8965
 5585TIP3   OH238389   1.774   1.929   1.019  0.0716 -0.2062  0.2162
 5585TIP3    H138390   1.861   1.893   1.036 -0.4319 -2.4315 -1.5371
 5585TIP3    H238391   1.786   2.024   1.028  2.6411 -0.4464  0.1106
 5586TIP3   OH238392   0.844   0.611   6.447  0.1846 -0.0446  0.3430
 5586TIP3    H138393   0.882   0.656   6.522 -0.3982  0.1014  0.5567
 5586TIP3    H238394   0.774   0.557   6.484 -1.5288  1.6133 -0.2766
 5587TIP3   OH238395   0.344   6.231   7.270  0.3266 -0.2679 -0.1263
 5587TIP3    H138396   0.330   6.325   7.278  0.4813 -0.2348 -0.2271
 5587TIP3    H238397   0.355   6.201   7.360  0.5845 -0.1392 -0.1134
 5588TIP3   OH238398   5.892   2.227   1.180  0.4288 -0.1718 -0.0750
 5588TIP3    H138399   5.803   2.205   1.208  0.6971 -1.1439  0.0665
 5588TIP3    H238400   5.880   2.275   1.098 -0.1916 -1.6891 -0.9247
 5589TIP3   OH238401   6.906   4.381   1.910  0.6476  0.4401 -0.2883
 5589TIP3    H138402   6.886   4.442   1.981  1.5456  1.6869 -1.0599
 5589TIP3    H238403   7.002   4.375   1.910  0.6921  0.7770 -1.6277
 5590TIP3   OH238404   4.832   3.612   6.816  0.0660 -0.0027 -0.1135
 5590TIP3    H138405   4.861   3.537   6.869 -1.1491  0.8829  1.9234
 5590TIP3    H238406   4.758   3.578   6.766 -0.2401 -0.2827  0.5096
 5591TIP3   OH238407   4.514   6.401   1.730  0.2893  0.1088 -0.7431
 5591TIP3    H138408   4.515   6.305   1.726 -2.5003 -0.0391 -0.0230
 5591TIP3    H238409   4.492   6.428   1.641  0.8703  0.0724 -0.8986
 5592TIP3   OH238410   4.593   2.553   6.699  0.0953  0.4954  0.3366
 5592TIP3    H138411   4.593   2.470   6.747  0.9776  0.4635  0.2938
 5592TIP3    H238412   4.667   2.546   6.639  0.5293  1.5457  0.7294
 5593TIP3   OH238413   6.839   6.100   0.382 -0.2392 -0.6853 -0.0458
 5593TIP3    H138414   6.780   6.039   0.426 -0.9814  0.0896  0.0844
 5593TIP3    H238415   6.821   6.185   0.424 -0.8075  0.0353 -1.6390
 5594TIP3   OH238416   6.758   3.581   7.358 -0.2600 -0.6256 -0.0742
 5594TIP3    H138417   6.818   3.606   7.429 -1.3430 -0.6275  0.8691
 5594TIP3    H238418   6.707   3.660   7.340  0.5487 -0.3786 -1.4480
 5595TIP3   OH238419   5.033   4.019   7.129 -0.3779  0.4879 -0.1827
 5595TIP3    H138420   4.998   3.980   7.049 -1.4007  1.7934 -0.3987
 5595TIP3    H238421   4.963   4.074   7.162 -1.2436 -2.3887  3.4172
 5596TIP3   OH238422   2.293   1.415   6.956 -0.2530  0.0479 -0.6115
 5596TIP3    H138423   2.230   1.486   6.961  1.3236  1.4112  1.3255
 5596TIP3    H238424   2.332   1.423   6.869 -0.2143  1.4737 -0.4780
 5597TIP3   OH238425   1.838   1.671   0.407 -0.0117  0.4562  0.5260
 5597TIP3    H138426   1.847   1.707   0.319 -0.6303  0.0499  0.2871
 5597TIP3    H238427   1.863   1.579   0.398  2.4597  0.9783  1.3189
 5598TIP3   OH238428   5.820   1.400   0.102 -0.0581 -0.0823 -0.3325
 5598TIP3    H138429   5.914   1.414   0.116 -0.3275  0.7562  0.7948
 5598TIP3    H238430   5.813   1.374   0.010  1.2034  0.6537 -0.6619
 5599TIP3   OH238431   1.316   2.112   7.131  0.6020  0.0805 -0.4289
 5599TIP3    H138432   1.350   2.196   7.103  0.6690  0.1226 -0.2249
 5599TIP3    H238433   1.259   2.133   7.205 -0.0378  0.0369 -0.9003
 5600TIP3   OH238434   4.770   3.655   6.060  0.2760  0.0995 -0.0728
 5600TIP3    H138435   4.823   3.661   6.140 -1.1010  1.6157  0.8083
 5600TIP3    H238436   4.752   3.562   6.049  1.2862 -0.2181  0.8442
 5601TIP3   OH238437   4.573   1.305   1.826  0.1479 -0.5955  0.4238
 5601TIP3    H138438   4.637   1.359   1.780 -0.0755  0.1758  1.0044
 5601TIP3    H238439   4.533   1.252   1.758  1.1644 -0.8499  0.0046
 5602TIP3   OH238440   0.130   4.336   7.442  0.2842 -0.6330  0.4506
 5602TIP3    H138441   0.126   4.243   7.418 -0.4211 -0.3989 -0.3425
 5602TIP3    H238442   0.213   4.367   7.405 -0.6513 -0.3457 -1.4878
 5603TIP3   OH238443   0.548   1.908   8.550  0.4024 -0.1438 -0.3761
 5603TIP3    H138444   0.506   1.915   8.636  3.2841 -1.7840  1.3081
 5603TIP3    H238445   0.503   1.974   8.496 -0.9939  1.5223  2.5794
 5604TIP3   OH238446   0.585   4.155   1.867 -0.5037  0.1086 -0.0477
 5604TIP3    H138447   0.661   4.104   1.895  0.1734  1.8871  1.5570
 5604TIP3    H238448   0.514   4.127   1.925 -0.4298  0.1629  0.0697
 5605TIP3   OH238449   4.675   1.769   7.615  0.7832 -0.4960 -0.2734
 5605TIP3    H138450   4.695   1.680   7.585  1.2776 -0.8910  1.1149
 5605TIP3    H238451   4.676   1.762   7.711 -2.7624  0.1989 -0.0418
 5606TIP3   OH238452   5.969   5.813   2.202 -0.0796 -0.5549 -0.1170
 5606TIP3    H138453   5.912   5.818   2.280 -1.0183  0.4167 -0.8312
 5606TIP3    H238454   5.925   5.869   2.138  0.5413 -1.5588 -1.4446
 5607TIP3   OH238455   1.765   2.145   8.069  0.2336  0.1386 -0.1039
 5607TIP3    H138456   1.778   2.108   8.156 -0.1113 -0.0287 -0.1224
 5607TIP3    H238457   1.673   2.129   8.050  0.5985 -0.9698 -1.0381
 5608TIP3   OH238458   5.509   2.004   7.541  0.1779 -0.8988 -0.2623
 5608TIP3    H138459   5.445   1.981   7.474  1.7602 -2.0123 -1.4839
 5608TIP3    H238460   5.458   2.011   7.622 -1.8320  0.6679 -1.5550
 5609TIP3   OH238461   3.905   2.333   1.002  0.0439  0.4557 -0.1563
 5609TIP3    H138462   3.951   2.407   1.041 -1.0617  1.3013 -0.4172
 5609TIP3    H238463   3.973   2.285   0.954  0.6746  1.5654 -0.3981
 5610TIP3   OH238464   3.245   5.232   0.632  0.1255  0.5235 -0.5170
 5610TIP3    H138465   3.273   5.226   0.541 -0.2653  1.8414 -0.7439
 5610TIP3    H238466   3.199   5.315   0.638 -0.6536  0.0428  0.6772
 5611TIP3   OH238467   5.213   1.702   0.481 -0.2867 -0.5263  0.4837
 5611TIP3    H138468   5.184   1.619   0.519 -1.7154  0.0465  0.7182
 5611TIP3    H238469   5.148   1.721   0.413  0.3231  0.1475  0.0699
 5612TIP3   OH238470   5.071   0.837   7.647  0.0821 -0.1128  0.0672
 5612TIP3    H138471   5.061   0.768   7.713 -0.9090  1.9284  2.1965
 5612TIP3    H238472   5.150   0.884   7.672 -0.4678  0.8769  0.0067
 5613TIP3   OH238473   6.824   0.866   7.118 -0.2838 -0.8704 -0.4628
 5613TIP3    H138474   6.899   0.838   7.171 -1.1969  0.8534  1.9412
 5613TIP3    H238475   6.754   0.880   7.182 -2.4464 -1.6153 -2.5212
 5614TIP3   OH238476   5.963   4.229   7.965  0.1580  0.0463  0.1332
 5614TIP3    H138477   6.045   4.277   7.959 -0.3423  0.8664 -0.3596
 5614TIP3    H238478   5.922   4.240   7.879 -0.5792 -0.1451  0.4482
 5615TIP3   OH238479   5.956   1.167   7.622 -0.7401  0.3106  0.1701
 5615TIP3    H138480   6.029   1.110   7.600  1.0127  0.8221  3.8820
 5615TIP3    H238481   5.937   1.214   7.541  2.5266 -0.4270 -1.1851
 5616TIP3   OH238482   3.060   2.225   0.075  0.4651 -0.4427  0.6284
 5616TIP3    H138483   3.131   2.191   0.021  0.6973  0.6272  0.2400
 5616TIP3    H238484   3.102   2.284   0.137  0.0884 -0.9899  1.4341
 5617TIP3   OH238485   6.160   5.508   7.822 -0.1045 -0.0416 -0.1254
 5617TIP3    H138486   6.072   5.483   7.795 -0.6182  0.8988  0.5948
 5617TIP3    H238487   6.158   5.604   7.824  1.0837  0.0077 -0.5549
 5618TIP3   OH238488   6.505   0.433   8.264  0.5038 -0.5765 -0.0301
 5618TIP3    H138489   6.475   0.358   8.316  2.0814 -1.4743 -0.3500
 5618TIP3    H238490   6.562   0.395   8.197  2.4024  1.0067  0.5889
 5619TIP3   OH238491   3.865   0.692   1.504 -0.5301  0.2814 -0.1673
 5619TIP3    H138492   3.920   0.738   1.567  0.2830 -2.6509  1.4473
 5619TIP3    H238493   3.775   0.713   1.531 -0.1906  0.8571  0.5540
 5620TIP3   OH238494   4.439   1.555   7.854  0.9279 -0.1990 -0.2165
 5620TIP3    H138495   4.521   1.595   7.882  0.7404  0.6068 -0.7848
 5620TIP3    H238496   4.439   1.469   7.896  0.7968  0.8036  1.9798
 5621TIP3   OH238497   1.124   4.843   1.618 -0.1675 -0.2991  0.0281
 5621TIP3    H138498   1.058   4.775   1.610 -0.0450 -0.5954  1.3717
 5621TIP3    H238499   1.205   4.796   1.637 -0.4224  0.2451  2.8886
 5622TIP3   OH238500   4.747   2.046   1.117 -0.0072 -0.6316 -0.3707
 5622TIP3    H138501   4.702   2.065   1.199  0.4458 -0.6726 -0.1051
 5622TIP3    H238502   4.765   1.952   1.121  0.6658 -0.5068 -0.1687
 5623TIP3   OH238503   3.388   6.758   6.422  0.2999 -0.3515 -1.0134
 5623TIP3    H138504   3.438   6.689   6.465 -1.1520 -1.1065 -0.4865
 5623TIP3    H238505   3.297   6.730   6.428 -0.1811  0.8071 -2.2713
 5624TIP3   OH238506   5.757   4.436   6.330 -0.1643  0.1954  0.4559
 5624TIP3    H138507   5.691   4.393   6.384  0.4783 -0.8179  0.4670
 5624TIP3    H238508   5.834   4.380   6.337 -0.8179 -1.6048 -3.6606
 5625TIP3   OH238509   1.801   6.002   0.845  0.1886 -0.5270  0.0909
 5625TIP3    H138510   1.818   5.908   0.841 -0.8107 -0.8017  1.4594
 5625TIP3    H238511   1.745   6.020   0.770 -2.0753 -1.6383  1.4046
 5626TIP3   OH238512   5.434   4.335   0.387  0.1834  0.0236 -0.1635
 5626TIP3    H138513   5.474   4.410   0.345 -0.6595  1.3965  1.3396
 5626TIP3    H238514   5.500   4.302   0.448  0.2858  0.0382 -0.2693
 5627TIP3   OH238515   0.543   2.878   8.302  0.1667 -0.1789 -0.3738
 5627TIP3    H138516   0.469   2.818   8.312 -1.0567  1.2444 -0.5634
 5627TIP3    H238517   0.593   2.868   8.383 -2.2029  1.3804  1.3983
 5628TIP3   OH238518   1.379   6.635   2.056  0.2102 -0.0131 -0.0680
 5628TIP3    H138519   1.398   6.713   2.005 -2.4086  1.4563  1.0310
 5628TIP3    H238520   1.291   6.609   2.028 -0.2634 -0.6358  1.8734
 5629TIP3   OH238521   6.796   1.273   0.776  0.1550  0.4051  0.1083
 5629TIP3    H138522   6.803   1.180   0.754 -0.2468 -0.0288  1.6815
 5629TIP3    H238523   6.778   1.274   0.870 -0.3924  2.0626  0.0184
 5630TIP3   OH238524   5.636   5.702   7.815 -0.3593 -0.5781  0.3615
 5630TIP3    H138525   5.647   5.666   7.727 -0.6024  1.2950 -0.4788
 5630TIP3    H238526   5.685   5.785   7.814 -2.2034  0.5915  1.2418
 5631TIP3   OH238527   5.582   5.583   0.470  0.5521 -0.2445  0.2737
 5631TIP3    H138528   5.563   5.669   0.434  1.4790  0.6014  1.6665
 5631TIP3    H238529   5.619   5.534   0.397  1.5657  1.0980 -0.1642
 5632TIP3   OH238530   4.428   1.820   1.000  0.0225  0.0143 -0.3438
 5632TIP3    H138531   4.483   1.863   0.936  0.0952  0.7053  0.1710
 5632TIP3    H238532   4.476   1.740   1.023 -0.0908 -0.3235 -1.2648
 5633TIP3   OH238533   1.519   6.679   2.287 -0.7265  0.3415  0.0416
 5633TIP3    H138534   1.462   6.731   2.344  0.4396 -0.3208  1.9240
 5633TIP3    H238535   1.464   6.657   2.212 -2.4158  1.1407  0.9767
 5634TIP3   OH238536   0.685   4.723   8.368 -0.6671 -0.0464 -0.1179
 5634TIP3    H138537   0.713   4.795   8.424 -0.9830 -1.8023  2.5006
 5634TIP3    H238538   0.671   4.650   8.429 -0.9702 -2.1449 -2.5420
 5635TIP3   OH238539   4.553   6.300   1.090  0.0213  0.1529 -0.3403
 5635TIP3    H138540   4.515   6.263   1.170  1.8425 -1.3052 -0.0687
 5635TIP3    H238541   4.511   6.385   1.080  0.4722  0.8615  2.7702
 5636TIP3   OH238542   5.411   6.831   2.251 -0.3875 -0.0864 -0.0725
 5636TIP3    H138543   5.362   6.905   2.287  1.4733  0.5264  1.4326
 5636TIP3    H238544   5.458   6.867   2.176  0.4279  0.2798  0.5913
 5637TIP3   OH238545   6.649   0.698   0.698  0.0329 -0.0209  0.2506
 5637TIP3    H138546   6.597   0.672   0.774  2.0041 -0.9538  1.3558
 5637TIP3    H238547   6.585   0.738   0.638 -1.4097  2.0524  2.9163
 5638TIP3   OH238548   5.082   4.929   7.602  0.3320  0.6723  0.1961
 5638TIP3    H138549   5.151   4.882   7.649  0.1538  1.1216  0.9286
 5638TIP3    H238550   5.002   4.881   7.623  0.5237 -0.3776 -1.3727
 5639TIP3   OH238551   5.556   6.491   2.286  0.6884  0.3232 -0.6212
 5639TIP3    H138552   5.584   6.500   2.377 -0.4027 -2.8052  0.1759
 5639TIP3    H238553   5.624   6.439   2.245  0.8601  1.1756 -1.4553
 5640TIP3   OH238554   6.669   4.384   2.627  0.6725 -0.1579 -0.2543
 5640TIP3    H138555   6.681   4.478   2.644 -0.1641 -0.0381 -0.3149
 5640TIP3    H238556   6.575   4.372   2.621  0.6678 -1.2767  1.3161
 5641TIP3   OH238557   4.478   5.435   0.184 -0.0963 -0.9323  0.0021
 5641TIP3    H138558   4.517   5.518   0.213 -0.8234 -0.5552 -0.0628
 5641TIP3    H238559   4.493   5.433   0.090  0.9602 -1.4470  0.1707
 5642TIP3   OH238560   6.802   5.626   1.240  0.1075  0.4773  0.0538
 5642TIP3    H138561   6.862   5.557   1.269 -0.7433  0.4983  2.0168
 5642TIP3    H238562   6.730   5.580   1.198  0.1448  0.2525  0.2337
 5643TIP3   OH238563   3.209   0.411   6.888 -0.1165 -0.7047 -0.3721
 5643TIP3    H138564   3.115   0.411   6.906  0.1314  1.0315  1.1725
 5643TIP3    H238565   3.221   0.340   6.826 -2.3110 -1.6074  0.1404
 5644TIP3   OH238566   1.803   2.984   1.273 -0.3280 -0.0693  0.1739
 5644TIP3    H138567   1.892   2.949   1.276  0.4925  1.8600  3.0186
 5644TIP3    H238568   1.808   3.058   1.212 -0.2751 -0.5970 -0.4694
 5645TIP3   OH238569   0.309   5.551   1.216 -0.0178  0.0536 -0.2481
 5645TIP3    H138570   0.362   5.486   1.263 -0.1251 -0.3281 -0.6392
 5645TIP3    H238571   0.273   5.502   1.142  0.0554  0.6152 -0.6595
 5646TIP3   OH238572   4.960   6.375   0.765 -0.2375 -0.2856  0.6390
 5646TIP3    H138573   4.932   6.460   0.729  0.8214  0.3074  1.1731
 5646TIP3    H238574   4.897   6.356   0.833 -0.5861 -0.0063  0.3989
 5647TIP3   OH238575   4.483   6.127   6.913 -0.1050 -0.4727  0.4604
 5647TIP3    H138576   4.518   6.194   6.854  0.0824 -0.9223  0.0529
 5647TIP3    H238577   4.392   6.153   6.928 -0.2143 -0.4704 -0.1989
 5648TIP3   OH238578   6.884   1.891   2.157  0.0189  0.4504 -0.4141
 5648TIP3    H138579   6.964   1.871   2.109  0.6331  1.0286  0.3295
 5648TIP3    H238580   6.913   1.950   2.228 -1.0531  0.6344 -0.1098
 5649TIP3   OH238581   4.445   6.234   0.277  0.5137 -0.2744  0.0334
 5649TIP3    H138582   4.511   6.241   0.208  0.6898  3.0423  0.3831
 5649TIP3    H238583   4.364   6.215   0.231  1.2769 -2.1954 -0.6135
 5650TIP3   OH238584   6.711   3.221   8.414 -0.4976  0.2506 -0.0881
 5650TIP3    H138585   6.788   3.278   8.417 -1.1586  1.1800 -0.2988
 5650TIP3    H238586   6.692   3.202   8.506  0.5015 -0.7184 -0.0700
 5651TIP3   OH238587   2.319   3.876   0.734 -0.1341 -0.2417  0.0794
 5651TIP3    H138588   2.269   3.922   0.667  0.1276  2.3522  1.5495
 5651TIP3    H238589   2.404   3.858   0.694 -0.0791  1.0242 -0.3948
 5652TIP3   OH238590   0.724   2.300   7.494  0.3392 -0.2159  0.0097
 5652TIP3    H138591   0.638   2.339   7.508  1.4170  1.6347  2.1703
 5652TIP3    H238592   0.758   2.344   7.415 -0.0978  0.1579  0.0288
 5653TIP3   OH238593   5.194   1.546   8.055 -0.5751  0.1470 -0.2171
 5653TIP3    H138594   5.288   1.534   8.063  0.1582  2.0706 -3.6955
 5653TIP3    H238595   5.161   1.459   8.031 -0.0758 -0.9425  2.6661
 5654TIP3   OH238596   4.620   1.621   0.249  0.2114  0.2728 -0.1280
 5654TIP3    H138597   4.624   1.653   0.159  0.4842  0.7701  0.0592
 5654TIP3    H238598   4.552   1.553   0.247 -0.3300  0.8177 -0.5378
 5655TIP3   OH238599   3.575   2.795   2.460  0.3519  0.4339  0.0214
 5655TIP3    H138600   3.488   2.802   2.420 -0.4513  0.9579  1.7496
 5655TIP3    H238601   3.583   2.703   2.485 -0.5273  0.7267  1.5103
 5656TIP3   OH238602   5.145   3.512   7.983  0.0292  0.7584 -0.5556
 5656TIP3    H138603   5.171   3.448   8.049  0.2816  0.5730 -0.8305
 5656TIP3    H238604   5.077   3.469   7.932  0.1369  0.7383 -0.6852
 5657TIP3   OH238605   6.104   6.643   0.828 -0.2692 -0.4023  0.1410
 5657TIP3    H138606   6.100   6.715   0.765 -0.2676 -0.2464  0.3182
 5657TIP3    H238607   6.040   6.579   0.796  0.3326 -0.7115 -0.4917
 5658TIP3   OH238608   5.479   6.189   6.682  0.2390 -0.0336  0.2441
 5658TIP3    H138609   5.516   6.254   6.622  0.9436 -0.2391  0.4529
 5658TIP3    H238610   5.459   6.240   6.761  0.2364  0.0433  0.1947
 5659TIP3   OH238611   0.274   3.047   7.126 -0.1068  0.4714 -0.1987
 5659TIP3    H138612   0.203   3.022   7.067 -2.4405  1.4984  1.9727
 5659TIP3    H238613   0.275   3.143   7.124 -0.6884  0.5690  1.8093
 5660TIP3   OH238614   1.497   6.003   6.220 -0.6417 -0.2148 -0.2803
 5660TIP3    H138615   1.513   6.060   6.296 -0.9596  1.9218 -1.7263
 5660TIP3    H238616   1.573   6.016   6.164 -1.1718 -0.4474 -1.0734
 5661TIP3   OH238617   5.031   2.158   8.387  0.6384 -0.2006 -0.1061
 5661TIP3    H138618   5.121   2.180   8.412  0.0609  1.9795  0.3307
 5661TIP3    H238619   4.978   2.230   8.424 -1.1763 -0.9624 -1.0950
 5662TIP3   OH238620   0.938   4.103   6.551  0.6031  0.1420  0.5546
 5662TIP3    H138621   0.974   4.118   6.463 -0.0235  1.5027  0.5028
 5662TIP3    H238622   0.936   4.190   6.591 -1.2170 -0.1063  1.0921
 5663TIP3   OH238623   6.230   2.663   6.968  0.1459  0.3743  0.0348
 5663TIP3    H138624   6.261   2.733   6.910  3.1778  1.1353  2.2753
 5663TIP3    H238625   6.310   2.620   6.998 -1.1057  0.3868  3.9772
 5664TIP3   OH238626   0.963   1.140   1.290 -0.2826  0.0084 -0.0710
 5664TIP3    H138627   1.017   1.164   1.215 -0.4195 -2.7806 -1.1771
 5664TIP3    H238628   0.874   1.165   1.265 -0.1401  0.3196 -0.2601
 5665TIP3   OH238629   5.304   5.694   0.985 -0.4328  0.1561  0.0754
 5665TIP3    H138630   5.274   5.661   0.901 -1.8578  1.3630  0.0793
 5665TIP3    H238631   5.282   5.787   0.984  2.5192  0.9747  0.4802
 5666TIP3   OH238632   4.459   6.621   7.518  0.1150  0.3566  0.2519
 5666TIP3    H138633   4.552   6.622   7.494  0.1640 -1.4141  0.2478
 5666TIP3    H238634   4.413   6.615   7.434  0.0894 -0.8586  0.3452
 5667TIP3   OH238635   2.687   6.104   1.656  0.1127 -0.4703  0.1585
 5667TIP3    H138636   2.625   6.050   1.608  0.8715  0.1310 -1.6033
 5667TIP3    H238637   2.773   6.078   1.622  0.4266  4.0156 -3.4828
 5668TIP3   OH238638   5.968   5.906   7.804 -0.7395  0.2587 -0.5300
 5668TIP3    H138639   5.964   5.867   7.891 -0.4441 -0.3010 -0.7589
 5668TIP3    H238640   5.936   5.995   7.816  1.1074  0.8363  0.5182
 5669TIP3   OH238641   0.859   3.223   5.982 -0.2602 -0.0708 -0.6357
 5669TIP3    H138642   0.929   3.282   5.952  0.0804 -0.3553 -0.4087
 5669TIP3    H238643   0.793   3.227   5.913 -1.6094  2.8064  0.6083
 5670TIP3   OH238644   3.928   2.018   7.988 -0.5957 -0.3059 -0.1930
 5670TIP3    H138645   4.000   2.068   7.948  0.0153 -0.2360  0.9592
 5670TIP3    H238646   3.872   1.994   7.914 -1.3369  2.7157 -0.7814
 5671TIP3   OH238647   2.171   0.060   1.170 -0.2602 -0.2457  0.2786
 5671TIP3    H138648   2.165  -0.006   1.101  2.7677 -0.9420  0.5048
 5671TIP3    H238649   2.213   0.014   1.244 -0.1357  1.3593  1.2657
 5672TIP3   OH238650   4.148   1.457   0.896 -0.5719  0.3049  0.0023
 5672TIP3    H138651   4.113   1.546   0.896 -0.9956  0.1535  0.8415
 5672TIP3    H238652   4.243   1.468   0.899 -0.6074  0.7250 -0.3365
 5673TIP3   OH238653   2.943   4.515   1.785 -0.6132  0.6953 -0.4435
 5673TIP3    H138654   2.900   4.590   1.826 -0.8446 -0.0282  0.6737
 5673TIP3    H238655   2.909   4.514   1.695  0.7955  3.0140 -1.1051
 5674TIP3   OH238656   2.912   4.357   0.825  0.2408 -0.3659 -0.3325
 5674TIP3    H138657   2.902   4.323   0.736 -0.2496 -1.1397  0.0132
 5674TIP3    H238658   2.994   4.407   0.822  1.0236 -1.6281 -0.8369
 5675TIP3   OH238659   1.527   5.153   1.644  0.1242 -0.7035 -0.3092
 5675TIP3    H138660   1.602   5.100   1.616  0.3676  0.1362 -1.3582
 5675TIP3    H238661   1.509   5.124   1.733  1.6394 -1.0141 -0.0656
 5676TIP3   OH238662   0.348   0.521   1.234  0.2073  0.5967  0.2802
 5676TIP3    H138663   0.268   0.491   1.278 -0.8310  0.8961 -1.3230
 5676TIP3    H238664   0.331   0.507   1.141  1.9869  0.8085 -0.1115
 5677TIP3   OH238665   0.066   0.193   2.019  0.4355  0.2358 -0.6236
 5677TIP3    H138666   0.081   0.192   2.114  1.2403  0.0925 -0.7457
 5677TIP3    H238667   0.001   0.262   2.006 -1.5880 -1.3730  0.2970
 5678TIP3   OH238668   1.683   3.616   7.575 -0.3434  0.4340 -0.0275
 5678TIP3    H138669   1.732   3.656   7.504 -0.4392  0.5222 -0.0448
 5678TIP3    H238670   1.604   3.581   7.533 -0.2894  0.2777 -0.0030
 5679TIP3   OH238671   4.869   3.175   2.228  0.4960  0.2338 -0.6432
 5679TIP3    H138672   4.842   3.215   2.145 -0.8622 -0.0238 -0.3521
 5679TIP3    H238673   4.788   3.141   2.265  1.4003 -1.5831 -0.2359
 5680TIP3   OH238674   3.613   5.160   8.558 -0.0277  0.2186 -0.3824
 5680TIP3    H138675   3.706   5.142   8.553  0.1725  1.1811 -0.3468
 5680TIP3    H238676   3.592   5.154   8.651 -0.0235 -0.0499 -0.3961
 5681TIP3   OH238677   4.739   1.039   2.473 -0.3793 -0.0469 -0.0548
 5681TIP3    H138678   4.823   1.039   2.426  0.0038 -1.1627  0.6082
 5681TIP3    H238679   4.675   1.013   2.407 -0.4877  2.2951 -0.9754
 5682TIP3   OH238680   4.544   6.911   1.271 -0.6865  0.0165 -0.2112
 5682TIP3    H138681   4.612   6.975   1.250 -0.2965 -0.3861 -0.1913
 5682TIP3    H238682   4.461   6.956   1.253 -0.4529  0.8688  0.7673
 5683TIP3   OH238683   6.125   1.213   1.821  0.6677 -0.4818 -0.5369
 5683TIP3    H138684   6.057   1.148   1.804  0.1011 -0.0600  0.0597
 5683TIP3    H238685   6.093   1.262   1.897 -0.0253  1.9820 -2.2938
 5684TIP3   OH238686   2.253   2.378   0.961 -0.3262 -0.8469  0.2468
 5684TIP3    H138687   2.183   2.381   0.896  1.0235 -0.2415 -1.2401
 5684TIP3    H238688   2.299   2.462   0.950  0.5345 -1.1686  1.2869
 5685TIP3   OH238689   3.817   1.650   2.177 -0.0486  0.1759 -0.8511
 5685TIP3    H138690   3.780   1.738   2.170  0.2009  0.4895  1.2212
 5685TIP3    H238691   3.897   1.661   2.228 -0.0795 -1.2629 -0.4410
 5686TIP3   OH238692   5.658   0.955   7.184 -0.1609  0.0337 -0.1628
 5686TIP3    H138693   5.685   0.876   7.230 -1.4567  0.2846  1.0855
 5686TIP3    H238694   5.725   0.967   7.117  3.0522  0.8266  2.9012
 5687TIP3   OH238695   3.048   2.162   1.214 -0.0308 -0.0515 -0.4708
 5687TIP3    H138696   3.062   2.253   1.240  0.3469 -0.3780  0.5351
 5687TIP3    H238697   3.052   2.163   1.119  0.2306  0.9428 -0.4581
 5688TIP3   OH238698   6.224   3.411   7.031 -0.1000 -0.5287  0.1052
 5688TIP3    H138699   6.248   3.492   6.986  1.7737 -0.2008  1.5560
 5688TIP3    H238700   6.256   3.341   6.975  0.1747 -0.1917 -0.1598
 5689TIP3   OH238701   3.484   6.633   6.663 -0.7593 -0.0359 -0.0311
 5689TIP3    H138702   3.569   6.662   6.694 -0.1329 -0.3690 -1.3489
 5689TIP3    H238703   3.425   6.704   6.684 -0.2579 -0.0002  1.3234
 5690TIP3   OH238704   4.395   6.660   8.096 -0.3042 -0.5933  0.2331
 5690TIP3    H138705   4.415   6.747   8.059  0.2675 -0.7849  0.0845
 5690TIP3    H238706   4.299   6.660   8.105 -0.4222 -0.3795 -0.8620
 5691TIP3   OH238707   5.201   4.718   8.295 -0.3967  1.0141 -0.1793
 5691TIP3    H138708   5.153   4.720   8.378 -0.1066  0.4187  0.0042
 5691TIP3    H238709   5.213   4.625   8.276 -0.2714  1.1520 -0.7783
 5692TIP3   OH238710   6.026   2.606   1.702 -0.1396 -0.9054 -0.3723
 5692TIP3    H138711   6.000   2.514   1.704 -1.9544 -0.4438  1.2671
 5692TIP3    H238712   5.943   2.654   1.693  0.1071  0.6578  3.6022
 5693TIP3   OH238713   2.510   1.934   0.966 -0.3075 -0.0964  0.8176
 5693TIP3    H138714   2.586   1.992   0.974 -1.0468  1.0441  0.0641
 5693TIP3    H238715   2.435   1.994   0.964 -0.9763 -0.8621 -2.2592
 5694TIP3   OH238716   2.083   6.620   0.772  0.5409  0.5120  0.0081
 5694TIP3    H138717   2.036   6.700   0.747 -0.5402  0.1097  0.6831
 5694TIP3    H238718   2.056   6.555   0.709 -0.9861 -0.0976  1.2263
 5695TIP3   OH238719   0.575   6.510   2.611  0.7521 -0.2927  0.2007
 5695TIP3    H138720   0.529   6.449   2.552 -0.3178  0.0853  0.6154
 5695TIP3    H238721   0.604   6.455   2.684 -0.3003 -0.3109  0.6241
 5696TIP3   OH238722   3.312   4.150   7.797  0.1213  0.2336  0.0414
 5696TIP3    H138723   3.346   4.080   7.853  0.3077  0.7429  0.5621
 5696TIP3    H238724   3.262   4.206   7.855 -1.3215 -0.2904 -0.6475
 5697TIP3   OH238725   5.623   0.467   1.206  0.3420  0.1675  0.4663
 5697TIP3    H138726   5.676   0.398   1.166 -4.0954 -1.7129 -3.0940
 5697TIP3    H238727   5.620   0.537   1.140 -1.0063  0.4517  0.7875
 5698TIP3   OH238728   2.364   6.035   1.975 -0.1436  0.5520  0.9341
 5698TIP3    H138729   2.346   6.125   2.002 -1.0177  0.1007  1.9372
 5698TIP3    H238730   2.440   6.042   1.917 -2.1578  2.3363 -1.7202
 5699TIP3   OH238731   0.840   3.425   0.804  0.6951 -0.5481  0.4829
 5699TIP3    H138732   0.830   3.331   0.790 -0.5091 -0.8274  2.7450
 5699TIP3    H238733   0.929   3.445   0.774 -0.7032 -1.2022 -5.2959
 5700TIP3   OH238734   5.974   1.322   2.029 -0.1799 -0.0339  0.5781
 5700TIP3    H138735   5.979   1.309   2.123  1.7863  0.0900  0.5476
 5700TIP3    H238736   5.917   1.253   1.997 -0.2900 -0.5176  1.7861
 5701TIP3   OH238737   2.537   3.177   7.639 -0.7104 -0.2610 -0.0721
 5701TIP3    H138738   2.509   3.252   7.691 -2.2984 -0.5383 -0.4966
 5701TIP3    H238739   2.581   3.216   7.563  1.6056  0.1500  1.3518
 5702TIP3   OH238740   2.524   2.695   0.538 -0.3826 -0.2244  0.1659
 5702TIP3    H138741   2.594   2.633   0.559 -1.8472 -1.7357  0.9163
 5702TIP3    H238742   2.487   2.663   0.456  0.4641  1.2136 -0.8167
 5703TIP3   OH238743   1.905   6.480   7.111  0.0331 -0.5175  0.3667
 5703TIP3    H138744   1.924   6.521   7.195 -0.0620  0.2083  0.0427
 5703TIP3    H238745   1.833   6.532   7.074  0.5801 -0.3420 -0.4956
 5704TIP3   OH238746   0.731   3.266   1.545  0.2004 -0.0434  0.0912
 5704TIP3    H138747   0.775   3.348   1.565  0.1330 -0.2417  1.1184
 5704TIP3    H238748   0.653   3.265   1.601 -0.2542 -0.4293 -0.5216
 5705TIP3   OH238749   6.336   3.704   6.804  0.1995 -0.0072  0.0888
 5705TIP3    H138750   6.390   3.693   6.882  2.3433  2.3947 -0.8971
 5705TIP3    H238751   6.383   3.657   6.735 -1.0938 -1.1689 -0.0589
 5706TIP3   OH238752   2.174   0.857   0.204 -0.2482 -0.4271 -0.2821
 5706TIP3    H138753   2.231   0.783   0.181  0.0770 -0.0310 -0.7770
 5706TIP3    H238754   2.216   0.933   0.163 -1.3146 -0.1776 -0.9655
 5707TIP3   OH238755   0.002   5.185   1.480  0.1194 -0.0612  0.0674
 5707TIP3    H138756   0.077   5.186   1.421 -0.0896 -0.1479 -0.2061
 5707TIP3    H238757   0.036   5.153   1.563  0.3739 -0.1439 -0.0691
 5708TIP3   OH238758   4.654   1.025   0.575  0.6195 -0.0026  0.0581
 5708TIP3    H138759   4.640   0.963   0.647  1.6475  1.2256  1.3767
 5708TIP3    H238760   4.573   1.076   0.571 -0.1822 -1.2892 -0.9517
 5709TIP3   OH238761   1.349   3.554   8.422  0.1788  0.2631  0.0763
 5709TIP3    H138762   1.339   3.467   8.459 -1.0953  0.3898  0.0846
 5709TIP3    H238763   1.442   3.561   8.400  0.4687 -0.7468  0.9160
 5710TIP3   OH238764   1.301   5.381   1.827 -0.2041  0.6968  0.0872
 5710TIP3    H138765   1.386   5.340   1.836 -1.3848 -1.4840  2.5681
 5710TIP3    H238766   1.302   5.420   1.740  2.6074 -0.8721 -0.6866
 5711TIP3   OH238767   0.353   5.415   8.148 -0.2550 -0.4832 -0.1533
 5711TIP3    H138768   0.419   5.466   8.101  0.3847 -2.0151 -0.9874
 5711TIP3    H238769   0.306   5.368   8.079 -1.2303 -0.5797  0.5548
 5712TIP3   OH238770   2.674   5.280   0.146  0.7115 -0.3541 -0.0044
 5712TIP3    H138771   2.584   5.250   0.164  0.9268 -0.4708  0.9172
 5712TIP3    H238772   2.692   5.248   0.058 -0.3800  0.2077 -0.4612
 5713TIP3   OH238773   3.415   0.363   0.537  0.3900 -0.5373 -0.2537
 5713TIP3    H138774   3.508   0.385   0.537  0.5790 -1.1304  2.0508
 5713TIP3    H238775   3.406   0.297   0.468  1.9738 -1.5834  0.4850
 5714TIP3   OH238776   5.248   4.697   8.003 -0.1652  0.0230 -0.0621
 5714TIP3    H138777   5.197   4.713   8.082 -0.1400 -0.3354  0.0273
 5714TIP3    H238778   5.200   4.628   7.957  0.7413 -0.9939  0.4874
 5715TIP3   OH238779   6.218   5.943   2.184  0.2142  0.5967 -0.3825
 5715TIP3    H138780   6.150   5.897   2.134 -2.1236  3.9562 -0.6663
 5715TIP3    H238781   6.207   5.912   2.273  1.6049 -2.3716 -1.1441
 5716TIP3   OH238782   0.795   2.629   7.719  0.3396 -0.0327  0.5843
 5716TIP3    H138783   0.828   2.599   7.634 -1.2280 -1.0587  0.2974
 5716TIP3    H238784   0.790   2.725   7.710 -2.1756 -0.2484 -1.4694
 5717TIP3   OH238785   4.887   1.248   1.787  0.3327 -0.0008  0.3129
 5717TIP3    H138786   4.946   1.237   1.712 -0.1371 -0.0598 -0.0518
 5717TIP3    H238787   4.827   1.318   1.760  0.4177  0.2606  0.7990
 5718TIP3   OH238788   4.524   0.527   1.237  0.1274  0.5824 -0.2097
 5718TIP3    H138789   4.571   0.533   1.154 -0.6154 -0.7294 -0.7468
 5718TIP3    H238790   4.489   0.615   1.251 -0.7251  0.5402 -1.8875
 5719TIP3   OH238791   2.209   1.644   7.728 -0.5369 -0.0388  0.2291
 5719TIP3    H138792   2.141   1.711   7.738 -1.2133 -0.7020  0.1775
 5719TIP3    H238793   2.161   1.565   7.704  0.3529 -0.2468 -0.9655
 5720TIP3   OH238794   2.541   1.500   7.138  0.7156 -0.3697 -0.4266
 5720TIP3    H138795   2.538   1.420   7.191  0.6041 -0.7210 -0.9503
 5720TIP3    H238796   2.495   1.476   7.058 -1.7083  1.0081  0.4451
 5721TIP3   OH238797   0.773   1.543   0.249 -0.3744 -0.3112  0.0162
 5721TIP3    H138798   0.794   1.450   0.249 -0.0936 -0.2582 -0.9022
 5721TIP3    H238799   0.692   1.550   0.300 -2.1420 -1.5037 -2.4384
 5722TIP3   OH238800   3.670   5.072   0.392 -0.2338 -0.0562  0.1205
 5722TIP3    H138801   3.660   5.131   0.466  0.8080 -0.1544  0.3477
 5722TIP3    H238802   3.587   5.080   0.344 -0.8898  0.0702  1.2359
 5723TIP3   OH238803   2.291   3.627   0.829  0.2694  0.3702  0.2564
 5723TIP3    H138804   2.200   3.610   0.853  0.3146  1.3610  1.2420
 5723TIP3    H238805   2.290   3.714   0.791  0.8201  0.4319  0.3728
 5724TIP3   OH238806   0.179   6.534   0.429 -0.5492 -0.0734 -0.3996
 5724TIP3    H138807   0.154   6.443   0.447  0.1882 -0.3429 -0.7151
 5724TIP3    H238808   0.096   6.582   0.431 -0.7570 -0.3909  1.8502
 5725TIP3   OH238809   6.544   1.627   8.445  0.0131 -0.0547 -0.2610
 5725TIP3    H138810   6.533   1.701   8.385 -1.8031 -1.1050 -1.2883
 5725TIP3    H238811   6.455   1.600   8.467  0.6093  0.0039  2.6257
 5726TIP3   OH238812   6.174   6.919   8.376  0.1536  0.4324  0.2375
 5726TIP3    H138813   6.115   6.988   8.344  0.2640  0.9664  1.1545
 5726TIP3    H238814   6.205   6.952   8.460  1.5057  0.0082 -0.0791
 5727TIP3   OH238815   0.641   3.471   0.607  0.4907 -0.7563  0.4399
 5727TIP3    H138816   0.690   3.425   0.540  0.7081 -1.7978  1.2951
 5727TIP3    H238817   0.705   3.491   0.675  0.2730  0.2796  0.3685
 5728TIP3   OH238818   5.512   1.453   2.406  0.2559  0.7512 -0.2440
 5728TIP3    H138819   5.471   1.378   2.450  0.9556  0.0332 -0.7712
 5728TIP3    H238820   5.591   1.415   2.365  0.3203  1.6727 -0.9862
 5729TIP3   OH238821   5.606   2.628   1.196 -0.2321  0.2624  0.2648
 5729TIP3    H138822   5.699   2.639   1.217 -0.3353 -1.3465  1.8568
 5729TIP3    H238823   5.581   2.708   1.150  1.7565  1.0415  0.4786
 5730TIP3   OH238824   6.932   1.197   8.334 -0.0338 -0.1989  0.2689
 5730TIP3    H138825   6.869   1.178   8.404  0.9590  1.0045  1.5493
 5730TIP3    H238826   6.890   1.266   8.283 -0.6938 -0.9687 -0.2595
 5731TIP3   OH238827   0.136   5.348   7.986  0.5479  0.1326  0.1012
 5731TIP3    H138828   0.206   5.343   7.921  1.1371  1.9374  0.5503
 5731TIP3    H238829   0.056   5.360   7.933  0.8086 -0.0552 -0.3425
 5732TIP3   OH238830   4.843   6.599   0.725 -0.1247  0.0954 -0.5038
 5732TIP3    H138831   4.874   6.619   0.813 -0.8591 -0.5564 -0.0786
 5732TIP3    H238832   4.826   6.684   0.685 -2.5628  0.4357  1.0165
 5733TIP3   OH238833   2.961   2.890   0.401  0.1312  0.1427 -0.4911
 5733TIP3    H138834   2.918   2.879   0.316  0.6747 -1.5306 -0.5772
 5733TIP3    H238835   3.005   2.807   0.417 -0.5862  0.1364  1.8046
 5734TIP3   OH238836   5.565   1.167   8.113 -0.1448 -0.0285  0.3090
 5734TIP3    H138837   5.528   1.078   8.110  2.0415 -1.0020  0.5814
 5734TIP3    H238838   5.570   1.188   8.206 -1.0745  0.5875  0.2297
 5735TIP3   OH238839   5.514   1.669   7.452 -0.2090 -0.2204  0.4818
 5735TIP3    H138840   5.462   1.613   7.395  1.0169  0.5785 -1.5553
 5735TIP3    H238841   5.507   1.756   7.412  1.0614  0.2798  1.2900
 5736TIP3   OH238842   4.109   2.777   0.977  0.2191 -0.1107  0.6691
 5736TIP3    H138843   4.177   2.787   0.910 -1.1074 -0.6224 -0.8131
 5736TIP3    H238844   4.100   2.682   0.987  0.2322 -0.0383  1.4169
 5737TIP3   OH238845   3.660   2.214   2.418  0.0286 -0.2626  0.0358
 5737TIP3    H138846   3.585   2.157   2.402 -0.7618  1.1270 -1.5930
 5737TIP3    H238847   3.698   2.229   2.331  0.0246  1.8837  0.3409
 5738TIP3   OH238848   4.864   3.334   1.617 -0.1555 -0.1792  0.4632
 5738TIP3    H138849   4.860   3.243   1.587 -0.5250 -0.2145  0.6198
 5738TIP3    H238850   4.784   3.374   1.583  1.8022  1.1883 -3.1102
 5739TIP3   OH238851   3.418   0.550   0.132 -0.3260 -0.7125  0.2444
 5739TIP3    H138852   3.356   0.553   0.059  0.9384 -0.5999 -0.8538
 5739TIP3    H238853   3.363   0.555   0.210 -1.6074  1.1805 -0.7155
 5740TIP3   OH238854   3.977   6.044   7.372  0.9422  0.1807  0.0522
 5740TIP3    H138855   4.068   6.023   7.350  0.2917 -1.3520 -1.4270
 5740TIP3    H238856   3.975   6.139   7.376  2.2506  0.3530 -1.7351
 5741TIP3   OH238857   3.982   5.886   8.037 -0.5367 -0.5610  0.2094
 5741TIP3    H138858   3.896   5.864   8.000 -0.6344 -1.1554  0.7742
 5741TIP3    H238859   4.038   5.899   7.960 -1.3607  0.8456 -0.1922
 5742TIP3   OH238860   0.452   1.562   6.432 -0.6818 -0.3530  0.3005
 5742TIP3    H138861   0.436   1.536   6.342  1.3526 -1.4543  0.2203
 5742TIP3    H238862   0.451   1.480   6.482  0.1785  0.0244  0.9567
 5743TIP3   OH238863   2.984   4.254   2.070  0.4234  0.4338  0.3566
 5743TIP3    H138864   2.976   4.349   2.082 -3.6853  0.3524 -0.3489
 5743TIP3    H238865   3.010   4.222   2.156 -1.5978  1.9933  1.6528
 5744TIP3   OH238866   3.883   2.291   0.273  0.0418 -0.4031  0.0174
 5744TIP3    H138867   3.931   2.214   0.304  1.1173  0.4911  0.6209
 5744TIP3    H238868   3.876   2.348   0.349  1.8000  1.3724 -1.0557
 5745TIP3   OH238869   2.125   5.254   2.656 -0.0124 -0.1590 -0.2306
 5745TIP3    H138870   2.210   5.234   2.695  0.3635 -0.0147 -0.9404
 5745TIP3    H238871   2.064   5.193   2.697  0.1312  0.7390  1.4029
 5746TIP3   OH238872   2.544   4.211   8.282  0.3389 -0.4772 -0.3392
 5746TIP3    H138873   2.621   4.228   8.228  1.1469 -0.6390  0.7253
 5746TIP3    H238874   2.513   4.298   8.307  1.8026 -0.4040  1.4223
 5747TIP3   OH238875   1.167   2.261   0.984  0.1015  0.0360 -0.5877
 5747TIP3    H138876   1.242   2.202   0.981 -1.0079 -1.3774 -2.7120
 5747TIP3    H238877   1.116   2.231   1.060  1.4947  0.8606  0.7316
 5748TIP3   OH238878   0.223   6.494   7.812  0.6116  0.4557  0.1353
 5748TIP3    H138879   0.240   6.566   7.751  3.0240 -0.3715 -0.2618
 5748TIP3    H238880   0.309   6.463   7.839 -0.3476 -1.6903  1.0403
 5749TIP3   OH238881   4.496   4.262   7.259  0.5393  1.0584  0.6609
 5749TIP3    H138882   4.558   4.264   7.331 -0.5292  0.9020  1.6105
 5749TIP3    H238883   4.446   4.344   7.267 -0.7641  0.2496  1.2068
 5750TIP3   OH238884   2.006   2.532   7.285 -0.4179  0.3426 -0.4180
 5750TIP3    H138885   1.986   2.523   7.378  1.0521 -0.7200 -0.1651
 5750TIP3    H238886   1.986   2.446   7.248  1.1618  0.0132 -0.6069
 5751TIP3   OH238887   6.593   6.257   7.980  0.5546  0.4555 -0.4613
 5751TIP3    H138888   6.680   6.272   8.018  0.5503  0.5855 -0.5010
 5751TIP3    H238889   6.611   6.209   7.899  0.5502  0.0103 -0.1985
 5752TIP3   OH238890   3.987   3.897   0.940 -0.2972 -0.7428  0.1258
 5752TIP3    H138891   4.051   3.832   0.911  0.7568  0.7674 -1.0647
 5752TIP3    H238892   4.033   3.981   0.935 -2.2880  0.3938 -0.5905
 5753TIP3   OH238893   3.044   0.977   0.607 -0.6914  0.1987  0.1123
 5753TIP3    H138894   3.087   1.058   0.579  1.0854 -0.8059 -0.2610
 5753TIP3    H238895   2.985   0.955   0.535 -1.2463  1.1762  0.2475
 5754TIP3   OH238896   6.332   6.338   7.171  0.1949  0.5071 -0.5864
 5754TIP3    H138897   6.238   6.343   7.189  0.0606  2.0866 -1.5340
 5754TIP3    H238898   6.337   6.291   7.087  0.3146 -0.0881 -0.2568
 5755TIP3   OH238899   4.632   0.180   7.742  0.4852  0.2314  0.1280
 5755TIP3    H138900   4.593   0.233   7.812  2.0545  0.4377  0.8798
 5755TIP3    H238901   4.578   0.100   7.740 -2.0415  1.8376 -1.1496
 5756TIP3   OH238902   1.979   1.828   6.400  0.3522  0.3163 -0.0147
 5756TIP3    H138903   2.044   1.807   6.467  1.3516 -0.9678 -1.3257
 5756TIP3    H238904   1.916   1.885   6.444  0.8363 -0.6826  2.0658
 5757TIP3   OH238905   0.577   0.272   8.324  0.0606 -0.1283 -0.0691
 5757TIP3    H138906   0.483   0.290   8.324  0.2146  0.7028  0.3062
 5757TIP3    H238907   0.612   0.329   8.255  0.3430 -0.1289  0.0726
 5758TIP3   OH238908   2.178   1.767   0.563 -0.3261 -0.0820 -0.2981
 5758TIP3    H138909   2.133   1.851   0.558  1.6066  0.9765 -1.4180
 5758TIP3    H238910   2.260   1.786   0.609  0.4262 -1.1803 -1.1013
 5759TIP3   OH238911   3.737   2.910   8.550  0.3492  0.0682  0.2558
 5759TIP3    H138912   3.816   2.865   8.580  0.3141 -0.1221  0.0680
 5759TIP3    H238913   3.764   3.001   8.537  0.6986 -0.1269 -0.4115
 5760TIP3   OH238914   1.729   5.829   7.251 -0.5480  0.2702  0.3466
 5760TIP3    H138915   1.692   5.893   7.191 -1.3891  0.8068  1.4067
 5760TIP3    H238916   1.804   5.873   7.290  0.4562 -0.3475 -0.8321
 5761TIP3   OH238917   2.473   4.336   2.482 -0.1623 -0.1797  0.1903
 5761TIP3    H138918   2.451   4.269   2.547  1.9211 -0.5720  0.5668
 5761TIP3    H238919   2.409   4.405   2.496 -0.6937 -0.9317  1.6386
 5762TIP3   OH238920   3.075   0.290   0.395  0.0043 -0.8438  0.2102
 5762TIP3    H138921   3.033   0.260   0.476 -0.7984  1.4172  0.7063
 5762TIP3    H238922   3.166   0.259   0.403 -0.1269 -0.9324  1.8548
 5763TIP3   OH238923   2.842   0.144   6.832  0.5298 -0.5288  0.1345
 5763TIP3    H138924   2.803   0.136   6.745 -0.7415 -0.6775  0.6908
 5763TIP3    H238925   2.767   0.144   6.891  1.3195  0.5563  1.1773
 5764TIP3   OH238926   0.024   6.383   2.049 -0.2226  0.5081  0.0083
 5764TIP3    H138927   0.030   6.302   2.099  1.5986  0.4095 -0.3199
 5764TIP3    H238928   0.040   6.452   2.112 -1.2065  0.6080  0.1722
 5765TIP3   OH238929   1.269   2.496   1.214  0.0065  0.9222  0.2665
 5765TIP3    H138930   1.261   2.526   1.124 -0.2356  1.1043  0.3482
 5765TIP3    H238931   1.193   2.533   1.259 -0.7747 -0.5008  0.1830
 5766TIP3   OH238932   1.681   6.068   1.854 -0.1941  0.2446  0.0626
 5766TIP3    H138933   1.668   5.985   1.900 -0.7909  0.4776  0.3290
 5766TIP3    H238934   1.593   6.105   1.847  0.0357  0.7304 -0.2928
 5767TIP3   OH238935   3.515   4.642   7.648 -0.5109 -0.3767 -0.7554
 5767TIP3    H138936   3.558   4.620   7.565 -0.6316 -0.8750 -0.6900
 5767TIP3    H238937   3.444   4.701   7.623  0.5410  0.9041 -0.7997
 5768TIP3   OH238938   5.202   6.297   0.682 -0.5606  0.6802 -0.4064
 5768TIP3    H138939   5.243   6.255   0.758 -0.5789  2.2835  0.5282
 5768TIP3    H238940   5.110   6.308   0.707 -1.7591 -2.8649 -2.4822
 5769TIP3   OH238941   5.340   5.026   6.808 -0.1958  0.2167 -0.1817
 5769TIP3    H138942   5.370   4.994   6.723 -2.0388 -0.7443 -0.5243
 5769TIP3    H238943   5.395   5.102   6.826  1.7752 -0.8950 -1.1450
 5770TIP3   OH238944   4.767   4.432   6.585  0.0410  0.5385 -0.4577
 5770TIP3    H138945   4.860   4.409   6.575  0.0630  0.2516  0.3236
 5770TIP3    H238946   4.743   4.396   6.671 -1.0333 -0.1944 -1.0407
 5771TIP3   OH238947   3.336   6.626   7.074  0.1117  0.2967 -0.0178
 5771TIP3    H138948   3.395   6.574   7.129 -0.8669 -0.1192  0.6789
 5771TIP3    H238949   3.340   6.585   6.988  0.4965  0.0032  0.1362
 5772TIP3   OH238950   5.121   2.484   0.154  0.2215 -0.5870 -0.1380
 5772TIP3    H138951   5.076   2.457   0.075 -0.5856  0.2828  0.0086
 5772TIP3    H238952   5.052   2.515   0.213  0.6414 -2.4984  1.4739
 5773TIP3   OH238953   4.289   5.996   1.811  0.2311 -0.6990 -0.5347
 5773TIP3    H138954   4.365   6.048   1.784 -1.3167  0.5723 -2.7715
 5773TIP3    H238955   4.326   5.910   1.831  2.2940 -0.0983 -1.4349
 5774TIP3   OH238956   0.431   3.630   1.637  0.0739 -0.1227  0.0299
 5774TIP3    H138957   0.507   3.672   1.597  0.3549  0.6460  1.3091
 5774TIP3    H238958   0.363   3.635   1.570  0.1081  2.3817  0.0772
 5775TIP3   OH238959   6.182   0.180   7.667  0.3460  0.3159 -0.4274
 5775TIP3    H138960   6.114   0.247   7.669  0.9033  0.9943 -2.3820
 5775TIP3    H238961   6.151   0.116   7.603  1.3989  0.4921 -1.1367
 5776TIP3   OH238962   3.253   5.458   7.415 -0.0484 -0.1011 -0.0306
 5776TIP3    H138963   3.297   5.374   7.403  0.2229 -0.0475  0.5533
 5776TIP3    H238964   3.324   5.520   7.432 -0.2397  0.2620 -0.5177
 5777TIP3   OH238965   1.317   5.981   7.120  0.0119 -0.1229 -0.5755
 5777TIP3    H138966   1.281   5.979   7.031 -0.6627  0.8302 -0.3351
 5777TIP3    H238967   1.247   5.945   7.174  0.3637 -0.5540 -0.4044
 5778TIP3   OH238968   4.679   4.069   7.066  0.7718  0.2419  0.8329
 5778TIP3    H138969   4.679   3.989   7.013  0.8419 -1.5513  3.3366
 5778TIP3    H238970   4.587   4.084   7.086  0.5765  1.8936 -1.0672
 5779TIP3   OH238971   6.541   4.618   7.649 -0.1345 -0.0356  0.3819
 5779TIP3    H138972   6.577   4.618   7.738 -0.5256 -0.9942  0.5496
 5779TIP3    H238973   6.464   4.561   7.654  0.0087 -0.3372 -0.6388
 5780TIP3   OH238974   0.693   6.918   6.646 -0.0943  0.1481 -0.2753
 5780TIP3    H138975   0.681   6.848   6.710 -1.0198 -2.5660 -3.1848
 5780TIP3    H238976   0.606   6.957   6.636 -0.1626 -0.0584 -0.5097
 5781TIP3   OH238977   5.330   4.048   0.876 -0.3352 -0.1282  0.8552
 5781TIP3    H138978   5.423   4.032   0.891  0.2740 -1.6692 -3.3127
 5781TIP3    H238979   5.286   3.981   0.928  1.1647 -1.9189 -0.0500
 5782TIP3   OH238980   3.414   1.517   0.213  0.3473 -0.4686 -0.0860
 5782TIP3    H138981   3.347   1.539   0.279  2.1150  0.7272  1.4192
 5782TIP3    H238982   3.477   1.463   0.260  2.2067  1.2865 -0.4567
 5783TIP3   OH238983   0.201   3.133   7.973 -0.2276  0.5847  0.0209
 5783TIP3    H138984   0.141   3.207   7.962 -1.4643 -0.3654  0.2216
 5783TIP3    H238985   0.183   3.100   8.061  1.1411  0.7368  0.3861
 5784TIP3   OH238986   0.811   5.863   0.466  0.2190 -0.1518 -0.2764
 5784TIP3    H138987   0.746   5.916   0.512 -1.2182 -1.3820 -0.8134
 5784TIP3    H238988   0.781   5.773   0.477  1.5894 -0.7142 -0.9426
 5785TIP3   OH238989   3.509   3.963   8.198  0.4490  0.1040 -0.4655
 5785TIP3    H138990   3.595   3.953   8.238 -0.2536  0.8288  1.3340
 5785TIP3    H238991   3.447   3.954   8.271 -1.0274 -0.5875 -1.7372
 5786TIP3   OH238992   4.506   2.012   2.795 -0.2274  0.1117 -0.0885
 5786TIP3    H138993   4.599   2.022   2.773  0.0803 -0.5970  0.8423
 5786TIP3    H238994   4.462   2.077   2.740  0.7295 -0.0870 -1.1329
 5787TIP3   OH238995   3.335   1.171   1.022  0.0873  0.4914 -0.1328
 5787TIP3    H138996   3.393   1.150   1.095 -0.9680  2.7707  1.4703
 5787TIP3    H238997   3.251   1.131   1.046  0.3432 -0.8681 -1.3562
 5788TIP3   OH238998   3.484   5.696   0.132  0.6991 -0.9655 -0.3107
 5788TIP3    H138999   3.420   5.754   0.172  1.0161  0.4189 -1.7189
 5788TIP3    H239000   3.435   5.615   0.115  0.1646 -1.0264  1.3497
 5789TIP3   OH239001   5.984   4.237   7.375 -0.5909  0.1518 -0.8080
 5789TIP3    H139002   6.039   4.159   7.374 -3.6399 -2.1550 -1.3734
 5789TIP3    H239003   6.000   4.278   7.290  1.2138  0.3634 -0.4161
 5790TIP3   OH239004   6.849   2.005   7.337 -0.3223 -0.0209  0.0583
 5790TIP3    H139005   6.913   1.987   7.267 -1.1548 -2.0788 -0.2234
 5790TIP3    H239006   6.897   2.060   7.399  1.0625  0.2110 -1.1529
 5791TIP3   OH239007   5.733   5.536   8.468  0.8332 -0.4951 -0.0260
 5791TIP3    H139008   5.691   5.584   8.540  1.8873 -0.8538  0.8676
 5791TIP3    H239009   5.662   5.516   8.407  0.0625  0.5703  0.4998
 5792TIP3   OH239010   5.023   2.670   1.694  0.0302 -1.4008 -0.4370
 5792TIP3    H139011   5.066   2.587   1.714  0.2029 -1.4399 -0.9535
 5792TIP3    H239012   4.953   2.677   1.759  2.2768 -0.1852  2.0896
 5793TIP3   OH239013   3.234   6.599   0.998  0.7953  0.2386  0.5913
 5793TIP3    H139014   3.149   6.622   0.961  0.6504 -0.0562  0.7307
 5793TIP3    H239015   3.293   6.594   0.923  0.9101  1.3854  0.5963
 5794TIP3   OH239016   0.483   3.288   8.396 -0.4852 -0.3736  0.2315
 5794TIP3    H139017   0.425   3.362   8.380 -0.7133 -0.1136  2.1152
 5794TIP3    H239018   0.498   3.288   8.490 -0.0511 -2.4093  0.2142
 5795TIP3   OH239019   4.649   5.298   6.791 -0.0749 -0.0588 -0.2993
 5795TIP3    H139020   4.650   5.220   6.735  0.9292  0.1420 -0.5761
 5795TIP3    H239021   4.721   5.352   6.759 -0.0513  0.4764  0.6108
 5796TIP3   OH239022   4.276   5.023   8.019  0.1507  0.0481 -0.0062
 5796TIP3    H139023   4.285   4.981   7.933 -1.2212  0.8938 -0.5951
 5796TIP3    H239024   4.205   4.977   8.062  0.2701  0.1771  0.3369
 5797TIP3   OH239025   4.730   4.978   8.420 -0.0695  0.4313 -0.0035
 5797TIP3    H139026   4.778   5.035   8.480 -0.9408  0.0744  1.0883
 5797TIP3    H239027   4.640   5.011   8.423 -0.0221  0.7484 -1.5713
 5798TIP3   OH239028   6.437   4.488   6.722  0.5896  0.1430  0.2193
 5798TIP3    H139029   6.500   4.423   6.754 -0.0423 -0.4168  0.3400
 5798TIP3    H239030   6.449   4.488   6.627  0.9148  0.1935  0.2572
 5799TIP3   OH239031   2.253   5.967   0.070 -0.7023 -0.2946  0.2542
 5799TIP3    H139032   2.289   6.007   0.149  1.7640 -4.1947  1.3760
 5799TIP3    H239033   2.193   5.900   0.102  0.9324 -2.4886 -1.0166
 5800TIP3   OH239034   6.867   5.037   7.880 -0.3686 -0.0461 -0.2942
 5800TIP3    H139035   6.843   4.960   7.829 -2.3878 -0.9314  1.8044
 5800TIP3    H239036   6.789   5.091   7.881 -0.1524  0.2973  1.1563
 5801TIP3   OH239037   5.324   1.883   8.522 -0.2730 -0.0083 -0.0006
 5801TIP3    H139038   5.338   1.977   8.527 -0.5799  0.0216  0.3226
 5801TIP3    H239039   5.243   1.868   8.570 -0.6846 -0.3348 -0.7745
 5802TIP3   OH239040   4.033   0.943   0.273  0.0995 -0.4389 -0.4601
 5802TIP3    H139041   4.059   0.980   0.358  1.4717 -0.1402 -0.9839
 5802TIP3    H239042   3.941   0.967   0.264 -0.6833 -2.1546  1.8152
 5803TIP3   OH239043   1.437   3.708   6.082 -0.4003 -0.3886  0.5220
 5803TIP3    H139044   1.423   3.618   6.055  0.1048 -0.4283  0.3843
 5803TIP3    H239045   1.354   3.735   6.122 -1.3088 -0.2028 -1.4034
 5804TIP3   OH239046   1.547   4.672   0.565 -0.3043  0.1013 -0.3259
 5804TIP3    H139047   1.618   4.626   0.610 -0.1423  1.7717  1.2760
 5804TIP3    H239048   1.470   4.617   0.578  0.5655 -1.5343 -1.7356
 5805TIP3   OH239049   3.165   0.414   8.205  0.4998 -0.1808  0.0202
 5805TIP3    H139050   3.220   0.406   8.127  0.6978  0.2976  0.1087
 5805TIP3    H239051   3.151   0.508   8.215 -0.2433 -0.2953  0.0661
 5806TIP3   OH239052   5.133   3.869   0.969  0.5635  0.1362 -0.1511
 5806TIP3    H139053   5.080   3.831   1.039 -0.5335  2.1856  0.2095
 5806TIP3    H239054   5.106   3.961   0.966  1.8768  0.5134 -2.0798
 5807TIP3   OH239055   0.606   4.682   2.012  0.2107  0.6709  0.4791
 5807TIP3    H139056   0.619   4.777   2.013 -4.2707  1.4770  0.7369
 5807TIP3    H239057   0.591   4.661   1.920  2.0827 -0.0842  0.2843
 5808TIP3   OH239058   2.425   6.842   7.215 -0.2759  0.6714 -0.0755
 5808TIP3    H139059   2.377   6.882   7.143  0.2490  1.1936 -0.1393
 5808TIP3    H239060   2.515   6.871   7.203  0.2509 -1.0001 -0.4654
 5809TIP3   OH239061   3.842   5.108   7.408 -0.4443  0.1517  0.1806
 5809TIP3    H139062   3.907   5.096   7.338 -1.9145 -1.0239 -1.0699
 5809TIP3    H239063   3.893   5.108   7.489  1.3147  1.4293 -0.8644
 5810TIP3   OH239064   0.724   3.025   0.524  0.4487  0.4135  0.6049
 5810TIP3    H139065   0.633   3.050   0.535 -0.4125 -2.9559  2.3134
 5810TIP3    H239066   0.723   2.960   0.453  1.8372  1.4645 -0.4497
 5811TIP3   OH239067   5.350   0.557   1.792  0.3709  1.2097  0.2459
 5811TIP3    H139068   5.422   0.532   1.733 -0.7161  1.8812 -1.4436
 5811TIP3    H239069   5.277   0.501   1.765 -0.8421  3.1408 -0.6883
 5812TIP3   OH239070   1.878   6.614   6.365 -0.3091 -0.0267 -0.2909
 5812TIP3    H139071   1.796   6.577   6.330 -0.0012  0.0215 -1.0801
 5812TIP3    H239072   1.906   6.551   6.431 -0.7636 -0.2592 -0.3141
 5813TIP3   OH239073   0.516   3.663   1.311  0.1647  0.2757  0.4092
 5813TIP3    H139074   0.480   3.642   1.225  0.6900  1.4441 -0.1200
 5813TIP3    H239075   0.531   3.578   1.352 -3.3014 -0.3006  0.7549
 5814TIP3   OH239076   6.621   4.917   0.159  0.2446 -0.1027 -0.1114
 5814TIP3    H139077   6.648   4.845   0.102  0.8007  0.0563 -0.0466
 5814TIP3    H239078   6.530   4.895   0.182  0.3036 -0.6192 -0.3455
 5815TIP3   OH239079   0.502   3.713   0.615 -0.4868  0.6571 -0.0346
 5815TIP3    H139080   0.431   3.701   0.552  0.0011 -0.5513 -0.3911
 5815TIP3    H239081   0.562   3.640   0.597  1.0448  1.8429 -0.0213
 5816TIP3   OH239082   6.391   6.686   7.187  0.1263  0.1067  0.0569
 5816TIP3    H139083   6.354   6.660   7.104  0.8175 -1.4885  0.2198
 5816TIP3    H239084   6.326   6.660   7.252  0.1474  0.1946  0.1144
 5817TIP3   OH239085   5.421   0.494   0.193 -0.2284 -0.5762 -0.3006
 5817TIP3    H139086   5.403   0.403   0.169 -2.4246 -0.1486 -0.4838
 5817TIP3    H239087   5.385   0.504   0.281  1.4439 -0.2625  0.3929
 5818TIP3   OH239088   2.006   1.824   1.991  0.4175 -0.1826  0.6525
 5818TIP3    H139089   2.049   1.908   2.003  1.7801 -0.7343 -0.0833
 5818TIP3    H239090   1.974   1.801   2.078 -0.1227  1.1602  0.8235
 5819TIP3   OH239091   5.711   1.732   7.984 -0.0940  0.2471  0.4586
 5819TIP3    H139092   5.649   1.722   7.912  1.8828 -0.4630 -1.2470
 5819TIP3    H239093   5.769   1.657   7.976  1.1280  0.9986  1.8541
 5820TIP3   OH239094   2.135   1.317   8.156 -0.4171  0.0387 -0.1498
 5820TIP3    H139095   2.209   1.321   8.216 -0.7617  0.7287  0.2489
 5820TIP3    H239096   2.070   1.376   8.195 -2.1492 -2.3089  0.8070
 5821TIP3   OH239097   5.042   3.587   7.509 -0.2453  0.5603  0.3277
 5821TIP3    H139098   5.051   3.508   7.563  0.0303  1.2950  1.3992
 5821TIP3    H239099   4.949   3.589   7.486 -0.0635 -0.6490 -0.6615
 5822TIP3   OH239100   4.012   2.743   7.944  0.5276 -0.0073  0.7572
 5822TIP3    H139101   4.097   2.729   7.903 -0.2520  1.6736 -1.6558
 5822TIP3    H239102   3.986   2.656   7.975  1.3326 -1.4318 -2.1568
 5823TIP3   OH239103   6.702   3.037   7.250  0.4764 -0.5006 -0.4234
 5823TIP3    H139104   6.792   3.046   7.283 -0.3755 -0.8494  2.1933
 5823TIP3    H239105   6.673   3.127   7.235  0.7539 -0.3080  0.1724
 5824TIP3   OH239106   5.688   2.967   7.269 -0.0099  0.5081 -0.7500
 5824TIP3    H139107   5.736   3.025   7.210 -2.0940  1.2746 -1.7484
 5824TIP3    H239108   5.596   2.980   7.248 -0.6778 -1.4260  0.6339
 5825TIP3   OH239109   4.735   4.705   8.506 -0.1276 -0.3925 -0.6001
 5825TIP3    H139110   4.661   4.720   8.564  2.1913  3.9493  1.7204
 5825TIP3    H239111   4.715   4.757   8.428  0.4060  0.8469  0.0601
 5826TIP3   OH239112   5.582   4.318   7.893 -0.5805 -0.0321 -0.2679
 5826TIP3    H139113   5.548   4.404   7.919 -1.5773 -0.1378 -1.1261
 5826TIP3    H239114   5.519   4.287   7.827  1.1640 -0.2871 -1.8786
 5827TIP3   OH239115   4.062   0.186   7.474  0.6415  0.0580 -0.2810
 5827TIP3    H139116   4.016   0.203   7.392 -0.4310 -0.9953  0.0696
 5827TIP3    H239117   4.007   0.227   7.541  0.0574 -1.3866  0.1624
 5828TIP3   OH239118   0.657   0.041   0.829 -0.7874  0.1620  0.2701
 5828TIP3    H139119   0.645  -0.053   0.842 -0.7687  0.3332  1.7303
 5828TIP3    H239120   0.752   0.051   0.825 -0.7675 -0.2577 -3.4681
 5829TIP3   OH239121   2.054   0.809   1.435 -0.4312 -0.3982 -0.9232
 5829TIP3    H139122   2.046   0.901   1.463  1.2755 -0.0083 -1.5630
 5829TIP3    H239123   2.061   0.760   1.517 -1.9239 -0.0340 -0.5641
 5830TIP3   OH239124   0.909   5.559   7.855 -0.2079 -0.3577 -0.1453
 5830TIP3    H139125   0.967   5.559   7.932  1.2188 -0.4730 -1.1869
 5830TIP3    H239126   0.848   5.631   7.871 -0.1703 -0.5975  1.2520
 5831TIP3   OH239127   4.872   5.475   0.045 -0.3609  0.7091 -0.6162
 5831TIP3    H139128   4.835   5.422  -0.026  0.0382  1.3169 -1.2952
 5831TIP3    H239129   4.959   5.501   0.013  0.9011 -1.0450  1.1099
 5832TIP3   OH239130   1.904   1.449   7.881  0.1939 -0.8240  0.0581
 5832TIP3    H139131   1.840   1.516   7.855 -0.9488 -1.4395  1.1851
 5832TIP3    H239132   1.963   1.441   7.805 -0.9395 -0.0909 -0.9318
 5833TIP3   OH239133   6.803   4.560   1.175  0.3296  0.6952 -0.2193
 5833TIP3    H139134   6.801   4.468   1.200  2.0888  0.2721 -1.4331
 5833TIP3    H239135   6.816   4.607   1.257 -0.9165 -0.0831  0.4579
 5834TIP3   OH239136   0.310   0.230   8.439 -0.2751  0.0671  0.1122
 5834TIP3    H139137   0.356   0.291   8.498 -1.8397  0.5295  0.9079
 5834TIP3    H239138   0.361   0.150   8.443  2.4936  1.5715 -1.8014
 5835TIP3   OH239139   5.295   1.807   1.971  0.3542 -0.5390  0.4190
 5835TIP3    H139140   5.347   1.856   2.034  0.9302 -0.2597 -0.2672
 5835TIP3    H239141   5.206   1.807   2.007  0.6544 -0.2785  1.1597
 5836TIP3   OH239142   2.262   5.749   7.836  0.7224  0.0442  0.2570
 5836TIP3    H139143   2.230   5.794   7.758  0.7810 -3.5020 -2.0631
 5836TIP3    H239144   2.182   5.721   7.882  0.6498  0.0649  0.1442
 5837TIP3   OH239145   6.056   0.448   0.542  0.1139  0.2886  0.3390
 5837TIP3    H139146   6.078   0.541   0.541 -0.7182  0.4917 -1.1325
 5837TIP3    H239147   6.041   0.426   0.451 -0.5596 -1.0866  0.7637
 5838TIP3   OH239148   3.955   6.345   2.223  0.0460 -0.5051 -0.2793
 5838TIP3    H139149   3.964   6.250   2.230  1.8478 -0.3323  0.3882
 5838TIP3    H239150   4.042   6.375   2.197 -0.4970  0.9712 -0.4769
 5839TIP3   OH239151   4.793   3.788   7.235  0.4484 -0.5417 -0.4911
 5839TIP3    H139152   4.857   3.811   7.167  0.2724  0.4818 -0.3171
 5839TIP3    H239153   4.778   3.694   7.222  1.9138 -0.7887 -0.5943
 5840TIP3   OH239154   5.097   2.369   1.531  0.6048  0.2291  0.0737
 5840TIP3    H139155   5.020   2.366   1.588  0.3208 -2.5005 -0.3119
 5840TIP3    H239156   5.171   2.365   1.591  0.3336 -1.2486  0.3370
 5841TIP3   OH239157   3.491   1.487   0.571 -0.5528  0.0519 -0.0614
 5841TIP3    H139158   3.555   1.555   0.593 -0.2952 -0.7726  2.0036
 5841TIP3    H239159   3.538   1.427   0.514 -1.0174  1.9138 -2.5915
 5842TIP3   OH239160   3.637   1.314   0.412 -0.5792 -0.4314  0.2657
 5842TIP3    H139161   3.629   1.221   0.433 -0.7354 -0.2585  0.9792
 5842TIP3    H239162   3.730   1.326   0.391 -0.4749 -0.6667  0.5838
 5843TIP3   OH239163   6.048   6.087   1.202 -0.3297  0.8451  0.0185
 5843TIP3    H139164   6.118   6.119   1.260  0.8641  1.1019 -1.4946
 5843TIP3    H239165   5.980   6.056   1.261  0.8569  1.0498  1.5508
 5844TIP3   OH239166   0.161   2.054   7.679  0.4192  0.2026  0.3226
 5844TIP3    H139167   0.213   2.127   7.712  0.0083  0.0405  1.3667
 5844TIP3    H239168   0.149   2.073   7.586  1.0523  1.0123  0.3956
 5845TIP3   OH239169   3.289   3.241   2.604 -0.2041  0.3409  0.1170
 5845TIP3    H139170   3.283   3.237   2.700  0.5420 -0.5463  0.1392
 5845TIP3    H239171   3.262   3.154   2.575  3.1578 -0.7295 -0.2363
 5846TIP3   OH239172   5.529   2.017   2.544 -0.1595  0.2435 -0.0706
 5846TIP3    H139173   5.460   1.950   2.553 -1.1892  1.4601  2.1861
 5846TIP3    H239174   5.609   1.971   2.568 -0.5458 -0.6537 -0.4374
 5847TIP3   OH239175   5.074   6.417   0.187 -0.1406 -0.2390  0.0913
 5847TIP3    H139176   4.985   6.408   0.219 -0.6635  1.1682 -0.8802
 5847TIP3    H239177   5.129   6.415   0.265 -1.0241 -0.9133  0.7094
 5848TIP3   OH239178   5.659   5.450   6.374  0.4804  0.6698 -0.2661
 5848TIP3    H139179   5.636   5.379   6.434 -0.3379  1.0744 -0.0927
 5848TIP3    H239180   5.603   5.436   6.298  0.9407  0.6269 -0.5988
 5849TIP3   OH239181   3.736   1.274   0.032 -0.1493 -0.5512  0.5888
 5849TIP3    H139182   3.690   1.358   0.031 -2.3260 -1.6729  0.2821
 5849TIP3    H239183   3.746   1.251  -0.060  0.4589 -0.6389  0.6730
 5850TIP3   OH239184   0.837   0.601   7.236 -0.0153  0.1965  0.3410
 5850TIP3    H139185   0.926   0.599   7.271  0.3563 -2.1904 -0.5755
 5850TIP3    H239186   0.848   0.591   7.141 -1.2263  1.0136  0.0843
 5851TIP3   OH239187   6.715   3.182   6.304 -0.1274  0.1844 -0.1644
 5851TIP3    H139188   6.769   3.203   6.380 -0.8654 -0.1353  0.4625
 5851TIP3    H239189   6.735   3.090   6.286 -2.3923 -0.7903  1.7555
 5852TIP3   OH239190   3.449   4.720   0.596 -0.0756  0.2249  0.1478
 5852TIP3    H139191   3.404   4.733   0.512  0.8425  2.4357 -0.0553
 5852TIP3    H239192   3.413   4.787   0.653 -0.2157 -0.8520  1.3568
 5853TIP3   OH239193   4.888   6.248   2.080 -0.7893 -0.2428  0.5049
 5853TIP3    H139194   4.810   6.249   2.024 -0.8903 -1.8478  0.5636
 5853TIP3    H239195   4.885   6.163   2.123  0.3056  0.2036  1.5258
 5854TIP3   OH239196   5.076   3.282   0.633  0.0830  0.3820  0.8095
 5854TIP3    H139197   5.084   3.300   0.726  0.2670  2.0645  0.4861
 5854TIP3    H239198   5.138   3.341   0.591 -2.3052  2.0472 -0.5923
 5855TIP3   OH239199   0.352   6.158   2.591 -0.1053 -0.0765  0.0287
 5855TIP3    H139200   0.407   6.210   2.532 -0.3024  0.0266 -0.0626
 5855TIP3    H239201   0.316   6.089   2.536 -2.8914  1.8659 -0.7586
 5856TIP3   OH239202   5.001   0.404   7.548  0.2916  0.4630 -0.0369
 5856TIP3    H139203   4.997   0.312   7.522  1.2951  1.0217 -2.3722
 5856TIP3    H239204   4.913   0.423   7.582  0.5786 -1.7823  2.2816
 5857TIP3   OH239205   2.321   1.009   0.758  0.7004  0.3664 -0.6107
 5857TIP3    H139206   2.369   0.932   0.789  0.6125  0.4183 -0.3407
 5857TIP3    H239207   2.376   1.083   0.785 -0.2336  0.5111  1.0356
 5858TIP3   OH239208   2.690   2.877   1.542  0.0510  0.3382 -0.0937
 5858TIP3    H139209   2.647   2.915   1.466  0.1443  1.1667  0.2565
 5858TIP3    H239210   2.634   2.803   1.566  0.2340 -0.1709 -1.1879
 5859TIP3   OH239211   0.989   2.132   7.199 -0.3401 -0.3479  0.2335
 5859TIP3    H139212   1.012   2.043   7.175 -3.4519 -1.0649 -0.6018
 5859TIP3    H239213   0.901   2.124   7.236 -1.1476  2.4822 -0.8331
 5860TIP3   OH239214   0.848   4.185   0.013  0.4347 -0.0987  0.0538
 5860TIP3    H139215   0.875   4.128  -0.059  1.2392 -0.4568  0.6120
 5860TIP3    H239216   0.761   4.154   0.038  0.6919 -0.8186  0.0758
 5861TIP3   OH239217   4.563   2.371   7.068 -0.2386  0.2976 -0.2167
 5861TIP3    H139218   4.643   2.378   7.119 -0.5087  2.1175  0.0326
 5861TIP3    H239219   4.592   2.353   6.978  0.4199  0.4418 -0.0328
 5862TIP3   OH239220   3.262   4.201   6.756  0.0007 -0.8285  0.0363
 5862TIP3    H139221   3.345   4.232   6.721 -1.7218  3.1545 -1.0764
 5862TIP3    H239222   3.211   4.177   6.679 -0.9923  0.0610  0.3904
 5863TIP3   OH239223   4.805   6.660   1.256  0.0823 -0.6404 -0.2364
 5863TIP3    H139224   4.860   6.724   1.302  0.3666 -0.5373 -0.7111
 5863TIP3    H239225   4.851   6.577   1.268  0.7000 -0.4550 -1.1708
 5864TIP3   OH239226   2.111   4.573   1.284 -0.0511 -0.1653  0.0942
 5864TIP3    H139227   2.175   4.629   1.327  0.5735  0.0056 -1.0088
 5864TIP3    H239228   2.163   4.514   1.229 -0.7857 -0.7012 -0.0524
 5865TIP3   OH239229   6.519   0.969   2.145 -0.1266  0.7536  0.4399
 5865TIP3    H139230   6.518   0.981   2.050  0.9758 -1.7284  0.0530
 5865TIP3    H239231   6.591   0.907   2.161 -0.4794  0.8745  2.8715
 5866TIP3   OH239232   5.378   1.422   1.590 -0.2626 -0.0468 -0.2952
 5866TIP3    H139233   5.447   1.462   1.537  0.9612  1.7971  2.4724
 5866TIP3    H239234   5.391   1.328   1.580  0.3378  0.2086 -2.6046
 5867TIP3   OH239235   4.625   0.093   8.388 -0.1818 -0.6093  0.1041
 5867TIP3    H139236   4.690   0.163   8.383 -1.1784  0.5497  2.0974
 5867TIP3    H239237   4.625   0.067   8.480 -0.8762 -2.2573 -0.3224
 5868TIP3   OH239238   3.075   3.072   8.384 -0.6795  0.2796  0.5861
 5868TIP3    H139239   2.982   3.076   8.364 -0.4309  1.1825 -0.4926
 5868TIP3    H239240   3.093   2.978   8.393 -2.0967  0.1470  3.0911
 5869TIP3   OH239241   0.090   3.450   2.485  0.4709 -0.7284  0.0742
 5869TIP3    H139242  -0.001   3.450   2.515  0.4878 -2.9332  0.3336
 5869TIP3    H239243   0.085   3.475   2.393 -0.5779 -1.9731 -0.2397
 5870TIP3   OH239244   1.500   2.709   0.237  0.1454 -0.4660  0.1759
 5870TIP3    H139245   1.575   2.746   0.191 -0.7291 -0.0707 -0.9930
 5870TIP3    H239246   1.523   2.713   0.329  2.5794 -2.5954 -0.2229
 5871TIP3   OH239247   1.627   2.660   0.562  0.1732  0.2449 -0.7011
 5871TIP3    H139248   1.717   2.691   0.552  0.9399 -0.9532  1.6891
 5871TIP3    H239249   1.597   2.699   0.644 -1.1082 -0.2532 -0.9056
 5872TIP3   OH239250   0.713   5.895   8.389  0.1720 -0.1246 -0.6606
 5872TIP3    H139251   0.686   5.987   8.396 -1.3014 -0.6155  0.7319
 5872TIP3    H239252   0.787   5.887   8.448 -1.0347 -0.2646  0.8973
 5873TIP3   OH239253   0.554   0.359   6.873 -0.0356  0.0900  0.4599
 5873TIP3    H139254   0.475   0.332   6.826 -0.3896  0.7474  0.6579
 5873TIP3    H239255   0.535   0.449   6.901  1.2419  0.6905 -0.4913
 5874TIP3   OH239256   1.968   5.334   6.550  0.3564 -0.1337  0.0015
 5874TIP3    H139257   2.022   5.386   6.490  0.1014  0.0726 -0.0559
 5874TIP3    H239258   1.969   5.384   6.632 -1.0968  0.7760 -0.4808
 5875TIP3   OH239259   4.317   3.343   1.529 -0.2082  0.4391 -0.4301
 5875TIP3    H139260   4.375   3.268   1.538 -0.7635  0.2181  2.0997
 5875TIP3    H239261   4.306   3.376   1.618 -0.4595  3.1936 -1.3588
 5876TIP3   OH239262   5.648   2.391   8.222  0.0343 -0.4776  0.3035
 5876TIP3    H139263   5.615   2.470   8.180 -0.6697 -0.1902  1.3653
 5876TIP3    H239264   5.722   2.420   8.275 -0.8683 -0.3119  1.5255
 5877TIP3   OH239265   6.789   3.264   7.951 -0.5989  0.0826  0.4075
 5877TIP3    H139266   6.799   3.320   7.874 -0.3757 -0.7000 -0.1557
 5877TIP3    H239267   6.763   3.323   8.021 -1.6355  0.7041 -0.4606
 5878TIP3   OH239268   4.280   5.115   0.800 -0.3030  0.2290  0.6372
 5878TIP3    H139269   4.267   5.127   0.706 -1.4241  0.4366  0.8040
 5878TIP3    H239270   4.301   5.022   0.810 -1.2046 -0.0206  0.2782
 5879TIP3   OH239271   2.032   2.063   7.753  0.3548 -1.0218  0.0088
 5879TIP3    H139272   2.068   2.084   7.667 -0.0543 -1.0824 -0.1834
 5879TIP3    H239273   1.958   2.123   7.762 -1.1450 -2.6481 -0.7569
 5880TIP3   OH239274   5.326   2.898   7.822  0.0568 -0.1075  0.0907
 5880TIP3    H139275   5.258   2.841   7.786  0.9180 -0.9040 -0.2850
 5880TIP3    H239276   5.321   2.884   7.917 -0.1042 -0.3790  0.0439
 5881TIP3   OH239277   6.032   5.441   2.824  0.2403 -0.0295  0.3839
 5881TIP3    H139278   6.058   5.349   2.819 -0.0265 -0.1504  1.0664
 5881TIP3    H239279   5.947   5.444   2.780  0.5129 -0.0018 -0.1407
 5882TIP3   OH239280   3.321   2.782   1.010 -0.1974 -0.2955  0.5309
 5882TIP3    H139281   3.275   2.857   1.049  0.8613  0.8599 -0.3398
 5882TIP3    H239282   3.399   2.772   1.065 -0.0012 -0.3137  0.2515
 5883TIP3   OH239283   5.354   1.482   2.179 -0.1718 -0.9417  0.2790
 5883TIP3    H139284   5.266   1.492   2.215 -0.7720 -0.9557 -1.1013
 5883TIP3    H239285   5.411   1.479   2.255 -1.1827  0.7775  1.1780
 5884TIP3   OH239286   3.480   4.012   1.855  0.1495  0.1834  0.5112
 5884TIP3    H139287   3.402   4.008   1.800  0.8797  0.1039 -0.5594
 5884TIP3    H239288   3.549   3.972   1.802  1.4748  2.3918  0.4455
 5885TIP3   OH239289   3.882   2.935   1.086  1.1333 -0.0045 -0.4428
 5885TIP3    H139290   3.952   2.877   1.057 -0.3721 -1.9061 -0.5029
 5885TIP3    H239291   3.863   2.907   1.175  1.9142  1.9944  0.3919
 5886TIP3   OH239292   1.137   0.168   6.607 -0.3000 -0.2316  0.2151
 5886TIP3    H139293   1.096   0.254   6.598  0.4183  0.0778 -0.1626
 5886TIP3    H239294   1.214   0.172   6.550 -0.3767 -1.1996  0.0406
 5887TIP3   OH239295   0.341   4.007   6.888  0.1407 -0.3455 -0.3857
 5887TIP3    H139296   0.374   3.989   6.800 -1.4186  1.2448 -1.3680
 5887TIP3    H239297   0.332   4.102   6.891 -1.5673 -0.5026  0.8360
 5888TIP3   OH239298   3.349   0.384   7.450 -0.5858  0.5620  0.1230
 5888TIP3    H139299   3.342   0.307   7.393  0.9029  0.2783  0.2662
 5888TIP3    H239300   3.333   0.458   7.392 -1.2170  0.1879 -0.1965
 5889TIP3   OH239301   0.098   3.204   2.314  0.3127  0.0460 -0.2326
 5889TIP3    H139302   0.176   3.185   2.366  0.2163 -0.4906 -0.2707
 5889TIP3    H239303   0.025   3.169   2.365  0.1615 -0.0030 -0.4756
 5890TIP3   OH239304   4.667   1.385   1.409 -0.1519  0.5235  0.6238
 5890TIP3    H139305   4.611   1.442   1.357  1.0761  1.2301  0.0440
 5890TIP3    H239306   4.678   1.432   1.492 -0.7135  0.2042  0.8841
 5891TIP3   OH239307   4.219   1.855   0.729  0.4205 -0.3838 -0.6606
 5891TIP3    H139308   4.302   1.832   0.770  0.6240  1.0044 -0.2102
 5891TIP3    H239309   4.242   1.880   0.640  0.4641 -0.2651 -0.6175
 5892TIP3   OH239310   6.569   6.646   1.992 -0.7546 -0.3368 -0.3761
 5892TIP3    H139311   6.622   6.665   2.069 -1.2205 -1.9237  0.3715
 5892TIP3    H239312   6.616   6.575   1.948 -2.5095 -2.2594  0.6628
 5893TIP3   OH239313   0.606   6.576   8.482 -0.7974  0.2691 -0.2404
 5893TIP3    H139314   0.572   6.635   8.550  1.3194  1.1113  0.1763
 5893TIP3    H239315   0.647   6.634   8.418 -0.3803 -0.6492 -0.8258
 5894TIP3   OH239316   3.616   4.946   2.041  0.0551 -0.0746  0.2660
 5894TIP3    H139317   3.697   4.979   2.079  0.2590  0.2705 -0.4421
 5894TIP3    H239318   3.546   4.993   2.086  0.3430  1.5398 -0.8724
 5895TIP3   OH239319   5.754   2.132   0.482 -0.1932 -0.0446  0.4729
 5895TIP3    H139320   5.815   2.100   0.548  2.0798  0.2346 -1.3553
 5895TIP3    H239321   5.798   2.114   0.398 -1.7930  1.8924 -0.8811
 5896TIP3   OH239322   1.754   1.183   8.295 -0.3659  0.0978  0.0652
 5896TIP3    H139323   1.814   1.195   8.222  1.1113 -0.4676  1.1341
 5896TIP3    H239324   1.773   1.094   8.327 -1.6841 -0.0462  0.5164
 5897TIP3   OH239325   1.179   1.846   2.157  0.7414 -0.2431 -0.7628
 5897TIP3    H139326   1.191   1.801   2.241  0.7056 -1.6522 -1.4812
 5897TIP3    H239327   1.096   1.893   2.167  1.5983  1.0953  0.5984
 5898TIP3   OH239328   3.343   4.389   0.697 -0.3756 -0.0131 -0.0887
 5898TIP3    H139329   3.303   4.425   0.618 -1.8503 -0.4140  0.4297
 5898TIP3    H239330   3.328   4.295   0.691  0.2453 -0.1391  0.2698
 5899TIP3   OH239331   1.049   1.689   6.395 -0.3774 -0.3287  0.2056
 5899TIP3    H139332   1.117   1.705   6.329 -0.4162 -0.0603  0.2287
 5899TIP3    H239333   1.081   1.613   6.444  0.4047  0.3877  0.8539
 5900TIP3   OH239334   0.992   4.517   0.597 -0.0530 -0.4067  0.1253
 5900TIP3    H139335   1.022   4.433   0.629  3.6149 -0.1093 -2.0009
 5900TIP3    H239336   1.038   4.530   0.514 -0.3283  3.7209  0.3738
 5901TIP3   OH239337   5.226   3.438   1.466 -0.1152 -0.0958 -0.0055
 5901TIP3    H139338   5.220   3.342   1.472 -2.0878 -0.1628 -1.8310
 5901TIP3    H239339   5.266   3.453   1.381 -0.2119  0.7106  0.0915
 5902TIP3   OH239340   4.500   4.067   6.825 -0.2105 -0.2312 -0.4429
 5902TIP3    H139341   4.454   4.125   6.764  1.1558  1.4872  0.0602
 5902TIP3    H239342   4.534   3.997   6.771 -1.1901 -0.1166 -1.2287
 5903TIP3   OH239343   0.398   4.977   1.788 -0.3156  0.3554  0.3619
 5903TIP3    H139344   0.303   4.967   1.787 -0.5147  1.9346  0.4400
 5903TIP3    H239345   0.416   5.032   1.864  0.7306 -0.3833  0.6773
 5904TIP3   OH239346   2.049   0.617   0.131 -0.5046 -0.0765 -0.1513
 5904TIP3    H139347   2.137   0.587   0.108  0.1368  0.6397  1.2401
 5904TIP3    H239348   1.994   0.588   0.058  0.3577 -3.0401  0.2616
 5905TIP3   OH239349   4.070   6.908   0.850  0.1009 -0.0499  0.1197
 5905TIP3    H139350   4.064   7.002   0.862 -1.9522 -0.1911  0.7670
 5905TIP3    H239351   4.046   6.872   0.935  1.2371 -1.1660 -0.0082
 5906TIP3   OH239352   3.096   1.051   0.868  0.5028  0.3657 -0.1305
 5906TIP3    H139353   3.047   1.127   0.898 -1.7890 -1.6306  1.5907
 5906TIP3    H239354   3.054   1.026   0.786 -0.5488 -0.5680  0.6703
 5907TIP3   OH239355   6.644   5.865   1.847 -0.8456  0.1040  0.6621
 5907TIP3    H139356   6.638   5.861   1.752 -1.5271 -0.8906  0.7257
 5907TIP3    H239357   6.564   5.822   1.878  0.5995 -2.0780  1.6614
 5908TIP3   OH239358   5.469   5.427   2.822  0.6861  0.4518 -0.5379
 5908TIP3    H139359   5.388   5.383   2.800  1.3395 -0.7845 -0.5348
 5908TIP3    H239360   5.461   5.447   2.916  1.1935 -1.5204 -0.0238
 5909TIP3   OH239361   2.779   0.495   8.510  0.0639 -0.2834  0.3788
 5909TIP3    H139362   2.837   0.527   8.441 -1.8815 -0.6704 -1.5497
 5909TIP3    H239363   2.710   0.448   8.463 -1.8246  0.1740  2.5292
 5910TIP3   OH239364   2.353   1.122   1.858 -0.3888  0.0881  0.0085
 5910TIP3    H139365   2.390   1.101   1.943 -0.0542 -1.3981 -0.4720
 5910TIP3    H239366   2.285   1.186   1.876  1.7405  2.2119  1.0318
 5911TIP3   OH239367   5.859   1.760   6.958 -0.0032 -0.0555 -0.2555
 5911TIP3    H139368   5.915   1.762   7.036 -0.2604  0.0930 -0.0733
 5911TIP3    H239369   5.875   1.674   6.919 -0.1190 -0.2603  0.1430
 5912TIP3   OH239370   1.524   6.880   7.409  0.0344 -0.4446 -0.1989
 5912TIP3    H139371   1.567   6.906   7.490 -1.0104 -1.4521  0.7262
 5912TIP3    H239372   1.458   6.948   7.394  0.7173  0.1351 -0.6240
 5913TIP3   OH239373   3.740   6.032   2.056  0.5755  0.3225  0.3746
 5913TIP3    H139374   3.803   6.034   1.985  0.5789  0.1226  0.3739
 5913TIP3    H239375   3.730   5.940   2.077 -0.6324  0.2537 -0.4352
 5914TIP3   OH239376   3.470   4.569   6.617 -0.8855  0.2347  0.0301
 5914TIP3    H139377   3.377   4.570   6.594 -1.0428  0.8254  0.6564
 5914TIP3    H239378   3.488   4.477   6.639 -1.1603  0.0026 -0.6893
 5915TIP3   OH239379   5.439   4.786   6.456 -0.2619  0.5308 -0.0217
 5915TIP3    H139380   5.436   4.745   6.543  1.0445 -0.4484 -0.3969
 5915TIP3    H239381   5.445   4.879   6.474 -2.1860  0.5240  0.8875
 5916TIP3   OH239382   0.573   5.721   0.005 -0.5208  0.0753  0.1728
 5916TIP3    H139383   0.617   5.786  -0.051 -0.8025 -0.4959 -0.7370
 5916TIP3    H239384   0.531   5.662  -0.057  1.5003 -2.2553  0.8872
 5917TIP3   OH239385   5.090   5.524   7.554  0.0103  0.5203 -0.0204
 5917TIP3    H139386   5.053   5.445   7.515  1.2006  0.4240 -1.0513
 5917TIP3    H239387   5.062   5.522   7.645 -0.8361 -0.5480 -0.2878
 5918TIP3   OH239388   2.477   1.586   8.537  0.2071  0.3091 -0.0812
 5918TIP3    H139389   2.568   1.595   8.565  0.2712  0.0036 -0.1852
 5918TIP3    H239390   2.450   1.500   8.571 -0.7327  1.3026  1.8767
 5919TIP3   OH239391   1.943   2.132   7.380  0.4203 -0.4420  0.3949
 5919TIP3    H139392   2.024   2.182   7.383 -0.0481  0.3171  0.7470
 5919TIP3    H239393   1.876   2.193   7.410 -0.4482 -0.7437 -0.8458
 5920TIP3   OH239394   4.954   3.652   7.798  0.4890  0.2069 -0.3565
 5920TIP3    H139395   5.011   3.583   7.764  1.0253  0.8495 -0.7658
 5920TIP3    H239396   4.994   3.678   7.881  0.0740 -0.2335 -0.0130
 5921TIP3   OH239397   3.432   4.900   7.996 -0.3454 -0.0910 -0.5394
 5921TIP3    H139398   3.394   4.814   7.978 -2.7208  0.2142  2.3819
 5921TIP3    H239399   3.484   4.919   7.918 -2.1020 -2.8583 -2.5832
 5922TIP3   OH239400   2.252   0.359   2.740  0.2486 -0.3915  0.6048
 5922TIP3    H139401   2.169   0.404   2.722  1.0460  1.0637  0.4470
 5922TIP3    H239402   2.233   0.267   2.722 -1.1928 -0.0255  0.0773
 5923TIP3   OH239403   2.187   3.322   0.535  0.0765 -0.3629 -0.3126
 5923TIP3    H139404   2.190   3.241   0.586  1.2264  0.2368  0.6158
 5923TIP3    H239405   2.094   3.337   0.518 -0.3956 -0.2419  2.1465
 5924TIP3   OH239406   5.325   6.635   1.448  0.3815 -0.2133  0.7879
 5924TIP3    H139407   5.273   6.606   1.372 -0.1512  1.2993  0.5434
 5924TIP3    H239408   5.414   6.608   1.427  0.3370  0.6511 -0.6568
 5925TIP3   OH239409   0.590   6.054   8.114 -0.0857 -1.0426 -0.4075
 5925TIP3    H139410   0.612   6.146   8.133 -1.7809 -0.9369  1.2777
 5925TIP3    H239411   0.601   6.010   8.198  2.2861 -2.7969 -1.5183
 5926TIP3   OH239412   3.759   3.330   8.303 -0.2712 -0.7584 -0.3027
 5926TIP3    H139413   3.806   3.411   8.321 -1.5509 -0.5382  2.4869
 5926TIP3    H239414   3.779   3.273   8.377  0.4822 -3.0347 -2.1206
 5927TIP3   OH239415   2.966   5.327   8.408 -0.8116  0.2326  0.4705
 5927TIP3    H139416   2.997   5.243   8.442 -2.3341  0.0355  1.4503
 5927TIP3    H239417   2.917   5.304   8.329 -2.3470  0.0030  1.4420
 5928TIP3   OH239418   5.329   1.255   7.265 -0.3725  0.1607 -0.0410
 5928TIP3    H139419   5.277   1.179   7.239 -0.2331  0.2023 -0.4581
 5928TIP3    H239420   5.311   1.266   7.358 -2.1224  0.9435 -0.4360
 5929TIP3   OH239421   6.183   2.863   0.990 -0.4464  0.5033  0.6591
 5929TIP3    H139422   6.101   2.912   0.985 -0.5185  0.2173 -1.6839
 5929TIP3    H239423   6.223   2.873   0.904  0.7100 -1.5511  0.8925
 5930TIP3   OH239424   0.979   0.249   6.876  0.0227 -0.3560 -0.1890
 5930TIP3    H139425   1.068   0.213   6.879 -0.4301 -1.6321 -1.2292
 5930TIP3    H239426   0.954   0.243   6.784 -0.6768  1.2495 -0.1453
 5931TIP3   OH239427   2.307   5.344   0.549  0.3068  0.2902 -0.1921
 5931TIP3    H139428   2.366   5.269   0.544 -0.1018  0.0413 -1.7284
 5931TIP3    H239429   2.351   5.406   0.607  1.0903 -0.7437  0.3446
 5932TIP3   OH239430   0.869   3.065   1.424 -0.1721  0.2377 -0.6561
 5932TIP3    H139431   0.807   3.092   1.492 -0.5614 -2.0371 -0.0211
 5932TIP3    H239432   0.911   3.146   1.397 -1.1279  1.4312  1.1892
 5933TIP3   OH239433   6.218   4.424   6.331 -0.2136 -0.3308 -0.1410
 5933TIP3    H139434   6.144   4.365   6.316 -0.0980 -0.5343  0.0693
 5933TIP3    H239435   6.179   4.510   6.342 -0.3535 -0.3078 -0.8247
 5934TIP3   OH239436   4.520   0.955   2.299 -0.1213 -0.6130 -0.9278
 5934TIP3    H139437   4.489   0.879   2.347  4.2943 -1.5300  1.0245
 5934TIP3    H239438   4.548   0.921   2.214 -0.4140 -0.6903 -0.9910
 5935TIP3   OH239439   2.661   5.692   8.320 -0.1782 -0.4323 -0.3181
 5935TIP3    H139440   2.595   5.740   8.371  0.8418  0.7641 -0.0918
 5935TIP3    H239441   2.685   5.618   8.377 -1.1400 -0.7580 -0.3095
 5936TIP3   OH239442   6.352   3.988   8.138 -0.1286  0.0450  0.0193
 5936TIP3    H139443   6.334   4.049   8.066 -0.1263  1.6585  1.3208
 5936TIP3    H239444   6.285   4.009   8.204  0.6764 -0.4699  1.0301
 5937TIP3   OH239445   6.304   1.979   8.003  0.0308 -0.8144 -0.0231
 5937TIP3    H139446   6.222   1.992   7.955  0.0458 -1.9044 -0.3644
 5937TIP3    H239447   6.359   1.928   7.943  0.4773 -1.2033  0.7098
 5938TIP3   OH239448   4.196   4.316   0.813 -0.0886  0.0696 -0.3679
 5938TIP3    H139449   4.126   4.373   0.781  1.4848  1.8159 -0.8455
 5938TIP3    H239450   4.276   4.352   0.775  1.5868  0.5203  3.1823
 5939TIP3   OH239451   2.846   4.048   6.504  0.5336 -0.8026 -0.1241
 5939TIP3    H139452   2.883   4.069   6.590  0.8568  0.0480 -0.4670
 5939TIP3    H239453   2.756   4.021   6.524  0.1329  0.7921  0.3660
 5940TIP3   OH239454   6.118   0.712   0.532 -0.2106 -0.0417  0.4769
 5940TIP3    H139455   6.034   0.745   0.499 -0.5595 -0.5949  0.7928
 5940TIP3    H239456   6.124   0.749   0.620  0.0501  0.2810  0.3275
 5941TIP3   OH239457   4.121   5.809   2.142  0.2414 -0.2413  0.4121
 5941TIP3    H139458   4.066   5.745   2.186  0.0795 -0.1001  0.4150
 5941TIP3    H239459   4.090   5.809   2.051 -1.7423  1.9412  1.0082
 5942TIP3   OH239460   5.739   0.631   1.508 -0.2670 -0.0540  0.1104
 5942TIP3    H139461   5.823   0.646   1.553  0.0699  0.7996 -0.7691
 5942TIP3    H239462   5.737   0.537   1.492  0.4578 -0.1053  0.2844
 5943TIP3   OH239463   1.944   5.621   7.511 -0.2221 -0.9326  0.3120
 5943TIP3    H139464   2.028   5.581   7.530 -0.0387 -0.7139 -0.0235
 5943TIP3    H239465   1.958   5.715   7.523 -0.8121 -0.9984  1.7023
 5944TIP3   OH239466   0.193   2.002   7.392 -0.3943 -0.2050 -0.1719
 5944TIP3    H139467   0.179   1.915   7.430 -1.6549 -0.6929 -1.6797
 5944TIP3    H239468   0.173   1.991   7.299  0.8725  1.3673 -0.6667
 5945TIP3   OH239469   3.322   0.836   2.582  0.6462 -0.0687 -0.2411
 5945TIP3    H139470   3.342   0.929   2.590 -0.4144  0.0508  1.3938
 5945TIP3    H239471   3.372   0.794   2.651 -2.4076 -0.0679  2.2105
 5946TIP3   OH239472   5.824   3.932   7.331 -0.4489  0.0241  0.0578
 5946TIP3    H139473   5.730   3.919   7.344 -0.3241 -2.5918 -1.1979
 5946TIP3    H239474   5.831   3.984   7.251 -0.8331 -1.0561 -0.6957
 5947TIP3   OH239475   1.092   2.884   1.401 -0.6775  0.0438  0.0364
 5947TIP3    H139476   1.033   2.954   1.431 -1.5206 -0.8175  0.4509
 5947TIP3    H239477   1.099   2.825   1.476  2.4515  1.1699  0.7813
 5948TIP3   OH239478   2.650   1.525   8.317  0.6102 -0.0662  0.2496
 5948TIP3    H139479   2.675   1.616   8.304  0.1333 -0.1045 -1.0945
 5948TIP3    H239480   2.567   1.529   8.366  1.0245  0.1850  0.9376
 5949TIP3   OH239481   2.887   4.199   6.790  0.1323  0.9446  0.2703
 5949TIP3    H139482   2.923   4.128   6.844 -0.2049 -1.1185 -2.0683
 5949TIP3    H239483   2.863   4.267   6.853  0.7346 -0.8826  2.6031
 5950TIP3   OH239484   0.629   1.190   2.052 -0.6375 -0.2919  0.3133
 5950TIP3    H139485   0.723   1.170   2.056 -0.5920 -0.4428 -1.1085
 5950TIP3    H239486   0.622   1.277   2.090  0.1375 -0.1034  0.0544
 5951TIP3   OH239487   5.283   1.196   8.331 -0.1639  0.4781 -0.2010
 5951TIP3    H139488   5.318   1.167   8.415  0.4704  0.6271 -0.4108
 5951TIP3    H239489   5.340   1.268   8.304  1.4724 -1.4055 -2.1280
 5952TIP3   OH239490   5.919   5.632   6.880  0.1933 -0.1296 -0.2106
 5952TIP3    H139491   5.964   5.701   6.830  0.6211 -0.3949 -0.2033
 5952TIP3    H239492   5.987   5.566   6.893 -0.3552 -0.7885 -0.6693
 5953TIP3   OH239493   3.306   6.278   8.315 -0.6154  0.2800  0.0127
 5953TIP3    H139494   3.394   6.241   8.309 -0.2648  1.2963 -1.6789
 5953TIP3    H239495   3.248   6.203   8.301 -0.0125 -0.2149  0.1094
 5954TIP3   OH239496   3.332   0.980   0.362 -0.6026  0.1314  0.3408
 5954TIP3    H139497   3.357   1.071   0.378  1.0505 -0.2617  0.1926
 5954TIP3    H239498   3.248   0.986   0.318 -0.1444  1.6299 -0.4109
 5955TIP3   OH239499   0.341   0.016   0.669 -0.4339 -0.3081  0.2057
 5955TIP3    H139500   0.432   0.045   0.658 -0.3419 -1.1484 -1.4723
 5955TIP3    H239501   0.337  -0.069   0.625 -2.2400  0.1077 -0.5178
 5956TIP3   OH239502   2.865   2.356   7.477  0.2179 -0.0801  0.0620
 5956TIP3    H139503   2.890   2.386   7.390  0.1358 -0.6371 -0.1619
 5956TIP3    H239504   2.780   2.314   7.464 -0.6283  1.3459  0.7202
 5957TIP3   OH239505   6.363   1.887   1.054  0.0153 -0.4686  0.2154
 5957TIP3    H139506   6.368   1.974   1.095 -0.0824 -0.7318  0.7910
 5957TIP3    H239507   6.454   1.866   1.033  0.2744 -1.0086  1.7532
 5958TIP3   OH239508   0.387   4.556   7.827  0.3961 -0.1278 -0.2388
 5958TIP3    H139509   0.470   4.603   7.827  0.2492  0.1386 -0.4467
 5958TIP3    H239510   0.368   4.541   7.734  0.5683 -0.8244 -0.1627
 5959TIP3   OH239511   3.324   4.085   1.343 -0.4927 -0.0932  0.0505
 5959TIP3    H139512   3.282   4.053   1.263 -1.3397  0.5447  0.2219
 5959TIP3    H239513   3.264   4.059   1.413  1.0817 -2.1783  0.7004
 5960TIP3   OH239514   2.909   6.924   8.215  0.1508 -0.4238  0.4980
 5960TIP3    H139515   2.966   6.984   8.166  0.0352 -1.3124 -0.7671
 5960TIP3    H239516   2.849   6.889   8.150  1.6763 -3.7179  0.6360
 5961TIP3   OH239517   6.832   4.388   6.361  0.1313  0.1761  0.4727
 5961TIP3    H139518   6.740   4.390   6.335 -0.2382  1.1854  1.7413
 5961TIP3    H239519   6.852   4.295   6.371 -0.7115 -0.0559  0.0769
 5962TIP3   OH239520   5.021   1.465   1.583 -0.1437 -0.7061  0.0436
 5962TIP3    H139521   5.013   1.492   1.491 -1.5907 -2.2796 -0.3333
 5962TIP3    H239522   5.088   1.524   1.619 -0.8179  1.1460 -1.5419
 5963TIP3   OH239523   6.240   0.702   0.970  0.7245  0.9224  0.1494
 5963TIP3    H139524   6.257   0.756   0.893 -0.6031  0.6016 -0.3958
 5963TIP3    H239525   6.155   0.662   0.953  1.6261 -1.3303  0.5336
 5964TIP3   OH239526   3.609   2.706   8.420  0.0659  0.5553 -0.6205
 5964TIP3    H139527   3.631   2.694   8.328  2.5017 -0.0667 -0.0223
 5964TIP3    H239528   3.674   2.768   8.453  1.8968 -2.2764  1.5460
 5965TIP3   OH239529   1.274   6.676   1.216  0.1918  0.0411  0.4553
 5965TIP3    H139530   1.341   6.743   1.206  2.0214 -1.7560 -0.0738
 5965TIP3    H239531   1.228   6.701   1.296  1.4562  1.3867  0.8157
 5966TIP3   OH239532   3.719   3.027   0.394  0.3605  0.0953  0.3442
 5966TIP3    H139533   3.807   2.992   0.402  0.6027  0.1505 -1.5153
 5966TIP3    H239534   3.726   3.093   0.325 -1.3011 -0.6039 -0.5572
 5967TIP3   OH239535   2.931   2.459   8.187 -0.0484  1.0146  0.0005
 5967TIP3    H139536   2.993   2.448   8.260 -0.5238 -1.6972  0.1043
 5967TIP3    H239537   2.977   2.424   8.111 -0.9538  0.1438 -0.1732
 5968TIP3   OH239538   1.193   0.603   0.875  0.0846 -0.3167  0.6145
 5968TIP3    H139539   1.138   0.616   0.797  1.3563  0.0443 -0.2541
 5968TIP3    H239540   1.245   0.682   0.881  0.2704 -0.5088  1.6369
 5969TIP3   OH239541   1.475   2.972   7.930  0.4415  0.5413  0.0765
 5969TIP3    H139542   1.494   2.880   7.947  0.8233  0.8618  1.5919
 5969TIP3    H239543   1.551   3.018   7.967 -1.4333  1.6562  2.8669
 5970TIP3   OH239544   0.237   3.014   2.469  0.0651  0.3078  0.2850
 5970TIP3    H139545   0.142   3.023   2.461 -0.0861  0.6285  2.0975
 5970TIP3    H239546   0.265   2.985   2.382 -1.7438 -0.3100 -0.1441
 5971TIP3   OH239547   2.334   0.629   0.995  0.1756  0.5854 -0.5873
 5971TIP3    H139548   2.399   0.586   1.050 -1.7726 -2.2847 -0.2975
 5971TIP3    H239549   2.273   0.670   1.056  0.0033  0.5149 -0.7077
 5972TIP3   OH239550   3.527   1.063   7.030  0.0194  0.8875  0.2604
 5972TIP3    H139551   3.546   1.013   6.951  1.1813  1.6408  0.0396
 5972TIP3    H239552   3.445   1.109   7.010  1.0272  2.2183 -1.1164
 5973TIP3   OH239553   3.314   5.338   0.399 -0.0357  0.6320 -0.1723
 5973TIP3    H139554   3.231   5.383   0.387 -0.3390  0.3008  0.5859
 5973TIP3    H239555   3.372   5.404   0.437 -0.0500  0.7714 -0.3908
 5974TIP3   OH239556   4.951   5.335   2.862 -0.1522 -0.0935 -0.3713
 5974TIP3    H139557   4.873   5.339   2.806  0.6450  0.4799 -1.4586
 5974TIP3    H239558   4.930   5.393   2.936 -0.8561 -0.1551 -0.5150
 5975TIP3   OH239559   1.081   0.792   8.542 -0.3369 -0.3669  0.3039
 5975TIP3    H139560   1.065   0.887   8.547  0.4178 -0.2341  0.3204
 5975TIP3    H239561   0.996   0.755   8.517 -0.3413  0.4313 -0.9611
 5976TIP3   OH239562   2.900   0.754   8.377 -0.6486  0.0283 -0.3835
 5976TIP3    H139563   2.824   0.771   8.320  0.9666 -0.3447 -2.8097
 5976TIP3    H239564   2.942   0.840   8.385 -0.9015  0.0906  0.3555
 5977TIP3   OH239565   3.856   1.139   0.641 -0.2603  0.3518 -0.1007
 5977TIP3    H139566   3.914   1.150   0.565 -2.5706 -0.2025 -2.0786
 5977TIP3    H239567   3.870   1.218   0.694 -1.6143  3.0569 -3.3614
 5978TIP3   OH239568   2.680   1.020   6.499  0.3298 -0.1464  0.6919
 5978TIP3    H139569   2.640   1.086   6.442  2.5766  1.6525  1.0375
 5978TIP3    H239570   2.745   0.977   6.444  1.4068  0.5007  1.4339
 5979TIP3   OH239571   5.766   4.679   7.035 -0.1950 -0.7392  0.1764
 5979TIP3    H139572   5.786   4.621   6.961 -0.1107 -0.9928  0.3947
 5979TIP3    H239573   5.777   4.623   7.112  2.3450  0.1724  0.5763
 5980TIP3   OH239574   4.342   2.566   1.026  0.1787 -0.9719  0.6036
 5980TIP3    H139575   4.421   2.545   0.978 -0.6622  0.1158 -1.3609
 5980TIP3    H239576   4.365   2.644   1.077  0.0650  0.0546 -0.8763
 5981TIP3   OH239577   4.497   0.134   2.180  0.0915  0.6243  0.2062
 5981TIP3    H139578   4.555   0.203   2.147  0.7929  0.0843  0.2964
 5981TIP3    H239579   4.420   0.139   2.124  0.8499  0.3743 -0.8930
 5982TIP3   OH239580   0.545   0.916   8.258 -0.5338  0.2248  0.2755
 5982TIP3    H139581   0.494   0.838   8.278 -0.0299  0.0443  0.8703
 5982TIP3    H239582   0.489   0.989   8.284 -0.9846  0.0669 -0.2377
 5983TIP3   OH239583   6.039   6.180   0.753 -0.4645  0.7199  0.0090
 5983TIP3    H139584   6.074   6.182   0.664  3.1546  1.5802  1.2791
 5983TIP3    H239585   5.999   6.093   0.761  1.3460 -0.3774 -1.7440
 5984TIP3   OH239586   1.614   5.216   7.681  0.4478  0.5024  0.2360
 5984TIP3    H139587   1.628   5.267   7.761  0.4227 -0.1898  0.6862
 5984TIP3    H239588   1.694   5.228   7.630  1.3870 -0.7792  1.3264
 5985TIP3   OH239589   0.515   4.284   7.658 -0.1820 -0.1187  0.1954
 5985TIP3    H139590   0.427   4.251   7.678  0.2860 -1.2259  0.5426
 5985TIP3    H239591   0.557   4.295   7.744 -0.0709  0.6913  0.0459
 5986TIP3   OH239592   5.187   3.596   1.123  0.0037  0.5284 -0.1007
 5986TIP3    H139593   5.110   3.569   1.174 -0.5720  2.8563  0.3866
 5986TIP3    H239594   5.207   3.520   1.068 -0.9274 -1.1491  1.7439
 5987TIP3   OH239595   1.195   3.423   2.599  0.1790 -0.4319 -0.2955
 5987TIP3    H139596   1.106   3.445   2.569  0.6099  1.1775 -0.4930
 5987TIP3    H239597   1.249   3.494   2.566  1.4373 -1.0316  0.4251
 5988TIP3   OH239598   6.753   3.965   0.608 -0.2183 -0.3070 -0.4698
 5988TIP3    H139599   6.784   3.886   0.563 -2.0288 -1.0540 -0.4886
 5988TIP3    H239600   6.724   3.933   0.694  0.1750  0.5678  0.0049
 5989TIP3   OH239601   3.846   3.768   8.298 -0.1047  0.0693 -0.4193
 5989TIP3    H139602   3.908   3.730   8.236 -1.4242  2.3511 -3.3672
 5989TIP3    H239603   3.784   3.697   8.315  0.6312 -0.8016 -1.2155
 5990TIP3   OH239604   0.100   6.215   7.084 -0.2576 -0.2361  0.3191
 5990TIP3    H139605   0.123   6.220   7.177 -0.4601  1.0741  0.3257
 5990TIP3    H239606   0.046   6.137   7.076 -0.0459 -0.4863  1.2608
 5991TIP3   OH239607   0.623   5.661   1.483 -0.1016  0.6459 -0.0239
 5991TIP3    H139608   0.718   5.660   1.470  0.1034 -2.1594  0.8715
 5991TIP3    H239609   0.605   5.745   1.523  2.3106  0.5169  1.5432
 5992TIP3   OH239610   4.241   0.081   1.618 -0.2149 -0.1811  0.3735
 5992TIP3    H139611   4.236  -0.014   1.606  0.4878 -0.2248  0.3941
 5992TIP3    H239612   4.282   0.113   1.538  0.4866 -0.0103  0.7954
 5993TIP3   OH239613   3.847   5.702   8.261  0.2704  0.1488  0.0732
 5993TIP3    H139614   3.883   5.770   8.204  0.5800  1.1753  1.4519
 5993TIP3    H239615   3.920   5.641   8.274  0.4305  0.3260  0.0127
 5994TIP3   OH239616   0.328   2.624   7.390 -0.1192 -0.0717  0.5831
 5994TIP3    H139617   0.363   2.647   7.477  0.3438 -1.4378  0.7760
 5994TIP3    H239618   0.236   2.649   7.394 -0.2367 -0.6122  1.6743
 5995TIP3   OH239619   6.623   6.741   1.663 -0.3063 -0.0106  0.1366
 5995TIP3    H139620   6.665   6.747   1.749  0.8522  1.4913 -0.4792
 5995TIP3    H239621   6.596   6.831   1.643 -1.1299 -0.4410 -0.8107
 5996TIP3   OH239622   2.913   0.307   1.653  0.1479 -0.3051 -0.2562
 5996TIP3    H139623   2.853   0.238   1.682 -2.1597  2.3923  1.9960
 5996TIP3    H239624   2.856   0.378   1.624  2.4163  0.3366 -3.7419
 5997TIP3   OH239625   2.479   6.018   0.895 -0.9263  0.6399  0.3283
 5997TIP3    H139626   2.419   5.983   0.961  0.4526 -1.2964  0.6438
 5997TIP3    H239627   2.526   5.941   0.861  1.3955  2.0409  0.1167
 5998TIP3   OH239628   2.010   1.095   1.471 -0.1058 -0.5248 -0.6337
 5998TIP3    H139629   2.022   1.111   1.565 -0.9253 -1.9374 -0.2584
 5998TIP3    H239630   1.923   1.131   1.452  0.9037  1.6904 -1.3682
 5999TIP3   OH239631   6.302   3.555   0.111 -0.2394  0.5380  0.1273
 5999TIP3    H139632   6.375   3.497   0.088 -0.6739 -0.1570  0.4475
 5999TIP3    H239633   6.287   3.607   0.032  0.4052  0.4722 -0.0412
 6000TIP3   OH239634   4.253   5.529   8.478  0.1533  0.4164 -0.1548
 6000TIP3    H139635   4.344   5.538   8.508  0.1453  0.9450 -0.2872
 6000TIP3    H239636   4.224   5.618   8.461 -0.1550  0.1940 -0.8177
 6001TIP3   OH239637   4.821   3.296   1.979  0.1326 -0.1086 -0.7509
 6001TIP3    H139638   4.873   3.362   1.933  1.6938 -0.9610 -0.2960
 6001TIP3    H239639   4.731   3.326   1.971  0.5129  0.5991 -2.9610
 6002TIP3   OH239640   1.639   3.817   1.671  0.0633  0.1541 -0.1810
 6002TIP3    H139641   1.654   3.736   1.719 -0.9051 -0.0550 -0.1957
 6002TIP3    H239642   1.572   3.795   1.606 -0.6286  1.0792  0.1847
 6003TIP3   OH239643   2.463   3.671   2.932 -0.0031 -0.3232  0.3683
 6003TIP3    H139644   2.487   3.651   2.842  2.2340 -0.9137  1.0404
 6003TIP3    H239645   2.512   3.751   2.953  0.6450 -0.9858  1.4779
 6004TIP3   OH239646   1.643   4.739   7.210  1.1195  0.1944 -0.0940
 6004TIP3    H139647   1.683   4.814   7.167 -0.9207 -0.0804 -2.7844
 6004TIP3    H239648   1.716   4.681   7.232  2.4409  1.2452 -1.5125
 6005TIP3   OH239649   6.259   0.100   2.245  0.5068  0.3865  0.0850
 6005TIP3    H139650   6.191   0.059   2.191  0.1852  0.9577  0.0484
 6005TIP3    H239651   6.281   0.033   2.310 -0.2232  0.2557  0.2063
 6006TIP3   OH239652   6.471   5.619   8.120  0.1324  0.3333 -0.2631
 6006TIP3    H139653   6.432   5.545   8.072 -0.4417  0.5812 -0.1774
 6006TIP3    H239654   6.564   5.596   8.125 -0.1900 -0.9096  0.6851
 6007TIP3   OH239655   5.314   2.808   6.848 -0.2841 -0.4019  0.5206
 6007TIP3    H139656   5.295   2.824   6.755  2.2880  0.0007 -0.0107
 6007TIP3    H239657   5.358   2.723   6.848  1.1829  0.3366  1.1379
 6008TIP3   OH239658   0.666   3.832   8.261  0.3717 -0.5402  0.1121
 6008TIP3    H139659   0.719   3.812   8.184 -0.3549 -2.0261 -0.0484
 6008TIP3    H239660   0.730   3.847   8.331  1.0671  1.7813 -0.9501
 6009TIP3   OH239661   4.756   5.150   7.645 -0.2352  0.0511 -0.3986
 6009TIP3    H139662   4.704   5.206   7.587  0.2444  1.2987  0.3309
 6009TIP3    H239663   4.771   5.205   7.722  1.9676 -0.3543 -0.4914
 6010TIP3   OH239664   3.291   5.326   7.978  0.2291 -0.3973  0.3313
 6010TIP3    H139665   3.289   5.368   7.892  0.1105 -0.7949  0.1384
 6010TIP3    H239666   3.384   5.309   7.993  0.3825  0.8208  0.8507
 6011TIP3   OH239667   3.476   6.400   1.450  0.0087  0.4830  0.4962
 6011TIP3    H139668   3.429   6.462   1.395  0.0714 -0.2956 -0.4515
 6011TIP3    H239669   3.566   6.404   1.419  0.0531  0.0674  0.5655
 6012TIP3   OH239670   6.205   1.920   1.868  0.5896  0.0751  0.0004
 6012TIP3    H139671   6.267   1.865   1.916  0.6027  1.0560  1.1429
 6012TIP3    H239672   6.202   1.881   1.780  1.0816 -1.3521  0.5811
 6013TIP3   OH239673   5.427   4.379   0.747 -0.2215 -0.2717 -0.6144
 6013TIP3    H139674   5.513   4.383   0.704  0.9709 -0.2227  1.6545
 6013TIP3    H239675   5.386   4.463   0.726  1.6664  1.1177  0.8993
 6014TIP3   OH239676   5.864   6.268   6.751  0.4006 -0.4070  0.2816
 6014TIP3    H139677   5.806   6.261   6.827  1.1435  0.3117  0.9414
 6014TIP3    H239678   5.908   6.184   6.746 -1.1415 -1.2130 -0.6329
 6015TIP3   OH239679   5.508   4.753   2.402  0.7387  0.2179  0.9900
 6015TIP3    H139680   5.436   4.689   2.399 -0.1067  1.1608 -1.4146
 6015TIP3    H239681   5.515   4.777   2.494 -1.3048 -0.7120  1.4431
 6016TIP3   OH239682   3.059   4.383   7.839  0.1781 -0.6049 -0.1481
 6016TIP3    H139683   3.084   4.454   7.781 -1.9248 -0.0536 -0.4709
 6016TIP3    H239684   3.025   4.315   7.780  0.7240 -1.2480  0.2614
 6017TIP3   OH239685   6.186   2.658   6.519 -0.3729 -0.5471 -0.0448
 6017TIP3    H139686   6.098   2.674   6.485  0.3108 -1.3228 -2.3050
 6017TIP3    H239687   6.237   2.734   6.492 -0.0654 -0.6557  0.2212
 6018TIP3   OH239688   6.565   0.486   7.376 -0.0522  0.1822 -0.0996
 6018TIP3    H139689   6.477   0.483   7.339  0.3811 -2.0315 -1.1188
 6018TIP3    H239690   6.620   0.438   7.313  1.4293 -0.5158  1.6128
 6019TIP3   OH239691   4.350   1.578   6.625 -0.1880  0.2518  0.2516
 6019TIP3    H139692   4.335   1.671   6.612 -0.5145 -0.0369 -1.7807
 6019TIP3    H239693   4.445   1.571   6.640 -0.1616  0.9084  0.4025
 6020TIP3   OH239694   6.148   3.506   7.586  0.1437  0.4394  0.0580
 6020TIP3    H139695   6.061   3.468   7.578  0.3611 -0.3141  0.9789
 6020TIP3    H239696   6.200   3.437   7.628  0.9334  1.2201  0.3939
 6021TIP3   OH239697   0.394   0.433   7.776 -0.0738 -0.0819  0.3401
 6021TIP3    H139698   0.435   0.475   7.852  0.1832 -0.4177  0.3907
 6021TIP3    H239699   0.466   0.387   7.732 -0.4385 -0.9074  0.5811
 6022TIP3   OH239700   6.065   4.379   8.366  0.0603  0.4604 -0.0622
 6022TIP3    H139701   6.144   4.404   8.414 -0.7765 -0.1255  1.7478
 6022TIP3    H239702   6.071   4.284   8.358 -0.4332  0.4121  0.0701
 6023TIP3   OH239703   5.354   1.731   1.245 -0.3974  0.7726 -0.0189
 6023TIP3    H139704   5.259   1.730   1.260 -0.4992  1.8408 -0.4805
 6023TIP3    H239705   5.366   1.793   1.173  0.7615  1.7347  0.9585
 6024TIP3   OH239706   1.366   3.013   8.179 -0.2074  0.0067 -0.3728
 6024TIP3    H139707   1.308   3.088   8.190  2.2420  1.9227  0.3369
 6024TIP3    H239708   1.428   3.039   8.111  0.7855 -1.2727 -0.0084
 6025TIP3   OH239709   4.462   6.535   1.474  0.3787  0.6836 -0.1700
 6025TIP3    H139710   4.406   6.558   1.400  1.2133  0.8975 -0.7426
 6025TIP3    H239711   4.502   6.618   1.500 -0.3990  0.7314  0.9512
 6026TIP3   OH239712   1.182   4.502   0.349  0.2709 -0.1172  0.5259
 6026TIP3    H139713   1.175   4.501   0.253 -0.6553  0.8956  0.5669
 6026TIP3    H239714   1.195   4.594   0.370 -1.1915 -0.1078  1.4762
 6027TIP3   OH239715   0.799   4.334   7.892  0.0199  0.0874  0.3804
 6027TIP3    H139716   0.821   4.246   7.924 -0.8583 -0.7106 -1.1001
 6027TIP3    H239717   0.848   4.393   7.949 -0.2527 -1.3101  2.1461
 6028TIP3   OH239718   4.483   2.840   1.648  0.0095  0.5590 -0.2767
 6028TIP3    H139719   4.467   2.801   1.734  0.2079  0.7544 -0.1483
 6028TIP3    H239720   4.550   2.785   1.609  0.1197  0.6346 -0.1928
 6029TIP3   OH239721   5.950   1.040   8.085 -0.2120  0.1436 -0.1218
 6029TIP3    H139722   5.921   1.129   8.063 -1.2685 -0.3248 -0.6526
 6029TIP3    H239723   5.885   1.009   8.148  0.8972  0.2199  1.1024
 6030TIP3   OH239724   1.020   2.642   1.242 -0.2493  0.0280  0.6414
 6030TIP3    H139725   0.936   2.625   1.284  0.4438 -1.1634  1.6255
 6030TIP3    H239726   1.053   2.722   1.285 -0.3257 -0.2060  1.1419
 6031TIP3   OH239727   1.884   5.952   7.445 -0.6393  0.0519  0.5737
 6031TIP3    H139728   1.954   6.012   7.468 -0.2244 -0.6667  1.2278
 6031TIP3    H239729   1.837   5.937   7.527 -0.9180 -0.2892  0.3566
 6032TIP3   OH239730   3.575   4.817   2.740  0.5716 -0.0620 -0.2011
 6032TIP3    H139731   3.564   4.726   2.715  0.2006 -0.9020  2.6727
 6032TIP3    H239732   3.661   4.821   2.782  0.3889  0.7995  0.1171
 6033TIP3   OH239733   5.366   5.870   8.082 -0.0826  0.5142  0.5169
 6033TIP3    H139734   5.279   5.830   8.087  0.5904 -1.1299 -0.1110
 6033TIP3    H239735   5.426   5.800   8.108  1.0435  1.7499  1.3732
 6034TIP3   OH239736   5.528   5.984   0.622  0.4630  0.0002 -0.4248
 6034TIP3    H139737   5.546   5.935   0.702  0.2471 -0.4562 -0.6552
 6034TIP3    H239738   5.614   5.991   0.578  0.7376  0.9338  0.2150
 6035TIP3   OH239739   5.510   4.553   8.032  0.1132 -0.3158 -0.6067
 6035TIP3    H139740   5.480   4.628   7.980 -0.6097 -0.2585 -0.1213
 6035TIP3    H239741   5.492   4.577   8.123  1.6153 -0.3133 -0.2921
 6036TIP3   OH239742   6.276   1.892   7.264  0.2859  0.0955 -0.3564
 6036TIP3    H139743   6.299   1.975   7.305 -0.8382  0.5197 -0.5473
 6036TIP3    H239744   6.359   1.844   7.258  1.1668  1.6717 -1.3484
 6037TIP3   OH239745   2.672   5.844   1.836 -0.8626  0.0158  0.1471
 6037TIP3    H139746   2.722   5.861   1.756 -0.7776 -0.3828  0.1146
 6037TIP3    H239747   2.582   5.869   1.814 -0.9369 -0.5783 -0.2402
 6038TIP3   OH239748   1.587   0.433   6.344  0.1490 -0.8176 -0.7347
 6038TIP3    H139749   1.505   0.436   6.393 -0.7662 -1.4345 -2.1742
 6038TIP3    H239750   1.652   0.404   6.408 -1.0614 -1.9271  0.0421
 6039TIP3   OH239751   4.983   2.886   0.181  0.2568  0.0797  0.3602
 6039TIP3    H139752   4.937   2.803   0.195  2.0333 -0.7868  1.3603
 6039TIP3    H239753   4.920   2.953   0.205 -0.9378 -1.0072  0.3501
 6040TIP3   OH239754   3.998   6.718   7.645 -0.5970 -0.6105 -0.4715
 6040TIP3    H139755   4.073   6.752   7.596 -0.6853  0.2109 -0.0534
 6040TIP3    H239756   4.035   6.650   7.700 -0.3542 -0.9753 -1.0718
 6041TIP3   OH239757   0.308   6.112   6.517 -0.2728 -0.2741 -0.1039
 6041TIP3    H139758   0.287   6.123   6.610 -1.8265 -1.0915 -0.3235
 6041TIP3    H239759   0.273   6.190   6.474 -0.4277 -0.3552 -0.1253
 6042TIP3   OH239760   2.500   5.755   0.426 -0.4018  0.2716 -0.5314
 6042TIP3    H139761   2.419   5.783   0.469 -1.9101  2.5373 -4.3864
 6042TIP3    H239762   2.473   5.732   0.337  3.0295 -0.2689 -1.5766
 6043TIP3   OH239763   5.626   6.399   1.920 -0.1407 -0.1168  0.2194
 6043TIP3    H139764   5.591   6.327   1.866  1.0094  0.1272 -0.9076
 6043TIP3    H239765   5.705   6.427   1.874 -1.0016  2.4463  0.1462
 6044TIP3   OH239766   5.963   0.704   1.641 -0.9685 -0.3573 -0.6792
 6044TIP3    H139767   5.912   0.773   1.683  1.7025  0.7432  0.9592
 6044TIP3    H239768   6.032   0.750   1.593 -0.8945 -1.8212 -2.0560
 6045TIP3   OH239769   0.879   1.776   7.315 -0.2224 -0.2901  0.2239
 6045TIP3    H139770   0.823   1.851   7.299 -0.2971 -0.6857 -1.5685
 6045TIP3    H239771   0.960   1.796   7.268 -0.2341 -1.3067 -0.2490
 6046TIP3   OH239772   1.038   4.008   0.167 -0.2281 -0.1313 -0.2302
 6046TIP3    H139773   0.996   4.093   0.155  1.5810  1.0795  1.5251
 6046TIP3    H239774   1.106   4.005   0.100  1.5066  1.0606  1.4060
 6047TIP3   OH239775   6.539   1.482   0.888 -0.1649  0.3040  0.1051
 6047TIP3    H139776   6.498   1.451   0.807 -1.2290  0.8618  0.4063
 6047TIP3    H239777   6.472   1.538   0.928 -0.1270 -0.8895  1.9413
 6048TIP3   OH239778   5.617   5.077   2.628  0.1904 -0.1504  0.1823
 6048TIP3    H139779   5.608   5.170   2.608  0.4467  0.2513  1.8279
 6048TIP3    H239780   5.695   5.072   2.683 -0.6352 -1.1444  1.2942
 6049TIP3   OH239781   5.245   0.239   8.172 -0.2233  0.2730 -0.0943
 6049TIP3    H139782   5.257   0.257   8.265 -2.3335  0.6329  0.1714
 6049TIP3    H239783   5.265   0.321   8.128  0.3404  0.2335  0.0865
 6050TIP3   OH239784   1.866   3.989   7.214  0.0677  0.0902  0.0754
 6050TIP3    H139785   1.791   4.035   7.176  0.5768  1.2662  0.4397
 6050TIP3    H239786   1.918   4.058   7.256  1.9132 -0.5161 -1.0563
 6051TIP3   OH239787   5.898   6.042   2.484 -0.3430 -0.5119 -0.5132
 6051TIP3    H139788   5.869   5.955   2.458  0.1723 -1.1178  0.8083
 6051TIP3    H239789   5.821   6.083   2.522 -0.4776 -0.5793 -0.7160
 6052TIP3   OH239790   1.461   1.384   6.692 -0.4251  0.2552 -0.2662
 6052TIP3    H139791   1.529   1.348   6.749 -0.2918  0.5315 -0.2527
 6052TIP3    H239792   1.415   1.307   6.659  0.4671  0.0081 -0.9907
 6053TIP3   OH239793   6.749   5.125   7.420 -0.9389 -0.1001  0.2363
 6053TIP3    H139794   6.660   5.098   7.442 -1.0612  0.8000  0.9542
 6053TIP3    H239795   6.740   5.175   7.339 -1.4043  1.5166  1.2151
 6054TIP3   OH239796   0.472   2.102   7.405 -0.0865 -0.5073  0.1279
 6054TIP3    H139797   0.395   2.087   7.350 -1.0916  0.6165  1.1447
 6054TIP3    H239798   0.457   2.047   7.482  1.2226 -1.9365 -0.5938
 6055TIP3   OH239799   0.821   6.604   1.556 -0.3117  0.0963  0.0638
 6055TIP3    H139800   0.749   6.556   1.515  0.5798 -0.5381 -0.8079
 6055TIP3    H239801   0.817   6.581   1.649 -0.7479 -0.5728 -0.1154
 6056TIP3   OH239802   4.123   2.251   0.865 -0.3931  0.1746 -0.7256
 6056TIP3    H139803   4.180   2.327   0.871 -1.6607  1.1037 -0.0745
 6056TIP3    H239804   4.165   2.186   0.922 -0.4719  1.1694  0.5109
 6057TIP3   OH239805   1.439   1.300   7.435  0.4571 -0.1763 -0.8343
 6057TIP3    H139806   1.415   1.284   7.344 -0.0149 -1.2164 -0.5338
 6057TIP3    H239807   1.373   1.254   7.486 -0.7249  2.3796  0.0941
 6058TIP3   OH239808   2.632   5.645   7.118  0.2862 -0.3338 -0.0581
 6058TIP3    H139809   2.688   5.604   7.184  0.1917 -0.5848 -0.1293
 6058TIP3    H239810   2.583   5.711   7.166  2.0653  1.2968 -0.3769
 6059TIP3   OH239811   3.181   3.009   6.811 -0.2606 -0.4216  0.0632
 6059TIP3    H139812   3.260   2.964   6.840 -0.7731 -1.3236  0.1088
 6059TIP3    H239813   3.209   3.060   6.735  0.6538  0.3875  0.9141
 6060TIP3   OH239814   4.386   5.757   0.402 -0.2689 -0.4250 -0.0743
 6060TIP3    H139815   4.459   5.785   0.457 -0.2130 -0.6759 -0.0184
 6060TIP3    H239816   4.308   5.788   0.449 -0.1608  2.1716 -1.4106
 6061TIP3   OH239817   4.293   6.317   7.242  0.3475 -1.0026 -0.4101
 6061TIP3    H139818   4.282   6.321   7.147  0.4483  0.5753 -0.3741
 6061TIP3    H239819   4.205   6.322   7.277  0.4241  0.4390 -0.3874
 6062TIP3   OH239820   6.229   6.390   7.676 -0.0340 -0.5322  0.2682
 6062TIP3    H139821   6.242   6.389   7.771 -0.9828  0.9586  0.4481
 6062TIP3    H239822   6.317   6.380   7.640  0.3134 -1.4129  1.2891
 6063TIP3   OH239823   1.576   1.824   1.208 -0.1164 -0.1221 -0.0231
 6063TIP3    H139824   1.636   1.875   1.154 -1.4821  0.1091 -1.3722
 6063TIP3    H239825   1.535   1.888   1.267 -1.4892  0.3172 -1.4011
 6064TIP3   OH239826   6.731   5.996   6.971  0.0413  0.2048  0.3377
 6064TIP3    H139827   6.762   5.988   7.062 -0.7674 -0.5852  0.5583
 6064TIP3    H239828   6.786   5.935   6.922  1.5242  1.7599  0.0029
 6065TIP3   OH239829   6.811   3.406   1.218  0.4254 -0.0315  0.1924
 6065TIP3    H139830   6.779   3.335   1.163 -4.1867 -0.0140  2.3310
 6065TIP3    H239831   6.847   3.362   1.295 -1.2583 -0.1839  0.9438
 6066TIP3   OH239832   2.394   2.465   8.012  0.1794 -0.0527 -0.3606
 6066TIP3    H139833   2.337   2.515   8.070  1.3077  1.9222 -0.8860
 6066TIP3    H239834   2.483   2.489   8.039  0.7284  0.3619 -2.4032
 6067TIP3   OH239835   3.951   2.388   1.406 -0.0988  0.2163 -0.0006
 6067TIP3    H139836   3.985   2.340   1.331  1.3249  0.7027  0.2995
 6067TIP3    H239837   3.974   2.480   1.388  0.6522  0.2862  1.1959
 6068TIP3   OH239838   0.515   2.690   0.158  0.7418 -0.2557 -0.2845
 6068TIP3    H139839   0.523   2.769   0.105  0.3505 -0.4444 -0.6221
 6068TIP3    H239840   0.473   2.720   0.239  1.3795  0.0394 -0.0523
 6069TIP3   OH239841   0.447   0.835   7.545 -0.1863  0.3018 -0.2574
 6069TIP3    H139842   0.478   0.891   7.474  0.0846  0.4423 -0.0328
 6069TIP3    H239843   0.390   0.771   7.503  2.4816 -1.6981 -1.1416
 6070TIP3   OH239844   4.226   5.755   8.086  0.1161 -0.0110 -0.5291
 6070TIP3    H139845   4.292   5.801   8.033  0.6878 -1.3048 -0.9684
 6070TIP3    H239846   4.143   5.796   8.062  0.4773  0.0092 -1.7834
 6071TIP3   OH239847   0.283   4.312   1.511 -0.8275  0.3577 -0.1014
 6071TIP3    H139848   0.288   4.293   1.417  0.6499  1.5850 -0.3175
 6071TIP3    H239849   0.349   4.255   1.551 -2.1535 -0.8953  0.3479
 6072TIP3   OH239850   3.466   5.242   7.692 -0.1525 -0.1706  0.0708
 6072TIP3    H139851   3.558   5.260   7.673 -0.3669  0.8377 -0.1139
 6072TIP3    H239852   3.465   5.222   7.786  0.2163  0.1314  0.1447
 6073TIP3   OH239853   3.984   5.137   0.541  0.2672  0.3817 -0.3153
 6073TIP3    H139854   3.953   5.077   0.608  1.2480 -0.2617 -0.4151
 6073TIP3    H239855   3.970   5.091   0.458 -0.0129  0.7541 -0.4789
 6074TIP3   OH239856   2.641   0.755   8.246  0.0589 -0.2409  0.4017
 6074TIP3    H139857   2.586   0.743   8.323  0.0352 -0.1858  0.3929
 6074TIP3    H239858   2.589   0.810   8.187  0.0730 -0.2908  0.3421
 6075TIP3   OH239859   5.626   5.469   7.572  0.0872 -1.0903 -0.1134
 6075TIP3    H139860   5.605   5.387   7.618  0.3844 -1.5667 -0.7997
 6075TIP3    H239861   5.560   5.475   7.503  0.3484 -0.9983 -0.3553
 6076TIP3   OH239862   1.592   4.909   2.458  0.3049 -0.0040 -0.2065
 6076TIP3    H139863   1.679   4.946   2.441 -0.0306  2.2115  2.1414
 6076TIP3    H239864   1.605   4.854   2.535 -0.6009  1.9802  1.4801
 6077TIP3   OH239865   4.546   0.897   7.997  0.7650  0.1262  0.1852
 6077TIP3    H139866   4.482   0.953   7.953 -1.3643 -2.0114  0.3538
 6077TIP3    H239867   4.497   0.857   8.070  2.7644 -0.3627  1.3298
 6078TIP3   OH239868   5.415   3.455   0.152 -0.1818  0.0729  0.2511
 6078TIP3    H139869   5.463   3.377   0.180 -0.5255 -0.4667 -0.6208
 6078TIP3    H239870   5.458   3.528   0.197  1.4423 -0.3989 -0.4635
 6079TIP3   OH239871   0.610   2.205   8.446 -0.1963 -0.2882  0.6073
 6079TIP3    H139872   0.596   2.296   8.472  0.0890 -0.1620  0.3196
 6079TIP3    H239873   0.671   2.170   8.511 -0.0051 -0.1656  0.4918
 6080TIP3   OH239874   3.253   4.962   1.366 -0.3985 -0.1934  0.5620
 6080TIP3    H139875   3.294   4.884   1.405 -0.9676  0.1314  1.8716
 6080TIP3    H239876   3.275   4.957   1.273  0.5402 -1.3083  0.8239
 6081TIP3   OH239877   1.299   2.930   7.273  0.2661 -0.4567  0.2003
 6081TIP3    H139878   1.311   2.929   7.368 -1.3843  1.2593  0.4829
 6081TIP3    H239879   1.292   2.838   7.249  3.2875 -1.0977  1.3170
 6082TIP3   OH239880   6.141   4.011   7.381 -0.1773 -0.3411  0.5969
 6082TIP3    H139881   6.107   3.940   7.436  0.8259 -0.6045  0.8982
 6082TIP3    H239882   6.139   3.976   7.292 -1.4446 -0.0554  0.5051
 6083TIP3   OH239883   4.018   0.827   2.749 -0.4583  0.6729 -0.1386
 6083TIP3    H139884   4.047   0.917   2.760 -0.8540  1.0772 -2.1160
 6083TIP3    H239885   4.094   0.781   2.714 -0.5136  0.4203  0.0671
 6084TIP3   OH239886   0.625   0.804   0.598 -0.2393 -0.4580  0.2626
 6084TIP3    H139887   0.692   0.854   0.645 -1.1147  0.9182  0.0926
 6084TIP3    H239888   0.628   0.717   0.638 -0.1780  0.3456  2.1009
 6085TIP3   OH239889   6.686   1.615   0.509  0.0010  0.1822  0.0818
 6085TIP3    H139890   6.635   1.632   0.430 -1.6967 -1.6791  0.6844
 6085TIP3    H239891   6.746   1.544   0.484  0.4244  0.5262  0.1094
 6086TIP3   OH239892   5.872   6.060   1.926 -0.1179  0.0871  0.3737
 6086TIP3    H139893   5.913   5.975   1.911  1.4470  0.8515  0.1628
 6086TIP3    H239894   5.833   6.053   2.013  1.6868 -0.2225  1.1936
 6087TIP3   OH239895   4.011   2.954   8.147  0.7515  0.0277  0.2463
 6087TIP3    H139896   3.976   3.029   8.100  0.8881 -0.2006 -0.2216
 6087TIP3    H239897   4.014   2.884   8.082  1.7436 -0.0520  0.3630
 6088TIP3   OH239898   4.851   0.600   0.680  0.1514 -0.1431  0.9543
 6088TIP3    H139899   4.798   0.540   0.626  4.3548 -2.4852 -1.0925
 6088TIP3    H239900   4.881   0.546   0.753  2.8051 -0.2748 -0.1174
 6089TIP3   OH239901   1.775   1.324   7.126 -0.0030  0.0771 -0.3792
 6089TIP3    H139902   1.815   1.353   7.208  2.8974 -2.1531 -0.8288
 6089TIP3    H239903   1.766   1.229   7.136  0.0411 -0.1945 -2.4610
 6090TIP3   OH239904   3.556   2.292   1.568 -0.3145 -0.5448  0.6587
 6090TIP3    H139905   3.644   2.277   1.602  0.5282 -0.6140 -1.4246
 6090TIP3    H239906   3.510   2.336   1.639  1.3562 -0.6249  1.8348
 6091TIP3   OH239907   6.121   4.800   7.026 -0.5170  0.4209 -0.1766
 6091TIP3    H139908   6.164   4.885   7.032 -1.2080  0.8300 -0.8167
 6091TIP3    H239909   6.029   4.818   7.047 -0.4017 -0.4398  1.2089
 6092TIP3   OH239910   4.384   2.494   2.574 -0.3476 -0.1844 -0.0545
 6092TIP3    H139911   4.324   2.454   2.637  0.9824 -0.5576  1.0213
 6092TIP3    H239912   4.428   2.420   2.532 -0.3607  0.0899 -0.5633
 6093TIP3   OH239913   3.200   4.388   6.970 -0.0925  0.1343 -0.0504
 6093TIP3    H139914   3.202   4.321   6.901  0.2491  0.5287 -0.4290
 6093TIP3    H239915   3.220   4.470   6.925 -1.6532  0.6940  0.1938
 6094TIP3   OH239916   6.141   4.756   0.631  0.3935  0.3145  0.1408
 6094TIP3    H139917   6.233   4.739   0.613  0.4107 -2.0832  1.9260
 6094TIP3    H239918   6.097   4.745   0.547  1.6026  0.6699 -0.5688
 6095TIP3   OH239919   5.733   3.794   7.884 -0.1223 -0.0112 -0.0317
 6095TIP3    H139920   5.789   3.825   7.955 -1.8937  2.3416  0.4693
 6095TIP3    H239921   5.772   3.831   7.805 -0.8308  1.5249  0.3016
 6096TIP3   OH239922   3.696   3.009   2.107  0.1234 -0.2897 -0.4060
 6096TIP3    H139923   3.788   3.028   2.085  0.0247 -0.8048 -1.3311
 6096TIP3    H239924   3.671   2.940   2.046 -0.9985  0.1056 -0.4168
 6097TIP3   OH239925   5.876   2.745   7.353  0.5583  0.0925  0.0212
 6097TIP3    H139926   5.813   2.814   7.331 -0.2324 -0.4150  0.6623
 6097TIP3    H239927   5.850   2.671   7.298  0.2999 -0.2667  0.6175
 6098TIP3   OH239928   5.547   6.432   6.777  0.5001 -0.3128  0.5993
 6098TIP3    H139929   5.601   6.500   6.737 -0.9872  1.5493  1.5497
 6098TIP3    H239930   5.609   6.368   6.810  1.8636 -0.6115 -2.3203
 6099TIP3   OH239931   3.774   5.400   7.305 -0.1280 -0.7278 -0.2855
 6099TIP3    H139932   3.804   5.310   7.318 -0.2718 -0.9337 -1.3411
 6099TIP3    H239933   3.812   5.426   7.221 -0.5886 -0.0157 -0.2802
 6100TIP3   OH239934   1.310   4.090   8.113 -0.5152 -0.3013 -0.1552
 6100TIP3    H139935   1.328   4.021   8.176 -2.0034  0.3740  1.0728
 6100TIP3    H239936   1.370   4.073   8.040  1.8400 -0.6560  1.7493
 6101TIP3   OH239937   1.607   0.276   0.916  0.1872 -0.4156 -1.0938
 6101TIP3    H139938   1.636   0.325   0.993  1.6378 -1.3381 -1.0185
 6101TIP3    H239939   1.687   0.258   0.867 -0.5250 -1.2453 -1.9919
 6102TIP3   OH239940   6.170   5.373   2.084 -0.5402 -0.2983  0.2751
 6102TIP3    H139941   6.104   5.338   2.024 -1.4877  1.7287  0.0287
 6102TIP3    H239942   6.224   5.298   2.107 -0.6473 -1.3331 -2.4430
 6103TIP3   OH239943   3.292   5.665   7.969  0.6195  0.0307 -0.0183
 6103TIP3    H139944   3.230   5.738   7.971  0.7756  0.2150 -1.4056
 6103TIP3    H239945   3.252   5.600   7.912  0.4588 -1.0325  1.2411
 6104TIP3   OH239946   0.494   2.408   0.380  0.4146 -0.3732  0.2299
 6104TIP3    H139947   0.450   2.476   0.431  0.2933  0.4877 -0.9780
 6104TIP3    H239948   0.581   2.445   0.362 -0.4773  0.5666 -2.5066
 6105TIP3   OH239949   0.516   4.199   8.246 -0.3538  0.1627 -0.7706
 6105TIP3    H139950   0.467   4.218   8.326 -0.7292  1.1480 -1.2107
 6105TIP3    H239951   0.495   4.272   8.188  1.7153  0.6704 -0.9456
 6106TIP3   OH239952   5.347   6.151   7.994  0.1830 -0.8212 -0.1826
 6106TIP3    H139953   5.368   6.080   8.054 -1.7286 -0.1987  1.3482
 6106TIP3    H239954   5.264   6.186   8.027  0.1037  0.8887 -2.0085
 6107TIP3   OH239955   5.547   5.226   0.085  0.1785  0.4911  0.3276
 6107TIP3    H139956   5.628   5.195   0.046 -0.4368 -3.0208  1.4954
 6107TIP3    H239957   5.564   5.226   0.179 -1.3296 -1.0655  0.6479
 6108TIP3   OH239958   0.363   1.964   6.808  1.2742 -0.0558 -0.4615
 6108TIP3    H139959   0.313   2.040   6.838  2.2300  1.8296 -3.2552
 6108TIP3    H239960   0.304   1.919   6.747  0.8856 -1.3798  0.8272
 6109TIP3   OH239961   3.097   4.045   0.103  0.5386 -0.0969  0.2622
 6109TIP3    H139962   3.188   4.033   0.130  0.8942 -0.4484 -1.0312
 6109TIP3    H239963   3.076   4.135   0.130  1.0380 -0.2416  1.1740
 6110TIP3   OH239964   6.169   3.268   1.489 -0.6452  0.2871  0.1947
 6110TIP3    H139965   6.081   3.299   1.465 -0.7149  0.9287  1.2507
 6110TIP3    H239966   6.219   3.347   1.505 -0.1532 -0.1025  0.5914
 6111TIP3   OH239967   2.530   5.455   7.395  0.7177  0.1927 -0.3766
 6111TIP3    H139968   2.493   5.543   7.407 -0.6578 -0.5733  1.4466
 6111TIP3    H239969   2.611   5.456   7.447  0.9206  0.4835 -0.6903
 6112TIP3   OH239970   4.600   2.296   2.565 -0.1732 -0.6267 -0.9843
 6112TIP3    H139971   4.663   2.365   2.548 -0.7251 -0.1863 -1.2947
 6112TIP3    H239972   4.600   2.286   2.661 -2.8533  2.5689 -0.4529
 6113TIP3   OH239973   5.233   0.242   0.429  0.0406 -0.0246  0.5872
 6113TIP3    H139974   5.178   0.190   0.487 -0.6789 -0.8959 -0.8171
 6113TIP3    H239975   5.171   0.282   0.367  0.9737 -1.8721 -1.6948
 6114TIP3   OH239976   2.497   0.150   1.598  0.2238 -0.6882  0.4351
 6114TIP3    H139977   2.554   0.138   1.522  0.8824  0.0000  0.8024
 6114TIP3    H239978   2.556   0.146   1.673  0.0947  1.7204  0.7389
 6115TIP3   OH239979   2.293   2.427   7.335 -0.1552 -0.3403 -0.5239
 6115TIP3    H139980   2.220   2.488   7.345 -1.3761 -1.9576  1.0451
 6115TIP3    H239981   2.369   2.484   7.321 -1.4070  1.4777 -0.3381
 6116TIP3   OH239982   1.884   4.072   0.488  0.4318 -0.2292  0.3204
 6116TIP3    H139983   1.844   4.118   0.562 -0.6548 -1.5540  0.5965
 6116TIP3    H239984   1.852   4.118   0.411 -0.2361 -0.1969  0.6080
 6117TIP3   OH239985   2.393   6.424   6.902  0.1827 -0.0656 -0.0123
 6117TIP3    H139986   2.427   6.350   6.952 -0.2985  1.1055  2.2109
 6117TIP3    H239987   2.405   6.499   6.960 -0.4151  1.4071 -1.7143
 6118TIP3   OH239988   0.061   5.617   6.992  0.1752 -0.8547  0.5597
 6118TIP3    H139989  -0.011   5.559   6.967 -0.7055 -0.1391  1.3574
 6118TIP3    H239990   0.140   5.564   6.982 -0.1329 -0.9245 -2.8826
 6119TIP3   OH239991   6.385   0.267   7.012 -0.2564 -0.4604  0.3270
 6119TIP3    H139992   6.318   0.335   7.003  1.2395  0.8692 -1.5759
 6119TIP3    H239993   6.411   0.246   6.922  0.1230 -2.8083  0.8974
 6120TIP3   OH239994   3.738   5.970   0.936  0.4341 -0.4963  0.5582
 6120TIP3    H139995   3.676   6.018   0.991  0.1294  1.1993 -1.1650
 6120TIP3    H239996   3.809   5.947   0.995 -0.5276 -0.0186  1.9601
 6121TIP3   OH239997   2.478   4.980   8.515 -0.3713  0.3990 -0.3657
 6121TIP3    H139998   2.457   5.059   8.564 -0.9283 -0.6450  1.1428
 6121TIP3    H239999   2.452   5.000   8.425 -2.5568  1.1724  0.3772
 6122TIP3   OH240000   0.412   4.317   2.352 -0.4442 -0.1419 -0.3404
 6122TIP3    H140001   0.498   4.342   2.384 -0.4629 -0.1459 -0.2855
 6122TIP3    H240002   0.390   4.382   2.286 -0.8601  0.4857  0.4021
 6123TIP3   OH240003   1.154   4.386   7.530 -0.0493 -0.1598  0.1998
 6123TIP3    H140004   1.081   4.433   7.570 -0.5747  0.8003 -1.7417
 6123TIP3    H240005   1.155   4.417   7.439  2.3481 -0.6764 -0.0063
 6124TIP3   OH240006   0.153   6.131   1.147  0.3147 -0.2677  0.4145
 6124TIP3    H140007   0.161   6.201   1.082  2.0758  0.8109  1.7196
 6124TIP3    H240008   0.197   6.056   1.108 -2.3780 -1.0733 -1.3919
 6125TIP3   OH240009   1.885   5.639   1.444  0.0707  0.2738  0.0505
 6125TIP3    H140010   1.911   5.708   1.504  0.4489 -0.5827  0.8891
 6125TIP3    H240011   1.962   5.583   1.436 -0.2904 -0.1693 -0.4674
 6126TIP3   OH240012   2.188   3.754   0.349  0.0537 -0.3222  0.1280
 6126TIP3    H140013   2.225   3.683   0.403  0.0925 -0.2960  0.1362
 6126TIP3    H240014   2.184   3.717   0.261 -3.0734 -1.5486  0.6568
 6127TIP3   OH240015   6.688   3.268   2.560 -0.0365 -0.4887 -0.1059
 6127TIP3    H140016   6.670   3.344   2.615  0.4288  0.3049 -1.0329
 6127TIP3    H240017   6.605   3.220   2.558 -0.3474  0.0126  0.4453
 6128TIP3   OH240018   3.663   1.534   8.492  0.4831 -0.3807 -1.0302
 6128TIP3    H140019   3.651   1.540   8.397  1.4397  2.1965 -1.0590
 6128TIP3    H240020   3.600   1.596   8.529 -0.5281 -2.0174  0.1330
 6129TIP3   OH240021   1.075   0.425   7.448 -0.2090  0.8966  0.6110
 6129TIP3    H140022   1.068   0.468   7.363  2.5276  1.1208  0.4264
 6129TIP3    H240023   1.089   0.333   7.427 -0.3932  0.8125  0.8545
 6130TIP3   OH240024   2.101   5.931   0.965  0.0487  0.0520 -0.0962
 6130TIP3    H140025   2.071   5.846   0.997  0.9580 -0.3823 -0.3750
 6130TIP3    H240026   2.021   5.974   0.934 -0.4573 -0.5844  0.2981
 6131TIP3   OH240027   1.263   2.805   6.655  0.4890  0.3879  0.2391
 6131TIP3    H140028   1.247   2.898   6.640 -1.5722 -0.1500 -1.2581
 6131TIP3    H240029   1.334   2.783   6.594  2.0279  1.2150  1.6325
 6132TIP3   OH240030   6.665   0.476   7.103 -0.1236 -0.1634 -0.2037
 6132TIP3    H140031   6.645   0.460   7.011  2.6575  0.4014 -1.0199
 6132TIP3    H240032   6.622   0.559   7.123  1.6403  1.2823 -1.9671
 6133TIP3   OH240033   3.290   6.212   1.460  0.1678  0.6626 -0.4185
 6133TIP3    H140034   3.312   6.144   1.396 -0.8534  0.4459 -0.5435
 6133TIP3    H240035   3.371   6.263   1.468  1.3425 -1.2001  0.5069
 6134TIP3   OH240036   0.222   5.777   1.338 -0.3479 -0.2574  0.2834
 6134TIP3    H140037   0.152   5.715   1.357 -0.5888 -0.4292 -1.0742
 6134TIP3    H240038   0.279   5.731   1.277  0.1956  0.3884  0.2935
 6135TIP3   OH240039   0.858   6.280   1.634 -0.6543  0.1278  0.4931
 6135TIP3    H140040   0.781   6.244   1.679  0.6409 -2.8318  0.5498
 6135TIP3    H240041   0.849   6.252   1.543  0.7360 -1.0277  0.6767
 6136TIP3   OH240042   0.727   1.494   1.363 -0.0140  0.2842 -0.4256
 6136TIP3    H140043   0.793   1.535   1.306  0.7064 -1.4846 -0.9172
 6136TIP3    H240044   0.650   1.550   1.354  1.1283  1.9120 -0.5133
 6137TIP3   OH240045   2.233   3.505   8.463 -0.4396 -0.1949  0.7950
 6137TIP3    H140046   2.219   3.413   8.484  0.6519 -1.2763 -2.5660
 6137TIP3    H240047   2.328   3.514   8.453 -0.5370  1.2637  0.9306
 6138TIP3   OH240048   2.225   3.183   2.263  0.7194  0.4918 -0.4037
 6138TIP3    H140049   2.195   3.209   2.350  2.5330  0.2940  0.3263
 6138TIP3    H240050   2.271   3.260   2.230  2.2926 -0.2690 -0.0706
 6139TIP3   OH240051   1.233   4.288   1.875  0.4788 -0.4675 -0.1837
 6139TIP3    H140052   1.312   4.289   1.820  0.3925  0.0656 -0.3087
 6139TIP3    H240053   1.251   4.353   1.943 -0.3691  0.6214 -0.9697
 6140TIP3   OH240054   0.640   5.787   7.129  0.1299  0.0701  0.0032
 6140TIP3    H140055   0.572   5.815   7.190 -0.4706 -0.8923 -0.2054
 6140TIP3    H240056   0.720   5.827   7.162 -0.3491  0.3303  0.8778
 6141TIP3   OH240057   1.846   0.824   2.213 -0.1615  0.1462  0.2366
 6141TIP3    H140058   1.928   0.810   2.166 -0.1152  0.1958  0.3016
 6141TIP3    H240059   1.780   0.782   2.159 -0.0208 -0.3513  0.4516
 6142TIP3   OH240060   5.494   5.061   2.372  0.2959 -0.4425 -0.2743
 6142TIP3    H140061   5.497   4.966   2.364  3.2585 -0.3085 -3.2965
 6142TIP3    H240062   5.539   5.080   2.454  0.5803 -1.6481 -0.1342
 6143TIP3   OH240063   2.191   3.683   7.185  0.3623  0.0278 -1.0785
 6143TIP3    H140064   2.180   3.752   7.251  0.2351  0.7860 -1.8757
 6143TIP3    H240065   2.228   3.728   7.109  0.6286 -0.8595 -1.4907
 6144TIP3   OH240066   4.485   0.296   7.941 -0.3776  0.1490 -0.7367
 6144TIP3    H140067   4.509   0.327   8.029  0.3874 -0.3822 -0.7419
 6144TIP3    H240068   4.431   0.365   7.904 -1.1207  0.1700  0.3426
 6145TIP3   OH240069   6.690   6.508   1.527  0.2518 -0.0991  0.3813
 6145TIP3    H140070   6.740   6.519   1.446  0.8403 -1.2610  0.5725
 6145TIP3    H240071   6.667   6.598   1.552 -0.0621  0.2711 -1.1292
 6146TIP3   OH240072   2.923   2.987   0.939 -0.6827 -0.5347  0.7742
 6146TIP3    H140073   3.013   3.018   0.953 -1.0087  0.2756  1.0961
 6146TIP3    H240074   2.934   2.898   0.905  0.2183 -0.9167  1.9823
 6147TIP3   OH240075   4.071   5.812   1.847  0.3599  0.0614 -0.0064
 6147TIP3    H140076   4.164   5.826   1.860  0.6924  0.0118 -2.0592
 6147TIP3    H240077   4.061   5.717   1.842  0.7858  0.0578 -2.9703
 6148TIP3   OH240078   4.614   5.979   2.004 -0.1370  0.0077  0.0484
 6148TIP3    H140079   4.649   5.944   1.922  1.5876 -0.9588  1.1378
 6148TIP3    H240080   4.617   6.074   1.992 -1.8707 -0.0948 -1.7416
 6149TIP3   OH240081   4.281   0.899   0.489  0.3628  0.5501  0.2729
 6149TIP3    H140082   4.279   0.807   0.519  0.2428  1.0533  1.9305
 6149TIP3    H240083   4.338   0.898   0.413  1.4180 -0.7159  1.0258
 6150TIP3   OH240084   3.702   1.845   2.410  0.1562  0.4219 -0.4150
 6150TIP3    H140085   3.613   1.837   2.376 -0.1470  0.0395  0.4440
 6150TIP3    H240086   3.752   1.885   2.339 -0.3769 -0.6680 -1.4431
 6151TIP3   OH240087   5.153   6.678   2.097  0.2501 -0.1203 -0.2596
 6151TIP3    H140088   5.167   6.589   2.065 -1.6998 -0.0401 -1.5159
 6151TIP3    H240089   5.182   6.735   2.026 -1.0699  0.1436 -0.6230
 6152TIP3   OH240090   3.773   1.018   7.151 -0.1212 -0.2931  0.3211
 6152TIP3    H140091   3.697   1.055   7.106  0.5397  0.9363  0.1747
 6152TIP3    H240092   3.763   1.047   7.242 -0.6672 -1.5158  0.6767
 6153TIP3   OH240093   0.164   3.329   1.297  0.7892  0.0355  0.2748
 6153TIP3    H140094   0.233   3.340   1.362  1.5593  1.1250 -0.6883
 6153TIP3    H240095   0.178   3.400   1.234 -0.5936 -0.3273 -0.4956
 6154TIP3   OH240096   5.484   6.307   7.157 -0.2060 -0.4907  0.0040
 6154TIP3    H140097   5.431   6.229   7.173  1.0261 -1.4881 -0.6275
 6154TIP3    H240098   5.420   6.376   7.141 -1.3284 -1.6402 -0.6833
 6155TIP3   OH240099   6.481   2.293   1.707 -0.0193 -0.4010  0.5980
 6155TIP3    H140100   6.536   2.263   1.780  1.4691  0.5127 -0.1006
 6155TIP3    H240101   6.471   2.387   1.722  0.9501 -0.0483 -0.7448
 6156TIP3   OH240102   5.623   5.421   8.187 -0.2701  0.4400  0.4082
 6156TIP3    H140103   5.600   5.358   8.120 -0.0693 -1.2576  1.8720
 6156TIP3    H240104   5.703   5.387   8.227 -0.5359  1.2343  1.7092
 6157TIP3   OH240105   4.032   4.867   2.440  0.3597  0.0586 -0.5913
 6157TIP3    H140106   3.996   4.811   2.509  1.1552 -1.2453 -1.2010
 6157TIP3    H240107   4.000   4.955   2.462 -0.1496 -0.4644  0.9149
 6158TIP3   OH240108   3.982   5.183   6.231 -0.6579 -0.3002  0.1650
 6158TIP3    H140109   4.006   5.106   6.180 -0.7500 -0.1378 -0.1283
 6158TIP3    H240110   3.910   5.223   6.181  0.9980  1.3582 -1.0210
 6159TIP3   OH240111   5.993   1.847   1.533  0.0466 -0.3562 -0.1084
 6159TIP3    H140112   5.994   1.921   1.472  0.5491 -0.0900  0.2173
 6159TIP3    H240113   5.926   1.870   1.597  0.9811  0.3620  0.6430
 6160TIP3   OH240114   4.105   0.400   1.340  0.2548 -0.6164 -0.4287
 6160TIP3    H140115   4.049   0.376   1.267 -0.4778  2.5392 -1.0274
 6160TIP3    H240116   4.157   0.474   1.308 -0.9795  1.7252  2.4945
 6161TIP3   OH240117   3.400   2.532   0.114  0.2635  0.0115  0.2540
 6161TIP3    H140118   3.484   2.548   0.158 -0.4236  0.4547  1.4426
 6161TIP3    H240119   3.395   2.599   0.046 -0.0670  1.3242  1.5500
 6162TIP3   OH240120   3.953   0.267   6.830  0.2453  0.3073 -0.6228
 6162TIP3    H140121   3.880   0.204   6.830  0.0810  0.4654 -1.8361
 6162TIP3    H240122   3.958   0.296   6.739  1.6639  0.4943 -0.4987
 6163TIP3   OH240123   1.668   3.781   0.967  0.5323 -0.0767 -0.0840
 6163TIP3    H140124   1.614   3.702   0.956 -2.4779  1.7358  0.2966
 6163TIP3    H240125   1.706   3.773   1.054  1.2637 -1.6109 -0.5205
 6164TIP3   OH240126   3.540   2.716   7.222  0.1790  0.0366 -0.1018
 6164TIP3    H140127   3.570   2.790   7.169  0.2251  0.6981  0.8213
 6164TIP3    H240128   3.522   2.647   7.159 -2.0423  1.5563 -1.2643
 6165TIP3   OH240129   4.593   3.182   7.179  0.2070 -0.6664 -0.3182
 6165TIP3    H140130   4.563   3.163   7.090  0.9723 -0.2925 -0.6632
 6165TIP3    H240131   4.526   3.241   7.214 -0.4947 -1.4017 -0.3679
 6166TIP3   OH240132   1.847   4.969   2.381 -0.1143  0.3300 -0.0889
 6166TIP3    H140133   1.901   4.929   2.312 -0.1734  1.8510 -1.0648
 6166TIP3    H240134   1.898   4.957   2.461  0.7220 -0.0564 -0.6571
 6167TIP3   OH240135   2.504   6.087   1.274  0.0492 -0.1191  0.1491
 6167TIP3    H140136   2.487   6.037   1.353  1.9168 -0.8515  0.1424
 6167TIP3    H240137   2.440   6.056   1.210 -0.9370 -0.1086  1.1169
 6168TIP3   OH240138   1.523   2.316   1.211  0.0429  0.0486  0.6663
 6168TIP3    H140139   1.477   2.256   1.152  0.2527  0.3166  0.2260
 6168TIP3    H240140   1.454   2.350   1.268 -0.1620 -0.2260  0.5885
 6169TIP3   OH240141   3.586   1.127   1.480 -0.1407 -0.4988 -0.2879
 6169TIP3    H140142   3.507   1.152   1.431 -0.0163  0.0346 -0.2210
 6169TIP3    H240143   3.649   1.101   1.413  0.1667  0.6163 -0.4447
 6170TIP3   OH240144   0.194   3.057   6.247  0.1582  0.2346  0.0981
 6170TIP3    H140145   0.255   3.115   6.291  1.0679  0.3429 -1.2508
 6170TIP3    H240146   0.178   3.098   6.162 -0.2308 -0.7901 -0.3468
 6171TIP3   OH240147   1.556   4.063   8.530 -0.0433  0.0268 -0.4681
 6171TIP3    H140148   1.629   4.116   8.497  0.0134 -0.4614 -1.1603
 6171TIP3    H240149   1.562   4.071   8.625  0.5444  0.4819 -0.5314
 6172TIP3   OH240150   3.693   2.176   8.039  0.8281 -0.0593 -0.3236
 6172TIP3    H140151   3.635   2.154   7.966 -0.2900 -2.6311  1.1820
 6172TIP3    H240152   3.779   2.145   8.011  0.6302 -0.0350 -0.9747
 6173TIP3   OH240153   1.399   6.638   7.421 -0.0764  0.5470 -0.4317
 6173TIP3    H140154   1.320   6.656   7.472  0.7903  0.8600  0.8522
 6173TIP3    H240155   1.433   6.724   7.397  0.7362  0.4739  0.4080
 6174TIP3   OH240156   5.107   2.034   1.386  0.4310  0.2297  0.1767
 6174TIP3    H140157   5.108   2.081   1.302  0.8993 -0.5601 -0.2737
 6174TIP3    H240158   5.199   2.027   1.410  0.6926 -2.8814 -1.1956
 6175TIP3   OH240159   6.012   1.685   8.165  0.3737 -0.2102 -0.5421
 6175TIP3    H140160   5.990   1.745   8.094 -3.2588  0.7059  1.1193
 6175TIP3    H240161   6.039   1.605   8.121  0.0902  0.9121 -2.9073
 6176TIP3   OH240162   4.700   2.308   7.911 -0.0804 -0.0139 -0.4539
 6176TIP3    H140163   4.640   2.383   7.909 -1.1907 -0.8349  0.6040
 6176TIP3    H240164   4.647   2.236   7.945  1.4446 -0.8367  0.2895
 6177TIP3   OH240165   5.164   3.343   2.451  0.0063 -0.0040  0.2417
 6177TIP3    H140166   5.235   3.335   2.388 -0.2888 -0.3528 -0.0546
 6177TIP3    H240167   5.112   3.417   2.419  0.3450  0.3736  0.5678
 6178TIP3   OH240168   3.769   6.709   6.772 -0.3972  0.6162 -0.4074
 6178TIP3    H140169   3.812   6.682   6.691  0.0992  1.4249 -0.4263
 6178TIP3    H240170   3.796   6.800   6.784  1.5366 -0.1423  1.9185
 6179TIP3   OH240171   2.302   6.074   7.406 -0.6493 -0.1181  0.1259
 6179TIP3    H140172   2.277   6.093   7.316  1.8265 -0.2279 -0.6539
 6179TIP3    H240173   2.397   6.089   7.409 -0.5819 -0.5215  2.6129
 6180TIP3   OH240174   6.919   0.504   6.921 -0.4228 -0.9309  0.1106
 6180TIP3    H140175   6.992   0.501   6.983  0.2646 -0.3283 -0.6381
 6180TIP3    H240176   6.920   0.418   6.879  2.0422  0.1211 -2.2612
 6181TIP3   OH240177   3.108   3.399   7.996  0.2282  0.3435  0.0697
 6181TIP3    H140178   3.082   3.338   8.066  0.1130  1.0563  0.6597
 6181TIP3    H240179   3.200   3.379   7.980 -0.0479 -0.6406 -0.4287
 6182TIP3   OH240180   1.328   2.640   7.859  0.3050  0.2000  0.5354
 6182TIP3    H140181   1.416   2.666   7.831 -0.0199 -0.5323 -1.3157
 6182TIP3    H240182   1.323   2.547   7.836 -1.2672  0.4658 -0.3197
 6183TIP3   OH240183   0.067   6.174   2.237  0.1588  0.1145  0.2058
 6183TIP3    H140184   0.007   6.214   2.299 -0.6968 -0.3902 -0.2857
 6183TIP3    H240185   0.098   6.094   2.281 -1.2903 -0.8313 -0.4072
 6184TIP3   OH240186   3.110   1.168   7.468  0.1740  0.1100  0.0204
 6184TIP3    H140187   3.086   1.117   7.391 -1.7893 -0.2900  0.8146
 6184TIP3    H240188   3.114   1.103   7.539  2.3454  0.4057  0.2211
 6185TIP3   OH240189   4.909   6.649   0.984  0.7230  0.3807 -0.2197
 6185TIP3    H140190   4.879   6.575   1.038 -0.8937  0.4199 -1.0190
 6185TIP3    H240191   4.862   6.725   1.020  2.4479  1.0858  0.6637
 6186TIP3   OH240192   1.799   3.522   0.745  0.0243  0.1116 -0.3316
 6186TIP3    H140193   1.747   3.450   0.780  1.7056 -2.1251 -2.0739
 6186TIP3    H240194   1.738   3.571   0.689 -1.1377  0.0635  0.8403
 6187TIP3   OH240195   5.670   0.955   0.059 -0.0373 -0.2448 -0.1576
 6187TIP3    H140196   5.587   0.919   0.027  0.2250 -0.8113 -0.2111
 6187TIP3    H240197   5.728   0.879   0.066  0.5760  0.1946 -0.4175
 6188TIP3   OH240198   6.130   4.655   1.088 -0.9323  0.0480  0.5236
 6188TIP3    H140199   6.207   4.599   1.088 -1.9057 -1.4490 -2.0235
 6188TIP3    H240200   6.086   4.634   1.171 -0.2185 -1.4500  0.5608
 6189TIP3   OH240201   3.952   3.598   1.441 -0.1639 -0.2232 -0.3028
 6189TIP3    H140202   3.952   3.669   1.377  2.2305  0.0465 -0.1144
 6189TIP3    H240203   3.891   3.533   1.405 -1.5649  1.4101 -1.0347
 6190TIP3   OH240204   5.918   6.249   8.371  0.1996  0.1106  0.6245
 6190TIP3    H140205   5.890   6.158   8.358  0.5214 -0.0231  0.8404
 6190TIP3    H240206   5.856   6.301   8.321 -1.4063 -0.0596  2.3465
 6191TIP3   OH240207   0.241   5.877   2.110  0.3263 -0.1048  0.1070
 6191TIP3    H140208   0.180   5.829   2.055  0.8682  0.9633 -1.4969
 6191TIP3    H240209   0.233   5.836   2.196  1.4216 -3.6821 -1.3110
 6192TIP3   OH240210   0.339   5.387   7.819 -0.0854  0.1493  0.1316
 6192TIP3    H140211   0.298   5.393   7.733  0.4167 -0.1141 -0.1318
 6192TIP3    H240212   0.431   5.410   7.804 -0.2240  1.2635  0.8028
 6193TIP3   OH240213   6.779   2.946   1.295  0.1374 -0.2953 -0.2018
 6193TIP3    H140214   6.863   2.991   1.283 -0.0470 -0.2887 -1.6719
 6193TIP3    H240215   6.728   3.004   1.351  0.6972  0.2661 -0.2638
 6194TIP3   OH240216   6.918   6.034   1.895  0.1255  0.4178  0.6310
 6194TIP3    H140217   6.888   5.953   1.936 -0.1336  0.5653  0.7347
 6194TIP3    H240218   6.839   6.072   1.855  0.4085  0.1695 -0.1887
 6195TIP3   OH240219   6.179   0.418   0.129 -0.4850 -0.4933 -0.7281
 6195TIP3    H140220   6.115   0.414   0.200  1.8125 -1.8698  1.4250
 6195TIP3    H240221   6.215   0.507   0.136 -0.0712 -0.7119  0.0489
 6196TIP3   OH240222   5.568   6.804   7.059 -0.6340 -0.0565  0.2688
 6196TIP3    H140223   5.599   6.725   7.105 -2.2012 -0.7834  0.1193
 6196TIP3    H240224   5.494   6.834   7.111 -0.8187  0.6193 -0.3750
 6197TIP3   OH240225   3.804   6.190   1.204  0.5622  0.1111 -0.2353
 6197TIP3    H140226   3.746   6.162   1.132  0.8519  1.9953 -1.2613
 6197TIP3    H240227   3.877   6.128   1.200  0.3194 -0.1417 -1.2544
 6198TIP3   OH240228   5.358   0.238   0.099 -0.1134  0.2868  0.5422
 6198TIP3    H140229   5.309   0.167   0.141 -0.9635 -0.5144 -1.6622
 6198TIP3    H240230   5.446   0.202   0.087  0.0164  0.3675  1.1771
 6199TIP3   OH240231   4.144   2.888   7.640 -0.1297  0.2336 -0.3859
 6199TIP3    H140232   4.123   2.944   7.565 -1.2430  1.3060  0.6830
 6199TIP3    H240233   4.216   2.934   7.683 -0.8825  0.7452  0.3549
 6200TIP3   OH240234   4.220   3.595   2.626 -0.3502 -0.7212 -0.1130
 6200TIP3    H140235   4.200   3.513   2.670 -1.3289 -0.4725 -0.0787
 6200TIP3    H240236   4.176   3.662   2.677  1.0834 -0.0576  0.3114
 6201TIP3   OH240237   0.228   1.753   1.364 -0.3823  0.1226  0.7560
 6201TIP3    H140238   0.187   1.782   1.283 -1.6926  1.7108  1.9166
 6201TIP3    H240239   0.157   1.710   1.413  0.4734 -1.1512  0.9466
 6202TIP3   OH240240   5.481   6.402   8.153 -0.0061 -0.7030 -0.1276
 6202TIP3    H140241   5.469   6.458   8.076 -0.4290  1.2575  1.2906
 6202TIP3    H240242   5.571   6.421   8.181  0.2950 -1.7374 -0.3542
 6203TIP3   OH240243   1.051   0.286   7.989 -0.1735  0.0675  0.1178
 6203TIP3    H140244   0.956   0.275   7.995 -0.5498  1.7397 -1.7611
 6203TIP3    H240245   1.065   0.330   7.905  2.2680  0.0025  0.4193
 6204TIP3   OH240246   3.297   4.682   8.265  0.1315 -0.0873  0.1895
 6204TIP3    H140247   3.286   4.696   8.171 -1.1568 -1.3887  0.1073
 6204TIP3    H240248   3.264   4.763   8.305  2.1137  1.1165 -0.4741
 6205TIP3   OH240249   3.682   0.520   6.952 -0.2358 -0.0349  0.1872
 6205TIP3    H140250   3.709   0.611   6.937  1.3838 -0.3530  0.9830
 6205TIP3    H240251   3.597   0.528   6.996 -0.1084  1.0887  0.2758
 6206TIP3   OH240252   2.632   1.164   6.143 -0.5543 -0.7035  0.1376
 6206TIP3    H140253   2.650   1.250   6.105 -0.7528 -0.5782  0.3216
 6206TIP3    H240254   2.563   1.180   6.207 -0.7575 -1.0421  0.0073
 6207TIP3   OH240255   1.578   0.955   0.803 -0.3290  0.1670  0.1686
 6207TIP3    H140256   1.587   0.995   0.716 -2.7211  4.3860  1.6079
 6207TIP3    H240257   1.667   0.951   0.837  0.2377  4.2979 -0.2977
 6208TIP3   OH240258   3.854   3.167   0.644  0.2494  0.5677 -0.2053
 6208TIP3    H140259   3.862   3.072   0.649 -0.1849  0.4756 -1.1521
 6208TIP3    H240260   3.939   3.200   0.674  0.4726 -0.1188 -0.0717
 6209TIP3   OH240261   5.236   5.730   0.145  0.6801 -0.0855  0.0097
 6209TIP3    H140262   5.262   5.786   0.218  0.7336 -1.8031  1.3960
 6209TIP3    H240263   5.314   5.726   0.089  0.6261  1.2910 -0.1965
 6210TIP3   OH240264   3.811   1.742   1.522  0.1721 -0.2339 -0.4265
 6210TIP3    H140265   3.740   1.678   1.531  0.3537 -0.3236  0.4230
 6210TIP3    H240266   3.812   1.763   1.429  0.7454 -2.2049 -0.9159
 6211TIP3   OH240267   0.630   0.439   6.608  0.1044  0.2521  0.2661
 6211TIP3    H140268   0.608   0.408   6.695 -1.3296  1.0923  0.2278
 6211TIP3    H240269   0.547   0.440   6.561  0.8303 -0.0558 -1.0793
 6212TIP3   OH240270   6.261   6.150   2.627  0.3329  0.3149 -0.1736
 6212TIP3    H140271   6.303   6.207   2.563  0.4441 -0.0777 -0.4526
 6212TIP3    H240272   6.244   6.207   2.702 -1.4340  1.2401 -1.2074
 6213TIP3   OH240273   6.533   0.015   0.179 -0.0774  0.1478 -0.3109
 6213TIP3    H140274   6.535  -0.046   0.105  0.6148 -0.0780 -0.1148
 6213TIP3    H240275   6.565   0.097   0.144  1.9800 -0.4209  0.1274
 6214TIP3   OH240276   4.527   5.985   0.070 -0.5225 -0.5401 -0.1529
 6214TIP3    H140277   4.607   5.936   0.049  0.6518  0.6478  1.2873
 6214TIP3    H240278   4.528   6.059   0.009  0.2740  0.2358  0.7556
 6215TIP3   OH240279   1.598   5.417   7.913 -0.1015 -0.3935  0.1892
 6215TIP3    H140280   1.647   5.377   7.985 -1.0739 -1.3991  0.3176
 6215TIP3    H240281   1.663   5.469   7.866  0.9895 -1.3380  0.6133
 6216TIP3   OH240282   6.346   6.411   0.746  0.0728  0.0269 -0.4535
 6216TIP3    H140283   6.405   6.476   0.785  0.7468  0.5859 -2.3350
 6216TIP3    H240284   6.262   6.457   0.738 -0.4353 -0.4764  1.3549
 6217TIP3   OH240285   3.396   1.631   1.073  0.1320  0.2556 -0.5979
 6217TIP3    H140286   3.343   1.701   1.111 -0.2385 -0.6590  0.6481
 6217TIP3    H240287   3.333   1.574   1.029  0.4874  0.9410 -2.0369
 6218TIP3   OH240288   6.478   1.483   0.240  0.5310 -0.5149 -0.3168
 6218TIP3    H140289   6.546   1.548   0.227 -0.2376  0.6364  1.1928
 6218TIP3    H240290   6.396   1.531   0.229 -0.0727 -1.6566 -1.0931
 6219TIP3   OH240291   0.242   0.519   6.777  0.4203 -0.2072  0.3529
 6219TIP3    H140292   0.329   0.553   6.797  0.7204  2.0665 -3.7020
 6219TIP3    H240293   0.258   0.429   6.747  1.0496 -0.5198  1.5779
 6220TIP3   OH240294   3.715   4.686   7.270  0.0777  0.6010 -1.0261
 6220TIP3    H140295   3.673   4.602   7.284  0.6000  0.2932 -1.2599
 6220TIP3    H240296   3.805   4.664   7.244  0.6723  1.2441  0.3579
 6221TIP3   OH240297   1.697   1.056   7.181  0.0217 -0.5211  0.1102
 6221TIP3    H140298   1.707   1.016   7.267 -4.4791 -1.9565  0.2615
 6221TIP3    H240299   1.701   0.982   7.120  1.4091  0.2438 -0.7532
 6222TIP3   OH240300   2.918   4.598   6.854 -0.3610  0.6785 -0.2753
 6222TIP3    H140301   2.971   4.575   6.778 -0.4511  1.5399 -0.6102
 6222TIP3    H240302   2.896   4.690   6.841 -0.3969  0.8339  0.7828
 6223TIP3   OH240303   0.142   3.208   0.934  0.4300  0.1571 -0.8864
 6223TIP3    H140304   0.182   3.121   0.935  0.9097  0.3764 -0.9623
 6223TIP3    H240305   0.205   3.264   0.978 -0.4160  0.2383  0.2859
 6224TIP3   OH240306   1.548   0.149   6.212  0.3184  0.1505  0.0503
 6224TIP3    H140307   1.517   0.217   6.152  1.2998 -0.1087 -0.7761
 6224TIP3    H240308   1.608   0.196   6.271 -2.0771  0.8240  2.1647
 6225TIP3   OH240309   2.756   0.507   8.166  0.3189 -0.5768 -0.2483
 6225TIP3    H140310   2.695   0.508   8.092  1.1346  2.5941 -1.0282
 6225TIP3    H240311   2.738   0.589   8.212  3.2268 -0.0310  0.0960
 6226TIP3   OH240312   1.383   2.940   0.367  0.2000 -0.1257 -0.0073
 6226TIP3    H140313   1.332   3.011   0.405 -1.2597 -0.0652 -1.9321
 6226TIP3    H240314   1.331   2.910   0.292  1.0859 -2.7869  0.3394
 6227TIP3   OH240315   4.889   1.468   1.219  0.1563  0.3387 -0.5916
 6227TIP3    H140316   4.802   1.455   1.258  0.9101  0.7878  1.3504
 6227TIP3    H240317   4.871   1.496   1.130 -1.6808 -4.2129 -1.9404
 6228TIP3   OH240318   6.685   0.083   6.553 -0.0816  0.4472  0.1258
 6228TIP3    H140319   6.700   0.177   6.547 -1.2232  0.6321 -0.1013
 6228TIP3    H240320   6.600   0.069   6.511  0.8437 -0.9236 -1.4508
 6229TIP3   OH240321   1.142   5.687   1.446  0.7808  0.2752 -0.0211
 6229TIP3    H140322   1.138   5.703   1.540  1.2301 -1.9390  0.4487
 6229TIP3    H240323   1.189   5.762   1.410  0.1701  1.3984  1.4335
 6230TIP3   OH240324   2.453   4.134   1.054  0.2971  0.3854 -0.2375
 6230TIP3    H140325   2.445   4.192   0.978 -0.3973 -0.9484 -1.2405
 6230TIP3    H240326   2.485   4.051   1.017 -1.2624 -0.6889  0.6780
 6231TIP3   OH240327   5.190   0.497   0.676  0.0988 -0.1919  0.1820
 6231TIP3    H140328   5.196   0.406   0.648  0.4689 -0.5757  1.4393
 6231TIP3    H240329   5.156   0.544   0.599  1.9288 -1.0055 -1.2108
 6232TIP3   OH240330   2.599   6.182   1.910  0.0453  0.2687 -0.2115
 6232TIP3    H140331   2.635   6.250   1.968  1.0643 -0.3161 -0.1354
 6232TIP3    H240332   2.667   6.168   1.844 -1.2036  1.1130 -1.7410
 6233TIP3   OH240333   4.457   4.700   1.100 -0.2213 -0.6768  0.3678
 6233TIP3    H140334   4.542   4.709   1.144 -1.0874  0.0417  1.9656
 6233TIP3    H240335   4.394   4.732   1.164 -1.7800 -1.8468 -0.5355
 6234TIP3   OH240336   0.640   4.220   1.376  0.7052  0.5855  0.2707
 6234TIP3    H140337   0.719   4.178   1.411 -0.1947 -2.2515 -0.8313
 6234TIP3    H240338   0.581   4.226   1.450  0.3965 -1.3881  0.2338
 6235TIP3   OH240339   5.413   2.515   1.031  0.0069 -0.2159  0.0857
 6235TIP3    H140340   5.435   2.422   1.039  4.1147  0.5644  0.0437
 6235TIP3    H240341   5.477   2.559   1.087 -1.9325  2.6345  0.2575
 6236TIP3   OH240342   2.655   4.214   1.221 -0.0823 -0.1156 -0.3029
 6236TIP3    H140343   2.564   4.228   1.193  0.0231  1.3948  0.0229
 6236TIP3    H240344   2.650   4.142   1.284 -1.6644  2.2362  2.5207
 6237TIP3   OH240345   3.425   1.988   7.897  0.6525  0.0053  0.4372
 6237TIP3    H140346   3.348   2.044   7.889  0.0210 -0.8362  0.4997
 6237TIP3    H240347   3.451   1.969   7.807 -1.5614 -2.8359  0.2722
 6238TIP3   OH240348   0.962   5.270   0.207 -0.0203  0.3699 -0.4417
 6238TIP3    H140349   1.051   5.291   0.236  0.1672  0.8350 -1.3261
 6238TIP3    H240350   0.958   5.301   0.117 -1.2437  0.8086 -0.2567
 6239TIP3   OH240351   5.298   3.001   8.450  0.3851  0.2328 -0.5499
 6239TIP3    H140352   5.249   3.012   8.369  1.4964  2.3234 -1.0069
 6239TIP3    H240353   5.244   3.043   8.517  0.1712 -0.1500 -0.4787
 6240TIP3   OH240354   6.848   2.102   6.890 -0.4952  0.1757 -0.0596
 6240TIP3    H140355   6.924   2.113   6.832 -0.5136  0.4194 -0.0409
 6240TIP3    H240356   6.858   2.015   6.928  0.3835  0.6549  0.8291
 6241TIP3   OH240357   5.160   3.991   1.584 -0.0890  0.6572  0.2431
 6241TIP3    H140358   5.095   4.052   1.549  0.8582  1.6929  0.2538
 6241TIP3    H240359   5.231   4.046   1.614  0.4120 -0.4127  1.0785
 6242TIP3   OH240360   4.170   0.199   8.330 -0.2455 -0.2878 -0.0714
 6242TIP3    H140361   4.245   0.139   8.328  0.0323 -0.0890  1.9570
 6242TIP3    H240362   4.208   0.285   8.348 -0.7955  0.2176 -1.2295
 6243TIP3   OH240363   2.017   1.976   8.094  0.1711  0.0571 -0.5788
 6243TIP3    H140364   1.929   2.004   8.118  0.3805 -0.9970  1.6457
 6243TIP3    H240365   2.075   2.044   8.127  0.3239 -0.3540  0.0211
 6244TIP3   OH240366   5.621   1.237   7.296  0.0896 -0.0802 -0.0190
 6244TIP3    H140367   5.619   1.158   7.242  0.4325  1.6420 -2.7154
 6244TIP3    H240368   5.541   1.233   7.349  0.7562 -2.8237  0.9328
 6245TIP3   OH240369   0.926   2.519   7.485  0.0278 -0.2060 -0.5471
 6245TIP3    H140370   0.876   2.504   7.404 -0.4052  0.5896 -0.4283
 6245TIP3    H240371   1.014   2.540   7.454 -0.1862  0.3014 -0.8235
 6246TIP3   OH240372   0.807   3.165   0.798 -0.3070 -0.3848 -0.1856
 6246TIP3    H140373   0.888   3.123   0.770  0.1455  0.2732  0.1107
 6246TIP3    H240374   0.740   3.128   0.741  0.2919 -0.4926 -0.8304
 6247TIP3   OH240375   3.017   5.409   7.603  0.5126 -0.4743 -0.2871
 6247TIP3    H140376   3.053   5.377   7.521 -0.0284 -0.0182 -0.7061
 6247TIP3    H240377   3.017   5.333   7.661  0.6557 -0.8574 -0.7918
 6248TIP3   OH240378   3.430   1.213   7.476  0.4821 -0.6336  0.5931
 6248TIP3    H140379   3.440   1.142   7.412  1.5205  0.2758 -0.3126
 6248TIP3    H240380   3.520   1.236   7.500  0.3100  1.7638 -0.7632
 6249TIP3   OH240381   3.688   2.289   1.168  0.4736  0.5515 -0.0071
 6249TIP3    H140382   3.764   2.287   1.110  0.4191  1.6465 -0.1347
 6249TIP3    H240383   3.667   2.382   1.176 -1.3869  0.2224 -0.6759
 6250TIP3   OH240384   1.165   0.826   0.484  0.2512  0.0649 -0.0543
 6250TIP3    H140385   1.120   0.756   0.531 -0.4119  0.8037  0.4220
 6250TIP3    H240386   1.240   0.782   0.443 -0.9348 -1.2333 -0.9716
 6251TIP3   OH240387   4.426   6.512   0.348 -0.1541  0.8528 -0.1937
 6251TIP3    H140388   4.507   6.520   0.399  0.2926  0.4281 -0.8253
 6251TIP3    H240389   4.431   6.424   0.310 -0.2129  1.3632 -1.4170
 6252TIP3   OH240390   2.433   2.619   1.372 -0.3823 -0.3182  0.4876
 6252TIP3    H140391   2.423   2.529   1.402  1.1904 -0.4233  0.8101
 6252TIP3    H240392   2.479   2.611   1.288 -0.3630  0.1701  0.4511
 6253TIP3   OH240393   5.916   5.954   0.125 -0.4968  0.0835  0.5762
 6253TIP3    H140394   5.981   5.934   0.057 -0.7479  0.7917  0.1165
 6253TIP3    H240395   5.854   5.882   0.120 -0.7406  0.3365 -0.2438
 6254TIP3   OH240396   0.704   4.450   2.131  0.2158 -0.1123  0.5020
 6254TIP3    H140397   0.681   4.458   2.224 -0.7418  1.8711  0.1317
 6254TIP3    H240398   0.667   4.528   2.090 -0.5423 -1.5899 -1.8028
 6255TIP3   OH240399   6.688   5.961   0.553  0.3838  0.4190 -0.3511
 6255TIP3    H140400   6.606   6.007   0.570  0.0695 -0.4291  0.5109
 6255TIP3    H240401   6.704   5.910   0.633  1.4194  0.0920 -0.7547
 6256TIP3   OH240402   5.897   3.907   8.395  0.8120 -0.2851 -0.3816
 6256TIP3    H140403   5.821   3.966   8.390  0.3995 -0.3206  2.9847
 6256TIP3    H240404   5.973   3.965   8.395  0.7206 -0.1316 -1.9177
 6257TIP3   OH240405   4.063   2.674   1.328  0.3668 -0.3057 -0.2144
 6257TIP3    H140406   3.981   2.721   1.311  0.6411 -0.5505 -2.6453
 6257TIP3    H240407   4.108   2.726   1.394 -1.2430  0.4546  0.3367
 6258TIP3   OH240408   1.603   5.022   1.165  0.2316 -0.6762 -0.7131
 6258TIP3    H140409   1.688   4.992   1.196  0.9184 -0.0144 -1.9003
 6258TIP3    H240410   1.579   5.093   1.226  2.9914  2.7579 -3.1964
 6259TIP3   OH240411   6.392   6.312   0.448 -0.3362 -0.1364  0.3913
 6259TIP3    H140412   6.371   6.405   0.438 -0.9633 -0.3913 -0.9639
 6259TIP3    H240413   6.458   6.295   0.381  0.4198 -0.4854  1.2118
 6260TIP3   OH240414   1.220   6.129   1.690  0.3201 -0.4136 -0.5763
 6260TIP3    H140415   1.164   6.178   1.629 -0.6935 -0.2057  0.4771
 6260TIP3    H240416   1.167   6.052   1.713  0.2564  0.0032  0.7724
 6261TIP3   OH240417   3.299   0.876   0.918 -0.7386 -0.5743 -0.2786
 6261TIP3    H140418   3.248   0.956   0.899  0.8248  0.2584 -1.1370
 6261TIP3    H240419   3.243   0.805   0.888 -1.8469  0.2413 -0.2252
 6262TIP3   OH240420   4.534   2.273   1.159 -0.6486 -0.6702 -0.4362
 6262TIP3    H140421   4.564   2.360   1.186  0.1010 -1.3966  1.1570
 6262TIP3    H240422   4.566   2.214   1.227 -0.8874 -2.2533 -1.6441
 6263TIP3   OH240423   6.518   6.300   7.647  0.2275  0.3680 -0.6156
 6263TIP3    H140424   6.579   6.227   7.661 -0.2391  0.2874  1.1624
 6263TIP3    H240425   6.571   6.379   7.658 -0.0287  0.3045  1.4243
 6264TIP3   OH240426   2.750   2.781   2.195  0.0195 -0.0863 -0.4144
 6264TIP3    H140427   2.792   2.702   2.161  1.0320  0.9600 -1.7357
 6264TIP3    H240428   2.657   2.768   2.179  0.1084 -1.2325 -0.0914
 6265TIP3   OH240429   6.482   6.517   6.724 -0.3113 -0.2044 -0.2495
 6265TIP3    H140430   6.476   6.599   6.677 -0.3252 -0.6098 -0.9681
 6265TIP3    H240431   6.526   6.457   6.663 -1.1245 -0.9853 -0.1007
 6266TIP3   OH240432   2.366   5.662   7.486  0.0231 -0.5342  0.0488
 6266TIP3    H140433   2.375   5.677   7.392 -1.3425 -0.7719 -0.1501
 6266TIP3    H240434   2.425   5.724   7.527  1.0144 -0.7731 -0.9809
 6267TIP3   OH240435   6.181   0.993   8.184 -0.2278  0.7596 -0.1855
 6267TIP3    H140436   6.091   0.982   8.152 -0.4791 -1.1886  1.0266
 6267TIP3    H240437   6.185   1.085   8.212 -1.7712  0.9361 -0.4568
 6268TIP3   OH240438   1.326   1.562   1.815 -0.3476 -0.2722  0.2635
 6268TIP3    H140439   1.252   1.514   1.854  0.3902 -0.5943  1.3273
 6268TIP3    H240440   1.286   1.633   1.766 -1.5349 -2.3811 -2.0085
 6269TIP3   OH240441   2.505   6.169   7.698 -0.3704 -0.2566 -0.1311
 6269TIP3    H140442   2.501   6.142   7.606 -2.5955 -0.0798 -0.1528
 6269TIP3    H240443   2.419   6.208   7.715  0.5162  1.0711  1.6390
 6270TIP3   OH240444   2.610   4.044   6.615  0.3755  0.0901 -0.1984
 6270TIP3    H140445   2.599   4.138   6.603  0.6316  0.3420  1.3743
 6270TIP3    H240446   2.525   4.007   6.591 -0.2434  0.8797  0.7146
 6271TIP3   OH240447   3.477   4.914   7.304 -1.1086  0.1125 -0.4206
 6271TIP3    H140448   3.405   4.856   7.331 -0.7153 -0.6529 -0.9699
 6271TIP3    H240449   3.477   4.909   7.209  0.0140 -0.3392 -0.4126
 6272TIP3   OH240450   4.197   3.916   5.882 -0.4459 -0.2404  0.4213
 6272TIP3    H140451   4.234   3.866   5.955  1.2214 -0.1260 -0.2795
 6272TIP3    H240452   4.266   3.980   5.860 -1.6550  0.9348 -0.0721
 6273TIP3   OH240453   5.522   2.157   7.256 -0.2032 -0.2226  0.0993
 6273TIP3    H140454   5.596   2.121   7.207 -0.1920 -0.8472  0.5713
 6273TIP3    H240455   5.560   2.226   7.310  0.1925 -1.0707  0.9419
 6274TIP3   OH240456   1.074   3.616   1.047 -0.1588  0.2974  0.2469
 6274TIP3    H140457   1.048   3.663   1.127 -0.2869 -1.2224  1.1311
 6274TIP3    H240458   1.007   3.548   1.037  1.1406 -1.0018  0.1829
 6275TIP3   OH240459   0.185   4.800   0.774 -0.5219  0.9004 -0.4582
 6275TIP3    H140460   0.123   4.861   0.814 -0.6606 -0.0550  0.8505
 6275TIP3    H240461   0.212   4.742   0.846  0.6026  0.2394 -1.3697
 6276TIP3   OH240462   6.266   6.238   2.153 -0.8249  0.6259  0.0042
 6276TIP3    H140463   6.358   6.235   2.127 -1.0121  1.1398 -0.7660
 6276TIP3    H240464   6.236   6.148   2.146 -0.8149  0.7074 -1.4232
 6277TIP3   OH240465   3.430   5.646   8.198 -0.6340  0.0322 -0.0823
 6277TIP3    H140466   3.387   5.671   8.116 -0.0009 -1.4326 -0.8823
 6277TIP3    H240467   3.363   5.598   8.246 -1.4345  2.0103  0.8886
 6278TIP3   OH240468   6.465   0.016   6.382  0.5805  0.6753  0.1946
 6278TIP3    H140469   6.522   0.048   6.311 -1.6027 -1.5800 -2.8423
 6278TIP3    H240470   6.385   0.069   6.373  0.5914  0.9859  1.6761
 6279TIP3   OH240471   2.557   5.245   1.848 -0.0224  0.4216 -0.2467
 6279TIP3    H140472   2.591   5.224   1.935  0.0967 -0.7680 -0.5546
 6279TIP3    H240473   2.631   5.227   1.789 -0.0479  1.3866 -0.5828
 6280TIP3   OH240474   1.834   4.791   8.055  0.3077  0.1068  0.2995
 6280TIP3    H140475   1.917   4.839   8.050  0.4455  0.0276  1.5934
 6280TIP3    H240476   1.840   4.741   8.137 -0.9882  0.0445  0.3716
 6281TIP3   OH240477   6.380   5.388   7.987 -0.0595 -0.2355 -0.0626
 6281TIP3    H140478   6.331   5.318   8.031  0.2202 -0.1611  0.3795
 6281TIP3    H240479   6.313   5.439   7.942 -0.5587  0.4848  1.3960
 6282TIP3   OH240480   6.323   2.963   1.896 -0.5840  0.3142 -0.4088
 6282TIP3    H140481   6.338   2.929   1.808 -0.5568 -0.9536  0.0722
 6282TIP3    H240482   6.320   2.886   1.952 -1.9247  1.0134  0.5317
 6283TIP3   OH240483   2.444   5.213   7.488  0.5053 -0.2690  0.3624
 6283TIP3    H140484   2.452   5.305   7.465  1.4242 -0.5787 -0.6292
 6283TIP3    H240485   2.353   5.191   7.466  0.3343  0.3571  0.4431
 6284TIP3   OH240486   2.435   2.807   8.066  0.1806  0.2984  0.4016
 6284TIP3    H140487   2.461   2.899   8.058  1.0148  0.0908  0.6291
 6284TIP3    H240488   2.518   2.759   8.067 -0.2540 -0.6417 -1.8141
 6285TIP3   OH240489   1.667   1.027   6.426  0.2865 -0.2785  0.0534
 6285TIP3    H140490   1.709   1.082   6.359 -0.1055 -0.2397 -0.1595
 6285TIP3    H240491   1.586   1.073   6.447  1.1651  0.5916  1.7542
 6286TIP3   OH240492   1.784   5.655   8.391  0.9165  0.6317  0.4174
 6286TIP3    H140493   1.722   5.709   8.439  0.9822 -0.2950  1.6095
 6286TIP3    H240494   1.754   5.565   8.405 -1.0101  0.3319 -4.0341
 6287TIP3   OH240495   0.638   6.290   2.006  0.1201  0.3815 -0.0870
 6287TIP3    H140496   0.550   6.296   2.045  0.1759 -1.6526  0.4509
 6287TIP3    H240497   0.695   6.332   2.070 -0.4203  1.6985 -0.4262
 6288TIP3   OH240498   2.123   0.734   1.164  0.6229 -0.0556 -0.2068
 6288TIP3    H140499   2.067   0.775   1.229  0.6295 -1.1874  0.5488
 6288TIP3    H240500   2.062   0.688   1.106  0.6778  0.0528 -0.3509
 6289TIP3   OH240501   5.795   5.194   2.244 -0.6597 -0.1407 -0.4695
 6289TIP3    H140502   5.703   5.204   2.267 -0.0899  1.4277  1.3976
 6289TIP3    H240503   5.821   5.281   2.212 -0.0232 -0.7912 -1.7572
 6290TIP3   OH240504   5.913   1.436   1.774 -0.1227  0.3199 -0.1603
 6290TIP3    H140505   5.988   1.477   1.729  0.8650 -1.5271 -0.2818
 6290TIP3    H240506   5.941   1.429   1.865 -0.5543  0.4881 -0.0123
 6291TIP3   OH240507   2.258   5.848   0.575 -0.0224 -0.0065 -0.2933
 6291TIP3    H140508   2.283   5.928   0.623 -1.0422 -0.6847  1.4564
 6291TIP3    H240509   2.182   5.874   0.524 -0.5428  0.0779  0.5127
 6292TIP3   OH240510   4.892   6.287   0.452 -0.5732 -0.4550 -0.2814
 6292TIP3    H140511   4.959   6.228   0.418  0.6955  0.3229  0.7753
 6292TIP3    H240512   4.939   6.367   0.476 -1.7956 -0.0430  0.8970
 6293TIP3   OH240513   2.123   4.121   8.160 -0.1866 -0.1672  0.3744
 6293TIP3    H140514   2.166   4.052   8.211 -1.3824 -2.0429 -1.0235
 6293TIP3    H240515   2.049   4.077   8.118 -0.4951  1.7776 -1.2702
 6294TIP3   OH240516   0.872   5.653   1.035 -0.2989 -0.0673  0.4645
 6294TIP3    H140517   0.911   5.573   0.998 -1.5375 -1.1913  1.4708
 6294TIP3    H240518   0.943   5.717   1.033 -0.3899  0.2309 -4.3178
 6295TIP3   OH240519   3.442   3.843   7.168  0.5692  0.6573 -0.3240
 6295TIP3    H140520   3.401   3.928   7.183  0.2952  0.7817 -1.6043
 6295TIP3    H240521   3.413   3.819   7.080  2.0759  0.0638 -0.6840
 6296TIP3   OH240522   3.903   5.074   6.870  0.2087 -0.0485 -0.4565
 6296TIP3    H140523   3.936   4.987   6.893  0.6356 -0.0958 -1.2201
 6296TIP3    H240524   3.949   5.096   6.789  1.5954  1.7247  0.7392
 6297TIP3   OH240525   4.779   2.787   1.478  0.5303 -0.0279  0.4709
 6297TIP3    H140526   4.736   2.715   1.523  0.0449  0.3955  0.6963
 6297TIP3    H240527   4.865   2.753   1.454  0.6022 -0.4178  1.2738
 6298TIP3   OH240528   3.266   1.337   7.232  0.0949  0.2557 -0.2121
 6298TIP3    H140529   3.356   1.315   7.207 -0.3518 -1.2119 -0.6639
 6298TIP3    H240530   3.213   1.302   7.160 -0.7949  1.8830 -0.3892
 6299TIP3   OH240531   1.093   3.314   7.205  0.2024  0.2269 -0.2458
 6299TIP3    H140532   1.038   3.239   7.227 -0.7729  0.9863  0.0036
 6299TIP3    H240533   1.174   3.300   7.253  1.0721 -1.9453 -2.1991
 6300TIP3   OH240534   2.624   0.969   6.849  0.6046  0.1655 -0.4519
 6300TIP3    H140535   2.603   0.921   6.929  1.6482  0.1292 -0.1861
 6300TIP3    H240536   2.715   0.994   6.860 -0.0181  2.6042 -0.3977
 6301TIP3   OH240537   4.692   4.249   7.444 -0.0760  0.2097  0.2597
 6301TIP3    H140538   4.716   4.175   7.500 -0.4917  0.5966  0.9565
 6301TIP3    H240539   4.760   4.250   7.376  1.1114  0.4285  1.4029
 6302TIP3   OH240540   6.923   2.139   8.203  0.1159 -0.0125 -0.1363
 6302TIP3    H140541   6.900   2.209   8.142  1.8497 -0.0230 -0.8640
 6302TIP3    H240542   7.014   2.158   8.227  0.3864 -1.6380  0.2031
 6303TIP3   OH240543   4.643   6.110   8.144  0.0512 -0.0925 -0.1392
 6303TIP3    H140544   4.707   6.178   8.168  1.7163 -1.7631  0.4294
 6303TIP3    H240545   4.573   6.158   8.099  1.1071  1.9928  0.2891
 6304TIP3   OH240546   1.258   6.328   8.111  0.1858  0.4595  0.1669
 6304TIP3    H140547   1.178   6.292   8.073  0.4617  1.2062 -1.2055
 6304TIP3    H240548   1.231   6.364   8.196 -0.2679 -2.0745  1.1753
 6305TIP3   OH240549   1.242   1.728   1.622  0.4005  0.5748 -0.1018
 6305TIP3    H140550   1.162   1.691   1.584  0.2445  1.0286 -0.2240
 6305TIP3    H240551   1.304   1.732   1.550  1.6081 -2.6388  0.6124
 6306TIP3   OH240552   3.391   6.785   8.389 -0.4947  0.2234 -0.0478
 6306TIP3    H140553   3.342   6.864   8.364  0.0043  0.4426 -0.3333
 6306TIP3    H240554   3.441   6.812   8.466 -1.6752 -0.3201  0.9514
 6307TIP3   OH240555   4.925   2.867   0.824 -0.4430  0.4982  0.4006
 6307TIP3    H140556   4.849   2.867   0.766  0.1825 -1.6348 -0.5282
 6307TIP3    H240557   5.001   2.868   0.766  0.2208  0.3072  1.2280
 6308TIP3   OH240558   4.367   5.955   1.461 -0.7371  0.0162 -0.1316
 6308TIP3    H140559   4.348   5.876   1.512 -1.8771  1.0210  1.0930
 6308TIP3    H240560   4.334   5.935   1.374 -3.5869  0.0285  0.8235
 6309TIP3   OH240561   4.241   4.384   1.119 -0.4902 -0.5470 -0.2834
 6309TIP3    H140562   4.181   4.317   1.153  0.0825 -1.4366 -1.0088
 6309TIP3    H240563   4.213   4.464   1.164 -1.0796 -1.2845  0.7339
 6310TIP3   OH240564   2.572   0.576   7.365  0.3421 -0.2268 -0.0349
 6310TIP3    H140565   2.541   0.601   7.452  1.4916 -0.3478  0.4367
 6310TIP3    H240566   2.497   0.535   7.323  0.0750 -1.2376  1.3499
 6311TIP3   OH240567   0.770   6.855   1.510 -0.2783 -0.1425 -0.3559
 6311TIP3    H140568   0.813   6.905   1.580  0.4138 -1.2541  0.0534
 6311TIP3    H240569   0.800   6.765   1.524  1.4652 -0.1498 -3.2448
 6312TIP3   OH240570   5.343   3.220   7.302 -0.5189  0.3851  0.1028
 6312TIP3    H140571   5.285   3.144   7.298 -1.2364  0.9807 -1.4586
 6312TIP3    H240572   5.284   3.294   7.319  0.2651  0.5371  2.5761
 6313TIP3   OH240573   5.000   3.504   1.798  0.2593  0.1538 -0.2299
 6313TIP3    H140574   5.056   3.558   1.742  1.3290 -0.2567  0.4017
 6313TIP3    H240575   4.970   3.433   1.741  3.3988 -1.7353  0.1771
 6314TIP3   OH240576   6.744   4.059   1.447  0.0567  0.5720 -0.2679
 6314TIP3    H140577   6.726   4.147   1.481  0.9022  0.6602 -0.0166
 6314TIP3    H240578   6.828   4.068   1.402  0.1526 -0.1059 -0.2273
 6315TIP3   OH240579   5.831   6.828   1.873 -0.2995 -0.0066  0.7070
 6315TIP3    H140580   5.875   6.851   1.791 -1.3038  0.2018  0.2088
 6315TIP3    H240581   5.852   6.736   1.887  1.3143  0.4041  1.1494
 6316TIP3   OH240582   2.148   1.002   7.585  0.3551 -0.0445 -0.7257
 6316TIP3    H140583   2.067   1.019   7.633  1.0952 -0.4222  0.7066
 6316TIP3    H240584   2.127   0.929   7.527  0.3596 -2.0475  1.6204
 6317TIP3   OH240585   5.204   2.653   1.211 -0.1979 -0.2584  0.0030
 6317TIP3    H140586   5.265   2.641   1.138  2.2307 -1.3662  2.0600
 6317TIP3    H240587   5.161   2.568   1.220  0.5525 -0.5807  0.6901
 6318TIP3   OH240588   5.806   4.900   1.101 -0.2005 -0.6688  0.4113
 6318TIP3    H140589   5.823   4.879   1.192  0.6032  0.5316  0.5572
 6318TIP3    H240590   5.876   4.959   1.076  0.6429 -2.3754 -1.5436
 6319TIP3   OH240591   0.948   3.801   7.210  0.2426 -0.2949 -0.5222
 6319TIP3    H140592   0.987   3.882   7.244  2.0703 -0.9572 -0.9732
 6319TIP3    H240593   0.955   3.810   7.115 -2.3588  0.3257 -0.7455
 6320TIP3   OH240594   3.477   1.830   0.918 -0.0551 -0.5608 -0.5303
 6320TIP3    H140595   3.430   1.793   0.843 -0.4415 -1.6399  0.2093
 6320TIP3    H240596   3.502   1.754   0.970 -1.6206  0.2211  1.5048
 6321TIP3   OH240597   1.369   5.498   0.433  0.8363  0.5303  0.2308
 6321TIP3    H140598   1.460   5.526   0.435  0.9047  0.4077 -0.7288
 6321TIP3    H240599   1.330   5.550   0.362 -0.1020  1.3412  1.2979
 6322TIP3   OH240600   2.599   1.002   7.636 -0.0729  0.0325  0.0307
 6322TIP3    H140601   2.658   0.985   7.709 -0.8150  2.0757  1.2124
 6322TIP3    H240602   2.515   0.966   7.664  0.2841 -1.8585 -1.1608
 6323TIP3   OH240603   4.068   2.566   7.262  0.5308  0.0006 -0.0445
 6323TIP3    H140604   4.125   2.575   7.338  0.5808 -3.4944  0.4844
 6323TIP3    H240605   4.101   2.631   7.200  2.1239  1.2101  1.9135
 6324TIP3   OH240606   6.303   6.671   1.226 -0.1224  0.4075  0.0520
 6324TIP3    H140607   6.255   6.708   1.151  1.7383  0.5604 -1.1226
 6324TIP3    H240608   6.269   6.582   1.234  0.6184 -0.1232 -1.9542
 6325TIP3   OH240609   6.237   3.761   1.714  0.3837  0.1588 -0.3038
 6325TIP3    H140610   6.203   3.750   1.803  2.0145  0.6597  0.4164
 6325TIP3    H240611   6.225   3.854   1.695 -0.4037 -0.0370 -0.8174
 6326TIP3   OH240612   4.772   2.965   1.961 -0.2603 -0.2542 -0.1512
 6326TIP3    H140613   4.736   3.043   1.919  0.6113  0.6766  0.7570
 6326TIP3    H240614   4.729   2.962   2.047 -0.5563 -0.9883 -0.3204
 6327TIP3   OH240615   1.099   4.939   8.027 -0.3628 -0.1473  0.6759
 6327TIP3    H140616   1.085   5.033   8.039 -0.7824 -0.3115  1.5980
 6327TIP3    H240617   1.022   4.909   7.979 -1.3901 -0.3933  2.3966
 6328TIP3   OH240618   1.381   3.508   7.200  0.2530 -0.3380 -0.2158
 6328TIP3    H140619   1.342   3.495   7.286  0.4597 -1.2243 -0.2435
 6328TIP3    H240620   1.475   3.509   7.216  0.3738 -1.9750 -0.5710
 6329TIP3   OH240621   0.177   1.005   8.264 -0.2680  0.8093 -0.3359
 6329TIP3    H140622   0.107   1.067   8.285 -0.1179  0.6299  0.7307
 6329TIP3    H240623   0.176   0.943   8.336  0.1712  0.0723 -0.9537
 6330TIP3   OH240624   3.228   0.297   8.503  0.5200 -0.0060  0.1991
 6330TIP3    H140625   3.162   0.335   8.445 -0.4772 -0.0137  1.2790
 6330TIP3    H240626   3.280   0.371   8.533 -0.6466  0.3877  1.3386
 6331TIP3   OH240627   5.161   5.506   8.523  0.4153  0.5698 -0.5412
 6331TIP3    H140628   5.134   5.479   8.435  0.0081  1.5001 -0.7181
 6331TIP3    H240629   5.165   5.601   8.519  1.0892  0.5947  0.2601
 6332TIP3   OH240630   1.035   5.524   0.079 -0.6388 -0.2863 -0.5299
 6332TIP3    H140631   1.061   5.594   0.019  0.7670 -0.6026 -0.3364
 6332TIP3    H240632   1.016   5.569   0.161 -1.2150  0.0096 -0.8227
 6333TIP3   OH240633   2.609   2.280   0.410  0.6355 -0.0603  0.4473
 6333TIP3    H140634   2.595   2.250   0.320  0.6026 -0.0052  0.4347
 6333TIP3    H240635   2.611   2.199   0.462  1.8685 -0.1843  0.2345
 6334TIP3   OH240636   2.591   3.523   0.454  0.4490 -0.5039 -0.3119
 6334TIP3    H140637   2.671   3.518   0.506  0.7699  1.2699 -0.5746
 6334TIP3    H240638   2.607   3.594   0.392 -1.5615  0.3188  0.0342
 6335TIP3   OH240639   5.448   0.076   1.425  0.5626  0.3661  0.1797
 6335TIP3    H140640   5.424   0.141   1.359  2.0220  1.1815  0.4044
 6335TIP3    H240641   5.366   0.032   1.446 -0.3068  1.5184 -0.6472
 6336TIP3   OH240642   4.828   5.514   7.731 -0.0190  0.1779 -0.0461
 6336TIP3    H140643   4.873   5.571   7.794 -0.7052  0.1065  0.5288
 6336TIP3    H240644   4.845   5.554   7.646  0.7070  0.4287  0.2106
 6337TIP3   OH240645   2.682   0.101   8.343  0.8034 -0.1618 -0.7707
 6337TIP3    H140646   2.750   0.110   8.276  0.0695  2.4053 -1.2928
 6337TIP3    H240647   2.641   0.188   8.347 -1.9044 -1.3743  0.0893
 6338TIP3   OH240648   3.286   0.961   6.427 -0.3726 -0.6190 -0.5832
 6338TIP3    H140649   3.220   1.003   6.481  0.0889 -0.3436 -0.2219
 6338TIP3    H240650   3.362   1.018   6.433 -0.1716 -0.8170 -1.1739
 6339TIP3   OH240651   1.584   1.383   1.142 -0.3566  0.2716 -0.4046
 6339TIP3    H140652   1.586   1.353   1.051  0.4571  1.3902 -0.7773
 6339TIP3    H240653   1.591   1.303   1.193  5.1074 -0.2589 -1.3455
 6340TIP3   OH240654   0.998   0.440   8.465  0.3372 -0.1263 -0.2976
 6340TIP3    H140655   1.003   0.486   8.382  2.1958  2.5370  1.1220
 6340TIP3    H240656   0.905   0.441   8.488  0.1551  1.7257 -1.0053
 6341TIP3   OH240657   0.186   0.129   2.585  0.0389  0.0057  0.0949
 6341TIP3    H140658   0.183   0.224   2.577  0.9586 -0.0449 -1.1725
 6341TIP3    H240659   0.116   0.108   2.646 -0.1271  1.4997  0.4579
 6342TIP3   OH240660   1.765   3.819   6.715  0.3978  0.2505 -0.1331
 6342TIP3    H140661   1.819   3.889   6.677  0.1691  0.4257 -0.1398
 6342TIP3    H240662   1.728   3.774   6.639 -0.5373  0.9736 -0.1284
 6343TIP3   OH240663   6.588   3.435   6.316 -0.6277 -1.1885 -0.3346
 6343TIP3    H140664   6.632   3.454   6.399 -0.7152  0.2859 -0.6034
 6343TIP3    H240665   6.622   3.349   6.290  1.4954 -0.4600 -0.1458
 6344TIP3   OH240666   3.240   0.690   2.291 -0.0632 -0.4059  0.3147
 6344TIP3    H140667   3.280   0.776   2.301  0.9153 -0.5245 -1.9207
 6344TIP3    H240668   3.241   0.652   2.379  1.2148  1.1237  1.0068
 6345TIP3   OH240669   2.973   6.745   2.096  0.3901  0.5680 -0.3945
 6345TIP3    H140670   3.035   6.680   2.063 -1.2386 -0.1000 -2.3922
 6345TIP3    H240671   2.887   6.705   2.082 -0.5510  1.4814  2.1747
 6346TIP3   OH240672   5.132   4.919   0.787  0.0617  0.5692  0.3986
 6346TIP3    H140673   5.092   4.992   0.836  0.1639 -0.7512  2.5964
 6346TIP3    H240674   5.085   4.842   0.816  0.0898 -0.3166 -1.7446
 6347TIP3   OH240675   5.335   0.888   1.349 -0.1343  0.2018  0.3770
 6347TIP3    H140676   5.239   0.888   1.350 -0.2005 -1.7983 -0.3315
 6347TIP3    H240677   5.358   0.934   1.268 -0.3908  2.1688  1.3616
 6348TIP3   OH240678   3.133   5.450   1.528 -0.2240 -0.0481  0.0517
 6348TIP3    H140679   3.209   5.423   1.477 -0.3132  1.2071 -0.7883
 6348TIP3    H240680   3.057   5.425   1.475 -0.4636 -2.0929  1.2819
 6349TIP3   OH240681   0.338   1.336   0.327  0.0221  0.4715 -0.5355
 6349TIP3    H140682   0.288   1.400   0.275  1.1254  2.9435  1.2641
 6349TIP3    H240683   0.329   1.366   0.417 -0.7451 -2.9365  0.6786
 6350TIP3   OH240684   2.294   3.579   1.972  0.2272  0.1932 -0.7901
 6350TIP3    H140685   2.334   3.657   2.011 -0.5991  0.3350 -0.2051
 6350TIP3    H240686   2.334   3.506   2.017  1.6857  0.2190 -1.9717
 6351TIP3   OH240687   4.483   0.155   2.538  0.4144  0.0720 -0.4444
 6351TIP3    H140688   4.529   0.083   2.582 -0.9198 -0.9055 -0.6140
 6351TIP3    H240689   4.539   0.232   2.554  0.9186 -0.6114  1.3727
 6352TIP3   OH240690   2.729   3.320   6.583  0.3511  0.3084 -0.7099
 6352TIP3    H140691   2.637   3.327   6.560 -0.0211 -2.6593 -0.4907
 6352TIP3    H240692   2.730   3.308   6.678  0.8674 -0.5816 -0.8161
 6353TIP3   OH240693   2.520   6.897   0.481 -0.3027 -0.4390 -0.1076
 6353TIP3    H140694   2.513   6.985   0.519 -2.6948 -0.6971  0.2077
 6353TIP3    H240695   2.592   6.903   0.418  1.5390  0.9298  1.9832
 6354TIP3   OH240696   5.820   0.215   2.593  0.0395 -0.1220  0.1482
 6354TIP3    H140697   5.766   0.217   2.672  1.0238 -0.8243  0.8647
 6354TIP3    H240698   5.910   0.222   2.625  0.4248  0.0691 -0.9486
 6355TIP3   OH240699   6.161   2.912   0.318  0.6724  0.5457 -0.2102
 6355TIP3    H140700   6.141   3.005   0.325 -0.9390  0.2506 -0.3120
 6355TIP3    H240701   6.199   2.902   0.231 -1.6715  0.7729 -1.3469
 6356TIP3   OH240702   6.025   2.948   7.080 -0.4144  0.2258  0.1525
 6356TIP3    H140703   5.964   3.016   7.110 -0.4267  0.4672 -0.4007
 6356TIP3    H240704   5.969   2.879   7.045 -0.3787  0.4416 -0.3431
 6357TIP3   OH240705   5.836   2.766   1.880  0.1611  0.1720 -0.1586
 6357TIP3    H140706   5.794   2.838   1.927  2.5492  1.0936  0.6953
 6357TIP3    H240707   5.867   2.805   1.798 -0.0182 -0.3172 -0.4648
 6358TIP3   OH240708   3.434   4.607   7.987 -0.7244 -0.2546  0.1089
 6358TIP3    H140709   3.378   4.535   8.015 -1.2040 -0.0163 -0.2152
 6358TIP3    H240710   3.400   4.631   7.901 -0.1487 -0.0769 -0.0714
 6359TIP3   OH240711   2.850   3.068   6.710 -0.1158  0.2905 -0.1935
 6359TIP3    H140712   2.765   3.056   6.753 -0.2803  1.7313 -0.0834
 6359TIP3    H240713   2.836   3.142   6.650  0.8723  0.0801 -0.7021
 6360TIP3   OH240714   4.000   0.036   0.036 -0.2977  0.3053  0.3099
 6360TIP3    H140715   4.046  -0.013  -0.031  0.9055  0.3240  1.0882
 6360TIP3    H240716   3.908   0.037   0.007 -0.6824 -3.5937  0.9721
 6361TIP3   OH240717   0.931   1.271   8.224  0.0384 -0.0100 -0.4647
 6361TIP3    H140718   0.890   1.186   8.238  1.4083 -0.5227  0.6829
 6361TIP3    H240719   1.009   1.270   8.280  1.9740  0.6809 -2.9445
 6362TIP3   OH240720   0.064   3.202   8.401 -0.0995 -0.5766 -0.0140
 6362TIP3    H140721   0.070   3.174   8.493 -0.9968  2.1856  0.9825
 6362TIP3    H240722   0.151   3.237   8.381  0.2105 -1.5291 -0.3627
 6363TIP3   OH240723   2.907   5.090   8.109  0.0260 -0.1546  0.0807
 6363TIP3    H140724   2.913   5.053   8.197 -3.9452 -1.0006  0.1536
 6363TIP3    H240725   2.825   5.056   8.074  1.0446  0.8148 -3.6867
 6364TIP3   OH240726   6.359   6.004   1.197  0.2675 -0.1675  0.5626
 6364TIP3    H140727   6.432   5.965   1.245  0.5395 -0.5380 -0.1373
 6364TIP3    H240728   6.331   6.078   1.251  1.6900  0.4855  0.4270
 6365TIP3   OH240729   3.365   3.769   2.179 -0.3156  0.1416  0.0224
 6365TIP3    H140730   3.432   3.739   2.117 -0.4589  1.7806 -1.0035
 6365TIP3    H240731   3.364   3.864   2.169 -2.6588  0.2029  0.1319
 6366TIP3   OH240732   4.525   2.148   2.246 -0.0370 -0.0809  0.2124
 6366TIP3    H140733   4.450   2.102   2.206 -1.1029  0.9622  0.9578
 6366TIP3    H240734   4.498   2.163   2.336  0.6746  1.1993  0.2231
 6367TIP3   OH240735   6.643   2.128   1.878  0.2551 -0.6452 -0.0188
 6367TIP3    H140736   6.617   2.039   1.899 -0.2231 -0.4563  0.2052
 6367TIP3    H240737   6.678   2.163   1.960 -0.6058 -0.2616  0.1947
 6368TIP3   OH240738   4.053   1.273   6.652  0.3281  0.1887 -0.2024
 6368TIP3    H140739   4.008   1.206   6.601 -0.2495  1.1487 -1.0148
 6368TIP3    H240740   4.035   1.355   6.604  0.9398  0.9286  0.7922
 6369TIP3   OH240741   6.555   5.573   1.092  0.0764 -0.1326 -0.3234
 6369TIP3    H140742   6.506   5.624   1.027  1.1854  0.8566 -0.4055
 6369TIP3    H240743   6.489   5.515   1.131 -1.2423  1.3813 -0.2072
 6370TIP3   OH240744   1.932   1.725   7.128 -0.2051  0.1599  0.0036
 6370TIP3    H140745   1.914   1.804   7.180 -1.4955  0.0496 -0.2324
 6370TIP3    H240746   1.888   1.741   7.045  0.3664 -0.4018 -0.4155
 6371TIP3   OH240747   5.974   3.037   0.945 -0.3050 -0.1030 -0.4842
 6371TIP3    H140748   5.951   3.033   0.852  1.9986  0.1854 -1.1330
 6371TIP3    H240749   6.015   3.123   0.955  0.3383 -0.5166  0.5706
 6372TIP3   OH240750   5.399   2.779   0.818 -0.3927  0.1478  0.1491
 6372TIP3    H140751   5.368   2.690   0.799 -0.2276  0.1883 -0.3390
 6372TIP3    H240752   5.418   2.778   0.911  0.5701 -0.6348 -0.0295
 6373TIP3   OH240753   6.485   5.108   1.736 -0.5213 -0.4832  0.1028
 6373TIP3    H140754   6.392   5.084   1.744 -0.9771  1.2938  0.6180
 6373TIP3    H240755   6.486   5.177   1.669  0.2899  0.1601  0.7633
 6374TIP3   OH240756   2.784   4.869   6.737  0.2418 -0.2540 -0.2798
 6374TIP3    H140757   2.792   4.886   6.831  2.6105 -1.1162 -0.2759
 6374TIP3    H240758   2.696   4.832   6.727  0.1564 -0.6707  1.6753
 6375TIP3   OH240759   2.731   0.472   0.889 -0.6026 -0.6276 -0.3462
 6375TIP3    H140760   2.779   0.393   0.913 -0.6297 -1.6735 -3.3924
 6375TIP3    H240761   2.756   0.537   0.955  0.9400 -2.5938  1.0979
 6376TIP3   OH240762   2.222   3.416   7.246 -0.3937 -0.1976  0.2056
 6376TIP3    H140763   2.245   3.509   7.252  2.1374 -0.8156  2.0419
 6376TIP3    H240764   2.292   3.377   7.194 -0.3752 -1.3173  1.0139
 6377TIP3   OH240765   2.046   5.338   1.092  0.2463  0.3992  0.1671
 6377TIP3    H140766   2.041   5.431   1.116  0.6227  0.1627  1.2246
 6377TIP3    H240767   2.133   5.329   1.053  0.1527  0.5136 -0.0733
 6378TIP3   OH240768   3.434   6.515   1.869 -0.0012 -0.6819  0.6460
 6378TIP3    H140769   3.401   6.511   1.959  0.4532 -2.1589  0.7769
 6378TIP3    H240770   3.522   6.551   1.876 -1.0943  2.3793  0.3916
 6379TIP3   OH240771   6.795   5.329   1.120 -0.0484  0.0264 -0.4511
 6379TIP3    H140772   6.784   5.309   1.027  0.1281  1.8378 -0.8859
 6379TIP3    H240773   6.889   5.325   1.134 -0.0272  0.3190 -0.4977
 6380TIP3   OH240774   4.130   2.014   0.987  0.0383  0.4758  0.0795
 6380TIP3    H140775   4.143   1.991   0.895  0.3691 -0.3520  0.3263
 6380TIP3    H240776   4.151   1.934   1.035 -0.8730  0.6670  0.8306
 6381TIP3   OH240777   3.829   0.618   0.355 -0.5713  0.0923 -0.3296
 6381TIP3    H140778   3.740   0.644   0.379 -0.1715  1.7443 -0.5007
 6381TIP3    H240779   3.840   0.650   0.266 -0.1503 -1.0452 -0.7009
 6382TIP3   OH240780   5.116   3.855   8.119 -0.2992 -0.3308 -0.1255
 6382TIP3    H140781   5.172   3.840   8.195 -2.2106  1.4480  1.7874
 6382TIP3    H240782   5.156   3.930   8.074 -0.7709  0.5932  0.9325
 6383TIP3   OH240783   5.004   6.650   7.725 -0.2058 -0.0274  0.5299
 6383TIP3    H140784   5.082   6.661   7.780  0.5218  0.8941 -0.6517
 6383TIP3    H240785   4.999   6.731   7.674 -0.7723 -0.9070 -0.8601
 6384TIP3   OH240786   6.740   4.646   2.516 -0.6199 -0.3574 -0.4457
 6384TIP3    H140787   6.775   4.708   2.453  1.4353  0.0085  0.9654
 6384TIP3    H240788   6.816   4.593   2.542 -1.8312 -1.8522  0.2080
 6385TIP3   OH240789   0.111   3.979   8.167  0.2144 -0.3149  0.3076
 6385TIP3    H140790   0.167   4.056   8.169  1.1600 -0.9430 -0.9363
 6385TIP3    H240791   0.121   3.940   8.255 -0.2088  0.9044  0.9133
 6386TIP3   OH240792   0.461   6.455   0.436 -0.3013 -0.2737  0.2470
 6386TIP3    H140793   0.369   6.476   0.450 -0.1556  0.2319  0.4471
 6386TIP3    H240794   0.462   6.359   0.428 -0.9785 -0.2114 -0.8009
 6387TIP3   OH240795   3.502   6.793   0.317 -0.6833  0.3040 -0.6160
 6387TIP3    H140796   3.442   6.721   0.301 -0.3342 -0.1288 -0.0040
 6387TIP3    H240797   3.504   6.841   0.234 -0.6538 -0.5813 -1.1420
 6388TIP3   OH240798   2.309   6.516   6.305 -0.5727 -0.8339 -0.4826
 6388TIP3    H140799   2.392   6.527   6.351 -1.5387 -0.4348  1.2252
 6388TIP3    H240800   2.277   6.431   6.333 -1.2851 -0.4874 -0.2290
 6389TIP3   OH240801   6.561   2.738   0.805  0.0250 -0.2175 -0.0301
 6389TIP3    H140802   6.569   2.677   0.731 -1.1963 -1.8736  1.1279
 6389TIP3    H240803   6.490   2.797   0.780 -2.5859 -2.6985  0.9675
 6390TIP3   OH240804   6.451   0.501   0.831  0.4922 -0.3646 -0.2077
 6390TIP3    H140805   6.369   0.505   0.880  0.8068  0.9153  0.2474
 6390TIP3    H240806   6.426   0.470   0.744 -0.5009  0.1898 -0.1301
 6391TIP3   OH240807   6.259   1.255   2.299  0.5442  0.0495  0.5641
 6391TIP3    H140808   6.164   1.259   2.298  0.4795 -1.0684 -0.1964
 6391TIP3    H240809   6.287   1.311   2.227  0.3288 -1.3392 -0.6649
 6392TIP3   OH240810   3.004   2.814   8.099 -0.2198 -0.2799 -0.4239
 6392TIP3    H140811   3.017   2.798   8.192 -1.8405 -0.0861 -0.1319
 6392TIP3    H240812   3.090   2.802   8.060  0.5765  0.0799  1.1538
 6393TIP3   OH240813   4.989   0.672   7.851  0.7823 -0.2779  0.6484
 6393TIP3    H140814   5.002   0.583   7.882  0.8477  0.0259  1.5199
 6393TIP3    H240815   4.925   0.709   7.911  0.2917  0.0714 -0.0846
 6394TIP3   OH240816   3.109   3.452   1.981  0.2770  0.2009  0.1367
 6394TIP3    H140817   3.088   3.519   1.916  1.1982  0.7929  0.4295
 6394TIP3    H240818   3.149   3.381   1.931  0.4919  0.4236 -0.0049
 6395TIP3   OH240819   6.640   6.556   8.127 -0.1479 -0.0254  0.4238
 6395TIP3    H140820   6.594   6.472   8.126 -1.2120  0.5344 -0.1714
 6395TIP3    H240821   6.732   6.533   8.142 -0.3181 -1.3446 -0.3459
 6396TIP3   OH240822   4.526   4.413   2.635 -0.2255  0.6041 -0.2811
 6396TIP3    H140823   4.449   4.468   2.646  0.2063  1.3428 -0.8265
 6396TIP3    H240824   4.592   4.451   2.693  0.4347  1.3873 -1.5072
 6397TIP3   OH240825   2.589   2.182   0.165 -0.8100 -0.3322  0.0322
 6397TIP3    H140826   2.523   2.245   0.137 -0.6500  0.2080  0.8446
 6397TIP3    H240827   2.605   2.128   0.088 -1.8679 -0.1791 -0.3029
 6398TIP3   OH240828   4.291   3.242   7.755  0.1401  0.7484 -0.3125
 6398TIP3    H140829   4.301   3.264   7.662 -0.8476 -0.8964 -0.8456
 6398TIP3    H240830   4.321   3.151   7.761 -2.2916 -0.0646  0.4381
 6399TIP3   OH240831   4.531   4.017   0.448  0.1201  0.2332 -1.3228
 6399TIP3    H140832   4.554   3.986   0.536  1.1462  0.0957 -1.6198
 6399TIP3    H240833   4.440   3.990   0.435  0.6405 -1.7306 -1.1560
 6400TIP3   OH240834   2.084   4.002   6.981 -0.0054 -0.7104 -0.0560
 6400TIP3    H140835   2.127   4.077   7.023  2.6733 -0.7178 -2.4447
 6400TIP3    H240836   1.991   4.020   6.989  0.4864  1.5234  1.7640
 6401TIP3   OH240837   3.173   2.226   7.350  0.0865  0.0121 -0.3228
 6401TIP3    H140838   3.153   2.310   7.307  1.4611 -1.0569 -3.3308
 6401TIP3    H240839   3.117   2.163   7.306 -0.1023 -0.8516  1.1098
 6402TIP3   OH240840   2.935   5.221   6.986  1.4900  0.1422  0.1388
 6402TIP3    H140841   2.945   5.315   6.973 -2.8395  0.8452  0.4295
 6402TIP3    H240842   2.880   5.213   7.064 -0.1073 -2.4396 -1.1207
 6403TIP3   OH240843   6.381   0.165   1.169  0.0812 -0.3359 -0.0853
 6403TIP3    H140844   6.382   0.151   1.075  0.5923  1.0477 -0.3045
 6403TIP3    H240845   6.347   0.254   1.180  3.2079  0.8813  0.8004
 6404TIP3   OH240846   1.165   6.322   6.898  0.0747  0.1325 -1.0890
 6404TIP3    H140847   1.175   6.240   6.948  0.6769 -0.3508 -1.9809
 6404TIP3    H240848   1.254   6.342   6.867  0.0811  1.5407 -0.2721
 6405TIP3   OH240849   0.507   5.777   1.782 -0.4518  0.5539  0.3852
 6405TIP3    H140850   0.445   5.795   1.711  1.1007 -1.4888 -1.6564
 6405TIP3    H240851   0.464   5.710   1.835 -0.8759  0.7327  0.2688
 6406TIP3   OH240852   0.132   0.459   7.837  0.2331  0.0078 -0.2356
 6406TIP3    H140853   0.228   0.460   7.835  0.2608  0.2718  0.9307
 6406TIP3    H240854   0.109   0.482   7.927 -0.8881 -3.2137  0.4223
 6407TIP3   OH240855   1.090   5.777   7.124 -0.0388  0.6912 -0.4193
 6407TIP3    H140856   1.120   5.807   7.039  0.7547  1.1729  0.0189
 6407TIP3    H240857   1.111   5.683   7.125 -1.6935  0.2661 -1.4305
 6408TIP3   OH240858   1.177   4.180   6.420 -0.3177  0.2709  0.2063
 6408TIP3    H140859   1.249   4.181   6.484  0.1822  1.0402 -0.3446
 6408TIP3    H240860   1.219   4.151   6.339 -0.5445  1.0670 -0.2043
 6409TIP3   OH240861   5.439   6.237   1.312 -0.3813 -0.0351 -0.1139
 6409TIP3    H140862   5.519   6.226   1.363 -0.3095  1.6904  0.1841
 6409TIP3    H240863   5.467   6.282   1.232 -0.9239 -0.2639 -0.4416
 6410TIP3   OH240864   2.535   2.518   7.252  0.0913  0.5038  0.1030
 6410TIP3    H140865   2.599   2.522   7.180 -0.4793  1.0428 -0.3842
 6410TIP3    H240866   2.518   2.610   7.273 -2.2715  0.4572 -1.3449
 6411TIP3   OH240867   6.473   1.784   8.249  0.3877 -0.2040  0.1760
 6411TIP3    H140868   6.394   1.824   8.287  0.1403  0.5258 -1.0288
 6411TIP3    H240869   6.529   1.858   8.228  0.4820 -0.5671 -0.9138
 6412TIP3   OH240870   3.572   6.181   0.040 -0.6000 -0.3177  0.4813
 6412TIP3    H140871   3.618   6.098   0.033  1.5308  0.6294  1.9973
 6412TIP3    H240872   3.640   6.244   0.065 -2.3246  1.6810  0.4451
 6413TIP3   OH240873   4.465   2.069   1.580  0.8093  0.1786  0.0888
 6413TIP3    H140874   4.418   1.994   1.617  0.4143  0.6340  0.5169
 6413TIP3    H240875   4.415   2.145   1.608  1.3557  0.6237 -0.1266
 6414TIP3   OH240876   5.276   5.514   2.000 -0.0389 -0.1250  0.5224
 6414TIP3    H140877   5.261   5.597   2.046 -0.4671  0.4700 -0.6725
 6414TIP3    H240878   5.219   5.517   1.924  0.4127 -1.2483  0.1172
 6415TIP3   OH240879   5.719   6.732   2.164 -0.3897 -0.2461  0.6757
 6415TIP3    H140880   5.680   6.664   2.219 -2.0223  0.1096  0.0260
 6415TIP3    H240881   5.644   6.773   2.120  0.7739  0.1085 -1.0853
 6416TIP3   OH240882   5.024   3.607   2.375  0.1582  0.1312  0.4226
 6416TIP3    H140883   5.002   3.599   2.282  1.0165  1.1646  0.1094
 6416TIP3    H240884   4.965   3.676   2.407  1.2524  1.2246  0.1422
 6417TIP3   OH240885   1.148   5.209   0.914  0.3551  0.4925  0.1713
 6417TIP3    H140886   1.200   5.207   0.834  1.5944  0.3475  0.9568
 6417TIP3    H240887   1.164   5.124   0.955 -1.7463 -0.2009 -0.3114
 6418TIP3   OH240888   4.865   2.244   2.467 -0.2466  0.3495 -0.0490
 6418TIP3    H140889   4.811   2.268   2.543  1.7142 -0.6611  1.7707
 6418TIP3    H240890   4.938   2.305   2.469  0.4625 -0.4778 -0.3953
 6419TIP3   OH240891   0.549   0.533   0.607 -0.0730  0.3916  0.1421
 6419TIP3    H140892   0.507   0.569   0.529  2.2438 -0.2904 -1.5022
 6419TIP3    H240893   0.558   0.439   0.589  1.9191  0.4702  0.4969
 6420TIP3   OH240894   6.293   0.489   7.303 -0.1577 -0.1122  0.3628
 6420TIP3    H140895   6.277   0.395   7.298 -0.5391 -0.0234 -0.0816
 6420TIP3    H240896   6.209   0.529   7.283 -0.1824  0.3233  1.2509
 6421TIP3   OH240897   2.033   3.524   8.260  0.2934  0.1225  0.0247
 6421TIP3    H140898   2.090   3.533   8.337 -0.7660  1.1953  0.7343
 6421TIP3    H240899   1.967   3.593   8.271 -2.5372 -2.3949  0.4493
 6422TIP3   OH240900   6.352   6.896   1.380 -0.3980  0.4733 -0.0961
 6422TIP3    H140901   6.324   6.809   1.351 -0.2589  0.7954 -1.2046
 6422TIP3    H240902   6.377   6.942   1.300 -1.8242  2.0455  0.3237
 6423TIP3   OH240903   3.392   0.153   7.049 -0.0302 -0.1933 -0.3255
 6423TIP3    H140904   3.299   0.137   7.066  0.3985 -0.3090  2.3150
 6423TIP3    H240905   3.437   0.091   7.106  1.6592  1.6017  0.3913
 6424TIP3   OH240906   4.587   5.650   7.887  0.0739 -0.5164  0.2216
 6424TIP3    H140907   4.613   5.733   7.847  0.1214 -0.6134  0.0466
 6424TIP3    H240908   4.666   5.595   7.879  0.0432 -0.5767  0.3377
 6425TIP3   OH240909   2.387   5.450   6.751  0.1378 -0.2781  0.2878
 6425TIP3    H140910   2.378   5.355   6.749 -0.8337 -0.1839 -0.1823
 6425TIP3    H240911   2.397   5.475   6.659  1.5080 -0.0113  0.4811
 6426TIP3   OH240912   0.986   2.793   8.226  0.5611 -0.0946  0.0019
 6426TIP3    H140913   1.058   2.804   8.164  1.2584 -1.2706  0.5720
 6426TIP3    H240914   1.025   2.810   8.312 -0.2609  0.9373  0.2010
 6427TIP3   OH240915   1.268   6.679   7.978  0.3274  0.5956 -0.0323
 6427TIP3    H140916   1.337   6.744   7.992 -0.6171  1.3664  1.2092
 6427TIP3    H240917   1.262   6.633   8.061 -1.2598  1.1379  0.1780
 6428TIP3   OH240918   0.475   3.416   0.248  0.2519 -0.5131 -0.5882
 6428TIP3    H140919   0.402   3.403   0.308  0.3196  0.3519 -0.2964
 6428TIP3    H240920   0.503   3.507   0.264  1.8473 -1.0414 -0.1688
 6429TIP3   OH240921   5.273   4.096   8.022 -0.6474 -0.5987  0.1908
 6429TIP3    H140922   5.338   4.027   8.035 -1.7122 -1.9293 -1.1902
 6429TIP3    H240923   5.264   4.104   7.927 -1.3826  0.6431  0.3362
 6430TIP3   OH240924   2.940   1.569   7.103  0.0987 -0.2494 -0.6917
 6430TIP3    H140925   2.959   1.618   7.023 -0.4331  1.6811  0.2968
 6430TIP3    H240926   2.951   1.477   7.078 -0.2727  0.2720 -3.0254
 6431TIP3   OH240927   4.718   4.010   0.902 -0.0936  0.3912  0.0801
 6431TIP3    H140928   4.747   3.938   0.959  1.1565  0.5625 -0.3119
 6431TIP3    H240929   4.651   4.055   0.953 -0.1269 -0.4068  0.7672
 6432TIP3   OH240930   3.879   5.470   1.605 -0.3908  0.5679 -0.2182
 6432TIP3    H140931   3.845   5.558   1.617  1.2266  1.1031  0.7966
 6432TIP3    H240932   3.921   5.449   1.689 -0.6589 -1.1393 -0.4692
 6433TIP3   OH240933   1.174   3.740   7.513 -0.0559  0.0263 -0.1482
 6433TIP3    H140934   1.169   3.830   7.483 -1.8154 -0.4446 -1.4313
 6433TIP3    H240935   1.085   3.705   7.501  0.6406 -1.9570  0.0006
 6434TIP3   OH240936   0.531   1.013   0.441 -0.1645 -0.4076  0.2746
 6434TIP3    H140937   0.560   0.938   0.493 -0.2864  1.1450  2.6879
 6434TIP3    H240938   0.593   1.082   0.462 -0.1714  0.3071 -1.7722
 6435TIP3   OH240939   3.353   3.806   0.925  0.5936  0.2441  0.3758
 6435TIP3    H140940   3.384   3.873   0.864  2.5229 -0.4491  0.5378
 6435TIP3    H240941   3.415   3.734   0.915 -1.9970 -2.0407 -0.5932
 6436TIP3   OH240942   4.067   6.788   8.426  0.1434 -0.1858 -0.1533
 6436TIP3    H140943   4.094   6.844   8.354  0.7228  0.0781  0.2603
 6436TIP3    H240944   4.087   6.699   8.398 -1.8855 -0.3482 -1.3169
 6437TIP3   OH240945   6.430   2.992   7.455  0.1252 -0.3192  0.2794
 6437TIP3    H140946   6.443   2.904   7.420 -1.8359 -0.6206  0.2480
 6437TIP3    H240947   6.490   3.047   7.404  1.6484 -1.6504  0.5418
 6438TIP3   OH240948   3.537   2.853   1.164 -0.1203 -0.0263  0.3843
 6438TIP3    H140949   3.533   2.944   1.137  1.2757  0.2778  1.0699
 6438TIP3    H240950   3.542   2.857   1.260  1.2696 -0.7241  0.3664
 6439TIP3   OH240951   0.662   3.421   8.066 -0.2717 -0.1497  0.3670
 6439TIP3    H140952   0.718   3.361   8.016 -0.7817  0.3389 -0.8343
 6439TIP3    H240953   0.573   3.391   8.048 -0.4833  0.3460  0.5798
 6440TIP3   OH240954   5.833   4.577   0.197  0.1066  0.3066 -0.4956
 6440TIP3    H140955   5.808   4.592   0.106 -0.6277  0.7335 -0.2308
 6440TIP3    H240956   5.858   4.485   0.201 -0.6856  0.0681 -0.9420
 6441TIP3   OH240957   2.090   6.696   1.583  0.2729  0.1661  0.3292
 6441TIP3    H140958   2.069   6.756   1.512 -2.8730 -0.9852  0.1063
 6441TIP3    H240959   2.011   6.696   1.638  0.6751 -2.6859  1.0715
 6442TIP3   OH240960   1.350   2.082   0.540  0.3095  0.3602 -0.3339
 6442TIP3    H140961   1.330   2.148   0.472  0.4607  2.6488  1.6999
 6442TIP3    H240962   1.264   2.047   0.565 -0.0259  1.4424  0.0957
 6443TIP3   OH240963   2.975   4.816   2.233  0.0245 -0.4070  0.5787
 6443TIP3    H140964   2.882   4.837   2.233 -0.6346 -2.4935 -2.8141
 6443TIP3    H240965   3.012   4.871   2.164  0.2643 -2.7515 -1.3018
 6444TIP3   OH240966   2.195   0.565   1.863 -0.1012 -0.2196  0.6944
 6444TIP3    H140967   2.107   0.537   1.889 -0.0981  1.1021  2.3071
 6444TIP3    H240968   2.239   0.583   1.946  1.2374  0.4939 -0.1443
 6445TIP3   OH240969   3.254   5.235   1.377 -0.2103 -0.0599 -0.7057
 6445TIP3    H140970   3.297   5.150   1.389  2.9085  1.5202  0.3007
 6445TIP3    H240971   3.305   5.279   1.309 -0.5062  1.7635  0.1879
 6446TIP3   OH240972   4.157   4.108   0.981 -1.1721 -0.2250 -0.3581
 6446TIP3    H140973   4.162   4.143   1.070  1.2061  0.1306 -0.5561
 6446TIP3    H240974   4.166   4.185   0.924 -2.1981 -0.5016 -0.9118
 6447TIP3   OH240975   4.420   1.096   7.851  0.3980  0.0174  0.4976
 6447TIP3    H140976   4.364   1.172   7.863 -1.6817 -0.8556 -2.4714
 6447TIP3    H240977   4.500   1.131   7.812  1.7516  1.1729  3.9944
 6448TIP3   OH240978   4.165   3.285   0.485 -0.1048  0.7249  0.2747
 6448TIP3    H140979   4.132   3.351   0.424 -2.1041 -0.7543 -0.3891
 6448TIP3    H240980   4.133   3.313   0.570 -1.0644  0.5680 -0.0219
 6449TIP3   OH240981   2.923   1.291   7.049  0.1577  0.0079 -0.3193
 6449TIP3    H140982   3.000   1.237   7.032  0.6012  1.4960 -4.3324
 6449TIP3    H240983   2.871   1.242   7.113  3.4182 -2.0061  0.9842
 6450TIP3   OH240984   4.209   6.574   7.774 -0.5031  0.1416 -0.4571
 6450TIP3    H140985   4.299   6.560   7.744  0.1370  0.1507  1.3293
 6450TIP3    H240986   4.164   6.492   7.753  0.4035 -0.5471  0.2099
 6451TIP3   OH240987   4.799   4.024   0.286 -0.3191  0.2115 -0.1173
 6451TIP3    H140988   4.801   4.118   0.270 -0.8193  0.5032  1.3841
 6451TIP3    H240989   4.731   4.012   0.352  0.0471 -1.1565  0.0542
 6452TIP3   OH240990   0.022   3.064   7.334  0.4956 -0.1402  0.1880
 6452TIP3    H140991   0.098   3.007   7.341  1.5685  0.9369 -1.6454
 6452TIP3    H240992   0.034   3.129   7.404 -0.4971 -1.8060  1.9851
 6453TIP3   OH240993   6.115   2.366   8.211 -0.6587  0.1043  0.8428
 6453TIP3    H140994   6.067   2.355   8.129  1.7862 -4.3099 -0.2812
 6453TIP3    H240995   6.203   2.392   8.185 -0.5520  1.4456  2.3627
 6454TIP3   OH240996   6.550   2.000   1.381 -0.2854 -0.4354  0.2620
 6454TIP3    H140997   6.589   1.913   1.391  0.1924 -0.0770  1.7596
 6454TIP3    H240998   6.479   2.002   1.445 -1.1674 -0.1709 -0.6863
 6455TIP3   OH240999   4.631   1.234   2.646  0.5457 -0.1155 -0.0563
 6455TIP3    H141000   4.693   1.183   2.595  2.1465 -1.5758  3.0765
 6455TIP3    H241001   4.571   1.170   2.684  0.0938  0.7480  0.7569
 6456TIP3   OH241002   6.048   4.660   1.434  0.4538  0.6972  0.1292
 6456TIP3    H141003   6.016   4.750   1.431  0.1963  0.7824  2.7587
 6456TIP3    H241004   5.996   4.618   1.503  1.5094 -1.0681 -0.0657
 6457TIP3   OH241005   1.713   2.028   0.109 -0.4946 -0.1668 -0.4473
 6457TIP3    H141006   1.697   1.935   0.090  0.5438 -0.7468  1.3152
 6457TIP3    H241007   1.712   2.033   0.205  3.4906  0.8457 -0.3047
 6458TIP3   OH241008   6.357   6.901   0.737  0.2369  0.3082  0.1500
 6458TIP3    H141009   6.397   6.822   0.700 -0.1343 -0.5484  1.5048
 6458TIP3    H241010   6.397   6.973   0.689  1.4070 -0.6497 -0.3585
 6459TIP3   OH241011   3.235   4.702   1.934 -0.3097  0.1357 -0.0123
 6459TIP3    H141012   3.231   4.635   2.002  1.4260 -0.5946 -0.5503
 6459TIP3    H241013   3.325   4.697   1.901  0.5566  4.0565  1.2137
 6460TIP3   OH241014   4.290   0.189   2.361  0.2326  0.1233 -0.4667
 6460TIP3    H141015   4.350   0.163   2.431  0.3798 -0.0020 -0.6407
 6460TIP3    H241016   4.346   0.206   2.286  0.1558  1.0959 -0.3170
 6461TIP3   OH241017   3.017   5.174   2.345 -0.1314 -0.5146 -0.4469
 6461TIP3    H141018   3.014   5.267   2.370  2.4470 -0.4349 -0.1508
 6461TIP3    H241019   2.956   5.132   2.405  0.4818  0.6959  1.1416
 6462TIP3   OH241020   0.567   4.754   1.457 -0.4213 -0.3484  0.0899
 6462TIP3    H141021   0.641   4.801   1.417  0.2469 -1.3527  0.1015
 6462TIP3    H241022   0.494   4.772   1.398  0.3862 -1.2252 -1.2683
 6463TIP3   OH241023   5.149   6.280   1.360  0.0720  0.3215 -0.2100
 6463TIP3    H141024   5.113   6.206   1.311  0.9389  0.4120 -1.0275
 6463TIP3    H241025   5.242   6.279   1.339  0.0011  2.0337 -0.7972
 6464TIP3   OH241026   5.785   1.210   7.899  0.3031 -0.3557 -0.4313
 6464TIP3    H141027   5.714   1.155   7.932  0.1479  0.3801  0.5314
 6464TIP3    H241028   5.827   1.158   7.831  0.7759 -2.0686  1.0823
 6465TIP3   OH241029   6.861   5.364   7.563  0.4799  0.0754  0.3726
 6465TIP3    H141030   6.872   5.291   7.502 -0.8444 -0.1098  0.3211
 6465TIP3    H241031   6.797   5.421   7.521 -0.6369 -0.1702  1.6573
 6466TIP3   OH241032   4.323   0.227   0.063  0.4793 -0.0112 -0.6683
 6466TIP3    H141033   4.409   0.268   0.053  0.1852  0.6505 -0.5408
 6466TIP3    H241034   4.342   0.133   0.070  1.1873  0.1258 -0.6503
 6467TIP3   OH241035   3.711   2.104   6.594 -0.2487 -0.1148 -0.1307
 6467TIP3    H141036   3.684   2.175   6.653  0.9441 -0.5203  0.9521
 6467TIP3    H241037   3.800   2.128   6.567  0.1556 -1.1519  0.2227
 6468TIP3   OH241038   5.000   2.989   1.804 -0.2283  0.1978 -0.1730
 6468TIP3    H141039   5.049   2.908   1.789 -0.9935  0.0965 -2.4226
 6468TIP3    H241040   4.919   2.959   1.847 -0.6032 -0.3025 -1.1802
 6469TIP3   OH241041   4.150   3.740   1.565  0.4359  0.5535  0.5236
 6469TIP3    H141042   4.098   3.678   1.514 -0.1508  2.2718 -1.0814
 6469TIP3    H241043   4.108   3.739   1.651 -0.4371 -0.2380  0.1204
 6470TIP3   OH241044   6.370   5.727   1.922 -0.0936 -0.5091 -0.1863
 6470TIP3    H141045   6.375   5.632   1.920  0.2605 -0.4771 -1.3776
 6470TIP3    H241046   6.290   5.746   1.971  0.7513 -1.3675  1.6131
 6471TIP3   OH241047   3.503   3.719   1.945 -0.5930  0.6330 -0.0187
 6471TIP3    H141048   3.515   3.662   1.870 -0.9296 -0.0697  0.4466
 6471TIP3    H241049   3.473   3.802   1.908 -0.9859  0.2216 -0.6368
 6472TIP3   OH241050   2.316   4.364   8.265 -0.1952  0.0795  0.0445
 6472TIP3    H141051   2.224   4.381   8.243 -0.0795  0.5279 -0.1014
 6472TIP3    H241052   2.324   4.268   8.265 -0.4806  0.0558 -0.6897
 6473TIP3   OH241053   1.321   1.605   1.111  0.6094 -0.0567 -0.1100
 6473TIP3    H141054   1.251   1.564   1.162  1.2421  1.5967  2.1907
 6473TIP3    H241055   1.282   1.618   1.024 -1.9851  0.8081  1.0758
 6474TIP3   OH241056   2.114   4.654   2.466 -0.1200 -0.1601 -0.4124
 6474TIP3    H141057   2.205   4.635   2.486 -0.5461 -0.4517  1.3629
 6474TIP3    H241058   2.110   4.750   2.463 -0.0521 -0.0866  1.1237
 6475TIP3   OH241059   4.600   0.471   0.805 -0.3388 -0.1941 -0.1053
 6475TIP3    H141060   4.582   0.558   0.770  0.1422 -0.1055 -0.1364
 6475TIP3    H241061   4.624   0.419   0.728  1.2620  0.1398  0.1347
 6476TIP3   OH241062   2.916   0.968   6.926 -0.4232  0.0989 -0.2184
 6476TIP3    H141063   2.989   1.030   6.922  1.9282 -2.4358  0.3844
 6476TIP3    H241064   2.930   0.910   6.851 -0.6317 -1.5941  0.9892
 6477TIP3   OH241065   0.240   1.716   8.135 -0.1142  0.3046 -0.1273
 6477TIP3    H141066   0.198   1.773   8.199 -0.6253 -2.5293  2.2599
 6477TIP3    H241067   0.314   1.677   8.181 -0.7119 -2.1288 -1.0505
 6478TIP3   OH241068   2.230   5.240   7.186  0.2814  0.2057  0.7296
 6478TIP3    H141069   2.211   5.202   7.272  3.2699  0.3760  1.6125
 6478TIP3    H241070   2.268   5.167   7.136  1.2239  0.7639  0.6088
 6479TIP3   OH241071   6.075   5.504   2.322  0.4457  0.6038  0.0210
 6479TIP3    H141072   6.141   5.559   2.363  0.8649  1.3815 -1.6051
 6479TIP3    H241073   6.123   5.453   2.256 -0.0993 -1.0264  0.8271
 6480TIP3   OH241074   6.280   2.467   1.255 -0.3802 -0.5118  0.0506
 6480TIP3    H141075   6.251   2.558   1.245  0.6141 -0.1026  0.7604
 6480TIP3    H241076   6.289   2.435   1.166 -1.0874 -0.0392 -0.2052
 6481TIP3   OH241077   3.395   4.076   2.121 -0.5674 -0.1136 -0.5503
 6481TIP3    H141078   3.433   4.056   2.035  0.6414 -0.2886  0.0060
 6481TIP3    H241079   3.388   4.172   2.122 -1.7556 -0.1655 -1.3017
 6482TIP3   OH241080   1.726   2.332   0.735 -0.3069 -0.1301 -0.3003
 6482TIP3    H141081   1.702   2.245   0.768 -0.3038 -0.7140 -1.7424
 6482TIP3    H241082   1.678   2.340   0.652 -1.1709  1.7138  0.3159
 6483TIP3   OH241083   2.654   0.617   0.147  0.7696  0.0853 -0.0140
 6483TIP3    H141084   2.696   0.584   0.226 -0.3996 -1.3213  0.0707
 6483TIP3    H241085   2.699   0.572   0.075  0.5284 -0.1602 -0.0158
 6484TIP3   OH241086   2.935   0.879   0.385 -0.4916  0.1460  0.2753
 6484TIP3    H141087   2.866   0.895   0.321  0.1630  0.5106 -0.3649
 6484TIP3    H241088   2.938   0.784   0.394 -0.9624  0.1196  0.1839
 6485TIP3   OH241089   0.870   5.952   1.088  0.0200 -0.5755 -0.3146
 6485TIP3    H141090   0.789   6.002   1.096  0.0750 -0.6519  0.8873
 6485TIP3    H241091   0.868   5.916   0.999  0.1077  1.7558 -1.3219
 6486TIP3   OH241092   4.077   5.101   2.111 -0.5472  0.4188 -0.2199
 6486TIP3    H141093   4.152   5.041   2.107 -0.0352  1.0593 -0.4300
 6486TIP3    H241094   4.087   5.146   2.195 -0.7225  0.4804 -0.2319
 6487TIP3   OH241095   4.553   3.297   0.970  0.3769  0.0936  0.6687
 6487TIP3    H141096   4.513   3.269   0.888 -0.9208 -0.3400  1.4235
 6487TIP3    H241097   4.613   3.226   0.993 -1.4014 -1.2146  1.5373
 6488TIP3   OH241098   2.723   3.373   8.309 -0.8697 -0.0178  0.2104
 6488TIP3    H141099   2.704   3.467   8.305  1.7753  0.6297  1.2111
 6488TIP3    H241100   2.801   3.363   8.255 -0.9888 -1.6347  0.3143
 6489TIP3   OH241101   5.457   0.246   6.959 -0.1268  0.2642 -0.2757
 6489TIP3    H141102   5.497   0.212   6.879  0.8772 -0.8912  0.6835
 6489TIP3    H241103   5.364   0.255   6.938 -0.0105 -0.8041 -1.3181
 6490TIP3   OH241104   5.900   1.417   1.186  0.0165  0.1772  0.3603
 6490TIP3    H141105   5.852   1.454   1.261 -1.1333  0.6572 -0.5699
 6490TIP3    H241106   5.831   1.398   1.122  1.1332  1.5092 -1.3016
 6491TIP3   OH241107   1.707   0.425   7.573 -0.2946  0.1868  0.0393
 6491TIP3    H141108   1.639   0.473   7.524  1.1428 -0.7815 -3.2013
 6491TIP3    H241109   1.660   0.353   7.615 -1.6864  1.3138  0.5021
 6492TIP3   OH241110   3.377   6.242   7.819 -0.0224 -0.3932  0.2719
 6492TIP3    H141111   3.354   6.329   7.852  0.2633 -0.3954  0.4857
 6492TIP3    H241112   3.463   6.225   7.856 -0.2907 -0.9757  0.6449
 6493TIP3   OH241113   5.307   1.297   7.530 -0.1123 -0.0229 -0.8408
 6493TIP3    H141114   5.382   1.341   7.570  1.9560 -1.2385 -3.0830
 6493TIP3    H241115   5.237   1.362   7.532  2.0412  2.5089 -1.7602
 6494TIP3   OH241116   0.730   4.189   2.165  0.2633  0.4111 -0.0158
 6494TIP3    H141117   0.733   4.282   2.142 -0.1757  0.1138 -1.3304
 6494TIP3    H241118   0.770   4.185   2.252  0.1511  1.8447  0.1239
 6495TIP3   OH241119   1.992   2.599   1.070  0.5419 -0.2918  0.4121
 6495TIP3    H141120   2.081   2.632   1.055  0.8363 -1.0487  0.4647
 6495TIP3    H241121   1.982   2.599   1.165 -0.6816  2.8011  0.4027
 6496TIP3   OH241122   4.786   3.107   1.043 -0.0700 -0.2203  0.0673
 6496TIP3    H141123   4.881   3.111   1.032  0.0447 -2.2505 -0.1889
 6496TIP3    H241124   4.772   3.040   1.110 -1.3387 -0.3424 -0.2889
 6497TIP3   OH241125   5.965   2.342   1.623 -0.3098 -0.0333  0.6061
 6497TIP3    H141126   6.014   2.315   1.701 -0.6647  2.5808  1.8337
 6497TIP3    H241127   5.883   2.378   1.657 -0.7095  0.7060 -1.0352
 6498TIP3   OH241128   1.010   0.166   8.337 -0.4167  0.8027 -0.3777
 6498TIP3    H141129   1.079   0.141   8.277 -1.1684  0.8436 -1.2817
 6498TIP3    H241130   1.056   0.204   8.412  0.5148  1.3255 -1.1905
 6499TIP3   OH241131   4.321   0.424   8.398  0.0739 -0.3397  0.0237
 6499TIP3    H141132   4.406   0.419   8.440 -0.5291  2.4223  1.8688
 6499TIP3    H241133   4.340   0.452   8.308  1.1526  1.2649  0.6973
 6500TIP3   OH241134   6.643   3.828   1.134 -0.0903 -0.6503 -0.3247
 6500TIP3    H141135   6.565   3.879   1.156  0.3012 -0.7689  1.5145
 6500TIP3    H241136   6.634   3.748   1.187  0.3828 -1.5061 -1.4995
 6501TIP3   OH241137   5.537   3.169   8.384 -0.1264 -0.8035 -0.3689
 6501TIP3    H141138   5.475   3.099   8.400  1.1734 -1.5782  1.7753
 6501TIP3    H241139   5.512   3.239   8.445  0.5667 -0.7949 -0.0722
 6502TIP3   OH241140   6.170   5.079   0.028  0.5601  0.4848  0.0096
 6502TIP3    H141141   6.172   5.121  -0.058  1.9357  0.3630 -0.0450
 6502TIP3    H241142   6.103   5.127   0.076 -0.2200  0.5650 -1.1171
 6503TIP3   OH241143   3.860   1.868   2.652 -0.6554 -0.6726  0.7671
 6503TIP3    H141144   3.953   1.869   2.631 -0.8102 -0.5998  0.0623
 6503TIP3    H241145   3.819   1.818   2.581 -1.5019  1.6242 -0.4566
 6504TIP3   OH241146   5.974   1.621   1.386 -0.1536  0.4190  0.2009
 6504TIP3    H141147   5.879   1.622   1.400 -0.5238 -1.0299 -1.8098
 6504TIP3    H241148   6.005   1.702   1.427 -2.5330  1.9780 -0.8527
 6505TIP3   OH241149   5.194   1.942   1.756 -0.1322 -0.1932  0.2904
 6505TIP3    H141150   5.220   1.882   1.826 -0.3866  0.1030  0.6433
 6505TIP3    H241151   5.251   2.018   1.767 -1.0259  0.4051  0.9895
 6506TIP3   OH241152   3.662   6.429   0.212  0.5324  0.3656 -0.0791
 6506TIP3    H141153   3.755   6.429   0.233  0.1426 -0.4504  1.8254
 6506TIP3    H241154   3.658   6.456   0.120  2.8124 -1.9831 -0.9710
 6507TIP3   OH241155   5.491   5.307   0.350  0.0468  0.3178 -0.6952
 6507TIP3    H141156   5.463   5.384   0.398  0.3780  0.7792 -1.2336
 6507TIP3    H241157   5.417   5.285   0.293  0.3407  0.8666 -1.3004
 6508TIP3   OH241158   0.373   6.510   0.059 -0.3394 -0.8018  0.0929
 6508TIP3    H141159   0.398   6.425   0.096 -2.7189 -1.7020 -0.1794
 6508TIP3    H241160   0.425   6.517  -0.021  1.8999 -0.6893  1.4757
 6509TIP3   OH241161   3.092   6.710   8.111 -0.1301 -0.8223 -0.1055
 6509TIP3    H141162   3.066   6.802   8.122 -0.5785 -1.1089  1.5620
 6509TIP3    H241163   3.052   6.683   8.028 -3.9313 -0.7687  1.5182
 6510TIP3   OH241164   4.054   4.054   1.897  0.4633  0.8324 -0.4112
 6510TIP3    H141165   4.083   3.963   1.887 -0.7034  0.0030  2.5609
 6510TIP3    H241166   4.001   4.071   1.820  0.5305 -1.0881 -0.9361
 6511TIP3   OH241167   6.857   2.746   0.154  0.4973 -0.4582  0.4646
 6511TIP3    H141168   6.789   2.726   0.219 -0.5354 -0.2233 -0.4998
 6511TIP3    H241169   6.831   2.831   0.118  1.7521  0.0028  0.6192
 6512TIP3   OH241170   6.769   0.882   1.367  0.2618 -0.1846  0.3521
 6512TIP3    H141171   6.704   0.927   1.311 -0.6100  0.0990  1.5543
 6512TIP3    H241172   6.788   0.801   1.320 -1.7860 -0.7904  0.4295
 6513TIP3   OH241173   6.600   1.690   1.221  0.3967  0.1303 -0.0760
 6513TIP3    H141174   6.646   1.690   1.305 -0.3376  0.8820  0.3381
 6513TIP3    H241175   6.527   1.628   1.234  1.2365 -1.0175 -0.7118
 6514TIP3   OH241176   4.362   4.175   8.283  0.1736  0.6853  0.4529
 6514TIP3    H141177   4.410   4.143   8.360 -0.9293 -0.1360  0.8447
 6514TIP3    H241178   4.301   4.104   8.263 -0.5273  1.4869 -0.3205
 6515TIP3   OH241179   5.062   3.340   6.852  0.9276 -0.0408 -0.1243
 6515TIP3    H141180   5.153   3.342   6.882  1.1836  3.1450 -0.7501
 6515TIP3    H241181   5.064   3.285   6.774  2.8460  1.7955 -1.4733
 6516TIP3   OH241182   6.210   5.705   2.455 -0.0468  0.0359 -0.7487
 6516TIP3    H141183   6.222   5.799   2.469  0.9003 -0.1046 -0.5695
 6516TIP3    H241184   6.248   5.664   2.533  1.4070 -0.5744 -1.7394
 6517TIP3   OH241185   4.068   5.146   7.684 -0.0353 -0.1635  1.0297
 6517TIP3    H141186   4.044   5.238   7.679 -0.3310 -0.2815 -0.1422
 6517TIP3    H241187   4.140   5.136   7.621 -0.8968 -0.9696  0.1119
 6518TIP3   OH241188   5.260   3.658   7.025  0.3149 -0.1371  0.4901
 6518TIP3    H141189   5.269   3.618   7.111  0.7707  0.1139  0.5602
 6518TIP3    H241190   5.347   3.651   6.986  0.4665  1.0139  0.6011
 6519TIP3   OH241191   5.400   1.952   1.479 -0.0768  0.0747  0.6533
 6519TIP3    H141192   5.428   1.873   1.433  0.8590  0.7900 -0.0614
 6519TIP3    H241193   5.369   1.921   1.564  0.4268 -1.0371  0.4495
 6520TIP3   OH241194   3.280   5.891   7.756 -0.9243  0.0622 -0.4840
 6520TIP3    H141195   3.342   5.943   7.704  1.0352 -0.7270  0.9680
 6520TIP3    H241196   3.254   5.819   7.699  2.8906 -2.0572  0.1567
 6521TIP3   OH241197   5.661   0.533   0.917  0.2937 -0.1825  0.4258
 6521TIP3    H141198   5.695   0.515   0.829 -0.6561 -0.4443  0.0934
 6521TIP3    H241199   5.666   0.628   0.925  1.0430 -0.2116  0.3723
 6522TIP3   OH241200   6.308   4.820   0.980 -0.2934  0.2059  0.0755
 6522TIP3    H141201   6.237   4.762   1.005  0.4905 -0.7894  0.0455
 6522TIP3    H241202   6.265   4.893   0.935 -1.4387  0.5484  1.6794
 6523TIP3   OH241203   5.863   6.688   7.623 -0.0367 -0.2712 -0.6544
 6523TIP3    H141204   5.951   6.667   7.654 -0.8854 -1.2258  1.2844
 6523TIP3    H241205   5.831   6.755   7.684 -0.6242  0.1677 -1.4141
 6524TIP3   OH241206   1.996   4.558   2.679  0.0085 -0.9494 -0.1400
 6524TIP3    H141207   1.971   4.466   2.672  1.3607 -1.3860  0.4784
 6524TIP3    H241208   2.027   4.581   2.591  3.5044 -2.3199  0.5525
 6525TIP3   OH241209   2.049   5.821   6.870  0.3454 -0.0206  0.2238
 6525TIP3    H141210   2.115   5.816   6.801 -0.2437 -1.4509 -0.2648
 6525TIP3    H241211   2.031   5.730   6.893 -2.7696  0.1657 -0.9496
 6526TIP3   OH241212   5.878   6.314   7.422  0.6660  0.2276  0.1763
 6526TIP3    H141213   5.947   6.273   7.475 -0.3822  1.0871  2.3540
 6526TIP3    H241214   5.796   6.284   7.462 -0.1591  1.5540 -0.4320
 6527TIP3   OH241215   5.983   6.249   2.307  0.2141 -0.4289  0.0456
 6527TIP3    H141216   5.976   6.181   2.374  1.6864 -0.1162  0.5527
 6527TIP3    H241217   6.068   6.232   2.265  0.1971  0.5686 -0.4039
 6528TIP3   OH241218   4.455   6.900   1.912  0.3761  0.2233 -0.3991
 6528TIP3    H141219   4.375   6.888   1.964  0.8216  0.0824  0.2715
 6528TIP3    H241220   4.458   6.824   1.854 -0.1378  0.3902 -0.6485
 6529TIP3   OH241221   6.637   4.335   8.130  0.0761  0.3476  0.1840
 6529TIP3    H141222   6.691   4.387   8.190  1.0717 -0.7779  0.2870
 6529TIP3    H241223   6.555   4.322   8.178  0.1148  1.1253  0.4816
 6530TIP3   OH241224   3.599   0.124   1.787 -0.2031  0.5952 -0.0652
 6530TIP3    H141225   3.581   0.145   1.879  0.1336  2.0088 -0.2912
 6530TIP3    H241226   3.636   0.036   1.789 -2.1094 -0.2412  0.9314
 6531TIP3   OH241227   0.614   6.562   6.488 -0.0893  0.6182 -0.1083
 6531TIP3    H141228   0.688   6.542   6.430  0.7744 -0.3906  1.2669
 6531TIP3    H241229   0.586   6.650   6.461  0.4633  0.3221 -1.8129
 6532TIP3   OH241230   3.736   4.311   0.758  0.0189  0.7835 -0.3035
 6532TIP3    H141231   3.803   4.315   0.689 -1.3213  1.3646 -1.6125
 6532TIP3    H241232   3.668   4.255   0.722 -0.0876 -0.0379  1.1346
 6533TIP3   OH241233   4.426   1.120   0.159  0.2247  0.1189  0.6169
 6533TIP3    H141234   4.340   1.089   0.133 -0.1380  0.1169  1.7965
 6533TIP3    H241235   4.440   1.199   0.105 -1.4876  1.4445  1.9922
 6534TIP3   OH241236   6.455   1.577   7.362  0.4026  0.3149  0.5143
 6534TIP3    H141237   6.473   1.486   7.383  1.5195  0.2172 -0.6959
 6534TIP3    H241238   6.461   1.623   7.445 -2.3191 -0.9839  1.5120
 6535TIP3   OH241239   0.485   6.798   7.249  0.5643 -0.6414 -0.0879
 6535TIP3    H141240   0.498   6.705   7.229 -0.0579 -1.1564  1.7659
 6535TIP3    H241241   0.391   6.807   7.261  0.8188 -0.3012  2.0148
 6536TIP3   OH241242   1.049   1.053   0.042  0.3516  0.1188 -0.3471
 6536TIP3    H141243   1.007   1.125   0.089  0.7546  0.9653 -1.2461
 6536TIP3    H241244   1.079   1.092  -0.040  1.1089 -0.9369 -0.5983
 6537TIP3   OH241245   3.704   0.205   7.079  0.8044  0.4926 -0.8259
 6537TIP3    H141246   3.697   0.292   7.039 -0.3462 -0.3798 -2.6608
 6537TIP3    H241247   3.623   0.161   7.055  0.1428 -0.2544  2.3285
 6538TIP3   OH241248   2.293   2.073   0.653  0.0180 -0.4147 -0.7388
 6538TIP3    H141249   2.259   2.157   0.621  0.0823 -0.5425 -1.1492
 6538TIP3    H241250   2.276   2.074   0.747  0.2774  0.1832 -0.6961
 6539TIP3   OH241251   0.608   6.408   7.619  0.0741  0.0640  0.1554
 6539TIP3    H141252   0.549   6.483   7.620 -1.7303 -1.1803 -2.3829
 6539TIP3    H241253   0.672   6.428   7.550  0.1657 -0.3191  0.1269
 6540TIP3   OH241254   6.561   3.203   8.161 -0.1002 -0.2102 -0.3460
 6540TIP3    H141255   6.485   3.261   8.154  1.1786  1.3917 -1.5537
 6540TIP3    H241256   6.627   3.255   8.207  1.2212 -0.5336 -1.7966
 6541TIP3   OH241257   3.622   0.114   7.855 -0.6075 -0.6195 -0.2063
 6541TIP3    H141258   3.692   0.049   7.850 -1.3213 -1.3981 -0.4048
 6541TIP3    H241259   3.618   0.152   7.767  1.4609  1.5232  0.5349
 6542TIP3   OH241260   6.125   6.407   1.532  0.0012 -0.4088  0.1488
 6542TIP3    H141261   6.195   6.441   1.588  0.6181 -0.2964 -0.6651
 6542TIP3    H241262   6.066   6.362   1.592  2.4301 -3.3678  0.6017
 6543TIP3   OH241263   3.248   0.997   1.776 -0.2015 -0.6637  0.3164
 6543TIP3    H141264   3.287   0.933   1.836  1.3798 -1.4527 -1.4751
 6543TIP3    H241265   3.163   0.960   1.754  0.9071 -2.5518 -1.1361
 6544TIP3   OH241266   6.249   1.129   1.582  0.1597 -0.5474  0.3559
 6544TIP3    H141267   6.229   1.174   1.499  0.1355 -1.2341 -0.0142
 6544TIP3    H241268   6.205   1.182   1.648  0.9913  0.5752  0.0505
 6545TIP3   OH241269   4.578   2.744   6.940 -0.1351 -0.8258  0.2170
 6545TIP3    H141270   4.631   2.823   6.931 -0.9919 -0.3740 -1.0998
 6545TIP3    H241271   4.576   2.706   6.852 -1.2055 -1.3399  0.4496
 6546TIP3   OH241272   3.046   4.064   7.258  0.3965  0.2472 -0.3894
 6546TIP3    H141273   3.079   4.136   7.312 -1.4777  0.1100  1.0370
 6546TIP3    H241274   3.017   3.998   7.321  0.1558 -0.8742 -1.6314
 6547TIP3   OH241275   0.684   0.407   7.780  0.0472 -0.3726  0.2658
 6547TIP3    H141276   0.761   0.459   7.757  0.7937 -1.7779 -0.5437
 6547TIP3    H241277   0.718   0.319   7.793 -1.4696 -1.0826 -0.3645
 6548TIP3   OH241278   4.772   3.970   7.438  0.2182 -0.5813 -0.6174
 6548TIP3    H141279   4.753   3.911   7.510  1.2104 -1.5722 -1.1318
 6548TIP3    H241280   4.793   3.912   7.364 -1.6322  0.3740 -1.9646
 6549TIP3   OH241281   1.888   0.877   1.200 -0.3498 -0.2482  0.1309
 6549TIP3    H141282   1.923   0.952   1.249  0.8536 -1.1608  0.7074
 6549TIP3    H241283   1.838   0.827   1.264 -1.2221  0.0809 -0.2731
 6550TIP3   OH241284   2.352   1.089   0.193 -0.5506  0.5140  0.0073
 6550TIP3    H141285   2.316   1.178   0.190 -1.2420  0.2834  1.0414
 6550TIP3    H241286   2.363   1.071   0.286 -2.5693 -1.3257 -0.0290
 6551TIP3   OH241287   6.180   3.705   1.964  0.1013 -0.1955 -0.6289
 6551TIP3    H141288   6.132   3.745   2.036  1.1813 -1.4962  0.8830
 6551TIP3    H241289   6.269   3.740   1.971 -0.1677  1.0336 -2.4758
 6552TIP3   OH241290   3.419   5.593   1.395 -0.2702 -0.1792  0.0853
 6552TIP3    H141291   3.415   5.608   1.301  4.0086  0.0514 -0.2740
 6552TIP3    H241292   3.502   5.548   1.408  0.1564  1.3149  3.9011
 6553TIP3   OH241293   5.061   5.231   2.229 -0.0421 -0.0878 -0.1091
 6553TIP3    H141294   5.013   5.233   2.312  2.1400 -0.6023  1.2567
 6553TIP3    H241295   5.023   5.157   2.181 -1.3029  0.1826  0.4414
 6554TIP3   OH241296   2.828   5.714   8.103 -0.1857 -0.2058 -0.4260
 6554TIP3    H141297   2.781   5.680   8.179 -0.1751 -0.7133 -0.6453
 6554TIP3    H241298   2.760   5.751   8.047 -0.1784  0.3072 -0.1022
 6555TIP3   OH241299   3.055   1.022   1.510 -0.3826 -0.3650 -0.3966
 6555TIP3    H141300   3.007   1.104   1.516  1.2719  0.5616  1.4350
 6555TIP3    H241301   3.020   0.968   1.580  0.2564 -0.2272  0.0361
 6556TIP3   OH241302   4.018   5.314   1.940  0.2737 -0.0185  0.4827
 6556TIP3    H141303   4.107   5.320   1.905 -0.4913 -0.2022 -1.6060
 6556TIP3    H241304   4.020   5.238   1.998  1.1248 -0.9174 -0.6948
 6557TIP3   OH241305   2.497   2.168   1.672 -0.2827  0.7118  0.0649
 6557TIP3    H141306   2.574   2.210   1.711  0.2529 -0.2489  0.0873
 6557TIP3    H241307   2.427   2.184   1.735  0.8859 -2.0756  2.3136
 6558TIP3   OH241308   6.350   6.045   1.935 -0.1230  0.1784 -0.3833
 6558TIP3    H141309   6.443   6.023   1.942  0.0819  0.9512 -0.6055
 6558TIP3    H241310   6.309   5.997   2.007  0.2803 -1.0445 -0.9411
 6559TIP3   OH241311   2.822   0.663   1.048 -0.4789 -0.0785 -0.4426
 6559TIP3    H141312   2.915   0.642   1.055 -0.6667 -0.3694  3.4364
 6559TIP3    H241313   2.818   0.758   1.059 -0.6447  0.0254 -1.3040
 6560TIP3   OH241314   1.696   1.868   1.527  0.7376 -0.0645 -0.5355
 6560TIP3    H141315   1.741   1.948   1.554  2.1020 -0.0014 -2.7357
 6560TIP3    H241316   1.750   1.797   1.562  0.4623 -0.0315 -0.0290
 6561TIP3   OH241317   1.399   6.799   0.887  0.3327 -0.1805  0.1152
 6561TIP3    H141318   1.437   6.797   0.975 -0.8571 -0.1817  0.6510
 6561TIP3    H241319   1.473   6.817   0.829  1.4265 -1.8728  0.9289
 6562TIP3   OH241320   3.488   2.436   2.310 -0.9356 -0.0488 -0.9072
 6562TIP3    H141321   3.523   2.494   2.377 -1.3675  1.9581 -2.3385
 6562TIP3    H241322   3.455   2.360   2.358  1.3277 -0.0050  0.8672
 6563TIP3   OH241323   6.111   3.059   0.640 -0.1269  0.4451 -0.0055
 6563TIP3    H141324   6.196   3.071   0.597  0.3629  1.1331  1.0990
 6563TIP3    H241325   6.129   2.997   0.712 -0.0525  2.1828  1.5400
 6564TIP3   OH241326   0.462   6.032   2.095 -0.0685  0.4971 -0.3324
 6564TIP3    H141327   0.383   5.980   2.082  0.7960 -0.7144 -0.8955
 6564TIP3    H241328   0.446   6.113   2.046 -0.6895 -0.0343 -1.0276
 6565TIP3   OH241329   0.988   5.434   8.373 -0.3320 -1.1795  0.5684
 6565TIP3    H141330   0.923   5.374   8.409  0.1609 -1.5312  0.8755
 6565TIP3    H241331   0.981   5.513   8.427 -1.2236 -0.8098 -0.0540
 6566TIP3   OH241332   6.578   1.679   7.610  0.4996 -0.1589 -0.2411
 6566TIP3    H141333   6.598   1.656   7.701  1.3589  0.3011 -0.2998
 6566TIP3    H241334   6.650   1.736   7.584 -0.3039  0.6005 -0.8649
 6567TIP3   OH241335   6.563   4.559   7.129 -0.2596 -0.2904  0.3943
 6567TIP3    H141336   6.616   4.604   7.063 -2.1962  1.0432 -0.3410
 6567TIP3    H241337   6.597   4.591   7.212 -0.9445  1.8684 -0.1008
 6568TIP3   OH241338   4.735   0.319   7.462 -0.6716 -0.5427 -0.2239
 6568TIP3    H141339   4.675   0.249   7.487 -1.2999  0.2269  0.4554
 6568TIP3    H241340   4.691   0.364   7.390 -0.0091 -1.1863 -1.0478
 6569TIP3   OH241341   0.175   3.417   1.911  0.5696  0.5412 -0.6503
 6569TIP3    H141342   0.112   3.434   1.841 -0.5100 -0.0450  0.1501
 6569TIP3    H241343   0.125   3.425   1.992  1.6803  0.7151  0.0495
 6570TIP3   OH241344   3.144   2.999   2.558 -0.2920  0.1102  0.0512
 6570TIP3    H141345   3.109   2.918   2.595  0.0915 -2.0913 -3.9421
 6570TIP3    H241346   3.067   3.048   2.531 -0.5614 -1.4332 -2.2245
 6571TIP3   OH241347   1.283   5.994   0.536  0.2728  0.0871 -0.3961
 6571TIP3    H141348   1.224   5.976   0.609  0.2378 -0.5310 -0.5767
 6571TIP3    H241349   1.268   6.087   0.517  0.5988  0.3627  0.6518
 6572TIP3   OH241350   3.409   5.948   1.248  0.2855  0.3632 -0.1769
 6572TIP3    H141351   3.425   5.924   1.339 -1.1193  2.9377  0.8478
 6572TIP3    H241352   3.324   5.910   1.228  0.1449  0.6319 -0.0873
 6573TIP3   OH241353   4.499   6.871   7.678  0.0832  0.1464  0.1693
 6573TIP3    H141354   4.486   6.786   7.635  0.9598  1.2543 -2.4407
 6573TIP3    H241355   4.413   6.893   7.714 -0.8691 -0.5500 -1.5869
 6574TIP3   OH241356   0.617   5.334   0.778  0.1533 -0.5955 -0.1805
 6574TIP3    H141357   0.650   5.420   0.804 -1.2180  0.0724 -0.5406
 6574TIP3    H241358   0.675   5.271   0.822  0.3849  0.5130  1.1498
 6575TIP3   OH241359   4.245   5.195   0.550 -0.5065 -0.0111 -0.0195
 6575TIP3    H141360   4.152   5.180   0.533 -0.3811 -2.1656  0.8246
 6575TIP3    H241361   4.291   5.150   0.479 -0.1119 -1.3967  1.0694
 6576TIP3   OH241362   1.728   5.943   2.271  0.5133 -0.2710 -0.5485
 6576TIP3    H141363   1.720   5.862   2.321 -0.8278  0.3801  0.3617
 6576TIP3    H241364   1.648   5.992   2.292 -0.5385 -0.2445 -3.8854
 6577TIP3   OH241365   0.457   0.431   0.018  0.3944  0.1048 -0.0617
 6577TIP3    H141366   0.469   0.499  -0.048 -1.7443  1.4154  0.8153
 6577TIP3    H241367   0.497   0.467   0.097  0.7441 -0.4102  0.0054
 6578TIP3   OH241368   5.793   4.589   7.899 -0.4776 -0.1774  0.0344
 6578TIP3    H141369   5.718   4.552   7.945 -0.7536  0.1524 -0.1482
 6578TIP3    H241370   5.759   4.613   7.813 -0.3879  0.7967  0.2518
 6579TIP3   OH241371   3.591   6.543   8.309 -0.1335  0.4478 -0.6646
 6579TIP3    H141372   3.516   6.593   8.344 -0.1632  0.0971 -0.2159
 6579TIP3    H241373   3.607   6.476   8.375  0.5714  0.5096 -0.7710
 6580TIP3   OH241374   2.366   0.382   8.070  0.5168 -0.4496  0.3451
 6580TIP3    H141375   2.276   0.416   8.066  0.3588 -0.6989  1.6353
 6580TIP3    H241376   2.398   0.408   8.156  0.4045 -3.5167  1.4281
 6581TIP3   OH241377   6.234   0.152   6.375 -0.5325  0.1622 -0.1935
 6581TIP3    H141378   6.243   0.209   6.300 -0.1134  1.0440  0.5112
 6581TIP3    H241379   6.160   0.187   6.424  0.1031  0.4832  0.5584
 6582TIP3   OH241380   4.950   6.814   0.074  0.2288 -0.0641 -0.6390
 6582TIP3    H141381   4.967   6.723   0.053 -0.2126 -0.3799  0.2974
 6582TIP3    H241382   5.020   6.863   0.032  1.1939 -0.9506 -0.0954
 6583TIP3   OH241383   1.454   4.358   0.134  0.1043 -0.2714  0.1193
 6583TIP3    H141384   1.529   4.416   0.147  0.5190 -0.9834  1.1060
 6583TIP3    H241385   1.428   4.334   0.223 -0.3666 -1.1870 -0.2580
 6584TIP3   OH241386   3.917   2.533   8.312  0.5110  0.0773  0.1765
 6584TIP3    H141387   3.988   2.593   8.333  0.9924 -0.2064 -0.5742
 6584TIP3    H241388   3.961   2.452   8.287  0.1127  0.6758 -2.9610
 6585TIP3   OH241389   4.754   5.603   2.382 -0.0225  1.0729  0.3961
 6585TIP3    H141390   4.784   5.666   2.316  2.6675  1.1690  1.5662
 6585TIP3    H241391   4.811   5.619   2.457 -0.1470 -1.8706  1.2149
 6586TIP3   OH241392   0.380   0.751   1.924  0.4463  0.9814  0.0492
 6586TIP3    H141393   0.299   0.775   1.970  0.5169  0.6921  0.3292
 6586TIP3    H241394   0.443   0.817   1.950  0.3476  1.1111 -0.0371
 6587TIP3   OH241395   5.719   0.009   7.430 -0.2599  0.1753 -0.0325
 6587TIP3    H141396   5.740   0.016   7.523  0.9714  0.7234 -0.3339
 6587TIP3    H241397   5.796  -0.033   7.391  0.5842  2.6020 -1.2325
 6588TIP3   OH241398   3.195   0.337   1.628  0.0692 -0.2769 -0.2003
 6588TIP3    H141399   3.100   0.333   1.640  0.0740  0.8877  0.3959
 6588TIP3    H241400   3.217   0.428   1.649  0.9635  0.2231 -2.9077
 6589TIP3   OH241401   3.839   4.232   1.806  0.0560  0.7453  0.2792
 6589TIP3    H141402   3.859   4.202   1.718  0.7831  1.6027  0.1344
 6589TIP3    H241403   3.755   4.276   1.799 -0.3038  0.0609  0.2007
 6590TIP3   OH241404   0.319   6.651   6.719 -0.1242  0.2209 -0.1791
 6590TIP3    H141405   0.241   6.627   6.669 -1.6064  0.7158  1.7389
 6590TIP3    H241406   0.287   6.717   6.782  1.8579  0.4678  0.6255
 6591TIP3   OH241407   6.848   2.620   0.639  0.6831  0.1480  0.2842
 6591TIP3    H141408   6.776   2.565   0.669  0.7351 -0.0653  0.0272
 6591TIP3    H241409   6.813   2.668   0.564  1.2506 -1.1097 -0.8302
 6592TIP3   OH241410   1.538   0.212   7.643 -0.6439  0.1960 -0.1294
 6592TIP3    H141411   1.479   0.176   7.709 -1.1709 -1.8490 -1.6128
 6592TIP3    H241412   1.481   0.246   7.574 -0.1029  1.7869  0.1794
 6593TIP3   OH241413   5.586   0.763   0.326 -0.1899 -0.5283 -0.1655
 6593TIP3    H141414   5.554   0.715   0.402  0.3885  1.8519  1.6837
 6593TIP3    H241415   5.559   0.854   0.341  1.9767  0.4493 -1.6249
 6594TIP3   OH241416   4.544   4.778   6.885 -0.4955  0.0189  0.3276
 6594TIP3    H141417   4.630   4.735   6.892  0.7378  1.6366 -2.6829
 6594TIP3    H241418   4.523   4.774   6.791 -3.0731  0.8843  0.7895
 6595TIP3   OH241419   4.276   4.457   8.303  0.2273  0.1839  0.4133
 6595TIP3    H141420   4.270   4.361   8.306 -2.6320  0.2965  0.6821
 6595TIP3    H241421   4.263   4.479   8.211  0.0424  0.3351  0.4732
 6596TIP3   OH241422   5.363   0.675   0.769  0.1863  0.4916 -0.1625
 6596TIP3    H141423   5.322   0.756   0.800 -0.5133  0.5697 -1.2575
 6596TIP3    H241424   5.289   0.618   0.747  0.6603  0.3407 -1.4178
 6597TIP3   OH241425   2.646   6.587   2.451  0.1127  0.2445  0.2819
 6597TIP3    H141426   2.658   6.536   2.371 -0.7856  1.5996 -0.7665
 6597TIP3    H241427   2.687   6.535   2.520 -0.4936 -1.7235 -0.7897
 6598TIP3   OH241428   4.768   1.299   0.059  0.0334 -0.1486  0.2056
 6598TIP3    H141429   4.682   1.299   0.018  0.1580 -1.9026 -0.1242
 6598TIP3    H241430   4.805   1.384   0.036 -1.8187  0.9029  0.8662
 6599TIP3   OH241431   3.223   3.592   7.598 -0.4128  0.6661 -0.0228
 6599TIP3    H141432   3.170   3.647   7.656  0.7136  1.2024  0.5322
 6599TIP3    H241433   3.159   3.548   7.541 -1.3530  2.4140 -0.3751
 6600TIP3   OH241434   1.177   3.923   0.744 -0.0754  0.0615  0.5201
 6600TIP3    H141435   1.179   3.943   0.837 -0.2805 -0.3780  0.6220
 6600TIP3    H241436   1.236   3.848   0.735  1.1089  1.0277  0.0635
 6601TIP3   OH241437   0.265   2.898   2.207 -0.2592  0.3262 -0.5556
 6601TIP3    H141438   0.181   2.856   2.188 -0.0652 -0.3361 -0.0105
 6601TIP3    H241439   0.330   2.831   2.185 -0.0047 -0.3330  1.9089
 6602TIP3   OH241440   3.836   6.725   1.419  0.5306  0.0192  0.4289
 6602TIP3    H141441   3.880   6.766   1.493 -1.7574 -0.8511  2.4056
 6602TIP3    H241442   3.857   6.632   1.427  1.1052  0.0224 -0.7023
 6603TIP3   OH241443   3.458   1.290   2.380  0.0002 -0.3249  0.3679
 6603TIP3    H141444   3.492   1.352   2.443 -1.3604 -0.5061  1.3205
 6603TIP3    H241445   3.363   1.294   2.391 -0.2554 -0.5976 -1.4474
 6604TIP3   OH241446   2.005   6.606   8.108 -0.3885 -0.0345  0.1365
 6604TIP3    H141447   2.094   6.642   8.108 -0.5621  0.4198  1.2777
 6604TIP3    H241448   1.982   6.601   8.015  0.4784  0.7082 -0.1398
 6605TIP3   OH241449   1.335   1.282   8.073  0.1452  0.0874 -0.6092
 6605TIP3    H141450   1.298   1.194   8.080 -1.7709  0.9472  1.3911
 6605TIP3    H241451   1.357   1.306   8.164  1.2600  1.4223 -1.1981
 6606TIP3   OH241452   0.001   3.479   1.675  0.0863 -0.4259 -0.5450
 6606TIP3    H141453   0.011   3.552   1.614 -1.4867  0.2974  0.0143
 6606TIP3    H241454  -0.047   3.413   1.625 -2.1500  0.5767  0.1339
 6607TIP3   OH241455   0.078   4.065   1.390 -0.4574  0.1458 -0.2712
 6607TIP3    H141456   0.126   4.002   1.444  0.5722  1.7122  0.7041
 6607TIP3    H241457   0.146   4.112   1.341 -0.9225  2.3468  1.0544
 6608TIP3   OH241458   1.391   0.552   6.813 -0.1379 -0.6229  0.3718
 6608TIP3    H141459   1.363   0.603   6.737 -0.2593 -3.0680 -1.3191
 6608TIP3    H241460   1.479   0.522   6.790  1.3531  1.5005  2.7943
 6609TIP3   OH241461   5.123   5.498   7.904 -0.9415  0.0294  0.3443
 6609TIP3    H141462   5.196   5.480   7.844 -1.0773  0.7560 -0.0619
 6609TIP3    H241463   5.155   5.570   7.959 -0.2924 -1.5662  2.1305
 6610TIP3   OH241464   4.691   3.846   6.841 -0.2275 -0.0275  0.5422
 6610TIP3    H141465   4.755   3.776   6.831 -1.0421 -0.4366 -2.9760
 6610TIP3    H241466   4.721   3.915   6.781 -2.1163  0.4829  0.1151
 6611TIP3   OH241467   6.309   0.212   7.265 -0.6604 -0.4338 -0.9050
 6611TIP3    H141468   6.382   0.173   7.313  0.5856  2.3101 -0.4179
 6611TIP3    H241469   6.333   0.202   7.173 -0.6197 -1.2430 -0.8142
 6612TIP3   OH241470   6.416   3.457   1.166 -0.0503  0.0060 -0.3135
 6612TIP3    H141471   6.481   3.517   1.203  0.4543 -0.2696 -0.7377
 6612TIP3    H241472   6.344   3.514   1.138  0.0781  0.3288  0.0126
 6613TIP3   OH241473   2.170   4.548   2.113  0.0084  0.6125 -0.3887
 6613TIP3    H141474   2.181   4.496   2.193 -2.9619  0.3635 -0.0483
 6613TIP3    H241475   2.200   4.635   2.137  0.4872  0.2148  0.5276
 6614TIP3   OH241476   5.532   0.144   7.271  0.1414 -0.6732 -0.0271
 6614TIP3    H141477   5.597   0.103   7.329 -1.2738 -0.5939  1.6852
 6614TIP3    H241478   5.483   0.071   7.234  1.2106 -0.7384 -1.4016
 6615TIP3   OH241479   1.576   0.644   6.583  0.0881 -0.8647  0.2626
 6615TIP3    H141480   1.500   0.605   6.540 -0.6573  0.5741  0.2069
 6615TIP3    H241481   1.644   0.576   6.580 -0.2986 -1.2133 -2.1813
 6616TIP3   OH241482   4.540   2.335   0.880  0.1993  0.1251 -0.0608
 6616TIP3    H141483   4.605   2.273   0.848  1.2410  0.3449  1.5227
 6616TIP3    H241484   4.530   2.315   0.973 -0.9473  1.0205  0.0380
 6617TIP3   OH241485   2.869   6.256   0.869 -0.1640  0.1426  0.3068
 6617TIP3    H141486   2.822   6.241   0.788 -2.1205  0.7971  1.2640
 6617TIP3    H241487   2.867   6.171   0.914  0.0811  0.0229  0.0917
 6618TIP3   OH241488   3.816   3.818   0.054  0.3873  0.2554  0.4848
 6618TIP3    H141489   3.735   3.866   0.072  0.0661  0.6361 -1.7172
 6618TIP3    H241490   3.876   3.884   0.018 -0.1139 -0.8651 -2.7460
 6619TIP3   OH241491   5.301   0.978   0.347 -0.1356 -0.3153 -0.1855
 6619TIP3    H141492   5.243   0.926   0.291 -0.1544  0.8080 -1.2816
 6619TIP3    H241493   5.299   1.065   0.307  0.2092  0.4160  1.3398
 6620TIP3   OH241494   2.244   3.402   7.778  0.3819 -0.0557 -0.1113
 6620TIP3    H141495   2.192   3.431   7.703 -2.7371 -0.8973  1.5596
 6620TIP3    H241496   2.190   3.335   7.820  1.5515  0.9661  3.3598
 6621TIP3   OH241497   5.276   2.344   7.460 -0.8945  0.0696 -0.3521
 6621TIP3    H141498   5.225   2.423   7.442 -0.9849 -0.0390 -0.5731
 6621TIP3    H241499   5.301   2.311   7.374  2.4047  1.9470 -0.2627
 6622TIP3   OH241500   5.151   6.411   2.816  0.5107 -0.2183 -0.2585
 6622TIP3    H141501   5.142   6.506   2.821  0.0630 -0.3154  1.8390
 6622TIP3    H241502   5.120   6.388   2.729  0.7415  1.5590 -0.8444
 6623TIP3   OH241503   1.894   4.653   7.321 -0.0178 -0.2077  0.1809
 6623TIP3    H141504   1.983   4.665   7.288 -0.8152  1.6577 -1.5192
 6623TIP3    H241505   1.892   4.701   7.403  0.0062  1.6517 -0.8539
 6624TIP3   OH241506   6.753   2.395   0.919  0.3607  0.5626 -0.0131
 6624TIP3    H141507   6.677   2.451   0.934 -1.4020 -1.6279 -0.0909
 6624TIP3    H241508   6.802   2.399   1.001 -3.7086 -3.2908  3.1734
 6625TIP3   OH241509   4.699   3.141   1.773 -0.1090  0.6095  1.0060
 6625TIP3    H141510   4.740   3.110   1.693  1.8268 -1.7857  2.7638
 6625TIP3    H241511   4.766   3.197   1.813 -0.4089  0.5034  1.6645
 6626TIP3   OH241512   3.873   2.348   0.540  0.4194  0.4953 -0.1728
 6626TIP3    H141513   3.791   2.311   0.573  0.0808  1.4649  0.1297
 6626TIP3    H241514   3.908   2.397   0.615  0.6221  1.1381 -0.6841
 6627TIP3   OH241515   2.198   6.347   8.119 -0.1774  0.1500 -0.1520
 6627TIP3    H141516   2.184   6.441   8.118  0.6222  0.2823 -0.0898
 6627TIP3    H241517   2.275   6.335   8.175 -0.8647 -0.6335  0.6681
 6628TIP3   OH241518   2.708   2.441   6.795 -0.0456 -0.2368  0.2687
 6628TIP3    H141519   2.688   2.500   6.722 -1.9590  1.4743  2.0596
 6628TIP3    H241520   2.665   2.359   6.772  1.6604 -0.6680 -1.7219
 6629TIP3   OH241521   2.489   3.157   0.937  0.7628  0.3739  0.4944
 6629TIP3    H141522   2.477   3.240   0.890  2.2683  0.2506 -0.1688
 6629TIP3    H241523   2.426   3.098   0.896 -1.5926  1.5885  2.1588
 6630TIP3   OH241524   1.929   0.610   1.036  0.2492  0.8041  0.3562
 6630TIP3    H141525   1.864   0.680   1.036 -0.2503  0.5063 -3.2717
 6630TIP3    H241526   1.878   0.529   1.034  0.5125  0.5714 -3.2051
 6631TIP3   OH241527   2.172   5.465   6.401  0.3728 -0.6040 -0.3886
 6631TIP3    H141528   2.152   5.555   6.376  0.4815  0.0353  1.6564
 6631TIP3    H241529   2.259   5.470   6.442 -0.4729 -1.2336  1.6220
 6632TIP3   OH241530   2.540   1.689   1.068 -0.1515 -0.3813 -0.3008
 6632TIP3    H141531   2.557   1.783   1.083  0.4739 -0.8501  2.8010
 6632TIP3    H241532   2.604   1.663   1.002  2.1616  0.7326  1.3475
 6633TIP3   OH241533   5.860   1.980   7.795  0.1787  0.2696  0.5152
 6633TIP3    H141534   5.851   1.942   7.883 -0.6950 -1.9754 -0.4571
 6633TIP3    H241535   5.830   2.070   7.804 -1.6826 -0.4375  2.1837
 6634TIP3   OH241536   3.198   2.244   6.470  0.4064  0.0793 -0.0102
 6634TIP3    H141537   3.212   2.159   6.429  1.4119  0.3685 -0.3053
 6634TIP3    H241538   3.248   2.305   6.415 -1.6703  1.1510 -0.8381
 6635TIP3   OH241539   4.516   2.975   7.962 -0.2792  0.4971 -0.4539
 6635TIP3    H141540   4.546   2.899   8.012  0.8244  1.5411  0.5359
 6635TIP3    H241541   4.593   3.002   7.911 -0.7251  0.8322 -0.9574
 6636TIP3   OH241542   6.375   0.373   7.884 -0.4269  0.0757  0.6159
 6636TIP3    H141543   6.356   0.279   7.884 -0.2623  0.0436  0.2871
 6636TIP3    H241544   6.367   0.399   7.793  1.7751 -0.0658  0.3343
 6637TIP3   OH241545   0.166   2.332   6.816  0.5197 -0.1257 -0.1833
 6637TIP3    H141546   0.137   2.249   6.778  1.2391 -0.3214 -0.3277
 6637TIP3    H241547   0.237   2.361   6.758 -0.2219  0.9742 -0.5725
 6638TIP3   OH241548   1.050   3.507   7.735 -0.0157  0.1162 -0.1864
 6638TIP3    H141549   0.977   3.569   7.742 -0.2404 -0.2409  0.7664
 6638TIP3    H241550   1.050   3.481   7.643 -2.4567 -1.4663  0.1702
 6639TIP3   OH241551   2.680   1.719   1.767 -0.4547  0.1315 -0.5633
 6639TIP3    H141552   2.625   1.763   1.702  0.7073  1.4412 -0.6969
 6639TIP3    H241553   2.720   1.790   1.817  1.9029 -0.7005 -1.1269
 6640TIP3   OH241554   0.170   3.786   0.723 -0.3471  0.3657 -0.6821
 6640TIP3    H141555   0.202   3.812   0.809  1.8648 -1.5314 -0.8359
 6640TIP3    H241556   0.214   3.845   0.662 -1.6481  1.4821 -0.5883
 6641TIP3   OH241557   4.801   5.429   8.341  0.0483  0.2417  0.0223
 6641TIP3    H141558   4.720   5.415   8.291  0.7956  1.1344 -1.5088
 6641TIP3    H241559   4.828   5.517   8.317  1.4041  0.0104  0.6488
 6642TIP3   OH241560   1.341   4.867   0.756 -0.2789  0.3284 -0.8951
 6642TIP3    H141561   1.253   4.863   0.793 -0.7601  0.4967 -1.9876
 6642TIP3    H241562   1.399   4.857   0.832 -1.2266  0.4314 -0.1331
 6643TIP3   OH241563   1.767   0.747   8.256  0.2854 -0.0741  0.1875
 6643TIP3    H141564   1.768   0.783   8.168  0.0783 -1.0699 -0.2270
 6643TIP3    H241565   1.700   0.679   8.254  1.7720 -1.5960  0.5181
 6644TIP3   OH241566   0.786   4.239   8.251  0.2457  0.1777 -0.6964
 6644TIP3    H141567   0.693   4.214   8.248 -0.2470  1.8523 -0.3410
 6644TIP3    H241568   0.792   4.317   8.195  1.5232 -0.1238 -1.0066
 6645TIP3   OH241569   1.433   4.514   7.350 -0.9556 -0.5630  0.1242
 6645TIP3    H141570   1.496   4.443   7.345  0.8568  0.9668 -0.0091
 6645TIP3    H241571   1.471   4.584   7.296 -2.8391  0.3980 -0.0732
 6646TIP3   OH241572   0.552   5.148   1.445 -0.2434  0.0975 -0.0639
 6646TIP3    H141573   0.646   5.146   1.459 -0.3128 -1.4245  0.3795
 6646TIP3    H241574   0.540   5.129   1.352 -0.1135  0.4198 -0.1466
 6647TIP3   OH241575   2.005   6.912   6.418 -0.0408  0.0287  0.1482
 6647TIP3    H141576   1.949   6.838   6.442 -2.4546  1.7418  0.1904
 6647TIP3    H241577   1.978   6.935   6.329  0.5979  0.9016  0.1663
 6648TIP3   OH241578   1.545   6.260   7.449  0.5453  0.0943  0.2965
 6648TIP3    H141579   1.640   6.244   7.447  0.4745 -0.4374  0.7901
 6648TIP3    H241580   1.507   6.176   7.424  0.1774 -0.1575  1.6400
 6649TIP3   OH241581   1.125   0.141   6.188  0.2654 -0.8272  0.1532
 6649TIP3    H141582   1.194   0.200   6.159 -0.2726 -0.1184  0.3001
 6649TIP3    H241583   1.159   0.053   6.169  1.3695 -0.5097  0.5778
 6650TIP3   OH241584   4.745   4.581   6.922  0.2234  0.2274  0.3538
 6650TIP3    H141585   4.786   4.552   7.003 -0.4865 -1.7516  0.0687
 6650TIP3    H241586   4.817   4.613   6.868  1.1904 -1.6190  0.4823
 6651TIP3   OH241587   1.791   4.637   1.849  0.1340  0.1283  0.3120
 6651TIP3    H141588   1.873   4.681   1.828  0.3195  0.1590  1.0742
 6651TIP3    H241589   1.776   4.578   1.775  1.0952 -0.2216  0.3762
 6652TIP3   OH241590   0.624   6.862   7.794 -0.0223 -0.8602 -0.4907
 6652TIP3    H141591   0.573   6.898   7.722 -0.5597  0.9186  0.7137
 6652TIP3    H241592   0.563   6.856   7.867  0.9174 -0.9582  0.3151
 6653TIP3   OH241593   0.990   2.302   7.672 -0.5192  0.6788 -0.5854
 6653TIP3    H141594   0.943   2.316   7.590 -0.6875 -0.4917 -0.7097
 6653TIP3    H241595   0.928   2.327   7.740 -1.1637 -0.3777 -0.7642
 6654TIP3   OH241596   3.676   4.794   1.004 -0.2403  0.2112 -0.7684
 6654TIP3    H141597   3.632   4.719   0.964 -2.4479  0.2422  1.3386
 6654TIP3    H241598   3.758   4.758   1.038 -1.7874 -1.6898  1.2994
 6655TIP3   OH241599   3.122   4.902   7.387  0.1225 -0.3097  0.0309
 6655TIP3    H141600   3.089   4.947   7.309 -0.7490 -0.7072  0.1567
 6655TIP3    H241601   3.180   4.833   7.352  2.2624  1.4649 -0.1281
 6656TIP3   OH241602   6.582   1.011   1.240  0.0932  0.0905 -0.4244
 6656TIP3    H141603   6.490   0.985   1.233  0.1811 -0.2575 -0.2641
 6656TIP3    H241604   6.614   1.010   1.149  0.4452 -1.6305 -0.3074
 6657TIP3   OH241605   6.396   4.269   8.242 -0.5303 -0.1418 -0.0839
 6657TIP3    H141606   6.371   4.177   8.252  0.2081 -0.3627 -0.2607
 6657TIP3    H241607   6.358   4.295   8.158 -0.1136 -0.5027 -0.3924
 6658TIP3   OH241608   3.017   6.122   2.188  0.1981 -0.6210 -0.5804
 6658TIP3    H141609   2.969   6.073   2.121  0.9919 -0.5516 -1.2161
 6658TIP3    H241610   3.070   6.184   2.138  0.0851  0.0886  0.1653
 6659TIP3   OH241611   2.642   6.773   0.914 -0.5610  0.3467  0.4401
 6659TIP3    H141612   2.553   6.746   0.893 -0.3293 -0.5665  0.6164
 6659TIP3    H241613   2.695   6.696   0.899 -0.0346  0.3648  2.0023
 6660TIP3   OH241614   6.115   5.538   0.998 -0.8152 -0.3355 -0.7192
 6660TIP3    H141615   6.195   5.562   1.045 -0.3023 -1.3375 -1.0480
 6660TIP3    H241616   6.146   5.500   0.916 -1.6496 -0.2689 -1.0717
 6661TIP3   OH241617   6.363   0.264   2.052 -0.2733 -0.0341 -0.1854
 6661TIP3    H141618   6.418   0.338   2.075  0.2017  0.1544 -1.7992
 6661TIP3    H241619   6.327   0.233   2.136  0.1164  1.5250  0.5909
 6662TIP3   OH241620   4.021   2.305   7.800 -0.0988 -0.7385 -0.1289
 6662TIP3    H141621   4.103   2.274   7.762  0.5210  1.1205 -0.3889
 6662TIP3    H241622   3.962   2.314   7.725  0.9197  2.2901 -0.6874
 6663TIP3   OH241623   6.157   0.422   6.996 -0.4078  0.1843  0.0922
 6663TIP3    H141624   6.133   0.485   7.064 -0.8716 -0.3823  0.4676
 6663TIP3    H241625   6.219   0.469   6.940  0.1124  0.6135  1.0064
 6664TIP3   OH241626   3.045   3.749   6.965 -0.2854 -0.0291 -0.1250
 6664TIP3    H141627   2.992   3.791   6.897  1.5879 -0.5195 -1.9699
 6664TIP3    H241628   3.131   3.789   6.956  1.3251 -3.4268 -1.3036
 6665TIP3   OH241629   1.583   2.201   6.494  0.5415 -0.0594 -0.6456
 6665TIP3    H141630   1.593   2.288   6.457 -1.3893 -0.0513 -1.2592
 6665TIP3    H241631   1.509   2.208   6.554  0.3247 -1.2757 -0.7381
 6666TIP3   OH241632   3.033   3.352   0.677 -0.2633  0.3970 -0.0171
 6666TIP3    H141633   2.962   3.293   0.704  0.4988 -0.6246 -0.1577
 6666TIP3    H241634   3.061   3.394   0.758  0.1720 -0.5668  0.3460
 6667TIP3   OH241635   1.086   3.822   2.429 -0.5110  0.2151 -0.2707
 6667TIP3    H141636   1.144   3.756   2.467  0.3811  0.9148 -0.3866
 6667TIP3    H241637   1.127   3.905   2.451 -0.6085  0.6734 -1.7447
 6668TIP3   OH241638   2.579   4.076   1.662  0.0547 -0.3227  0.3751
 6668TIP3    H141639   2.577   4.168   1.688  0.5035  0.0702 -0.9198
 6668TIP3    H241640   2.665   4.045   1.688  0.0824 -0.2438  0.3776
 6669TIP3   OH241641   2.152   6.910   7.899 -0.8238 -0.3554  0.3952
 6669TIP3    H141642   2.204   6.831   7.888  1.3175  0.8946  0.8617
 6669TIP3    H241643   2.146   6.921   7.994 -0.9501  0.1457  0.3302
 6670TIP3   OH241644   5.055   6.909   7.600 -0.5167  0.0530  0.0508
 6670TIP3    H141645   4.980   6.924   7.658  0.4482  1.6590  0.9536
 6670TIP3    H241646   5.032   6.955   7.520  0.2972  2.3357  1.0444
 6671TIP3   OH241647   0.384   4.400   1.179 -0.1343  0.2569  0.2485
 6671TIP3    H141648   0.356   4.452   1.103  1.6812  0.6795 -0.1846
 6671TIP3    H241649   0.479   4.409   1.180  0.1708 -2.2409  0.7653
 6672TIP3   OH241650   6.214   2.724   1.215 -0.0797  0.1448  0.0692
 6672TIP3    H141651   6.197   2.766   1.130 -0.3785  0.2241  0.1683
 6672TIP3    H241652   6.170   2.780   1.279  1.3948  0.9314  0.4479
 6673TIP3   OH241653   0.262   6.860   1.006 -0.5564 -0.0517  0.0830
 6673TIP3    H141654   0.269   6.831   0.915 -0.0645  1.4038 -0.3608
 6673TIP3    H241655   0.350   6.847   1.042 -0.9121 -1.2638  0.5786
 6674TIP3   OH241656   6.324   4.257   0.367 -0.0325  0.0823 -0.6725
 6674TIP3    H141657   6.376   4.229   0.291  0.4322  0.7006 -0.5867
 6674TIP3    H241658   6.264   4.184   0.383  1.5320 -1.1280 -0.0982
 6675TIP3   OH241659   4.273   5.753   1.242  0.2872 -0.3080  0.2403
 6675TIP3    H141660   4.178   5.749   1.250  0.2633 -0.6850 -0.1868
 6675TIP3    H241661   4.292   5.714   1.157  0.7841  0.2645  0.0779
 6676TIP3   OH241662   3.483   1.957   6.543  0.0778  0.5542  0.5879
 6676TIP3    H141663   3.462   1.895   6.614  0.8184  0.4340  0.7058
 6676TIP3    H241664   3.543   2.019   6.583 -0.9723  1.6133  0.5845
 6677TIP3   OH241665   1.906   6.704   7.288  0.0428  0.6714  0.1711
 6677TIP3    H141666   1.870   6.776   7.236  0.2582  1.2149  0.7516
 6677TIP3    H241667   1.835   6.680   7.348  0.0983  0.6473  0.2269
 6678TIP3   OH241668   2.312   3.994   1.730  0.3128  0.0393 -0.3960
 6678TIP3    H141669   2.310   3.993   1.825 -0.4752  1.0209 -0.3939
 6678TIP3    H241670   2.402   4.020   1.708  0.4071  0.1170  0.0788
 6679TIP3   OH241671   6.518   5.897   2.247 -0.3558 -0.6455 -0.8513
 6679TIP3    H141672   6.435   5.942   2.230 -0.6439 -0.9250 -0.2094
 6679TIP3    H241673   6.584   5.967   2.240 -0.7624 -0.1808 -0.2387
 6680TIP3   OH241674   4.243   5.237   8.466 -0.1120  0.5826 -0.3486
 6680TIP3    H141675   4.224   5.331   8.464  0.3193  0.7032  0.5791
 6680TIP3    H241676   4.182   5.202   8.530  1.5344  0.6921  1.3434
 6681TIP3   OH241677   4.349   4.629   7.860  0.3896  0.2738  0.0586
 6681TIP3    H141678   4.425   4.673   7.898 -1.1383  1.4025  1.9961
 6681TIP3    H241679   4.329   4.558   7.922 -0.1813  0.0255 -0.3993
 6682TIP3   OH241680   1.092   6.746   1.475 -0.7725  0.4113  0.3008
 6682TIP3    H141681   1.040   6.714   1.548 -0.5985  0.9376  0.6590
 6682TIP3    H241682   1.043   6.821   1.442 -0.3517  0.7847  0.5117
 6683TIP3   OH241683   0.690   6.333   0.030 -0.7626  0.5200  0.0169
 6683TIP3    H141684   0.678   6.420  -0.010 -3.1128 -0.0661 -0.7316
 6683TIP3    H241685   0.605   6.313   0.069 -0.1102 -1.2441  0.6183
 6684TIP3   OH241686   4.408   4.392   8.561  0.1858 -0.2196 -0.6407
 6684TIP3    H141687   4.466   4.316   8.557  1.4141  0.5564  0.8231
 6684TIP3    H241688   4.374   4.402   8.472  1.7243 -1.1728 -1.3782
 6685TIP3   OH241689   3.922   5.112   2.413 -0.1741  0.3079 -0.0459
 6685TIP3    H141690   3.866   5.165   2.471 -0.0384  0.9079 -0.4580
 6685TIP3    H241691   3.998   5.167   2.396 -0.3188  0.2327 -0.9850
 6686TIP3   OH241692   6.322   0.765   7.387  0.6694 -0.4902 -0.1828
 6686TIP3    H141693   6.324   0.686   7.332  0.8741 -0.8645  0.3494
 6686TIP3    H241694   6.265   0.825   7.340 -0.7437 -1.5156  0.1437
 6687TIP3   OH241695   3.517   6.242   0.508 -0.1202  0.1284 -0.6306
 6687TIP3    H141696   3.560   6.199   0.583 -1.6567 -1.8001 -0.7679
 6687TIP3    H241697   3.573   6.222   0.433  0.3355  0.2809 -0.3348
 6688TIP3   OH241698   4.784   4.782   0.303 -0.3278  0.2643 -0.2805
 6688TIP3    H141699   4.773   4.711   0.365 -0.5489 -0.1441 -0.7797
 6688TIP3    H241700   4.696   4.820   0.294 -0.4148 -0.0474 -0.7761
 6689TIP3   OH241701   2.271   0.123   7.405  0.2331 -0.3442  0.0363
 6689TIP3    H141702   2.350   0.104   7.354 -0.1227 -0.9626 -0.2862
 6689TIP3    H241703   2.293   0.100   7.494  0.6265  0.0865  0.0553
 6690TIP3   OH241704   0.826   1.914   1.693  0.0987  0.3501  0.0830
 6690TIP3    H141705   0.779   1.966   1.758 -1.0260 -1.0458  0.4495
 6690TIP3    H241706   0.912   1.901   1.731 -0.7011 -0.8705  1.5986
 6691TIP3   OH241707   4.919   1.479   2.463 -0.1670 -0.1019  0.4702
 6691TIP3    H141708   4.965   1.443   2.539 -2.3449 -3.2104  0.4794
 6691TIP3    H241709   4.846   1.527   2.501  0.9423  1.8118  0.3409
 6692TIP3   OH241710   3.547   4.834   8.566 -0.1425  0.2908  0.0387
 6692TIP3    H141711   3.513   4.756   8.522  1.3840 -0.6568  0.4524
 6692TIP3    H241712   3.593   4.882   8.497  0.1171  0.0871  0.0666
 6693TIP3   OH241713   6.030   2.917   1.322  0.4401 -0.5494  0.2768
 6693TIP3    H141714   5.950   2.965   1.300 -0.5155 -1.7490  0.9794
 6693TIP3    H241715   6.058   2.954   1.405  1.8507  1.3092 -0.9437
 6694TIP3   OH241716   2.559   4.135   7.652  0.5460  0.1889  0.4687
 6694TIP3    H141717   2.605   4.148   7.569  0.7059  1.8359  0.7868
 6694TIP3    H241718   2.469   4.159   7.633 -0.1248 -2.3180  0.0449
 6695TIP3   OH241719   2.578   4.819   1.131  0.1276 -0.0621  0.3342
 6695TIP3    H141720   2.511   4.751   1.141 -0.1324  0.0912 -0.3162
 6695TIP3    H241721   2.573   4.844   1.039  0.3233  0.7326  0.5319
 6696TIP3   OH241722   6.226   1.798   1.284 -0.4578  0.3541  0.3627
 6696TIP3    H141723   6.192   1.886   1.296  0.2520  0.6504  0.2065
 6696TIP3    H241724   6.288   1.805   1.212 -1.6205 -0.6107 -0.7812
 6697TIP3   OH241725   4.156   3.055   1.386  0.2394 -0.5268  0.0746
 6697TIP3    H141726   4.241   3.014   1.394  0.1317 -0.4653  1.7035
 6697TIP3    H241727   4.106   3.024   1.461 -1.7515 -1.8481 -1.6674
 6698TIP3   OH241728   1.277   2.697   0.522  0.1531  0.2905  0.3796
 6698TIP3    H141729   1.200   2.748   0.496  0.1774 -0.3657 -1.1063
 6698TIP3    H241730   1.346   2.762   0.535 -0.4200  0.8147  0.8641
 6699TIP3   OH241731   0.237   3.403   0.412  0.1160  0.2394  0.1119
 6699TIP3    H141732   0.228   3.442   0.499 -1.8686 -0.1392  0.1239
 6699TIP3    H241733   0.150   3.408   0.374  0.3430 -1.9100 -0.8560
 6700TIP3   OH241734   6.214   1.510   7.230 -0.3158 -0.0392  0.2612
 6700TIP3    H141735   6.141   1.528   7.290 -0.1573  0.3196  0.3475
 6700TIP3    H241736   6.290   1.550   7.272 -0.6061  2.3437 -1.3113
 6701TIP3   OH241737   2.014   4.637   7.874 -0.1735  0.2529  0.6139
 6701TIP3    H141738   1.981   4.706   7.931 -2.0537  2.8023 -3.1713
 6701TIP3    H241739   1.943   4.573   7.871  0.5382 -0.6804  2.1135
 6702TIP3   OH241740   5.446   4.023   1.373 -0.6286  0.1443  0.2213
 6702TIP3    H141741   5.402   3.938   1.368  1.4343 -1.1369  2.1981
 6702TIP3    H241742   5.481   4.037   1.285 -1.5750 -0.6954 -0.3076
 6703TIP3   OH241743   2.339   0.099   2.417 -0.5488  0.0048 -0.1501
 6703TIP3    H141744   2.400   0.064   2.482 -1.3525 -1.1797  0.0073
 6703TIP3    H241745   2.310   0.022   2.368 -1.5099  0.6125 -0.5703
 6704TIP3   OH241746   4.247   5.766   7.102  0.0583 -0.0982  0.0789
 6704TIP3    H141747   4.329   5.750   7.056  0.0720 -1.7707  0.6105
 6704TIP3    H241748   4.226   5.682   7.143 -1.3267  0.6152  0.9031
 6705TIP3   OH241749   6.580   0.105   2.698 -0.4713  0.5974  0.9607
 6705TIP3    H141750   6.505   0.155   2.731 -0.6491  0.7097  0.3907
 6705TIP3    H241751   6.590   0.034   2.761 -2.2849 -0.5766  0.0438
 6706TIP3   OH241752   3.059   4.134   1.803 -0.7327 -0.0451 -0.3225
 6706TIP3    H141753   3.083   4.225   1.784 -1.1831 -0.0297 -0.8615
 6706TIP3    H241754   3.030   4.136   1.894  0.7518  0.0333  0.1757
 6707TIP3   OH241755   2.973   0.370   7.593  0.2531 -0.4331 -0.4118
 6707TIP3    H141756   2.921   0.354   7.514 -1.2705  0.3605  0.3797
 6707TIP3    H241757   3.041   0.432   7.565 -0.1005 -0.3693 -1.1640
 6708TIP3   OH241758   4.013   5.430   1.026 -0.5455 -0.3000 -0.1199
 6708TIP3    H141759   4.020   5.403   1.118 -0.1340 -0.7914 -0.2939
 6708TIP3    H241760   3.993   5.350   0.979  1.6635 -0.5320 -0.7781
 6709TIP3   OH241761   1.422   1.634   1.418 -0.3197 -0.3741  0.0643
 6709TIP3    H141762   1.508   1.623   1.458  0.2683  0.3447 -0.9380
 6709TIP3    H241763   1.376   1.552   1.436  0.5944 -0.7956  0.5547
 6710TIP3   OH241764   1.060   5.203   7.967  0.0763  0.2646  0.2691
 6710TIP3    H141765   0.971   5.237   7.980 -0.0274 -0.2379  0.9132
 6710TIP3    H241766   1.114   5.281   7.955 -0.0624  0.7261  2.2681
 6711TIP3   OH241767   0.472   5.957   0.139  0.4260  0.6079  0.0601
 6711TIP3    H141768   0.564   5.973   0.159  0.2446 -0.7087  2.2183
 6711TIP3    H241769   0.471   5.870   0.098  0.2727  1.3302 -1.5627
 6712TIP3   OH241770   5.179   3.081   8.232 -0.4007 -0.3467 -0.0092
 6712TIP3    H141771   5.222   3.157   8.192  1.3056 -1.0067  0.4581
 6712TIP3    H241772   5.091   3.080   8.194 -0.0101  1.0813 -1.0320
 6713TIP3   OH241773   0.714   3.613   0.176 -0.4565  0.0466  0.3398
 6713TIP3    H141774   0.763   3.594   0.095  0.1559 -0.9910  0.9368
 6713TIP3    H241775   0.763   3.685   0.216  0.9695 -1.3311  1.2037
 6714TIP3   OH241776   4.052   4.691   0.926 -0.1747  0.2047 -0.3303
 6714TIP3    H141777   4.041   4.639   0.847  0.1409  0.8202 -0.7872
 6714TIP3    H241778   4.132   4.741   0.911  0.0239  0.1462  0.4850
 6715TIP3   OH241779   3.582   2.486   0.808  0.4151  0.1149  0.1833
 6715TIP3    H141780   3.629   2.534   0.876 -0.4542 -0.8492  1.5157
 6715TIP3    H241781   3.494   2.524   0.809  0.5092  0.3632 -0.6961
 6716TIP3   OH241782   0.934   1.812   7.960  0.0909 -0.2322  0.0277
 6716TIP3    H141783   0.960   1.721   7.943  1.0686 -0.0127  0.2698
 6716TIP3    H241784   0.985   1.837   8.038 -0.7625  0.2748  0.4358
 6717TIP3   OH241785   3.325   3.815   1.718 -0.0537  0.2600  0.1381
 6717TIP3    H141786   3.395   3.783   1.662 -0.7613 -0.7163 -0.2230
 6717TIP3    H241787   3.269   3.739   1.732 -1.4683  1.1831 -0.2342
 6718TIP3   OH241788   2.727   6.326   0.189  0.1928 -0.0664 -0.3831
 6718TIP3    H141789   2.709   6.334   0.095  1.1541 -1.6534 -0.7444
 6718TIP3    H241790   2.722   6.232   0.207  1.2169  0.0888  0.8994
 6719TIP3   OH241791   4.809   2.135   0.170 -0.6188 -0.4500  0.1041
 6719TIP3    H141792   4.789   2.072   0.240 -1.2953  0.1856  0.4937
 6719TIP3    H241793   4.822   2.080   0.093  3.4689 -1.4964  1.3107
 6720TIP3   OH241794   6.225   0.859   1.942 -0.2548  0.5598  0.2301
 6720TIP3    H141795   6.158   0.923   1.966 -0.2668  0.0675  1.6235
 6720TIP3    H241796   6.179   0.775   1.943  0.1330  0.3436  0.1276
 6721TIP3   OH241797   2.334   1.323   6.705 -0.7043 -0.9881 -0.0883
 6721TIP3    H141798   2.386   1.243   6.706  1.0300  0.0523 -1.2387
 6721TIP3    H241799   2.291   1.322   6.619 -1.1026 -0.9465  0.1099
 6722TIP3   OH241800   5.918   0.764   8.002  0.1236 -0.0817 -0.2952
 6722TIP3    H141801   5.926   0.857   8.021  0.4206 -0.2341  0.3426
 6722TIP3    H241802   5.950   0.720   8.081 -2.3851 -0.7257  0.4651
 6723TIP3   OH241803   2.520   4.954   1.346 -0.1433  0.4139 -0.6243
 6723TIP3    H141804   2.537   4.910   1.263 -1.1244 -0.7037 -0.2652
 6723TIP3    H241805   2.524   5.047   1.325  1.2087  0.1726 -1.5733
 6724TIP3   OH241806   4.754   1.496   1.759  0.4306 -0.2957 -0.6223
 6724TIP3    H141807   4.842   1.527   1.738 -0.0823  1.3279 -0.5032
 6724TIP3    H241808   4.707   1.574   1.788 -1.2162 -1.0196 -1.2198
 6725TIP3   OH241809   4.147   3.574   7.930  0.4859 -0.1369 -0.3349
 6725TIP3    H141810   4.215   3.617   7.878  0.0596  0.7323 -0.1843
 6725TIP3    H241811   4.181   3.576   8.019 -0.3951  1.7064 -0.0028
 6726TIP3   OH241812   0.026   2.586   7.325 -0.2987 -0.5694 -0.2521
 6726TIP3    H141813   0.016   2.580   7.420 -1.9522  0.8551 -0.2789
 6726TIP3    H241814  -0.064   2.585   7.292  0.1675  0.8361 -1.6523
 6727TIP3   OH241815   2.006   3.983   0.005  0.0895  0.1743 -0.3022
 6727TIP3    H141816   2.023   4.062  -0.046  0.2539 -0.1274 -0.7194
 6727TIP3    H241817   2.067   3.918  -0.030 -1.1537 -0.6136 -1.0940
 6728TIP3   OH241818   2.230   3.421   1.495 -0.5908  0.3958  0.2225
 6728TIP3    H141819   2.316   3.378   1.494 -1.2276 -0.9119 -0.6080
 6728TIP3    H241820   2.238   3.489   1.562  0.7502 -0.4096  0.9265
 6729TIP3   OH241821   4.415   2.126   2.492  0.0024  0.7711  0.0606
 6729TIP3    H141822   4.356   2.101   2.563  1.3418 -1.4473  0.4989
 6729TIP3    H241823   4.491   2.164   2.537  1.2672 -1.4930 -0.0025
 6730TIP3   OH241824   2.902   0.151   0.140 -0.2196  0.8475  0.1725
 6730TIP3    H141825   2.907   0.105   0.056  0.1036  2.5988 -0.8084
 6730TIP3    H241826   2.985   0.131   0.183 -0.1662  0.3549 -0.1449
 6731TIP3   OH241827   4.263   5.333   6.664 -0.5377  0.2974  0.2510
 6731TIP3    H141828   4.270   5.347   6.759  0.8260  1.2791  0.0414
 6731TIP3    H241829   4.307   5.250   6.649 -0.3953  0.3383  0.4375
 6732TIP3   OH241830   1.539   4.721   0.121 -0.4752 -0.3395  0.0457
 6732TIP3    H141831   1.447   4.749   0.127 -0.3147  0.0955  0.5504
 6732TIP3    H241832   1.589   4.802   0.125 -0.0564 -0.5916 -0.0083
 6733TIP3   OH241833   4.381   0.010   0.448  0.2609  0.0942  0.3039
 6733TIP3    H141834   4.463  -0.027   0.416 -0.5802 -2.6501  0.9698
 6733TIP3    H241835   4.322   0.005   0.373 -0.0755 -0.7273  0.6120
 6734TIP3   OH241836   6.703   3.455   8.243 -0.1390  0.3793  0.9880
 6734TIP3    H141837   6.790   3.420   8.227 -0.0870  0.7866  0.3404
 6734TIP3    H241838   6.684   3.509   8.166 -1.6477 -1.0515  0.2994
 6735TIP3   OH241839   6.713   2.717   6.718  0.1927  0.1495  0.0142
 6735TIP3    H141840   6.746   2.804   6.740  0.0724 -0.2189  1.8285
 6735TIP3    H241841   6.767   2.658   6.771 -0.6365 -0.7634 -0.1424
 6736TIP3   OH241842   0.967   4.679   7.920 -0.2619 -0.0057  0.5062
 6736TIP3    H141843   0.915   4.639   7.990 -0.8752  1.3407  0.8491
 6736TIP3    H241844   0.915   4.754   7.891 -0.8757 -1.4739 -2.6254
 6737TIP3   OH241845   0.133   4.985   7.434 -0.2663 -0.6388  1.1840
 6737TIP3    H141846   0.068   5.055   7.447  0.1725 -0.0520  0.3514
 6737TIP3    H241847   0.081   4.910   7.405 -0.6324 -0.3256  1.0146
 6738TIP3   OH241848   5.893   0.284   0.965  0.2456  0.4958 -0.1837
 6738TIP3    H141849   5.811   0.260   0.921 -1.0143  1.2926  1.6195
 6738TIP3    H241850   5.898   0.379   0.954  0.8082  0.4835 -0.0509
 6739TIP3   OH241851   4.362   5.562   6.568 -0.0709  0.6725  0.6376
 6739TIP3    H141852   4.316   5.634   6.610  0.4279  0.5965  1.3238
 6739TIP3    H241853   4.318   5.483   6.600  0.6237  0.5919  1.4235
 6740TIP3   OH241854   3.829   1.412   0.727  0.2207 -0.6413  0.7477
 6740TIP3    H141855   3.884   1.489   0.742  0.1936 -0.5621  0.4582
 6740TIP3    H241856   3.754   1.424   0.785 -1.3805  1.1629 -1.5048
 6741TIP3   OH241857   5.740   2.868   1.036  0.0586 -0.2996 -0.0204
 6741TIP3    H141858   5.826   2.908   1.047 -0.1764  0.4834 -0.8515
 6741TIP3    H241859   5.752   2.804   0.965 -0.1524  0.2066 -0.5248
 6742TIP3   OH241860   3.511   5.124   1.819  0.0416  0.1054  0.2305
 6742TIP3    H141861   3.507   5.029   1.809 -2.1638  0.1674 -0.0096
 6742TIP3    H241862   3.445   5.143   1.887 -0.0882  1.5073 -0.2589
 6743TIP3   OH241863   1.197   0.719   7.460  0.3970  0.3220  0.3802
 6743TIP3    H141864   1.234   0.672   7.535 -0.3894 -0.4990  0.2738
 6743TIP3    H241865   1.104   0.730   7.482 -0.0516 -0.7398 -0.8445
 6744TIP3   OH241866   5.130   4.371   0.847 -0.3613 -0.0696  0.2995
 6744TIP3    H141867   5.076   4.320   0.907 -0.3134 -2.1836 -1.3405
 6744TIP3    H241868   5.174   4.435   0.903 -0.9025 -1.4311  2.3954
 6745TIP3   OH241869   1.490   0.402   1.473  0.0579 -0.4672 -0.5568
 6745TIP3    H141870   1.432   0.459   1.523  1.9452  2.6696 -1.6624
 6745TIP3    H241871   1.557   0.375   1.535 -0.0014 -0.1763 -0.3654
 6746TIP3   OH241872   2.452   5.465   1.178  0.3853  0.3345  0.1765
 6746TIP3    H141873   2.446   5.501   1.266 -1.1530  0.7770 -0.0794
 6746TIP3    H241874   2.451   5.541   1.120  0.4419  0.0081 -0.2630
 6747TIP3   OH241875   5.349   1.330   0.470  0.1479  0.0914  0.4912
 6747TIP3    H141876   5.264   1.375   0.473  1.4692  3.0283 -1.5221
 6747TIP3    H241877   5.407   1.384   0.522  1.1214 -1.1115  0.6929
 6748TIP3   OH241878   5.541   3.573   0.371 -0.0060  0.5539 -0.4573
 6748TIP3    H141879   5.622   3.622   0.357  1.2680 -0.7979  1.5990
 6748TIP3    H241880   5.569   3.482   0.383 -2.0486 -0.2987 -1.6407
 6749TIP3   OH241881   6.241   5.051   1.860  0.0238  0.2211 -0.6840
 6749TIP3    H141882   6.212   4.971   1.905  2.7879 -0.0982  0.6857
 6749TIP3    H241883   6.242   5.118   1.927  0.6803  0.6515 -1.1121
 6750TIP3   OH241884   1.953   4.866   2.129  0.4924 -0.4321 -0.6284
 6750TIP3    H141885   1.929   4.780   2.094  1.3878 -0.8271 -0.3144
 6750TIP3    H241886   2.047   4.859   2.146  0.5530  0.5771 -0.4880
 6751TIP3   OH241887   1.266   5.912   1.381  0.6457  0.3904  0.2400
 6751TIP3    H141888   1.342   5.934   1.328  0.2780  3.2833  0.7293
 6751TIP3    H241889   1.264   5.979   1.449 -1.2375 -0.7718  1.4276
 6752TIP3   OH241890   1.540   3.621   6.347  0.4989  0.0272  0.4598
 6752TIP3    H141891   1.542   3.641   6.253 -1.3425  2.0993  0.7627
 6752TIP3    H241892   1.458   3.575   6.360 -0.7713  2.3630  1.3853
 6753TIP3   OH241893   3.020   3.457   1.217 -0.1252 -0.5594 -0.2223
 6753TIP3    H141894   3.031   3.545   1.180  1.0619 -0.6035 -0.0198
 6753TIP3    H241895   2.962   3.412   1.156  1.1395 -0.3702 -1.6095
 6754TIP3   OH241896   3.192   5.059   7.939 -0.3518  0.0867 -0.5362
 6754TIP3    H141897   3.143   4.978   7.951  2.7009 -2.2279 -2.1552
 6754TIP3    H241898   3.268   5.050   7.996 -0.4752  2.3982  0.0902
 6755TIP3   OH241899   0.080   5.283   7.329  0.6256  0.0734 -0.9385
 6755TIP3    H141900   0.061   5.298   7.237  0.7175 -1.8410 -1.2919
 6755TIP3    H241901   0.171   5.253   7.330  0.1542 -1.3868 -0.3910
 6756TIP3   OH241902   1.071   5.852   7.996 -0.4943  0.1700  0.9759
 6756TIP3    H141903   1.154   5.899   8.003 -0.0054 -0.3656 -0.6110
 6756TIP3    H241904   1.090   5.764   8.030 -0.2832 -0.0740  0.2459
 6757TIP3   OH241905   6.101   1.600   1.074 -0.5819 -0.3209 -0.1222
 6757TIP3    H141906   6.024   1.555   1.109 -0.6206  1.3540  2.2035
 6757TIP3    H241907   6.154   1.619   1.151  0.5641  1.4745 -1.2888
 6758TIP3   OH241908   2.846   5.817   6.967  0.2921 -0.1221  0.0324
 6758TIP3    H141909   2.865   5.909   6.981 -1.3367  0.2048  0.3589
 6758TIP3    H241910   2.877   5.799   6.878  0.3691  0.8150 -0.1394
 6759TIP3   OH241911   6.415   4.557   0.110  0.1674 -0.6699 -0.0225
 6759TIP3    H141912   6.399   4.491   0.042 -0.4739  0.9483 -1.4948
 6759TIP3    H241913   6.354   4.628   0.090  1.1362  0.5855  1.2610
 6760TIP3   OH241914   0.154   5.396   0.690 -0.0698  0.2252 -0.0317
 6760TIP3    H141915   0.124   5.486   0.678  0.7848  0.5641  0.2574
 6760TIP3    H241916   0.227   5.387   0.628 -0.8873 -0.6507 -0.8913
 6761TIP3   OH241917   2.876   1.517   1.159  0.1343  0.6556 -0.0808
 6761TIP3    H141918   2.800   1.469   1.192 -0.3833  0.3612 -1.5971
 6761TIP3    H241919   2.842   1.566   1.084  1.5148  0.1662 -1.0780
 6762TIP3   OH241920   4.495   3.764   7.176  0.5046 -0.0637 -0.5715
 6762TIP3    H141921   4.575   3.711   7.171  0.0895 -0.7232 -0.4005
 6762TIP3    H241922   4.520   3.841   7.226  0.4473 -1.4099  1.6427
 6763TIP3   OH241923   1.942   0.900   0.053  0.2033 -0.0066  0.1861
 6763TIP3    H141924   1.982   0.826   0.099  0.5099  0.0947  0.0898
 6763TIP3    H241925   1.988   0.977   0.088  2.1609 -0.0819 -1.9806
 6764TIP3   OH241926   1.841   4.292   7.590 -0.7745  0.7548  0.2682
 6764TIP3    H141927   1.776   4.254   7.531  0.3005 -0.3897 -0.2270
 6764TIP3    H241928   1.841   4.234   7.666  0.4909  0.0490 -0.2518
 6765TIP3   OH241929   5.692   2.398   0.581  0.2127 -0.0400  0.3320
 6765TIP3    H141930   5.598   2.408   0.561 -0.0036  0.5308  1.5541
 6765TIP3    H241931   5.721   2.328   0.522 -1.1090 -0.6304  0.3291
 6766TIP3   OH241932   0.716   1.474   8.431 -0.1167 -0.2561 -0.0335
 6766TIP3    H141933   0.665   1.527   8.492  2.1069  0.0878  1.6572
 6766TIP3    H241934   0.657   1.458   8.358 -2.0030  1.6508  0.9637
 6767TIP3   OH241935   5.799   6.072   2.187 -0.1373  0.3868 -0.6403
 6767TIP3    H141936   5.869   6.078   2.252  0.7678 -0.7313 -1.4866
 6767TIP3    H241937   5.745   6.149   2.204  1.3011  1.2960  0.0214
 6768TIP3   OH241938   6.331   2.397   6.543  0.2546  0.4235 -0.3007
 6768TIP3    H141939   6.257   2.351   6.582 -0.6127  1.6634 -0.4404
 6768TIP3    H241940   6.294   2.478   6.509  1.7586  1.3143  0.0825
 6769TIP3   OH241941   3.220   3.237   8.529 -0.0976  0.5319  0.3437
 6769TIP3    H141942   3.281   3.183   8.579  0.8409  0.9489 -0.3190
 6769TIP3    H241943   3.171   3.175   8.475 -1.4278  0.0272  2.0311
 6770TIP3   OH241944   3.017   6.420   7.912  0.4350  0.0607 -1.0974
 6770TIP3    H141945   3.107   6.422   7.944  0.0642 -0.4709  0.0310
 6770TIP3    H241946   2.983   6.507   7.932 -0.3060 -0.7598  1.6174
 6771TIP3   OH241947   2.241   6.188   6.701  0.3013  0.4323  0.0852
 6771TIP3    H141948   2.161   6.199   6.752  1.2423  0.2492  1.6483
 6771TIP3    H241949   2.290   6.269   6.713  0.5993  0.3425 -0.4391
 6772TIP3   OH241950   5.869   0.987   1.246 -0.0640  0.4377 -0.0367
 6772TIP3    H141951   5.889   0.904   1.203  0.0544  0.3047  0.2670
 6772TIP3    H241952   5.795   0.968   1.303 -2.8099  1.4872 -2.9503
 6773TIP3   OH241953   5.667   5.605   6.712  1.1160  0.0663  0.0534
 6773TIP3    H141954   5.665   5.599   6.807  1.1290  1.1030  0.1245
 6773TIP3    H241955   5.686   5.696   6.693  1.1781 -0.1354 -0.9484
 6774TIP3   OH241956   4.728   5.167   1.753  0.4890  0.1241 -0.2945
 6774TIP3    H141957   4.735   5.111   1.831  2.6598  0.7888  0.0624
 6774TIP3    H241958   4.674   5.116   1.692 -0.5343 -0.7898  1.2986
 6775TIP3   OH241959   1.570   0.872   6.751 -0.1295 -0.7426  0.3191
 6775TIP3    H141960   1.479   0.901   6.761  0.3812  1.4156 -0.5431
 6775TIP3    H241961   1.566   0.803   6.685 -1.1985 -1.0341  0.6680
 6776TIP3   OH241962   5.163   2.735   8.488  0.1396 -0.3439 -0.0770
 6776TIP3    H141963   5.227   2.805   8.496  0.4848 -0.5406 -1.0126
 6776TIP3    H241964   5.126   2.726   8.576  1.9186 -0.7429  0.6803
 6777TIP3   OH241965   0.844   0.625   7.776  0.2314 -0.5290  0.9324
 6777TIP3    H141966   0.805   0.650   7.692  0.0203 -1.1167  0.8516
 6777TIP3    H241967   0.812   0.691   7.837  0.7077  0.1378  0.4825
 6778TIP3   OH241968   1.282   4.005   7.534  0.0315  0.4739 -0.3969
 6778TIP3    H141969   1.341   4.032   7.605  0.2745  1.0362 -0.8094
 6778TIP3    H241970   1.248   4.087   7.499 -0.5533  0.1716 -0.5427
 6779TIP3   OH241971   5.670   3.387   8.021  0.0373  0.5800  0.5243
 6779TIP3    H141972   5.757   3.349   8.007  0.4707  1.7727 -0.0972
 6779TIP3    H241973   5.625   3.377   7.938 -1.2713 -2.0361  1.4377
 6780TIP3   OH241974   5.283   6.553   2.465  0.7171 -0.0543 -0.0273
 6780TIP3    H141975   5.232   6.474   2.483  0.3480  0.3954  0.9350
 6780TIP3    H241976   5.317   6.579   2.550  1.8925  0.1174 -0.5283
 6781TIP3   OH241977   0.084   3.102   6.917 -0.3799  0.5987 -0.6412
 6781TIP3    H141978   0.013   3.043   6.942 -0.6416  0.5908 -1.3821
 6781TIP3    H241979   0.085   3.100   6.822  0.3374  0.9361 -0.6513
 6782TIP3   OH241980   6.739   6.288   0.576 -0.2266 -0.4283 -0.9318
 6782TIP3    H141981   6.766   6.272   0.666 -0.4441 -2.2278 -1.1539
 6782TIP3    H241982   6.648   6.258   0.573  0.0468 -1.2042 -1.9507
 6783TIP3   OH241983   5.515   2.598   8.554  0.1171 -0.0296 -0.1654
 6783TIP3    H141984   5.526   2.678   8.504 -0.4531  0.0249 -0.2163
 6783TIP3    H241985   5.449   2.621   8.620  0.9074 -0.0763  0.6567
 6784TIP3   OH241986   3.291   1.408   7.697 -0.2061  0.2970  0.4145
 6784TIP3    H141987   3.282   1.344   7.768 -2.7508  1.3180  1.1609
 6784TIP3    H241988   3.357   1.470   7.728  0.9576 -0.9446  0.4827
 6785TIP3   OH241989   0.459   3.670   1.037  0.1562  0.1915  0.6878
 6785TIP3    H141990   0.527   3.736   1.023  0.3532 -0.1924 -0.2930
 6785TIP3    H241991   0.472   3.607   0.966  0.5189 -1.3655  2.0734
 6786TIP3   OH241992   1.367   0.176   6.462  0.1435  0.0924 -0.6094
 6786TIP3    H141993   1.371   0.247   6.399 -1.3616  0.7359 -0.0212
 6786TIP3    H241994   1.392   0.098   6.413 -0.8675  0.5922 -1.9700
 6787TIP3   OH241995   0.531   0.305   7.532  0.0882 -0.0844  0.2056
 6787TIP3    H141996   0.621   0.336   7.543 -0.7499  2.0981  1.5908
 6787TIP3    H241997   0.500   0.349   7.452 -1.0830  2.9723  2.1415
 6788TIP3   OH241998   2.757   5.927   7.262 -0.3563 -0.3497  0.1002
 6788TIP3    H141999   2.802   6.009   7.241  0.5380 -0.8200  0.1386
 6788TIP3    H242000   2.823   5.874   7.307 -1.0908 -0.8748  0.5846
 6789TIP3   OH242001   1.289   2.387   7.743 -0.0661 -0.0757 -0.0682
 6789TIP3    H142002   1.356   2.322   7.721 -0.2264 -0.1857 -0.2353
 6789TIP3    H242003   1.207   2.348   7.712 -0.0309  0.6961 -1.1784
 6790TIP3   OH242004   5.777   4.512   2.018 -0.0296  0.1202 -0.2780
 6790TIP3    H142005   5.872   4.517   2.010  0.1806 -0.8421  1.1841
 6790TIP3    H242006   5.752   4.439   1.962  0.2951 -0.6334  0.5416
 6791TIP3   OH242007   6.348   5.696   1.603 -0.1233  0.2206 -0.3695
 6791TIP3    H142008   6.419   5.664   1.658 -0.7363 -0.3253  0.1180
 6791TIP3    H242009   6.381   5.687   1.513  0.4445  0.0311 -0.1443
 6792TIP3   OH242010   1.977   6.218   0.853  0.8001  0.8945  0.4669
 6792TIP3    H142011   1.923   6.154   0.806  0.8411  2.7648 -2.3131
 6792TIP3    H242012   1.944   6.214   0.943  1.0668 -3.2444  0.6094
 6793TIP3   OH242013   3.938   3.565   8.108 -0.0689 -0.3479  0.4052
 6793TIP3    H142014   3.848   3.562   8.074 -0.1858 -1.8324  0.7678
 6793TIP3    H242015   3.993   3.575   8.031 -0.3585 -3.1323 -0.2484
 6794TIP3   OH242016   4.801   6.894   0.628  0.0541 -0.0880 -0.8496
 6794TIP3    H142017   4.888   6.856   0.635 -0.0217 -0.0875  0.5330
 6794TIP3    H242018   4.811   6.982   0.665 -0.3227  0.2805 -1.6126
 6795TIP3   OH242019   6.784   6.742   6.546 -0.3175 -0.7326 -0.3016
 6795TIP3    H142020   6.757   6.830   6.518 -1.4511 -1.2622 -0.9448
 6795TIP3    H242021   6.702   6.697   6.566  0.1970 -1.8705 -0.6566
 6796TIP3   OH242022   2.802   1.156   1.267 -0.3527  0.6276 -0.3591
 6796TIP3    H142023   2.735   1.223   1.255 -1.1209  0.2186  1.3043
 6796TIP3    H242024   2.837   1.172   1.355  0.1618 -0.5108 -0.3285
 6797TIP3   OH242025   1.122   1.812   7.169  0.0633 -0.5667 -0.0093
 6797TIP3    H142026   1.207   1.855   7.162 -0.2364  0.0809  0.2218
 6797TIP3    H242027   1.125   1.742   7.104  0.5375 -0.1578 -0.4414
 6798TIP3   OH242028   1.242   6.839   6.970  0.5005  0.2738  0.4337
 6798TIP3    H142029   1.318   6.804   6.924  0.0570  0.6359 -0.6086
 6798TIP3    H242030   1.203   6.762   7.012 -0.0661 -0.4172 -1.2437
 6799TIP3   OH242031   2.797   2.818   7.365  0.2045 -0.0982  0.1839
 6799TIP3    H142032   2.850   2.841   7.441  2.8738 -1.1365 -1.2326
 6799TIP3    H242033   2.827   2.730   7.341 -1.2072 -0.1616 -1.5467
 6800TIP3   OH242034   1.552   4.488   2.281 -0.5078 -0.4272 -0.3172
 6800TIP3    H142035   1.482   4.504   2.345  0.4003  0.0707  0.5869
 6800TIP3    H242036   1.627   4.461   2.335 -0.2335 -1.7861 -1.3287
 6801TIP3   OH242037   2.170   1.079   1.213  0.1486  0.7737  0.5003
 6801TIP3    H142038   2.179   0.988   1.187 -2.2584  0.9767 -1.3142
 6801TIP3    H242039   2.155   1.075   1.308 -3.0842 -1.0329  0.0273
 6802TIP3   OH242040   6.395   1.547   7.925  0.0417  0.3127  0.2003
 6802TIP3    H142041   6.434   1.484   7.865 -0.2483  0.2042  0.1225
 6802TIP3    H242042   6.376   1.624   7.870  0.4342  0.4839  0.3035
 6803TIP3   OH242043   6.441   6.410   1.449 -0.4898  0.0162  0.0264
 6803TIP3    H142044   6.388   6.445   1.521  1.9550 -0.0723  2.0224
 6803TIP3    H242045   6.519   6.465   1.448  0.9493 -1.9077 -0.4311
 6804TIP3   OH242046   1.553   4.418   1.824 -0.0758 -0.2359  0.5480
 6804TIP3    H142047   1.502   4.474   1.882 -2.0668 -0.4990 -0.8440
 6804TIP3    H242048   1.596   4.479   1.764 -0.1285 -0.0786  0.6685
 6805TIP3   OH242049   3.506   1.402   1.194 -0.3975 -0.3904  0.0157
 6805TIP3    H142050   3.489   1.481   1.142  0.2749  1.0950  1.9284
 6805TIP3    H242051   3.419   1.370   1.218 -0.7141 -0.9342 -1.6823
 6806TIP3   OH242052   3.017   4.060   8.294 -0.2123 -0.9874  0.6655
 6806TIP3    H142053   3.034   4.095   8.381  2.5910 -0.5771  0.0350
 6806TIP3    H242054   3.060   3.974   8.294  3.2900  0.5391 -1.3634
 6807TIP3   OH242055   1.746   5.343   8.145 -0.5045 -0.0044 -0.5342
 6807TIP3    H142056   1.737   5.249   8.163  1.6928 -0.1054  0.3136
 6807TIP3    H242057   1.689   5.385   8.210  0.7646 -0.6874  1.0835
 6808TIP3   OH242058   6.929   4.653   0.568  0.0753  0.0849 -0.1718
 6808TIP3    H142059   6.995   4.656   0.637  0.5574  1.0834 -0.6600
 6808TIP3    H242060   6.847   4.632   0.613  0.4948  0.1194  0.6135
 6809TIP3   OH242061   4.252   6.924   0.193 -0.0819  0.5333 -0.4741
 6809TIP3    H142062   4.282   6.853   0.136  0.4443  1.3249 -1.2155
 6809TIP3    H242063   4.166   6.947   0.159 -0.3705  0.0754 -0.0618
 6810TIP3   OH242064   5.875   6.844   8.544  0.6737 -0.0572  0.2870
 6810TIP3    H142065   5.910   6.854   8.455  1.4083  0.0628  0.5833
 6810TIP3    H242066   5.790   6.801   8.531  0.1707  1.1492 -0.5625
 6811TIP3   OH242067   0.783   0.275   1.331 -0.5029  0.5042 -0.1646
 6811TIP3    H142068   0.771   0.349   1.391 -0.7554 -0.1868  0.6629
 6811TIP3    H242069   0.715   0.286   1.265 -0.4507  1.0836 -0.1246
 6812TIP3   OH242070   1.997   1.087   6.972 -0.3966 -0.4231 -0.0751
 6812TIP3    H142071   1.919   1.031   6.979  0.4893 -1.8871 -1.4390
 6812TIP3    H242072   2.011   1.117   7.062 -1.6557 -1.3479  0.4783
 6813TIP3   OH242073   4.277   2.284   2.303 -0.2749  0.3712  0.0614
 6813TIP3    H142074   4.197   2.254   2.260 -1.6673  1.1174  1.9725
 6813TIP3    H242075   4.289   2.225   2.377 -0.7172  1.9640  1.4582
 6814TIP3   OH242076   5.743   2.248   7.841  0.4798  0.5002 -0.2905
 6814TIP3    H142077   5.656   2.258   7.879 -0.0015 -0.0121 -1.2090
 6814TIP3    H242078   5.729   2.259   7.747  1.6831  2.1311 -0.3300
 6815TIP3   OH242079   1.363   5.174   8.135 -0.4859 -0.0100 -0.1926
 6815TIP3    H142080   1.324   5.210   8.055 -2.3985  0.4620  0.9010
 6815TIP3    H242081   1.333   5.232   8.205  2.2012  0.3780  0.7870
 6816TIP3   OH242082   5.972   5.954   0.930 -0.1025  0.5203 -0.2040
 6816TIP3    H142083   6.050   5.932   0.879  0.0391 -0.3511  0.3674
 6816TIP3    H242084   6.005   6.007   1.003  0.1916 -0.9528  0.7962
 6817TIP3   OH242085   5.975   5.737   8.026  0.1164 -0.4724 -0.5524
 6817TIP3    H142086   6.057   5.688   8.032  0.9326  0.7045 -1.5864
 6817TIP3    H242087   5.954   5.760   8.117  0.0211 -2.1719 -0.1060
 6818TIP3   OH242088   0.558   3.757   7.183 -0.1392  0.5185  0.2330
 6818TIP3    H142089   0.463   3.745   7.181 -0.1397  0.3011  1.0845
 6818TIP3    H242090   0.582   3.741   7.274  0.7679  0.1692 -0.0593
 6819TIP3   OH242091   1.646   3.095   0.254  0.2469 -0.3065 -0.3184
 6819TIP3    H142092   1.583   3.073   0.322 -1.6210  3.0755 -0.7206
 6819TIP3    H242093   1.730   3.104   0.301 -0.4548 -0.6099  1.0471
 6820TIP3   OH242094   5.584   6.629   1.697  0.2440  0.3940  0.3831
 6820TIP3    H142095   5.661   6.680   1.721  0.5230  0.7656 -1.2285
 6820TIP3    H242096   5.581   6.633   1.602 -0.6992 -1.2003  0.3179
 6821TIP3   OH242097   5.175   4.601   2.203 -0.3317 -0.3138  0.3886
 6821TIP3    H142098   5.165   4.587   2.297  1.8775 -1.1114  0.5425
 6821TIP3    H242099   5.232   4.531   2.173  2.4654  2.2116 -0.7558
 6822TIP3   OH242100   4.277   5.383   7.511  0.0704 -0.3692  0.3097
 6822TIP3    H142101   4.329   5.420   7.440 -2.2102  0.4859 -1.0180
 6822TIP3    H242102   4.266   5.455   7.572  0.6133 -0.6187  0.7094
 6823TIP3   OH242103   1.999   6.224   6.816 -0.2707  0.4951  0.4622
 6823TIP3    H142104   1.939   6.157   6.848 -0.4439 -0.1535 -1.0808
 6823TIP3    H242105   1.942   6.296   6.788 -0.1483  0.8994  1.2298
 6824TIP3   OH242106   5.083   2.340   2.065  0.0062  0.1513 -0.5218
 6824TIP3    H142107   5.115   2.261   2.108  3.4725  1.4372 -0.3684
 6824TIP3    H242108   5.098   2.410   2.130  1.4373  1.5187 -2.2055
 6825TIP3   OH242109   0.133   4.707   7.608 -0.1395  0.6152  0.2012
 6825TIP3    H142110   0.087   4.703   7.524 -0.0470 -0.4240  0.1876
 6825TIP3    H242111   0.096   4.636   7.659 -0.3843  1.4082  1.1630
 6826TIP3   OH242112   5.043   4.772   6.174 -0.0123 -0.5249 -0.2319
 6826TIP3    H142113   5.086   4.828   6.109 -1.0239  0.8256  0.2332
 6826TIP3    H242114   5.104   4.699   6.186  0.7774 -0.1573 -1.7475
 6827TIP3   OH242115   2.117   1.284   0.719  0.3894 -0.0658 -0.0677
 6827TIP3    H142116   2.067   1.216   0.673 -0.6114  0.9118 -0.4465
 6827TIP3    H242117   2.121   1.253   0.809 -1.4118  0.1071  0.0996
 6828TIP3   OH242118   0.207   6.640   1.974 -0.0058  0.3512 -0.0035
 6828TIP3    H142119   0.153   6.657   1.897 -0.2275 -2.7192 -0.6473
 6828TIP3    H242120   0.146   6.644   2.048 -0.4010  0.3495 -0.3280
 6829TIP3   OH242121   3.120   1.762   0.596  0.2516  0.0879 -0.5165
 6829TIP3    H142122   3.108   1.837   0.654  1.7953 -1.4092  1.9199
 6829TIP3    H242123   3.041   1.709   0.609  0.7863 -0.4642  0.6649
 6830TIP3   OH242124   1.892   5.079   2.777 -0.1654  0.0713 -0.8415
 6830TIP3    H142125   1.896   4.984   2.767  0.5158  0.0078 -0.1111
 6830TIP3    H242126   1.805   5.097   2.811 -0.0717 -0.3565 -0.3756
 6831TIP3   OH242127   5.530   5.443   2.262 -0.0532  0.2723 -0.2563
 6831TIP3    H142128   5.608   5.400   2.227 -0.1544  0.3614 -0.5955
 6831TIP3    H242129   5.557   5.533   2.277  0.1297  0.1216  0.3584
 6832TIP3   OH242130   6.324   2.824   2.205 -0.7040  0.3830 -0.2424
 6832TIP3    H142131   6.233   2.801   2.183 -1.0867  1.2528  0.3756
 6832TIP3    H242132   6.366   2.740   2.222 -1.7821  0.0428  0.8989
 6833TIP3   OH242133   0.489   3.429   7.815  0.6603 -0.2155 -0.4530
 6833TIP3    H142134   0.499   3.335   7.832 -0.6177 -0.3329 -0.2872
 6833TIP3    H242135   0.395   3.443   7.808  0.7721  1.2196  0.4824
 6834TIP3   OH242136   3.759   4.126   0.116 -0.6443 -0.1951 -0.4598
 6834TIP3    H142137   3.851   4.150   0.130 -0.7416 -0.8973  1.7304
 6834TIP3    H242138   3.731   4.180   0.042  1.0011  1.3977  0.0205
 6835TIP3   OH242139   3.844   5.520   7.056 -0.1300 -0.3059  0.0495
 6835TIP3    H142140   3.790   5.577   7.001 -1.0840 -0.8810  0.3698
 6835TIP3    H242141   3.835   5.434   7.016 -0.0072 -0.5332  0.5081
 6836TIP3   OH242142   0.019   4.273   0.931 -0.0736  0.4090  0.6847
 6836TIP3    H142143  -0.041   4.286   0.858  0.0243  2.7181  0.9406
 6836TIP3    H242144   0.049   4.182   0.922 -2.7224 -0.4901 -0.0709
 6837TIP3   OH242145   6.544   1.075   0.336 -0.8522  0.1269  0.0038
 6837TIP3    H142146   6.568   1.166   0.354  0.1518 -0.2021  0.4421
 6837TIP3    H242147   6.450   1.077   0.317 -0.6920  1.3533 -0.7335
 6838TIP3   OH242148   5.026   6.539   0.458 -0.3160  0.1347  0.4604
 6838TIP3    H142149   5.033   6.602   0.530 -0.5070 -0.5208  1.0568
 6838TIP3    H242150   5.112   6.542   0.416 -0.0535  0.1898  0.9935
 6839TIP3   OH242151   5.495   6.803   6.759  0.1903  0.2140  0.3900
 6839TIP3    H142152   5.508   6.766   6.846 -1.9912  1.2641  1.2267
 6839TIP3    H242153   5.545   6.885   6.759  0.2960  0.1488  0.6068
 6840TIP3   OH242154   2.235   3.021   1.053  0.4092 -0.0413 -0.3298
 6840TIP3    H142155   2.188   2.967   0.989 -0.0281 -1.1103  0.8531
 6840TIP3    H242156   2.184   3.014   1.133  0.3311  2.1826 -0.1195
 6841TIP3   OH242157   0.878   4.082   7.944  0.2618 -0.2965 -0.0317
 6841TIP3    H142158   0.875   3.999   7.991  0.8500 -0.9751 -1.1358
 6841TIP3    H242159   0.955   4.074   7.887 -0.1640  0.6662 -0.7648
 6842TIP3   OH242160   6.563   3.478   8.525  0.0432 -0.0493  0.0951
 6842TIP3    H142161   6.655   3.493   8.503 -0.1461 -0.1705 -0.7858
 6842TIP3    H242162   6.563   3.472   8.621  1.0761 -0.8395  0.0687
 6843TIP3   OH242163   3.229   1.466   0.949  0.1876 -0.2377 -0.7020
 6843TIP3    H142164   3.250   1.403   0.880  0.6348  0.2791 -1.0466
 6843TIP3    H242165   3.195   1.412   1.021 -1.3346 -0.6869 -1.7035
 6844TIP3   OH242166   2.008   0.084   6.712  0.4766 -0.1639 -0.3470
 6844TIP3    H142167   2.016   0.178   6.693  1.0231 -0.6690 -2.9364
 6844TIP3    H242168   2.099   0.053   6.716  0.3320 -1.2168 -3.3991
 6845TIP3   OH242169   4.774   5.875   1.467 -0.2153  0.1336  0.1406
 6845TIP3    H142170   4.864   5.861   1.441 -0.9819 -1.4884 -1.8810
 6845TIP3    H242171   4.760   5.814   1.540  0.1101 -0.1675 -0.0483
 6846TIP3   OH242172   6.755   6.793   1.081  0.2090  0.2121 -0.6463
 6846TIP3    H142173   6.670   6.805   1.040 -0.1909 -0.5502 -0.0823
 6846TIP3    H242174   6.813   6.854   1.036 -0.7269  1.0468 -0.7506
 6847TIP3   OH242175   5.111   6.691   8.355  0.1220 -0.3045 -0.1019
 6847TIP3    H142176   5.035   6.738   8.320 -0.0209  0.2326  0.8846
 6847TIP3    H242177   5.074   6.610   8.392  0.6234 -2.4190 -3.7875
 6848TIP3   OH242178   4.482   3.329   0.476 -0.1350  0.1269  0.1056
 6848TIP3    H142179   4.469   3.424   0.481 -1.9198 -0.0276 -0.5382
 6848TIP3    H242180   4.396   3.292   0.498  0.2658 -1.2939 -0.5692
 6849TIP3   OH242181   1.994   1.326   0.372  0.3401 -0.2757 -0.6333
 6849TIP3    H142182   2.051   1.390   0.415 -0.3947  0.5721 -0.9011
 6849TIP3    H242183   1.945   1.285   0.444 -1.2784  1.5122 -0.6260
 6850TIP3   OH242184   4.095   5.095   6.581  0.1300 -0.0231  0.6294
 6850TIP3    H142185   4.187   5.073   6.596 -0.2978 -0.4958  2.9574
 6850TIP3    H242186   4.052   5.011   6.567 -0.2453  0.0030  1.5620
 6851TIP3   OH242187   6.038   6.012   2.834  0.5432  0.3704 -0.3445
 6851TIP3    H142188   6.116   6.016   2.778  0.8612 -1.1858 -0.0755
 6851TIP3    H242189   6.011   5.920   2.830 -1.4245  0.9189 -0.5968
 6852TIP3   OH242190   6.405   2.429   7.319 -0.8119 -0.1476  0.1130
 6852TIP3    H142191   6.440   2.381   7.244  0.6412  2.2476 -0.8552
 6852TIP3    H242192   6.478   2.435   7.380 -0.9032  0.9520  0.1311
 6853TIP3   OH242193   3.521   6.790   7.540 -0.2678 -0.1491  0.5516
 6853TIP3    H142194   3.462   6.784   7.615  0.4183 -3.2549  0.9862
 6853TIP3    H242195   3.478   6.740   7.471  0.3474  0.3891 -0.2424
 6854TIP3   OH242196   4.143   5.675   2.897 -0.2762  0.3639  0.2735
 6854TIP3    H142197   4.146   5.711   2.986  2.0062 -0.3709  0.5628
 6854TIP3    H242198   4.181   5.588   2.906 -2.5002 -0.8178 -1.0032
 6855TIP3   OH242199   1.437   4.630   1.122 -0.0051 -0.5264  0.9235
 6855TIP3    H142200   1.371   4.699   1.132 -0.6257 -1.2415  2.0593
 6855TIP3    H242201   1.392   4.550   1.151  0.9955 -1.2390  0.5602
 6856TIP3   OH242202   5.326   1.932   1.001 -0.1427  0.2106  0.3050
 6856TIP3    H142203   5.411   1.964   0.972 -0.4051  1.3507  0.7603
 6856TIP3    H242204   5.282   1.903   0.921 -0.0898  1.4704 -0.1979
 6857TIP3   OH242205   3.038   4.985   2.016 -0.6638 -0.3651 -0.1178
 6857TIP3    H142206   2.959   5.039   2.022 -0.9058 -0.6457 -0.6956
 6857TIP3    H242207   3.087   5.023   1.943 -1.0679 -1.2008 -0.8519
 6858TIP3   OH242208   4.558   1.872   2.436 -0.0334  0.4215 -0.5076
 6858TIP3    H142209   4.645   1.885   2.474 -0.2147 -0.9956  0.4785
 6858TIP3    H242210   4.505   1.942   2.475  0.0936 -0.2186  0.8927
 6859TIP3   OH242211   3.894   6.904   7.893  0.0540 -0.2792  0.0884
 6859TIP3    H142212   3.875   6.851   7.816 -0.3818  1.6233 -1.1727
 6859TIP3    H242213   3.944   6.978   7.859  0.2704  0.3615  1.7190
 6860TIP3   OH242214   2.446   2.579   8.477 -0.0361 -0.0394 -0.5564
 6860TIP3    H142215   2.492   2.496   8.472  0.4766 -0.0216  2.2687
 6860TIP3    H242216   2.501   2.640   8.427  1.0347 -0.8280 -0.3720
 6861TIP3   OH242217   0.142   3.916   7.065  0.5011 -0.0713 -0.2940
 6861TIP3    H142218   0.191   3.939   6.986  0.5212 -0.3575 -0.3665
 6861TIP3    H242219   0.116   3.825   7.051  1.1560 -0.3723  0.3630
 6862TIP3   OH242220   1.611   6.612   7.855 -0.1076  0.1525 -0.0023
 6862TIP3    H142221   1.548   6.642   7.790  0.8006 -1.0152 -1.4729
 6862TIP3    H242222   1.566   6.542   7.902 -0.3661  0.2493 -0.1036
 6863TIP3   OH242223   4.484   1.784   1.397  0.3575 -0.3245 -1.0854
 6863TIP3    H142224   4.552   1.852   1.397  1.3209 -1.2686 -1.3293
 6863TIP3    H242225   4.511   1.722   1.330 -0.8688 -0.6161 -1.3398
 6864TIP3   OH242226   2.676   2.191   8.409  0.2410 -0.0548 -0.0965
 6864TIP3    H142227   2.634   2.110   8.380  0.8350  0.1596 -1.6074
 6864TIP3    H242228   2.740   2.211   8.341  3.1772 -0.6103  2.2959
 6865TIP3   OH242229   1.317   1.166   0.854 -0.0003 -0.3418 -0.2160
 6865TIP3    H142230   1.361   1.248   0.831 -1.0410  0.1342 -0.6097
 6865TIP3    H242231   1.269   1.142   0.775  1.3356 -2.0755 -0.5572
 6866TIP3   OH242232   2.927   2.788   8.384  0.0621 -0.2996  0.4104
 6866TIP3    H142233   3.009   2.762   8.427 -0.6612 -1.0725  1.3898
 6866TIP3    H242234   2.871   2.710   8.391 -0.4834 -0.0535 -0.9581
 6867TIP3   OH242235   4.255   5.783   6.685  0.1123  0.5064  0.0274
 6867TIP3    H142236   4.203   5.839   6.627 -0.9758 -0.3412  0.1488
 6867TIP3    H242237   4.328   5.838   6.712  1.2317  0.6558 -2.9143
 6868TIP3   OH242238   3.132   1.071   1.234 -0.4387  0.0425 -0.7380
 6868TIP3    H142239   3.111   1.073   1.327  2.1417  1.6840 -0.0998
 6868TIP3    H242240   3.169   0.984   1.219  0.6334  0.3151  0.1847
 6869TIP3   OH242241   1.579   2.942   6.777  0.7428  0.6011  0.2574
 6869TIP3    H142242   1.500   2.981   6.740 -0.5012  0.4798  2.5815
 6869TIP3    H242243   1.651   2.982   6.729 -0.6972  0.5777 -2.0785
 6870TIP3   OH242244   1.465   5.036   1.881  0.1065  0.0968 -0.2649
 6870TIP3    H142245   1.506   4.968   1.934 -0.2828  0.5442  0.6261
 6870TIP3    H242246   1.430   4.989   1.806  0.3110 -0.6096  0.0731
 6871TIP3   OH242247   5.115   5.736   8.143 -0.2633  0.0243 -0.6305
 6871TIP3    H142248   5.099   5.646   8.170  1.0120 -0.3421 -1.0394
 6871TIP3    H242249   5.038   5.784   8.175  0.9290 -0.3962  3.4804
 6872TIP3   OH242250   1.891   1.391   1.288  0.4213 -0.3448 -0.2801
 6872TIP3    H142251   1.917   1.429   1.204  2.2390 -0.4136  0.2158
 6872TIP3    H242252   1.865   1.301   1.267  1.1646 -0.4602 -0.7256
 6873TIP3   OH242253   1.319   0.227   1.873 -0.3560 -0.0390 -0.4056
 6873TIP3    H142254   1.287   0.248   1.961 -2.2150  0.8878 -1.2359
 6873TIP3    H242255   1.346   0.311   1.836  0.2914 -0.4019 -0.7713
 6874TIP3   OH242256   3.162   1.269   2.085  0.0769 -0.4389 -0.6203
 6874TIP3    H142257   3.241   1.278   2.138 -0.6523  2.8649  0.1269
 6874TIP3    H242258   3.106   1.211   2.136 -0.0624  1.5590  1.6833
 6875TIP3   OH242259   0.981   4.135   1.204 -0.2622 -0.2486  0.6223
 6875TIP3    H142260   1.015   4.120   1.117 -1.0504 -1.7469  0.5331
 6875TIP3    H242261   0.973   4.231   1.211  2.0604  0.0468 -0.0190
 6876TIP3   OH242262   5.263   5.067   8.062  0.2368  0.0691  0.4485
 6876TIP3    H142263   5.264   5.143   8.120  1.6550 -0.4299  1.1198
 6876TIP3    H242264   5.345   5.022   8.080 -0.5510 -1.6214  0.0598
 6877TIP3   OH242265   5.194   4.992   2.728  0.7667 -0.0295  0.1302
 6877TIP3    H142266   5.227   4.969   2.641 -0.0138 -0.1097 -0.1530
 6877TIP3    H242267   5.099   4.994   2.718  0.7266  1.3559  0.6453
 6878TIP3   OH242268   0.185   3.583   7.949  0.0962 -0.1290 -0.0212
 6878TIP3    H142269   0.123   3.539   8.007 -0.5698  0.3761 -0.3406
 6878TIP3    H242270   0.194   3.525   7.874  0.0380 -0.2185  0.0408
 6879TIP3   OH242271   6.377   2.207   7.532 -0.6757 -0.1062 -0.1941
 6879TIP3    H142272   6.431   2.129   7.543 -1.3416 -0.9420 -2.4759
 6879TIP3    H242273   6.435   2.271   7.489 -0.7440 -0.0808 -0.2488
 6880TIP3   OH242274   6.882   1.867   7.905  0.3698 -0.3436 -0.0441
 6880TIP3    H142275   6.867   1.935   7.840 -1.1876 -0.5306  0.0832
 6880TIP3    H242276   6.910   1.915   7.983 -0.9845  0.2301  0.1304
 6881TIP3   OH242277   0.069   3.023   6.639 -0.1920 -0.7193  0.0495
 6881TIP3    H142278   0.095   3.099   6.587  1.3440 -1.4181 -0.2765
 6881TIP3    H242279  -0.026   3.025   6.639 -0.2315 -0.2436 -2.1503
 6882TIP3   OH242280   2.338   5.208   2.178 -0.2438  0.1747  0.9822
 6882TIP3    H142281   2.349   5.122   2.218 -2.1615 -0.1859  0.8441
 6882TIP3    H242282   2.425   5.232   2.148  0.4475 -1.4376  1.5951
 6883TIP3   OH242283   3.702   6.426   1.287 -0.3246  0.1448 -0.5278
 6883TIP3    H142284   3.734   6.343   1.252  2.7289 -0.2148  2.6090
 6883TIP3    H242285   3.694   6.483   1.211 -1.7738 -2.7037 -2.6863
 6884TIP3   OH242286   1.087   6.884   6.736  0.4814  0.4041 -0.0044
 6884TIP3    H142287   1.105   6.952   6.671  0.4201  0.1888 -0.2490
 6884TIP3    H242288   1.132   6.913   6.815 -0.2954  1.1844  0.1643
 6885TIP3   OH242289   2.654   6.683   8.045 -0.2925  0.3233 -0.4746
 6885TIP3    H142290   2.580   6.666   7.987 -0.8786  1.4035 -0.0668
 6885TIP3    H242291   2.616   6.725   8.122 -0.0455 -3.7992  2.2521
 6886TIP3   OH242292   1.432   2.788   0.740 -0.1547  0.7571 -0.1924
 6886TIP3    H142293   1.434   2.766   0.833  1.4240  1.4443 -0.0204
 6886TIP3    H242294   1.344   2.765   0.711 -0.7476  0.7461  1.5219
 6887TIP3   OH242295   0.642   5.063   7.555 -0.6766  0.5716  0.5540
 6887TIP3    H142296   0.637   5.158   7.556  0.1074  0.6468 -1.1656
 6887TIP3    H242297   0.668   5.040   7.644 -0.5236  1.9685  0.8932
 6888TIP3   OH242298   3.111   0.974   7.206  0.0839 -0.4266 -0.4482
 6888TIP3    H142299   3.078   0.893   7.168 -0.7548  0.2120 -1.1300
 6888TIP3    H242300   3.156   1.018   7.134 -0.7524  0.3837 -0.4967
 6889TIP3   OH242301   2.871   5.220   0.929 -0.1504 -0.1472  0.1310
 6889TIP3    H142302   2.822   5.302   0.931 -2.2585 -1.3283  0.1244
 6889TIP3    H242303   2.922   5.225   0.849 -0.3850  1.0748  0.0282
 6890TIP3   OH242304   4.832   4.944   7.161 -0.3828 -0.4632  0.4206
 6890TIP3    H142305   4.911   4.961   7.214 -1.5490  1.8266  1.5663
 6890TIP3    H242306   4.859   4.961   7.071  0.6386 -0.5609  0.6972
 6891TIP3   OH242307   1.471   1.863   6.785  0.0142 -0.3869  0.1071
 6891TIP3    H142308   1.445   1.955   6.775  0.1637 -0.1141  1.9308
 6891TIP3    H242309   1.543   1.852   6.723 -0.0204  0.7268 -0.1588
 6892TIP3   OH242310   0.604   2.827   1.206  0.3229  0.1605 -0.1059
 6892TIP3    H142311   0.612   2.803   1.299 -1.9281  1.3297  0.4620
 6892TIP3    H242312   0.694   2.839   1.177  1.0569  0.8747  2.2444
 6893TIP3   OH242313   2.212   0.530   1.570  0.1445  0.4746  0.6930
 6893TIP3    H142314   2.244   0.566   1.653  2.0151 -2.7047  1.5445
 6893TIP3    H242315   2.122   0.504   1.588  0.6963 -0.6786  1.9846
 6894TIP3   OH242316   6.780   1.413   8.240  0.2769  0.4206 -0.1726
 6894TIP3    H142317   6.717   1.460   8.186  1.0918  1.0081 -0.6324
 6894TIP3    H242318   6.811   1.477   8.303  0.0836  0.0062  0.3574
 6895TIP3   OH242319   3.045   6.417   7.368  0.0453  0.3646  0.2429
 6895TIP3    H142320   2.965   6.469   7.369  0.1854  0.5804  0.6121
 6895TIP3    H242321   3.037   6.358   7.443  0.9239  1.4726  1.2512
 6896TIP3   OH242322   5.171   1.806   7.959 -0.1902 -0.2646  0.1950
 6896TIP3    H142323   5.194   1.839   8.047 -0.5281 -0.9409  0.5402
 6896TIP3    H242324   5.196   1.714   7.961 -0.7324 -0.4180 -0.2315
 6897TIP3   OH242325   6.386   0.441   7.598  0.2339 -0.3538 -0.0050
 6897TIP3    H142326   6.311   0.400   7.555 -0.0103  1.6513 -1.6267
 6897TIP3    H242327   6.453   0.448   7.530  0.3548  1.6160  0.2487
 6898TIP3   OH242328   3.132   6.860   1.208 -0.7139  0.2637  0.2015
 6898TIP3    H142329   3.119   6.770   1.239  2.4430 -0.0339  0.9888
 6898TIP3    H242330   3.179   6.850   1.125  1.1304  1.1053  1.0782
 6899TIP3   OH242331   2.507   5.036   0.363  0.0199 -0.1058 -0.1631
 6899TIP3    H142332   2.461   4.953   0.375 -0.3656 -0.6179 -3.9839
 6899TIP3    H242333   2.580   5.031   0.425 -0.6633 -2.7167  0.5877
 6900TIP3   OH242334   5.303   6.799   7.710  0.2462 -0.6247  0.1251
 6900TIP3    H142335   5.374   6.766   7.654 -0.7237 -2.3026 -0.1838
 6900TIP3    H242336   5.234   6.825   7.649 -0.2195 -0.9934  0.4862
 6901TIP3   OH242337   1.513   1.731   2.243  0.1492  0.3998  0.0300
 6901TIP3    H142338   1.542   1.675   2.171 -1.1797 -1.8296  1.1420
 6901TIP3    H242339   1.421   1.709   2.255 -0.2314  2.3075  1.0404
 6902TIP3   OH242340   0.202   5.973   8.495 -0.2801  0.5989  0.5150
 6902TIP3    H142341   0.234   6.033   8.427  2.0000 -2.1057 -1.0245
 6902TIP3    H242342   0.180   5.893   8.447 -1.5997 -0.4140  2.6573
 6903TIP3   OH242343   4.297   0.082   6.764 -0.0167  0.5743  0.4053
 6903TIP3    H142344   4.374   0.133   6.738 -0.8857  3.5642  3.0181
 6903TIP3    H242345   4.228   0.147   6.775 -2.1425 -1.6262  1.0126
 6904TIP3   OH242346   0.333   0.356   0.456  0.1364 -0.0422  0.5541
 6904TIP3    H142347   0.253   0.402   0.431 -0.5353 -1.5107 -0.0912
 6904TIP3    H242348   0.390   0.363   0.379 -0.3234 -1.0269  0.1040
 6905TIP3   OH242349   3.961   0.487   2.245 -0.3001 -0.8249 -0.4919
 6905TIP3    H142350   4.028   0.447   2.300 -0.7608 -1.0318 -0.0834
 6905TIP3    H242351   3.956   0.430   2.168 -0.6418 -1.3182 -0.1125
 6906TIP3   OH242352   3.138   5.692   7.567 -0.9175 -0.3635  0.1271
 6906TIP3    H142353   3.116   5.657   7.653 -0.9732 -0.1758  0.1881
 6906TIP3    H242354   3.139   5.614   7.510 -0.2133 -0.5714  0.4242
 6907TIP3   OH242355   6.363   3.087   0.526  0.4165  0.5318 -0.0717
 6907TIP3    H142356   6.377   3.175   0.491  2.2177  0.7129  0.9765
 6907TIP3    H242357   6.432   3.034   0.484  0.3238 -0.0278  0.4679
 6908TIP3   OH242358   6.558   2.486   0.127 -0.3937 -0.1111  0.5906
 6908TIP3    H142359   6.492   2.435   0.174 -0.2632 -0.9049 -0.0830
 6908TIP3    H242360   6.563   2.569   0.176 -3.3983  0.8655 -0.5151
 6909TIP3   OH242361   1.806   3.297   8.205  0.4324 -0.3824 -0.1908
 6909TIP3    H142362   1.750   3.236   8.156  0.3852  0.6563 -1.4799
 6909TIP3    H242363   1.841   3.356   8.139 -0.2248  1.5519  1.0938
 6910TIP3   OH242364   2.530   2.781   7.215 -0.0637  0.5183  0.2528
 6910TIP3    H142365   2.504   2.818   7.131  0.2134 -0.8982 -0.5001
 6910TIP3    H242366   2.546   2.856   7.271 -0.3124  1.4953 -0.9461
 6911TIP3   OH242367   1.104   3.299   6.883  0.2227 -0.0593 -0.2595
 6911TIP3    H142368   1.159   3.306   6.961  1.5683  0.1639 -1.1998
 6911TIP3    H242369   1.148   3.352   6.817 -0.8562 -0.2883 -1.2062
 6912TIP3   OH242370   0.688   1.562   7.142  0.0022 -0.9681 -0.3085
 6912TIP3    H142371   0.622   1.500   7.173 -1.5838  1.3070  1.1009
 6912TIP3    H242372   0.739   1.584   7.220 -1.1662  1.4510 -0.1644
 6913TIP3   OH242373   4.554   3.831   0.729  0.2803  0.0740 -0.0277
 6913TIP3    H142374   4.536   3.750   0.778  1.0039 -1.1299 -1.6546
 6913TIP3    H242375   4.611   3.881   0.787 -0.6968 -0.2463  1.2878
 6914TIP3   OH242376   0.306   1.181   1.227  0.4091  0.4667  0.0423
 6914TIP3    H142377   0.246   1.240   1.182 -0.6741 -0.7822 -0.2338
 6914TIP3    H242378   0.302   1.100   1.176  1.7258  0.0891  0.4910
 6915TIP3   OH242379   2.766   2.259   1.746  0.2207  0.0086  0.1667
 6915TIP3    H142380   2.761   2.297   1.833  0.3218 -0.7632  0.5116
 6915TIP3    H242381   2.833   2.311   1.701  0.1488  0.4217  0.5321
 6916TIP3   OH242382   5.679   4.009   0.726  0.3199  0.1206 -0.0795
 6916TIP3    H142383   5.613   3.941   0.740  0.4687 -0.7632 -2.9492
 6916TIP3    H242384   5.730   4.010   0.807  1.0998 -4.1772 -0.2890
 6917TIP3   OH242385   1.193   1.774   0.229  0.2481  0.5128  0.4474
 6917TIP3    H142386   1.117   1.774   0.287  0.3606 -1.0680  0.6442
 6917TIP3    H242387   1.175   1.703   0.167  0.6262  1.4759 -0.7932
 6918TIP3   OH242388   2.751   4.193   8.552 -0.0951 -0.6083  0.5268
 6918TIP3    H142389   2.752   4.101   8.525 -0.5236  0.0823 -2.1079
 6918TIP3    H242390   2.839   4.225   8.535 -0.6793  0.1386 -1.4399
 6919TIP3   OH242391   3.110   3.188   2.262 -0.0609  0.4734 -0.1818
 6919TIP3    H142392   3.035   3.246   2.245  0.0888  1.3236  1.7785
 6919TIP3    H242393   3.090   3.148   2.346  1.4098  0.2364  0.0727
 6920TIP3   OH242394   3.334   0.913   7.703  0.3924  0.0373  0.0216
 6920TIP3    H142395   3.341   1.002   7.738  0.7706 -1.1135  3.1915
 6920TIP3    H242396   3.402   0.909   7.636  1.4457  1.6700  0.9089
 6921TIP3   OH242397   2.923   4.847   0.139 -0.5626  0.1566  0.2931
 6921TIP3    H142398   2.842   4.860   0.090 -0.4747 -0.1592  0.0617
 6921TIP3    H242399   2.905   4.771   0.194 -0.1317 -0.4560 -0.3931
 6922TIP3   OH242400   0.075   2.647   7.040  0.3044  0.5855  0.7475
 6922TIP3    H142401   0.043   2.613   7.124 -0.7209  1.4607  0.7306
 6922TIP3    H242402   0.157   2.691   7.062  0.0561  0.7864  1.3073
 6923TIP3   OH242403   2.124   3.152   0.738 -0.3118  0.6364 -0.3763
 6923TIP3    H142404   2.030   3.137   0.742 -0.4088  1.4895  1.2610
 6923TIP3    H242405   2.162   3.070   0.771 -0.4965  0.4916 -0.5219
 6924TIP3   OH242406   4.438   3.888   1.348  0.2172 -0.0013  0.0430
 6924TIP3    H142407   4.495   3.838   1.291 -0.5222 -1.0067  0.1386
 6924TIP3    H242408   4.488   3.900   1.429  0.4687 -0.4625 -0.0442
 6925TIP3   OH242409   0.306   5.826   8.199 -0.2463  0.3303 -0.3457
 6925TIP3    H142410   0.300   5.917   8.227 -0.6335  0.8003 -1.8460
 6925TIP3    H242411   0.234   5.781   8.243  1.3559  0.1486  2.3336
 6926TIP3   OH242412   6.578   2.018   7.588 -0.0278  0.9986 -0.2838
 6926TIP3    H142413   6.664   2.056   7.609  0.9656 -1.3404  0.2776
 6926TIP3    H242414   6.552   1.975   7.669 -1.0964  0.5271 -0.8664
 6927TIP3   OH242415   4.189   1.200   2.585 -0.0191  0.1885  0.2692
 6927TIP3    H142416   4.191   1.136   2.655 -1.4900 -0.6384 -0.4017
 6927TIP3    H242417   4.161   1.282   2.628  0.7094  0.1083  0.9153
 6928TIP3   OH242418   2.970   3.369   1.707 -0.2414 -0.0136  0.1161
 6928TIP3    H142419   2.898   3.337   1.654  0.1383 -1.3022  0.3509
 6928TIP3    H242420   3.049   3.335   1.665  0.0639 -1.0903  1.4829
 6929TIP3   OH242421   2.197   3.062   1.481 -0.2190 -0.6449 -0.4878
 6929TIP3    H142422   2.145   3.130   1.524 -2.2491 -2.3718 -0.0412
 6929TIP3    H242423   2.287   3.096   1.482 -1.2278  2.3849 -1.0580
 6930TIP3   OH242424   6.010   0.614   0.882  0.7739  0.0470  0.0064
 6930TIP3    H142425   5.936   0.656   0.839  0.6233  0.1300  0.3461
 6930TIP3    H242426   6.043   0.551   0.818  0.6651  0.3017 -0.2994
 6931TIP3   OH242427   3.485   2.239   0.356 -0.3657 -0.5861  0.2340
 6931TIP3    H142428   3.537   2.287   0.420 -0.5938 -1.3659  1.0198
 6931TIP3    H242429   3.537   2.241   0.276 -0.3429  0.9099  0.2646
 6932TIP3   OH242430   1.075   2.238   7.972 -0.3119  0.2433  0.1714
 6932TIP3    H142431   1.110   2.311   8.023 -0.8356  0.4148  0.2945
 6932TIP3    H242432   1.055   2.276   7.887 -0.1252  0.1276  0.0762
 6933TIP3   OH242433   6.542   2.547   1.005 -0.2638 -0.2844  0.2026
 6933TIP3    H142434   6.547   2.634   0.966 -0.1762 -0.2087  0.3821
 6933TIP3    H242435   6.494   2.560   1.087  0.3531 -0.2821  0.5736
 6934TIP3   OH242436   6.671   0.347   6.505 -0.3613 -0.5332  0.0694
 6934TIP3    H142437   6.603   0.407   6.536 -0.8729 -0.1461 -1.6688
 6934TIP3    H242438   6.752   0.397   6.512 -0.5914 -0.1429 -0.0235
 6935TIP3   OH242439   5.988   0.966   7.406  0.0830  0.3816 -0.0788
 6935TIP3    H142440   6.052   1.010   7.462 -1.3781  2.2209  0.2273
 6935TIP3    H242441   6.041   0.916   7.344  1.7745  0.6660  1.0693
 6936TIP3   OH242442   1.942   5.677   6.542 -0.0850  0.0370 -0.1786
 6936TIP3    H142443   2.010   5.682   6.476  0.8612 -2.1877  0.5432
 6936TIP3    H242444   1.958   5.595   6.588 -0.0041  1.9424  3.5739
 6937TIP3   OH242445   5.424   2.200   8.275  0.3078 -0.1712  0.8649
 6937TIP3    H142446   5.449   2.119   8.231 -1.9758  0.9486 -3.0465
 6937TIP3    H242447   5.487   2.265   8.243 -1.4459  0.6847 -1.1420
 6938TIP3   OH242448   4.054   1.690   1.203  0.0962 -0.3657 -0.1816
 6938TIP3    H142449   3.987   1.750   1.170 -0.8021 -1.1865  0.1095
 6938TIP3    H242450   4.116   1.746   1.249  1.2882  0.8088 -3.0010
 6939TIP3   OH242451   0.664   2.956   1.743 -0.4557 -0.9186 -0.5124
 6939TIP3    H142452   0.720   2.993   1.811 -0.2173  0.2903 -1.3320
 6939TIP3    H242453   0.615   2.886   1.788 -1.8347  1.1622  1.4564
 6940TIP3   OH242454   0.957   6.186   8.468 -0.3916 -0.7001  0.6649
 6940TIP3    H142455   0.967   6.158   8.377  2.0634  1.9917 -0.0724
 6940TIP3    H242456   0.986   6.278   8.467 -2.2191  0.0511  3.8350
 6941TIP3   OH242457   2.431   0.488   0.345 -0.1272  0.5155  0.5385
 6941TIP3    H142458   2.514   0.446   0.321 -0.8618 -1.5072  1.2924
 6941TIP3    H242459   2.440   0.509   0.437 -0.0993  1.2031  0.3823
 6942TIP3   OH242460   0.876   3.314   7.911 -0.0420 -0.0629 -0.0977
 6942TIP3    H142461   0.938   3.330   7.839  0.8932  1.0706  0.9282
 6942TIP3    H242462   0.911   3.237   7.956  0.5944  0.5215  0.4261
 6943TIP3   OH242463   3.943   5.522   7.574  0.1844 -0.5697 -0.4514
 6943TIP3    H142464   3.903   5.602   7.609 -2.9081 -2.1837  0.0562
 6943TIP3    H242465   3.908   5.515   7.485  0.1213 -1.5535 -0.3548
 6944TIP3   OH242466   2.389   2.607   6.456 -0.2101 -0.5593 -0.2045
 6944TIP3    H142467   2.382   2.534   6.394 -0.7020 -1.4271  0.8416
 6944TIP3    H242468   2.298   2.628   6.477 -0.0357 -1.2897  1.3737
 6945TIP3   OH242469   3.385   3.392   8.196  0.0238 -0.0470  0.2374
 6945TIP3    H142470   3.431   3.310   8.216 -1.4584 -1.2521 -0.9414
 6945TIP3    H242471   3.375   3.390   8.101 -2.5304  0.0529  0.4366
 6946TIP3   OH242472   0.043   5.981   1.330 -0.8850 -0.3003  0.6330
 6946TIP3    H142473   0.081   6.045   1.271  0.6365 -1.7778 -0.0823
 6946TIP3    H242474   0.112   5.917   1.345 -1.0110  0.1891  4.4444
 6947TIP3   OH242475   4.161   5.286   6.953  0.1987  0.3504 -0.1710
 6947TIP3    H142476   4.196   5.206   6.992  0.8398  0.2235 -0.9901
 6947TIP3    H242477   4.237   5.345   6.947 -0.6891  1.9796  2.6732
 6948TIP3   OH242478   4.019   4.563   1.171 -0.4660 -0.0330  0.0953
 6948TIP3    H142479   4.034   4.619   1.095 -0.2214  0.3535  0.4243
 6948TIP3    H242480   3.924   4.561   1.182 -0.6781 -1.9356 -1.5910
 6949TIP3   OH242481   4.126   5.924   7.811  0.1271  0.4722  0.4621
 6949TIP3    H142482   4.219   5.904   7.822  0.1100 -0.1209 -0.4225
 6949TIP3    H242483   4.122   5.976   7.731 -0.4530 -0.6876 -0.2829
 6950TIP3   OH242484   1.102   4.734   7.453 -0.0943 -0.2915 -0.2090
 6950TIP3    H142485   1.160   4.805   7.479  0.4161 -0.9740  0.5905
 6950TIP3    H242486   1.030   4.737   7.516 -0.0317 -0.5203 -0.1232
 6951TIP3   OH242487   2.714   1.182   0.355  0.1998  0.2488  0.1156
 6951TIP3    H142488   2.659   1.254   0.325 -0.4503  0.3134  1.3983
 6951TIP3    H242489   2.783   1.224   0.406 -1.0452 -0.0882  2.1713
 6952TIP3   OH242490   5.638   0.481   7.859  0.3054 -0.1004 -0.0290
 6952TIP3    H142491   5.609   0.561   7.903 -1.0770 -0.5044 -0.1370
 6952TIP3    H242492   5.558   0.444   7.822  1.1596 -0.7146 -1.3511
 6953TIP3   OH242493   3.713   1.603   0.275  0.3489 -0.1897 -0.4557
 6953TIP3    H142494   3.750   1.515   0.282  0.6317 -0.1454 -1.2931
 6953TIP3    H242495   3.789   1.659   0.258  0.4023  0.4706  1.6347
 6954TIP3   OH242496   0.202   6.696   0.128  0.1364 -0.4488 -0.6353
 6954TIP3    H142497   0.241   6.750   0.197 -1.8701 -0.4918  0.6348
 6954TIP3    H242498   0.255   6.617   0.126 -0.2907 -0.8712  1.6020
 6955TIP3   OH242499   1.204   0.116   0.855 -0.4395 -0.3572 -0.2127
 6955TIP3    H142500   1.262   0.112   0.778  0.7665  0.0268  0.6442
 6955TIP3    H242501   1.262   0.143   0.927 -1.3435 -1.5537  1.0152
 6956TIP3   OH242502   1.974   6.476   1.399  0.2649 -0.1972  0.2451
 6956TIP3    H142503   2.029   6.532   1.453  0.0702  1.1140 -0.8482
 6956TIP3    H242504   1.886   6.487   1.433  0.2487  0.0494  0.1222
 6957TIP3   OH242505   4.630   0.170   0.290  0.1608  0.4656 -0.0445
 6957TIP3    H142506   4.577   0.092   0.302 -0.3755  0.2447 -3.0755
 6957TIP3    H242507   4.623   0.217   0.373 -1.6890 -1.3832  0.9307
 6958TIP3   OH242508   1.866   6.701   1.178  0.5105 -0.4317 -0.3241
 6958TIP3    H142509   1.816   6.635   1.226  0.6572 -0.9413 -0.8628
 6958TIP3    H242510   1.943   6.654   1.145  0.7410  0.0648 -0.5027
 6959TIP3   OH242511   4.754   0.888   8.297  0.5623 -0.4119 -0.3158
 6959TIP3    H142512   4.782   0.973   8.330 -0.7845 -0.5219  1.2115
 6959TIP3    H242513   4.821   0.826   8.327  1.0434 -0.0483 -0.6207
 6960TIP3   OH242514   5.175   4.894   2.185  0.0507  0.2148 -0.2924
 6960TIP3    H142515   5.090   4.937   2.176 -0.5468 -1.0728 -0.9889
 6960TIP3    H242516   5.154   4.802   2.197  1.3449 -0.0517  0.0958
 6961TIP3   OH242517   5.037   3.025   0.441  0.6639 -0.6030  0.3209
 6961TIP3    H142518   5.069   3.085   0.508 -0.1349  0.1874  0.0194
 6961TIP3    H242519   4.945   3.012   0.462  0.2829  0.0061 -0.8470
 6962TIP3   OH242520   5.306   6.893   0.195 -0.4844 -0.6945  0.4500
 6962TIP3    H142521   5.301   6.804   0.160  0.3243 -0.6554  0.2191
 6962TIP3    H242522   5.238   6.896   0.262 -0.8458 -1.3332  0.1248
 6963TIP3   OH242523   6.931   0.476   0.298  0.0790 -0.6856 -0.5921
 6963TIP3    H142524   6.898   0.479   0.207 -2.1731 -1.5613  0.1142
 6963TIP3    H242525   6.878   0.542   0.344  2.4210  1.0436 -0.1936
 6964TIP3   OH242526   5.467   6.535   7.892 -0.4324 -0.1194 -0.2812
 6964TIP3    H142527   5.529   6.606   7.906 -1.1062  0.4233  0.0367
 6964TIP3    H242528   5.381   6.577   7.902 -0.8352 -0.9896 -0.0374
 6965TIP3   OH242529   6.386   5.634   2.267 -0.3788 -0.0069  0.4444
 6965TIP3    H142530   6.427   5.716   2.237  1.3917 -0.3680  1.7133
 6965TIP3    H242531   6.327   5.662   2.338  1.0656  0.1236  1.6554
 6966TIP3   OH242532   1.648   2.112   6.867 -0.5480 -0.3585 -0.0919
 6966TIP3    H142533   1.568   2.093   6.817 -0.5127 -1.1053  0.1186
 6966TIP3    H242534   1.697   2.173   6.811 -1.1589 -0.0655 -0.3220
 6967TIP3   OH242535   2.281   3.069   7.664  0.0978  0.6452  0.0130
 6967TIP3    H142536   2.365   3.108   7.640  1.1109  0.4921  2.9165
 6967TIP3    H242537   2.252   3.119   7.740 -2.0757  0.1584 -0.4319
 6968TIP3   OH242538   3.968   4.846   8.488 -0.7369 -0.2679 -0.0143
 6968TIP3    H142539   3.964   4.800   8.572  0.8046  0.9825  0.8001
 6968TIP3    H242540   4.031   4.797   8.437 -3.0798 -2.1927 -1.2895
 6969TIP3   OH242541   4.688   1.861   2.143  0.1180 -0.1376  0.3371
 6969TIP3    H142542   4.645   1.928   2.196 -1.5767  0.0195 -1.1102
 6969TIP3    H242543   4.776   1.896   2.127 -0.7254  1.7975 -0.4096
 6970TIP3   OH242544   2.093   4.331   1.934 -0.2413 -0.1709  0.2251
 6970TIP3    H142545   2.004   4.328   1.899 -0.6948 -0.4379  1.3866
 6970TIP3    H242546   2.098   4.415   1.980  0.6577  0.6149 -1.2171
 6971TIP3   OH242547   5.890   5.519   1.872 -0.0243  0.8920  0.5767
 6971TIP3    H142548   5.976   5.495   1.839  0.3325 -0.6950  2.4608
 6971TIP3    H242549   5.857   5.583   1.810  2.0297  0.6800 -0.8154
 6972TIP3   OH242550   4.726   4.572   2.124  0.1372 -0.5443  0.2750
 6972TIP3    H142551   4.722   4.551   2.217 -1.5573  0.0126  0.3595
 6972TIP3    H242552   4.635   4.585   2.098  0.7014  1.3229 -0.9799
 6973TIP3   OH242553   1.653   3.576   7.220 -0.6474 -0.1347  0.3470
 6973TIP3    H142554   1.716   3.597   7.150 -1.0290 -0.0632  0.0193
 6973TIP3    H242555   1.668   3.644   7.286 -0.1566 -0.3109  0.4230
 6974TIP3   OH242556   2.506   6.895   2.560  0.0226  0.2932  0.6043
 6974TIP3    H142557   2.597   6.881   2.534  0.6656  2.1775  1.6478
 6974TIP3    H242558   2.494   6.838   2.636  0.4036  0.1847  0.5883
 6975TIP3   OH242559   5.363   3.239   1.146  0.0930  0.3691 -0.1760
 6975TIP3    H142560   5.304   3.271   1.215 -0.3634 -0.5506 -0.1221
 6975TIP3    H242561   5.310   3.243   1.066  0.4202  0.8400 -0.3756
 6976TIP3   OH242562   5.839   5.472   2.165 -0.0734 -0.3225  0.2046
 6976TIP3    H142563   5.861   5.486   2.073  1.1854 -1.6473  0.2680
 6976TIP3    H242564   5.913   5.511   2.213 -1.9371  2.7626  0.8401
 6977TIP3   OH242565   1.645   0.251   0.033 -0.2199 -0.0406 -0.3318
 6977TIP3    H142566   1.728   0.203   0.035 -0.8739 -1.1844  0.3945
 6977TIP3    H242567   1.645   0.302   0.114 -1.9219 -3.1385  1.8427
 6978TIP3   OH242568   3.016   6.308   1.544 -0.1531  0.2832  0.0763
 6978TIP3    H142569   3.028   6.283   1.635 -0.5775  2.6043  0.8374
 6978TIP3    H242570   3.086   6.263   1.497 -1.4179 -2.9958  1.0613
 6979TIP3   OH242571   1.181   6.378   7.421 -0.5299  0.6612 -0.1327
 6979TIP3    H142572   1.200   6.465   7.388 -1.5208  0.7819 -0.4029
 6979TIP3    H242573   1.213   6.319   7.353  1.2672  0.7421  0.5893
 6980TIP3   OH242574   5.128   5.024   1.888  0.1141  0.2249  0.0924
 6980TIP3    H142575   5.203   5.004   1.833  0.8251 -0.6286  1.3194
 6980TIP3    H242576   5.166   5.061   1.968 -0.7636 -0.1048  0.6817
 6981TIP3   OH242577   5.068   6.262   1.030  0.1712  0.3365 -0.5851
 6981TIP3    H142578   5.154   6.264   0.988  0.3192 -0.1173 -0.3102
 6981TIP3    H242579   5.016   6.204   0.975 -0.1970  1.2156 -1.1859
 6982TIP3   OH242580   6.419   1.165   7.931  0.3120  0.4808 -0.3180
 6982TIP3    H142581   6.446   1.195   8.017  0.9524 -2.3647  0.5861
 6982TIP3    H242582   6.422   1.069   7.937  1.4206  0.1582 -3.7961
 6983TIP3   OH242583   3.560   3.601   7.162  0.3679 -0.2254 -0.1643
 6983TIP3    H142584   3.638   3.650   7.134  0.1995 -0.7009 -1.5457
 6983TIP3    H242585   3.494   3.669   7.180  0.9484  0.1594  0.5806
 6984TIP3   OH242586   6.626   5.051   1.107 -0.3626  0.0761 -0.2818
 6984TIP3    H142587   6.612   4.956   1.100  0.7086 -0.0199 -1.4671
 6984TIP3    H242588   6.572   5.088   1.037  0.5946  0.1761 -0.9862
 6985TIP3   OH242589   1.857   1.584   2.168 -0.1009  0.0242  0.3681
 6985TIP3    H142590   1.823   1.674   2.164  2.8160  1.2250 -0.0618
 6985TIP3    H242591   1.865   1.558   2.076  0.7097  0.0382  0.4273
 6986TIP3   OH242592   3.686   3.905   7.689 -0.3067  0.8434 -0.7317
 6986TIP3    H142593   3.726   3.984   7.726  1.4984 -0.3575 -0.0271
 6986TIP3    H242594   3.603   3.936   7.652  1.1489  3.4147 -2.1012
 6987TIP3   OH242595   6.089   1.714   8.432 -0.0654 -0.0081 -0.1694
 6987TIP3    H142596   6.168   1.662   8.445  0.6623  1.1102  0.0553
 6987TIP3    H242597   6.062   1.695   8.342  2.0382  1.6245 -1.2177
 6988TIP3   OH242598   1.322   1.014   8.398 -0.2105 -0.1428 -0.2275
 6988TIP3    H142599   1.330   0.995   8.491 -2.3430 -1.0175 -0.1822
 6988TIP3    H242600   1.392   1.078   8.381  0.2908 -0.0473  1.9200
 6989TIP3   OH242601   0.743   3.457   1.835 -0.2053 -0.2342 -0.4374
 6989TIP3    H142602   0.676   3.490   1.895  1.2780  0.2650  1.0478
 6989TIP3    H242603   0.764   3.532   1.779  0.8505  0.3944  0.7626
 6990TIP3   OH242604   0.513   5.810   2.281 -0.0457  0.0356  0.0227
 6990TIP3    H142605   0.529   5.720   2.253 -2.7645 -0.2432 -0.9933
 6990TIP3    H242606   0.500   5.859   2.200 -1.6411  0.6445  0.6065
 6991TIP3   OH242607   5.890   0.115   7.655 -0.4728  0.5357 -0.6234
 6991TIP3    H142608   5.920   0.027   7.679 -0.6894  0.5769 -0.1950
 6991TIP3    H242609   5.814   0.131   7.711 -0.0598  1.2440 -0.2567
 6992TIP3   OH242610   0.377   4.104   2.030  0.2161 -0.3931  0.0291
 6992TIP3    H142611   0.414   4.072   2.112 -1.7483 -0.0616  1.1016
 6992TIP3    H242612   0.320   4.033   2.000 -0.3716  0.1463 -0.1562
 6993TIP3   OH242613   3.899   6.396   1.017  0.2619  0.0457  0.6001
 6993TIP3    H142614   3.877   6.484   1.044  0.2215  0.1537  0.2190
 6993TIP3    H242615   3.865   6.340   1.087 -1.5039  0.1720 -0.1096
 6994TIP3   OH242616   1.745   0.385   0.496 -0.0508  0.8688  0.2186
 6994TIP3    H142617   1.717   0.306   0.542 -0.8829  0.1924 -1.3745
 6994TIP3    H242618   1.826   0.360   0.451 -2.0005 -0.2536 -3.0315
 6995TIP3   OH242619   3.084   1.152   0.185  0.0571 -0.3423  0.4129
 6995TIP3    H142620   3.068   1.212   0.112  0.0889 -0.0508  0.6468
 6995TIP3    H242621   3.024   1.180   0.253  0.7078 -0.0101  0.8528
 6996TIP3   OH242622   4.844   6.319   7.148  0.7417  0.5967  0.3726
 6996TIP3    H142623   4.755   6.340   7.175 -0.3634 -0.6287 -2.0258
 6996TIP3    H242624   4.848   6.347   7.056  2.2461 -0.9477 -0.0806
 6997TIP3   OH242625   5.218   5.775   1.267 -0.5647 -0.2756  0.1980
 6997TIP3    H142626   5.275   5.810   1.200 -1.8524  2.0240  0.2041
 6997TIP3    H242627   5.143   5.740   1.218 -0.8886  0.1937  0.3491
 6998TIP3   OH242628   4.200   1.346   8.397 -1.0513  0.1380 -0.4015
 6998TIP3    H142629   4.187   1.440   8.384 -1.1129  0.0285 -1.2001
 6998TIP3    H242630   4.270   1.340   8.462 -2.2906  0.7254  1.0457
 6999TIP3   OH242631   1.421   4.488   8.446  0.1413 -0.0711  1.1104
 6999TIP3    H142632   1.376   4.410   8.414  0.5541 -0.5203  1.5985
 6999TIP3    H242633   1.415   4.482   8.541  1.9899 -0.6366  1.2405
 7000TIP3   OH242634   6.730   1.669   0.764  0.1282 -0.1322 -0.0866
 7000TIP3    H142635   6.702   1.656   0.673  3.4670  0.0227 -1.3041
 7000TIP3    H242636   6.701   1.591   0.810 -0.9042 -0.6158 -1.5073
 7001TIP3   OH242637   3.832   2.798   7.427 -0.7075 -0.5208  0.1606
 7001TIP3    H142638   3.925   2.821   7.426 -0.9267  0.3821 -0.4319
 7001TIP3    H242639   3.822   2.733   7.358 -0.9465  1.2668 -1.5833
 7002TIP3   OH242640   4.522   4.202   8.022 -0.0882 -0.1583  0.2992
 7002TIP3    H142641   4.475   4.141   7.965  2.7466 -0.9658 -1.3758
 7002TIP3    H242642   4.503   4.171   8.110 -1.0727 -1.6681 -0.4027
 7003TIP3   OH242643   2.491   2.728   2.115  0.5156 -0.4580  0.1636
 7003TIP3    H142644   2.419   2.666   2.108  0.7393 -0.6216 -0.8839
 7003TIP3    H242645   2.451   2.813   2.096  0.4130 -0.4145  0.5637
 7004TIP3   OH242646   2.496   6.425   6.130  0.0877  0.2691  0.2469
 7004TIP3    H142647   2.411   6.450   6.165 -0.0416 -0.6826  0.6500
 7004TIP3    H242648   2.559   6.464   6.190 -0.0856  0.3629  0.3690
 7005TIP3   OH242649   1.267   1.796   8.355  0.0736 -0.8239 -0.1919
 7005TIP3    H142650   1.350   1.843   8.350  0.7812 -2.0009  0.2980
 7005TIP3    H242651   1.201   1.865   8.353  1.0845  0.1917  0.4064
 7006TIP3   OH242652   3.756   4.934   6.464  0.1035 -0.0319 -0.1453
 7006TIP3    H142653   3.716   4.850   6.440  0.3579  0.2466 -1.7026
 7006TIP3    H242654   3.849   4.912   6.477 -0.1356 -0.2845  1.1974
 7007TIP3   OH242655   5.910   2.165   6.997  0.4145  0.5248  0.2810
 7007TIP3    H142656   5.953   2.150   6.913 -0.1255  0.0963  0.0742
 7007TIP3    H242657   5.981   2.171   7.061  0.8071  0.5028 -0.1550
 7008TIP3   OH242658   1.960   3.558   7.070 -0.7927 -0.0726 -0.3106
 7008TIP3    H142659   1.925   3.642   7.040  0.1137  0.1243 -0.8328
 7008TIP3    H242660   2.053   3.574   7.084 -0.2024 -1.4475 -2.2481
 7009TIP3   OH242661   4.615   5.790   8.333  0.5471 -0.2258  0.4495
 7009TIP3    H142662   4.693   5.762   8.286  0.3368 -2.9427  1.5516
 7009TIP3    H242663   4.543   5.741   8.293 -1.3137  4.1990 -2.4424
 7010TIP3   OH242664   6.826   5.975   0.878  0.0021 -0.4001  0.4719
 7010TIP3    H142665   6.779   6.006   0.956  0.4936  0.5133  0.4114
 7010TIP3    H242666   6.904   5.931   0.912  0.1646 -0.0896  0.5022
 7011TIP3   OH242667   6.127   4.372   0.130  0.0688 -0.0967 -0.1292
 7011TIP3    H142668   6.147   4.280   0.144  1.7133 -0.8001 -5.0553
 7011TIP3    H242669   6.038   4.373   0.095  0.6670 -0.1098 -1.7181
 7012TIP3   OH242670   3.126   2.559   8.390 -0.2315  0.0772 -0.1661
 7012TIP3    H142671   3.114   2.507   8.470 -1.0586  0.1710 -0.2207
 7012TIP3    H242672   3.205   2.523   8.350 -0.7946 -1.1522 -0.2039
 7013TIP3   OH242673   3.056   5.678   7.110 -0.1691  0.4048  0.0039
 7013TIP3    H142674   2.968   5.715   7.108 -0.2279  0.3266  0.8183
 7013TIP3    H242675   3.110   5.742   7.063 -0.3804  1.2284  0.8542
 7014TIP3   OH242676   5.486   4.597   0.597  0.3615 -0.1502  0.6472
 7014TIP3    H142677   5.448   4.576   0.512 -0.7424 -0.9826  1.3231
 7014TIP3    H242678   5.527   4.682   0.584  0.0280 -0.1597 -0.6534
 7015TIP3   OH242679   2.007   3.247   1.566 -0.3185 -0.5761  0.2398
 7015TIP3    H142680   2.080   3.306   1.547 -0.5981 -0.6526 -1.1816
 7015TIP3    H242681   1.930   3.291   1.529 -1.2048 -0.0495  2.4984
 7016TIP3   OH242682   0.685   1.634   7.451 -0.1404 -0.2155 -0.2816
 7016TIP3    H142683   0.750   1.685   7.403 -0.6259  1.8109  1.0959
 7016TIP3    H242684   0.690   1.667   7.541  0.3431 -3.4526  1.0174
 7017TIP3   OH242685   4.728   6.919   7.264  0.2684  0.2361  0.1059
 7017TIP3    H142686   4.707   6.826   7.256 -0.5915  0.5218 -1.6062
 7017TIP3    H242687   4.651   6.958   7.304 -1.5542  0.8502 -3.5600
 7018TIP3   OH242688   4.012   1.055   1.121 -0.1968 -0.1294 -0.8110
 7018TIP3    H142689   3.966   1.016   1.046 -0.9773 -0.0951 -0.3608
 7018TIP3    H242690   4.105   1.047   1.099 -0.4211  0.4830 -2.0909
 7019TIP3   OH242691   5.079   2.916   1.219 -0.9213 -0.1540  0.1328
 7019TIP3    H142692   5.138   2.849   1.187 -0.5174  0.1086  0.3173
 7019TIP3    H242693   5.066   2.895   1.312 -1.1358 -0.2258  0.0869
 7020TIP3   OH242694   5.545   6.507   7.326  0.4797 -0.5695 -0.1791
 7020TIP3    H142695   5.533   6.421   7.284  0.4276 -0.7328  0.1671
 7020TIP3    H242696   5.476   6.562   7.288 -0.5094 -1.1135  0.7590
 7021TIP3   OH242697   2.408   6.472   8.299 -0.1513 -0.6824  0.1239
 7021TIP3    H142698   2.439   6.537   8.362  0.2372 -0.5778 -0.1747
 7021TIP3    H242699   2.487   6.441   8.255 -0.5885  0.9903 -2.0112
 7022TIP3   OH242700   6.416   0.210   6.726 -0.6547 -0.0055 -0.5817
 7022TIP3    H142701   6.458   0.289   6.694  1.0205 -0.5167  0.2116
 7022TIP3    H242702   6.488   0.146   6.733 -1.7198 -1.1814  0.0431
 7023TIP3   OH242703   1.584   4.181   1.659 -0.0904  0.1518  0.3219
 7023TIP3    H142704   1.576   4.101   1.711  0.0572 -0.6712 -0.8756
 7023TIP3    H242705   1.598   4.250   1.723  2.3478 -1.1150  1.3127
 7024TIP3   OH242706   2.821   3.430   1.017 -0.1163  0.1833  0.5127
 7024TIP3    H142707   2.819   3.462   0.927  1.5215  0.3307  0.5004
 7024TIP3    H242708   2.753   3.480   1.062 -0.1122  0.9853 -0.3566
 7025TIP3   OH242709   5.640   6.500   2.546 -0.7419  0.1473 -0.0370
 7025TIP3    H142710   5.676   6.430   2.601  0.5500  0.9378  0.1659
 7025TIP3    H242711   5.573   6.541   2.600  0.8193  1.2064  1.1716
 7026TIP3   OH242712   6.610   0.409   2.119  0.3568 -0.4687 -0.0020
 7026TIP3    H142713   6.574   0.472   2.182  1.2385 -0.8936  0.9397
 7026TIP3    H242714   6.702   0.401   2.142  0.9150 -0.0041 -1.8842
 7027TIP3   OH242715   6.504   1.872   7.856 -0.9862 -0.5758  0.3465
 7027TIP3    H142716   6.547   1.953   7.884 -2.9124  0.1955  1.2014
 7027TIP3    H242717   6.545   1.803   7.909 -0.9138  0.1567  1.2616
 7028TIP3   OH242718   6.506   3.660   0.809 -0.1571  0.1664  0.2073
 7028TIP3    H142719   6.583   3.631   0.858 -0.1732 -0.0378  0.1122
 7028TIP3    H242720   6.447   3.696   0.876 -1.0978 -2.0485  0.6465
 7029TIP3   OH242721   1.265   2.187   0.293  0.0921 -0.4539 -0.6474
 7029TIP3    H142722   1.317   2.116   0.257 -0.4169 -1.0202 -0.3070
 7029TIP3    H242723   1.260   2.252   0.223 -1.7280 -1.9556 -2.0493
 7030TIP3   OH242724   1.659   3.352   2.010 -0.0606  0.0762  0.0146
 7030TIP3    H142725   1.595   3.286   1.982  0.3271  0.0898 -0.9277
 7030TIP3    H242726   1.711   3.307   2.078  0.0662 -0.5237 -0.4681
 7031TIP3   OH242727   5.079   6.076   8.231 -0.2390  0.1957 -0.1673
 7031TIP3    H142728   5.001   6.022   8.220 -0.0231 -0.3344  0.7731
 7031TIP3    H242729   5.052   6.144   8.292  0.0028  0.0510  0.1059
 7032TIP3   OH242730   4.290   3.832   0.619 -0.0884  0.3161  0.2147
 7032TIP3    H142731   4.237   3.806   0.694 -0.2424  1.9031  0.7005
 7032TIP3    H242732   4.380   3.834   0.652 -0.3582  3.1691  1.1010
 7033TIP3   OH242733   1.502   2.545   0.007  0.9907  0.0268 -0.3920
 7033TIP3    H142734   1.578   2.487   0.005  0.3798 -0.8003  0.0526
 7033TIP3    H242735   1.518   2.602   0.082  1.0129 -0.3824 -0.0806
 7034TIP3   OH242736   1.134   5.474   7.019  0.9472  0.0367 -0.0385
 7034TIP3    H142737   1.064   5.415   7.048  2.6688 -1.1095  2.1216
 7034TIP3    H242738   1.096   5.523   6.946 -2.0775 -0.5358  1.0087
 7035TIP3   OH242739   6.707   2.971   0.963  0.4261 -0.3571 -0.0992
 7035TIP3    H142740   6.711   2.897   1.025 -1.2876  0.5354  1.1537
 7035TIP3    H242741   6.653   2.939   0.891  0.8456 -0.7644 -0.2443
 7036TIP3   OH242742   1.972   2.785   7.189 -0.5738 -0.1606  0.3359
 7036TIP3    H142743   1.985   2.700   7.231  2.7173  1.3495  2.8151
 7036TIP3    H242744   1.962   2.764   7.096 -1.7203 -3.3026  1.0411
 7037TIP3   OH242745   4.177   1.196   0.819  0.5013 -0.1856 -0.1781
 7037TIP3    H142746   4.155   1.178   0.727  0.2859 -0.3223 -0.1008
 7037TIP3    H242747   4.161   1.290   0.829  0.2104 -0.2303 -0.1976
 7038TIP3   OH242748   3.725   6.938   1.251 -0.1912 -0.1199 -0.4968
 7038TIP3    H142749   3.680   6.906   1.172 -0.3129 -1.8445  0.2384
 7038TIP3    H242750   3.770   6.862   1.286  1.5669  1.0962 -0.0018
 7039TIP3   OH242751   3.378   4.713   0.232 -0.5142  0.2423 -0.1212
 7039TIP3    H142752   3.432   4.758   0.167 -1.7037 -1.0276 -2.0904
 7039TIP3    H242753   3.321   4.781   0.267  1.9519  1.5399  1.7247
 7040TIP3   OH242754   4.710   3.346   6.091 -0.0043  0.1035 -0.3219
 7040TIP3    H142755   4.695   3.285   6.163  0.0437  0.0587 -0.3499
 7040TIP3    H242756   4.744   3.291   6.020 -0.5844  0.0551 -0.5669
 7041TIP3   OH242757   5.325   0.824   1.858 -0.0641 -0.7071 -0.4833
 7041TIP3    H142758   5.327   0.857   1.768 -1.3327  0.0296 -0.2651
 7041TIP3    H242759   5.337   0.729   1.849 -1.4373 -0.8086 -1.5493
 7042TIP3   OH242760   0.786   1.432   2.339 -0.0345 -0.2050 -0.3788
 7042TIP3    H142761   0.706   1.382   2.356  0.2159 -0.7298 -0.7182
 7042TIP3    H242762   0.857   1.371   2.355  0.2982  0.2020 -0.2759
 7043TIP3   OH242763   3.596   3.258   1.732  0.3987 -0.0618  0.1980
 7043TIP3    H142764   3.681   3.301   1.735  0.5779 -0.3943 -0.0816
 7043TIP3    H242765   3.564   3.261   1.822  0.9001 -0.3231  0.3875
 7044TIP3   OH242766   0.994   4.023   6.242  0.3365  0.0044  0.1097
 7044TIP3    H142767   0.940   4.101   6.251 -0.5254 -0.3236 -1.8418
 7044TIP3    H242768   1.084   4.055   6.245 -0.0062  1.2241 -1.6023
 7045TIP3   OH242769   5.554   3.126   2.252  0.3038  0.4075 -0.6536
 7045TIP3    H142770   5.572   3.085   2.167  2.6522 -0.2017  0.0387
 7045TIP3    H242771   5.640   3.130   2.294 -0.8683  0.1967  1.9145
 7046TIP3   OH242772   0.338   3.376   2.609 -0.0386  0.2992 -1.4394
 7046TIP3    H142773   0.353   3.414   2.695  1.3624  1.2953 -2.0810
 7046TIP3    H242774   0.253   3.412   2.581 -0.2244  0.4222 -0.7269
 7047TIP3   OH242775   4.751   2.198   0.713  0.3736 -0.5280 -0.4771
 7047TIP3    H142776   4.805   2.185   0.635 -0.7716 -0.4751 -1.2992
 7047TIP3    H242777   4.812   2.184   0.786  1.0703 -2.4504 -1.3470
 7048TIP3   OH242778   1.421   6.388   1.504 -0.2153  0.1684 -0.7121
 7048TIP3    H142779   1.476   6.342   1.441  2.4246 -0.7663  2.0895
 7048TIP3    H242780   1.334   6.350   1.492 -0.0697  0.5540 -4.1731
 7049TIP3   OH242781   3.758   3.229   1.175 -0.2196 -0.2726  0.3616
 7049TIP3    H142782   3.684   3.235   1.115 -0.5381  2.7781  0.8862
 7049TIP3    H242783   3.814   3.161   1.138 -1.4898 -0.0679 -2.1153
 7050TIP3   OH242784   2.437   4.128   0.375 -0.1233 -0.1179  0.4823
 7050TIP3    H142785   2.346   4.110   0.396  0.0068 -0.3821  0.8433
 7050TIP3    H242786   2.464   4.193   0.439  0.3778 -1.1867  1.4023
 7051TIP3   OH242787   5.266   6.580   0.714  0.2362  0.2232  0.1904
 7051TIP3    H142788   5.214   6.506   0.744  0.3157 -0.5625 -1.4719
 7051TIP3    H242789   5.330   6.541   0.654  0.7192  1.5477 -0.1936
 7052TIP3   OH242790   5.168   3.352   0.180 -1.0989 -0.2413  0.0178
 7052TIP3    H142791   5.119   3.434   0.175 -0.7523 -0.0639 -0.4917
 7052TIP3    H242792   5.258   3.378   0.198 -1.1851 -0.5708  0.9973
 7053TIP3   OH242793   2.654   2.963   7.796 -0.6158  0.2344  0.6685
 7053TIP3    H142794   2.606   3.027   7.745  0.4396  0.0377 -0.6149
 7053TIP3    H242795   2.678   2.894   7.734  2.5735  1.0075  0.8350
 7054TIP3   OH242796   3.300   0.343   1.365  0.3868  0.5067  0.1649
 7054TIP3    H142797   3.256   0.341   1.450  0.1152  0.0143  0.0164
 7054TIP3    H242798   3.251   0.281   1.311  1.0590  0.1934 -0.0962
 7055TIP3   OH242799   3.359   0.085   7.347  0.6302  0.0567  0.2210
 7055TIP3    H142800   3.388   0.026   7.276  4.2172  2.2160 -0.3838
 7055TIP3    H242801   3.311   0.029   7.407 -0.0813 -2.4879 -2.5028
 7056TIP3   OH242802   0.210   0.949   6.686 -0.6737  0.5416 -0.9012
 7056TIP3    H142803   0.251   0.913   6.607  0.0491  0.9078 -0.7041
 7056TIP3    H242804   0.198   1.042   6.666 -1.4476  0.4321 -0.9671
 7057TIP3   OH242805   2.100   5.109   2.021 -0.4027  0.0249 -0.5015
 7057TIP3    H142806   2.145   5.025   2.027  0.5373  0.4756 -0.9720
 7057TIP3    H242807   2.132   5.159   2.096 -1.5383 -0.2848  0.2146
 7058TIP3   OH242808   2.757   6.259   7.460 -0.3436  0.2611 -0.1449
 7058TIP3    H142809   2.742   6.351   7.438  2.2958  0.5962 -0.8503
 7058TIP3    H242810   2.770   6.259   7.555  2.2298  1.1177 -0.4211
 7059TIP3   OH242811   5.628   4.629   6.160 -0.2648 -0.4162  0.6762
 7059TIP3    H142812   5.647   4.578   6.239  0.1462 -0.9483  0.2471
 7059TIP3    H242813   5.681   4.708   6.169 -2.0068  0.6628  2.0339
 7060TIP3   OH242814   1.631   3.591   6.604 -0.5559  0.3069  0.1421
 7060TIP3    H142815   1.596   3.605   6.516  0.7026 -0.8774 -0.5746
 7060TIP3    H242816   1.675   3.507   6.599 -0.8676 -0.0059  2.0566
 7061TIP3   OH242817   0.261   6.481   7.306 -0.0522 -0.4976  0.4318
 7061TIP3    H142818   0.297   6.548   7.364 -0.0001 -1.6838  1.8246
 7061TIP3    H242819   0.178   6.456   7.347 -0.6505 -0.4527 -0.7114
 7062TIP3   OH242820   6.078   1.169   1.297  0.5940 -0.1055  0.2628
 7062TIP3    H142821   6.023   1.098   1.264 -0.2898  1.9479 -3.2940
 7062TIP3    H242822   6.023   1.214   1.361 -0.7681  0.0646 -0.9487
 7063TIP3   OH242823   0.852   1.927   1.232 -0.7500 -0.2512 -0.2827
 7063TIP3    H142824   0.844   1.920   1.137 -2.1179 -0.0968 -0.1966
 7063TIP3    H242825   0.928   1.874   1.254  0.7684  1.2731 -1.6467
 7064TIP3   OH242826   3.177   6.358   1.232 -0.7584 -0.0690  0.3777
 7064TIP3    H142827   3.209   6.314   1.312  0.0915  1.9792  1.2293
 7064TIP3    H242828   3.242   6.335   1.165 -0.4598 -0.3053  0.7393
 7065TIP3   OH242829   2.014   5.423   8.110  0.1707  0.0226 -0.2308
 7065TIP3    H142830   1.922   5.394   8.107 -0.2616  1.4161 -1.6445
 7065TIP3    H242831   2.010   5.510   8.149  1.0597 -0.3913  0.8284
 7066TIP3   OH242832   0.993   6.009   1.352 -0.1327  0.1289  0.2874
 7066TIP3    H142833   0.974   5.973   1.265 -3.1169  0.4466  0.7077
 7066TIP3    H242834   1.087   5.996   1.363  0.4441  0.4159 -3.1347
 7067TIP3   OH242835   0.900   0.282   7.175  0.7582 -0.0876  0.0155
 7067TIP3    H142836   0.900   0.325   7.090  1.6262 -0.9634 -0.4336
 7067TIP3    H242837   0.926   0.192   7.157 -1.6863 -1.0335  0.8412
 7068TIP3   OH242838   6.880   1.935   1.338 -0.0989 -0.1812  0.2762
 7068TIP3    H142839   6.922   1.917   1.423 -0.2480  0.6472  0.5418
 7068TIP3    H242840   6.843   2.023   1.349  2.9320  1.5220 -1.7868
 7069TIP3   OH242841   2.793   3.261   1.500  0.5812 -0.2639  0.1885
 7069TIP3    H142842   2.698   3.259   1.491  0.6019  1.5418 -1.0545
 7069TIP3    H242843   2.824   3.190   1.444 -0.0272 -1.5684  1.4401
 7070TIP3   OH242844   0.443   3.558   1.894 -0.0680  0.6210  0.0438
 7070TIP3    H142845   0.452   3.594   1.806 -0.5792  1.6944  0.4167
 7070TIP3    H242846   0.357   3.516   1.894  0.9933 -1.7543 -0.7572
 7071TIP3   OH242847   2.814   0.036   2.552  0.1749 -0.3049 -0.2848
 7071TIP3    H142848   2.870  -0.041   2.565  0.7263  0.1871  0.3153
 7071TIP3    H242849   2.842   0.097   2.620  1.5082  1.4262 -2.2497
 7072TIP3   OH242850   6.842   1.741   7.519 -0.3345  0.4661  0.3693
 7072TIP3    H142851   6.818   1.817   7.466  0.6137 -0.0449 -0.8236
 7072TIP3    H242852   6.936   1.733   7.509 -0.3942 -0.7358  0.6604
 7073TIP3   OH242853   1.787   1.826   6.903 -0.0841  0.3571 -0.6602
 7073TIP3    H142854   1.843   1.877   6.846 -1.0784  0.7729 -1.2794
 7073TIP3    H242855   1.711   1.882   6.920  1.2215  1.2848  3.0799
 7074TIP3   OH242856   4.776   5.955   0.004 -0.3666  0.6725 -0.0367
 7074TIP3    H142857   4.840   5.887   0.028 -1.9406 -0.6745  0.5725
 7074TIP3    H242858   4.767   5.947  -0.091 -0.5365  0.0091  0.0309
 7075TIP3   OH242859   1.624   3.856   8.370 -0.1129 -0.4168  0.5238
 7075TIP3    H142860   1.612   3.918   8.442  0.7486 -0.1804  0.4740
 7075TIP3    H242861   1.634   3.910   8.292 -3.0700 -0.7038 -0.1405
 7076TIP3   OH242862   5.892   0.407   7.911  0.0821  0.0267  0.2026
 7076TIP3    H142863   5.810   0.457   7.918 -1.0180 -1.8652  3.3266
 7076TIP3    H242864   5.934   0.418   7.997  2.4365 -0.2252 -0.8338
 7077TIP3   OH242865   0.179   2.251   0.971 -0.3527 -0.0446 -0.2128
 7077TIP3    H142866   0.127   2.265   0.892 -0.0839  1.5500 -0.1438
 7077TIP3    H242867   0.120   2.272   1.043  0.0064  0.5816 -0.0891
 7078TIP3   OH242868   1.590   6.351   1.302 -0.6979 -0.3752 -0.2785
 7078TIP3    H142869   1.681   6.322   1.300 -0.8621 -0.9547  0.4113
 7078TIP3    H242870   1.547   6.300   1.233 -1.0400 -2.0160  1.0936
 7079TIP3   OH242871   4.316   2.823   1.193  0.2933 -0.1931  0.2828
 7079TIP3    H142872   4.335   2.759   1.261  1.1310 -0.2235  0.0266
 7079TIP3    H242873   4.233   2.863   1.221 -0.5794 -1.8216  0.1020
 7080TIP3   OH242874   3.673   4.281   2.156  0.8155  0.6065  0.0198
 7080TIP3    H142875   3.588   4.320   2.179  0.8880  1.8955 -1.7061
 7080TIP3    H242876   3.671   4.193   2.194 -0.6428  1.1762  1.3555
 7081TIP3   OH242877   3.532   0.552   6.244 -0.3931  0.2211  0.2761
 7081TIP3    H142878   3.568   0.467   6.270 -1.8458 -0.2794  0.7653
 7081TIP3    H242879   3.590   0.583   6.174 -0.6832 -1.8804 -0.9790
 7082TIP3   OH242880   6.207   4.607   7.690  0.7713 -0.3929 -0.0567
 7082TIP3    H142881   6.220   4.517   7.661  0.6833 -0.7407  0.9352
 7082TIP3    H242882   6.162   4.599   7.774 -2.3572  0.6535 -1.4825
 7083TIP3   OH242883   1.891   3.574   2.121  0.2522 -0.2642  0.1435
 7083TIP3    H142884   1.967   3.569   2.178  0.4690 -0.6969 -0.1741
 7083TIP3    H242885   1.848   3.489   2.132  0.1526 -0.2514 -0.1350
 7084TIP3   OH242886   4.757   5.009   1.300 -0.1044 -0.6434 -0.2623
 7084TIP3    H142887   4.781   4.924   1.337 -0.3033 -0.1549  1.0213
 7084TIP3    H242888   4.718   4.988   1.215  2.5587 -1.6363 -1.3691
 7085TIP3   OH242889   0.411   5.204   6.834 -0.1281 -0.1272 -0.1931
 7085TIP3    H142890   0.486   5.162   6.877 -0.3825 -0.7491 -0.3564
 7085TIP3    H242891   0.446   5.288   6.803  0.6123 -0.5947 -0.6417
 7086TIP3   OH242892   3.403   5.611   1.702  0.6600  0.3654  0.0639
 7086TIP3    H142893   3.409   5.640   1.611 -1.7022  1.7824  0.2987
 7086TIP3    H242894   3.429   5.519   1.699  0.3269  0.2989 -2.0960
 7087TIP3   OH242895   4.475   5.990   6.579 -0.1538  0.1403  0.0730
 7087TIP3    H142896   4.521   6.032   6.652  0.6364 -0.9205  0.2072
 7087TIP3    H242897   4.424   6.060   6.540 -0.6727  0.7185  1.7046
 7088TIP3   OH242898   6.690   0.185   0.047  0.0296 -0.1856 -0.3798
 7088TIP3    H142899   6.777   0.144   0.051  0.3082  0.4502  0.3150
 7088TIP3    H242900   6.662   0.172  -0.044  0.1396 -1.8210 -0.1932
 7089TIP3   OH242901   1.556   5.993   0.182  0.2023  0.0314  0.1753
 7089TIP3    H142902   1.631   6.041   0.217  0.1405 -0.4617  1.0130
 7089TIP3    H242903   1.596   5.923   0.130  0.3602 -0.6372  1.1605
 7090TIP3   OH242904   2.661   5.816   0.819  0.2479  0.2502 -0.4649
 7090TIP3    H142905   2.714   5.895   0.830 -0.9827  0.9567  0.6243
 7090TIP3    H242906   2.691   5.779   0.735  2.0314  0.9189 -0.1727
 7091TIP3   OH242907   5.087   4.267   8.442 -0.4709 -0.0336  0.3116
 7091TIP3    H142908   4.995   4.292   8.435  0.1149  2.0573 -0.3823
 7091TIP3    H242909   5.126   4.295   8.360  0.8321 -0.8277  0.6286
 7092TIP3   OH242910   2.997   5.342   1.322 -1.0118 -0.2403  0.6906
 7092TIP3    H142911   3.075   5.302   1.360  0.9915  1.6687 -1.1498
 7092TIP3    H242912   2.992   5.307   1.233 -0.7994  1.4514 -0.0206
 7093TIP3   OH242913   6.753   3.330   0.361 -0.2833  0.4618 -0.4905
 7093TIP3    H142914   6.810   3.276   0.416 -0.8897  1.6001  1.3803
 7093TIP3    H242915   6.799   3.413   0.353 -0.2284  0.3290 -1.7247
 7094TIP3   OH242916   4.098   0.708   7.334 -0.1620  0.3902 -0.1919
 7094TIP3    H142917   4.105   0.731   7.427  0.0724  0.2796 -0.1812
 7094TIP3    H242918   4.171   0.753   7.292  0.3356 -0.3683 -0.1610
 7095TIP3   OH242919   6.143   5.434   1.751 -0.0290  0.5291  0.1507
 7095TIP3    H142920   6.114   5.344   1.764 -1.9240  1.1677  0.6894
 7095TIP3    H242921   6.229   5.437   1.792 -0.0121 -0.9881  0.2820
 7096TIP3   OH242922   1.065   6.929   7.719  0.8346  0.5010 -0.0337
 7096TIP3    H142923   1.057   6.890   7.806 -0.7188  0.3493 -0.2016
 7096TIP3    H242924   1.106   6.861   7.665  0.3607 -0.0065  0.2308
 7097TIP3   OH242925   4.234   4.034   1.480  0.1845  0.0199  0.3096
 7097TIP3    H142926   4.194   3.956   1.518 -0.5537 -0.0703 -0.6484
 7097TIP3    H242927   4.292   4.001   1.412 -0.0380  0.2989 -0.0180
 7098TIP3   OH242928   4.523   0.811   0.764 -0.5031  0.7509  1.0658
 7098TIP3    H142929   4.460   0.742   0.744  2.1555 -0.9566 -2.7615
 7098TIP3    H242930   4.479   0.892   0.739 -1.4793 -0.3013 -0.8539
 7099TIP3   OH242931   1.494   0.528   8.567  0.6105  0.0419 -0.1653
 7099TIP3    H142932   1.511   0.503   8.658  0.4597  1.3474  0.2489
 7099TIP3    H242933   1.408   0.490   8.547  1.1240 -1.1695 -0.1388
 7100TIP3   OH242934   5.944   0.694   7.730  0.1096  0.4531 -0.2120
 7100TIP3    H142935   6.037   0.669   7.725 -0.0781 -0.2356 -0.4593
 7100TIP3    H242936   5.932   0.723   7.820 -0.1293 -2.4761  0.8156
 7101TIP3   OH242937   5.460   2.851   1.113 -0.1254  0.0069  0.0798
 7101TIP3    H142938   5.545   2.879   1.077 -0.4668  1.5178  0.3633
 7101TIP3    H242939   5.454   2.896   1.197 -1.1477 -0.1916  0.1238
 7102TIP3   OH242940   4.451   4.784   1.678  0.2814  0.2329  0.7218
 7102TIP3    H142941   4.431   4.705   1.627  0.7480  0.4974  0.1156
 7102TIP3    H242942   4.536   4.765   1.718  1.1640  1.0494 -0.7279
 7103TIP3   OH242943   6.909   4.863   8.403  0.4023  0.2136  0.0564
 7103TIP3    H142944   6.895   4.957   8.392  0.6972  0.3077  0.4975
 7103TIP3    H242945   6.840   4.836   8.464  1.6651  0.5512  1.6832
 7104TIP3   OH242946   5.758   3.794   2.708  0.4413 -0.2453 -0.4758
 7104TIP3    H142947   5.851   3.810   2.693  0.1133  1.8333 -0.7143
 7104TIP3    H242948   5.735   3.724   2.647  1.7510 -0.5019 -0.7041
 7105TIP3   OH242949   6.661   3.129   1.685 -0.1666  0.4990  0.0504
 7105TIP3    H142950   6.656   3.039   1.717 -3.5286 -0.8148 -3.4795
 7105TIP3    H242951   6.749   3.159   1.711  2.9047 -5.2358 -2.1228
 7106TIP3   OH242952   0.335   5.356   0.496  0.0548 -0.1472 -0.4284
 7106TIP3    H142953   0.350   5.272   0.453  2.0644 -0.0754  0.0162
 7106TIP3    H242954   0.414   5.407   0.478 -0.9650  1.5474 -0.4044
 7107TIP3   OH242955   5.426   4.834   0.896 -0.0212 -0.2175  0.1294
 7107TIP3    H142956   5.444   4.907   0.955 -0.6072 -1.0583  1.3712
 7107TIP3    H242957   5.381   4.875   0.822 -0.7389  0.6389  1.0096
 7108TIP3   OH242958   4.799   6.505   1.531  0.1488  0.4157  0.3400
 7108TIP3    H142959   4.716   6.553   1.532 -0.4257 -0.5098 -0.5966
 7108TIP3    H242960   4.781   6.427   1.478  0.9778 -0.9654  1.9823
 7109TIP3   OH242961   4.527   6.662   1.157 -0.0991  0.0635 -0.8040
 7109TIP3    H142962   4.526   6.750   1.195 -0.5845 -1.2353  2.5287
 7109TIP3    H242963   4.607   6.622   1.190 -0.8256 -1.3540 -0.6575
 7110TIP3   OH242964   0.602   2.128   1.067  0.3820 -0.0384  0.1351
 7110TIP3    H142965   0.652   2.046   1.060 -1.6883 -1.3927  0.4800
 7110TIP3    H242966   0.587   2.139   1.161 -2.0186 -0.9933 -0.0939
 7111TIP3   OH242967   6.290   2.394   0.983  0.1261 -0.3677 -0.0723
 7111TIP3    H142968   6.231   2.319   0.992 -0.6031  0.1617 -0.3087
 7111TIP3    H242969   6.378   2.356   0.983 -0.2547 -1.3037 -0.9767
 7112TIP3   OH242970   2.688   6.752   2.732 -0.2688  0.1361 -0.2765
 7112TIP3    H142971   2.780   6.772   2.747 -0.2043  0.1866 -0.7426
 7112TIP3    H242972   2.688   6.662   2.700 -0.3572  0.2274 -0.5377
 7113TIP3   OH242973   6.237   4.516   6.986  0.2102  0.3290  0.3547
 7113TIP3    H142974   6.219   4.609   6.994  2.0197  0.6347  1.2335
 7113TIP3    H242975   6.265   4.505   6.895  0.7134  0.7663  0.4593
 7114TIP3   OH242976   1.244   3.843   1.714  0.2545  0.1555 -0.3094
 7114TIP3    H142977   1.308   3.822   1.646  2.2157  1.6912  0.9210
 7114TIP3    H242978   1.170   3.881   1.667 -0.1894 -2.3736 -1.8498
 7115TIP3   OH242979   1.724   3.493   2.616  0.2325 -0.2104 -0.3810
 7115TIP3    H142980   1.800   3.538   2.579  0.2727  0.2157  0.2180
 7115TIP3    H242981   1.652   3.555   2.604 -0.2290 -0.9734 -1.7842
 7116TIP3   OH242982   4.491   6.341   2.259 -0.4016 -0.0624  0.5995
 7116TIP3    H142983   4.556   6.376   2.319  0.9088 -1.3060 -0.0231
 7116TIP3    H242984   4.456   6.417   2.213  0.5805  0.6404  1.0025
 7117TIP3   OH242985   6.730   0.229   7.373 -0.1770  0.4272 -0.0011
 7117TIP3    H142986   6.813   0.185   7.357 -0.1596 -0.2858  1.7931
 7117TIP3    H242987   6.685   0.228   7.288  0.6161 -1.4123 -0.4470
 7118TIP3   OH242988   6.150   6.663   7.630 -0.3067  0.4555  0.1367
 7118TIP3    H142989   6.157   6.569   7.649 -1.5125  0.5893  1.4311
 7118TIP3    H242990   6.231   6.701   7.663 -1.0078  0.2166  2.2917
 7119TIP3   OH242991   3.917   6.296   0.621 -0.3632  0.3297  0.2390
 7119TIP3    H142992   3.888   6.384   0.646  1.3050  1.3417 -1.1285
 7119TIP3    H242993   3.986   6.274   0.685 -1.8721 -0.7250  1.5683
 7120TIP3   OH242994   5.360   4.869   1.234  0.1734  0.2177  0.5605
 7120TIP3    H142995   5.446   4.859   1.276  0.9356 -0.6358 -1.1287
 7120TIP3    H242996   5.360   4.960   1.204  0.7419  0.0647  0.0685
 7121TIP3   OH242997   4.299   5.096   7.095 -0.2767 -0.6016  0.5268
 7121TIP3    H142998   4.367   5.082   7.030 -0.1215  0.5541  0.4297
 7121TIP3    H242999   4.266   5.008   7.114  0.4336 -1.0567 -0.2826
 7122TIP3   OH243000   0.652   4.021   1.125 -0.3270 -0.5076 -0.2019
 7122TIP3    H143001   0.679   4.027   1.033 -1.7566  0.3926 -0.5858
 7122TIP3    H243002   0.711   4.081   1.170 -1.7176  1.6657 -1.0771
 7123TIP3   OH243003   5.164   5.883   1.778 -0.0279 -0.1333  0.2869
 7123TIP3    H143004   5.136   5.904   1.689 -1.8254 -1.8176  0.3915
 7123TIP3    H243005   5.149   5.964   1.828 -2.0572 -0.0778 -0.3117
 7124TIP3   OH243006   1.537   6.102   8.254  0.2702 -0.4585 -0.2992
 7124TIP3    H143007   1.572   6.180   8.212 -0.1244 -2.0421 -3.9170
 7124TIP3    H243008   1.442   6.114   8.253  0.1965 -1.0180 -1.0489
 7125TIP3   OH243009   1.974   1.436   0.136 -0.5258 -0.4762 -0.1019
 7125TIP3    H143010   1.972   1.376   0.210  1.8098 -3.0248 -1.9091
 7125TIP3    H243011   1.969   1.380   0.059  1.6631  1.6197 -1.9465
 7126TIP3   OH243012   0.552   2.185   6.788  0.4137  0.4098 -0.0163
 7126TIP3    H143013   0.523   2.132   6.862 -1.1738  0.2281 -0.7094
 7126TIP3    H243014   0.564   2.122   6.717  2.6700  0.4832  0.2502
 7127TIP3   OH243015   5.278   3.915   7.364  0.0276  0.0054 -0.2600
 7127TIP3    H143016   5.211   3.961   7.314 -1.2869  1.2981  2.4904
 7127TIP3    H243017   5.274   3.825   7.331 -2.9836  0.0613 -0.3293
 7128TIP3   OH243018   6.241   0.723   1.243 -0.7961 -0.2647  0.0423
 7128TIP3    H143019   6.324   0.677   1.262 -0.3929 -0.2703 -1.6104
 7128TIP3    H243020   6.246   0.743   1.150 -2.3349  0.4341  0.0941
 7129TIP3   OH243021   2.890   3.218   7.125 -0.1180  0.5547  0.7078
 7129TIP3    H143022   2.913   3.244   7.036 -0.7415 -0.8171  0.1056
 7129TIP3    H243023   2.863   3.300   7.168 -1.8097  0.9839 -1.0138
 7130TIP3   OH243024   5.640   0.204   0.873  0.4300  0.4829 -0.0896
 7130TIP3    H143025   5.560   0.190   0.924 -0.3521  2.0668 -0.8120
 7130TIP3    H243026   5.624   0.157   0.791  0.7369 -0.1577  0.2101
 7131TIP3   OH243027   4.610   3.901   1.891  0.5250 -0.4541  0.2681
 7131TIP3    H143028   4.538   3.945   1.846 -0.4071 -2.3564 -0.2172
 7131TIP3    H243029   4.585   3.902   1.984  0.6440  0.2631  0.2919
 7132TIP3   OH243030   1.424   6.910   1.188  0.4868  0.5744 -0.3050
 7132TIP3    H143031   1.422   6.970   1.114 -1.6462 -0.4299 -1.1383
 7132TIP3    H243032   1.369   6.953   1.254 -0.6539 -0.2080 -0.7258
 7133TIP3   OH243033   4.899   6.021   7.763 -0.0433 -0.3601 -0.0354
 7133TIP3    H143034   4.924   6.103   7.807  1.0910 -1.1586  0.8512
 7133TIP3    H243035   4.944   6.026   7.678 -0.4813  0.2003 -0.2444
 7134TIP3   OH243036   1.521   4.779   7.645 -0.2096 -0.2301  0.0238
 7134TIP3    H143037   1.517   4.684   7.654  2.7810 -0.2927  1.8925
 7134TIP3    H243038   1.512   4.812   7.734  0.8600  1.1145 -0.3406
 7135TIP3   OH243039   6.705   2.261   0.043  0.1386  0.0064  0.4920
 7135TIP3    H143040   6.655   2.332   0.082 -0.9359 -1.1432  1.2967
 7135TIP3    H243041   6.792   2.297   0.029 -0.1159  1.1757  1.7687
 7136TIP3   OH243042   2.376   1.304   2.215 -0.0041 -0.3990 -0.7689
 7136TIP3    H143043   2.422   1.224   2.192  1.7709  0.8884 -2.0302
 7136TIP3    H243044   2.287   1.276   2.238  1.0690 -2.9077  0.7839
 7137TIP3   OH243045   3.435   6.073   7.606  0.0678 -0.0541 -0.6925
 7137TIP3    H143046   3.465   6.134   7.538 -0.5595  0.5185 -0.4693
 7137TIP3    H243047   3.408   6.130   7.678  0.9107 -0.6639  0.1214
 7138TIP3   OH243048   1.658   1.642   8.425  0.1738 -0.2150  0.3219
 7138TIP3    H143049   1.680   1.561   8.472 -1.0926 -0.8602 -0.1710
 7138TIP3    H243050   1.624   1.613   8.341  0.3249  0.8671 -0.1340
 7139TIP3   OH243051   4.306   4.369   7.962  0.7190  0.0014  0.2753
 7139TIP3    H143052   4.300   4.375   7.866 -1.8020  1.6500  0.4306
 7139TIP3    H243053   4.385   4.318   7.978  1.1889 -0.3872 -2.6806
 7140TIP3   OH243054   0.747   6.530   0.962  0.0547 -0.0724 -0.0802
 7140TIP3    H143055   0.745   6.618   0.923  1.0017  0.8700  1.8634
 7140TIP3    H243056   0.719   6.472   0.891  0.1953  1.6976 -1.6708
 7141TIP3   OH243057   0.305   1.490   8.309 -0.2892  0.0031  0.4237
 7141TIP3    H143058   0.334   1.423   8.372 -0.6323  0.2810  0.8841
 7141TIP3    H243059   0.373   1.557   8.314  0.1627 -0.3956 -0.1901
 7142TIP3   OH243060   2.848   0.484   1.417 -0.3658 -0.2083  0.5236
 7142TIP3    H143061   2.872   0.392   1.406  0.6401 -0.2764  2.8240
 7142TIP3    H243062   2.930   0.532   1.404 -0.8562  0.3914 -0.5140
 7143TIP3   OH243063   6.242   6.277   1.777  0.8246  0.7465 -0.2225
 7143TIP3    H143064   6.265   6.190   1.809  0.6499  0.2626 -1.3644
 7143TIP3    H243065   6.323   6.328   1.786  0.9208  0.4852  0.4679
 7144TIP3   OH243066   5.593   4.844   1.370 -0.0114  0.9732 -0.0946
 7144TIP3    H143067   5.625   4.758   1.397 -0.1702  1.5749  2.1878
 7144TIP3    H243068   5.651   4.906   1.414 -3.0327  2.0722  2.6889
 7145TIP3   OH243069   6.862   4.649   7.850 -0.4111 -0.0458  0.1163
 7145TIP3    H143070   6.897   4.576   7.800 -0.8721 -2.6471  3.2405
 7145TIP3    H243071   6.939   4.695   7.883  0.1295 -2.2834  2.2363
 7146TIP3   OH243072   3.185   0.782   7.022  0.7079  0.3995 -0.6532
 7146TIP3    H143073   3.116   0.763   6.958 -0.0385  0.2221  0.1899
 7146TIP3    H243074   3.232   0.856   6.984 -0.3706  0.9687 -0.9320
 7147TIP3   OH243075   1.928   6.694   1.977  0.3281  0.0329  0.1326
 7147TIP3    H143076   1.946   6.788   1.984 -0.2487  0.1050  0.7349
 7147TIP3    H243077   1.952   6.659   2.063  0.1738 -0.3053  0.0393
 7148TIP3   OH243078   4.361   3.014   2.387 -0.2225  0.1749 -0.3236
 7148TIP3    H143079   4.378   2.927   2.423 -2.6278  0.4487  1.7322
 7148TIP3    H243080   4.297   3.000   2.317 -0.3638  0.2535 -0.2114
 7149TIP3   OH243081   4.382   3.455   2.123 -0.2696 -0.2293 -0.4842
 7149TIP3    H143082   4.429   3.429   2.043 -2.5841  0.6807 -2.2536
 7149TIP3    H243083   4.368   3.373   2.170 -0.0621 -1.0121 -1.7313
 7150TIP3   OH243084   6.127   4.933   8.014 -0.2091  0.9228  0.1829
 7150TIP3    H143085   6.037   4.929   7.980  0.1174 -0.7331 -0.6190
 7150TIP3    H243086   6.180   4.892   7.945  0.6506 -1.5127  2.1203
 7151TIP3   OH243087   2.664   3.649   1.935 -0.3984 -0.4524 -0.2434
 7151TIP3    H143088   2.648   3.631   2.028 -1.0150 -1.2927 -0.5089
 7151TIP3    H243089   2.653   3.565   1.891 -1.9438  0.2630 -1.3250
 7152TIP3   OH243090   2.088   0.746   0.437 -0.2894 -0.2065 -0.7465
 7152TIP3    H143091   2.079   0.650   0.437  1.7488 -0.4418 -0.8743
 7152TIP3    H243092   2.063   0.771   0.348 -2.4943 -0.3652 -0.2475
 7153TIP3   OH243093   4.897   1.145   1.418 -0.0826 -0.0090  0.1483
 7153TIP3    H143094   4.892   1.209   1.346  0.9893 -0.9115 -0.7619
 7153TIP3    H243095   4.866   1.063   1.379 -2.8379  0.1741  1.6883
 7154TIP3   OH243096   0.030   3.429   8.157  0.9846 -0.1660 -0.4410
 7154TIP3    H143097   0.098   3.372   8.193 -1.2144 -1.3857  2.1180
 7154TIP3    H243098   0.042   3.512   8.202  1.5958  0.0760 -1.0336
 7155TIP3   OH243099   6.277   3.369   0.778 -0.5640  0.0363 -0.3997
 7155TIP3    H143100   6.320   3.364   0.693 -0.2173 -0.9735 -0.1847
 7155TIP3    H243101   6.209   3.436   0.767 -2.5599 -2.1249 -2.4076
 7156TIP3   OH243102   5.532   0.834   8.368  0.3971  0.2545 -0.0186
 7156TIP3    H143103   5.505   0.811   8.457  0.8654 -0.3476 -0.0283
 7156TIP3    H243104   5.505   0.760   8.315  0.1294  0.6071 -0.3855
 7157TIP3   OH243105   5.697   0.848   2.179  0.1071 -0.1090  0.4928
 7157TIP3    H143106   5.642   0.782   2.221 -1.6194  1.1293  0.2806
 7157TIP3    H243107   5.780   0.844   2.226 -0.9467 -0.4223  2.4074
 7158TIP3   OH243108   6.702   1.665   7.894 -0.1163 -0.3845 -0.3763
 7158TIP3    H143109   6.702   1.632   7.984 -0.0964  0.2791 -0.1306
 7158TIP3    H243110   6.754   1.745   7.898 -1.3398  0.4442 -0.6819
 7159TIP3   OH243111   5.984   0.332   0.300  0.0059  0.2418 -0.4495
 7159TIP3    H143112   5.896   0.334   0.338 -0.0740  0.0742 -0.6224
 7159TIP3    H243113   5.993   0.243   0.265 -0.2299  0.6264 -1.5469
 7160TIP3   OH243114   2.277   0.153   0.398 -0.4059 -0.0490 -0.1335
 7160TIP3    H143115   2.245   0.225   0.343  1.7919  0.8153 -0.3699
 7160TIP3    H243116   2.277   0.189   0.486  3.2700  1.3961 -0.5291
 7161TIP3   OH243117   5.841   4.800   6.263 -0.1698  0.1387  0.1268
 7161TIP3    H143118   5.898   4.874   6.285 -0.4552  0.3534  0.1606
 7161TIP3    H243119   5.897   4.723   6.272  0.3883  0.4215 -0.8280
 7162TIP3   OH243120   4.800   0.903   0.049  0.7527  0.1663  0.9553
 7162TIP3    H143121   4.820   0.929   0.139 -0.3723 -0.6903  1.4848
 7162TIP3    H243122   4.884   0.877   0.012  1.5413  2.2249  1.1385
 7163TIP3   OH243123   0.268   2.525   8.387  0.3073  0.3337 -0.3137
 7163TIP3    H143124   0.196   2.533   8.450  0.2169 -0.1541 -0.3502
 7163TIP3    H243125   0.344   2.500   8.440 -0.3800 -2.9748 -0.6738
 7164TIP3   OH243126   5.962   2.765   6.222  0.1037  0.3803 -0.0348
 7164TIP3    H143127   5.944   2.702   6.291  1.2192  1.2491  1.0898
 7164TIP3    H243128   5.962   2.713   6.141 -3.1995 -0.3217  0.3116
 7165TIP3   OH243129   5.451   2.932   7.081  0.0956  0.3077  0.0026
 7165TIP3    H143130   5.361   2.951   7.053  0.4814  0.9387 -0.8609
 7165TIP3    H243131   5.471   2.848   7.041 -0.0593  0.2379  0.0706
 7166TIP3   OH243132   6.471   5.586   8.436 -0.9076  0.1024  0.2229
 7166TIP3    H143133   6.390   5.556   8.393 -1.5173  0.5234  1.0582
 7166TIP3    H243134   6.537   5.583   8.366 -1.9892  1.3413 -0.9164
 7167TIP3   OH243135   6.906   4.879   1.512 -0.2443  0.2853  0.5684
 7167TIP3    H143136   6.986   4.923   1.542 -0.8307  0.4518  1.9314
 7167TIP3    H243137   6.838   4.909   1.572 -0.8261 -1.8838  1.0637
 7168TIP3   OH243138   2.817   1.030   0.152 -0.1551 -0.2758  0.0905
 7168TIP3    H143139   2.726   1.003   0.137 -0.6781  1.4333 -0.0350
 7168TIP3    H243140   2.811   1.093   0.224  0.4907  2.1442 -1.8498
 7169TIP3   OH243141   5.479   1.554   0.558  0.2337  0.3544  0.5806
 7169TIP3    H143142   5.404   1.612   0.570 -0.9614 -1.1018  0.4088
 7169TIP3    H243143   5.546   1.590   0.615 -0.9377  1.1233  1.5179
 7170TIP3   OH243144   4.252   1.872   7.891 -0.4008 -0.3273  0.2245
 7170TIP3    H143145   4.344   1.899   7.891 -0.5940  0.3669  0.9120
 7170TIP3    H243146   4.211   1.927   7.824 -0.6997  0.8086  1.2998
 7171TIP3   OH243147   6.299   0.531   8.114  0.9156  0.3514  0.2395
 7171TIP3    H143148   6.382   0.502   8.150  0.7277 -1.0976 -0.3999
 7171TIP3    H243149   6.307   0.516   8.020 -0.1169  0.0061  0.1890
 7172TIP3   OH243150   6.361   3.036   7.070 -0.2890 -0.0070 -0.4997
 7172TIP3    H143151   6.327   2.988   7.146  3.5060 -0.2160  1.2910
 7172TIP3    H243152   6.326   2.989   6.994 -2.6932 -0.9645  1.0871
 7173TIP3   OH243153   3.188   4.385   1.857 -0.3117 -0.4088 -0.8298
 7173TIP3    H143154   3.200   4.399   1.951  0.8066  0.9673 -1.1449
 7173TIP3    H243155   3.113   4.440   1.835  1.2318  1.6492 -1.2269
 7174TIP3   OH243156   1.407   5.175   7.030 -0.2002 -0.0398  0.0741
 7174TIP3    H143157   1.362   5.201   7.110  0.7177  0.4666  0.4409
 7174TIP3    H243158   1.412   5.079   7.036  0.5271  0.0401  1.0015
 7175TIP3   OH243159   0.909   6.816   0.361  0.2251 -0.2056  0.6419
 7175TIP3    H143160   0.866   6.767   0.431 -0.4598  1.3421  1.3412
 7175TIP3    H243161   0.886   6.907   0.377 -0.7751  0.1240 -2.1543
 7176TIP3   OH243162   4.614   1.768   7.348  0.5225 -0.0008 -0.4868
 7176TIP3    H143163   4.595   1.793   7.439 -2.3993  2.4681 -1.5860
 7176TIP3    H243164   4.545   1.706   7.325  1.7875 -1.3383 -0.8080
 7177LIG     O143165   5.438   3.863   1.723  0.2618  0.0670  0.0693
 7177LIG     O243166   5.355   3.556   2.055  0.3942 -0.0829 -0.4959
 7177LIG     N143167   5.338   3.771   2.120  0.0310 -0.4909  0.3161
 7177LIG     N243168   5.389   4.075   1.942  0.4579 -0.3834  0.6050
 7177LIG     N343169   5.403   3.709   1.890  0.8078 -0.4672  0.2904
 7177LIG     N443170   5.331   4.015   2.155  0.3940 -0.1960 -0.1221
 7177LIG     C143171   5.378   3.937   1.942 -0.7639 -0.1888 -0.2297
 7177LIG     C243172   5.350   3.905   2.079  0.1073  0.1125  0.2739
 7177LIG     C343173   5.407   3.838   1.843 -0.3769  0.4141  0.4728
 7177LIG     C443174   5.364   3.675   2.026 -0.2275  0.1958  0.2221
 7177LIG     C543175   5.348   4.115   2.069 -0.3469 -0.0081  0.4837
 7177LIG     C643176   5.312   3.731   2.258  0.7109 -0.1802 -1.0355
 7177LIG     C743177   5.421   4.150   1.820  0.2352 -0.0476 -0.6429
 7177LIG     C843178   5.426   3.601   1.798  0.1536 -0.1644  0.5233
 7177LIG     H143179   5.338   4.220   2.094 -0.5450  0.0918  0.0071
 7177LIG     H243180   5.408   3.704   2.307 -0.0022 -2.7115 -0.8640
 7177LIG     H343181   5.246   3.642   2.263  0.1229  0.2485 -1.0250
 7177LIG     H443182   5.266   3.809   2.323  1.1578 -0.9918  0.2913
 7177LIG     H543183   5.510   4.120   1.761  0.8509  1.7900 -0.7108
 7177LIG     H643184   5.450   4.252   1.854 -2.1135  0.0991  1.2372
 7177LIG     H743185   5.331   4.157   1.755 -0.0931 -2.0377 -0.4736
 7177LIG     H843186   5.436   3.503   1.849  1.8315 -0.7656 -0.8623
 7177LIG     H943187   5.511   3.623   1.731 -1.8367 -1.7706 -2.8025
 7177LIG    H1043188   5.338   3.599   1.730  0.8278  1.6539 -0.4697
   6.93860   6.93860   8.57214
