Title
43170
    1CHL1    C3    1   6.065   4.205   6.365 -0.0634 -0.5969  0.6112
    1CHL1    H3    2   6.142   4.128   6.389 -0.0023 -0.4203  0.9800
    1CHL1    O3    3   6.042   4.283   6.479  0.6946  0.3374  0.6891
    1CHL1   H3'    4   6.040   4.221   6.552  1.7678  2.2626  2.4632
    1CHL1    C4    5   6.120   4.288   6.249  0.6400  0.5076 -0.5049
    1CHL1   H4A    6   6.066   4.385   6.241  0.9465  0.8200  0.8901
    1CHL1   H4B    7   6.221   4.326   6.275 -0.7669  3.3527  1.3487
    1CHL1    C5    8   6.123   4.224   6.115 -0.6938 -0.2426  0.8241
    1CHL1    C6    9   6.231   4.240   6.033 -0.5639  0.2025  0.2711
    1CHL1    H6   10   6.307   4.315   6.059  0.3614 -0.4683 -0.4706
    1CHL1    C7   11   6.243   4.179   5.896  0.4453 -0.2856 -0.0313
    1CHL1   H7A   12   6.285   4.250   5.822 -0.5900 -1.7023 -2.0716
    1CHL1   H7B   13   6.315   4.094   5.904  0.4313 -0.3315 -0.3929
    1CHL1    C8   14   6.113   4.124   5.837 -0.4263  0.2086 -0.3908
    1CHL1    H8   15   6.055   4.216   5.816 -0.3157  0.3437 -0.1125
    1CHL1   C14   16   6.145   4.024   5.718  0.5686 -0.1123 -1.2948
    1CHL1   H14   17   6.209   3.945   5.763  0.3851  0.1091 -0.6314
    1CHL1   C15   18   6.233   4.071   5.603 -0.1488 -0.6576  0.3168
    1CHL1  H15A   19   6.200   4.169   5.563  1.2553  0.1280  0.9612
    1CHL1  H15B   20   6.341   4.082   5.630 -0.4001 -0.6054  1.3330
    1CHL1   C16   21   6.208   3.959   5.499  0.4950 -0.6664 -0.7644
    1CHL1  H16A   22   6.169   4.001   5.404  0.5026  0.5126 -0.2656
    1CHL1  H16B   23   6.305   3.906   5.491  0.2557 -1.1840 -0.2823
    1CHL1   C17   24   6.104   3.859   5.566 -0.8409  0.0268  0.1332
    1CHL1   H17   25   6.168   3.785   5.619 -0.8823  0.7335  1.2079
    1CHL1   C13   26   6.029   3.944   5.669 -0.0719 -0.6264 -0.0657
    1CHL1   C18   27   5.943   4.051   5.593 -0.2883 -0.3266  0.4950
    1CHL1  H18A   28   5.908   4.126   5.667 -1.5250 -1.5391  1.1773
    1CHL1  H18B   29   5.996   4.086   5.502 -0.8942  0.4683  0.4414
    1CHL1  H18C   30   5.851   3.999   5.560 -0.1000 -2.1501  2.5912
    1CHL1   C12   31   5.948   3.874   5.779 -0.3058 -0.7837 -0.0928
    1CHL1  H12A   32   5.851   3.832   5.744 -1.3059 -0.1902  1.8331
    1CHL1  H12B   33   6.020   3.797   5.812  0.6665 -0.4569 -1.3638
    1CHL1   C11   34   5.916   3.958   5.902  0.0043  0.1263 -0.2410
    1CHL1  H11A   35   5.825   4.015   5.873 -0.6113 -1.3308 -1.3113
    1CHL1  H11B   36   5.883   3.885   5.978  1.3277 -1.3189 -0.9879
    1CHL1    C9   37   6.036   4.045   5.946  0.7197 -0.2384 -0.8984
    1CHL1    H9   38   6.101   3.962   5.981 -0.1231  0.0805  1.6391
    1CHL1   C10   39   6.008   4.131   6.070  0.0573 -0.5065 -0.0787
    1CHL1   C19   40   5.897   4.234   6.030  0.7247  0.2812  0.3673
    1CHL1  H19A   41   5.905   4.302   5.942 -1.5456 -0.5905 -0.5765
    1CHL1  H19B   42   5.806   4.171   6.017  0.3466  0.7456  0.7567
    1CHL1  H19C   43   5.867   4.300   6.114 -0.8379 -0.0620  0.0944
    1CHL1    C1   44   5.969   4.044   6.197 -0.0420  0.2082 -0.5851
    1CHL1   H1A   45   5.878   3.983   6.179 -0.4229  0.8364 -0.8218
    1CHL1   H1B   46   6.054   3.975   6.214  0.0774  0.6200  0.6354
    1CHL1    C2   47   5.945   4.125   6.322 -0.3776 -0.0065 -0.1229
    1CHL1   H2A   48   5.921   4.049   6.399 -1.7295 -0.4161 -0.9126
    1CHL1   H2B   49   5.850   4.181   6.317 -1.1250 -1.1391  0.8175
    1CHL1   C20   50   6.031   3.783   5.457  0.6024  0.0028 -0.2826
    1CHL1   H20   51   5.950   3.852   5.425  2.5246  2.7107  0.2352
    1CHL1   C21   52   5.973   3.657   5.522 -0.3835  0.1891  0.5223
    1CHL1  H21A   53   6.057   3.587   5.544  0.1410  1.1455  1.6584
    1CHL1  H21B   54   5.896   3.609   5.458  1.3006 -1.7692 -0.1740
    1CHL1  H21C   55   5.922   3.686   5.616 -0.0698  2.7312 -0.0113
    1CHL1   C22   56   6.112   3.745   5.328  0.2822 -0.3477 -0.6955
    1CHL1  H22A   57   6.121   3.842   5.273 -0.7395 -0.0829 -0.4220
    1CHL1  H22B   58   6.212   3.707   5.355  0.9363 -0.5235 -3.0900
    1CHL1   C23   59   6.047   3.646   5.221  0.3446 -0.2850 -0.3576
    1CHL1  H23A   60   6.008   3.551   5.265 -0.1515  0.3317  0.5721
    1CHL1  H23B   61   5.958   3.703   5.185 -1.9076 -1.1842  3.2202
    1CHL1   C24   62   6.145   3.621   5.099  0.0725 -0.0721 -0.4739
    1CHL1  H24A   63   6.202   3.712   5.070  2.3952 -0.8272  1.3988
    1CHL1  H24B   64   6.221   3.543   5.119  1.6077  1.4203 -0.2713
    1CHL1   C25   65   6.054   3.585   4.983  0.6016  0.3798 -0.6309
    1CHL1   H25   66   5.977   3.664   4.972 -0.9381 -0.7218  1.3603
    1CHL1   C26   67   6.134   3.578   4.857 -0.0516  0.9295 -0.3860
    1CHL1  H26A   68   6.202   3.492   4.840  0.2804  1.5596 -2.6787
    1CHL1  H26B   69   6.058   3.580   4.775 -1.7582  1.3104  1.1390
    1CHL1  H26C   70   6.201   3.666   4.855 -1.9632  2.4843  0.2794
    1CHL1   C27   71   5.965   3.460   4.995 -0.1553  0.9075  0.4353
    1CHL1  H27A   72   5.896   3.461   5.082 -0.1446  2.0820  0.4395
    1CHL1  H27B   73   5.903   3.443   4.905 -0.1153  1.8987  0.2145
    1CHL1  H27C   74   6.030   3.373   5.021 -0.9192 -0.1860 -1.1443
    2CHL1    C3   75   2.375   4.184   6.372  0.2290  0.3137 -0.5646
    2CHL1    H3   76   2.387   4.073   6.368  0.7067  0.3299  0.2068
    2CHL1    O3   77   2.388   4.215   6.513 -0.2546  0.0416 -0.7054
    2CHL1   H3'   78   2.372   4.309   6.520  0.1539  0.1044 -0.5867
    2CHL1    C4   79   2.495   4.250   6.307 -0.7298 -0.1927  0.0405
    2CHL1   H4A   80   2.489   4.358   6.329  0.7328 -0.4746  2.1575
    2CHL1   H4B   81   2.590   4.212   6.352 -1.1938  1.4117  2.6050
    2CHL1    C5   82   2.485   4.223   6.154 -0.0505 -0.8457 -0.3665
    2CHL1    C6   83   2.587   4.182   6.086 -0.3103  0.3782 -0.3569
    2CHL1    H6   84   2.676   4.161   6.148 -0.3629 -0.9502 -0.6991
    2CHL1    C7   85   2.587   4.166   5.932 -0.2084 -0.5396 -1.2653
    2CHL1   H7A   86   2.684   4.193   5.886  1.1598  1.2999  2.2760
    2CHL1   H7B   87   2.571   4.057   5.915  1.9025 -0.9199 -1.1084
    2CHL1    C8   88   2.475   4.229   5.854 -0.5283 -1.3432 -0.2229
    2CHL1    H8   89   2.489   4.339   5.844 -3.5567 -0.7446  1.1289
    2CHL1   C14   90   2.459   4.166   5.722 -0.3059 -0.2726 -0.1332
    2CHL1   H14   91   2.425   4.060   5.726 -1.6858  0.1715  0.6937
    2CHL1   C15   92   2.577   4.168   5.626 -0.1667 -0.3052 -0.0283
    2CHL1  H15A   93   2.629   4.266   5.627  0.4365 -0.6229  1.3899
    2CHL1  H15B   94   2.647   4.092   5.666 -0.0519 -0.4559 -0.5145
    2CHL1   C16   95   2.523   4.146   5.480 -0.1610 -0.5320 -0.1913
    2CHL1  H16A   96   2.556   4.237   5.425  1.0862  0.7135  2.4042
    2CHL1  H16B   97   2.564   4.053   5.434  1.1980 -1.2398  2.2412
    2CHL1   C17   98   2.365   4.148   5.505 -0.1811  0.5376  0.0169
    2CHL1   H17   99   2.331   4.047   5.535  1.9779  0.0533  1.0440
    2CHL1   C13  100   2.343   4.227   5.639 -0.0900  0.2623  0.6161
    2CHL1   C18  101   2.369   4.382   5.604 -0.0714 -0.5049  0.0858
    2CHL1  H18A  102   2.271   4.418   5.568  0.5308  1.4445  0.2402
    2CHL1  H18B  103   2.393   4.449   5.690 -0.7940 -0.0940 -0.0260
    2CHL1  H18C  104   2.445   4.397   5.525  0.3667  0.7183  0.7097
    2CHL1   C12  105   2.210   4.210   5.721 -0.1234 -0.7767  0.0132
    2CHL1  H12A  106   2.126   4.262   5.669  0.5905  1.0867  0.6186
    2CHL1  H12B  107   2.190   4.101   5.720 -0.4728 -0.7119 -0.3490
    2CHL1   C11  108   2.221   4.261   5.862 -0.0772 -0.1972 -0.5421
    2CHL1  H11A  109   2.219   4.372   5.862 -0.2235 -0.1886 -1.5673
    2CHL1  H11B  110   2.129   4.218   5.907 -0.8073 -0.3097 -2.0807
    2CHL1    C9  111   2.343   4.207   5.941  0.4271  0.2168 -0.0663
    2CHL1    H9  112   2.328   4.098   5.957 -2.1708  0.4332 -0.7025
    2CHL1   C10  113   2.351   4.258   6.087 -0.5328 -0.2456 -0.5973
    2CHL1   C19  114   2.342   4.416   6.090 -0.5258  0.0034 -0.5540
    2CHL1  H19A  115   2.244   4.457   6.057 -1.3022 -1.8200 -0.6327
    2CHL1  H19B  116   2.354   4.452   6.194 -0.7509  0.3192 -0.6344
    2CHL1  H19C  117   2.416   4.445   6.011  0.1479 -2.5672 -0.9439
    2CHL1    C1  118   2.237   4.200   6.168 -0.5485  0.3139  0.2381
    2CHL1   H1A  119   2.145   4.238   6.119  0.5128  2.0047 -0.5177
    2CHL1   H1B  120   2.237   4.089   6.171  1.4399  0.2978  1.3897
    2CHL1    C2  121   2.242   4.230   6.316  0.4139 -0.5979 -0.7508
    2CHL1   H2A  122   2.160   4.199   6.384 -0.2677  1.3887 -0.5956
    2CHL1   H2B  123   2.231   4.341   6.317  2.0385 -0.3820 -2.1820
    2CHL1   C20  124   2.279   4.188   5.382  0.4057  0.0429 -0.3124
    2CHL1   H20  125   2.314   4.290   5.354  2.4851 -0.2632  0.9587
    2CHL1   C21  126   2.131   4.183   5.423  0.0404  0.6147 -0.3057
    2CHL1  H21A  127   2.115   4.106   5.502  0.0483 -0.0693 -0.9587
    2CHL1  H21B  128   2.062   4.174   5.337 -0.1480  1.5901 -0.2658
    2CHL1  H21C  129   2.112   4.279   5.476  1.5602  0.7096  0.1145
    2CHL1   C22  130   2.305   4.098   5.262  0.1101 -0.1527  0.5047
    2CHL1  H22A  131   2.416   4.088   5.256  0.1308 -0.4312  1.2270
    2CHL1  H22B  132   2.263   3.999   5.288  1.7572 -1.2773 -0.8775
    2CHL1   C23  133   2.265   4.164   5.130 -0.0084 -0.2448 -0.2074
    2CHL1  H23A  134   2.160   4.200   5.128 -0.5097 -1.6517 -0.3108
    2CHL1  H23B  135   2.324   4.257   5.111 -0.7561  0.1579 -0.6189
    2CHL1   C24  136   2.286   4.075   5.006 -0.0784 -0.0427  0.1224
    2CHL1  H24A  137   2.388   4.033   5.005 -0.8127 -1.8958 -1.0258
    2CHL1  H24B  138   2.209   3.995   5.007  0.0063 -0.1344 -0.6974
    2CHL1   C25  139   2.272   4.156   4.872 -0.1645 -0.4713  0.5742
    2CHL1   H25  140   2.338   4.244   4.876 -1.5202  0.8149 -2.5678
    2CHL1   C26  141   2.345   4.072   4.757  0.8954 -0.2002 -0.0427
    2CHL1  H26A  142   2.439   4.031   4.798  1.2398  0.8009  0.2154
    2CHL1  H26B  143   2.274   3.996   4.719  1.8932 -1.5996  0.8333
    2CHL1  H26C  144   2.355   4.125   4.660 -0.6949  0.7606  0.2664
    2CHL1   C27  145   2.127   4.195   4.843  0.3411 -0.3085 -0.3001
    2CHL1  H27A  146   2.119   4.269   4.761 -2.2779  0.4103  0.5082
    2CHL1  H27B  147   2.066   4.109   4.808 -1.8381  0.8566  0.4134
    2CHL1  H27C  148   2.085   4.235   4.938  0.6433  0.3833 -0.4572
    3CHL1    C3  149   0.807   4.171   6.616  0.4057 -0.6529  0.8470
    3CHL1    H3  150   0.769   4.268   6.578  0.4462 -0.5795  0.9943
    3CHL1    O3  151   0.810   4.170   6.758  0.3370  0.4875 -0.0427
    3CHL1   H3'  152   0.867   4.096   6.780  0.1952  0.1447 -0.7833
    3CHL1    C4  153   0.718   4.057   6.571  0.5624  0.4515 -0.7045
    3CHL1   H4A  154   0.729   3.954   6.613 -2.3441 -0.0336 -0.8862
    3CHL1   H4B  155   0.616   4.091   6.599  1.0694  1.6522 -0.2664
    3CHL1    C5  156   0.727   4.032   6.422  0.0102 -0.5835  0.3442
    3CHL1    C6  157   0.610   4.028   6.354 -0.1729  0.2692  0.8787
    3CHL1    H6  158   0.515   4.060   6.399  1.8158  2.3543  3.9530
    3CHL1    C7  159   0.618   4.004   6.204  0.3594  0.2835 -0.4983
    3CHL1   H7A  160   0.532   3.943   6.172  1.4066 -0.3806 -2.1934
    3CHL1   H7B  161   0.611   4.109   6.168 -0.8432  0.9151  1.4286
    3CHL1    C8  162   0.747   3.937   6.149 -0.2414 -0.5399  0.8884
    3CHL1    H8  163   0.771   3.832   6.175 -0.2879 -0.6186  0.6223
    3CHL1   C14  164   0.744   3.951   5.995  0.0448 -0.0879  1.3920
    3CHL1   H14  165   0.741   4.061   5.979  0.1548 -0.1579  0.8856
    3CHL1   C15  166   0.623   3.903   5.912  0.0826 -0.4947  0.6342
    3CHL1  H15A  167   0.592   3.813   5.968  1.7539 -1.0170  0.7845
    3CHL1  H15B  168   0.547   3.983   5.907  1.8840  1.3137  0.9546
    3CHL1   C16  169   0.675   3.870   5.772 -0.2742 -0.7726 -0.4909
    3CHL1  H16A  170   0.673   3.763   5.743  1.3741 -0.4939 -1.7770
    3CHL1  H16B  171   0.614   3.910   5.688 -0.6793 -0.8521 -0.2402
    3CHL1   C17  172   0.821   3.925   5.774 -0.2569  0.7304  0.1548
    3CHL1   H17  173   0.818   4.035   5.763  1.1817  0.8148  0.4452
    3CHL1   C13  174   0.867   3.906   5.925  0.5903  0.7263  0.5231
    3CHL1   C18  175   0.888   3.751   5.958  0.0585 -0.4625  0.9002
    3CHL1  H18A  176   0.968   3.712   5.893  0.1266 -0.3666  0.9268
    3CHL1  H18B  177   0.922   3.746   6.064 -3.9521  0.7532  2.4423
    3CHL1  H18C  178   0.793   3.696   5.940 -0.7859  1.3083 -0.2922
    3CHL1   C12  179   0.986   3.988   5.984 -0.5417  0.4184  0.6893
    3CHL1  H12A  180   1.078   3.939   5.945 -0.0464  1.3181  0.6940
    3CHL1  H12B  181   0.987   4.094   5.950 -1.8436  0.4792  0.8011
    3CHL1   C11  182   0.995   3.983   6.136 -0.9211  0.4964  0.2793
    3CHL1  H11A  183   1.052   3.894   6.173  1.3577  1.0455 -1.6628
    3CHL1  H11B  184   1.057   4.072   6.160 -0.5521  0.4889 -0.6208
    3CHL1    C9  185   0.860   4.018   6.206  0.1681 -0.2084  0.1369
    3CHL1    H9  186   0.840   4.122   6.172  1.3722 -0.2706 -0.8387
    3CHL1   C10  187   0.869   4.014   6.366 -0.4627 -0.3616  0.3416
    3CHL1   C19  188   0.936   3.877   6.420 -0.6021 -0.0751 -0.5511
    3CHL1  H19A  189   0.873   3.789   6.391  1.8196 -1.8457 -0.7889
    3CHL1  H19B  190   1.038   3.874   6.377 -0.5665  1.3314 -0.5898
    3CHL1  H19C  191   0.944   3.885   6.530  0.5794  0.4254 -0.6594
    3CHL1    C1  192   0.959   4.131   6.417 -0.1621  0.8304  0.5174
    3CHL1   H1A  193   1.061   4.090   6.400 -1.0651 -1.4421  0.1331
    3CHL1   H1B  194   0.941   4.223   6.358  0.1080 -1.3132 -3.2014
    3CHL1    C2  195   0.958   4.154   6.568  0.4265 -0.5728 -0.5104
    3CHL1   H2A  196   1.010   4.248   6.596  2.7103 -2.3218  1.4710
    3CHL1   H2B  197   1.004   4.068   6.620 -1.6408  0.3649  3.2166
    3CHL1   C20  198   0.912   3.876   5.660 -0.4370 -0.0310 -1.3670
    3CHL1   H20  199   0.944   3.774   5.690  2.7783  0.6733 -2.0338
    3CHL1   C21  200   1.039   3.965   5.657  0.0071  0.3118 -0.5209
    3CHL1  H21A  201   1.100   3.932   5.570 -0.6501 -0.9829 -0.5039
    3CHL1  H21B  202   1.094   3.964   5.754 -1.6709  0.7402  0.4626
    3CHL1  H21C  203   1.008   4.071   5.647  2.0824  0.8474 -2.0841
    3CHL1   C22  204   0.847   3.859   5.524 -0.7941  0.0389  0.3439
    3CHL1  H22A  205   0.929   3.824   5.457 -0.0305  0.8805  0.8221
    3CHL1  H22B  206   0.763   3.786   5.521 -0.3327 -0.5276  0.9575
    3CHL1   C23  207   0.798   3.992   5.461 -0.0913 -0.0408 -0.1610
    3CHL1  H23A  208   0.728   4.037   5.534 -0.1252 -1.9300  1.0289
    3CHL1  H23B  209   0.889   4.053   5.442  1.5023 -2.6657 -1.6914
    3CHL1   C24  210   0.730   3.977   5.324 -0.3554 -0.3115  1.5895
    3CHL1  H24A  211   0.789   3.945   5.236  0.0956  0.8218  1.4588
    3CHL1  H24B  212   0.642   3.910   5.329 -0.6655  0.1308  2.1680
    3CHL1   C25  213   0.667   4.109   5.269  0.6676  0.9636  0.0029
    3CHL1   H25  214   0.737   4.194   5.281  3.9117 -1.6684  1.0215
    3CHL1   C26  215   0.623   4.086   5.126  0.4374 -0.0818 -0.2127
    3CHL1  H26A  216   0.556   3.999   5.111  1.5602 -0.8647 -0.8685
    3CHL1  H26B  217   0.575   4.178   5.087 -1.2961 -0.1529  1.5600
    3CHL1  H26C  218   0.710   4.059   5.063  1.0744 -1.5872  1.2300
    3CHL1   C27  219   0.547   4.163   5.350  1.0737  0.1428 -0.5069
    3CHL1  H27A  220   0.578   4.197   5.451 -0.3474 -0.1634  0.0554
    3CHL1  H27B  221   0.486   4.243   5.304  2.2983  2.9951  2.4075
    3CHL1  H27C  222   0.473   4.086   5.383  1.2955  0.2077  0.1561
    4CHL1    C3  223   1.285   3.794   6.604  0.5588 -0.5650  0.3143
    4CHL1    H3  224   1.186   3.836   6.578  1.1369  1.5380  1.2830
    4CHL1    O3  225   1.303   3.792   6.745  1.2202  0.2092  0.3489
    4CHL1   H3'  226   1.281   3.882   6.769  0.1572  0.0080  0.1904
    4CHL1    C4  227   1.293   3.651   6.554 -0.5206 -0.7534 -0.5071
    4CHL1   H4A  228   1.395   3.615   6.580 -0.0166  1.2204  0.3865
    4CHL1   H4B  229   1.213   3.595   6.608 -3.4645  1.1444 -2.5817
    4CHL1    C5  230   1.271   3.629   6.408  0.2837 -0.1740 -0.5771
    4CHL1    C6  231   1.191   3.538   6.355 -0.1861  0.0514  0.0626
    4CHL1    H6  232   1.133   3.473   6.422  0.2413  1.2613  1.6449
    4CHL1    C7  233   1.177   3.522   6.209  0.3730 -0.2216  0.2528
    4CHL1   H7A  234   1.163   3.415   6.182  1.4481 -1.0331  2.6191
    4CHL1   H7B  235   1.081   3.568   6.176  0.7303  0.4247  0.1149
    4CHL1    C8  236   1.297   3.583   6.129  0.4010 -0.4551 -0.1216
    4CHL1    H8  237   1.385   3.518   6.144 -0.0358 -0.6537  1.8949
    4CHL1   C14  238   1.258   3.595   5.978 -0.4934  0.1037 -0.4984
    4CHL1   H14  239   1.181   3.675   5.976 -0.9624 -0.3301 -2.6988
    4CHL1   C15  240   1.182   3.484   5.910 -0.5132  0.1191  0.1154
    4CHL1  H15A  241   1.219   3.383   5.938 -0.5697  0.3966  1.2648
    4CHL1  H15B  242   1.072   3.496   5.907 -0.7503 -1.5511  0.9366
    4CHL1   C16  243   1.218   3.504   5.760 -0.2507 -0.1643 -0.0820
    4CHL1  H16A  244   1.287   3.422   5.732 -0.1374 -0.2962  0.5585
    4CHL1  H16B  245   1.128   3.501   5.695 -0.6515 -1.7724  0.5056
    4CHL1   C17  246   1.290   3.637   5.749  0.4741 -0.4809 -0.8469
    4CHL1   H17  247   1.212   3.715   5.743 -1.4284 -2.0908  1.3347
    4CHL1   C13  248   1.366   3.651   5.886 -0.1111  0.2365  0.2739
    4CHL1   C18  249   1.488   3.558   5.884 -0.5594 -0.7660 -0.9260
    4CHL1  H18A  250   1.454   3.457   5.854 -0.4648 -0.9559 -0.4029
    4CHL1  H18B  251   1.568   3.587   5.812  1.4286 -3.4843  0.0127
    4CHL1  H18C  252   1.526   3.557   5.988  0.2391  2.1939 -1.0853
    4CHL1   C12  253   1.399   3.793   5.938 -0.0406  0.0053  0.0076
    4CHL1  H12A  254   1.478   3.843   5.878  1.4401  0.8009  2.4889
    4CHL1  H12B  255   1.313   3.860   5.917  1.3405  1.7561 -0.2744
    4CHL1   C11  256   1.440   3.793   6.084 -0.0901  0.0532 -0.3894
    4CHL1  H11A  257   1.535   3.736   6.096 -0.6218 -0.9347 -0.8896
    4CHL1  H11B  258   1.439   3.900   6.117  0.3131  0.1021 -0.5233
    4CHL1    C9  259   1.338   3.722   6.176 -0.0139 -0.0043  0.3859
    4CHL1    H9  260   1.245   3.781   6.167 -0.3678 -0.6618 -0.4756
    4CHL1   C10  261   1.376   3.717   6.332  0.4797 -0.4806 -0.4997
    4CHL1   C19  262   1.518   3.650   6.353 -0.3719  0.6583  0.5473
    4CHL1  H19A  263   1.602   3.695   6.297 -0.0016  0.7360  1.1644
    4CHL1  H19B  264   1.544   3.643   6.461  0.5421 -2.6216  0.2330
    4CHL1  H19C  265   1.508   3.543   6.323 -0.7268  1.1334 -1.1812
    4CHL1    C1  266   1.382   3.863   6.382  0.0013  0.4319 -0.4667
    4CHL1   H1A  267   1.459   3.925   6.331  0.8903 -1.1531 -1.1254
    4CHL1   H1B  268   1.280   3.901   6.362 -1.6832 -1.7910  2.9186
    4CHL1    C2  269   1.400   3.873   6.536 -0.7409 -0.4040  0.7264
    4CHL1   H2A  270   1.404   3.981   6.561 -3.4411 -0.4064  1.5569
    4CHL1   H2B  271   1.502   3.835   6.557  0.2128  1.9461  0.6995
    4CHL1   C20  272   1.375   3.644   5.620  0.2441 -0.0258  0.2152
    4CHL1   H20  273   1.459   3.572   5.617 -0.1104 -0.4461 -2.5943
    4CHL1   C21  274   1.428   3.787   5.608 -0.5791 -1.0487  0.7784
    4CHL1  H21A  275   1.480   3.801   5.511  1.5962 -1.8442  1.7688
    4CHL1  H21B  276   1.512   3.800   5.679 -0.7910  2.7324  0.5236
    4CHL1  H21C  277   1.355   3.868   5.624  0.6661  0.0961  0.8169
    4CHL1   C22  278   1.281   3.605   5.490 -0.8269  0.1624 -0.1229
    4CHL1  H22A  279   1.248   3.500   5.504 -2.6038  0.4921 -1.4692
    4CHL1  H22B  280   1.197   3.678   5.499 -0.3363  1.1402 -2.6774
    4CHL1   C23  281   1.361   3.608   5.358 -0.4026  0.1326 -0.0371
    4CHL1  H23A  282   1.293   3.574   5.276 -0.7682  2.3632 -0.7406
    4CHL1  H23B  283   1.392   3.714   5.344  1.7778 -0.2932  1.1661
    4CHL1   C24  284   1.487   3.515   5.364  0.3529 -0.2140 -0.5711
    4CHL1  H24A  285   1.562   3.518   5.446  0.8150 -2.3579 -0.8561
    4CHL1  H24B  286   1.446   3.414   5.386  0.2744  0.3788  2.4764
    4CHL1   C25  287   1.557   3.498   5.228 -0.7614 -0.3638 -0.4820
    4CHL1   H25  288   1.481   3.511   5.148 -1.6464 -0.9678  0.2422
    4CHL1   C26  289   1.670   3.613   5.221  0.0092 -0.0021  0.5933
    4CHL1  H26A  290   1.749   3.579   5.151 -0.4620  1.1246 -0.5331
    4CHL1  H26B  291   1.621   3.701   5.173  0.7584 -0.8362 -1.8893
    4CHL1  H26C  292   1.716   3.627   5.320 -0.5198 -0.8196  0.9701
    4CHL1   C27  293   1.623   3.358   5.210 -0.1766 -0.0761  0.5546
    4CHL1  H27A  294   1.535   3.291   5.192  0.5804 -0.4558 -2.2813
    4CHL1  H27B  295   1.688   3.360   5.120 -2.4937  0.0180 -1.2461
    4CHL1  H27C  296   1.675   3.334   5.304  1.1611 -1.3502 -0.4599
    5CHL1    C3  297   4.324   3.484   6.827 -0.1749 -0.8213 -0.3674
    5CHL1    H3  298   4.281   3.586   6.813  0.5281 -0.5750 -0.7935
    5CHL1    O3  299   4.348   3.468   6.970 -0.2470  0.2373  0.3542
    5CHL1   H3'  300   4.257   3.465   7.001 -1.0484 -0.7297 -1.8317
    5CHL1    C4  301   4.228   3.385   6.777  0.2248 -0.2949 -0.0848
    5CHL1   H4A  302   4.272   3.292   6.818  3.4319  0.9399 -0.4406
    5CHL1   H4B  303   4.136   3.395   6.838 -0.1594 -1.1407 -0.5117
    5CHL1    C5  304   4.198   3.393   6.630 -0.2844  0.7786  0.0686
    5CHL1    C6  305   4.072   3.405   6.582 -0.1839 -0.5472 -0.0177
    5CHL1    H6  306   3.996   3.418   6.661 -2.7281 -1.3124 -2.1775
    5CHL1    C7  307   4.041   3.405   6.438 -0.6483 -0.2593  0.1513
    5CHL1   H7A  308   3.968   3.323   6.423  0.5098 -1.1060 -1.0682
    5CHL1   H7B  309   4.010   3.505   6.403  1.3912 -0.0273 -1.1251
    5CHL1    C8  310   4.161   3.358   6.355  0.6762 -0.0246  1.3478
    5CHL1    H8  311   4.166   3.249   6.374  1.9192 -0.4779 -1.2314
    5CHL1   C14  312   4.119   3.376   6.209  0.1774  0.2807 -0.1792
    5CHL1   H14  313   4.091   3.481   6.189 -1.6702 -0.0506  0.4354
    5CHL1   C15  314   3.991   3.304   6.171 -0.5647  0.2958  1.0153
    5CHL1  H15A  315   3.997   3.198   6.206  3.7180  0.0331  0.1147
    5CHL1  H15B  316   3.903   3.362   6.204 -0.7310 -0.4924  2.0339
    5CHL1   C16  317   4.010   3.297   6.017 -0.1681  0.0057  0.0051
    5CHL1  H16A  318   4.002   3.191   5.986 -1.3760 -0.2235  1.0172
    5CHL1  H16B  319   3.924   3.342   5.963 -1.6603 -3.1076 -0.4480
    5CHL1   C17  320   4.153   3.351   5.977  0.6287  0.0129  0.3694
    5CHL1   H17  321   4.124   3.456   5.957  0.4344 -0.3496 -1.4801
    5CHL1   C13  322   4.229   3.338   6.107  0.6262  0.6600 -0.3169
    5CHL1   C18  323   4.286   3.196   6.124  0.4649  0.2265  0.0734
    5CHL1  H18A  324   4.312   3.178   6.230  1.7374  1.5723  0.0225
    5CHL1  H18B  325   4.199   3.130   6.103 -1.8701  2.4832  1.9212
    5CHL1  H18C  326   4.362   3.169   6.048 -0.0853  0.2503 -0.4961
    5CHL1   C12  327   4.338   3.448   6.139  0.7100 -0.4938  0.1749
    5CHL1  H12A  328   4.426   3.442   6.071  0.6654 -2.4697  0.2372
    5CHL1  H12B  329   4.299   3.552   6.134  2.2408  0.2842  2.5456
    5CHL1   C11  330   4.395   3.421   6.280 -0.8074 -0.0350  0.6135
    5CHL1  H11A  331   4.447   3.324   6.267 -0.0834  0.3749  0.4089
    5CHL1  H11B  332   4.478   3.494   6.295 -1.0614  1.0304 -2.4602
    5CHL1    C9  333   4.289   3.431   6.390  0.1957 -0.3234  0.5078
    5CHL1    H9  334   4.266   3.540   6.389 -0.0858 -0.3786  0.6402
    5CHL1   C10  335   4.323   3.394   6.539 -0.2017 -0.5525 -0.1255
    5CHL1   C19  336   4.390   3.254   6.528  0.2887  0.0281 -0.4926
    5CHL1  H19A  337   4.324   3.179   6.479  0.1074 -0.2009  0.1008
    5CHL1  H19B  338   4.488   3.260   6.475 -0.2234 -0.8059 -1.5798
    5CHL1  H19C  339   4.414   3.206   6.625 -1.3008  1.0538  0.4563
    5CHL1    C1  340   4.431   3.494   6.598  0.0464  0.1967 -0.2188
    5CHL1   H1A  341   4.523   3.489   6.535  0.7614  2.8971  0.4582
    5CHL1   H1B  342   4.395   3.599   6.592  0.1062  0.2726  0.6324
    5CHL1    C2  343   4.460   3.472   6.750  0.0815 -0.1000 -1.0486
    5CHL1   H2A  344   4.531   3.554   6.775  0.0854 -0.9978  2.3526
    5CHL1   H2B  345   4.505   3.372   6.770 -1.1383 -0.3234  0.7625
    5CHL1   C20  346   4.215   3.302   5.845 -0.1799 -0.0084 -0.2027
    5CHL1   H20  347   4.259   3.200   5.853  2.0595  0.9297  0.5891
    5CHL1   C21  348   4.332   3.403   5.806  0.5115 -0.3263 -0.1969
    5CHL1  H21A  349   4.284   3.503   5.799  0.8667 -0.2150 -1.2152
    5CHL1  H21B  350   4.382   3.375   5.711  0.1578  0.7161 -0.7138
    5CHL1  H21C  351   4.413   3.394   5.881  0.3589  0.8884  0.1340
    5CHL1   C22  352   4.119   3.296   5.722  0.0291 -0.0706 -0.0122
    5CHL1  H22A  353   4.017   3.258   5.744 -0.5096  1.0255 -0.5647
    5CHL1  H22B  354   4.107   3.401   5.688 -2.3664 -0.5231 -0.7014
    5CHL1   C23  355   4.180   3.209   5.617 -0.0096 -0.1584 -0.5346
    5CHL1  H23A  356   4.290   3.198   5.625  0.0328 -0.2072 -1.1590
    5CHL1  H23B  357   4.144   3.105   5.632 -1.5986  0.1988 -1.6148
    5CHL1   C24  358   4.161   3.248   5.474 -0.4309  0.2544 -0.1271
    5CHL1  H24A  359   4.052   3.254   5.453 -0.3369  1.9932 -0.2593
    5CHL1  H24B  360   4.222   3.340   5.464 -2.1710  1.4895  0.1081
    5CHL1   C25  361   4.205   3.150   5.362 -0.6312  0.0016 -0.3700
    5CHL1   H25  362   4.139   3.063   5.384  0.5209 -0.7447  0.2373
    5CHL1   C26  363   4.172   3.218   5.221 -0.1431 -0.1674  0.1897
    5CHL1  H26A  364   4.226   3.314   5.211 -2.5599  1.2951  0.3039
    5CHL1  H26B  365   4.195   3.147   5.139 -1.0138 -0.5605  0.2670
    5CHL1  H26C  366   4.065   3.245   5.210  0.1815  1.0221 -0.1105
    5CHL1   C27  367   4.350   3.103   5.367 -0.7934 -0.8400 -0.4696
    5CHL1  H27A  368   4.427   3.182   5.359  0.2450 -1.3467  2.9020
    5CHL1  H27B  369   4.368   3.060   5.467 -0.2875  1.5057  0.5208
    5CHL1  H27C  370   4.367   3.023   5.292  1.1151 -1.6212  0.7306
    6CHL1    C3  371   6.795   2.749   6.223  0.3690  0.4552 -0.7617
    6CHL1    H3  372   6.685   2.746   6.211  0.4525 -0.0449 -1.4293
    6CHL1    O3  373   6.813   2.819   6.346  0.4118  0.3636  0.0072
    6CHL1   H3'  374   6.753   2.893   6.339  0.2215  0.4083  1.7871
    6CHL1    C4  375   6.857   2.608   6.224  1.0650 -0.1391  0.1921
    6CHL1   H4A  376   6.956   2.624   6.272  0.5682  0.1650  1.1476
    6CHL1   H4B  377   6.810   2.549   6.305  2.2470 -0.4312  0.6904
    6CHL1    C5  378   6.856   2.545   6.083 -0.4914 -1.2010 -0.1187
    6CHL1    C6  379   6.810   2.420   6.077  0.8708 -0.6501 -0.5065
    6CHL1    H6  380   6.766   2.370   6.165  0.7458 -2.2162 -1.4120
    6CHL1    C7  381   6.808   2.347   5.946 -0.3441  0.1728  0.6763
    6CHL1   H7A  382   6.834   2.240   5.963 -2.4758 -0.4170  0.6111
    6CHL1   H7B  383   6.706   2.347   5.901  0.5466 -0.0796 -1.4111
    6CHL1    C8  384   6.891   2.413   5.830  0.0377  0.0670  0.6712
    6CHL1    H8  385   6.995   2.387   5.860 -0.0114 -2.3009 -0.8990
    6CHL1   C14  386   6.844   2.359   5.699  0.3493  0.2939  0.1375
    6CHL1   H14  387   6.735   2.379   5.683  0.6337  0.6959 -1.4354
    6CHL1   C15  388   6.857   2.209   5.694  0.1538 -0.6047  0.4881
    6CHL1  H15A  389   6.963   2.181   5.713  0.2392  0.5763  1.9473
    6CHL1  H15B  390   6.797   2.154   5.768  2.1539 -0.9468  1.9299
    6CHL1   C16  391   6.837   2.180   5.549 -0.1510 -0.4419  0.3274
    6CHL1  H16A  392   6.891   2.093   5.505  0.6907  1.0410 -1.7757
    6CHL1  H16B  393   6.730   2.155   5.531 -0.1723  0.2268 -0.5758
    6CHL1   C17  394   6.853   2.320   5.476 -0.0438 -0.4951  0.2379
    6CHL1   H17  395   6.747   2.352   5.466  0.1764  0.0284 -0.4910
    6CHL1   C13  396   6.917   2.416   5.581  0.1955 -0.3972 -0.9258
    6CHL1   C18  397   7.071   2.391   5.585 -0.1220 -0.0533  0.2080
    6CHL1  H18A  398   7.095   2.283   5.587  1.1185  0.0468 -3.3591
    6CHL1  H18B  399   7.115   2.428   5.490 -2.7762  1.2694 -0.6167
    6CHL1  H18C  400   7.111   2.444   5.674 -1.1164  2.5136 -0.7709
    6CHL1   C12  401   6.880   2.566   5.571 -0.0104  0.1859  0.6752
    6CHL1  H12A  402   6.934   2.617   5.489  2.4227 -2.0384  0.7735
    6CHL1  H12B  403   6.774   2.578   5.540  0.5750  0.3283 -1.3788
    6CHL1   C11  404   6.930   2.633   5.697  0.0642 -0.5983 -0.0449
    6CHL1  H11A  405   7.040   2.646   5.698 -0.2704  4.0414 -0.8379
    6CHL1  H11B  406   6.898   2.739   5.686 -1.1264 -0.9927 -0.5296
    6CHL1    C9  407   6.867   2.567   5.826 -0.3749  0.4314 -0.5436
    6CHL1    H9  408   6.757   2.576   5.812 -0.6263  0.3785  1.1451
    6CHL1   C10  409   6.912   2.628   5.964 -0.1120  0.0378 -0.0293
    6CHL1   C19  410   7.059   2.657   5.972 -0.7283 -0.5573 -0.0835
    6CHL1  H19A  411   7.127   2.569   5.977 -0.5099 -0.3274  1.8891
    6CHL1  H19B  412   7.090   2.722   5.887 -2.5634 -1.1408 -1.2514
    6CHL1  H19C  413   7.085   2.713   6.064 -0.3394 -1.9871  0.7070
    6CHL1    C1  414   6.847   2.772   5.973 -0.6178  0.5070 -0.1458
    6CHL1   H1A  415   6.889   2.837   5.894 -1.0434  1.3545  0.3074
    6CHL1   H1B  416   6.740   2.773   5.941 -0.5885  0.2933 -0.2524
    6CHL1    C2  417   6.855   2.840   6.114 -0.2291  1.0282 -1.1345
    6CHL1   H2A  418   6.802   2.938   6.107 -0.4483  0.9586 -0.4324
    6CHL1   H2B  419   6.961   2.862   6.140  0.4909 -0.8797 -2.2343
    6CHL1   C20  420   6.907   2.302   5.325 -0.0534  0.3273  0.1578
    6CHL1   H20  421   7.014   2.274   5.332 -0.3733 -0.7507  0.9764
    6CHL1   C21  422   6.910   2.434   5.260  0.2625  0.2276 -0.5322
    6CHL1  H21A  423   6.990   2.493   5.310  0.9747  0.0410 -1.4134
    6CHL1  H21B  424   6.815   2.489   5.276  0.1965  0.1798 -0.7492
    6CHL1  H21C  425   6.926   2.417   5.151 -1.7362  0.5729 -0.9147
    6CHL1   C22  426   6.820   2.193   5.254  1.1376 -0.3020 -0.5482
    6CHL1  H22A  427   6.815   2.098   5.311  1.4418 -2.0604 -3.2789
    6CHL1  H22B  428   6.715   2.227   5.264  1.7492  1.0248  2.5878
    6CHL1   C23  429   6.857   2.164   5.112  0.3568  0.8594 -0.1209
    6CHL1  H23A  430   6.863   2.264   5.064 -0.6472  0.9052 -0.1565
    6CHL1  H23B  431   6.962   2.127   5.105  0.3387  1.1930 -3.3021
    6CHL1   C24  432   6.777   2.057   5.039  0.7340  0.0033 -0.4673
    6CHL1  H24A  433   6.748   1.982   5.116  0.2484  0.2168 -0.4374
    6CHL1  H24B  434   6.687   2.108   4.998 -0.6161 -1.7481  0.2229
    6CHL1   C25  435   6.850   1.986   4.923  0.3366  0.2106 -0.1634
    6CHL1   H25  436   6.941   1.936   4.963  0.0978  1.9281  2.8875
    6CHL1   C26  437   6.749   1.883   4.867 -0.3830  0.7203  0.5204
    6CHL1  H26A  438   6.801   1.804   4.808  1.2952  1.2177  1.2688
    6CHL1  H26B  439   6.696   1.844   4.957 -1.8521  2.5002  0.4729
    6CHL1  H26C  440   6.662   1.924   4.811 -0.9301 -3.2628 -1.9176
    6CHL1   C27  441   6.886   2.078   4.808  0.3954  0.1441  0.2762
    6CHL1  H27A  442   6.964   2.147   4.844  0.0794  0.6401  0.0185
    6CHL1  H27B  443   6.929   2.016   4.726 -0.0341  1.4234 -0.9601
    6CHL1  H27C  444   6.791   2.124   4.773 -0.8345 -1.4121  1.4270
    7CHL1    C3  445   3.550   5.061   6.285  0.6651 -0.2074 -0.3835
    7CHL1    H3  446   3.447   5.022   6.271  0.0493  0.6708  1.4703
    7CHL1    O3  447   3.579   5.090   6.421 -0.0485 -0.1778 -0.0899
    7CHL1   H3'  448   3.532   5.172   6.435  1.0769  0.5227 -0.2254
    7CHL1    C4  449   3.655   4.962   6.230 -0.0616  0.4613 -0.8094
    7CHL1   H4A  450   3.758   5.001   6.244 -0.2122  0.7698 -0.5429
    7CHL1   H4B  451   3.639   4.871   6.292 -0.6992  0.4763 -0.9425
    7CHL1    C5  452   3.652   4.947   6.088 -0.1918  0.1841  0.8303
    7CHL1    C6  453   3.643   4.824   6.033  0.0283 -0.0271 -0.6658
    7CHL1    H6  454   3.632   4.742   6.105  2.2786  1.5111  1.6374
    7CHL1    C7  455   3.643   4.797   5.888  0.2346  0.1089  0.4276
    7CHL1   H7A  456   3.730   4.729   5.876 -0.5153 -0.6703 -0.8429
    7CHL1   H7B  457   3.541   4.752   5.881  1.1651 -2.9178  3.3654
    7CHL1    C8  458   3.674   4.922   5.800 -0.0160  0.0324  0.0096
    7CHL1    H8  459   3.784   4.934   5.806  0.0469 -0.8766  1.0854
    7CHL1   C14  460   3.628   4.904   5.659 -0.4738 -0.0746 -0.5242
    7CHL1   H14  461   3.517   4.892   5.668 -0.5554  1.4853  1.1317
    7CHL1   C15  462   3.669   4.773   5.587 -0.3330  0.1555  0.0855
    7CHL1  H15A  463   3.779   4.762   5.593 -0.5283 -2.6973 -0.2890
    7CHL1  H15B  464   3.625   4.679   5.627 -0.6334  0.6296  0.8907
    7CHL1   C16  465   3.631   4.800   5.438 -0.4514 -0.2601 -0.6051
    7CHL1  H16A  466   3.721   4.791   5.373 -0.8170 -0.8990 -1.0371
    7CHL1  H16B  467   3.547   4.733   5.409  0.0842 -1.4611  0.5088
    7CHL1   C17  468   3.598   4.954   5.430 -0.9717 -0.0395  0.1351
    7CHL1   H17  469   3.487   4.959   5.434 -0.9662  0.4804 -0.3220
    7CHL1   C13  470   3.643   5.017   5.560  0.0282  0.0627  0.3845
    7CHL1   C18  471   3.796   5.041   5.547  0.6388 -0.7471 -0.0105
    7CHL1  H18A  472   3.819   5.129   5.483 -0.7646 -1.1508 -1.1092
    7CHL1  H18B  473   3.841   5.056   5.648 -1.0984  0.3394  0.6550
    7CHL1  H18C  474   3.833   4.953   5.491 -1.1174 -1.5060 -0.0255
    7CHL1   C12  475   3.558   5.139   5.610  0.6107 -0.4555 -1.0303
    7CHL1  H12A  476   3.584   5.230   5.552  0.5437  0.9944  1.1100
    7CHL1  H12B  477   3.450   5.111   5.605 -0.0400  1.9335 -1.2145
    7CHL1   C11  478   3.596   5.166   5.760  0.6123 -0.3354 -0.0725
    7CHL1  H11A  479   3.703   5.196   5.766  0.6072 -0.3639  0.1940
    7CHL1  H11B  480   3.527   5.240   5.807  0.3832 -0.5949  0.0078
    7CHL1    C9  481   3.599   5.043   5.856 -0.4193 -0.0237 -0.0459
    7CHL1    H9  482   3.494   5.006   5.865 -0.3258 -0.5329 -0.9659
    7CHL1   C10  483   3.644   5.078   6.004 -0.4703  0.0430 -0.8468
    7CHL1   C19  484   3.791   5.142   6.001  0.4980  1.2675 -0.1148
    7CHL1  H19A  485   3.782   5.247   5.966 -0.4804  0.9887 -0.7334
    7CHL1  H19B  486   3.845   5.132   6.098  2.4549  0.7340 -1.2091
    7CHL1  H19C  487   3.853   5.097   5.921 -0.1637  2.4256 -1.3198
    7CHL1    C1  488   3.545   5.181   6.058 -0.2549  0.3043 -0.2035
    7CHL1   H1A  489   3.544   5.284   6.016 -1.0904  0.0622 -0.8198
    7CHL1   H1B  490   3.440   5.146   6.046 -0.1275 -0.1356 -0.0775
    7CHL1    C2  491   3.549   5.200   6.211  0.1392 -0.1337  0.5608
    7CHL1   H2A  492   3.461   5.260   6.243 -1.6952 -2.0199 -0.7358
    7CHL1   H2B  493   3.639   5.262   6.230  1.0426 -0.6819 -1.6006
    7CHL1   C20  494   3.637   5.017   5.293  0.0042 -0.9448  0.1477
    7CHL1   H20  495   3.747   5.017   5.279  0.0616  1.7795  0.0456
    7CHL1   C21  496   3.573   5.161   5.299 -0.2342 -0.0208 -0.0276
    7CHL1  H21A  497   3.641   5.225   5.360 -2.8162  0.7368  2.2719
    7CHL1  H21B  498   3.464   5.164   5.323 -0.0823  1.9201  0.6646
    7CHL1  H21C  499   3.569   5.205   5.197  0.3872  0.4429  0.1427
    7CHL1   C22  500   3.584   4.936   5.170  1.3080 -0.0569 -0.2689
    7CHL1  H22A  501   3.601   4.827   5.181  1.3375  0.1220  1.7408
    7CHL1  H22B  502   3.475   4.956   5.161  0.8984 -1.4423  1.1939
    7CHL1   C23  503   3.652   4.973   5.033  0.0327  0.0744  0.0742
    7CHL1  H23A  504   3.641   5.080   5.005 -1.3647 -0.2260 -0.6368
    7CHL1  H23B  505   3.761   4.954   5.042  0.0533  0.4539  0.6994
    7CHL1   C24  506   3.597   4.884   4.923 -0.2703 -0.4459 -0.5593
    7CHL1  H24A  507   3.637   4.782   4.940 -0.6759 -0.1145  3.4551
    7CHL1  H24B  508   3.489   4.888   4.947  0.3234  0.9634  2.3889
    7CHL1   C25  509   3.622   4.919   4.780  0.6970  0.1200 -0.7149
    7CHL1   H25  510   3.733   4.918   4.774  0.8539  1.2385  1.2232
    7CHL1   C26  511   3.577   4.805   4.692 -0.0071  0.2575  0.6756
    7CHL1  H26A  512   3.469   4.781   4.699  0.1918 -1.2804 -0.7936
    7CHL1  H26B  513   3.600   4.814   4.583 -2.2080 -1.0069  0.0389
    7CHL1  H26C  514   3.625   4.711   4.726 -2.6965 -0.8832  1.5623
    7CHL1   C27  515   3.558   5.052   4.739  0.1029 -0.9516  0.2150
    7CHL1  H27A  516   3.573   5.081   4.633 -1.6822  1.7506  0.6020
    7CHL1  H27B  517   3.450   5.064   4.761  0.0748 -1.3427  0.2989
    7CHL1  H27C  518   3.598   5.133   4.804 -4.1262  0.3923  1.4699
    8CHL1    C3  519   4.477   1.276   6.507  0.6443  0.1629  0.3600
    8CHL1    H3  520   4.559   1.202   6.498  0.9839  0.5625  0.1520
    8CHL1    O3  521   4.457   1.313   6.639 -0.5507  0.5977 -0.1818
    8CHL1   H3'  522   4.393   1.253   6.678 -0.6827  1.0679  0.3284
    8CHL1    C4  523   4.508   1.403   6.430 -0.3640  0.0890 -0.8313
    8CHL1   H4A  524   4.428   1.480   6.428 -0.4229  0.0709  0.4413
    8CHL1   H4B  525   4.600   1.437   6.481 -1.5462 -0.9135  2.1662
    8CHL1    C5  526   4.532   1.370   6.285 -0.1069 -0.2798  0.0820
    8CHL1    C6  527   4.644   1.414   6.228  0.5029 -0.1037  0.3775
    8CHL1    H6  528   4.722   1.470   6.283  3.6090 -2.4595 -1.2989
    8CHL1    C7  529   4.669   1.403   6.074 -0.2407 -0.1008 -1.0406
    8CHL1   H7A  530   4.712   1.498   6.036 -0.3853  0.4077  0.0322
    8CHL1   H7B  531   4.743   1.322   6.058 -0.8075 -0.6657 -0.8546
    8CHL1    C8  532   4.537   1.376   5.999 -0.1482  0.0311  0.5251
    8CHL1    H8  533   4.482   1.473   5.996  0.2725  0.2691 -2.8881
    8CHL1   C14  534   4.567   1.343   5.850  0.2285  0.6877 -0.3884
    8CHL1   H14  535   4.614   1.243   5.863 -1.1977  0.3662  3.5750
    8CHL1   C15  536   4.660   1.431   5.765 -0.2200  0.3303  0.3108
    8CHL1  H15A  537   4.618   1.532   5.786 -1.7947 -0.2300 -0.0077
    8CHL1  H15B  538   4.764   1.412   5.798 -0.9010 -1.5224  1.5634
    8CHL1   C16  539   4.627   1.383   5.623 -0.1982 -0.2387 -0.0546
    8CHL1  H16A  540   4.605   1.477   5.568 -3.4343 -0.0072  1.3667
    8CHL1  H16B  541   4.716   1.331   5.580  0.5933  0.1662  1.0538
    8CHL1   C17  542   4.507   1.291   5.627  0.0689 -0.0655 -0.1255
    8CHL1   H17  543   4.542   1.185   5.627  1.1883  0.2607  1.4710
    8CHL1   C13  544   4.442   1.305   5.768 -0.0062 -0.6255  0.4582
    8CHL1   C18  545   4.348   1.430   5.768  0.2766 -0.0836 -0.1835
    8CHL1  H18A  546   4.398   1.518   5.724 -1.5608  0.5919 -1.0444
    8CHL1  H18B  547   4.269   1.399   5.695  1.3210  3.0846 -2.9086
    8CHL1  H18C  548   4.311   1.459   5.868  1.8270  0.7434  0.1756
    8CHL1   C12  549   4.380   1.183   5.828  0.6494 -0.1518  0.1695
    8CHL1  H12A  550   4.281   1.162   5.783  1.5234 -1.8328 -1.0977
    8CHL1  H12B  551   4.452   1.098   5.818  2.5619  1.2953  0.9405
    8CHL1   C11  552   4.338   1.207   5.978 -0.2946 -0.4623  0.0504
    8CHL1  H11A  553   4.265   1.292   5.976  0.6827  0.4034 -1.7390
    8CHL1  H11B  554   4.299   1.111   6.017  1.4177 -2.6071 -3.1118
    8CHL1    C9  555   4.450   1.265   6.063 -0.5238  0.3891  0.1091
    8CHL1    H9  556   4.522   1.180   6.060 -0.7299  0.1703 -3.3553
    8CHL1   C10  557   4.412   1.296   6.211  0.1927 -0.4945 -0.1714
    8CHL1   C19  558   4.289   1.390   6.208  1.0323  0.5413  0.2392
    8CHL1  H19A  559   4.297   1.477   6.140  1.7782  1.7668  1.8188
    8CHL1  H19B  560   4.195   1.341   6.176  0.6029 -0.7821  3.1464
    8CHL1  H19C  561   4.257   1.428   6.308 -0.5667 -2.3653  0.9430
    8CHL1    C1  562   4.386   1.166   6.293  0.2620 -0.3945  0.4854
    8CHL1   H1A  563   4.292   1.124   6.251  1.3579 -1.2204 -1.3011
    8CHL1   H1B  564   4.470   1.094   6.282  0.6610 -0.1256  1.6745
    8CHL1    C2  565   4.347   1.207   6.436 -0.3227 -1.0023 -0.7430
    8CHL1   H2A  566   4.315   1.119   6.496 -0.3325  1.0153  2.4596
    8CHL1   H2B  567   4.258   1.273   6.441  0.3611 -0.0972 -0.3000
    8CHL1   C20  568   4.418   1.291   5.499 -0.1429 -0.0313 -0.9375
    8CHL1   H20  569   4.370   1.390   5.487  2.2786  1.1907 -1.2420
    8CHL1   C21  570   4.306   1.186   5.522  0.1002  0.3065  0.4993
    8CHL1  H21A  571   4.243   1.183   5.430  1.3534 -0.3675 -0.3705
    8CHL1  H21B  572   4.235   1.219   5.601  1.5798  3.0763  0.7848
    8CHL1  H21C  573   4.343   1.082   5.537 -0.6301  0.1843  1.5596
    8CHL1   C22  574   4.499   1.273   5.370  0.1904 -0.0793 -0.3665
    8CHL1  H22A  575   4.584   1.345   5.366 -0.7635  1.1387  0.6184
    8CHL1  H22B  576   4.545   1.172   5.376  2.0832  0.7536  0.0375
    8CHL1   C23  577   4.411   1.308   5.250  0.5944 -0.4607 -1.0271
    8CHL1  H23A  578   4.312   1.259   5.261 -1.4060  3.2447 -0.9485
    8CHL1  H23B  579   4.384   1.415   5.261 -0.9157 -0.7768 -1.3884
    8CHL1   C24  580   4.470   1.285   5.116  0.6839  0.6790 -0.4326
    8CHL1  H24A  581   4.556   1.349   5.089  1.9897 -0.3026  1.2097
    8CHL1  H24B  582   4.494   1.177   5.109  0.1598  0.5652 -0.5373
    8CHL1   C25  583   4.371   1.302   4.999 -0.4440  0.5453  0.3871
    8CHL1   H25  584   4.282   1.235   5.008 -1.0295  1.0521 -1.2541
    8CHL1   C26  585   4.335   1.452   4.977  0.6918  0.9405  0.0138
    8CHL1  H26A  586   4.420   1.522   4.972  1.6183 -0.1678 -0.1525
    8CHL1  H26B  587   4.270   1.464   4.887  0.3522  1.4846  0.3284
    8CHL1  H26C  588   4.279   1.484   5.067 -1.8146 -2.1313 -0.2462
    8CHL1   C27  589   4.433   1.255   4.867  0.2439 -0.0459 -0.3308
    8CHL1  H27A  590   4.529   1.309   4.847  0.4072  0.4256  1.4957
    8CHL1  H27B  591   4.466   1.150   4.883  0.2636  0.2657  1.9671
    8CHL1  H27C  592   4.357   1.249   4.786 -0.9016  0.7977  0.6441
    9CHL1    C3  593   2.020   3.498   6.342 -1.1920  0.4338  0.7046
    9CHL1    H3  594   2.082   3.581   6.301  0.1106 -0.2766  1.1761
    9CHL1    O3  595   2.006   3.501   6.485  0.2399 -0.4543  0.6167
    9CHL1   H3'  596   1.972   3.418   6.518  1.0422 -0.4677  1.4389
    9CHL1    C4  597   1.882   3.489   6.276 -0.1590 -0.2865 -0.0667
    9CHL1   H4A  598   1.818   3.414   6.327 -0.2573  0.4772  0.9575
    9CHL1   H4B  599   1.825   3.582   6.298 -1.7595 -1.0079 -0.9297
    9CHL1    C5  600   1.898   3.471   6.130 -0.0962  0.0535  0.6359
    9CHL1    C6  601   1.840   3.564   6.048  0.4823  0.1363 -0.3517
    9CHL1    H6  602   1.787   3.643   6.103  3.6265  0.6681  2.2798
    9CHL1    C7  603   1.842   3.547   5.899 -0.5092  0.6070  0.0567
    9CHL1   H7A  604   1.748   3.575   5.846  0.9310  1.1379 -2.3901
    9CHL1   H7B  605   1.906   3.622   5.848 -0.1250  0.5827  0.4991
    9CHL1    C8  606   1.882   3.410   5.846 -0.4464  0.3636 -0.2988
    9CHL1    H8  607   1.793   3.344   5.847 -0.3513  0.2215 -0.8493
    9CHL1   C14  608   1.933   3.422   5.704 -0.1994 -0.6099  1.3942
    9CHL1   H14  609   2.034   3.468   5.714 -1.8207  3.7646  0.0177
    9CHL1   C15  610   1.855   3.486   5.591 -0.1928 -0.2727 -0.2675
    9CHL1  H15A  611   1.753   3.442   5.585  0.7184 -2.4843 -0.6385
    9CHL1  H15B  612   1.852   3.597   5.589  0.9170 -0.2141  0.3837
    9CHL1   C16  613   1.928   3.442   5.463  0.3638 -0.5685  0.8892
    9CHL1  H16A  614   1.854   3.428   5.381 -0.3770 -1.5967  1.7006
    9CHL1  H16B  615   1.991   3.521   5.416  1.4649 -2.7341 -1.5659
    9CHL1   C17  616   2.017   3.323   5.497  0.0852 -0.3426  0.0734
    9CHL1   H17  617   2.120   3.364   5.505 -0.6555  1.5698  0.3440
    9CHL1   C13  618   1.965   3.283   5.639 -0.5645  0.6990  0.3160
    9CHL1   C18  619   1.845   3.196   5.618  0.2425  0.0235  0.1213
    9CHL1  H18A  620   1.762   3.217   5.548 -1.0537 -1.9646  0.9689
    9CHL1  H18B  621   1.887   3.095   5.597 -1.1242 -0.7410  0.9185
    9CHL1  H18C  622   1.794   3.178   5.715  0.5027  0.1212  0.2788
    9CHL1   C12  623   2.076   3.215   5.727  0.0803 -0.0856 -0.6678
    9CHL1  H12A  624   2.085   3.112   5.688 -2.1054 -0.4613 -0.3400
    9CHL1  H12B  625   2.171   3.272   5.722 -0.4394  0.7724 -0.9830
    9CHL1   C11  626   2.030   3.200   5.871  0.1163  0.2590  0.6819
    9CHL1  H11A  627   1.947   3.126   5.875  0.5011 -0.5517 -2.8294
    9CHL1  H11B  628   2.095   3.138   5.936 -0.9438 -1.0107  0.5677
    9CHL1    C9  629   1.999   3.343   5.932  0.1097 -0.7606  0.2464
    9CHL1    H9  630   2.088   3.407   5.913 -0.6920  0.0191 -1.0822
    9CHL1   C10  631   1.970   3.343   6.085  0.4348  0.1601 -0.4246
    9CHL1   C19  632   1.886   3.222   6.135 -0.5703 -0.0841  0.5267
    9CHL1  H19A  633   1.893   3.206   6.245 -0.9716 -0.3377  0.5184
    9CHL1  H19B  634   1.780   3.237   6.105 -0.0468  0.9144 -0.9156
    9CHL1  H19C  635   1.925   3.123   6.102  0.9016  0.2715  1.1180
    9CHL1    C1  636   2.110   3.333   6.163 -0.0903  0.0553  0.2157
    9CHL1   H1A  637   2.159   3.234   6.150 -0.6735 -0.5602  2.2689
    9CHL1   H1B  638   2.175   3.414   6.121 -0.5869  3.1296  4.6227
    9CHL1    C2  639   2.092   3.362   6.312 -0.1001  0.3982 -0.4794
    9CHL1   H2A  640   2.192   3.375   6.358 -1.4423 -0.1737  2.9181
    9CHL1   H2B  641   2.043   3.279   6.368  1.5773 -0.3550 -0.0861
    9CHL1   C20  642   2.026   3.220   5.380  0.3454 -0.1082  0.6559
    9CHL1   H20  643   1.925   3.182   5.353  0.7300  0.4905 -1.8434
    9CHL1   C21  644   2.117   3.104   5.412 -0.1514 -0.4392 -0.3619
    9CHL1  H21A  645   2.051   3.035   5.469 -1.6302  1.1702 -0.0607
    9CHL1  H21B  646   2.200   3.134   5.480 -2.3829 -1.0589  2.9265
    9CHL1  H21C  647   2.158   3.035   5.336 -0.1908 -2.3254  1.2194
    9CHL1   C22  648   2.078   3.292   5.247  0.2296 -0.2318 -0.3492
    9CHL1  H22A  649   2.000   3.367   5.219  1.4264  0.5562 -1.7430
    9CHL1  H22B  650   2.163   3.353   5.283  1.1470 -1.2673 -0.7286
    9CHL1   C23  651   2.111   3.206   5.127 -0.0696 -0.0006  0.2031
    9CHL1  H23A  652   2.201   3.146   5.151  0.3138  0.0870 -0.9215
    9CHL1  H23B  653   2.031   3.136   5.094  1.7887 -1.8597 -0.6072
    9CHL1   C24  654   2.167   3.293   5.017  0.3961  0.0515  0.3273
    9CHL1  H24A  655   2.093   3.365   4.976  1.0367  0.2532 -0.5279
    9CHL1  H24B  656   2.250   3.352   5.061  0.1298 -0.4790  1.5717
    9CHL1   C25  657   2.222   3.220   4.893  0.4801 -0.3702  0.5458
    9CHL1   H25  658   2.289   3.136   4.922  1.0382 -0.5318 -1.0978
    9CHL1   C26  659   2.098   3.180   4.806  0.0884 -0.0097 -0.0397
    9CHL1  H26A  660   2.025   3.137   4.878 -0.7436  0.6788 -0.4589
    9CHL1  H26B  661   2.043   3.274   4.784 -1.6634 -0.7466  0.9385
    9CHL1  H26C  662   2.113   3.110   4.720 -0.5504 -0.6315  0.3404
    9CHL1   C27  663   2.307   3.318   4.814 -0.2789  0.1144  0.0460
    9CHL1  H27A  664   2.397   3.350   4.871 -0.7812  1.5698  0.0590
    9CHL1  H27B  665   2.354   3.263   4.729 -1.3127 -2.5009  1.0704
    9CHL1  H27C  666   2.259   3.411   4.777 -3.0834 -0.6191  1.5700
   10CHL1    C3  667   0.897   4.698   6.405  0.0774  0.0073  0.3333
   10CHL1    H3  668   0.792   4.730   6.386  0.7277  1.8956 -0.3057
   10CHL1    O3  669   0.915   4.715   6.540  0.2359 -0.1387  0.0626
   10CHL1   H3'  670   1.002   4.750   6.559 -0.6350  0.8181  2.7375
   10CHL1    C4  671   0.921   4.554   6.369 -0.8702 -0.0759  0.1239
   10CHL1   H4A  672   1.017   4.510   6.404  0.8514  3.7757  0.6814
   10CHL1   H4B  673   0.845   4.492   6.422 -1.1582 -1.0496 -1.3630
   10CHL1    C5  674   0.909   4.533   6.217 -0.1998  0.2922 -0.3055
   10CHL1    C6  675   0.821   4.443   6.168 -0.3405  0.1114  0.1078
   10CHL1    H6  676   0.760   4.375   6.230 -0.4384 -0.1925 -0.3192
   10CHL1    C7  677   0.794   4.417   6.022 -0.0831  0.6757  0.0765
   10CHL1   H7A  678   0.783   4.308   6.008  0.6182  0.5057  0.7311
   10CHL1   H7B  679   0.694   4.459   5.998 -0.1380 -0.3023 -1.4998
   10CHL1    C8  680   0.900   4.475   5.931 -0.6829  0.7695 -0.7005
   10CHL1    H8  681   0.996   4.419   5.932 -1.3047 -0.3186 -0.1981
   10CHL1   C14  682   0.849   4.478   5.794 -0.6262  0.1597  0.5840
   10CHL1   H14  683   0.768   4.554   5.789 -0.6922  0.0610  0.0713
   10CHL1   C15  684   0.779   4.353   5.734 -0.4992 -0.5795 -0.1377
   10CHL1  H15A  685   0.825   4.256   5.762 -0.0567  0.3929  2.8619
   10CHL1  H15B  686   0.669   4.354   5.746 -0.4949  0.1680 -0.1291
   10CHL1   C16  687   0.808   4.365   5.584 -0.1159  0.1978  0.4516
   10CHL1  H16A  688   0.886   4.289   5.563  0.4877  0.9775 -0.1807
   10CHL1  H16B  689   0.720   4.351   5.517 -0.6446 -1.3823  1.4223
   10CHL1   C17  690   0.886   4.496   5.558 -0.0888 -0.8293 -0.8253
   10CHL1   H17  691   0.804   4.570   5.543  1.6362  1.0648 -1.2497
   10CHL1   C13  692   0.948   4.529   5.689 -0.9017 -0.1350  1.1053
   10CHL1   C18  693   1.078   4.442   5.693 -0.1137  0.7085  0.2096
   10CHL1  H18A  694   1.068   4.332   5.685 -0.2316  0.3291  3.8242
   10CHL1  H18B  695   1.149   4.467   5.611  2.3486 -0.3895  1.8880
   10CHL1  H18C  696   1.139   4.479   5.778 -0.5986  2.0866 -0.0100
   10CHL1   C12  697   0.980   4.681   5.726 -0.2763 -0.8188  0.3888
   10CHL1  H12A  698   1.059   4.725   5.661  0.2586 -1.4861  0.5719
   10CHL1  H12B  699   0.894   4.751   5.719 -0.1682 -0.8217 -3.0320
   10CHL1   C11  700   1.031   4.688   5.873  0.2870  0.1232 -0.2468
   10CHL1  H11A  701   1.129   4.636   5.879 -1.4218 -3.6515 -1.6381
   10CHL1  H11B  702   1.036   4.796   5.898 -1.7284 -0.2277  2.1029
   10CHL1    C9  703   0.937   4.619   5.975  0.0042  0.1638  0.2408
   10CHL1    H9  704   0.846   4.683   5.973  0.2567  0.5243 -1.6500
   10CHL1   C10  705   0.984   4.627   6.121 -0.5859 -0.7984 -0.6685
   10CHL1   C19  706   1.135   4.595   6.145 -0.1081  0.1854  0.5838
   10CHL1  H19A  707   1.176   4.505   6.095  0.6085  1.5924 -1.5055
   10CHL1  H19B  708   1.189   4.686   6.109  1.3487 -0.4893  0.9784
   10CHL1  H19C  709   1.173   4.605   6.249  0.6361  1.4009  0.2223
   10CHL1    C1  710   0.959   4.770   6.173 -0.4079 -0.5493  0.6015
   10CHL1   H1A  711   1.023   4.840   6.116 -3.2380 -0.4069 -2.7583
   10CHL1   H1B  712   0.855   4.798   6.146 -0.5621 -1.3845  0.2717
   10CHL1    C2  713   0.988   4.792   6.321 -0.8564 -0.2099 -0.8624
   10CHL1   H2A  714   0.968   4.893   6.361 -2.9432 -0.3750 -1.3383
   10CHL1   H2B  715   1.094   4.786   6.352 -1.3245  3.3112  1.9635
   10CHL1   C20  716   0.966   4.503   5.428  0.5018  0.0873 -1.0222
   10CHL1   H20  717   1.073   4.480   5.444  0.4297  0.0538 -0.5742
   10CHL1   C21  718   0.952   4.646   5.370 -0.3192 -0.5703  0.8671
   10CHL1  H21A  719   1.047   4.674   5.320 -0.4987  0.3554  1.0229
   10CHL1  H21B  720   0.951   4.715   5.458 -1.0595 -0.4322  0.7584
   10CHL1  H21C  721   0.864   4.656   5.303 -0.9456  0.3961  1.7756
   10CHL1   C22  722   0.924   4.401   5.322  0.8936  0.8962 -0.4271
   10CHL1  H22A  723   0.950   4.297   5.352 -1.2882  0.1812 -0.8795
   10CHL1  H22B  724   0.814   4.398   5.329  0.8381  3.1364  0.8411
   10CHL1   C23  725   0.970   4.422   5.176  0.1315 -0.5315 -0.1975
   10CHL1  H23A  726   0.919   4.511   5.132  0.2493 -0.8525 -0.9972
   10CHL1  H23B  727   1.081   4.428   5.169  0.1019 -0.3919 -0.5640
   10CHL1   C24  728   0.943   4.307   5.074  0.0602 -0.4154 -0.7031
   10CHL1  H24A  729   1.040   4.253   5.072  1.3885  1.8599 -2.0563
   10CHL1  H24B  730   0.849   4.256   5.103  0.5080 -1.0359 -0.3102
   10CHL1   C25  731   0.929   4.361   4.933  0.2641 -0.0877  0.1992
   10CHL1   H25  732   0.853   4.442   4.929  0.2518 -0.1508 -1.3964
   10CHL1   C26  733   1.066   4.424   4.888  0.4274  0.3040  0.3067
   10CHL1  H26A  734   1.057   4.477   4.791  0.2158  0.3579  0.3541
   10CHL1  H26B  735   1.095   4.508   4.955  3.1555  1.4508 -2.1088
   10CHL1  H26C  736   1.140   4.343   4.899 -1.2119 -1.4334 -0.7994
   10CHL1   C27  737   0.887   4.251   4.841  0.3178  0.2626 -0.0261
   10CHL1  H27A  738   0.779   4.239   4.863 -0.1099  2.7355 -0.4817
   10CHL1  H27B  739   0.900   4.277   4.734 -2.7359 -0.8926 -0.7764
   10CHL1  H27C  740   0.938   4.153   4.857 -0.7775 -0.3535 -0.1829
   11CHL1    C3  741   5.558   6.978   6.224  0.1198 -0.0031  0.0725
   11CHL1    H3  742   5.641   6.933   6.166 -0.3096  0.9898 -1.3495
   11CHL1    O3  743   5.587   6.991   6.361 -0.5575  0.0209  0.3481
   11CHL1   H3'  744   5.682   7.006   6.362 -0.1128 -2.0944 -1.6288
   11CHL1    C4  745   5.537   7.116   6.163  0.2476  0.1580 -0.7083
   11CHL1   H4A  746   5.460   7.178   6.213  0.7335  2.0267 -2.1551
   11CHL1   H4B  747   5.638   7.159   6.181  0.6849 -1.5691  1.4139
   11CHL1    C5  748   5.511   7.112   6.011 -0.4149  0.0446 -0.5245
   11CHL1    C6  749   5.597   7.161   5.924 -0.1346  0.1557  0.0644
   11CHL1    H6  750   5.693   7.207   5.951 -0.2909  0.9694 -0.7152
   11CHL1    C7  751   5.566   7.160   5.775 -0.5553 -0.1414 -0.2225
   11CHL1   H7A  752   5.593   7.265   5.748  0.9460 -0.0875  1.3470
   11CHL1   H7B  753   5.642   7.090   5.735  1.8152  2.7954 -1.2661
   11CHL1    C8  754   5.424   7.130   5.732  0.0127  0.3177 -0.1468
   11CHL1    H8  755   5.355   7.217   5.742  0.1249  0.5340 -1.1466
   11CHL1   C14  756   5.414   7.085   5.591  0.4761 -0.9335 -0.2190
   11CHL1   H14  757   5.471   6.990   5.595  0.3823 -0.9694  0.4344
   11CHL1   C15  758   5.483   7.178   5.484 -0.3565 -0.0140 -0.2375
   11CHL1  H15A  759   5.480   7.286   5.511 -2.0633 -0.2579  0.6690
   11CHL1  H15B  760   5.586   7.137   5.482  0.1647  1.2110  0.2713
   11CHL1   C16  761   5.400   7.147   5.364  0.5499  0.0536  0.8878
   11CHL1  H16A  762   5.340   7.235   5.330  2.4922 -0.2305 -3.9476
   11CHL1  H16B  763   5.463   7.124   5.276  0.7284 -0.2156  1.0842
   11CHL1   C17  764   5.297   7.035   5.392 -0.0042  0.0872 -1.0264
   11CHL1   H17  765   5.350   6.938   5.381 -0.4685 -0.6442  2.2935
   11CHL1   C13  766   5.274   7.055   5.545  0.2018 -0.3904  0.1162
   11CHL1   C18  767   5.180   7.177   5.570  0.3097  0.8164 -0.3526
   11CHL1  H18A  768   5.220   7.272   5.527  0.9056  0.2509 -1.0830
   11CHL1  H18B  769   5.081   7.157   5.523  0.6692  0.0168 -0.7885
   11CHL1  H18C  770   5.145   7.192   5.674 -0.6694  2.0975 -0.8394
   11CHL1   C12  771   5.238   6.929   5.624 -0.1751  0.0862 -0.2626
   11CHL1  H12A  772   5.143   6.879   5.595 -0.4093  0.3172  0.0977
   11CHL1  H12B  773   5.321   6.860   5.597  0.1936  0.6059 -0.4854
   11CHL1   C11  774   5.232   6.958   5.777  0.3546  0.3080  0.2902
   11CHL1  H11A  775   5.146   7.026   5.797  0.0254  0.5886 -1.9039
   11CHL1  H11B  776   5.208   6.869   5.840  0.8323 -1.6348 -2.1483
   11CHL1    C9  777   5.372   7.013   5.822  0.3250  0.3609 -0.6884
   11CHL1    H9  778   5.440   6.926   5.808 -0.4126 -0.5410  1.0553
   11CHL1   C10  779   5.383   7.039   5.979 -0.1613  0.1014 -0.8017
   11CHL1   C19  780   5.263   7.128   6.030 -0.3237 -0.5540 -0.1717
   11CHL1  H19A  781   5.171   7.070   6.006 -1.1639  1.2735 -1.6769
   11CHL1  H19B  782   5.269   7.137   6.140 -2.2808  0.5705 -0.1143
   11CHL1  H19C  783   5.260   7.221   5.969 -3.1880 -1.3935 -1.4985
   11CHL1    C1  784   5.376   6.901   6.056 -0.1286  0.1302  0.3173
   11CHL1   H1A  785   5.272   6.863   6.055 -0.3564  0.7118  0.9164
   11CHL1   H1B  786   5.440   6.838   5.991  0.0100 -1.0163  1.5045
   11CHL1    C2  787   5.433   6.894   6.202  0.1642 -0.7830 -0.2334
   11CHL1   H2A  788   5.418   6.791   6.239 -0.6045 -0.6905 -0.2624
   11CHL1   H2B  789   5.365   6.943   6.276  3.0212  0.7337  1.5706
   11CHL1   C20  790   5.182   7.027   5.303 -0.1061 -0.8084  0.1706
   11CHL1   H20  791   5.119   7.119   5.310  1.4771  0.3436 -0.0699
   11CHL1   C21  792   5.089   6.914   5.356 -0.3846  0.0467 -0.0139
   11CHL1  H21A  793   5.152   6.830   5.393 -0.9199 -0.3722 -0.0266
   11CHL1  H21B  794   5.022   6.869   5.280 -1.2988 -0.4374  1.0374
   11CHL1  H21C  795   5.033   6.964   5.438  0.9672  1.0969  0.2950
   11CHL1   C22  796   5.212   7.021   5.149 -0.1228 -0.0002  0.1065
   11CHL1  H22A  797   5.261   7.119   5.130 -2.7376  1.6773  1.3743
   11CHL1  H22B  798   5.284   6.939   5.127  2.0187  1.6135  0.7496
   11CHL1   C23  799   5.091   7.013   5.056 -0.2457 -0.1824 -0.0164
   11CHL1  H23A  800   5.050   6.910   5.064 -0.8717  0.0968  0.5104
   11CHL1  H23B  801   5.003   7.072   5.090  0.1463 -0.1120  0.8990
   11CHL1   C24  802   5.119   7.061   4.913  0.1285 -0.3951  0.6774
   11CHL1  H24A  803   5.115   7.171   4.907  2.8479 -0.2918 -0.6276
   11CHL1  H24B  804   5.219   7.020   4.885 -0.9102 -2.6056 -0.0341
   11CHL1   C25  805   5.015   7.023   4.808 -0.0974  0.4695  0.3688
   11CHL1   H25  806   4.979   6.921   4.836  2.9110 -0.7747  0.0801
   11CHL1   C26  807   4.893   7.108   4.808  1.1899  0.1536 -0.0626
   11CHL1  H26A  808   4.846   7.105   4.908  1.1528 -0.0559 -0.0875
   11CHL1  H26B  809   4.909   7.216   4.788  0.6670 -0.0256 -1.5779
   11CHL1  H26C  810   4.820   7.076   4.730  0.4927  2.0146 -0.2367
   11CHL1   C27  811   5.073   6.998   4.668  0.2053  0.9244 -0.6748
   11CHL1  H27A  812   5.155   6.926   4.691 -1.3523 -0.8023 -0.2980
   11CHL1  H27B  813   4.996   6.942   4.612 -0.5642 -0.1204  1.3324
   11CHL1  H27C  814   5.107   7.090   4.616  2.5210  0.9265  0.6704
   12CHL1    C3  815   1.182   1.678   6.433  0.0032  0.3519 -0.1616
   12CHL1    H3  816   1.079   1.711   6.407 -0.9934 -1.0956  1.6476
   12CHL1    O3  817   1.215   1.710   6.564 -0.7407 -0.3155  0.1112
   12CHL1   H3'  818   1.280   1.643   6.585 -0.0024  0.3472 -0.0387
   12CHL1    C4  819   1.209   1.528   6.399 -0.3793 -0.4307 -0.9032
   12CHL1   H4A  820   1.313   1.498   6.426 -0.5110 -0.3519 -0.2940
   12CHL1   H4B  821   1.147   1.472   6.472  0.0330  0.1389 -0.0972
   12CHL1    C5  822   1.193   1.475   6.257  0.4515  0.3093  0.6135
   12CHL1    C6  823   1.112   1.368   6.229 -0.1956  0.2521 -0.1154
   12CHL1    H6  824   1.055   1.314   6.307  2.2895  0.3464  1.8984
   12CHL1    C7  825   1.088   1.331   6.081  0.1923  0.0749 -0.1857
   12CHL1   H7A  826   1.080   1.221   6.075  1.0918 -0.0567  0.7661
   12CHL1   H7B  827   0.984   1.358   6.053 -0.1317  1.0329  1.7525
   12CHL1    C8  828   1.189   1.390   5.978  0.7619 -0.0144 -0.7247
   12CHL1    H8  829   1.285   1.337   5.995  0.5663  0.1200  1.0231
   12CHL1   C14  830   1.140   1.383   5.839  0.5114  0.2691  0.3952
   12CHL1   H14  831   1.047   1.444   5.835  0.5257  0.2591 -0.1588
   12CHL1   C15  832   1.108   1.240   5.785 -0.0103  0.2689 -1.0176
   12CHL1  H15A  833   1.183   1.173   5.832  0.3328  1.2052 -0.1868
   12CHL1  H15B  834   1.005   1.223   5.821 -0.6066  1.9392 -1.8277
   12CHL1   C16  835   1.121   1.243   5.631 -0.5336  0.1691 -0.3804
   12CHL1  H16A  836   1.204   1.172   5.608 -0.3975  0.7023 -1.6366
   12CHL1  H16B  837   1.031   1.201   5.580  0.7639 -0.5962 -2.1307
   12CHL1   C17  838   1.147   1.391   5.599 -0.4454  1.0065 -0.8994
   12CHL1   H17  839   1.044   1.433   5.594 -1.0527  0.2426  2.6112
   12CHL1   C13  840   1.218   1.452   5.725 -0.7821 -0.1295  0.5261
   12CHL1   C18  841   1.367   1.402   5.731 -0.6730 -0.1006  0.1094
   12CHL1  H18A  842   1.433   1.458   5.661 -1.4446  0.9433  0.1967
   12CHL1  H18B  843   1.408   1.406   5.834 -0.8320  0.1866  0.1604
   12CHL1  H18C  844   1.383   1.297   5.696 -1.3284 -0.2029  0.0977
   12CHL1   C12  845   1.222   1.602   5.754  0.4187 -0.4196 -0.9717
   12CHL1  H12A  846   1.294   1.632   5.675  0.2529 -1.1594 -1.4169
   12CHL1  H12B  847   1.123   1.651   5.745  0.0783 -1.1184 -1.0917
   12CHL1   C11  848   1.270   1.633   5.898  1.0519 -0.2682 -0.1565
   12CHL1  H11A  849   1.380   1.624   5.899  1.0892  0.2165  1.1510
   12CHL1  H11B  850   1.257   1.740   5.925  0.4260 -0.4118  0.1376
   12CHL1    C9  851   1.201   1.545   6.008  0.4422  0.8828 -0.0846
   12CHL1    H9  852   1.094   1.572   6.013  0.3247  0.5870 -0.8538
   12CHL1   C10  853   1.261   1.564   6.151  0.3283  0.0977 -1.5814
   12CHL1   C19  854   1.408   1.520   6.147  0.9543  0.0929 -0.0637
   12CHL1  H19A  855   1.462   1.574   6.228 -0.3927  0.1884  0.7954
   12CHL1  H19B  856   1.419   1.410   6.147 -0.6773 -0.0993  1.0637
   12CHL1  H19C  857   1.461   1.555   6.055  3.2855  0.0960  1.2147
   12CHL1    C1  858   1.241   1.718   6.193 -0.2882  0.0104  0.6541
   12CHL1   H1A  859   1.319   1.782   6.147 -2.3871  2.4111  0.1879
   12CHL1   H1B  860   1.137   1.748   6.167 -0.2498  1.2799  1.8593
   12CHL1    C2  861   1.269   1.764   6.341  0.0895 -0.3201 -0.0927
   12CHL1   H2A  862   1.242   1.869   6.365 -0.2634 -0.7417  1.4592
   12CHL1   H2B  863   1.375   1.737   6.363 -0.3861 -4.9769 -2.2748
   12CHL1   C20  864   1.205   1.420   5.465  0.2941 -0.1971 -0.1089
   12CHL1   H20  865   1.314   1.396   5.465  0.0208 -1.4976 -0.9787
   12CHL1   C21  866   1.186   1.567   5.431  0.0170 -0.1860 -0.7976
   12CHL1  H21A  867   1.078   1.583   5.409  0.1018 -0.8316 -1.7077
   12CHL1  H21B  868   1.243   1.587   5.338 -0.8457  0.0310 -1.2947
   12CHL1  H21C  869   1.216   1.646   5.504 -0.4807 -0.9836  0.2945
   12CHL1   C22  870   1.132   1.342   5.357 -0.3721 -0.0695  0.2030
   12CHL1  H22A  871   1.123   1.233   5.377 -0.3886 -0.2614 -0.8107
   12CHL1  H22B  872   1.027   1.374   5.340 -1.1088 -3.5214 -3.0521
   12CHL1   C23  873   1.194   1.365   5.222 -0.2713 -0.7361  0.1452
   12CHL1  H23A  874   1.201   1.473   5.197  2.1205 -0.0180  3.2074
   12CHL1  H23B  875   1.296   1.323   5.223 -0.0284 -0.1494  0.2425
   12CHL1   C24  876   1.123   1.284   5.114 -0.0842 -0.3905  0.0719
   12CHL1  H24A  877   1.146   1.184   5.155  1.2510  0.7035  2.2216
   12CHL1  H24B  878   1.014   1.304   5.113 -0.3296 -1.2551  2.5467
   12CHL1   C25  879   1.200   1.291   4.987  0.5850  0.2290 -0.2032
   12CHL1   H25  880   1.310   1.300   5.003  0.4314  2.7674 -0.0373
   12CHL1   C26  881   1.163   1.170   4.897  0.0516 -1.2268 -0.6153
   12CHL1  H26A  882   1.164   1.070   4.946 -0.5532 -0.3879  1.1911
   12CHL1  H26B  883   1.059   1.181   4.862  0.7343 -1.9077 -3.0667
   12CHL1  H26C  884   1.224   1.167   4.804 -0.9364 -1.9242 -1.2564
   12CHL1   C27  885   1.170   1.426   4.914  0.4229  0.2488 -0.2349
   12CHL1  H27A  886   1.213   1.419   4.812  1.2072  3.0231 -0.1834
   12CHL1  H27B  887   1.061   1.435   4.898  0.3466 -0.8483 -0.4363
   12CHL1  H27C  888   1.196   1.521   4.964 -2.2449 -0.5614  3.0630
   13CHL1    C3  889   6.672   0.404   6.111 -0.4600 -0.0799 -0.5494
   13CHL1    H3  890   6.599   0.430   6.191 -1.2870 -0.8604 -1.0258
   13CHL1    O3  891   6.802   0.400   6.168 -0.4806  0.0095 -0.4238
   13CHL1   H3'  892   6.799   0.475   6.229 -0.9494 -0.9376  0.7734
   13CHL1    C4  893   6.634   0.262   6.077 -0.6710 -0.5269  0.7051
   13CHL1   H4A  894   6.718   0.205   6.031 -0.7888 -2.4554  2.7007
   13CHL1   H4B  895   6.623   0.199   6.168  0.6597 -0.0242  1.2475
   13CHL1    C5  896   6.508   0.258   5.994 -0.0044  0.6759 -0.1291
   13CHL1    C6  897   6.402   0.181   6.025  0.0201 -0.4710 -0.2591
   13CHL1    H6  898   6.393   0.119   6.116 -1.1655 -0.6874 -0.4957
   13CHL1    C7  899   6.287   0.162   5.924 -0.5777  1.1217 -0.5945
   13CHL1   H7A  900   6.274   0.052   5.913 -1.3218  0.8222  2.5319
   13CHL1   H7B  901   6.192   0.206   5.961 -2.6048 -2.1285 -1.4232
   13CHL1    C8  902   6.309   0.211   5.778 -0.4204 -0.5587  0.8441
   13CHL1    H8  903   6.375   0.155   5.709 -2.6886 -1.2009 -0.9195
   13CHL1   C14  904   6.173   0.235   5.704  0.1996  0.3500  0.0689
   13CHL1   H14  905   6.105   0.306   5.757  0.4687 -0.4730  1.5687
   13CHL1   C15  906   6.087   0.107   5.690  0.2881  0.1186 -0.8448
   13CHL1  H15A  907   6.152   0.024   5.655  1.5792  0.6080  0.2779
   13CHL1  H15B  908   6.039   0.073   5.784 -0.8826  0.5219 -1.2879
   13CHL1   C16  909   5.969   0.156   5.605  0.5755  0.7514  0.9016
   13CHL1  H16A  910   5.927   0.079   5.537 -0.0007  0.9152  1.0679
   13CHL1  H16B  911   5.885   0.192   5.668 -0.4412  0.0685 -0.0323
   13CHL1   C17  912   6.027   0.279   5.525 -0.4805  0.0103 -0.0672
   13CHL1   H17  913   5.984   0.369   5.572 -0.6627  0.4823 -1.1148
   13CHL1   C13  914   6.179   0.293   5.564  0.2906  0.3930  0.3684
   13CHL1   C18  915   6.260   0.208   5.465  0.9893  0.0096  0.3675
   13CHL1  H18A  916   6.266   0.253   5.363 -0.2580 -0.0536  0.2595
   13CHL1  H18B  917   6.364   0.191   5.503  1.1409 -1.8918 -0.7582
   13CHL1  H18C  918   6.205   0.114   5.444  0.7232  0.4541 -1.0441
   13CHL1   C12  919   6.238   0.430   5.586  0.5011 -0.7344  0.5090
   13CHL1  H12A  920   6.246   0.492   5.494  1.7609  0.2361  1.2402
   13CHL1  H12B  921   6.168   0.493   5.644  1.0271  2.3894 -1.9351
   13CHL1   C11  922   6.369   0.425   5.660 -0.4237  0.5639  0.4479
   13CHL1  H11A  923   6.443   0.374   5.594 -0.3878 -0.9687  1.6190
   13CHL1  H11B  924   6.407   0.527   5.678  2.1666  0.1495 -1.8957
   13CHL1    C9  925   6.372   0.352   5.796  0.5240 -0.0133 -0.2454
   13CHL1    H9  926   6.304   0.405   5.867 -1.0926 -1.5991 -0.5364
   13CHL1   C10  927   6.511   0.340   5.864 -0.2361 -1.0413 -0.0457
   13CHL1   C19  928   6.620   0.286   5.764  0.5022  0.0108 -0.1004
   13CHL1  H19A  929   6.649   0.367   5.694  0.1678 -0.0501 -0.3110
   13CHL1  H19B  930   6.706   0.237   5.815  0.7231  1.0966  0.6015
   13CHL1  H19C  931   6.571   0.204   5.708  2.4760 -1.2822 -0.0316
   13CHL1    C1  932   6.550   0.483   5.905  0.4408 -0.3227  0.3928
   13CHL1   H1A  933   6.566   0.552   5.820  1.3113  2.6026  2.7625
   13CHL1   H1B  934   6.466   0.518   5.970 -0.4705  1.8426 -1.8030
   13CHL1    C2  935   6.672   0.498   5.995 -0.2843  0.1123  0.6367
   13CHL1   H2A  936   6.694   0.603   6.026  0.3014  0.3884 -0.6231
   13CHL1   H2B  937   6.762   0.464   5.939 -0.8385 -1.7527  0.8326
   13CHL1   C20  938   5.989   0.286   5.378 -0.2839  0.4694 -1.3329
   13CHL1   H20  939   6.051   0.212   5.323 -0.5490  0.9153 -2.2491
   13CHL1   C21  940   6.019   0.432   5.326  0.4381 -0.0792 -0.3319
   13CHL1  H21A  941   5.943   0.502   5.368  1.4169  0.5588  0.4344
   13CHL1  H21B  942   6.005   0.441   5.216 -2.7083 -1.3701 -0.1492
   13CHL1  H21C  943   6.126   0.457   5.345  0.7742 -1.0032 -0.9747
   13CHL1   C22  944   5.842   0.248   5.349 -0.6705  0.2564  0.5031
   13CHL1  H22A  945   5.850   0.138   5.365 -0.5794  0.2131  0.1669
   13CHL1  H22B  946   5.770   0.302   5.415 -0.4379 -0.2471  1.1765
   13CHL1   C23  947   5.777   0.262   5.211 -0.7789 -0.3103 -0.1386
   13CHL1  H23A  948   5.667   0.261   5.222 -0.7663  3.8823  2.5627
   13CHL1  H23B  949   5.796   0.361   5.165  3.0743 -1.1090 -0.6243
   13CHL1   C24  950   5.842   0.165   5.097  0.2158  0.7024 -0.0783
   13CHL1  H24A  951   5.933   0.217   5.060 -0.2883 -0.3217 -3.0489
   13CHL1  H24B  952   5.868   0.066   5.142 -0.1190 -0.1236 -1.6435
   13CHL1   C25  953   5.753   0.116   4.986 -0.5428 -0.4211 -0.4156
   13CHL1   H25  954   5.708   0.200   4.928 -0.3253  1.1785  1.6323
   13CHL1   C26  955   5.835   0.017   4.896  0.5630  0.2419 -0.0915
   13CHL1  H26A  956   5.774  -0.038   4.821 -1.4770  0.3000  1.4415
   13CHL1  H26B  957   5.908   0.062   4.826  0.2680 -1.9873 -1.9632
   13CHL1  H26C  958   5.882  -0.061   4.960  1.2710 -0.6365 -1.6383
   13CHL1   C27  959   5.626   0.042   5.041 -1.2566 -0.0543 -0.5950
   13CHL1  H27A  960   5.564   0.121   5.088  2.4572  3.1112 -0.5993
   13CHL1  H27B  961   5.574  -0.002   4.953  0.3095 -1.8829 -0.6797
   13CHL1  H27C  962   5.653  -0.040   5.111  1.8340  1.3122 -0.0503
   14CHL1    C3  963   4.652   2.459   6.646  0.1685  0.1535  0.3782
   14CHL1    H3  964   4.741   2.392   6.648  0.3526  0.4100  1.9471
   14CHL1    O3  965   4.613   2.501   6.778  0.4100  0.3622 -0.2863
   14CHL1   H3'  966   4.537   2.559   6.771 -0.1655  0.2102  3.1840
   14CHL1    C4  967   4.682   2.580   6.572 -0.2031 -0.1701  1.1265
   14CHL1   H4A  968   4.589   2.640   6.574 -0.6209 -0.8040  0.8904
   14CHL1   H4B  969   4.760   2.642   6.623 -1.9585  3.4217 -0.2297
   14CHL1    C5  970   4.704   2.545   6.428 -0.7451 -1.3560  0.0582
   14CHL1    C6  971   4.822   2.575   6.366 -0.8423  0.0290  0.1611
   14CHL1    H6  972   4.892   2.650   6.407 -0.1404  0.8664 -2.3663
   14CHL1    C7  973   4.860   2.548   6.228  0.0696  0.3112  0.4924
   14CHL1   H7A  974   4.904   2.643   6.190 -0.0700  1.0790  2.1182
   14CHL1   H7B  975   4.921   2.456   6.221  1.4429  0.8673  3.5176
   14CHL1    C8  976   4.732   2.518   6.141  0.2089 -0.5521  1.0726
   14CHL1    H8  977   4.673   2.609   6.116 -0.4380 -0.8822  1.3649
   14CHL1   C14  978   4.775   2.458   6.005  0.5808  0.3913 -0.5819
   14CHL1   H14  979   4.827   2.365   6.038 -1.4002  0.2935  2.7951
   14CHL1   C15  980   4.872   2.541   5.917 -0.6472  0.2573  0.0150
   14CHL1  H15A  981   4.824   2.641   5.921 -1.0313  0.1382 -1.3034
   14CHL1  H15B  982   4.974   2.545   5.962 -0.6687  1.3756 -0.0121
   14CHL1   C16  983   4.861   2.473   5.780  0.3940 -0.2673 -0.2763
   14CHL1  H16A  984   4.821   2.545   5.705 -1.1998 -2.0243 -1.2003
   14CHL1  H16B  985   4.957   2.431   5.742 -0.0921 -3.3411  1.6120
   14CHL1   C17  986   4.762   2.355   5.789 -0.2526 -0.1864  0.2929
   14CHL1   H17  987   4.822   2.267   5.823  0.4878  0.4458  0.6717
   14CHL1   C13  988   4.671   2.399   5.904 -0.1658 -0.1952 -0.1831
   14CHL1   C18  989   4.565   2.500   5.855  0.2024 -0.4277  0.3821
   14CHL1  H18A  990   4.473   2.454   5.815  0.4696 -0.4367 -0.2347
   14CHL1  H18B  991   4.534   2.569   5.936 -0.3959  0.0344 -0.2341
   14CHL1  H18C  992   4.615   2.568   5.783  1.0656 -1.0971  0.3310
   14CHL1   C12  993   4.600   2.287   5.984 -0.3153 -0.3911  0.7592
   14CHL1  H12A  994   4.530   2.232   5.917  0.9647 -1.7405  0.4872
   14CHL1  H12B  995   4.687   2.224   6.009  2.8269  3.1249 -0.3144
   14CHL1   C11  996   4.540   2.351   6.107 -0.0536  0.2250 -0.2552
   14CHL1  H11A  997   4.462   2.428   6.087  3.5803  4.5291  0.5393
   14CHL1  H11B  998   4.488   2.264   6.153 -0.6475  0.9105  0.4205
   14CHL1    C9  999   4.640   2.412   6.211 -0.2979  0.5035  0.2534
   14CHL1    H9 1000   4.709   2.332   6.245 -0.6832  0.0012 -0.1356
   14CHL1   C10 1001   4.593   2.468   6.349  0.2045 -1.2003 -0.7163
   14CHL1   C19 1002   4.462   2.557   6.324  0.1577  0.1643 -0.0405
   14CHL1  H19A 1003   4.385   2.480   6.302  1.3384 -1.4528  1.3029
   14CHL1  H19B 1004   4.434   2.606   6.420  0.3014 -0.5068  0.3498
   14CHL1  H19C 1005   4.472   2.647   6.260 -2.0318  1.6230  1.4901
   14CHL1    C1 1006   4.556   2.347   6.442  0.4358  0.1411  0.0936
   14CHL1   H1A 1007   4.479   2.286   6.391  0.8084  1.4837 -2.2517
   14CHL1   H1B 1008   4.642   2.277   6.451 -0.7964 -1.6789 -1.5875
   14CHL1    C2 1009   4.532   2.385   6.588 -0.2564  0.1676 -0.4280
   14CHL1   H2A 1010   4.545   2.288   6.640  1.1276  1.8145  2.5271
   14CHL1   H2B 1011   4.434   2.434   6.603 -0.3963 -0.3055  0.2215
   14CHL1   C20 1012   4.698   2.320   5.649  0.1531  0.7769  0.2345
   14CHL1   H20 1013   4.632   2.401   5.609 -3.1235 -1.9118 -0.2987
   14CHL1   C21 1014   4.604   2.187   5.659 -0.2960  0.4354 -0.1943
   14CHL1  H21A 1015   4.662   2.097   5.689  0.1831  0.7437 -0.1771
   14CHL1  H21B 1016   4.555   2.169   5.561  1.0682 -0.8900 -0.6703
   14CHL1  H21C 1017   4.521   2.205   5.730 -1.7974  1.6967 -2.1649
   14CHL1   C22 1018   4.800   2.300   5.535 -0.2462  0.0469 -0.1871
   14CHL1  H22A 1019   4.867   2.388   5.547 -0.1488 -0.2055  1.4153
   14CHL1  H22B 1020   4.846   2.203   5.564  0.3612  0.8444  1.6777
   14CHL1   C23 1021   4.737   2.285   5.395 -0.3808  0.9357  0.7241
   14CHL1  H23A 1022   4.682   2.189   5.388  1.5478 -0.3312  1.8665
   14CHL1  H23B 1023   4.671   2.370   5.368 -1.2586  0.0795  0.1411
   14CHL1   C24 1024   4.847   2.280   5.295 -0.6421 -0.5354 -0.2143
   14CHL1  H24A 1025   4.902   2.375   5.310 -0.5844 -0.2817 -1.9101
   14CHL1  H24B 1026   4.922   2.198   5.301 -0.2351 -0.4994 -3.4368
   14CHL1   C25 1027   4.796   2.269   5.156  0.1702  0.5736 -0.3413
   14CHL1   H25 1028   4.715   2.345   5.146  1.4640  2.0001 -0.4100
   14CHL1   C26 1029   4.907   2.315   5.053 -0.4156  0.4316 -0.5585
   14CHL1  H26A 1030   4.947   2.414   5.085  0.1305 -0.3397  1.2361
   14CHL1  H26B 1031   4.984   2.235   5.053  1.5672  2.2375  0.5197
   14CHL1  H26C 1032   4.857   2.323   4.954 -0.4243  1.6173 -0.4709
   14CHL1   C27 1033   4.748   2.126   5.114  0.5514 -0.3821 -0.0697
   14CHL1  H27A 1034   4.693   2.151   5.021 -1.5880 -1.2758  0.8909
   14CHL1  H27B 1035   4.822   2.048   5.086  1.5210  0.4659  0.0746
   14CHL1  H27C 1036   4.677   2.092   5.192 -2.2310 -0.2375 -2.3764
   15CHL1    C3 1037   4.851   4.242   6.497  1.0549 -0.5864 -0.8739
   15CHL1    H3 1038   4.880   4.135   6.510  1.7418 -0.1918  1.1650
   15CHL1    O3 1039   4.802   4.287   6.624 -0.0407  0.4792 -0.3104
   15CHL1   H3' 1040   4.859   4.357   6.657 -0.6387  0.3625  1.0106
   15CHL1    C4 1041   4.968   4.336   6.453 -0.3391  0.2108  0.2146
   15CHL1   H4A 1042   4.933   4.440   6.470 -0.7342  0.6127 -2.5188
   15CHL1   H4B 1043   5.048   4.317   6.527 -1.4550 -0.2514  1.3561
   15CHL1    C5 1044   5.017   4.314   6.310  0.3255 -0.1206 -0.0797
   15CHL1    C6 1045   5.146   4.299   6.272 -0.1661  0.0063  0.5705
   15CHL1    H6 1046   5.224   4.301   6.350  0.1438 -0.5783  0.2812
   15CHL1    C7 1047   5.195   4.286   6.129  0.0513 -0.1585  0.4502
   15CHL1   H7A 1048   5.279   4.357   6.116 -0.2884  0.5199  1.8745
   15CHL1   H7B 1049   5.243   4.187   6.114 -1.2436 -0.6118 -1.0512
   15CHL1    C8 1050   5.085   4.306   6.016 -1.1568  0.4169  0.1702
   15CHL1    H8 1051   5.074   4.416   6.014  2.2617  0.8449 -1.1664
   15CHL1   C14 1052   5.137   4.246   5.885  0.1149  0.2760 -0.2859
   15CHL1   H14 1053   5.143   4.137   5.907 -1.6285  0.5556  2.0741
   15CHL1   C15 1054   5.270   4.294   5.833 -0.2978 -0.0457  0.0865
   15CHL1  H15A 1055   5.282   4.404   5.820 -2.7876  0.3853  1.0384
   15CHL1  H15B 1056   5.356   4.254   5.891  2.7403 -1.1165 -4.5454
   15CHL1   C16 1057   5.268   4.246   5.687 -0.1114  0.3360  0.1213
   15CHL1  H16A 1058   5.304   4.327   5.620  0.7832 -1.5597 -1.8132
   15CHL1  H16B 1059   5.343   4.168   5.660  1.3518  2.2262 -1.5793
   15CHL1   C17 1060   5.125   4.195   5.662  1.3293  0.8584  0.2254
   15CHL1   H17 1061   5.136   4.086   5.679 -0.1434  0.8178  1.0851
   15CHL1   C13 1062   5.039   4.260   5.769  0.1831  0.8650 -0.7136
   15CHL1   C18 1063   5.009   4.408   5.738 -0.4333 -0.6277  0.0116
   15CHL1  H18A 1064   4.983   4.471   5.826 -1.0416  3.2975 -2.7066
   15CHL1  H18B 1065   5.097   4.457   5.692 -0.9922  0.9820  0.5860
   15CHL1  H18C 1066   4.920   4.409   5.673 -0.1905  2.8119 -0.4595
   15CHL1   C12 1067   4.905   4.191   5.816  0.2463  0.0640  1.0824
   15CHL1  H12A 1068   4.830   4.182   5.735 -0.3879  0.2398  1.6434
   15CHL1  H12B 1069   4.943   4.087   5.828  2.8674  0.8031 -0.0157
   15CHL1   C11 1070   4.843   4.243   5.947  0.2669  0.2760  0.1288
   15CHL1  H11A 1071   4.805   4.345   5.928 -0.6091  0.1580  1.1994
   15CHL1  H11B 1072   4.757   4.177   5.972  0.3998 -0.5090 -1.3371
   15CHL1    C9 1073   4.951   4.245   6.067 -0.1382 -0.2216  0.6675
   15CHL1    H9 1074   4.963   4.136   6.086  0.5104 -0.3326 -0.3170
   15CHL1   C10 1075   4.903   4.303   6.208  0.4695  0.6854  0.5432
   15CHL1   C19 1076   4.838   4.438   6.181 -0.0148  0.0292  0.3018
   15CHL1  H19A 1077   4.817   4.489   6.278  0.1938  0.2887  0.2095
   15CHL1  H19B 1078   4.901   4.493   6.108  1.1253 -1.8673 -0.1981
   15CHL1  H19C 1079   4.743   4.414   6.128 -0.3326  0.0022  0.8658
   15CHL1    C1 1080   4.792   4.204   6.267  0.9807 -0.7073  0.0893
   15CHL1   H1A 1081   4.714   4.205   6.187 -0.2188 -1.2012  1.2125
   15CHL1   H1B 1082   4.843   4.106   6.267  3.1181  0.3023 -2.0073
   15CHL1    C2 1083   4.734   4.243   6.407  0.2248  0.3454 -0.4702
   15CHL1   H2A 1084   4.653   4.175   6.441 -0.6317  1.5094 -0.1415
   15CHL1   H2B 1085   4.697   4.347   6.406  0.4631  0.4377  0.0165
   15CHL1   C20 1086   5.087   4.199   5.508 -0.0084 -0.1507 -0.6686
   15CHL1   H20 1087   5.069   4.303   5.474  3.0559  0.5515 -0.4287
   15CHL1   C21 1088   4.961   4.120   5.495 -0.2132  0.1514 -0.1487
   15CHL1  H21A 1089   4.978   4.020   5.541  0.4391  0.7988  1.0756
   15CHL1  H21B 1090   4.933   4.100   5.389  0.0131 -0.3890 -0.1147
   15CHL1  H21C 1091   4.868   4.160   5.539 -0.6477  0.1183 -1.0176
   15CHL1   C22 1092   5.195   4.130   5.430  0.2243 -0.1793 -0.3347
   15CHL1  H22A 1093   5.294   4.176   5.451  0.6186 -1.2647  0.2553
   15CHL1  H22B 1094   5.207   4.026   5.467 -0.0393 -1.0262 -2.4616
   15CHL1   C23 1095   5.181   4.148   5.277 -0.7353 -0.5775 -0.7792
   15CHL1  H23A 1096   5.080   4.110   5.254 -0.9943 -0.4823  0.1684
   15CHL1  H23B 1097   5.178   4.256   5.251 -1.1053 -0.3051  0.3633
   15CHL1   C24 1098   5.284   4.077   5.188 -0.2470 -0.3757 -0.1737
   15CHL1  H24A 1099   5.384   4.124   5.199 -0.8127  0.6813  0.6141
   15CHL1  H24B 1100   5.300   3.972   5.221 -0.9747 -0.9193 -1.4963
   15CHL1   C25 1101   5.251   4.089   5.041 -0.7840  0.1192 -0.5990
   15CHL1   H25 1102   5.144   4.059   5.036 -0.4625 -2.2467  3.0080
   15CHL1   C26 1103   5.281   4.221   4.974  0.1545  0.9683 -0.3441
   15CHL1  H26A 1104   5.203   4.294   5.006 -0.2330  0.1972  0.5208
   15CHL1  H26B 1105   5.377   4.270   5.000  1.0570 -0.7028 -0.3237
   15CHL1  H26C 1106   5.288   4.207   4.864  0.4073 -1.6652 -0.0558
   15CHL1   C27 1107   5.332   3.970   4.970 -0.1378 -0.1268 -0.0916
   15CHL1  H27A 1108   5.315   3.978   4.861  0.1275  0.9800 -0.0686
   15CHL1  H27B 1109   5.439   3.972   5.001 -0.3688  0.3518  0.7174
   15CHL1  H27C 1110   5.298   3.873   5.012  1.9036 -0.2825  1.3599
   16CHL1    C3 1111   3.308   1.570   6.557  0.1073 -0.1561  0.4254
   16CHL1    H3 1112   3.334   1.463   6.570  0.4090 -0.1128  0.2038
   16CHL1    O3 1113   3.302   1.622   6.688 -0.2480 -0.8002 -0.1411
   16CHL1   H3' 1114   3.373   1.577   6.735  1.6409  1.1877 -0.8872
   16CHL1    C4 1115   3.410   1.646   6.470 -0.4868 -0.4060 -0.1367
   16CHL1   H4A 1116   3.382   1.752   6.483 -2.3778 -0.8201 -0.5231
   16CHL1   H4B 1117   3.510   1.638   6.518 -0.5060  3.1951  0.7578
   16CHL1    C5 1118   3.408   1.601   6.329  0.0907 -0.2137  0.1635
   16CHL1    C6 1119   3.519   1.565   6.264  0.7521  0.0333 -0.3630
   16CHL1    H6 1120   3.615   1.561   6.316 -0.3173 -0.9055  1.6401
   16CHL1    C7 1121   3.526   1.528   6.118 -0.0682 -0.4225 -0.3865
   16CHL1   H7A 1122   3.613   1.578   6.070 -1.4369  2.8930  0.3356
   16CHL1   H7B 1123   3.554   1.421   6.121 -0.7050 -0.6009  2.7627
   16CHL1    C8 1124   3.395   1.567   6.044  0.1897 -0.1824 -1.0593
   16CHL1    H8 1125   3.398   1.678   6.032 -1.7594  0.5443  3.3721
   16CHL1   C14 1126   3.378   1.496   5.912 -1.7154 -0.3974  0.2450
   16CHL1   H14 1127   3.379   1.389   5.942  1.0792  0.1207  2.4202
   16CHL1   C15 1128   3.502   1.479   5.818  0.4356 -0.0323 -0.0658
   16CHL1  H15A 1129   3.551   1.578   5.810  2.1973 -0.8026  0.6336
   16CHL1  H15B 1130   3.568   1.398   5.855 -0.8418 -0.9725  0.1852
   16CHL1   C16 1131   3.441   1.452   5.675  0.2721  0.3209  0.4050
   16CHL1  H16A 1132   3.460   1.534   5.603  0.1223 -0.4537 -0.5428
   16CHL1  H16B 1133   3.485   1.364   5.623  1.6821  1.3894 -0.2873
   16CHL1   C17 1134   3.286   1.427   5.702  0.6822  0.2775 -0.9162
   16CHL1   H17 1135   3.290   1.323   5.740 -0.6175 -0.0225 -1.5442
   16CHL1   C13 1136   3.261   1.515   5.824 -0.2409 -0.0189  0.8510
   16CHL1   C18 1137   3.250   1.665   5.768 -0.1361 -0.6400  0.1731
   16CHL1  H18A 1138   3.244   1.738   5.851  2.8511 -1.8480  1.6277
   16CHL1  H18B 1139   3.345   1.697   5.719 -1.8541  1.4838 -1.9731
   16CHL1  H18C 1140   3.166   1.678   5.696  2.0597  0.3022 -2.3982
   16CHL1   C12 1141   3.137   1.473   5.910  0.4469 -0.3325  0.1224
   16CHL1  H12A 1142   3.048   1.485   5.845  1.6239 -1.9931 -1.9130
   16CHL1  H12B 1143   3.148   1.366   5.935 -0.6964 -0.0163  2.2191
   16CHL1   C11 1144   3.133   1.547   6.043  0.7079  0.1433  0.4117
   16CHL1  H11A 1145   3.129   1.655   6.019  2.9747  0.0513 -0.6769
   16CHL1  H11B 1146   3.041   1.510   6.091 -0.5328 -0.2475 -2.1024
   16CHL1    C9 1147   3.266   1.538   6.125 -0.5433  0.0656  0.2450
   16CHL1    H9 1148   3.277   1.429   6.144 -1.1553 -0.4507 -1.9791
   16CHL1   C10 1149   3.265   1.612   6.259  0.4302  0.1592  0.3990
   16CHL1   C19 1150   3.223   1.760   6.253  0.4468 -0.3128  0.0475
   16CHL1  H19A 1151   3.122   1.778   6.209  1.0134 -0.1324 -1.2281
   16CHL1  H19B 1152   3.230   1.798   6.357  0.5723  0.3613 -0.2028
   16CHL1  H19C 1153   3.296   1.822   6.196 -0.8759  0.2619 -1.1041
   16CHL1    C1 1154   3.165   1.539   6.346  0.5991  0.1014  0.0633
   16CHL1   H1A 1155   3.059   1.539   6.311  0.3487 -1.1662  0.7618
   16CHL1   H1B 1156   3.199   1.433   6.353 -0.0773 -0.0552  1.3784
   16CHL1    C2 1157   3.171   1.582   6.498  0.0934  0.2526  1.0831
   16CHL1   H2A 1158   3.107   1.503   6.543  0.0592  0.4183  1.3253
   16CHL1   H2B 1159   3.121   1.681   6.501 -0.3988 -0.0060  1.8419
   16CHL1   C20 1160   3.189   1.428   5.583  0.1148  0.4440  0.1873
   16CHL1   H20 1161   3.127   1.520   5.577  1.0029  1.0085 -0.8189
   16CHL1   C21 1162   3.087   1.308   5.609  0.9741 -0.0656 -0.5136
   16CHL1  H21A 1163   3.038   1.283   5.513  0.0552 -0.5301  0.0595
   16CHL1  H21B 1164   3.020   1.323   5.697 -0.0057 -0.4619 -1.1765
   16CHL1  H21C 1165   3.145   1.215   5.629  1.4678  0.2681 -0.3600
   16CHL1   C22 1166   3.255   1.422   5.441 -0.0315 -0.3671 -0.2269
   16CHL1  H22A 1167   3.336   1.497   5.428  2.4368 -3.0503 -1.5381
   16CHL1  H22B 1168   3.315   1.329   5.430  1.9332  0.7892  0.3399
   16CHL1   C23 1169   3.160   1.445   5.326 -0.5717 -0.1450  0.3184
   16CHL1  H23A 1170   3.082   1.372   5.296  0.7128 -3.1649  3.5368
   16CHL1  H23B 1171   3.110   1.544   5.333 -1.0337 -0.3383 -0.2153
   16CHL1   C24 1172   3.248   1.445   5.191  0.4185  0.3014  0.4540
   16CHL1  H24A 1173   3.170   1.470   5.117  0.1440  0.1681  0.6972
   16CHL1  H24B 1174   3.335   1.515   5.194 -0.7516  1.9838 -2.0839
   16CHL1   C25 1175   3.307   1.304   5.152 -1.0516 -0.1961 -0.1271
   16CHL1   H25 1176   3.380   1.280   5.233 -0.6229  1.4155  0.0086
   16CHL1   C26 1177   3.189   1.208   5.127 -0.0142 -0.1081  0.3843
   16CHL1  H26A 1178   3.153   1.209   5.021 -0.3302 -0.0387  0.4916
   16CHL1  H26B 1179   3.219   1.103   5.144 -0.2069 -0.3584 -0.6985
   16CHL1  H26C 1180   3.109   1.214   5.203 -0.2216 -1.7923  0.3374
   16CHL1   C27 1181   3.387   1.310   5.021  0.4792 -0.0483  0.2296
   16CHL1  H27A 1182   3.474   1.378   5.034  0.7135 -0.1090 -0.9551
   16CHL1  H27B 1183   3.428   1.210   4.994  0.6852  0.4710 -1.5006
   16CHL1  H27C 1184   3.325   1.365   4.947 -0.2344  0.9093  1.5022
   17CHL1    C3 1185   4.659   5.305   6.229  0.0468 -0.1024  0.3870
   17CHL1    H3 1186   4.568   5.255   6.190  0.3119 -0.9571  0.8248
   17CHL1    O3 1187   4.661   5.291   6.367  0.0608  0.2203  0.1432
   17CHL1   H3' 1188   4.636   5.199   6.379 -0.7376  0.3614 -0.3415
   17CHL1    C4 1189   4.787   5.249   6.163  0.5556 -0.2391 -0.2907
   17CHL1   H4A 1190   4.872   5.304   6.208 -1.9053  2.7244  1.1045
   17CHL1   H4B 1191   4.794   5.145   6.201 -0.9434  0.0055  0.7468
   17CHL1    C5 1192   4.807   5.272   6.017  0.0316 -0.9057 -0.5305
   17CHL1    C6 1193   4.835   5.167   5.943 -0.5808 -0.8052  0.5636
   17CHL1    H6 1194   4.858   5.074   5.998 -1.1034 -0.8855  0.6446
   17CHL1    C7 1195   4.848   5.178   5.796  0.0815  0.2924 -1.2748
   17CHL1   H7A 1196   4.939   5.130   5.753 -0.0365 -2.2492  0.9968
   17CHL1   H7B 1197   4.760   5.135   5.743 -1.3414 -0.6682  1.6483
   17CHL1    C8 1198   4.853   5.329   5.751 -0.4987  0.1262  0.7088
   17CHL1    H8 1199   4.950   5.370   5.785  0.4637 -0.9940 -0.5487
   17CHL1   C14 1200   4.832   5.340   5.596  0.1723  0.2821 -1.0042
   17CHL1   H14 1201   4.727   5.306   5.585  0.3809 -0.4056 -0.9194
   17CHL1   C15 1202   4.925   5.268   5.496 -0.3209  0.2352  0.5767
   17CHL1  H15A 1203   5.029   5.276   5.535 -1.4604  1.5845  3.6461
   17CHL1  H15B 1204   4.906   5.158   5.490  0.1774  0.2001 -0.7125
   17CHL1   C16 1205   4.904   5.340   5.359  0.0615  0.9164  0.1607
   17CHL1  H16A 1206   5.002   5.367   5.314  1.1405  0.8956  2.4062
   17CHL1  H16B 1207   4.851   5.278   5.283  2.4111  0.6543 -1.3530
   17CHL1   C17 1208   4.826   5.464   5.392 -0.0479  0.0531  0.4200
   17CHL1   H17 1209   4.721   5.430   5.376  0.4285 -1.3220  0.0709
   17CHL1   C13 1210   4.838   5.486   5.547 -0.3772 -0.0057  0.8216
   17CHL1   C18 1211   4.971   5.554   5.577 -0.0296 -0.6299  0.4108
   17CHL1  H18A 1212   5.054   5.491   5.537  1.2460  1.0643  0.2653
   17CHL1  H18B 1213   4.992   5.653   5.531  0.0128 -2.1571 -3.1613
   17CHL1  H18C 1214   4.990   5.569   5.686 -1.3692  0.4285  0.5238
   17CHL1   C12 1215   4.723   5.560   5.612 -0.1452  0.3266  0.1699
   17CHL1  H12A 1216   4.742   5.669   5.596  0.0936  0.4364  1.1627
   17CHL1  H12B 1217   4.622   5.536   5.572 -0.0969  1.1080 -0.4522
   17CHL1   C11 1218   4.726   5.550   5.766  0.6886  0.6221  0.0123
   17CHL1  H11A 1219   4.801   5.620   5.810  0.2532  0.3819  1.1811
   17CHL1  H11B 1220   4.627   5.588   5.797  0.7566  0.8544 -0.0577
   17CHL1    C9 1221   4.747   5.413   5.824 -0.2055  0.2930 -0.3576
   17CHL1    H9 1222   4.648   5.363   5.813 -0.9602  1.5581  0.4261
   17CHL1   C10 1223   4.771   5.417   5.973  0.4416 -0.7775  0.4562
   17CHL1   C19 1224   4.900   5.501   6.015  1.3663 -0.3270 -0.2353
   17CHL1  H19A 1225   4.994   5.470   5.964  0.9200 -0.5373 -0.9514
   17CHL1  H19B 1226   4.881   5.610   6.001 -0.9639 -0.8349 -1.5249
   17CHL1  H19C 1227   4.905   5.493   6.126  0.2246 -3.0231 -0.3018
   17CHL1    C1 1228   4.645   5.470   6.038 -0.0657 -1.4234  0.5157
   17CHL1   H1A 1229   4.623   5.576   6.015  2.1058 -1.0133  0.1204
   17CHL1   H1B 1230   4.562   5.410   5.995  0.6157 -1.5753 -0.6358
   17CHL1    C2 1231   4.639   5.448   6.192  0.3778  0.2969 -0.0654
   17CHL1   H2A 1232   4.541   5.470   6.239  0.1084 -2.1524  0.6458
   17CHL1   H2B 1233   4.711   5.515   6.245 -0.6011  1.7867 -0.5503
   17CHL1   C20 1234   4.837   5.581   5.287 -0.3087  0.4810 -0.3115
   17CHL1   H20 1235   4.942   5.616   5.299 -0.7906  1.5682  1.0726
   17CHL1   C21 1236   4.744   5.692   5.309 -0.3718 -0.7058 -0.3757
   17CHL1  H21A 1237   4.641   5.652   5.305 -1.5295  2.0246 -0.5533
   17CHL1  H21B 1238   4.749   5.772   5.232 -2.9013  0.6625  0.7529
   17CHL1  H21C 1239   4.770   5.739   5.406 -2.0867  0.9941 -0.6805
   17CHL1   C22 1240   4.817   5.537   5.133  0.0112 -0.4907 -0.0274
   17CHL1  H22A 1241   4.877   5.445   5.120  1.9693  0.7209  0.0025
   17CHL1  H22B 1242   4.715   5.507   5.102  0.2399  1.5608 -3.2048
   17CHL1   C23 1243   4.870   5.637   5.032  0.1775  0.1181 -0.2746
   17CHL1  H23A 1244   4.851   5.597   4.930 -0.5754 -0.7190  0.1779
   17CHL1  H23B 1245   4.809   5.727   5.051  0.3941 -0.3224  3.2206
   17CHL1   C24 1246   5.017   5.687   5.041 -0.0982  0.2752  0.0600
   17CHL1  H24A 1247   5.046   5.744   4.951 -0.0820  0.5007  0.2083
   17CHL1  H24B 1248   5.032   5.756   5.127  1.2619 -0.1055  0.1497
   17CHL1   C25 1249   5.125   5.583   5.077  0.3434 -0.3171  0.1805
   17CHL1   H25 1250   5.077   5.508   5.143 -1.9647  1.6577  0.8597
   17CHL1   C26 1251   5.169   5.506   4.945 -0.7305 -0.0757 -0.4694
   17CHL1  H26A 1252   5.228   5.575   4.881 -0.3560  0.6807  0.6672
   17CHL1  H26B 1253   5.243   5.426   4.965  0.5505  0.7230 -1.8434
   17CHL1  H26C 1254   5.078   5.464   4.897 -0.1806 -2.7089  0.6206
   17CHL1   C27 1255   5.236   5.637   5.161 -0.3613 -0.8631 -0.2234
   17CHL1  H27A 1256   5.293   5.709   5.097 -1.0556 -3.5736 -4.2821
   17CHL1  H27B 1257   5.202   5.689   5.252 -0.5663 -1.1722 -0.1210
   17CHL1  H27C 1258   5.306   5.555   5.190  1.8015  0.5003 -1.2748
   18CHL1    C3 1259   6.427   6.583   6.580 -0.1197  0.5701 -0.3088
   18CHL1    H3 1260   6.341   6.653   6.584  0.3258  1.0725  0.8660
   18CHL1    O3 1261   6.429   6.513   6.706  0.5559  0.4150 -0.3746
   18CHL1   H3' 1262   6.449   6.423   6.680  0.9153 -0.7980  3.4532
   18CHL1    C4 1263   6.400   6.486   6.458 -0.2374  0.6268 -0.2960
   18CHL1   H4A 1264   6.479   6.408   6.466  0.4008  1.2697 -0.2915
   18CHL1   H4B 1265   6.307   6.430   6.483  0.7017  0.3158  3.1029
   18CHL1    C5 1266   6.403   6.556   6.321  0.3498  0.4190 -0.3201
   18CHL1    C6 1267   6.302   6.568   6.229  0.5507  0.1768 -0.5201
   18CHL1    H6 1268   6.202   6.529   6.255  0.6866 -0.2871 -0.6846
   18CHL1    C7 1269   6.309   6.633   6.097 -0.1318 -0.0291  0.1671
   18CHL1   H7A 1270   6.253   6.581   6.016  1.4184 -2.8343  0.7636
   18CHL1   H7B 1271   6.272   6.738   6.096  0.8500  0.4064 -3.2914
   18CHL1    C8 1272   6.456   6.666   6.051  0.1420 -0.6809  0.0683
   18CHL1    H8 1273   6.485   6.565   6.016 -0.6694 -0.9895  0.2493
   18CHL1   C14 1274   6.463   6.766   5.936 -0.1729 -0.2442 -0.7298
   18CHL1   H14 1275   6.437   6.868   5.970  2.6817 -0.2054  1.8175
   18CHL1   C15 1276   6.374   6.731   5.820  0.2432  0.6364  0.1013
   18CHL1  H15A 1277   6.390   6.623   5.802 -1.6446  0.3868 -0.3346
   18CHL1  H15B 1278   6.264   6.735   5.835  0.2561 -0.2742  0.4861
   18CHL1   C16 1279   6.442   6.796   5.703  0.1448 -0.6847 -0.6188
   18CHL1  H16A 1280   6.459   6.723   5.621 -1.0814 -0.2543 -1.2843
   18CHL1  H16B 1281   6.372   6.873   5.664  0.0879  0.6458  1.9078
   18CHL1   C17 1282   6.575   6.864   5.750 -0.3383  0.3236 -0.1295
   18CHL1   H17 1283   6.548   6.967   5.780 -0.4774  0.2683 -0.0613
   18CHL1   C13 1284   6.602   6.780   5.874 -0.5051  0.6951 -0.0446
   18CHL1   C18 1285   6.675   6.655   5.823  1.0442  0.1042 -0.8220
   18CHL1  H18A 1286   6.778   6.663   5.781  1.8607 -4.2804 -0.1880
   18CHL1  H18B 1287   6.679   6.577   5.903  0.4859  1.2644  0.3747
   18CHL1  H18C 1288   6.619   6.596   5.747 -2.3117  1.7082  0.2081
   18CHL1   C12 1289   6.691   6.844   5.984 -0.1719 -0.5152  0.1935
   18CHL1  H12A 1290   6.796   6.851   5.950 -0.3872  1.4450 -0.1771
   18CHL1  H12B 1291   6.654   6.946   6.006 -1.6237 -1.2927  1.5719
   18CHL1   C11 1292   6.685   6.749   6.105 -0.9852 -0.2290  0.2358
   18CHL1  H11A 1293   6.738   6.654   6.083 -1.0709 -0.1410 -0.3717
   18CHL1  H11B 1294   6.745   6.792   6.188 -1.4249 -1.5332  1.2567
   18CHL1    C9 1295   6.545   6.717   6.167  0.7028  0.8695  0.5169
   18CHL1    H9 1296   6.514   6.819   6.195  2.0771  1.2699  0.6845
   18CHL1   C10 1297   6.537   6.627   6.296  0.4112 -0.1470 -0.4131
   18CHL1   C19 1298   6.645   6.521   6.280  0.2229 -0.5031 -0.2139
   18CHL1  H19A 1299   6.741   6.571   6.301  0.6230 -1.1952 -0.3656
   18CHL1  H19B 1300   6.637   6.442   6.358  0.0554 -0.0787  0.2031
   18CHL1  H19C 1301   6.651   6.474   6.179 -0.4104  0.6050 -0.7856
   18CHL1    C1 1302   6.570   6.723   6.413  0.6054 -0.3137 -0.5544
   18CHL1   H1A 1303   6.671   6.766   6.394  0.2289 -0.0034 -1.9966
   18CHL1   H1B 1304   6.497   6.806   6.406 -1.5355 -2.1073 -0.6987
   18CHL1    C2 1305   6.559   6.665   6.554 -0.6080 -0.1247  0.4593
   18CHL1   H2A 1306   6.585   6.750   6.621  1.0542  1.7414 -2.3202
   18CHL1   H2B 1307   6.643   6.592   6.559 -2.4332 -2.4208 -0.4009
   18CHL1   C20 1308   6.677   6.871   5.628 -0.0345 -0.3335  0.1283
   18CHL1   H20 1309   6.691   6.766   5.593 -2.0811 -1.0025  1.1530
   18CHL1   C21 1310   6.815   6.927   5.665  0.5041  0.3054 -0.4144
   18CHL1  H21A 1311   6.878   6.854   5.720  0.7072  0.5538 -0.3112
   18CHL1  H21B 1312   6.799   7.020   5.724 -2.4509  0.7736 -1.8040
   18CHL1  H21C 1313   6.888   6.929   5.581  1.4184 -3.4546  0.1306
   18CHL1   C22 1314   6.606   6.946   5.506 -0.2164  0.3607  0.2238
   18CHL1  H22A 1315   6.509   6.901   5.476  0.4834  0.0722 -1.6934
   18CHL1  H22B 1316   6.583   7.047   5.549 -1.1212  0.4511 -0.4463
   18CHL1   C23 1317   6.684   6.955   5.375 -0.1025 -0.3355 -0.1036
   18CHL1  H23A 1318   6.634   7.035   5.318 -1.3790 -0.6959  0.4655
   18CHL1  H23B 1319   6.788   6.992   5.389 -0.3837  0.5146 -0.2165
   18CHL1   C24 1320   6.671   6.834   5.285  0.2472  0.3705 -0.5721
   18CHL1  H24A 1321   6.688   6.740   5.341 -1.5416 -0.2871 -1.0689
   18CHL1  H24B 1322   6.566   6.829   5.249 -0.7496  0.9109  2.0779
   18CHL1   C25 1323   6.757   6.860   5.157  0.9860  0.5011  0.8009
   18CHL1   H25 1324   6.860   6.884   5.191 -0.0007  1.0323  3.7326
   18CHL1   C26 1325   6.775   6.723   5.086  0.6066  0.7405 -0.1723
   18CHL1  H26A 1326   6.679   6.670   5.066  0.6998  0.1539  0.8423
   18CHL1  H26B 1327   6.830   6.732   4.990  0.9614  1.0795  0.0620
   18CHL1  H26C 1328   6.829   6.651   5.153  0.1620  1.8189  1.4046
   18CHL1   C27 1329   6.680   6.955   5.062  0.0637  0.4142  0.3183
   18CHL1  H27A 1330   6.583   6.913   5.030  1.5925 -1.1342 -2.7141
   18CHL1  H27B 1331   6.681   7.056   5.109  2.1772  0.9089 -0.6442
   18CHL1  H27C 1332   6.741   6.967   4.970  0.1406  1.6291  0.5083
   19CHL1    C3 1333   5.242   5.904   6.573 -0.1878  1.2221  0.2490
   19CHL1    H3 1334   5.328   5.974   6.572 -0.7037  1.8597 -0.0432
   19CHL1    O3 1335   5.196   5.906   6.703 -0.3175  0.3142  0.1144
   19CHL1   H3' 1336   5.268   5.949   6.750  0.4597 -0.8163  0.0134
   19CHL1    C4 1337   5.132   5.949   6.472  0.8582 -0.2958 -0.2453
   19CHL1   H4A 1338   5.033   5.899   6.480 -1.0425  2.9558 -1.5390
   19CHL1   H4B 1339   5.105   6.047   6.516 -3.4389  0.1299 -3.2876
   19CHL1    C5 1340   5.170   5.948   6.331  0.2981 -0.0315  0.7019
   19CHL1    C6 1341   5.152   6.056   6.249 -0.2480  0.4457 -0.2300
   19CHL1    H6 1342   5.094   6.144   6.282 -2.4658 -1.0421  0.0724
   19CHL1    C7 1343   5.194   6.056   6.108 -0.2320  0.5187  0.0929
   19CHL1   H7A 1344   5.115   6.098   6.042  0.5293  0.0669 -1.1488
   19CHL1   H7B 1345   5.290   6.111   6.100 -0.4844  0.9770  0.2029
   19CHL1    C8 1346   5.220   5.912   6.052  0.3477  0.5400  0.5193
   19CHL1    H8 1347   5.123   5.864   6.027  0.6070  0.7899 -1.1100
   19CHL1   C14 1348   5.296   5.923   5.917  0.3122  0.1048  0.3718
   19CHL1   H14 1349   5.390   5.974   5.946  0.8102 -0.0735 -0.8758
   19CHL1   C15 1350   5.248   6.029   5.820 -0.1040 -0.1666 -0.5577
   19CHL1  H15A 1351   5.156   5.988   5.771 -0.5765  1.8926 -1.5289
   19CHL1  H15B 1352   5.235   6.132   5.857  1.1912  0.9337 -2.9194
   19CHL1   C16 1353   5.358   6.011   5.712 -0.0774 -0.5301  1.1841
   19CHL1  H16A 1354   5.318   6.031   5.611  1.1979 -1.3486  0.4870
   19CHL1  H16B 1355   5.436   6.083   5.745  0.2763  0.0190 -0.7145
   19CHL1   C17 1356   5.413   5.864   5.722 -0.1065 -0.6250 -0.1815
   19CHL1   H17 1357   5.519   5.873   5.755  0.3421  0.2059 -1.7306
   19CHL1   C13 1358   5.331   5.797   5.844 -0.3976  0.1063  0.5257
   19CHL1   C18 1359   5.210   5.718   5.796 -0.5718  0.0032  0.3870
   19CHL1  H18A 1360   5.131   5.695   5.870  1.4313  0.3927  2.7838
   19CHL1  H18B 1361   5.158   5.768   5.712 -3.0885 -2.0431  0.6072
   19CHL1  H18C 1362   5.234   5.622   5.744  1.8343 -0.6398  2.5114
   19CHL1   C12 1363   5.402   5.708   5.946  0.5727 -0.4424  0.1390
   19CHL1  H12A 1364   5.421   5.608   5.903 -1.5356  0.1767 -2.4386
   19CHL1  H12B 1365   5.494   5.768   5.962 -0.5075  1.0576  0.9566
   19CHL1   C11 1366   5.332   5.694   6.085  0.5237 -0.4400  0.2619
   19CHL1  H11A 1367   5.246   5.625   6.075 -1.0589  1.6201 -1.1461
   19CHL1  H11B 1368   5.405   5.640   6.149  3.5125  1.8690 -0.9692
   19CHL1    C9 1369   5.297   5.829   6.151  0.1267 -0.0709  0.4023
   19CHL1    H9 1370   5.386   5.892   6.172 -1.2908  1.5703  1.8402
   19CHL1   C10 1371   5.225   5.810   6.288 -0.0884 -0.1268  0.5396
   19CHL1   C19 1372   5.103   5.712   6.278  0.1805  0.1281 -0.6331
   19CHL1  H19A 1373   5.033   5.708   6.363  0.5081  0.1719 -0.3580
   19CHL1  H19B 1374   5.040   5.746   6.193 -1.2375 -2.2561 -0.6189
   19CHL1  H19C 1375   5.137   5.609   6.253  1.5525  0.3290  0.3030
   19CHL1    C1 1376   5.329   5.749   6.384  0.6165 -0.1332 -0.0031
   19CHL1   H1A 1377   5.340   5.643   6.355  1.1747  0.1722 -0.9663
   19CHL1   H1B 1378   5.422   5.807   6.364  1.4366 -1.6456 -0.7245
   19CHL1    C2 1379   5.297   5.757   6.534 -0.0067  0.3244 -0.0256
   19CHL1   H2A 1380   5.388   5.728   6.590 -0.0942  1.0773  0.5136
   19CHL1   H2B 1381   5.207   5.693   6.545  0.1570 -0.2388 -1.6728
   19CHL1   C20 1382   5.431   5.799   5.582 -0.5372 -0.2688  0.5346
   19CHL1   H20 1383   5.329   5.788   5.540  0.1162 -1.3345 -0.8446
   19CHL1   C21 1384   5.494   5.660   5.610 -0.5387 -0.5607 -1.0347
   19CHL1  H21A 1385   5.536   5.615   5.517 -1.0116 -0.0054 -1.5317
   19CHL1  H21B 1386   5.420   5.591   5.655 -0.7089 -0.3611 -1.0073
   19CHL1  H21C 1387   5.587   5.666   5.669 -0.5511 -2.0962 -0.8109
   19CHL1   C22 1388   5.522   5.870   5.474 -0.4408  0.5588 -0.1944
   19CHL1  H22A 1389   5.504   5.977   5.499 -1.4792 -0.3443  3.6326
   19CHL1  H22B 1390   5.630   5.846   5.484 -0.3697  1.0518  0.2767
   19CHL1   C23 1391   5.488   5.859   5.323  0.8746 -0.5131 -0.3586
   19CHL1  H23A 1392   5.531   5.760   5.294  1.5180 -0.0042 -1.1998
   19CHL1  H23B 1393   5.380   5.843   5.302  1.4455 -0.9233 -3.4406
   19CHL1   C24 1394   5.548   5.973   5.242  0.7559  0.2750 -0.1233
   19CHL1  H24A 1395   5.492   6.060   5.285  1.0191  0.4744 -0.1860
   19CHL1  H24B 1396   5.658   5.968   5.256  0.5327 -2.4757  1.2194
   19CHL1   C25 1397   5.520   5.968   5.095  0.4306  0.6265 -0.5481
   19CHL1   H25 1398   5.409   5.966   5.086  0.5030 -0.9020 -1.6119
   19CHL1   C26 1399   5.570   6.093   5.029  0.0879 -0.1849  0.2880
   19CHL1  H26A 1400   5.681   6.099   5.031  0.0287  1.3723  0.1397
   19CHL1  H26B 1401   5.538   6.082   4.924  0.2804 -2.2170  0.4060
   19CHL1  H26C 1402   5.513   6.176   5.076 -1.3687 -0.7980 -0.3467
   19CHL1   C27 1403   5.578   5.839   5.030 -0.0489  0.4937 -0.3958
   19CHL1  H27A 1404   5.688   5.844   5.022  0.0573  0.6296  0.9591
   19CHL1  H27B 1405   5.546   5.746   5.082 -1.4479  2.3831  2.3562
   19CHL1  H27C 1406   5.535   5.833   4.928  1.6507  2.3693 -1.2958
   20CHL1    C3 1407   2.957   2.166   6.294 -0.3144 -0.2516 -0.2033
   20CHL1    H3 1408   2.876   2.102   6.253 -1.5937 -0.3088  2.2276
   20CHL1    O3 1409   2.947   2.153   6.435 -0.6872 -0.1291 -0.3663
   20CHL1   H3' 1410   3.013   2.218   6.459 -0.2466  0.1850 -2.2728
   20CHL1    C4 1411   3.099   2.140   6.243  0.0434 -0.2178  0.9171
   20CHL1   H4A 1412   3.169   2.190   6.313  1.3786  1.2923 -1.3941
   20CHL1   H4B 1413   3.121   2.032   6.261 -2.4944 -1.1613 -1.0491
   20CHL1    C5 1414   3.118   2.175   6.093  0.3177  0.0177 -0.1089
   20CHL1    C6 1415   3.163   2.081   6.011 -0.3533  0.1689 -1.0434
   20CHL1    H6 1416   3.188   1.984   6.056 -2.1694 -0.1370 -0.6100
   20CHL1    C7 1417   3.201   2.102   5.870 -0.0473  0.2794  0.2394
   20CHL1   H7A 1418   3.304   2.067   5.849  0.8328  2.2813  0.9351
   20CHL1   H7B 1419   3.130   2.058   5.797 -0.1624  1.8786 -0.6739
   20CHL1    C8 1420   3.193   2.252   5.819  0.6936  0.0801 -0.0926
   20CHL1    H8 1421   3.291   2.302   5.838  0.0758  1.1027  0.4786
   20CHL1   C14 1422   3.180   2.261   5.667  0.4142 -0.6640 -0.0137
   20CHL1   H14 1423   3.085   2.209   5.642 -0.7817  2.0528 -1.5222
   20CHL1   C15 1424   3.290   2.191   5.583 -0.4381  0.0960  0.5171
   20CHL1  H15A 1425   3.393   2.226   5.606 -0.7719  0.4471  1.5113
   20CHL1  H15B 1426   3.289   2.083   5.607 -1.5551  0.0145  0.1896
   20CHL1   C16 1427   3.246   2.236   5.437  0.0438  0.4098 -0.6595
   20CHL1  H16A 1428   3.328   2.258   5.365 -0.8018  1.2173 -1.4098
   20CHL1  H16B 1429   3.182   2.159   5.390 -0.3847  0.7869 -0.6990
   20CHL1   C17 1430   3.153   2.357   5.458 -0.9462 -0.0278  0.1311
   20CHL1   H17 1431   3.049   2.319   5.453 -0.5093 -1.3631  0.7049
   20CHL1   C13 1432   3.161   2.401   5.611  0.0361 -0.0654 -0.3462
   20CHL1   C18 1433   3.289   2.487   5.632 -0.6130 -0.5951  0.3226
   20CHL1  H18A 1434   3.386   2.464   5.582  0.0499  3.0537 -0.3981
   20CHL1  H18B 1435   3.270   2.589   5.593  1.4971 -0.7082 -1.2091
   20CHL1  H18C 1436   3.306   2.498   5.742 -0.4756  0.3285  0.2148
   20CHL1   C12 1437   3.031   2.462   5.674 -0.1851  0.1769 -0.2090
   20CHL1  H12A 1438   3.021   2.568   5.641 -2.1587  0.0422 -0.1762
   20CHL1  H12B 1439   2.947   2.394   5.647 -0.4573 -0.3180  1.7408
   20CHL1   C11 1440   3.049   2.460   5.832 -0.2330  0.3301 -0.5046
   20CHL1  H11A 1441   3.126   2.535   5.859 -2.6662  3.7196 -2.1924
   20CHL1  H11B 1442   2.950   2.487   5.876  0.1392  1.4143 -0.2923
   20CHL1    C9 1443   3.077   2.324   5.892 -0.5326  0.6321 -0.3280
   20CHL1    H9 1444   2.984   2.266   5.876  0.5456 -1.8607  1.6489
   20CHL1   C10 1445   3.080   2.319   6.049 -0.6032 -0.0860 -0.3736
   20CHL1   C19 1446   3.179   2.420   6.108 -0.2518 -0.6050 -0.0961
   20CHL1  H19A 1447   3.174   2.428   6.219 -0.5990  2.1780 -0.2448
   20CHL1  H19B 1448   3.283   2.406   6.075 -0.9888  0.4307 -3.1512
   20CHL1  H19C 1449   3.145   2.522   6.080  1.5557 -0.0581 -0.3997
   20CHL1    C1 1450   2.934   2.343   6.107  0.1482 -0.8491  0.2883
   20CHL1   H1A 1451   2.897   2.445   6.082  0.8029 -0.7391 -0.2780
   20CHL1   H1B 1452   2.862   2.274   6.058  0.1135 -0.8243  0.3047
   20CHL1    C2 1453   2.924   2.314   6.257 -1.1290 -0.3977  0.2171
   20CHL1   H2A 1454   2.829   2.345   6.306 -1.2574 -3.4300  2.2014
   20CHL1   H2B 1455   3.012   2.354   6.312 -2.0112  0.5668  0.9735
   20CHL1   C20 1456   3.175   2.473   5.347 -0.2534  0.0751 -0.4503
   20CHL1   H20 1457   3.277   2.516   5.345 -0.0856 -0.3185 -0.3376
   20CHL1   C21 1458   3.068   2.584   5.371 -0.2289  0.2128  0.5072
   20CHL1  H21A 1459   3.094   2.645   5.460  1.4857 -1.5636  1.2940
   20CHL1  H21B 1460   2.971   2.535   5.393  0.5358 -1.5417  0.0789
   20CHL1  H21C 1461   3.054   2.648   5.281 -0.4343 -1.1860 -0.4768
   20CHL1   C22 1462   3.150   2.410   5.201  0.9989  0.8696  0.6202
   20CHL1  H22A 1463   3.223   2.329   5.178 -2.3678 -2.9344  1.9817
   20CHL1  H22B 1464   3.048   2.366   5.201  1.5530 -0.4898  1.5612
   20CHL1   C23 1465   3.156   2.507   5.080 -0.5184  0.5775 -0.6157
   20CHL1  H23A 1466   3.114   2.464   4.987 -1.1103  1.2253 -0.6524
   20CHL1  H23B 1467   3.095   2.598   5.096  0.2280  0.9866 -0.0415
   20CHL1   C24 1468   3.306   2.556   5.072 -0.5756 -0.0784 -0.4381
   20CHL1  H24A 1469   3.324   2.643   5.140 -0.0807  0.3285 -1.0780
   20CHL1  H24B 1470   3.380   2.484   5.111  0.0056 -0.5481 -2.2985
   20CHL1   C25 1471   3.345   2.597   4.926  0.4294  0.5418 -0.0103
   20CHL1   H25 1472   3.252   2.638   4.879 -1.0198 -2.1252  0.3614
   20CHL1   C26 1473   3.458   2.695   4.915  0.3061 -0.3270 -0.1323
   20CHL1  H26A 1474   3.549   2.646   4.954 -0.4040 -1.5558  0.0260
   20CHL1  H26B 1475   3.477   2.731   4.812  2.9043  2.5212  1.1908
   20CHL1  H26C 1476   3.439   2.788   4.973  2.6272 -1.4639  2.6741
   20CHL1   C27 1477   3.381   2.469   4.847  0.2913 -0.5160 -0.4675
   20CHL1  H27A 1478   3.299   2.396   4.836 -0.5400 -0.0954  2.2528
   20CHL1  H27B 1479   3.395   2.502   4.742 -2.6484 -0.4779 -0.9118
   20CHL1  H27C 1480   3.460   2.403   4.889  1.7242  0.4240 -1.5441
   21CHL1    C3 1481   2.388   1.478   5.998  0.4580 -0.6448 -0.0326
   21CHL1    H3 1482   2.411   1.369   5.995  0.1481 -0.6840 -1.8006
   21CHL1    O3 1483   2.357   1.512   6.130 -0.0192 -0.8721 -0.0840
   21CHL1   H3' 1484   2.441   1.510   6.176  0.5005 -2.2109 -1.0289
   21CHL1    C4 1485   2.517   1.560   5.955  0.0569 -0.0939 -0.2569
   21CHL1   H4A 1486   2.490   1.667   5.968  2.1328  0.4345  0.1437
   21CHL1   H4B 1487   2.593   1.533   6.031 -0.3198  1.9592  0.9235
   21CHL1    C5 1488   2.566   1.532   5.811 -0.3945  0.1804  0.2059
   21CHL1    C6 1489   2.683   1.477   5.782 -0.4719  0.2495 -0.4487
   21CHL1    H6 1490   2.759   1.474   5.861  0.3298  0.1185 -1.2146
   21CHL1    C7 1491   2.730   1.439   5.641  0.0755 -0.1419 -0.1402
   21CHL1   H7A 1492   2.833   1.479   5.631  0.6403 -1.4114  0.3383
   21CHL1   H7B 1493   2.731   1.328   5.631  1.3471 -0.2696  1.0913
   21CHL1    C8 1494   2.642   1.504   5.532 -0.4647  0.6390 -0.5967
   21CHL1    H8 1495   2.668   1.612   5.529  2.0038  0.2376  1.9357
   21CHL1   C14 1496   2.661   1.435   5.403 -0.2236 -0.5182  0.4593
   21CHL1   H14 1497   2.633   1.329   5.425 -3.0222  0.5972  3.0100
   21CHL1   C15 1498   2.806   1.426   5.345  0.2802 -0.1306 -0.3316
   21CHL1  H15A 1499   2.872   1.516   5.346  0.2442 -0.1035 -0.0656
   21CHL1  H15B 1500   2.854   1.336   5.389  2.0078  0.7750 -0.2682
   21CHL1   C16 1501   2.783   1.400   5.199 -1.0310  0.5474 -0.3714
   21CHL1  H16A 1502   2.833   1.475   5.133 -0.9022  0.9188  0.1461
   21CHL1  H16B 1503   2.829   1.301   5.179 -1.8837  0.1477 -0.3865
   21CHL1   C17 1504   2.634   1.382   5.174  0.3674  0.0227 -0.2510
   21CHL1   H17 1505   2.608   1.278   5.201 -0.1673 -0.8070 -3.5503
   21CHL1   C13 1506   2.572   1.478   5.282  0.2197  0.4000  0.2756
   21CHL1   C18 1507   2.604   1.624   5.247  0.2288  0.0390 -0.3414
   21CHL1  H18A 1508   2.530   1.653   5.169  0.2146 -2.2224 -1.2424
   21CHL1  H18B 1509   2.589   1.683   5.340  0.7954 -0.6152  0.1713
   21CHL1  H18C 1510   2.707   1.634   5.208 -0.0517  1.0866 -0.8512
   21CHL1   C12 1511   2.422   1.456   5.315 -0.3597  0.1901  0.1242
   21CHL1  H12A 1512   2.361   1.497   5.231 -0.3702 -0.1989 -0.0624
   21CHL1  H12B 1513   2.408   1.347   5.323 -3.6024  0.4629 -0.3491
   21CHL1   C11 1514   2.393   1.523   5.450 -0.6752 -0.4486 -0.7225
   21CHL1  H11A 1515   2.398   1.632   5.429 -0.8069 -0.3252 -0.1383
   21CHL1  H11B 1516   2.289   1.490   5.470 -0.2537 -1.5230 -0.2542
   21CHL1    C9 1517   2.492   1.493   5.564  0.3464  0.1746 -1.8056
   21CHL1    H9 1518   2.471   1.385   5.580 -1.3200  0.5587 -1.1495
   21CHL1   C10 1519   2.454   1.554   5.704  0.5956 -0.7280 -0.1204
   21CHL1   C19 1520   2.420   1.707   5.678 -0.5134  0.5123 -0.0762
   21CHL1  H19A 1521   2.502   1.759   5.624 -0.4830  0.6881  0.1331
   21CHL1  H19B 1522   2.323   1.707   5.625 -0.2112  0.2183 -0.6300
   21CHL1  H19C 1523   2.395   1.757   5.775 -1.3395  0.9992 -0.5337
   21CHL1    C1 1524   2.322   1.480   5.758 -0.5788  0.2449  0.1232
   21CHL1   H1A 1525   2.232   1.490   5.694 -0.1816  0.8170 -0.3624
   21CHL1   H1B 1526   2.352   1.374   5.766 -0.9176  0.1871  0.7082
   21CHL1    C2 1527   2.282   1.525   5.896 -0.2109  0.2779 -0.3800
   21CHL1   H2A 1528   2.189   1.474   5.927  1.5264 -1.3298  2.6689
   21CHL1   H2B 1529   2.264   1.634   5.905  0.0444  0.4533 -1.7963
   21CHL1   C20 1530   2.595   1.396   5.031  0.0703 -0.2777 -1.0114
   21CHL1   H20 1531   2.594   1.505   5.009 -3.3683  1.2430  4.5462
   21CHL1   C21 1532   2.454   1.342   4.996  0.1738  0.1055 -0.1397
   21CHL1  H21A 1533   2.440   1.240   5.038  2.2000 -0.0553  0.2346
   21CHL1  H21B 1534   2.431   1.348   4.887  4.4186 -2.4539 -1.4190
   21CHL1  H21C 1535   2.375   1.395   5.054 -1.7225 -1.0425 -1.5795
   21CHL1   C22 1536   2.699   1.347   4.927  0.5898  0.0408 -0.4405
   21CHL1  H22A 1537   2.650   1.372   4.830 -0.5239  0.1113  0.1216
   21CHL1  H22B 1538   2.789   1.410   4.934  0.3093  0.2730  1.5075
   21CHL1   C23 1539   2.741   1.198   4.923  0.4261  0.4022 -0.2623
   21CHL1  H23A 1540   2.792   1.162   5.015 -0.6909 -0.9504 -0.1383
   21CHL1  H23B 1541   2.653   1.133   4.902 -0.1399  2.1435 -4.0886
   21CHL1   C24 1542   2.847   1.167   4.815  0.3578  0.0691 -0.2968
   21CHL1  H24A 1543   2.802   1.178   4.714  1.2096  1.4609 -0.5470
   21CHL1  H24B 1544   2.930   1.239   4.828 -0.0227  0.6367 -0.9555
   21CHL1   C25 1545   2.912   1.025   4.825  0.5921 -0.0018 -0.0831
   21CHL1   H25 1546   2.966   1.017   4.922 -1.8178 -2.2689  1.2139
   21CHL1   C26 1547   2.820   0.910   4.817  0.0179  0.2692 -0.7223
   21CHL1  H26A 1548   2.748   0.922   4.733 -0.8163 -0.9516 -0.2234
   21CHL1  H26B 1549   2.877   0.818   4.789 -1.4931 -0.1173 -2.8141
   21CHL1  H26C 1550   2.754   0.897   4.906 -0.2033 -0.5369 -0.9943
   21CHL1   C27 1551   3.026   1.011   4.719 -0.1800 -0.7191  0.2442
   21CHL1  H27A 1552   2.971   0.984   4.627  1.7167 -0.1442 -1.1362
   21CHL1  H27B 1553   3.087   1.104   4.708 -0.7029 -0.5240 -1.2408
   21CHL1  H27C 1554   3.086   0.922   4.746 -1.3725 -1.0539  1.9210
   22CHL1    C3 1555   3.833   5.672   6.101 -0.4617 -0.0357  0.3578
   22CHL1    H3 1556   3.940   5.663   6.129 -0.9956  0.5396  2.8540
   22CHL1    O3 1557   3.766   5.697   6.223  0.2789 -0.9645  0.7492
   22CHL1   H3' 1558   3.824   5.757   6.270 -0.6298  1.2072 -0.7390
   22CHL1    C4 1559   3.795   5.780   5.995  0.4413 -0.6453  0.2851
   22CHL1   H4A 1560   3.685   5.789   5.992  0.4688 -0.4740 -1.5891
   22CHL1   H4B 1561   3.820   5.878   6.041 -1.6418 -0.3003  0.7702
   22CHL1    C5 1562   3.849   5.755   5.856 -0.5260 -0.2911 -0.4634
   22CHL1    C6 1563   3.918   5.847   5.786  0.2425  0.0059  0.0372
   22CHL1    H6 1564   3.938   5.946   5.828 -2.4394  0.2642  0.8967
   22CHL1    C7 1565   3.948   5.832   5.640  0.2103 -0.7421 -0.0327
   22CHL1   H7A 1566   3.925   5.925   5.583  0.6698 -0.4086  0.3162
   22CHL1   H7B 1567   4.059   5.823   5.635  0.3964  1.5704 -2.0337
   22CHL1    C8 1568   3.877   5.710   5.571 -0.4192 -0.3761 -1.3884
   22CHL1    H8 1569   3.771   5.736   5.549 -0.7176 -0.0825  0.2804
   22CHL1   C14 1570   3.946   5.684   5.438  0.2571 -0.5612 -0.3512
   22CHL1   H14 1571   4.056   5.669   5.450  0.2684  0.2808  0.7594
   22CHL1   C15 1572   3.932   5.802   5.336 -0.0685  0.8083 -0.1761
   22CHL1  H15A 1573   3.832   5.850   5.338 -0.0483  0.8460  0.0075
   22CHL1  H15B 1574   4.012   5.875   5.362  0.8501  0.5590 -2.1244
   22CHL1   C16 1575   3.961   5.729   5.201  0.4082  0.4494  0.4298
   22CHL1  H16A 1576   3.881   5.759   5.130  1.1466 -1.6810 -1.4045
   22CHL1  H16B 1577   4.058   5.740   5.149 -0.1147  0.4468 -0.5695
   22CHL1   C17 1578   3.945   5.577   5.226 -0.5830  0.2899  0.3867
   22CHL1   H17 1579   4.050   5.541   5.233  0.3385  2.4376 -1.1389
   22CHL1   C13 1580   3.885   5.565   5.365  0.1982  0.9010 -0.1264
   22CHL1   C18 1581   3.732   5.580   5.337  1.2333 -0.0857  0.0183
   22CHL1  H18A 1582   3.688   5.493   5.283 -1.2305  0.0158  1.7004
   22CHL1  H18B 1583   3.670   5.584   5.429  1.5828  1.2301  0.2109
   22CHL1  H18C 1584   3.720   5.668   5.272 -0.6458 -0.5728 -0.3552
   22CHL1   C12 1585   3.917   5.440   5.452 -0.2353 -0.2805  0.3414
   22CHL1  H12A 1586   3.881   5.349   5.399  0.0195 -0.9301  1.2481
   22CHL1  H12B 1587   4.024   5.415   5.464 -0.1111  0.9051  2.0186
   22CHL1   C11 1588   3.847   5.455   5.589 -0.0536 -0.0216 -0.0922
   22CHL1  H11A 1589   3.740   5.443   5.562 -0.2300  1.6405 -0.1966
   22CHL1  H11B 1590   3.883   5.370   5.651 -0.9263  1.0265  1.9360
   22CHL1    C9 1591   3.884   5.583   5.668 -0.5303 -0.8127  0.2577
   22CHL1    H9 1592   3.993   5.575   5.684 -0.1342 -1.0801 -2.2094
   22CHL1   C10 1593   3.812   5.623   5.800  0.1075  0.3520  0.2049
   22CHL1   C19 1594   3.654   5.631   5.773 -0.0557 -0.0114  0.3316
   22CHL1  H19A 1595   3.639   5.706   5.692 -1.6190 -1.4869 -0.8236
   22CHL1  H19B 1596   3.616   5.535   5.732  2.2143 -0.8817  0.1423
   22CHL1  H19C 1597   3.600   5.653   5.868 -1.0468 -0.0480 -0.2099
   22CHL1    C1 1598   3.847   5.507   5.900  0.0660 -0.0787 -0.4080
   22CHL1   H1A 1599   3.799   5.422   5.847 -0.4953 -0.8159  1.2198
   22CHL1   H1B 1600   3.958   5.497   5.908  0.0967  0.4711 -0.1505
   22CHL1    C2 1601   3.789   5.536   6.040 -0.3570  0.2244  0.3877
   22CHL1   H2A 1602   3.810   5.455   6.113 -2.0281 -0.2390  0.4125
   22CHL1   H2B 1603   3.678   5.540   6.035 -0.4485  0.1065  1.9281
   22CHL1   C20 1604   3.883   5.501   5.106  0.2159 -0.0959  0.8849
   22CHL1   H20 1605   3.782   5.545   5.091  0.2582  0.1185  1.2187
   22CHL1   C21 1606   3.883   5.352   5.127 -0.5722  0.0034  0.4631
   22CHL1  H21A 1607   3.871   5.290   5.036 -2.4552 -1.2297  1.5120
   22CHL1  H21B 1608   3.809   5.329   5.206  1.3696 -1.1929  2.0196
   22CHL1  H21C 1609   3.977   5.324   5.179 -1.1524 -1.5858  0.6989
   22CHL1   C22 1610   3.951   5.538   4.961  0.3617  0.0623 -0.3155
   22CHL1  H22A 1611   3.955   5.649   4.956  2.2108  0.0966  0.9485
   22CHL1  H22B 1612   4.056   5.505   4.949  0.5615  0.8996 -0.9270
   22CHL1   C23 1613   3.855   5.495   4.849  0.0581  0.7534 -0.8730
   22CHL1  H23A 1614   3.842   5.384   4.848 -4.0305  1.0805 -1.3467
   22CHL1  H23B 1615   3.756   5.543   4.862 -0.8660 -0.6569 -2.2382
   22CHL1   C24 1616   3.904   5.543   4.714  0.2918 -0.2164 -0.5062
   22CHL1  H24A 1617   3.945   5.645   4.730 -2.1579  1.0498 -1.7257
   22CHL1  H24B 1618   3.987   5.483   4.671  0.4589  0.4486 -1.1310
   22CHL1   C25 1619   3.792   5.552   4.616  0.3996  0.1033  0.8312
   22CHL1   H25 1620   3.737   5.457   4.637  0.9020 -0.4438 -0.2809
   22CHL1   C26 1621   3.696   5.670   4.639  0.2422  0.4193 -0.4295
   22CHL1  H26A 1622   3.766   5.753   4.661  3.2727 -2.1701  0.5163
   22CHL1  H26B 1623   3.625   5.680   4.554 -1.6109  1.6295  1.1933
   22CHL1  H26C 1624   3.627   5.648   4.723  0.2866 -0.6984 -0.6627
   22CHL1   C27 1625   3.850   5.548   4.478 -0.2161  0.0710 -0.8045
   22CHL1  H27A 1626   3.910   5.456   4.461  1.6153  0.8603  1.0167
   22CHL1  H27B 1627   3.778   5.562   4.394  2.2219  1.9196 -2.7478
   22CHL1  H27C 1628   3.919   5.632   4.453 -1.6626  1.3482 -0.7004
   23CHL1    C3 1629   5.845   2.085   5.988  0.7377  0.3216 -0.5073
   23CHL1    H3 1630   5.761   2.014   5.998  1.1295  0.0621  1.3167
   23CHL1    O3 1631   5.878   2.146   6.117 -0.1587  0.1950 -0.1051
   23CHL1   H3' 1632   5.954   2.202   6.102  0.4029 -1.0429 -2.4130
   23CHL1    C4 1633   5.958   2.008   5.923  0.1882  0.6553  0.6374
   23CHL1   H4A 1634   6.039   2.082   5.902  1.6128 -1.1437 -0.4551
   23CHL1   H4B 1635   5.984   1.919   5.983  1.4751 -0.4585 -1.4706
   23CHL1    C5 1636   5.931   1.962   5.779  0.5735 -0.0442  0.1554
   23CHL1    C6 1637   5.953   1.837   5.738  0.2784  0.4760 -0.0068
   23CHL1    H6 1638   5.985   1.759   5.809  0.7460  0.6618 -0.0102
   23CHL1    C7 1639   5.944   1.794   5.594  0.3418  0.2279  0.7673
   23CHL1   H7A 1640   6.033   1.734   5.565 -0.3942 -0.5648  0.0684
   23CHL1   H7B 1641   5.867   1.715   5.587  0.5753  0.0205  0.4961
   23CHL1    C8 1642   5.923   1.910   5.492  0.1679  0.0327  0.3921
   23CHL1    H8 1643   6.017   1.963   5.468 -0.5510  2.3704  2.2639
   23CHL1   C14 1644   5.870   1.850   5.361 -0.7089 -0.3259  0.0040
   23CHL1   H14 1645   5.779   1.798   5.398  0.3300 -0.7967  2.0806
   23CHL1   C15 1646   5.955   1.743   5.296 -0.5880 -0.5623  0.2520
   23CHL1  H15A 1647   6.060   1.775   5.280 -0.9566  0.6634  0.2170
   23CHL1  H15B 1648   5.960   1.652   5.359  2.1070  0.0332  1.0135
   23CHL1   C16 1649   5.886   1.726   5.165  0.0611 -0.3072  0.5951
   23CHL1  H16A 1650   5.964   1.715   5.087 -1.2228 -3.0442 -0.4618
   23CHL1  H16B 1651   5.830   1.630   5.155  1.7150 -1.1886 -0.8383
   23CHL1   C17 1652   5.783   1.850   5.141 -0.7749  0.2287 -0.5251
   23CHL1   H17 1653   5.689   1.806   5.181 -0.6540  2.2813  2.2979
   23CHL1   C13 1654   5.824   1.952   5.249  0.4353  0.6372  0.3854
   23CHL1   C18 1655   5.947   2.030   5.195 -0.1837 -0.3533  0.5534
   23CHL1  H18A 1656   5.918   2.116   5.130  0.3759 -1.0783 -0.6994
   23CHL1  H18B 1657   6.014   2.065   5.275  3.2381  0.4960 -2.4423
   23CHL1  H18C 1658   6.018   1.962   5.142 -0.2868  0.6331 -0.8996
   23CHL1   C12 1659   5.713   2.037   5.311  0.6304  0.5587  0.1641
   23CHL1  H12A 1660   5.682   2.111   5.233  1.2939  1.7925  1.0312
   23CHL1  H12B 1661   5.630   1.969   5.339  2.3886 -1.1881  1.3911
   23CHL1   C11 1662   5.762   2.106   5.438 -0.3703 -0.2693 -0.2873
   23CHL1  H11A 1663   5.849   2.168   5.407 -1.4383  0.5187 -1.7874
   23CHL1  H11B 1664   5.687   2.174   5.481  0.2611  0.5699 -0.4922
   23CHL1    C9 1665   5.818   2.014   5.550 -0.0349  0.6020 -0.2017
   23CHL1    H9 1666   5.736   1.948   5.585 -1.4999  0.3500 -3.7325
   23CHL1   C10 1667   5.874   2.073   5.679  0.7332 -0.0817 -0.4447
   23CHL1   C19 1668   5.981   2.168   5.645  0.1466 -0.0755  0.0142
   23CHL1  H19A 1669   5.950   2.247   5.574 -0.8781  0.4989  1.0729
   23CHL1  H19B 1670   6.012   2.233   5.729  1.3981 -1.7353  0.8948
   23CHL1  H19C 1671   6.073   2.118   5.606 -0.3320 -1.3950  0.5151
   23CHL1    C1 1672   5.762   2.148   5.751 -0.2611 -0.0800 -0.1775
   23CHL1   H1A 1673   5.718   2.237   5.700  3.7797  1.9620 -0.5349
   23CHL1   H1B 1674   5.679   2.077   5.770  0.7699 -1.0096  0.9790
   23CHL1    C2 1675   5.782   2.191   5.899 -0.5156  0.1341 -0.4674
   23CHL1   H2A 1676   5.690   2.238   5.941  1.9882  2.8068  2.5450
   23CHL1   H2B 1677   5.850   2.278   5.887 -1.9479  1.6630  1.8625
   23CHL1   C20 1678   5.774   1.902   4.996  0.5278 -0.2221  0.4716
   23CHL1   H20 1679   5.869   1.943   4.956 -0.8880  2.2325 -0.5677
   23CHL1   C21 1680   5.666   2.013   4.994  0.7410  1.1935 -0.5722
   23CHL1  H21A 1681   5.638   2.032   4.888 -2.1730 -1.6972 -0.4886
   23CHL1  H21B 1682   5.701   2.108   5.040 -0.1495  1.3385 -0.1844
   23CHL1  H21C 1683   5.582   1.976   5.056  1.6221 -0.6402 -0.3881
   23CHL1   C22 1684   5.747   1.787   4.897  0.1679 -0.2330 -0.2857
   23CHL1  H22A 1685   5.803   1.694   4.923  0.9677  0.4612  0.5090
   23CHL1  H22B 1686   5.639   1.760   4.903 -0.2298  1.5911  2.4384
   23CHL1   C23 1687   5.785   1.817   4.748 -0.0633  0.2160 -1.0558
   23CHL1  H23A 1688   5.758   1.736   4.675  0.3976 -3.2007  2.2572
   23CHL1  H23B 1689   5.732   1.912   4.723 -2.0593 -0.2924  0.8992
   23CHL1   C24 1690   5.937   1.838   4.729  0.2551 -0.0280  0.7598
   23CHL1  H24A 1691   5.967   1.933   4.779  0.0597  0.6838 -0.4382
   23CHL1  H24B 1692   5.988   1.751   4.776  1.0182  0.2382  0.4396
   23CHL1   C25 1693   5.993   1.861   4.584 -0.2525 -0.2957 -0.6305
   23CHL1   H25 1694   5.955   1.958   4.548  1.2185 -0.0801 -1.6963
   23CHL1   C26 1695   6.145   1.868   4.582 -0.5140  0.5826  0.1133
   23CHL1  H26A 1696   6.193   1.910   4.491 -0.2107 -1.4176 -0.7255
   23CHL1  H26B 1697   6.176   1.913   4.678  3.8487 -0.3298 -0.6514
   23CHL1  H26C 1698   6.177   1.761   4.589  0.8667  0.9196 -0.6625
   23CHL1   C27 1699   5.945   1.753   4.487 -0.1722 -0.4004 -0.0442
   23CHL1  H27A 1700   5.994   1.661   4.525 -1.2862 -1.1356 -0.3396
   23CHL1  H27B 1701   5.834   1.752   4.483 -0.1352 -0.7187 -2.4423
   23CHL1  H27C 1702   5.978   1.780   4.385 -1.3676  0.5732 -0.1874
   24CHL1    C3 1703   2.168   4.744   6.288 -0.6266  0.1845 -0.0475
   24CHL1    H3 1704   2.126   4.647   6.255  1.7036 -0.6508 -0.7917
   24CHL1    O3 1705   2.252   4.722   6.402  0.8428 -0.3956 -0.3819
   24CHL1   H3' 1706   2.262   4.814   6.426  0.2402 -0.3377 -0.3142
   24CHL1    C4 1707   2.260   4.798   6.178 -0.2472 -0.3153 -0.1787
   24CHL1   H4A 1708   2.315   4.892   6.200 -1.1506  0.0084  0.7623
   24CHL1   H4B 1709   2.329   4.711   6.169 -0.6947 -0.6356 -0.5768
   24CHL1    C5 1710   2.176   4.817   6.053 -0.4314 -0.0886  0.2333
   24CHL1    C6 1711   2.197   4.741   5.941 -0.0790 -0.6056  1.1444
   24CHL1    H6 1712   2.279   4.668   5.933 -0.2958 -0.7002 -0.5285
   24CHL1    C7 1713   2.123   4.770   5.816  0.1270 -0.5016  0.4481
   24CHL1   H7A 1714   2.194   4.770   5.731  1.1530 -1.1158  1.2827
   24CHL1   H7B 1715   2.059   4.680   5.804 -2.3077  0.7931  2.6079
   24CHL1    C8 1716   2.034   4.900   5.814 -0.1967  0.1720 -0.1528
   24CHL1    H8 1717   2.099   4.991   5.818 -0.5404  0.3941  0.5775
   24CHL1   C14 1718   1.948   4.918   5.700 -0.2386 -0.3569  0.1093
   24CHL1   H14 1719   1.876   4.835   5.712 -1.1235  0.5237  1.1340
   24CHL1   C15 1720   2.014   4.910   5.560  0.3266 -0.2597  0.5068
   24CHL1  H15A 1721   2.092   4.990   5.563  0.1748 -0.1264  0.9652
   24CHL1  H15B 1722   2.054   4.809   5.537 -1.2403 -0.6431 -0.6975
   24CHL1   C16 1723   1.896   4.952   5.465  0.1796 -0.4366  0.7774
   24CHL1  H16A 1724   1.938   5.030   5.397 -0.6528  0.0946  0.8538
   24CHL1  H16B 1725   1.862   4.869   5.400  0.0850 -1.0884  1.6391
   24CHL1   C17 1726   1.786   5.011   5.552 -0.4803 -0.4870 -0.3596
   24CHL1   H17 1727   1.717   4.924   5.560 -0.1620 -0.8872 -1.7719
   24CHL1   C13 1728   1.849   5.040   5.698  0.6079  0.1390  0.1468
   24CHL1   C18 1729   1.934   5.173   5.702 -0.0155  0.3202 -0.1394
   24CHL1  H18A 1730   1.860   5.254   5.725 -1.3043 -1.0988  0.9548
   24CHL1  H18B 1731   2.012   5.181   5.780  1.1639  2.0212 -1.4094
   24CHL1  H18C 1732   1.986   5.184   5.605 -2.9713 -0.6465 -1.9545
   24CHL1   C12 1733   1.764   5.017   5.828  0.0391 -0.1989  0.5259
   24CHL1  H12A 1734   1.672   5.078   5.829  0.1610  0.0655 -1.2336
   24CHL1  H12B 1735   1.715   4.918   5.818 -2.7144  1.1583 -0.1897
   24CHL1   C11 1736   1.851   5.022   5.950  0.0485  0.0277  0.3021
   24CHL1  H11A 1737   1.908   5.116   5.958 -0.4746  0.2117  2.4135
   24CHL1  H11B 1738   1.791   5.017   6.043 -1.7056  2.5684 -0.5796
   24CHL1    C9 1739   1.962   4.916   5.947  0.0654  0.4564 -0.1998
   24CHL1    H9 1740   1.903   4.823   5.963 -1.6119  1.3769 -0.7649
   24CHL1   C10 1741   2.061   4.916   6.064 -0.0944  0.1426 -0.0130
   24CHL1   C19 1742   2.138   5.052   6.073  0.0364 -0.3781  0.0999
   24CHL1  H19A 1743   2.184   5.058   6.174  3.6913 -0.6761 -1.3883
   24CHL1  H19B 1744   2.215   5.077   5.997  1.0521 -2.2920  0.4393
   24CHL1  H19C 1745   2.066   5.136   6.066  0.7897  0.1670 -2.5654
   24CHL1    C1 1746   1.979   4.886   6.196 -0.1658 -0.3099  0.4436
   24CHL1   H1A 1747   1.931   4.981   6.226 -0.5111 -0.4672  0.3905
   24CHL1   H1B 1748   1.905   4.805   6.177  2.6083 -3.1866  0.9868
   24CHL1    C2 1749   2.057   4.838   6.317 -0.0517 -0.4416 -0.3303
   24CHL1   H2A 1750   1.985   4.803   6.394 -0.6129  0.0663 -0.6116
   24CHL1   H2B 1751   2.114   4.916   6.371  1.1308 -2.9131  2.2079
   24CHL1   C20 1752   1.714   5.124   5.492  0.2393 -0.0859  0.4383
   24CHL1   H20 1753   1.786   5.207   5.474  1.7915 -1.1431  1.4714
   24CHL1   C21 1754   1.596   5.172   5.590  0.2692  0.3550 -0.0682
   24CHL1  H21A 1755   1.528   5.237   5.531 -0.1827  1.0611  1.1877
   24CHL1  H21B 1756   1.626   5.226   5.683 -1.3980  2.9425 -0.9125
   24CHL1  H21C 1757   1.549   5.079   5.627 -1.2005  0.1516 -2.3057
   24CHL1   C22 1758   1.665   5.088   5.348  0.0092 -0.2545 -0.6426
   24CHL1  H22A 1759   1.756   5.063   5.288  1.1406  0.1919  0.8318
   24CHL1  H22B 1760   1.600   4.998   5.358 -0.9033  0.3960 -0.6290
   24CHL1   C23 1761   1.604   5.213   5.274  0.1121  0.2449  0.0494
   24CHL1  H23A 1762   1.500   5.228   5.309 -1.6874 -3.3952 -3.0426
   24CHL1  H23B 1763   1.659   5.305   5.303  0.4315 -0.4052  1.6321
   24CHL1   C24 1764   1.592   5.219   5.120 -0.6000  0.4214 -0.4321
   24CHL1  H24A 1765   1.697   5.206   5.087 -0.2496 -0.0781  0.7919
   24CHL1  H24B 1766   1.531   5.139   5.074 -1.6140  1.2273 -0.5145
   24CHL1   C25 1767   1.548   5.355   5.065  0.0949 -0.3994 -0.1708
   24CHL1   H25 1768   1.623   5.429   5.101 -0.7373  0.0751  0.6123
   24CHL1   C26 1769   1.547   5.350   4.911 -0.0179 -0.3254 -0.1105
   24CHL1  H26A 1770   1.648   5.354   4.866  0.0677 -2.2857 -0.1729
   24CHL1  H26B 1771   1.494   5.260   4.872 -0.0719 -0.4182  0.1678
   24CHL1  H26C 1772   1.483   5.433   4.873  0.1420  0.2581  0.8419
   24CHL1   C27 1773   1.409   5.397   5.116  0.0094 -0.2644 -0.2070
   24CHL1  H27A 1774   1.332   5.328   5.074 -1.2250 -0.3208  2.0097
   24CHL1  H27B 1775   1.400   5.383   5.225 -0.3407 -1.7219 -0.3931
   24CHL1  H27C 1776   1.380   5.500   5.086  1.4120 -0.2043 -1.4885
   25CHL1    C3 1777   3.470   4.038   6.575  0.4836  0.5883 -0.2338
   25CHL1    H3 1778   3.567   3.990   6.600 -0.0109 -0.5020 -0.3738
   25CHL1    O3 1779   3.390   4.039   6.695  0.0876 -0.1945 -0.0283
   25CHL1   H3' 1780   3.300   4.062   6.668  0.6342  2.8282  0.3892
   25CHL1    C4 1781   3.495   4.179   6.525 -0.4164  0.1156 -0.4891
   25CHL1   H4A 1782   3.395   4.224   6.513 -0.4908  0.1218  0.1075
   25CHL1   H4B 1783   3.551   4.236   6.602 -0.5611  1.3148 -1.2458
   25CHL1    C5 1784   3.568   4.201   6.397 -0.1238  0.4317  0.0627
   25CHL1    C6 1785   3.680   4.270   6.387 -0.3660  0.3798  0.2538
   25CHL1    H6 1786   3.718   4.311   6.482  0.2360 -2.9315  1.5720
   25CHL1    C7 1787   3.739   4.313   6.256 -0.2768  0.1987  0.4256
   25CHL1   H7A 1788   3.761   4.422   6.260  2.1018 -0.0767 -1.9317
   25CHL1   H7B 1789   3.838   4.264   6.244 -0.7058 -0.2122 -1.9338
   25CHL1    C8 1790   3.649   4.275   6.135 -0.2064 -0.2198  0.5104
   25CHL1    H8 1791   3.564   4.347   6.129 -1.9063 -2.2224 -0.8680
   25CHL1   C14 1792   3.733   4.285   6.009  0.1379 -1.2157 -0.4115
   25CHL1   H14 1793   3.813   4.209   6.021  1.7562  0.7056  2.2439
   25CHL1   C15 1794   3.812   4.420   5.981  0.0309  0.5866 -0.4658
   25CHL1  H15A 1795   3.740   4.499   6.011 -1.9312 -0.9351 -0.9755
   25CHL1  H15B 1796   3.909   4.433   6.032  0.5497 -3.5961 -0.0275
   25CHL1   C16 1797   3.836   4.417   5.826 -0.4677 -0.0196  0.2011
   25CHL1  H16A 1798   3.787   4.512   5.796 -0.8777  0.5824  2.5420
   25CHL1  H16B 1799   3.946   4.427   5.816 -0.4540  0.6664  0.9623
   25CHL1   C17 1800   3.763   4.281   5.776 -0.5545 -0.5645  0.2580
   25CHL1   H17 1801   3.835   4.200   5.799 -0.2493  0.0618  1.6199
   25CHL1   C13 1802   3.649   4.262   5.884 -0.5878 -0.0590  0.1169
   25CHL1   C18 1803   3.541   4.367   5.862  0.2413 -0.7658 -0.3819
   25CHL1  H18A 1804   3.471   4.349   5.778 -0.2213  0.5912 -0.3053
   25CHL1  H18B 1805   3.478   4.388   5.950  1.9923 -0.1999  0.7904
   25CHL1  H18C 1806   3.585   4.465   5.832  1.0777  0.2825  3.6456
   25CHL1   C12 1807   3.598   4.115   5.889 -0.2292 -0.1363  0.3495
   25CHL1  H12A 1808   3.531   4.083   5.806 -0.4701 -2.5190  1.4044
   25CHL1  H12B 1809   3.689   4.053   5.896 -0.0507  0.2702  2.2263
   25CHL1   C11 1810   3.519   4.090   6.019  0.3997 -1.0780 -0.4192
   25CHL1  H11A 1811   3.427   4.153   6.018  1.0973  0.0560  1.4618
   25CHL1  H11B 1812   3.498   3.982   6.030  0.8031 -1.1211 -0.0370
   25CHL1    C9 1813   3.594   4.129   6.146  0.3285 -0.6708  0.5372
   25CHL1    H9 1814   3.674   4.053   6.162  0.0906 -0.8783  0.7466
   25CHL1   C10 1815   3.505   4.125   6.281  0.3619 -0.3081 -0.2123
   25CHL1   C19 1816   3.360   4.190   6.249  0.1962  0.3752  0.6912
   25CHL1  H19A 1817   3.298   4.221   6.336 -1.1813  0.8135 -0.4182
   25CHL1  H19B 1818   3.375   4.284   6.192 -1.3336  1.3667  1.8398
   25CHL1  H19C 1819   3.299   4.118   6.192 -0.4334 -1.1566  3.1312
   25CHL1    C1 1820   3.485   3.983   6.324 -0.0431  0.1490 -0.7072
   25CHL1   H1A 1821   3.444   3.918   6.244  2.4838 -1.1764 -1.0627
   25CHL1   H1B 1822   3.585   3.938   6.344  1.5310  2.6162 -2.5589
   25CHL1    C2 1823   3.405   3.963   6.454 -0.6376  0.2218 -0.5020
   25CHL1   H2A 1824   3.380   3.858   6.481 -0.4683  0.3365  0.1096
   25CHL1   H2B 1825   3.303   4.005   6.439 -1.3954 -2.0748 -2.4860
   25CHL1   C20 1826   3.730   4.297   5.628 -0.2529 -0.3597 -0.4108
   25CHL1   H20 1827   3.646   4.368   5.612  0.5003  0.2044 -2.1353
   25CHL1   C21 1828   3.688   4.163   5.577 -0.0117  0.0804  0.1467
   25CHL1  H21A 1829   3.598   4.127   5.632 -0.4593 -0.9591 -1.2121
   25CHL1  H21B 1830   3.774   4.094   5.591  0.5975 -0.4084 -4.5325
   25CHL1  H21C 1831   3.669   4.158   5.468  1.9815  2.1776 -0.3724
   25CHL1   C22 1832   3.842   4.367   5.536 -0.0045  0.2384 -0.0624
   25CHL1  H22A 1833   3.851   4.472   5.569  0.9058 -0.7965  3.3616
   25CHL1  H22B 1834   3.940   4.320   5.558 -0.7128 -0.9322  0.7437
   25CHL1   C23 1835   3.813   4.361   5.389  0.8143 -0.1566 -0.5709
   25CHL1  H23A 1836   3.829   4.253   5.369  1.4126 -0.1133 -0.3380
   25CHL1  H23B 1837   3.707   4.385   5.364  0.9149  0.0917 -0.7620
   25CHL1   C24 1838   3.904   4.444   5.301 -0.4978 -0.2842 -0.5386
   25CHL1  H24A 1839   3.902   4.549   5.339  2.1835  0.5070 -2.3163
   25CHL1  H24B 1840   4.005   4.399   5.299 -0.7596 -0.8703 -1.1748
   25CHL1   C25 1841   3.861   4.463   5.152  0.9580  0.2437 -0.1161
   25CHL1   H25 1842   3.843   4.364   5.104  0.1453  0.1302  0.4028
   25CHL1   C26 1843   3.737   4.547   5.136 -0.0070 -0.2536 -0.0014
   25CHL1  H26A 1844   3.649   4.497   5.182 -1.1171 -0.5677 -2.3072
   25CHL1  H26B 1845   3.748   4.647   5.183 -0.1671 -0.7068  1.0197
   25CHL1  H26C 1846   3.704   4.560   5.030 -4.0813  1.8229  1.3158
   25CHL1   C27 1847   3.967   4.528   5.070 -0.0011 -0.0435 -0.9681
   25CHL1  H27A 1848   4.062   4.470   5.063 -1.2192 -1.9533 -2.6950
   25CHL1  H27B 1849   3.924   4.548   4.969 -2.7341  1.3484  0.3571
   25CHL1  H27C 1850   3.999   4.622   5.119 -0.3382 -1.1941  1.6120
   26CHL1    C3 1851   6.093   5.367   6.514  0.0133 -0.2114 -0.3329
   26CHL1    H3 1852   6.008   5.436   6.495  0.9308  0.9409 -0.3934
   26CHL1    O3 1853   6.086   5.337   6.650 -0.4661  0.0867  0.3674
   26CHL1   H3' 1854   6.163   5.285   6.671 -1.1533 -1.2020 -0.1949
   26CHL1    C4 1855   6.074   5.236   6.437 -1.0706  0.2782 -0.6525
   26CHL1   H4A 1856   6.152   5.163   6.466 -0.7687  0.0727 -1.9081
   26CHL1   H4B 1857   5.978   5.186   6.460  0.5972 -1.9845  2.0364
   26CHL1    C5 1858   6.103   5.248   6.287  0.0844 -0.3977  0.5322
   26CHL1    C6 1859   6.007   5.213   6.199  0.2818  0.1082 -0.1141
   26CHL1    H6 1860   5.917   5.160   6.231 -0.1554 -2.2869 -4.5255
   26CHL1    C7 1861   6.036   5.209   6.056 -0.1383 -0.4777 -0.0108
   26CHL1   H7A 1862   6.024   5.113   6.002  0.4542 -0.5338 -0.0513
   26CHL1   H7B 1863   5.972   5.278   5.996  1.6954  0.1154 -1.3957
   26CHL1    C8 1864   6.179   5.253   6.023 -0.4947 -0.7466  0.4154
   26CHL1    H8 1865   6.251   5.171   6.040  0.6201  0.6067  2.7206
   26CHL1   C14 1866   6.191   5.283   5.876  0.5559 -0.5896 -0.8521
   26CHL1   H14 1867   6.128   5.372   5.857  1.3514 -0.0826 -1.1271
   26CHL1   C15 1868   6.136   5.185   5.773  0.1088  0.9472  0.7851
   26CHL1  H15A 1869   6.180   5.089   5.808 -0.0914  0.6040  0.0887
   26CHL1  H15B 1870   6.027   5.173   5.763  0.1674  1.1523 -0.2260
   26CHL1   C16 1871   6.196   5.238   5.645  0.1389  0.3490 -0.0980
   26CHL1  H16A 1872   6.237   5.144   5.601 -0.7568  0.5254 -1.3676
   26CHL1  H16B 1873   6.113   5.272   5.579 -0.4021 -0.8253 -0.0474
   26CHL1   C17 1874   6.294   5.347   5.676 -0.5365 -0.0736 -0.1318
   26CHL1   H17 1875   6.239   5.443   5.676 -0.6476 -0.1344  0.8458
   26CHL1   C13 1876   6.326   5.325   5.829  0.0212 -0.3816 -0.2838
   26CHL1   C18 1877   6.445   5.221   5.838  0.2752 -0.2026  0.4467
   26CHL1  H18A 1878   6.543   5.266   5.811 -0.2671 -0.1001 -1.4349
   26CHL1  H18B 1879   6.447   5.182   5.942 -0.2455 -0.3791  0.3947
   26CHL1  H18C 1880   6.430   5.136   5.768 -0.7663  1.2563 -1.1641
   26CHL1   C12 1881   6.361   5.454   5.907 -0.2382  0.5164  0.1682
   26CHL1  H12A 1882   6.466   5.482   5.884 -1.3528  2.7619 -2.9507
   26CHL1  H12B 1883   6.295   5.535   5.867  0.4353  0.2270 -1.6094
   26CHL1   C11 1884   6.358   5.431   6.058  0.3597  0.3811  0.2543
   26CHL1  H11A 1885   6.447   5.368   6.077  0.1752 -0.2869 -1.0004
   26CHL1  H11B 1886   6.374   5.528   6.111  1.8317  0.2549  0.1067
   26CHL1    C9 1887   6.225   5.369   6.103 -0.3618 -0.7472 -0.8711
   26CHL1    H9 1888   6.153   5.453   6.101 -0.0799 -0.5251 -2.1595
   26CHL1   C10 1889   6.232   5.330   6.250 -0.1964  0.0526  0.1885
   26CHL1   C19 1890   6.362   5.243   6.277  0.1037 -0.0401  0.4830
   26CHL1  H19A 1891   6.450   5.311   6.285  0.0552  0.0717  0.0868
   26CHL1  H19B 1892   6.358   5.188   6.373  0.9531 -0.9460  0.0209
   26CHL1  H19C 1893   6.382   5.174   6.192  0.6028  0.8704 -0.1577
   26CHL1    C1 1894   6.241   5.460   6.340 -0.1467  0.3614 -0.0482
   26CHL1   H1A 1895   6.344   5.501   6.328 -0.8414  2.1989  0.1164
   26CHL1   H1B 1896   6.174   5.542   6.308 -0.9337  0.7096  2.2907
   26CHL1    C2 1897   6.224   5.437   6.495 -0.0315 -0.6817  0.8399
   26CHL1   H2A 1898   6.221   5.533   6.551 -3.5499  0.2526 -0.6594
   26CHL1   H2B 1899   6.311   5.376   6.528 -0.8094 -1.5612  1.3126
   26CHL1   C20 1900   6.405   5.355   5.576  0.0001  0.0816  0.4136
   26CHL1   H20 1901   6.456   5.256   5.580 -2.4512 -1.3651 -1.4853
   26CHL1   C21 1902   6.495   5.476   5.597 -0.1993 -0.0285 -0.4325
   26CHL1  H21A 1903   6.554   5.501   5.506  2.0178 -1.6452  0.4441
   26CHL1  H21B 1904   6.567   5.471   5.682 -0.7202 -1.9238 -0.0516
   26CHL1  H21C 1905   6.437   5.570   5.606  0.9730  0.6093  0.7395
   26CHL1   C22 1906   6.351   5.355   5.429  0.2564  0.4242  0.2142
   26CHL1  H22A 1907   6.444   5.347   5.369  2.5026  0.0647  3.4445
   26CHL1  H22B 1908   6.303   5.257   5.408 -0.1673  0.0508  2.5924
   26CHL1   C23 1909   6.259   5.465   5.389 -0.0528  0.0917  0.0145
   26CHL1  H23A 1910   6.173   5.488   5.456 -0.9309  1.3542 -1.4871
   26CHL1  H23B 1911   6.320   5.557   5.377  2.2521 -1.2198  0.9078
   26CHL1   C24 1912   6.214   5.451   5.241 -0.3496 -0.0027  0.0028
   26CHL1  H24A 1913   6.309   5.430   5.187 -1.8003 -2.7420 -1.6912
   26CHL1  H24B 1914   6.146   5.363   5.241 -0.2668 -0.0913  1.3819
   26CHL1   C25 1915   6.130   5.571   5.185  0.2033  0.4622  0.5861
   26CHL1   H25 1916   6.195   5.661   5.186  0.1743  0.5554 -1.5135
   26CHL1   C26 1917   6.100   5.537   5.040  0.7305 -0.2395 -0.2848
   26CHL1  H26A 1918   6.050   5.622   4.988 -0.6486 -1.2111 -0.6023
   26CHL1  H26B 1919   6.188   5.498   4.985  0.2167 -0.9580 -0.5959
   26CHL1  H26C 1920   6.029   5.452   5.029  0.9223 -0.3086 -1.0575
   26CHL1   C27 1921   6.005   5.614   5.264 -0.0589  0.4256  0.7099
   26CHL1  H27A 1922   5.971   5.713   5.226  1.9947  0.2670 -1.8643
   26CHL1  H27B 1923   5.919   5.545   5.246  1.6856 -1.0257 -3.4717
   26CHL1  H27C 1924   6.032   5.622   5.371 -0.5153 -0.4251  0.8972
   27CHL1    C3 1925   4.277   5.256   6.103  0.0991 -0.1615 -0.0511
   27CHL1    H3 1926   4.363   5.323   6.120 -0.9321  1.9415 -2.4452
   27CHL1    O3 1927   4.213   5.225   6.231 -0.2341 -0.6652 -0.2024
   27CHL1   H3' 1928   4.151   5.298   6.235  1.9603  1.3193 -0.0572
   27CHL1    C4 1929   4.165   5.321   6.026 -0.3367  0.5621 -0.0731
   27CHL1   H4A 1930   4.077   5.252   6.026  0.6384 -0.7428  1.1592
   27CHL1   H4B 1931   4.123   5.409   6.078 -1.8015  0.9098 -1.7164
   27CHL1    C5 1932   4.222   5.342   5.886 -0.4273 -0.2295  0.4762
   27CHL1    C6 1933   4.242   5.467   5.835 -0.3515  0.8325  0.3369
   27CHL1    H6 1934   4.219   5.560   5.888  1.9066  1.4961  0.2296
   27CHL1    C7 1935   4.296   5.483   5.693 -0.4677 -0.2868  0.5298
   27CHL1   H7A 1936   4.241   5.564   5.640 -1.1313 -1.5469 -0.7718
   27CHL1   H7B 1937   4.403   5.513   5.694 -0.2687 -0.2126 -3.8090
   27CHL1    C8 1938   4.284   5.360   5.594 -0.0774 -0.2187  0.3491
   27CHL1    H8 1939   4.176   5.347   5.575 -0.4603  1.9381  0.8105
   27CHL1   C14 1940   4.354   5.384   5.461 -0.4437 -0.3652 -1.0618
   27CHL1   H14 1941   4.458   5.399   5.499 -1.9928  2.1126  2.8025
   27CHL1   C15 1942   4.323   5.508   5.374 -0.1942 -0.0660 -0.1057
   27CHL1  H15A 1943   4.212   5.517   5.371 -0.3679 -0.9577  2.1184
   27CHL1  H15B 1944   4.369   5.591   5.430  0.4039 -1.0860  0.9445
   27CHL1   C16 1945   4.388   5.473   5.238 -0.4501 -0.2096 -0.2038
   27CHL1  H16A 1946   4.312   5.503   5.163 -2.6712  0.6421  2.2269
   27CHL1  H16B 1947   4.481   5.533   5.224 -0.8341  0.1703 -1.2104
   27CHL1   C17 1948   4.431   5.321   5.245  0.3550 -0.3158  0.3498
   27CHL1   H17 1949   4.540   5.314   5.266  0.4035 -0.7057 -0.0263
   27CHL1   C13 1950   4.366   5.266   5.371 -0.5255 -0.5328  0.3783
   27CHL1   C18 1951   4.225   5.240   5.322 -0.4271  0.0333  0.3221
   27CHL1  H18A 1952   4.178   5.328   5.274  0.2545 -0.2046 -0.8121
   27CHL1  H18B 1953   4.229   5.146   5.263 -1.8360 -1.5375  2.5779
   27CHL1  H18C 1954   4.164   5.219   5.413  0.8527  2.0220  1.7343
   27CHL1   C12 1955   4.439   5.145   5.444  0.1059  0.1435 -0.2321
   27CHL1  H12A 1956   4.443   5.051   5.385  2.9612 -0.2285  0.3884
   27CHL1  H12B 1957   4.544   5.176   5.463  1.1524 -2.4620 -1.3233
   27CHL1   C11 1958   4.369   5.120   5.577 -0.6933  0.0488 -0.1689
   27CHL1  H11A 1959   4.272   5.072   5.549 -1.9018  1.5425  1.2194
   27CHL1  H11B 1960   4.425   5.038   5.628 -0.2633  0.2414 -0.3351
   27CHL1    C9 1961   4.343   5.244   5.667 -0.0324  0.1831  0.1740
   27CHL1    H9 1962   4.445   5.270   5.701  1.0602 -0.1280 -2.5970
   27CHL1   C10 1963   4.269   5.213   5.804  0.4068  0.3777 -0.3129
   27CHL1   C19 1964   4.137   5.133   5.772 -0.2252 -1.3666 -0.3765
   27CHL1  H19A 1965   4.076   5.178   5.691 -0.0991 -0.1290  0.1914
   27CHL1  H19B 1966   4.168   5.035   5.732  0.0205 -1.4156 -0.0735
   27CHL1  H19C 1967   4.065   5.119   5.855 -0.7879  1.3125 -0.3013
   27CHL1    C1 1968   4.378   5.139   5.899 -0.0587  0.4658 -0.3320
   27CHL1   H1A 1969   4.405   5.040   5.857  1.3346 -0.5201  2.6053
   27CHL1   H1B 1970   4.468   5.203   5.907  1.2830 -1.4205  0.2729
   27CHL1    C2 1971   4.317   5.119   6.040  0.1137 -0.1936  0.1519
   27CHL1   H2A 1972   4.389   5.077   6.114  1.0519  0.6555 -0.2508
   27CHL1   H2B 1973   4.233   5.048   6.030  0.3558 -0.6931  1.4862
   27CHL1   C20 1974   4.429   5.241   5.105 -0.1845 -0.1874 -0.6467
   27CHL1   H20 1975   4.441   5.132   5.123  0.6876 -0.6290 -3.4568
   27CHL1   C21 1976   4.554   5.279   5.026  0.1490  0.2680  0.3208
   27CHL1  H21A 1977   4.558   5.390   5.016 -0.0724  0.2394 -0.0672
   27CHL1  H21B 1978   4.553   5.231   4.926 -0.5799  0.7068  0.1126
   27CHL1  H21C 1979   4.647   5.240   5.074  1.4872 -1.1518 -3.1093
   27CHL1   C22 1980   4.305   5.259   5.010  0.7539 -0.1851 -0.0865
   27CHL1  H22A 1981   4.213   5.291   5.062  0.0155 -0.1657 -1.3612
   27CHL1  H22B 1982   4.322   5.344   4.940 -1.5682  0.6353  0.2651
   27CHL1   C23 1983   4.274   5.137   4.925 -0.1275  0.1649 -0.4355
   27CHL1  H23A 1984   4.369   5.117   4.871  1.8095  0.7875  2.5167
   27CHL1  H23B 1985   4.245   5.064   5.003  0.3541 -1.0234 -1.3523
   27CHL1   C24 1986   4.156   5.168   4.822  0.1397  0.7446  0.1934
   27CHL1  H24A 1987   4.071   5.218   4.873 -0.3721  0.3759 -0.2882
   27CHL1  H24B 1988   4.212   5.243   4.762  0.7228  0.4945  0.4187
   27CHL1   C25 1989   4.124   5.039   4.744 -0.1961 -0.2728 -0.5079
   27CHL1   H25 1990   4.220   4.998   4.705 -0.2406 -3.8936  2.6479
   27CHL1   C26 1991   4.055   4.933   4.834  0.4931 -0.4762  0.0734
   27CHL1  H26A 1992   3.949   4.951   4.862  0.8241 -0.5562  1.4563
   27CHL1  H26B 1993   4.052   4.850   4.761 -1.7856  0.3007 -0.7935
   27CHL1  H26C 1994   4.100   4.910   4.933 -0.0374 -0.0394  0.4194
   27CHL1   C27 1995   4.025   5.071   4.629  0.2709 -0.0796  0.8165
   27CHL1  H27A 1996   4.058   5.148   4.556 -0.6015  0.3797  0.8821
   27CHL1  H27B 1997   4.007   4.974   4.579  1.6768  0.9112 -1.8413
   27CHL1  H27C 1998   3.925   5.105   4.664 -0.4948 -2.2213  0.8363
   28CHL1    C3 1999   2.897   1.215   6.203 -0.6755 -0.1838 -0.3788
   28CHL1    H3 2000   2.855   1.314   6.176 -3.7335 -0.3670  2.9640
   28CHL1    O3 2001   2.945   1.224   6.339 -0.0554 -0.1052 -0.6702
   28CHL1   H3' 2002   2.969   1.133   6.354 -0.1679 -0.1453 -0.7304
   28CHL1    C4 2003   2.774   1.125   6.203  0.0073 -0.4727 -0.5896
   28CHL1   H4A 2004   2.806   1.025   6.240 -2.1532 -1.1449 -0.3752
   28CHL1   H4B 2005   2.695   1.152   6.276 -0.8903 -1.6764 -1.0771
   28CHL1    C5 2006   2.714   1.116   6.062 -0.7012  0.0014 -0.2944
   28CHL1    C6 2007   2.587   1.157   6.025  0.5174  1.1691 -0.8061
   28CHL1    H6 2008   2.524   1.197   6.105 -0.2520  1.0676 -1.3501
   28CHL1    C7 2009   2.527   1.144   5.886 -0.4501 -0.0346  0.2589
   28CHL1   H7A 2010   2.420   1.116   5.882 -0.7023  0.8543 -4.0938
   28CHL1   H7B 2011   2.527   1.244   5.838 -0.5945  0.5923  1.5134
   28CHL1    C8 2012   2.609   1.044   5.803  0.6363 -0.2419  0.2740
   28CHL1    H8 2013   2.586   0.940   5.836  0.0721 -0.2282 -0.0707
   28CHL1   C14 2014   2.563   1.059   5.656  0.1969  0.4481  0.1612
   28CHL1   H14 2015   2.588   1.162   5.625  0.8322  0.4213  0.5539
   28CHL1   C15 2016   2.413   1.046   5.621 -0.3488  0.3711 -0.5082
   28CHL1  H15A 2017   2.370   0.961   5.678 -0.0427 -0.5382 -1.6111
   28CHL1  H15B 2018   2.353   1.138   5.634 -0.3125  0.6771 -2.2424
   28CHL1   C16 2019   2.412   1.009   5.468  0.4126 -0.0796  0.5364
   28CHL1  H16A 2020   2.362   0.913   5.443  0.4738  0.4306 -1.8277
   28CHL1  H16B 2021   2.359   1.087   5.409  0.4696 -1.4456 -1.4315
   28CHL1   C17 2022   2.561   0.999   5.425 -0.1239 -0.1059  0.4957
   28CHL1   H17 2023   2.597   1.099   5.389  1.9743 -0.9213  0.1560
   28CHL1   C13 2024   2.641   0.969   5.550 -0.4459 -0.0621 -0.7799
   28CHL1   C18 2025   2.618   0.819   5.574  0.0357 -0.0765 -0.4440
   28CHL1  H18A 2026   2.647   0.799   5.679 -0.7112 -1.0706 -0.4066
   28CHL1  H18B 2027   2.511   0.788   5.568 -0.4706  1.5129 -0.1002
   28CHL1  H18C 2028   2.675   0.754   5.504  2.0235  3.4957 -2.4305
   28CHL1   C12 2029   2.790   1.004   5.566  0.2317  0.4862  0.3554
   28CHL1  H12A 2030   2.847   0.927   5.509 -1.3842 -0.4853 -0.0048
   28CHL1  H12B 2031   2.810   1.105   5.526  3.6141 -0.0999  0.2617
   28CHL1   C11 2032   2.842   0.985   5.712  0.0401  0.0783  0.7250
   28CHL1  H11A 2033   2.829   0.878   5.739 -1.2052  0.0536  0.1046
   28CHL1  H11B 2034   2.951   1.008   5.712  0.3965 -1.3926 -1.2054
   28CHL1    C9 2035   2.760   1.069   5.813 -0.3969  1.1472  0.0097
   28CHL1    H9 2036   2.765   1.175   5.781  1.4802  0.9754 -0.3611
   28CHL1   C10 2037   2.821   1.062   5.957  0.5689  0.7206 -0.4648
   28CHL1   C19 2038   2.845   0.909   5.982  0.3246 -0.2471  0.8077
   28CHL1  H19A 2039   2.927   0.873   5.917 -0.2982 -0.7881  0.3103
   28CHL1  H19B 2040   2.891   0.887   6.081  0.7322  1.4694  1.0184
   28CHL1  H19C 2041   2.746   0.860   5.966  0.1011 -0.2230  2.0076
   28CHL1    C1 2042   2.951   1.145   5.968  0.5511 -0.4464  0.5621
   28CHL1   H1A 2043   3.024   1.101   5.897 -0.8737 -2.4057  0.2487
   28CHL1   H1B 2044   2.925   1.248   5.936  2.9498  0.3927  1.0581
   28CHL1    C2 2045   3.002   1.159   6.111 -0.3305 -0.4730  0.4240
   28CHL1   H2A 2046   3.091   1.226   6.117  1.1590 -2.1912 -1.1283
   28CHL1   H2B 2047   3.036   1.058   6.145  1.0855  0.4733  2.0374
   28CHL1   C20 2048   2.579   0.916   5.299  0.4425 -0.6502 -0.2170
   28CHL1   H20 2049   2.577   0.808   5.326  1.4452 -0.4888  0.5771
   28CHL1   C21 2050   2.713   0.953   5.234 -0.1915  0.3633  0.8815
   28CHL1  H21A 2051   2.733   0.892   5.143 -0.5979 -0.3555  1.2716
   28CHL1  H21B 2052   2.799   0.945   5.303  0.7763  0.9106 -0.2229
   28CHL1  H21C 2053   2.714   1.060   5.203  2.1254  0.3514  0.7806
   28CHL1   C22 2054   2.468   0.931   5.196  0.5937 -0.3815  0.1696
   28CHL1  H22A 2055   2.371   0.898   5.238  0.0513 -0.5619 -1.1568
   28CHL1  H22B 2056   2.486   1.039   5.173  2.4350 -0.7701 -0.4378
   28CHL1   C23 2057   2.498   0.850   5.063  1.0528 -0.5111 -0.0288
   28CHL1  H23A 2058   2.568   0.911   5.003  0.7067  2.9401  2.7384
   28CHL1  H23B 2059   2.548   0.753   5.082  0.9105 -1.3555 -3.4026
   28CHL1   C24 2060   2.363   0.825   5.000  0.0042  0.2680  0.5176
   28CHL1  H24A 2061   2.299   0.771   5.073 -1.7947  4.1606  2.1696
   28CHL1  H24B 2062   2.308   0.919   4.978 -0.8771 -0.4425 -0.3850
   28CHL1   C25 2063   2.374   0.736   4.872  0.9980  0.0101 -0.0786
   28CHL1   H25 2064   2.425   0.644   4.906  0.1319 -0.0634  1.0850
   28CHL1   C26 2065   2.240   0.693   4.806 -0.1000  0.1953  0.1100
   28CHL1  H26A 2066   2.250   0.617   4.725  1.8143  1.4765 -0.9098
   28CHL1  H26B 2067   2.168   0.646   4.877 -1.0064  0.0316 -0.8918
   28CHL1  H26C 2068   2.191   0.783   4.765  0.7833 -0.1932 -1.9058
   28CHL1   C27 2069   2.459   0.807   4.764  0.1044 -0.1325  0.5041
   28CHL1  H27A 2070   2.569   0.797   4.771 -0.0596 -1.2450  1.9010
   28CHL1  H27B 2071   2.432   0.769   4.663  0.8849 -0.4878  0.4260
   28CHL1  H27C 2072   2.429   0.914   4.767 -0.7724 -0.3275 -0.3308
   29CHL1    C3 2073   5.639   2.379   3.244 -0.4004  0.2175 -0.6715
   29CHL1    H3 2074   5.610   2.486   3.255 -1.7214 -0.2146  0.3110
   29CHL1    O3 2075   5.708   2.358   3.126 -0.3267 -0.6318  0.0320
   29CHL1   H3' 2076   5.727   2.264   3.130 -0.8331 -0.7247  0.4285
   29CHL1    C4 2077   5.731   2.337   3.366 -0.1373 -0.4499  0.0662
   29CHL1   H4A 2078   5.760   2.230   3.356  0.5646 -0.6423  3.2313
   29CHL1   H4B 2079   5.826   2.395   3.362  1.7988 -3.4319 -1.8390
   29CHL1    C5 2080   5.660   2.340   3.500  0.0067 -0.2390  0.2722
   29CHL1    C6 2081   5.697   2.417   3.602  0.3597  0.4360 -0.9931
   29CHL1    H6 2082   5.782   2.487   3.597 -0.3251  1.5218  1.0394
   29CHL1    C7 2083   5.637   2.415   3.739 -0.1677  0.1596  0.0422
   29CHL1   H7A 2084   5.719   2.409   3.813  0.3299 -0.0712 -0.5181
   29CHL1   H7B 2085   5.581   2.509   3.759  1.1397  1.0110 -0.1854
   29CHL1    C8 2086   5.524   2.300   3.755 -0.7918  0.4005 -0.2456
   29CHL1    H8 2087   5.578   2.205   3.775 -3.4421 -1.0524  0.4811
   29CHL1   C14 2088   5.449   2.310   3.885  0.5823 -0.1938  0.5327
   29CHL1   H14 2089   5.385   2.401   3.886  0.6085 -0.1827  1.0141
   29CHL1   C15 2090   5.535   2.317   4.012 -0.0378  0.3762 -0.3344
   29CHL1  H15A 2091   5.619   2.246   3.999 -0.4876 -0.1163 -0.5607
   29CHL1  H15B 2092   5.570   2.420   4.037 -1.1187  1.1056 -1.6851
   29CHL1   C16 2093   5.430   2.288   4.122 -0.8305 -0.6617 -0.0844
   29CHL1  H16A 2094   5.472   2.213   4.192 -0.0433  1.3238  1.6423
   29CHL1  H16B 2095   5.406   2.367   4.196 -0.4230 -0.3810 -0.2485
   29CHL1   C17 2096   5.300   2.239   4.054 -0.5502 -0.3223  0.0506
   29CHL1   H17 2097   5.222   2.315   4.034 -0.3940 -0.1378  0.1372
   29CHL1   C13 2098   5.349   2.200   3.910 -0.1396 -0.2252 -0.1320
   29CHL1   C18 2099   5.415   2.060   3.925 -0.4915 -0.2563 -0.1094
   29CHL1  H18A 2100   5.482   2.042   3.838  0.0816  0.5041  0.1679
   29CHL1  H18B 2101   5.470   2.046   4.020 -2.3844 -0.0360  1.0847
   29CHL1  H18C 2102   5.337   1.981   3.930 -0.8278  0.1363  1.2330
   29CHL1   C12 2103   5.245   2.206   3.788  0.2223 -0.9245 -0.2377
   29CHL1  H12A 2104   5.175   2.121   3.800  0.5357 -0.9829  1.4674
   29CHL1  H12B 2105   5.190   2.302   3.789 -0.1416 -1.1288 -0.5899
   29CHL1   C11 2106   5.310   2.200   3.651  0.5969  0.0964  0.1859
   29CHL1  H11A 2107   5.345   2.094   3.652 -0.5616 -0.3598 -1.6723
   29CHL1  H11B 2108   5.230   2.212   3.574 -0.3087 -0.2342  1.0530
   29CHL1    C9 2109   5.436   2.292   3.632 -0.5145 -0.0536 -0.5105
   29CHL1    H9 2110   5.395   2.393   3.613 -1.5992 -0.2618  0.6235
   29CHL1   C10 2111   5.524   2.254   3.506  0.2649 -0.6771  0.2719
   29CHL1   C19 2112   5.559   2.108   3.504  0.3002  0.0198  0.0782
   29CHL1  H19A 2113   5.594   2.089   3.400 -0.9794  1.7650 -0.7427
   29CHL1  H19B 2114   5.633   2.088   3.583 -3.3406 -1.5965  3.4407
   29CHL1  H19C 2115   5.476   2.036   3.523 -0.2175  1.2040  2.7883
   29CHL1    C1 2116   5.440   2.285   3.380  0.6265  0.5767  0.4747
   29CHL1   H1A 2117   5.358   2.210   3.378  0.0137  1.2553 -0.6130
   29CHL1   H1B 2118   5.402   2.388   3.390 -1.7314 -0.1017 -0.8667
   29CHL1    C2 2119   5.515   2.288   3.243 -0.9257 -0.7963  0.2206
   29CHL1   H2A 2120   5.445   2.321   3.163  2.0800  2.0638 -1.4897
   29CHL1   H2B 2121   5.535   2.184   3.209 -0.7277 -0.0758 -2.0195
   29CHL1   C20 2122   5.227   2.131   4.136 -0.1927  0.2263 -0.2013
   29CHL1   H20 2123   5.285   2.036   4.131 -0.7203 -0.0442 -3.6891
   29CHL1   C21 2124   5.088   2.096   4.078  0.8105  0.5379  0.0064
   29CHL1  H21A 2125   5.045   2.015   4.140  2.0397 -0.7488 -0.7384
   29CHL1  H21B 2126   5.091   2.052   3.976 -1.8059  0.4845 -0.1031
   29CHL1  H21C 2127   5.020   2.183   4.081 -1.1016 -0.9239  1.2940
   29CHL1   C22 2128   5.224   2.169   4.287 -0.3081  0.6684  0.2984
   29CHL1  H22A 2129   5.328   2.156   4.323 -0.4785  1.6701  1.2335
   29CHL1  H22B 2130   5.221   2.280   4.300  2.6950  0.7033  1.5421
   29CHL1   C23 2131   5.128   2.090   4.372  0.8450 -0.2931 -0.5360
   29CHL1  H23A 2132   5.025   2.109   4.335  1.4247  0.2097 -1.9695
   29CHL1  H23B 2133   5.156   1.983   4.360  3.8114  0.0362  1.9657
   29CHL1   C24 2134   5.154   2.108   4.524 -0.6595  0.2191  0.1033
   29CHL1  H24A 2135   5.258   2.077   4.548 -1.0467  0.1590  1.8456
   29CHL1  H24B 2136   5.139   2.217   4.537 -0.1995  0.5016 -1.4985
   29CHL1   C25 2137   5.062   2.031   4.623 -0.4408 -0.0844 -0.2897
   29CHL1   H25 2138   5.115   2.025   4.721 -0.4697 -1.1788 -0.3293
   29CHL1   C26 2139   4.926   2.105   4.632 -0.4958  0.9871  0.4275
   29CHL1  H26A 2140   4.941   2.204   4.682  1.3199  2.1151 -2.1404
   29CHL1  H26B 2141   4.874   2.102   4.535  1.0463 -2.8643 -0.4600
   29CHL1  H26C 2142   4.861   2.048   4.702 -0.5776  2.0162  1.2125
   29CHL1   C27 2143   5.043   1.878   4.586 -0.5078  0.0701  0.0773
   29CHL1  H27A 2144   4.985   1.857   4.493  1.0065 -1.0277 -0.6672
   29CHL1  H27B 2145   5.143   1.833   4.572 -0.3125  1.1519 -2.8430
   29CHL1  H27C 2146   4.989   1.832   4.672 -0.3374  2.1245  1.3287
   30CHL1    C3 2147   5.762   5.717   3.201 -0.1574 -0.8702  0.5800
   30CHL1    H3 2148   5.689   5.801   3.212  0.6642 -0.3234  2.0987
   30CHL1    O3 2149   5.784   5.696   3.064 -0.1244  0.0629 -0.1678
   30CHL1   H3' 2150   5.796   5.602   3.052  0.0468 -0.0922  1.0590
   30CHL1    C4 2151   5.898   5.755   3.271 -0.0837 -0.3767 -0.0313
   30CHL1   H4A 2152   5.982   5.692   3.234  2.9817  2.3237  1.7663
   30CHL1   H4B 2153   5.919   5.863   3.251 -0.2880 -0.3666 -0.1846
   30CHL1    C5 2154   5.893   5.744   3.421 -0.3043  0.2993  0.4872
   30CHL1    C6 2155   5.934   5.847   3.492 -0.3841 -0.7887 -0.6266
   30CHL1    H6 2156   5.986   5.929   3.441  2.1277 -0.6867  1.8536
   30CHL1    C7 2157   5.931   5.856   3.642 -0.2801  0.5185  0.1341
   30CHL1   H7A 2158   6.027   5.897   3.682 -0.0285 -0.8165  0.9976
   30CHL1   H7B 2159   5.859   5.935   3.671 -0.1861  0.6797 -0.0714
   30CHL1    C8 2160   5.897   5.714   3.707 -0.4557  0.2605  0.4505
   30CHL1    H8 2161   5.977   5.638   3.690 -1.1920 -0.0792 -1.9003
   30CHL1   C14 2162   5.858   5.718   3.856 -0.2454 -0.0200 -0.5467
   30CHL1   H14 2163   5.774   5.791   3.856  0.5068  0.8733 -1.7320
   30CHL1   C15 2164   5.965   5.775   3.949 -0.2975 -0.1689 -0.2838
   30CHL1  H15A 2165   6.062   5.723   3.933  0.8457  1.6179  0.5067
   30CHL1  H15B 2166   5.982   5.884   3.948  1.8092 -0.4445  0.2156
   30CHL1   C16 2167   5.923   5.738   4.091 -0.7985  0.1866  0.0368
   30CHL1  H16A 2168   6.009   5.687   4.139 -0.7332 -0.3799 -0.6571
   30CHL1  H16B 2169   5.921   5.818   4.168  3.2207 -0.3400  0.8759
   30CHL1   C17 2170   5.793   5.649   4.068  0.5226 -0.5846 -1.0553
   30CHL1   H17 2171   5.710   5.723   4.065 -2.3951 -3.4594  1.1127
   30CHL1   C13 2172   5.807   5.593   3.929 -0.0637 -0.6013  0.3104
   30CHL1   C18 2173   5.914   5.486   3.931 -0.5825  0.0765  0.5782
   30CHL1  H18A 2174   5.989   5.510   4.009 -3.3468  2.0876  2.8213
   30CHL1  H18B 2175   5.861   5.391   3.954 -0.0516 -0.2871  0.3292
   30CHL1  H18C 2176   5.953   5.470   3.828 -1.5753  1.0626  0.0208
   30CHL1   C12 2177   5.681   5.550   3.859  0.3355  0.1282  0.3496
   30CHL1  H12A 2178   5.643   5.455   3.902  0.3622  0.1960  0.5256
   30CHL1  H12B 2179   5.595   5.620   3.863  1.5565  1.6428  1.2687
   30CHL1   C11 2180   5.716   5.529   3.709  0.0374  0.0471  0.1983
   30CHL1  H11A 2181   5.780   5.438   3.705 -0.7566 -0.5325  0.4173
   30CHL1  H11B 2182   5.621   5.509   3.655  0.2694  1.0872 -0.6285
   30CHL1    C9 2183   5.779   5.650   3.627 -0.0464 -0.1364 -0.1423
   30CHL1    H9 2184   5.699   5.727   3.633  0.7789  0.9891 -2.3995
   30CHL1   C10 2185   5.811   5.624   3.479 -0.2241  0.2425  0.3186
   30CHL1   C19 2186   5.903   5.499   3.468 -0.1863 -0.1610 -0.3768
   30CHL1  H19A 2187   6.004   5.517   3.511  0.4158 -4.4140  0.5097
   30CHL1  H19B 2188   5.862   5.403   3.506  1.4129 -0.9628 -0.5653
   30CHL1  H19C 2189   5.922   5.476   3.361  0.4155  0.3572 -0.3827
   30CHL1    C1 2190   5.673   5.593   3.409 -0.3586  0.1815  0.1365
   30CHL1   H1A 2191   5.632   5.496   3.447 -1.5767  0.8847  0.7004
   30CHL1   H1B 2192   5.601   5.670   3.444 -1.9033 -2.2049  2.6459
   30CHL1    C2 2193   5.692   5.594   3.256 -0.1483 -0.3403 -0.2845
   30CHL1   H2A 2194   5.603   5.565   3.196  1.3399 -0.8593 -2.3884
   30CHL1   H2B 2195   5.766   5.514   3.235  0.8404 -0.5840  3.4864
   30CHL1   C20 2196   5.764   5.546   4.174  0.0180 -0.0066 -0.4614
   30CHL1   H20 2197   5.800   5.445   4.148 -1.8854 -0.8562  0.0235
   30CHL1   C21 2198   5.607   5.535   4.184 -0.8850 -0.1182  0.2421
   30CHL1  H21A 2199   5.563   5.637   4.185  0.6724  0.6440  3.3452
   30CHL1  H21B 2200   5.574   5.484   4.277 -0.0359 -0.0073  0.6169
   30CHL1  H21C 2201   5.565   5.477   4.099  2.5322 -1.2728 -0.8211
   30CHL1   C22 2202   5.820   5.594   4.312 -0.7153 -0.5015  0.2412
   30CHL1  H22A 2203   5.931   5.603   4.303 -0.6817  0.3681  1.4054
   30CHL1  H22B 2204   5.790   5.698   4.334  0.5206 -0.0943  0.0899
   30CHL1   C23 2205   5.806   5.501   4.436 -0.3742 -0.6722  0.4510
   30CHL1  H23A 2206   5.820   5.558   4.530 -1.3472 -0.1463  0.2937
   30CHL1  H23B 2207   5.699   5.470   4.440 -1.5284  2.8197  0.1461
   30CHL1   C24 2208   5.892   5.374   4.435  0.2880  0.2728 -0.6430
   30CHL1  H24A 2209   5.856   5.304   4.356  0.2462 -2.0521  1.3250
   30CHL1  H24B 2210   5.998   5.400   4.413  0.3598  1.5833  1.0359
   30CHL1   C25 2211   5.905   5.292   4.570 -0.2634 -0.0209  0.5133
   30CHL1   H25 2212   5.801   5.258   4.590 -1.9284  3.7237 -0.7885
   30CHL1   C26 2213   5.988   5.156   4.549 -0.2049  0.3716  0.0505
   30CHL1  H26A 2214   5.947   5.091   4.469 -1.6992  1.0957  0.2022
   30CHL1  H26B 2215   6.092   5.184   4.520  0.4520 -1.2494  0.7122
   30CHL1  H26C 2216   5.981   5.092   4.640  1.2874 -0.3902 -0.3355
   30CHL1   C27 2217   5.947   5.379   4.695 -0.6364  0.2772  0.9743
   30CHL1  H27A 2218   6.056   5.394   4.707 -0.6403 -1.1013  3.2437
   30CHL1  H27B 2219   5.881   5.469   4.702  0.3055  1.4277 -2.7958
   30CHL1  H27C 2220   5.948   5.313   4.784  0.0035  1.0969  1.5931
   31CHL1    C3 2221   5.933   6.254   3.140 -0.6058  0.1808  0.3532
   31CHL1    H3 2222   5.860   6.176   3.171  0.1981 -1.8454 -2.4057
   31CHL1    O3 2223   5.932   6.258   2.998 -0.3868 -0.6303  0.4835
   31CHL1   H3' 2224   5.886   6.339   2.975  0.6129  0.2228  1.3608
   31CHL1    C4 2225   5.900   6.395   3.194  0.2980  0.5890 -0.5116
   31CHL1   H4A 2226   5.979   6.466   3.163 -0.2141  0.4487 -2.2560
   31CHL1   H4B 2227   5.806   6.437   3.152 -0.3973 -1.1574 -0.7658
   31CHL1    C5 2228   5.892   6.400   3.349 -0.4004 -0.5934  0.6284
   31CHL1    C6 2229   5.781   6.434   3.415  0.0518  0.3656  0.3686
   31CHL1    H6 2230   5.696   6.474   3.358  1.0328  0.2247 -1.2799
   31CHL1    C7 2231   5.769   6.431   3.563 -0.0561 -0.3243  0.3252
   31CHL1   H7A 2232   5.720   6.521   3.608  1.7670  0.4180  0.8923
   31CHL1   H7B 2233   5.701   6.347   3.589  0.2977  0.2144  3.3548
   31CHL1    C8 2234   5.904   6.409   3.645  0.1910  0.1936  0.8177
   31CHL1    H8 2235   5.955   6.508   3.649  0.4590  0.0410  1.3679
   31CHL1   C14 2236   5.869   6.364   3.780  0.2602 -0.6191 -0.3118
   31CHL1   H14 2237   5.805   6.274   3.766 -0.9289 -0.0202  1.0105
   31CHL1   C15 2238   5.775   6.462   3.859 -0.8176 -0.2622 -0.2662
   31CHL1  H15A 2239   5.813   6.566   3.844  0.7795 -0.9087 -1.0299
   31CHL1  H15B 2240   5.668   6.465   3.832 -1.5700 -1.4488  2.3046
   31CHL1   C16 2241   5.793   6.418   4.007 -0.0625 -0.2538 -0.6379
   31CHL1  H16A 2242   5.828   6.504   4.069  0.0216  0.3413 -1.4909
   31CHL1  H16B 2243   5.703   6.369   4.048  0.6467 -0.4857  0.6778
   31CHL1   C17 2244   5.907   6.301   4.002 -0.2597 -0.2112 -0.0677
   31CHL1   H17 2245   5.856   6.203   3.990  1.9708 -1.2297 -1.9418
   31CHL1   C13 2246   5.992   6.333   3.865  0.3953  0.2977  0.3740
   31CHL1   C18 2247   6.074   6.455   3.893 -0.1776  0.3236  0.2630
   31CHL1  H18A 2248   6.163   6.413   3.945 -0.6342 -1.0969 -0.0618
   31CHL1  H18B 2249   6.106   6.517   3.806  0.9226  0.9875  1.1036
   31CHL1  H18C 2250   6.027   6.534   3.955  0.6206  0.7283  0.3723
   31CHL1   C12 2251   6.075   6.216   3.805  0.3303 -0.2549 -0.4188
   31CHL1  H12A 2252   6.165   6.186   3.863  0.2623 -0.7731 -0.5742
   31CHL1  H12B 2253   6.000   6.134   3.802 -0.1824 -0.1389  3.6998
   31CHL1   C11 2254   6.115   6.260   3.659 -0.2733  0.6370 -0.4274
   31CHL1  H11A 2255   6.179   6.350   3.664  0.3396  0.1276  2.4595
   31CHL1  H11B 2256   6.172   6.174   3.618  1.7014  0.4549  2.4773
   31CHL1    C9 2257   5.989   6.303   3.574 -0.0859  0.4157  0.2262
   31CHL1    H9 2258   5.928   6.211   3.585  1.2046 -0.5718 -0.5568
   31CHL1   C10 2259   6.012   6.336   3.425  0.3093 -0.7281  0.1119
   31CHL1   C19 2260   6.128   6.444   3.424  0.0181 -0.3271 -0.1327
   31CHL1  H19A 2261   6.229   6.410   3.454 -0.6647 -2.3277  0.0548
   31CHL1  H19B 2262   6.138   6.479   3.319  0.1828  0.9928  0.3023
   31CHL1  H19C 2263   6.112   6.528   3.494 -1.0551  1.9966 -2.9626
   31CHL1    C1 2264   6.060   6.203   3.358 -0.4923  0.4450  0.2733
   31CHL1   H1A 2265   6.163   6.179   3.393  0.7529  1.4918 -2.3201
   31CHL1   H1B 2266   5.994   6.116   3.377  2.3268 -1.8603  0.2428
   31CHL1    C2 2267   6.074   6.210   3.198  0.5053 -0.4593  0.3217
   31CHL1   H2A 2268   6.089   6.112   3.149 -1.6261 -0.9527  0.5483
   31CHL1   H2B 2269   6.163   6.277   3.198  0.5938 -0.5424  1.5851
   31CHL1   C20 2270   5.975   6.281   4.141 -0.2112 -0.0686  0.5464
   31CHL1   H20 2271   6.033   6.370   4.172 -0.5891 -0.0998  1.3600
   31CHL1   C21 2272   6.075   6.162   4.124 -0.3327  0.0446 -0.4977
   31CHL1  H21A 2273   6.117   6.129   4.221 -1.1956 -4.9944 -1.5115
   31CHL1  H21B 2274   6.156   6.203   4.060 -0.8024  0.2612 -0.9669
   31CHL1  H21C 2275   6.016   6.078   4.080 -1.0095 -0.8704  2.0055
   31CHL1   C22 2276   5.866   6.248   4.251  0.0816  0.7361 -0.5021
   31CHL1  H22A 2277   5.797   6.335   4.256  0.3126  0.9768 -1.3984
   31CHL1  H22B 2278   5.802   6.159   4.229  0.1127  0.3437  0.8886
   31CHL1   C23 2279   5.917   6.239   4.397 -0.7738 -0.7154 -0.3125
   31CHL1  H23A 2280   5.846   6.201   4.474  0.2105 -1.3175  0.3172
   31CHL1  H23B 2281   5.994   6.159   4.397 -1.6517 -1.5782  0.0469
   31CHL1   C24 2282   5.972   6.379   4.443 -0.6163  0.3915  0.2338
   31CHL1  H24A 2283   6.070   6.402   4.397 -0.2951 -0.0741  0.6665
   31CHL1  H24B 2284   5.891   6.448   4.411  1.0758  1.9273 -0.9285
   31CHL1   C25 2285   5.988   6.398   4.590  0.6441 -0.0471 -0.4053
   31CHL1   H25 2286   5.887   6.388   4.634  1.6926 -1.2540  1.9433
   31CHL1   C26 2287   6.066   6.276   4.646 -0.0505 -0.1846 -0.0606
   31CHL1  H26A 2288   5.997   6.197   4.680  2.7701 -2.8768 -0.1443
   31CHL1  H26B 2289   6.123   6.224   4.565 -1.4907 -0.9273 -0.6357
   31CHL1  H26C 2290   6.136   6.307   4.726  0.5758 -0.9420 -0.3058
   31CHL1   C27 2291   6.049   6.534   4.624  0.0307  0.6180 -0.2810
   31CHL1  H27A 2292   5.988   6.622   4.592  1.0779  0.6879 -2.1928
   31CHL1  H27B 2293   6.055   6.531   4.735 -3.3281 -2.7750  0.0283
   31CHL1  H27C 2294   6.153   6.539   4.586  0.3304 -0.0355  0.4393
   32CHL1    C3 2295   3.287   1.374   3.225  0.3751 -0.2520 -0.7679
   32CHL1    H3 2296   3.383   1.425   3.202  0.4545 -0.7193 -1.5257
   32CHL1    O3 2297   3.230   1.311   3.111 -0.1556 -0.0038 -0.7058
   32CHL1   H3' 2298   3.205   1.381   3.050 -1.2761 -0.0177 -0.2900
   32CHL1    C4 2299   3.332   1.265   3.327  0.2797  0.4719 -0.4843
   32CHL1   H4A 2300   3.253   1.187   3.328 -0.0665  0.8213 -0.0410
   32CHL1   H4B 2301   3.416   1.204   3.287 -0.4800 -0.5888 -0.4868
   32CHL1    C5 2302   3.354   1.313   3.467  0.1324  0.7736 -0.0427
   32CHL1    C6 2303   3.465   1.273   3.531  0.4245 -0.2850  0.0642
   32CHL1    H6 2304   3.529   1.197   3.484 -2.2263 -2.9069  0.3748
   32CHL1    C7 2305   3.489   1.314   3.671  0.6633  0.1781  0.0723
   32CHL1   H7A 2306   3.517   1.223   3.729  0.4886 -0.5137 -0.9026
   32CHL1   H7B 2307   3.571   1.388   3.666 -1.2101  2.6095  2.3384
   32CHL1    C8 2308   3.365   1.370   3.750  0.5686 -0.0564 -0.2297
   32CHL1    H8 2309   3.292   1.288   3.765 -0.7907  0.9442 -1.0540
   32CHL1   C14 2310   3.410   1.445   3.879 -0.8618  0.0894  0.5049
   32CHL1   H14 2311   3.461   1.532   3.833  0.4849 -0.3103  1.1956
   32CHL1   C15 2312   3.504   1.373   3.978  0.0969 -0.0464  0.4245
   32CHL1  H15A 2313   3.468   1.270   3.994  0.0584  0.0216  0.7740
   32CHL1  H15B 2314   3.608   1.372   3.939 -0.3955 -0.4066 -0.9475
   32CHL1   C16 2315   3.491   1.446   4.111 -0.3816  0.3282  0.2240
   32CHL1  H16A 2316   3.454   1.370   4.182  0.3311 -1.6011 -1.3936
   32CHL1  H16B 2317   3.585   1.498   4.141  0.2037 -0.0608 -0.8735
   32CHL1   C17 2318   3.384   1.555   4.084 -0.0842  0.5620  0.2656
   32CHL1   H17 2319   3.447   1.639   4.047  0.0639  0.9482  1.3576
   32CHL1   C13 2320   3.306   1.503   3.964 -0.0304  0.1306  0.1070
   32CHL1   C18 2321   3.201   1.396   4.024 -0.3811  0.2903 -0.3752
   32CHL1  H18A 2322   3.133   1.456   4.089  0.1293  0.4066  0.0549
   32CHL1  H18B 2323   3.148   1.350   3.938 -1.6321 -0.8169  0.9196
   32CHL1  H18C 2324   3.249   1.327   4.097 -1.6756  1.0979  1.2962
   32CHL1   C12 2325   3.236   1.606   3.878 -0.1476 -0.2488 -0.3483
   32CHL1  H12A 2326   3.161   1.663   3.936  0.3495  0.1963 -0.1267
   32CHL1  H12B 2327   3.307   1.682   3.839 -0.8429  0.0167 -1.1294
   32CHL1   C11 2328   3.186   1.545   3.746  0.2326 -0.0545  0.6343
   32CHL1  H11A 2329   3.094   1.487   3.770  0.2433 -0.6327 -0.6316
   32CHL1  H11B 2330   3.150   1.631   3.685 -0.4103  0.3367  1.5477
   32CHL1    C9 2331   3.288   1.470   3.663 -0.1808 -0.5564  0.5184
   32CHL1    H9 2332   3.366   1.548   3.649  3.2423 -3.5631  1.0587
   32CHL1   C10 2333   3.247   1.410   3.525 -0.1580  0.5402 -0.3930
   32CHL1   C19 2334   3.129   1.322   3.552 -0.1983 -0.3082 -0.0444
   32CHL1  H19A 2335   3.050   1.377   3.608 -0.5018 -1.4411  0.6552
   32CHL1  H19B 2336   3.080   1.286   3.459 -1.4733  1.5494 -0.1470
   32CHL1  H19C 2337   3.163   1.235   3.611 -0.4854 -0.1271  0.3899
   32CHL1    C1 2338   3.210   1.521   3.425 -0.1387  0.1082  0.2594
   32CHL1   H1A 2339   3.130   1.585   3.467 -0.5360 -1.2385  1.6713
   32CHL1   H1B 2340   3.301   1.584   3.415 -0.1400  0.1865  0.7103
   32CHL1    C2 2341   3.181   1.471   3.285  0.3254 -0.2752  0.4147
   32CHL1   H2A 2342   3.188   1.556   3.213  1.7130  0.2769  1.1617
   32CHL1   H2B 2343   3.078   1.431   3.275 -0.7348  2.1196  1.0669
   32CHL1   C20 2344   3.318   1.596   4.217  0.3232  0.2658  0.0880
   32CHL1   H20 2345   3.271   1.506   4.261 -2.2178  0.9895 -0.9318
   32CHL1   C21 2346   3.205   1.702   4.202  0.5368  0.1558 -0.0710
   32CHL1  H21A 2347   3.160   1.740   4.296  0.7582  0.6604 -0.1639
   32CHL1  H21B 2348   3.111   1.656   4.165 -0.5011  2.7619 -0.9449
   32CHL1  H21C 2349   3.235   1.787   4.137  0.3868 -0.6901 -1.2708
   32CHL1   C22 2350   3.422   1.641   4.314  0.5798 -0.4737 -0.2813
   32CHL1  H22A 2351   3.502   1.566   4.331  0.7480  0.1344  1.8216
   32CHL1  H22B 2352   3.461   1.729   4.258 -0.3840 -0.1753 -0.5151
   32CHL1   C23 2353   3.377   1.690   4.448  0.3066  0.0750 -0.3450
   32CHL1  H23A 2354   3.300   1.769   4.437  0.7506  0.5167 -0.3142
   32CHL1  H23B 2355   3.327   1.605   4.499 -1.1207 -0.3550 -2.3322
   32CHL1   C24 2356   3.495   1.755   4.530 -0.3345  0.6968  0.7430
   32CHL1  H24A 2357   3.589   1.695   4.528  0.0907  1.3564  0.5322
   32CHL1  H24B 2358   3.520   1.853   4.484  0.9242  0.1650  0.2373
   32CHL1   C25 2359   3.453   1.776   4.675  0.1874 -0.3128  0.1153
   32CHL1   H25 2360   3.391   1.691   4.711 -0.2841  0.3426  0.9030
   32CHL1   C26 2361   3.581   1.795   4.764  0.2862  0.3996 -0.1913
   32CHL1  H26A 2362   3.548   1.821   4.867 -0.2163 -1.8229  0.2654
   32CHL1  H26B 2363   3.643   1.704   4.754 -0.0481 -0.0641  1.5513
   32CHL1  H26C 2364   3.643   1.880   4.727  2.2296 -0.7222  0.3375
   32CHL1   C27 2365   3.364   1.908   4.686  0.5006  0.4064  0.4041
   32CHL1  H27A 2366   3.428   1.997   4.668  1.1161  0.3685  2.2132
   32CHL1  H27B 2367   3.285   1.897   4.609  0.5215 -3.9439  0.7722
   32CHL1  H27C 2368   3.318   1.913   4.787  1.5253 -1.4985  1.0157
   33CHL1    C3 2369   5.039   3.370   3.162  0.3945 -0.2584 -0.2486
   33CHL1    H3 2370   5.143   3.347   3.195  0.4192  0.1111 -0.0673
   33CHL1    O3 2371   5.043   3.432   3.038 -0.5728 -0.2407 -0.4345
   33CHL1   H3' 2372   5.053   3.367   2.968 -0.6623  0.9136 -1.5490
   33CHL1    C4 2373   4.980   3.224   3.151 -0.4951  0.2587  0.8582
   33CHL1   H4A 2374   4.890   3.234   3.087  0.3611  5.3481 -0.0019
   33CHL1   H4B 2375   5.052   3.169   3.086 -0.0805  1.4944  0.2455
   33CHL1    C5 2376   4.964   3.153   3.283  0.0683  0.0886  0.4539
   33CHL1    C6 2377   5.017   3.035   3.308 -0.8643  0.3305 -0.6420
   33CHL1    H6 2378   5.076   2.979   3.233  0.8627 -0.5596  1.2966
   33CHL1    C7 2379   4.998   2.968   3.440  0.0991 -0.2809 -0.4020
   33CHL1   H7A 2380   4.974   2.863   3.414  0.1807 -0.1404 -1.0513
   33CHL1   H7B 2381   5.091   2.967   3.501  0.0950 -5.1530 -0.0754
   33CHL1    C8 2382   4.884   3.022   3.518  0.2659 -0.6840  0.0416
   33CHL1    H8 2383   4.787   2.995   3.472 -0.0205 -1.5271  1.0808
   33CHL1   C14 2384   4.889   2.965   3.663  0.0895  1.0411  0.1764
   33CHL1   H14 2385   4.987   3.002   3.699  1.1802 -0.8421 -0.6806
   33CHL1   C15 2386   4.894   2.813   3.677  0.5356  0.2700 -0.4819
   33CHL1  H15A 2387   4.819   2.759   3.615  0.4972 -0.2524  0.0201
   33CHL1  H15B 2388   5.000   2.785   3.666  0.8987  0.2306  2.3284
   33CHL1   C16 2389   4.866   2.802   3.828 -0.1380  0.2311  0.4590
   33CHL1  H16A 2390   4.785   2.728   3.846 -0.6802  1.2758  2.6351
   33CHL1  H16B 2391   4.955   2.753   3.872 -0.1123  0.1053  0.2675
   33CHL1   C17 2392   4.820   2.938   3.892 -0.3510 -0.1338  0.6931
   33CHL1   H17 2393   4.910   2.991   3.930 -0.4698  0.0733  0.6835
   33CHL1   C13 2394   4.783   3.011   3.762 -0.4209 -0.6668  0.4785
   33CHL1   C18 2395   4.644   2.967   3.719 -0.1414  0.1469 -0.3261
   33CHL1  H18A 2396   4.629   2.857   3.713 -1.4680  0.0764  2.3559
   33CHL1  H18B 2397   4.564   3.007   3.786  0.1151  0.7023 -0.3507
   33CHL1  H18C 2398   4.618   3.008   3.619 -1.3415 -0.0983 -0.1382
   33CHL1   C12 2399   4.800   3.167   3.762 -0.0847  0.5925 -0.3456
   33CHL1  H12A 2400   4.720   3.211   3.826  0.6398  1.7598 -0.1998
   33CHL1  H12B 2401   4.895   3.192   3.815 -0.0245  0.1618 -0.2448
   33CHL1   C11 2402   4.799   3.229   3.628 -0.2531 -0.1918  0.1917
   33CHL1  H11A 2403   4.696   3.200   3.597 -0.8265  0.3235  1.5381
   33CHL1  H11B 2404   4.807   3.339   3.640 -0.3352 -0.3534  2.0526
   33CHL1    C9 2405   4.897   3.169   3.527 -0.0927 -0.0543  0.0542
   33CHL1    H9 2406   4.996   3.198   3.570 -0.9074  3.0054  0.0972
   33CHL1   C10 2407   4.888   3.232   3.386 -0.2464 -0.3637 -0.8991
   33CHL1   C19 2408   4.736   3.229   3.346 -0.5278  0.2425  0.3735
   33CHL1  H19A 2409   4.726   3.263   3.241  1.0010  0.2041  0.1913
   33CHL1  H19B 2410   4.696   3.125   3.346 -0.5290  0.2217  1.7539
   33CHL1  H19C 2411   4.675   3.289   3.417 -2.2643 -0.6026 -0.3333
   33CHL1    C1 2412   4.931   3.384   3.395 -1.0405  0.0286  0.1979
   33CHL1   H1A 2413   4.869   3.441   3.468  0.4744 -0.2101  1.7606
   33CHL1   H1B 2414   5.036   3.383   3.431 -0.0787  1.3058 -2.3013
   33CHL1    C2 2415   4.951   3.451   3.262  0.3216  0.3608  0.4263
   33CHL1   H2A 2416   4.990   3.553   3.284  1.1525  0.5547 -1.6767
   33CHL1   H2B 2417   4.855   3.451   3.206  1.3139  0.6066 -1.3417
   33CHL1   C20 2418   4.718   2.920   4.006  0.1112 -0.7505  0.6085
   33CHL1   H20 2419   4.630   2.868   3.962 -0.6180  0.6749  0.3222
   33CHL1   C21 2420   4.675   3.056   4.056  0.2435 -0.1844 -0.0072
   33CHL1  H21A 2421   4.647   3.048   4.163  0.8362  1.3299  0.2893
   33CHL1  H21B 2422   4.601   3.107   3.991  1.1068 -1.3473 -2.0009
   33CHL1  H21C 2423   4.770   3.114   4.057  1.2092 -1.6998 -0.5125
   33CHL1   C22 2424   4.768   2.826   4.118  0.2515  0.1292  0.6715
   33CHL1  H22A 2425   4.847   2.759   4.078 -1.0051 -2.5124  2.3160
   33CHL1  H22B 2426   4.826   2.881   4.196  1.4769 -0.3249  0.0957
   33CHL1   C23 2427   4.650   2.748   4.185 -0.3273 -0.3062 -0.1631
   33CHL1  H23A 2428   4.563   2.817   4.177 -0.9518 -0.8936  1.2415
   33CHL1  H23B 2429   4.625   2.660   4.123 -0.0692  0.0101 -0.7244
   33CHL1   C24 2430   4.673   2.712   4.337 -0.1900 -0.5360  0.2810
   33CHL1  H24A 2431   4.686   2.809   4.391 -1.6175  0.8630 -1.7518
   33CHL1  H24B 2432   4.591   2.650   4.379 -1.1680  0.9943  0.7067
   33CHL1   C25 2433   4.804   2.635   4.368  0.4325  0.6530 -0.4138
   33CHL1   H25 2434   4.890   2.693   4.329  2.4404 -2.1370 -0.4147
   33CHL1   C26 2435   4.819   2.617   4.527  0.1163  0.7749 -0.2641
   33CHL1  H26A 2436   4.846   2.714   4.573  0.6638  0.2462  0.5673
   33CHL1  H26B 2437   4.720   2.579   4.562  0.2899 -0.0894 -0.6649
   33CHL1  H26C 2438   4.889   2.537   4.562  0.3405  0.8297 -0.5825
   33CHL1   C27 2439   4.807   2.492   4.302  0.1021 -0.3611  0.5154
   33CHL1  H27A 2440   4.704   2.451   4.312  0.2345 -1.1206 -0.9338
   33CHL1  H27B 2441   4.828   2.491   4.192 -0.3578 -1.2833  0.4259
   33CHL1  H27C 2442   4.863   2.412   4.354 -1.8595 -1.3085  1.2779
   34CHL1    C3 2443   0.030   5.492   3.309 -0.4023  0.3718  0.6529
   34CHL1    H3 2444  -0.080   5.477   3.308 -0.3452 -0.3743 -1.7836
   34CHL1    O3 2445   0.069   5.508   3.175 -0.4854  0.4402 -0.1013
   34CHL1   H3' 2446   0.163   5.530   3.175 -0.4322  0.4027  1.9938
   34CHL1    C4 2447   0.051   5.625   3.390  0.7196 -0.0622  0.4744
   34CHL1   H4A 2448   0.157   5.656   3.387  1.3490 -2.0244  1.1258
   34CHL1   H4B 2449  -0.006   5.704   3.336  1.8573  0.1310 -0.4680
   34CHL1    C5 2450   0.013   5.621   3.542 -0.3488  0.4280  0.6921
   34CHL1    C6 2451  -0.082   5.696   3.605 -0.2358  0.4027 -0.3757
   34CHL1    H6 2452  -0.135   5.772   3.547 -3.4933  0.7065  2.6977
   34CHL1    C7 2453  -0.119   5.680   3.749 -0.1884  0.2134 -0.6348
   34CHL1   H7A 2454  -0.141   5.779   3.794 -2.0417  1.0518 -3.1542
   34CHL1   H7B 2455  -0.215   5.625   3.759 -0.6870  1.1919  0.1129
   34CHL1    C8 2456  -0.009   5.604   3.826  0.6124 -0.4009  0.0596
   34CHL1    H8 2457   0.074   5.678   3.825 -0.2695  0.6636 -1.8686
   34CHL1   C14 2458  -0.054   5.574   3.969 -0.2713 -0.0538  0.1839
   34CHL1   H14 2459  -0.131   5.495   3.953  0.0912 -0.5210  0.7534
   34CHL1   C15 2460  -0.127   5.681   4.046  0.3092 -0.2056 -0.9350
   34CHL1  H15A 2461  -0.081   5.780   4.022  3.1518 -0.9910  0.8080
   34CHL1  H15B 2462  -0.235   5.685   4.020  0.0286  0.4970  0.2415
   34CHL1   C16 2463  -0.103   5.659   4.196 -0.5310  0.0161  0.2467
   34CHL1  H16A 2464  -0.041   5.736   4.246 -2.1312  1.2618  0.4136
   34CHL1  H16B 2465  -0.193   5.646   4.260  0.4085 -1.6624  1.2906
   34CHL1   C17 2466  -0.030   5.519   4.201  0.1179  1.0729 -0.6491
   34CHL1   H17 2467  -0.103   5.434   4.196  2.1605 -0.7516 -1.0033
   34CHL1   C13 2468   0.050   5.507   4.062  0.5420 -0.5567  0.0057
   34CHL1   C18 2469   0.170   5.601   4.083 -0.7774  0.0089 -0.5572
   34CHL1  H18A 2470   0.235   5.611   3.993  1.8592  0.3053  1.2866
   34CHL1  H18B 2471   0.137   5.703   4.110 -2.8446 -0.6561 -0.3739
   34CHL1  H18C 2472   0.232   5.547   4.158  0.5034  0.9970 -0.8778
   34CHL1   C12 2473   0.074   5.367   4.005  0.2521 -0.4320  0.1850
   34CHL1  H12A 2474   0.160   5.327   4.063  0.8212 -0.3215 -0.5603
   34CHL1  H12B 2475  -0.015   5.301   4.010  1.0073 -1.3480  3.0241
   34CHL1   C11 2476   0.116   5.377   3.853  0.5410 -0.3534 -0.5300
   34CHL1  H11A 2477   0.216   5.420   3.872 -0.4380  1.3797  1.1040
   34CHL1  H11B 2478   0.119   5.277   3.805  2.6875  0.1407 -1.5551
   34CHL1    C9 2479   0.028   5.472   3.765  0.2971  0.6928  0.6196
   34CHL1    H9 2480  -0.072   5.423   3.761  2.0977 -3.5815  2.5847
   34CHL1   C10 2481   0.084   5.505   3.620 -0.7340 -0.1090  0.2788
   34CHL1   C19 2482   0.235   5.544   3.637  0.1418 -0.0418 -0.1923
   34CHL1  H19A 2483   0.285   5.569   3.541 -1.7448  2.0447 -0.7192
   34CHL1  H19B 2484   0.241   5.642   3.690  0.0516  0.2051 -0.6352
   34CHL1  H19C 2485   0.304   5.469   3.681 -0.3920 -1.5869 -1.8789
   34CHL1    C1 2486   0.081   5.370   3.536 -0.4009 -0.1892 -0.4969
   34CHL1   H1A 2487   0.154   5.304   3.586 -1.0773 -0.4641  0.1423
   34CHL1   H1B 2488  -0.015   5.313   3.542 -0.7220  0.3296 -0.5947
   34CHL1    C2 2489   0.113   5.389   3.376  0.3966 -0.3281 -0.3245
   34CHL1   H2A 2490   0.106   5.291   3.324 -0.4776 -1.2820  1.4663
   34CHL1   H2B 2491   0.218   5.422   3.389  0.3878 -1.0425  2.1508
   34CHL1   C20 2492   0.040   5.487   4.340 -0.1035 -0.0751  0.0484
   34CHL1   H20 2493   0.121   5.562   4.349 -2.0271  2.3869 -1.7637
   34CHL1   C21 2494   0.096   5.350   4.346  0.7975 -0.1360 -0.8077
   34CHL1  H21A 2495   0.195   5.329   4.301  2.5371 -0.3899  2.7750
   34CHL1  H21B 2496   0.029   5.273   4.302 -0.3716  1.4346 -1.9231
   34CHL1  H21C 2497   0.125   5.321   4.449 -0.7086 -3.7403 -1.2683
   34CHL1   C22 2498  -0.058   5.498   4.458  0.5838  0.5507 -0.1472
   34CHL1  H22A 2499  -0.118   5.590   4.441  0.6087  0.6863  0.4691
   34CHL1  H22B 2500  -0.126   5.411   4.465 -0.9041  1.8091  2.2475
   34CHL1   C23 2501   0.007   5.496   4.600  0.2123  0.3671  0.5310
   34CHL1  H23A 2502  -0.074   5.527   4.670  0.9493  4.0897 -0.0361
   34CHL1  H23B 2503   0.045   5.397   4.632  1.6491  0.2661 -1.3320
   34CHL1   C24 2504   0.121   5.599   4.622  0.0951  0.0614  0.2612
   34CHL1  H24A 2505   0.213   5.558   4.575  0.3342 -1.0103  1.5813
   34CHL1  H24B 2506   0.090   5.693   4.572  1.4443  1.9356  2.6937
   34CHL1   C25 2507   0.165   5.630   4.766 -0.0381 -0.0493 -1.2077
   34CHL1   H25 2508   0.086   5.673   4.833  1.5793  0.2320  0.6226
   34CHL1   C26 2509   0.223   5.512   4.849  0.0425 -0.2573 -0.5682
   34CHL1  H26A 2510   0.309   5.468   4.794  1.1541  0.2969  0.6882
   34CHL1  H26B 2511   0.251   5.532   4.955 -1.9870 -2.4741  0.4828
   34CHL1  H26C 2512   0.145   5.432   4.849  2.1277 -2.4747 -2.4557
   34CHL1   C27 2513   0.283   5.729   4.759  0.2306 -0.3747 -0.0891
   34CHL1  H27A 2514   0.256   5.822   4.704 -2.5684 -1.7125 -1.1657
   34CHL1  H27B 2515   0.316   5.770   4.857 -2.3372  1.0102  0.2856
   34CHL1  H27C 2516   0.362   5.676   4.701  2.8032 -0.2848  3.0497
   35CHL1    C3 2517   3.699   4.538   3.243  0.4980  0.2729  1.7092
   35CHL1    H3 2518   3.690   4.429   3.262  1.2170 -0.0466  0.3422
   35CHL1    O3 2519   3.709   4.582   3.104  0.2043  0.0694 -0.5893
   35CHL1   H3' 2520   3.636   4.534   3.063  1.2569 -0.7786 -1.5301
   35CHL1    C4 2521   3.576   4.603   3.305  0.1387  0.0347 -0.4745
   35CHL1   H4A 2522   3.574   4.714   3.294  1.8664  0.3965  2.0299
   35CHL1   H4B 2523   3.496   4.565   3.238  1.8170  1.2565 -3.3343
   35CHL1    C5 2524   3.561   4.571   3.446  0.2117  0.1415  0.3693
   35CHL1    C6 2525   3.459   4.494   3.488 -0.3671 -0.1875  0.5891
   35CHL1    H6 2526   3.379   4.465   3.418  0.1337 -0.9122  0.3046
   35CHL1    C7 2527   3.445   4.458   3.633 -0.3820  0.9653 -0.0705
   35CHL1   H7A 2528   3.337   4.463   3.661 -0.1041  0.7745  1.1050
   35CHL1   H7B 2529   3.472   4.352   3.654 -3.1063  0.5638  2.0328
   35CHL1    C8 2530   3.528   4.534   3.731 -0.0962 -0.0059 -0.3515
   35CHL1    H8 2531   3.473   4.630   3.730 -2.9189 -1.4678  1.7911
   35CHL1   C14 2532   3.530   4.468   3.867 -0.8848  0.0588 -0.1134
   35CHL1   H14 2533   3.583   4.371   3.854  2.0193  1.1484  2.3642
   35CHL1   C15 2534   3.397   4.445   3.943 -0.3995  0.2504 -0.0285
   35CHL1  H15A 2535   3.336   4.537   3.952 -2.6674 -1.1793 -0.0425
   35CHL1  H15B 2536   3.348   4.361   3.889  1.1620  1.0051 -2.8033
   35CHL1   C16 2537   3.442   4.393   4.082  0.0628  0.0442 -1.0460
   35CHL1  H16A 2538   3.383   4.439   4.164  0.7553  1.0771 -1.1186
   35CHL1  H16B 2539   3.438   4.282   4.079  1.0993  0.0068 -1.2781
   35CHL1   C17 2540   3.586   4.448   4.094 -0.4105 -0.8628  0.3999
   35CHL1   H17 2541   3.652   4.361   4.074  0.3600 -0.4031  0.8932
   35CHL1   C13 2542   3.614   4.541   3.975 -0.6749 -0.2240 -0.4723
   35CHL1   C18 2543   3.560   4.682   3.997  0.0282 -0.0004 -0.5534
   35CHL1  H18A 2544   3.628   4.747   4.056  0.2200 -0.2783 -0.4644
   35CHL1  H18B 2545   3.553   4.735   3.900  0.6266  1.4509  0.1654
   35CHL1  H18C 2546   3.454   4.679   4.032  0.0580  0.8325 -0.3683
   35CHL1   C12 2547   3.755   4.554   3.922 -0.4334 -0.0581 -0.0880
   35CHL1  H12A 2548   3.835   4.608   3.978  3.1092 -1.9532 -2.8961
   35CHL1  H12B 2549   3.794   4.450   3.922 -0.0794  0.0684  0.7276
   35CHL1   C11 2550   3.761   4.613   3.778 -0.5425 -0.0723  1.0506
   35CHL1  H11A 2551   3.739   4.721   3.792 -0.8876  0.1136 -0.7764
   35CHL1  H11B 2552   3.866   4.607   3.742 -0.7634  0.9212  0.2220
   35CHL1    C9 2553   3.668   4.546   3.670  0.3203  0.7414  1.0378
   35CHL1    H9 2554   3.700   4.441   3.651 -2.1091  0.1408 -0.2144
   35CHL1   C10 2555   3.673   4.615   3.530 -0.1872  0.3914  0.0309
   35CHL1   C19 2556   3.660   4.768   3.546 -0.4474  0.0313 -0.4526
   35CHL1  H19A 2557   3.664   4.832   3.455 -0.8756  1.4959  0.5171
   35CHL1  H19B 2558   3.567   4.787   3.603 -0.0230  1.6085 -0.2369
   35CHL1  H19C 2559   3.733   4.814   3.615  0.3694  0.9843 -1.8861
   35CHL1    C1 2560   3.809   4.560   3.459 -0.1579 -0.7276 -0.3099
   35CHL1   H1A 2561   3.897   4.599   3.514 -1.9108  1.9274  0.7687
   35CHL1   H1B 2562   3.811   4.449   3.473 -0.4187 -0.7113 -0.1279
   35CHL1    C2 2563   3.823   4.586   3.309 -0.1547 -0.1675 -0.1433
   35CHL1   H2A 2564   3.917   4.539   3.272  0.2212 -0.9859  1.7312
   35CHL1   H2B 2565   3.824   4.696   3.299  0.4703 -0.2426 -1.0197
   35CHL1   C20 2566   3.619   4.508   4.235  0.4874  0.5145 -0.4735
   35CHL1   H20 2567   3.556   4.597   4.256  1.6736  1.6887 -1.6337
   35CHL1   C21 2568   3.768   4.543   4.244 -0.0401 -0.4415  0.2784
   35CHL1  H21A 2569   3.786   4.635   4.186  3.3225 -1.1510 -0.0288
   35CHL1  H21B 2570   3.822   4.467   4.184  1.2160  2.0056 -1.8552
   35CHL1  H21C 2571   3.812   4.549   4.346  3.4611  0.5889 -1.1535
   35CHL1   C22 2572   3.587   4.412   4.356 -0.2569  0.7406 -0.2562
   35CHL1  H22A 2573   3.487   4.374   4.329 -0.0112 -2.2616  2.4114
   35CHL1  H22B 2574   3.663   4.331   4.363 -0.8890  0.2384  1.3213
   35CHL1   C23 2575   3.560   4.483   4.487 -0.1285 -0.7525  0.0345
   35CHL1  H23A 2576   3.638   4.556   4.516  1.9917 -1.5993 -3.0547
   35CHL1  H23B 2577   3.471   4.548   4.474  0.0813 -0.4059  0.3179
   35CHL1   C24 2578   3.527   4.391   4.607  0.4818 -0.2967  0.4818
   35CHL1  H24A 2579   3.499   4.458   4.691  1.5831 -0.5696  1.0763
   35CHL1  H24B 2580   3.436   4.330   4.585  1.4207 -1.1934 -1.1096
   35CHL1   C25 2581   3.647   4.310   4.664  0.3331 -0.1671 -0.1055
   35CHL1   H25 2582   3.696   4.256   4.579  0.4449 -1.3596  0.6940
   35CHL1   C26 2583   3.741   4.407   4.726  0.6705 -0.3619  0.4185
   35CHL1  H26A 2584   3.829   4.353   4.766 -0.9458 -2.5852  1.1873
   35CHL1  H26B 2585   3.785   4.463   4.642  0.8271 -0.9556  0.1014
   35CHL1  H26C 2586   3.689   4.474   4.799 -1.0902  1.7457 -2.5351
   35CHL1   C27 2587   3.598   4.217   4.769 -0.0414 -0.2106 -0.7357
   35CHL1  H27A 2588   3.515   4.151   4.733  1.0553 -1.0305 -1.8564
   35CHL1  H27B 2589   3.684   4.153   4.797  0.7101  0.6135 -1.1589
   35CHL1  H27C 2590   3.568   4.265   4.865 -1.1021 -3.1575  0.5446
   36CHL1    C3 2591   4.406   6.990   3.229 -0.0073  0.2546  0.1145
   36CHL1    H3 2592   4.429   7.098   3.238  0.3813  0.1433  0.4661
   36CHL1    O3 2593   4.415   6.954   3.098 -0.4926 -0.1674  0.2768
   36CHL1   H3' 2594   4.508   6.953   3.078 -0.1845  0.7771  1.5120
   36CHL1    C4 2595   4.509   6.899   3.309 -0.0074 -1.0338 -0.1372
   36CHL1   H4A 2596   4.482   6.794   3.284  1.7802 -1.1051 -2.0516
   36CHL1   H4B 2597   4.613   6.926   3.282  0.4236 -0.6175  1.7513
   36CHL1    C5 2598   4.482   6.918   3.460  0.1430  0.8672 -0.2618
   36CHL1    C6 2599   4.570   6.962   3.553  0.0557  0.3009 -0.7708
   36CHL1    H6 2600   4.674   6.981   3.524  1.2399 -0.1534  2.7534
   36CHL1    C7 2601   4.545   6.970   3.699  0.5031  0.1060 -0.0568
   36CHL1   H7A 2602   4.633   6.927   3.750  1.2670  0.6969 -0.8394
   36CHL1   H7B 2603   4.539   7.078   3.725 -0.3582 -0.3377  1.7317
   36CHL1    C8 2604   4.417   6.896   3.737 -0.7478  0.4607 -0.4085
   36CHL1    H8 2605   4.425   6.786   3.737 -0.3120  0.4638  1.2344
   36CHL1   C14 2606   4.375   6.933   3.878  0.3199  0.0263 -0.1057
   36CHL1   H14 2607   4.371   7.044   3.884  0.3078  0.0255 -0.1005
   36CHL1   C15 2608   4.466   6.888   3.989 -0.9982 -0.0052  1.0586
   36CHL1  H15A 2609   4.503   6.787   3.962 -1.0747  0.1626  0.3137
   36CHL1  H15B 2610   4.555   6.953   4.005 -0.6050 -0.5806  1.2272
   36CHL1   C16 2611   4.380   6.892   4.119  0.8810  0.7728 -0.2879
   36CHL1  H16A 2612   4.388   6.788   4.157 -0.3532  0.8859  0.3360
   36CHL1  H16B 2613   4.420   6.958   4.198  1.6474 -1.1233  0.9814
   36CHL1   C17 2614   4.236   6.920   4.074  0.2389 -0.9943  0.2797
   36CHL1   H17 2615   4.206   7.025   4.057  2.2079 -0.3140  0.8035
   36CHL1   C13 2616   4.241   6.881   3.922 -0.1990  0.3357  0.1200
   36CHL1   C18 2617   4.249   6.722   3.911 -0.1845 -1.1488  0.1339
   36CHL1  H18A 2618   4.151   6.673   3.926 -1.0129  0.1290 -0.8829
   36CHL1  H18B 2619   4.260   6.692   3.804 -1.2393  1.8387 -0.9203
   36CHL1  H18C 2620   4.335   6.675   3.964  2.6258  0.5703 -2.5199
   36CHL1   C12 2621   4.134   6.933   3.834 -0.5050 -0.2802 -0.7730
   36CHL1  H12A 2622   4.034   6.890   3.858 -0.3640  0.3912  1.2357
   36CHL1  H12B 2623   4.122   7.044   3.839  0.2948 -0.1754 -1.0986
   36CHL1   C11 2624   4.158   6.900   3.691 -0.4375  0.0466 -0.1403
   36CHL1  H11A 2625   4.147   6.790   3.683  2.8030 -0.3731 -0.0649
   36CHL1  H11B 2626   4.082   6.955   3.631  1.5816 -0.0283 -2.9621
   36CHL1    C9 2627   4.304   6.936   3.642 -0.2894  0.4268 -0.1507
   36CHL1    H9 2628   4.307   7.046   3.647  0.3984  0.3947  0.3227
   36CHL1   C10 2629   4.338   6.897   3.498 -0.7826  0.1986 -0.1310
   36CHL1   C19 2630   4.302   6.756   3.484 -0.2912  0.2111  0.0031
   36CHL1  H19A 2631   4.345   6.696   3.566  0.1162 -0.3909 -0.6384
   36CHL1  H19B 2632   4.193   6.738   3.468 -0.7166  1.7834  0.8900
   36CHL1  H19C 2633   4.348   6.707   3.395  0.0289 -0.4806  0.5420
   36CHL1    C1 2634   4.244   6.982   3.412 -0.3481 -0.1379  0.1022
   36CHL1   H1A 2635   4.138   6.951   3.422  0.3659 -3.3134 -0.9197
   36CHL1   H1B 2636   4.262   7.088   3.440 -0.4828  0.2280 -1.1166
   36CHL1    C2 2637   4.257   6.967   3.266 -0.7019 -0.8764 -0.3600
   36CHL1   H2A 2638   4.197   7.042   3.211  1.6969  0.8390 -0.7761
   36CHL1   H2B 2639   4.227   6.865   3.232 -0.1228 -1.0303 -0.4241
   36CHL1   C20 2640   4.117   6.852   4.149 -0.2089  0.6402  0.1883
   36CHL1   H20 2641   4.052   6.801   4.075  0.5713 -0.2580  0.0980
   36CHL1   C21 2642   4.030   6.966   4.213  0.0264  0.4324  0.4044
   36CHL1  H21A 2643   4.098   7.018   4.283  2.8603 -1.3691 -0.8405
   36CHL1  H21B 2644   3.961   6.907   4.277  2.0033 -2.6526 -0.1026
   36CHL1  H21C 2645   3.984   7.038   4.142 -1.2782  1.3088  2.0637
   36CHL1   C22 2646   4.159   6.733   4.246  0.3062  0.0140  1.0430
   36CHL1  H22A 2647   4.220   6.657   4.192  1.9952  0.7925  1.7540
   36CHL1  H22B 2648   4.231   6.773   4.321  1.7053  1.1146 -0.7836
   36CHL1   C23 2649   4.040   6.655   4.307 -0.0467 -0.7835  0.2822
   36CHL1  H23A 2650   3.983   6.723   4.373  0.8119 -0.0642  0.2935
   36CHL1  H23B 2651   3.983   6.632   4.214  1.0849 -1.2660 -0.3120
   36CHL1   C24 2652   4.093   6.523   4.378 -0.2180 -0.2668  0.3604
   36CHL1  H24A 2653   3.994   6.489   4.416 -2.1953  2.4889 -1.9080
   36CHL1  H24B 2654   4.128   6.460   4.294  0.2244 -1.1036  1.1508
   36CHL1   C25 2655   4.188   6.538   4.504 -0.2832 -0.5753 -0.5483
   36CHL1   H25 2656   4.254   6.626   4.492 -0.9625  0.2375  1.2334
   36CHL1   C26 2657   4.101   6.555   4.625 -0.0550  0.9791 -0.1437
   36CHL1  H26A 2658   4.043   6.465   4.656 -0.8543  2.5903  3.4598
   36CHL1  H26B 2659   4.172   6.577   4.707  1.1283 -1.5550 -0.3748
   36CHL1  H26C 2660   4.026   6.633   4.604  0.1308  0.8712 -1.2949
   36CHL1   C27 2661   4.280   6.421   4.523  0.1475  0.7298 -0.2263
   36CHL1  H27A 2662   4.230   6.326   4.552  0.9151  0.1299 -0.8356
   36CHL1  H27B 2663   4.337   6.395   4.430  0.8178 -0.7282  0.5518
   36CHL1  H27C 2664   4.357   6.440   4.600  1.9553  0.3479 -1.8528
   37CHL1    C3 2665   6.485   4.933   3.231 -0.1790 -0.1332  0.3595
   37CHL1    H3 2666   6.562   5.005   3.265 -1.0457 -0.0078  2.2218
   37CHL1    O3 2667   6.470   4.901   3.093 -0.0491 -0.3510 -0.3260
   37CHL1   H3' 2668   6.427   4.974   3.048  0.6117  0.7943  0.8052
   37CHL1    C4 2669   6.519   4.807   3.314 -0.4302 -0.1186 -0.0678
   37CHL1   H4A 2670   6.451   4.732   3.269 -0.5630  0.0922 -0.2196
   37CHL1   H4B 2671   6.622   4.777   3.285 -1.2516 -0.9639 -2.3374
   37CHL1    C5 2672   6.496   4.825   3.469 -0.1956 -0.4330  0.3959
   37CHL1    C6 2673   6.598   4.818   3.551  0.3040 -0.1639 -0.0324
   37CHL1    H6 2674   6.704   4.800   3.530  0.5913 -0.0153  1.1958
   37CHL1    C7 2675   6.582   4.827   3.701 -0.4678 -0.8633 -0.1022
   37CHL1   H7A 2676   6.644   4.749   3.750  1.7147  1.6294  1.4283
   37CHL1   H7B 2677   6.631   4.918   3.743  0.0950 -1.5741  0.8034
   37CHL1    C8 2678   6.438   4.804   3.742 -0.0633  0.1595  0.0807
   37CHL1    H8 2679   6.406   4.700   3.719 -0.4512 -0.3364  2.5115
   37CHL1   C14 2680   6.426   4.834   3.887  0.0477 -0.0479 -0.1812
   37CHL1   H14 2681   6.459   4.938   3.909  0.5968 -0.1580 -0.4712
   37CHL1   C15 2682   6.516   4.746   3.982 -0.1253  0.0090  0.7366
   37CHL1  H15A 2683   6.497   4.642   3.947 -0.1653  0.5200 -0.8615
   37CHL1  H15B 2684   6.625   4.764   3.977 -0.2455  0.5281 -0.6887
   37CHL1   C16 2685   6.453   4.775   4.121 -0.3843 -0.0715  0.2967
   37CHL1  H16A 2686   6.434   4.679   4.174 -0.0293 -0.0739  0.4212
   37CHL1  H16B 2687   6.513   4.849   4.179  0.9129 -0.2637 -0.7565
   37CHL1   C17 2688   6.307   4.836   4.094 -0.0888 -0.1936 -0.7690
   37CHL1   H17 2689   6.305   4.947   4.099  1.3909  0.0225 -3.1317
   37CHL1   C13 2690   6.282   4.812   3.944 -0.4892 -0.4132 -0.0430
   37CHL1   C18 2691   6.233   4.664   3.917  0.0733 -0.4026 -0.0715
   37CHL1  H18A 2692   6.300   4.585   3.958 -0.5042  0.1873  2.1923
   37CHL1  H18B 2693   6.135   4.642   3.965  0.2559  2.4700  1.8779
   37CHL1  H18C 2694   6.232   4.645   3.808 -3.1406 -0.1287 -0.1865
   37CHL1   C12 2695   6.191   4.918   3.871  0.2643 -0.0896 -0.7225
   37CHL1  H12A 2696   6.084   4.906   3.897 -0.1335  0.7056 -1.9040
   37CHL1  H12B 2697   6.238   5.013   3.904  0.5733 -0.4276 -0.1838
   37CHL1   C11 2698   6.196   4.902   3.718 -0.5993  0.2722 -0.3805
   37CHL1  H11A 2699   6.134   4.813   3.692 -0.4198  0.2473 -0.7418
   37CHL1  H11B 2700   6.150   4.995   3.679  0.5920  1.4235  0.8476
   37CHL1    C9 2701   6.341   4.894   3.660 -0.1247 -0.3188 -0.5858
   37CHL1    H9 2702   6.388   4.994   3.674 -0.3895  0.0617 -2.2415
   37CHL1   C10 2703   6.352   4.860   3.509 -0.0848 -0.0491 -0.2888
   37CHL1   C19 2704   6.273   4.734   3.465 -0.0920  0.2840  0.6813
   37CHL1  H19A 2705   6.169   4.771   3.479 -0.4576  0.4011 -1.8755
   37CHL1  H19B 2706   6.285   4.685   3.366  0.3911 -0.4854  1.1161
   37CHL1  H19C 2707   6.293   4.657   3.542 -0.3027 -0.7862 -0.3025
   37CHL1    C1 2708   6.313   4.990   3.429 -0.1384  0.7070 -0.4038
   37CHL1   H1A 2709   6.208   5.021   3.448  0.5351  2.7177  0.3464
   37CHL1   H1B 2710   6.372   5.076   3.467  1.0732 -0.0929 -0.4287
   37CHL1    C2 2711   6.343   4.976   3.277 -0.0473 -0.5109  0.3219
   37CHL1   H2A 2712   6.318   5.067   3.218  0.1055 -0.0998  0.8783
   37CHL1   H2B 2713   6.270   4.903   3.236 -1.6891  1.0908  0.2721
   37CHL1   C20 2714   6.204   4.789   4.194  0.6306 -0.0696  0.0968
   37CHL1   H20 2715   6.206   4.678   4.190 -0.2709 -0.1398  1.1923
   37CHL1   C21 2716   6.055   4.840   4.164  0.1044  0.0468 -0.0951
   37CHL1  H21A 2717   5.987   4.811   4.247 -0.4191  2.3680  0.3412
   37CHL1  H21B 2718   6.017   4.791   4.072  2.8296 -2.4933 -0.0249
   37CHL1  H21C 2719   6.049   4.951   4.158 -0.3013  0.0235 -0.1385
   37CHL1   C22 2720   6.239   4.834   4.341 -0.6166 -0.2623 -0.3770
   37CHL1  H22A 2721   6.349   4.847   4.343 -0.0010 -3.8886 -2.0466
   37CHL1  H22B 2722   6.195   4.932   4.371  1.8898  1.0698 -0.7553
   37CHL1   C23 2723   6.196   4.729   4.437  0.5568  0.5170 -0.0319
   37CHL1  H23A 2724   6.087   4.708   4.427  0.2841  1.2022  1.3019
   37CHL1  H23B 2725   6.231   4.630   4.400 -0.2730  0.0627  0.3768
   37CHL1   C24 2726   6.244   4.750   4.582 -0.3173 -0.0810 -0.1821
   37CHL1  H24A 2727   6.354   4.742   4.593 -0.2188  2.6527  1.6008
   37CHL1  H24B 2728   6.223   4.857   4.603  0.8559  0.2703 -0.7131
   37CHL1   C25 2729   6.178   4.661   4.687  0.0243 -0.2686  0.1260
   37CHL1   H25 2730   6.190   4.554   4.662 -1.6903 -0.6974  0.9948
   37CHL1   C26 2731   6.253   4.691   4.813  0.5469 -0.7570  0.0906
   37CHL1  H26A 2732   6.253   4.800   4.834  0.8281 -0.3334 -1.9341
   37CHL1  H26B 2733   6.200   4.642   4.897 -0.2663 -0.7601 -0.4197
   37CHL1  H26C 2734   6.359   4.657   4.810  1.0213  0.7251 -2.4077
   37CHL1   C27 2735   6.033   4.691   4.702  0.1062  0.5079  0.1612
   37CHL1  H27A 2736   6.011   4.796   4.731  0.0709  0.8771 -1.1665
   37CHL1  H27B 2737   5.969   4.656   4.618  1.5037 -0.0059 -0.7098
   37CHL1  H27C 2738   5.988   4.627   4.781 -0.8996  1.1801  0.1600
   38CHL1    C3 2739   3.567   3.736   3.017 -1.0159 -0.0531  0.1359
   38CHL1    H3 2740   3.479   3.792   2.979  0.0090  0.4536 -1.5492
   38CHL1    O3 2741   3.652   3.696   2.905 -0.1296 -0.3501 -0.0606
   38CHL1   H3' 2742   3.740   3.674   2.934  0.9929 -0.0431 -2.8511
   38CHL1    C4 2743   3.652   3.830   3.106 -0.5912  0.2872 -0.6431
   38CHL1   H4A 2744   3.757   3.798   3.122 -1.0263 -1.2320 -0.6936
   38CHL1   H4B 2745   3.669   3.918   3.041 -1.7559  0.6087 -0.5223
   38CHL1    C5 2746   3.579   3.857   3.234 -0.2170 -0.5320  0.2997
   38CHL1    C6 2747   3.555   3.983   3.277  0.1777 -0.1386  0.1554
   38CHL1    H6 2748   3.595   4.065   3.216  0.0492  1.1700  1.7514
   38CHL1    C7 2749   3.491   4.017   3.406 -0.6870  0.0873 -1.0324
   38CHL1   H7A 2750   3.549   4.102   3.447  0.3287 -0.4203 -1.3858
   38CHL1   H7B 2751   3.382   4.034   3.387 -1.3699 -1.6154  1.0360
   38CHL1    C8 2752   3.492   3.897   3.503 -0.5492  0.3102  0.1344
   38CHL1    H8 2753   3.597   3.882   3.534  0.2921 -2.7405 -3.4944
   38CHL1   C14 2754   3.397   3.922   3.618  0.8557 -0.1498  0.0088
   38CHL1   H14 2755   3.296   3.919   3.571  1.9160  1.0024 -2.5157
   38CHL1   C15 2756   3.417   4.052   3.689  0.9960 -0.1128  0.3775
   38CHL1  H15A 2757   3.523   4.064   3.719  1.6732 -0.7012 -1.6172
   38CHL1  H15B 2758   3.391   4.142   3.629  2.4038 -1.0303 -1.7371
   38CHL1   C16 2759   3.325   4.029   3.815  0.5303 -0.1020 -0.3856
   38CHL1  H16A 2760   3.390   4.054   3.902 -0.4405 -1.2143  0.6839
   38CHL1  H16B 2761   3.236   4.095   3.817  0.7883  0.2862  2.4208
   38CHL1   C17 2762   3.284   3.878   3.818  0.3530  0.3950  0.6675
   38CHL1   H17 2763   3.189   3.866   3.761  0.1788  0.1469  1.0088
   38CHL1   C13 2764   3.388   3.813   3.727  0.1763 -0.0963 -0.2300
   38CHL1   C18 2765   3.517   3.780   3.797 -0.1250 -0.7409 -0.4664
   38CHL1  H18A 2766   3.591   3.741   3.724  0.7651  1.3862 -0.7836
   38CHL1  H18B 2767   3.564   3.863   3.855 -0.9168 -2.6537  3.2649
   38CHL1  H18C 2768   3.495   3.703   3.874  0.7956  0.5757  1.1895
   38CHL1   C12 2769   3.340   3.680   3.653 -0.3092 -0.8261 -0.0468
   38CHL1  H12A 2770   3.349   3.593   3.722  2.3411 -0.6885 -0.1045
   38CHL1  H12B 2771   3.236   3.700   3.619 -0.3110  1.3071  1.0487
   38CHL1   C11 2772   3.424   3.649   3.526  0.3985  0.5635  0.1054
   38CHL1  H11A 2773   3.520   3.611   3.565 -0.0803  0.4270  1.1641
   38CHL1  H11B 2774   3.357   3.571   3.484  0.0606  0.9295 -0.0471
   38CHL1    C9 2775   3.442   3.767   3.428  0.4629 -0.4493 -0.4523
   38CHL1    H9 2776   3.342   3.792   3.386 -0.0367 -0.9658  0.4041
   38CHL1   C10 2777   3.536   3.732   3.304 -0.7034  0.0465 -1.5901
   38CHL1   C19 2778   3.665   3.669   3.358 -0.4565  0.4882  0.1663
   38CHL1  H19A 2779   3.740   3.653   3.278 -1.2864 -0.4354 -0.4494
   38CHL1  H19B 2780   3.714   3.732   3.436 -0.0980 -0.2734  0.5707
   38CHL1  H19C 2781   3.642   3.573   3.409 -0.6811 -0.6424 -1.9710
   38CHL1    C1 2782   3.449   3.636   3.209 -0.2822  0.3507  0.0149
   38CHL1   H1A 2783   3.421   3.551   3.274 -1.2327  0.0005 -0.8279
   38CHL1   H1B 2784   3.363   3.696   3.172  0.5145  1.0668 -0.7358
   38CHL1    C2 2785   3.536   3.603   3.091 -0.2304 -0.1701  0.8140
   38CHL1   H2A 2786   3.489   3.536   3.016  0.8849 -0.6306  0.5058
   38CHL1   H2B 2787   3.634   3.563   3.125  0.0659  1.0499  1.4629
   38CHL1   C20 2788   3.254   3.814   3.953  0.2126 -0.6285 -0.5274
   38CHL1   H20 2789   3.348   3.807   4.012  0.4861 -0.2973 -0.9189
   38CHL1   C21 2790   3.205   3.666   3.942 -0.4991 -0.3216  0.0577
   38CHL1  H21A 2791   3.125   3.664   3.865  1.0839 -3.6725 -1.7009
   38CHL1  H21B 2792   3.177   3.626   4.042  0.0116  1.2883  0.8722
   38CHL1  H21C 2793   3.287   3.601   3.905  0.7771  0.6230  1.1404
   38CHL1   C22 2794   3.148   3.898   4.033  0.0847  0.6437 -0.8046
   38CHL1  H22A 2795   3.148   4.007   4.010  0.1403  0.5814 -1.1075
   38CHL1  H22B 2796   3.046   3.860   4.009 -0.0767  1.0013 -0.6883
   38CHL1   C23 2797   3.163   3.895   4.185 -0.1623 -0.1543 -0.1419
   38CHL1  H23A 2798   3.069   3.933   4.230 -1.7905 -2.5214 -1.2888
   38CHL1  H23B 2799   3.179   3.792   4.225 -0.9440  0.6295  2.3442
   38CHL1   C24 2800   3.278   3.988   4.213 -0.2271  0.3513 -0.1507
   38CHL1  H24A 2801   3.365   3.968   4.147  1.4820  2.8695  1.1784
   38CHL1  H24B 2802   3.248   4.091   4.186  1.4906  1.4394  1.7943
   38CHL1   C25 2803   3.329   3.998   4.361  0.2224 -0.1610  0.3938
   38CHL1   H25 2804   3.240   4.002   4.427  0.5688 -1.3791  0.9540
   38CHL1   C26 2805   3.414   3.878   4.395 -0.3185 -0.6451 -0.9258
   38CHL1  H26A 2806   3.455   3.874   4.498  0.2213 -1.7659 -1.1731
   38CHL1  H26B 2807   3.348   3.791   4.373 -3.2484  0.9130  0.9531
   38CHL1  H26C 2808   3.502   3.875   4.327 -0.2575 -0.1696 -0.8689
   38CHL1   C27 2809   3.410   4.126   4.386  0.3999 -0.5883  0.0559
   38CHL1  H27A 2810   3.507   4.109   4.333 -1.5787 -4.5761 -2.8039
   38CHL1  H27B 2811   3.351   4.214   4.353  1.5329 -0.0134 -0.5135
   38CHL1  H27C 2812   3.416   4.135   4.497 -1.3267  1.4604  0.0388
   39CHL1    C3 2813   6.064   1.957   3.205 -0.8046 -0.2708 -0.4411
   39CHL1    H3 2814   5.965   2.005   3.190 -1.2898 -0.9207  0.5874
   39CHL1    O3 2815   6.141   1.969   3.081  0.3781  0.7990  0.2156
   39CHL1   H3' 2816   6.166   2.061   3.069  2.5080  0.1344 -0.8971
   39CHL1    C4 2817   6.144   2.029   3.313  0.0533  0.1477 -0.2590
   39CHL1   H4A 2818   6.243   1.978   3.316 -1.0006 -2.0591 -0.7388
   39CHL1   H4B 2819   6.162   2.135   3.285 -0.3164  0.3922  0.4185
   39CHL1    C5 2820   6.068   2.024   3.445 -0.1110  0.7215 -0.1819
   39CHL1    C6 2821   6.017   2.130   3.515  0.2450  0.0580 -0.7904
   39CHL1    H6 2822   6.023   2.233   3.478 -2.8214  0.5494 -0.1621
   39CHL1    C7 2823   5.975   2.114   3.658  0.4058  0.0706  0.1252
   39CHL1   H7A 2824   6.043   2.175   3.723  3.1169 -0.4042 -2.0698
   39CHL1   H7B 2825   5.874   2.159   3.664  1.0665  1.7478 -0.5631
   39CHL1    C8 2826   5.981   1.974   3.728  1.0130  1.2977  0.4833
   39CHL1    H8 2827   6.079   1.953   3.775 -0.1701 -1.9638  1.8307
   39CHL1   C14 2828   5.877   1.959   3.839  0.1566  0.2598  0.1817
   39CHL1   H14 2829   5.785   1.972   3.779  2.0529  2.8919 -2.4374
   39CHL1   C15 2830   5.875   2.071   3.942 -0.2626 -0.0259 -0.0927
   39CHL1  H15A 2831   5.974   2.111   3.971 -0.1150 -1.3473  1.3872
   39CHL1  H15B 2832   5.826   2.168   3.917  1.1166  0.6385 -0.3138
   39CHL1   C16 2833   5.799   2.003   4.062 -0.2482 -0.0574 -0.7941
   39CHL1  H16A 2834   5.865   1.970   4.145  0.1285  2.6557  0.0987
   39CHL1  H16B 2835   5.711   2.062   4.096 -0.1851 -0.5978  0.3653
   39CHL1   C17 2836   5.748   1.868   4.005  0.0129 -0.7412 -0.7315
   39CHL1   H17 2837   5.656   1.887   3.946  1.1793  1.4657 -1.9423
   39CHL1   C13 2838   5.860   1.825   3.907  0.0645 -0.3613  0.9226
   39CHL1   C18 2839   5.989   1.779   3.980 -0.1634 -0.3886  0.4393
   39CHL1  H18A 2840   6.068   1.783   3.902 -0.3909  1.0152  0.2448
   39CHL1  H18B 2841   6.042   1.850   4.047  0.1149 -0.5050  0.3427
   39CHL1  H18C 2842   5.986   1.679   4.027 -1.1451 -1.0272 -0.9060
   39CHL1   C12 2843   5.831   1.720   3.800  0.5043  0.1373  0.4982
   39CHL1  H12A 2844   5.823   1.618   3.843  0.2292 -0.6575 -1.3483
   39CHL1  H12B 2845   5.740   1.745   3.741 -0.2516 -2.0346  0.6512
   39CHL1   C11 2846   5.932   1.723   3.683 -0.1711 -0.0404 -0.4249
   39CHL1  H11A 2847   6.031   1.687   3.718  1.3146  4.1623  0.3492
   39CHL1  H11B 2848   5.894   1.661   3.599  1.7765 -0.0429 -1.3478
   39CHL1    C9 2849   5.955   1.863   3.625  0.3305 -0.0385 -0.0416
   39CHL1    H9 2850   5.857   1.896   3.585  0.2462  5.9294  3.8790
   39CHL1   C10 2851   6.062   1.881   3.505 -0.2908  0.9786 -0.6924
   39CHL1   C19 2852   6.204   1.829   3.563  0.8138  1.0327 -0.2052
   39CHL1  H19A 2853   6.281   1.828   3.483  0.5970  0.2336 -0.4151
   39CHL1  H19B 2854   6.236   1.910   3.631  2.1924  0.9394 -0.7048
   39CHL1  H19C 2855   6.189   1.730   3.612 -0.6298 -0.4250 -3.2944
   39CHL1    C1 2856   6.009   1.786   3.391  0.9700  0.3928  0.3686
   39CHL1   H1A 2857   6.038   1.683   3.421 -1.2444 -0.1049  0.9381
   39CHL1   H1B 2858   5.899   1.793   3.379  1.0812  1.2797 -0.2399
   39CHL1    C2 2859   6.061   1.805   3.248 -0.8380 -0.6218 -0.2276
   39CHL1   H2A 2860   6.023   1.733   3.173  2.5458 -0.2218 -2.5691
   39CHL1   H2B 2861   6.171   1.788   3.256 -0.2157  3.1588  1.1492
   39CHL1   C20 2862   5.706   1.766   4.114 -0.1031  0.0726  0.3370
   39CHL1   H20 2863   5.793   1.714   4.160 -1.2282 -0.7847  1.5642
   39CHL1   C21 2864   5.614   1.664   4.044 -0.4097 -0.1932  0.4432
   39CHL1  H21A 2865   5.664   1.632   3.950  0.3800  1.3996  0.2806
   39CHL1  H21B 2866   5.517   1.714   4.026  0.1297  0.4112 -0.9981
   39CHL1  H21C 2867   5.596   1.573   4.104 -3.0800  0.1418  0.2768
   39CHL1   C22 2868   5.639   1.835   4.235  0.3752 -0.4485 -0.4680
   39CHL1  H22A 2869   5.719   1.895   4.284  0.6859 -0.1709 -1.2918
   39CHL1  H22B 2870   5.566   1.914   4.207 -1.6312 -0.6290  3.6581
   39CHL1   C23 2871   5.565   1.739   4.329  0.4049 -0.0847  0.0393
   39CHL1  H23A 2872   5.492   1.683   4.267 -0.4350  0.1198  0.8136
   39CHL1  H23B 2873   5.640   1.668   4.372  0.7858  1.0871  1.3821
   39CHL1   C24 2874   5.493   1.811   4.442  0.2682 -0.3669  0.2251
   39CHL1  H24A 2875   5.567   1.886   4.479  1.2672 -0.8375 -0.7700
   39CHL1  H24B 2876   5.405   1.869   4.405  0.2457 -0.6966 -0.2399
   39CHL1   C25 2877   5.447   1.722   4.552 -0.6817  0.8050 -0.5086
   39CHL1   H25 2878   5.527   1.651   4.583  0.6169  2.6593  0.6026
   39CHL1   C26 2879   5.410   1.810   4.673  0.5028 -0.2333  0.5916
   39CHL1  H26A 2880   5.362   1.755   4.757  0.4040  0.8515  1.2760
   39CHL1  H26B 2881   5.506   1.853   4.710  1.8166 -0.7515 -2.0187
   39CHL1  H26C 2882   5.341   1.891   4.643  0.6587 -0.7707 -1.3452
   39CHL1   C27 2883   5.339   1.627   4.510 -0.6915 -0.4175  0.2939
   39CHL1  H27A 2884   5.375   1.556   4.433  0.2618  1.1596 -0.7534
   39CHL1  H27B 2885   5.288   1.571   4.592 -0.2873  0.1204  0.9257
   39CHL1  H27C 2886   5.272   1.687   4.446 -1.4574 -3.3829 -1.9451
   40CHL1    C3 2887   1.925   2.219   3.244 -0.1778 -0.2475 -0.4292
   40CHL1    H3 2888   1.916   2.108   3.246  0.3099 -0.3335 -1.7270
   40CHL1    O3 2889   1.956   2.264   3.112  0.2710 -0.1852  0.3222
   40CHL1   H3' 2890   1.922   2.353   3.112  2.7170  0.8442  1.9948
   40CHL1    C4 2891   1.783   2.268   3.275  0.2045  0.6599  0.2320
   40CHL1   H4A 2892   1.775   2.377   3.258 -1.4470  0.2917 -1.8599
   40CHL1   H4B 2893   1.712   2.212   3.210  0.2506 -0.7063  1.2884
   40CHL1    C5 2894   1.736   2.240   3.418  0.0266 -1.2992  0.6377
   40CHL1    C6 2895   1.621   2.185   3.439  0.0953  0.1259  0.2055
   40CHL1    H6 2896   1.565   2.156   3.349  0.2637 -1.2725  0.5367
   40CHL1    C7 2897   1.565   2.167   3.576  0.4377 -0.2772 -0.9615
   40CHL1   H7A 2898   1.458   2.197   3.576  1.0299  2.1889 -2.6372
   40CHL1   H7B 2899   1.582   2.061   3.604  0.7471  0.2492  0.9492
   40CHL1    C8 2900   1.631   2.247   3.693 -0.5411 -0.0179  0.8117
   40CHL1    H8 2901   1.592   2.351   3.690 -0.2281  0.1322  1.6556
   40CHL1   C14 2902   1.601   2.193   3.824  0.3052  1.1036 -0.0993
   40CHL1   H14 2903   1.653   2.096   3.839 -0.3111  1.0551  2.1170
   40CHL1   C15 2904   1.443   2.176   3.861 -0.6149 -0.7548 -0.0906
   40CHL1  H15A 2905   1.394   2.271   3.828  0.2075 -0.2959 -0.0174
   40CHL1  H15B 2906   1.393   2.091   3.810  0.1073  0.8100 -3.7746
   40CHL1   C16 2907   1.447   2.166   4.019 -0.3088 -0.2294  0.4782
   40CHL1  H16A 2908   1.400   2.259   4.058  0.0896  1.7916 -3.4086
   40CHL1  H16B 2909   1.398   2.082   4.072 -2.8112  1.2567  0.6675
   40CHL1   C17 2910   1.598   2.188   4.065 -0.2113 -0.0867  0.0603
   40CHL1   H17 2911   1.643   2.087   4.078  0.0218 -0.3780 -2.5638
   40CHL1   C13 2912   1.665   2.256   3.944  0.2000  0.1208 -0.2486
   40CHL1   C18 2913   1.625   2.408   3.960  0.2180 -0.2081  0.3425
   40CHL1  H18A 2914   1.515   2.410   3.972  0.1827  0.2722 -0.0243
   40CHL1  H18B 2915   1.681   2.443   4.050  1.5260 -0.7304 -0.2391
   40CHL1  H18C 2916   1.642   2.477   3.875 -0.1842 -0.8327 -0.2527
   40CHL1   C12 2917   1.816   2.242   3.923  0.0632 -0.3631 -0.0607
   40CHL1  H12A 2918   1.868   2.299   4.003 -2.3134  1.7596  0.1239
   40CHL1  H12B 2919   1.848   2.136   3.926 -0.0636 -0.5095 -2.3232
   40CHL1   C11 2920   1.866   2.293   3.788  0.2524  0.0876 -0.2289
   40CHL1  H11A 2921   1.855   2.404   3.792 -2.6109 -0.1238 -0.6048
   40CHL1  H11B 2922   1.975   2.276   3.770  0.6963  1.0024  1.3517
   40CHL1    C9 2923   1.789   2.238   3.671  0.6209 -0.2581  0.4026
   40CHL1    H9 2924   1.804   2.129   3.681  0.6430 -0.0810  2.8105
   40CHL1   C10 2925   1.830   2.284   3.533 -0.4395 -0.0640  0.7164
   40CHL1   C19 2926   1.822   2.435   3.530  0.1223 -0.0367  0.0567
   40CHL1  H19A 2927   1.722   2.481   3.544  0.4675  0.1748  2.1274
   40CHL1  H19B 2928   1.881   2.484   3.611  0.6143 -0.8750  0.2182
   40CHL1  H19C 2929   1.859   2.484   3.437 -0.9436 -2.4475 -1.7539
   40CHL1    C1 2930   1.979   2.236   3.490  0.4373  0.4179 -0.3241
   40CHL1   H1A 2931   2.038   2.296   3.563 -2.6443 -1.2061  3.8748
   40CHL1   H1B 2932   1.995   2.128   3.507  0.4121  0.8266  3.1503
   40CHL1    C2 2933   2.024   2.273   3.344  0.2720 -0.7286  0.0351
   40CHL1   H2A 2934   2.124   2.230   3.324 -0.2059 -1.4946 -0.7900
   40CHL1   H2B 2935   2.036   2.381   3.323  3.2792 -1.0457 -0.2372
   40CHL1   C20 2936   1.627   2.243   4.207  0.0773 -0.1648 -0.2156
   40CHL1   H20 2937   1.581   2.344   4.214  2.7643  1.0519  1.5526
   40CHL1   C21 2938   1.774   2.259   4.255 -0.4435  0.9551  0.0693
   40CHL1  H21A 2939   1.842   2.173   4.236  0.2382  1.5724 -0.3674
   40CHL1  H21B 2940   1.791   2.269   4.364  0.7404  1.4502 -0.1411
   40CHL1  H21C 2941   1.819   2.352   4.212  0.2158  0.1868 -0.9640
   40CHL1   C22 2942   1.563   2.144   4.312 -0.3447  0.6208 -0.6620
   40CHL1  H22A 2943   1.457   2.131   4.280 -0.5562 -2.0817  0.8472
   40CHL1  H22B 2944   1.613   2.045   4.298  0.5856  0.9086  0.5231
   40CHL1   C23 2945   1.559   2.181   4.455 -0.6181  0.1155 -0.0183
   40CHL1  H23A 2946   1.576   2.093   4.519 -0.5490  0.9915  1.2065
   40CHL1  H23B 2947   1.637   2.256   4.483 -0.7705 -0.3249  1.6752
   40CHL1   C24 2948   1.423   2.243   4.501  0.3981 -0.4119 -0.6840
   40CHL1  H24A 2949   1.402   2.324   4.428 -1.0645 -0.5380 -0.4318
   40CHL1  H24B 2950   1.342   2.167   4.508 -1.1196  1.2358  0.8444
   40CHL1   C25 2951   1.423   2.327   4.631 -0.3760  0.2926  0.7358
   40CHL1   H25 2952   1.497   2.410   4.633  0.2163 -0.1501 -1.0776
   40CHL1   C26 2953   1.285   2.384   4.652  0.0282 -0.6441 -0.0569
   40CHL1  H26A 2954   1.215   2.298   4.661  1.1915 -1.6344 -0.2482
   40CHL1  H26B 2955   1.281   2.442   4.746 -2.1607 -0.6001 -0.1322
   40CHL1  H26C 2956   1.252   2.443   4.564 -0.9519 -0.1777  0.6019
   40CHL1   C27 2957   1.453   2.237   4.754 -0.2881  0.6026 -0.6447
   40CHL1  H27A 2958   1.446   2.304   4.842  4.7080 -2.7204  2.9141
   40CHL1  H27B 2959   1.381   2.152   4.764  2.4973 -1.7227  1.7206
   40CHL1  H27C 2960   1.559   2.204   4.740 -0.7214 -0.8510 -0.7182
   41CHL1    C3 2961   5.803   5.185   3.220  0.0398 -0.5326 -0.1227
   41CHL1    H3 2962   5.840   5.284   3.253  1.0969 -0.9833  0.0841
   41CHL1    O3 2963   5.849   5.172   3.087 -0.3404 -0.2689 -0.0504
   41CHL1   H3' 2964   5.828   5.080   3.068 -1.0446  0.0116 -0.6863
   41CHL1    C4 2965   5.860   5.073   3.308  0.1831  0.1798  0.2503
   41CHL1   H4A 2966   5.839   4.970   3.272 -1.2003  0.8011 -0.8093
   41CHL1   H4B 2967   5.969   5.092   3.295 -0.0221  0.5842 -0.9426
   41CHL1    C5 2968   5.821   5.093   3.454 -0.0348  0.3522 -0.6965
   41CHL1    C6 2969   5.915   5.109   3.547 -0.3799  0.0166 -0.2913
   41CHL1    H6 2970   6.022   5.100   3.522 -0.3933  1.8694 -1.1659
   41CHL1    C7 2971   5.881   5.124   3.693  0.9033  0.6827  0.1234
   41CHL1   H7A 2972   5.957   5.060   3.743  0.8170 -0.9800 -1.7387
   41CHL1   H7B 2973   5.892   5.226   3.736  0.1490  0.8936 -0.1647
   41CHL1    C8 2974   5.742   5.073   3.723 -0.3149  0.1606  0.7068
   41CHL1    H8 2975   5.743   4.962   3.711 -0.5653  0.2566 -0.2648
   41CHL1   C14 2976   5.701   5.120   3.862  0.3513 -0.5546  0.9153
   41CHL1   H14 2977   5.704   5.231   3.854  0.4264 -0.6472 -0.6795
   41CHL1   C15 2978   5.796   5.078   3.979  0.1385  0.3008 -0.5500
   41CHL1  H15A 2979   5.832   4.973   3.976  0.6497  0.4565 -0.2157
   41CHL1  H15B 2980   5.892   5.134   3.985  0.1833  0.0893  2.8903
   41CHL1   C16 2981   5.708   5.101   4.109  0.0521 -0.3853  0.7191
   41CHL1  H16A 2982   5.706   4.999   4.154 -0.1981 -0.8050 -0.2116
   41CHL1  H16B 2983   5.754   5.173   4.179 -0.8574  3.1406 -1.9938
   41CHL1   C17 2984   5.564   5.135   4.059 -0.7714  0.3287 -0.2103
   41CHL1   H17 2985   5.552   5.245   4.054  1.9787  0.7308  0.5049
   41CHL1   C13 2986   5.561   5.082   3.913 -0.8108 -0.2693  0.0277
   41CHL1   C18 2987   5.550   4.924   3.899 -0.1575  0.2681 -0.0157
   41CHL1  H18A 2988   5.581   4.892   3.797 -1.4233  0.4825 -0.4972
   41CHL1  H18B 2989   5.616   4.870   3.970  0.6485  2.1833  0.7509
   41CHL1  H18C 2990   5.443   4.893   3.905 -0.0155 -0.0681  1.1006
   41CHL1   C12 2991   5.466   5.156   3.819  0.1130  0.3866  0.3930
   41CHL1  H12A 2992   5.358   5.139   3.841 -0.3828  3.9389  1.3378
   41CHL1  H12B 2993   5.471   5.267   3.820  1.4392  0.3523  2.4168
   41CHL1   C11 2994   5.490   5.108   3.679 -0.3579 -0.2500  0.3501
   41CHL1  H11A 2995   5.458   5.003   3.668 -0.4845 -0.2084  0.3145
   41CHL1  H11B 2996   5.425   5.173   3.615  1.1736  0.7350 -0.2605
   41CHL1    C9 2997   5.639   5.127   3.627  0.2733  0.2781  0.1888
   41CHL1    H9 2998   5.661   5.235   3.634  0.3461  0.3108 -0.4823
   41CHL1   C10 2999   5.669   5.096   3.478  0.0695  0.2314  0.2113
   41CHL1   C19 3000   5.594   4.963   3.453 -0.2938  0.2078  0.1511
   41CHL1  H19A 3001   5.483   4.959   3.466 -0.5470 -1.2791 -2.0217
   41CHL1  H19B 3002   5.614   4.928   3.350 -0.9580  0.2904 -0.0165
   41CHL1  H19C 3003   5.632   4.880   3.517  1.5303 -0.8150 -2.1349
   41CHL1    C1 3004   5.613   5.203   3.383 -0.2478 -0.1485 -0.4248
   41CHL1   H1A 3005   5.504   5.214   3.402 -0.0754  1.9080 -0.3916
   41CHL1   H1B 3006   5.652   5.305   3.407  0.3927 -0.1322 -1.4824
   41CHL1    C2 3007   5.648   5.193   3.228  1.1240  0.1611 -0.5269
   41CHL1   H2A 3008   5.608   5.276   3.167  0.4265  0.2548  0.0480
   41CHL1   H2B 3009   5.616   5.098   3.182  0.0875  1.3169 -2.2839
   41CHL1   C20 3010   5.455   5.078   4.153  0.5671  0.3612 -0.3349
   41CHL1   H20 3011   5.471   4.969   4.160  0.2976  0.4497  3.6890
   41CHL1   C21 3012   5.308   5.108   4.113  0.4913 -0.6276  0.5739
   41CHL1  H21A 3013   5.287   5.217   4.121 -1.0404 -0.9450  1.3205
   41CHL1  H21B 3014   5.235   5.046   4.170 -1.0483 -1.7878 -2.4240
   41CHL1  H21C 3015   5.281   5.061   4.016 -0.5162 -0.0357  0.5533
   41CHL1   C22 3016   5.475   5.113   4.307  0.0254  0.7092  0.5875
   41CHL1  H22A 3017   5.580   5.099   4.341 -0.3188  0.3689  1.5681
   41CHL1  H22B 3018   5.442   5.218   4.316 -1.2800  0.3484  0.2454
   41CHL1   C23 3019   5.391   5.025   4.406  0.0906  0.4289 -0.5181
   41CHL1  H23A 3020   5.282   5.035   4.385 -0.2467  0.5211  1.1405
   41CHL1  H23B 3021   5.419   4.918   4.392 -0.4225  0.2555 -0.2710
   41CHL1   C24 3022   5.406   5.065   4.551 -0.4895  0.1396 -0.0689
   41CHL1  H24A 3023   5.338   4.991   4.598 -0.1112  0.6074  1.2499
   41CHL1  H24B 3024   5.508   5.037   4.584 -0.3694 -0.8600 -1.2403
   41CHL1   C25 3025   5.395   5.217   4.592 -0.4567  0.1783  0.3218
   41CHL1   H25 3026   5.456   5.276   4.520 -0.6327 -1.0467 -0.8758
   41CHL1   C26 3027   5.254   5.268   4.582  0.1943  0.4696 -0.4002
   41CHL1  H26A 3028   5.190   5.200   4.642  1.2016 -1.5044 -1.4468
   41CHL1  H26B 3029   5.230   5.373   4.607 -0.8322  0.0352  0.5156
   41CHL1  H26C 3030   5.212   5.243   4.482 -4.3600  0.1923  1.3314
   41CHL1   C27 3031   5.445   5.247   4.733  0.3513 -0.9152 -0.0470
   41CHL1  H27A 3032   5.404   5.173   4.805  0.7419 -2.1509 -1.0554
   41CHL1  H27B 3033   5.555   5.234   4.737  0.5479  0.4521 -0.5756
   41CHL1  H27C 3034   5.421   5.349   4.771 -1.2143 -1.5094  0.6521
   42CHL1    C3 3035   1.711   4.433   3.084  0.8615 -0.2567  0.0050
   42CHL1    H3 3036   1.603   4.429   3.113  1.2344 -0.8787  1.3966
   42CHL1    O3 3037   1.726   4.480   2.952 -0.3893 -0.3692 -0.7983
   42CHL1   H3' 3038   1.819   4.505   2.944  0.2210 -1.3783  1.9518
   42CHL1    C4 3039   1.794   4.528   3.172 -0.3651  0.1729 -0.2338
   42CHL1   H4A 3040   1.898   4.541   3.137 -1.2135  3.1849 -2.0126
   42CHL1   H4B 3041   1.749   4.630   3.170 -1.0321 -0.0416  1.5757
   42CHL1    C5 3042   1.796   4.491   3.321  0.9154  0.2297 -0.8474
   42CHL1    C6 3043   1.745   4.568   3.418 -0.3892 -0.1234 -0.1136
   42CHL1    H6 3044   1.728   4.674   3.395 -0.3389 -0.0550  0.1557
   42CHL1    C7 3045   1.746   4.529   3.567 -0.3238  0.2294 -0.6689
   42CHL1   H7A 3046   1.769   4.611   3.638 -1.9448 -0.1032  0.3004
   42CHL1   H7B 3047   1.641   4.503   3.593 -0.0999 -1.1099 -1.0181
   42CHL1    C8 3048   1.836   4.400   3.585  0.2187  0.2731 -1.0037
   42CHL1    H8 3049   1.944   4.426   3.575  0.1855  1.7282  1.4871
   42CHL1   C14 3050   1.821   4.346   3.729  0.1444 -0.2548  0.2188
   42CHL1   H14 3051   1.713   4.322   3.739 -0.2056  0.7725 -0.7904
   42CHL1   C15 3052   1.861   4.443   3.842 -0.4344  0.2024 -0.0915
   42CHL1  H15A 3053   1.952   4.506   3.829  0.6764 -0.6629  2.7812
   42CHL1  H15B 3054   1.767   4.500   3.862 -0.1813  0.4509  0.3990
   42CHL1   C16 3055   1.880   4.351   3.962  0.5807 -0.0100  0.6354
   42CHL1  H16A 3056   1.972   4.366   4.021  0.7510  1.8502 -0.0519
   42CHL1  H16B 3057   1.798   4.367   4.035 -0.2068 -0.7550 -0.0585
   42CHL1   C17 3058   1.863   4.201   3.904  0.0940  0.1676 -0.3517
   42CHL1   H17 3059   1.755   4.178   3.908  0.2430 -0.4463  0.7219
   42CHL1   C13 3060   1.896   4.215   3.757 -0.1661  0.3896  0.1404
   42CHL1   C18 3061   2.049   4.247   3.733  0.1715  1.1416  0.3612
   42CHL1  H18A 3062   2.068   4.276   3.628 -2.7813 -1.1306 -0.9592
   42CHL1  H18B 3063   2.097   4.316   3.805 -3.1632  2.9821  1.0429
   42CHL1  H18C 3064   2.103   4.152   3.753 -0.2016  1.1879  1.6353
   42CHL1   C12 3065   1.844   4.094   3.673  0.1017 -0.3013 -0.0463
   42CHL1  H12A 3066   1.901   3.999   3.687 -0.1034 -0.4716 -0.3545
   42CHL1  H12B 3067   1.739   4.082   3.710 -0.1816  0.6552 -0.5244
   42CHL1   C11 3068   1.846   4.143   3.524 -0.6708 -1.0465  0.2588
   42CHL1  H11A 3069   1.955   4.138   3.501 -0.6111  0.5438  0.1239
   42CHL1  H11B 3070   1.795   4.067   3.461  1.0602 -1.9290 -0.1628
   42CHL1    C9 3071   1.799   4.291   3.485 -0.6788 -0.6709  0.6537
   42CHL1    H9 3072   1.688   4.287   3.485 -0.7509  0.6827  1.8087
   42CHL1   C10 3073   1.842   4.344   3.341 -0.0495  0.2489  0.4431
   42CHL1   C19 3074   2.003   4.337   3.330 -0.0419  0.6855 -0.5002
   42CHL1  H19A 3075   2.036   4.234   3.353  0.4562  0.6331 -1.4167
   42CHL1  H19B 3076   2.023   4.366   3.225  0.0774 -1.8153 -1.2193
   42CHL1  H19C 3077   2.054   4.411   3.396 -0.4272 -0.4425  1.1426
   42CHL1    C1 3078   1.779   4.243   3.238  0.0461  0.5552  0.0221
   42CHL1   H1A 3079   1.846   4.154   3.229 -2.4992 -1.2305 -3.4857
   42CHL1   H1B 3080   1.679   4.209   3.273 -1.0206  0.7811 -2.6317
   42CHL1    C2 3081   1.767   4.294   3.090 -0.1838  0.1639 -0.1415
   42CHL1   H2A 3082   1.704   4.226   3.029  1.5211 -0.1687 -1.6173
   42CHL1   H2B 3083   1.867   4.282   3.042 -0.8283 -1.7897 -1.0972
   42CHL1   C20 3084   1.933   4.086   3.978  0.5659 -0.0261 -0.1295
   42CHL1   H20 3085   1.958   4.005   3.906  0.0820 -0.3306  0.0465
   42CHL1   C21 3086   1.822   4.036   4.070  0.0047  0.2950  0.3417
   42CHL1  H21A 3087   1.728   4.007   4.017 -1.3975  1.3700  2.1517
   42CHL1  H21B 3088   1.789   4.114   4.141  0.6890  2.1846 -1.3038
   42CHL1  H21C 3089   1.858   3.944   4.122  0.9620  0.8791  0.7353
   42CHL1   C22 3090   2.070   4.117   4.039 -0.4580 -0.4551 -0.3140
   42CHL1  H22A 3091   2.134   4.182   3.977  1.7857 -1.2382  1.0475
   42CHL1  H22B 3092   2.050   4.178   4.130  2.4560  1.4311 -0.8249
   42CHL1   C23 3093   2.156   3.999   4.089  0.1649  0.8370 -0.2184
   42CHL1  H23A 3094   2.247   4.032   4.145  1.4776 -2.0962 -0.4378
   42CHL1  H23B 3095   2.081   3.943   4.149  0.1036  0.9369 -0.2024
   42CHL1   C24 3096   2.210   3.898   3.983 -0.0008  0.0637  0.5350
   42CHL1  H24A 3097   2.127   3.875   3.913  1.0612  0.7215 -0.9933
   42CHL1  H24B 3098   2.289   3.956   3.931  1.1963 -2.2081 -0.3313
   42CHL1   C25 3099   2.283   3.778   4.024 -0.3912 -0.5646  0.2193
   42CHL1   H25 3100   2.364   3.811   4.092  0.5846  0.4324 -1.3507
   42CHL1   C26 3101   2.194   3.677   4.091 -0.2657 -0.4121  0.1140
   42CHL1  H26A 3102   2.149   3.707   4.189 -0.5785 -3.4130  0.9779
   42CHL1  H26B 3103   2.106   3.661   4.025  0.7952  2.1231 -2.0932
   42CHL1  H26C 3104   2.241   3.581   4.121 -2.4024 -1.0357  1.7944
   42CHL1   C27 3105   2.349   3.709   3.906 -0.3366 -0.3987  0.4316
   42CHL1  H27A 3106   2.438   3.764   3.869 -0.2921  0.2279  1.4516
   42CHL1  H27B 3107   2.366   3.607   3.948 -0.5282 -0.0816  1.2958
   42CHL1  H27C 3108   2.280   3.698   3.819 -0.3495 -0.5764  0.4639
   43CHL1    C3 3109   2.530   5.638   3.679 -0.2855  0.1555  0.0872
   43CHL1    H3 3110   2.539   5.748   3.696 -2.9125  0.4796 -0.1866
   43CHL1    O3 3111   2.540   5.623   3.542 -0.3470  0.0924  0.1399
   43CHL1   H3' 3112   2.498   5.537   3.528 -0.2744  0.2117 -0.9262
   43CHL1    C4 3113   2.627   5.555   3.758 -0.6357  0.2813  0.1631
   43CHL1   H4A 3114   2.609   5.448   3.737 -1.9466  0.3570  0.7665
   43CHL1   H4B 3115   2.730   5.581   3.725 -0.5268  0.1654  0.4070
   43CHL1    C5 3116   2.611   5.584   3.911  0.6295  0.5607 -0.4670
   43CHL1    C6 3117   2.708   5.638   3.987  0.1418  0.0786  0.4793
   43CHL1    H6 3118   2.811   5.650   3.949 -0.2314  2.2072 -0.0039
   43CHL1    C7 3119   2.698   5.669   4.129  0.5168  0.6438  0.4752
   43CHL1   H7A 3120   2.788   5.643   4.189 -0.4263 -0.1735  1.6059
   43CHL1   H7B 3121   2.690   5.779   4.128 -0.0157  0.6238 -1.3304
   43CHL1    C8 3122   2.581   5.610   4.201  0.3319  0.1759  0.1796
   43CHL1    H8 3123   2.609   5.503   4.207  1.1849  0.1844 -2.4469
   43CHL1   C14 3124   2.559   5.668   4.333  0.0503  0.0149  0.4939
   43CHL1   H14 3125   2.542   5.775   4.307  0.9754 -0.1887 -1.1242
   43CHL1   C15 3126   2.677   5.669   4.432 -0.0855  0.4960  0.4456
   43CHL1  H15A 3127   2.711   5.564   4.440 -1.1699 -0.1329 -2.1087
   43CHL1  H15B 3128   2.751   5.736   4.383 -0.6901  2.1398  1.6662
   43CHL1   C16 3129   2.603   5.710   4.561  0.4304 -0.2169 -0.4319
   43CHL1  H16A 3130   2.641   5.635   4.634 -0.8671  0.0072  0.4972
   43CHL1  H16B 3131   2.633   5.807   4.606  1.0869 -0.1012 -1.0936
   43CHL1   C17 3132   2.442   5.708   4.530 -0.0646  0.0211 -0.3432
   43CHL1   H17 3133   2.422   5.814   4.505  1.5396  0.3911 -0.1285
   43CHL1   C13 3134   2.434   5.615   4.407  0.4367 -0.3931  0.3570
   43CHL1   C18 3135   2.457   5.470   4.450 -0.0454  0.2886 -0.1318
   43CHL1  H18A 3136   2.379   5.432   4.520 -0.2528 -0.7155 -0.8849
   43CHL1  H18B 3137   2.462   5.404   4.361  2.9171  0.9341 -0.5587
   43CHL1  H18C 3138   2.557   5.459   4.497  1.0134  1.8577 -1.8645
   43CHL1   C12 3139   2.307   5.649   4.327 -0.4625 -0.4217  0.3173
   43CHL1  H12A 3140   2.220   5.597   4.374 -1.7173 -0.4544 -1.9132
   43CHL1  H12B 3141   2.280   5.755   4.311  1.1386 -0.3579 -2.4676
   43CHL1   C11 3142   2.318   5.600   4.183  0.5927  0.5723  0.6196
   43CHL1  H11A 3143   2.297   5.492   4.193  0.1091  0.6389  0.3178
   43CHL1  H11B 3144   2.235   5.647   4.127  1.4555 -0.2844 -1.4608
   43CHL1    C9 3145   2.456   5.620   4.114 -1.2225  0.0961  0.5282
   43CHL1    H9 3146   2.463   5.727   4.085  0.3816 -0.0159  0.4218
   43CHL1   C10 3147   2.468   5.549   3.972 -0.1148  0.8326 -0.2685
   43CHL1   C19 3148   2.445   5.396   3.989 -0.1702  0.5014  0.3975
   43CHL1  H19A 3149   2.525   5.361   4.058 -0.5577 -1.2180  0.0380
   43CHL1  H19B 3150   2.350   5.372   4.041 -0.7542  1.0128 -0.4135
   43CHL1  H19C 3151   2.449   5.348   3.889 -1.4511  1.5282 -0.1710
   43CHL1    C1 3152   2.362   5.617   3.878  0.3876  0.1926  0.2561
   43CHL1   H1A 3153   2.263   5.574   3.903 -0.2924  0.4354 -1.8150
   43CHL1   H1B 3154   2.371   5.727   3.893 -1.2904  0.0548  2.9944
   43CHL1    C2 3155   2.391   5.591   3.724 -0.0347  0.0128 -0.0522
   43CHL1   H2A 3156   2.319   5.655   3.669 -0.8595 -0.1089  0.8696
   43CHL1   H2B 3157   2.367   5.490   3.687 -0.5669  0.0284  0.2405
   43CHL1   C20 3158   2.354   5.681   4.652 -0.0306  0.5339 -1.0103
   43CHL1   H20 3159   2.321   5.578   4.626 -1.2884  1.2461 -2.3890
   43CHL1   C21 3160   2.232   5.773   4.645 -0.8056 -0.1344  0.0100
   43CHL1  H21A 3161   2.189   5.763   4.543 -0.9266 -2.0440  0.2087
   43CHL1  H21B 3162   2.265   5.877   4.665  0.9595 -0.1868 -2.2635
   43CHL1  H21C 3163   2.153   5.744   4.718 -2.9931  0.3889 -2.0359
   43CHL1   C22 3164   2.420   5.659   4.792  0.6900  0.1280 -0.0246
   43CHL1  H22A 3165   2.503   5.585   4.794  0.0244 -0.6267  1.8943
   43CHL1  H22B 3166   2.458   5.754   4.834  0.5158  0.2833 -0.2138
   43CHL1   C23 3167   2.308   5.598   4.882 -1.0842 -0.1288  0.2130
   43CHL1  H23A 3168   2.244   5.682   4.919 -1.7934 -0.9422  0.8823
   43CHL1  H23B 3169   2.236   5.529   4.834 -1.7704  0.8569 -0.2211
   43CHL1   C24 3170   2.358   5.522   5.008 -0.3211 -0.5262 -0.5813
   43CHL1  H24A 3171   2.272   5.477   5.062 -2.0361  2.9884 -0.1002
   43CHL1  H24B 3172   2.431   5.443   4.979  1.7939  1.4433 -0.9308
   43CHL1   C25 3173   2.447   5.594   5.110  0.0621  0.7817  0.3947
   43CHL1   H25 3174   2.521   5.656   5.056  0.8602 -1.8906 -1.8032
   43CHL1   C26 3175   2.372   5.703   5.193  0.2919  0.4113  0.4376
   43CHL1  H26A 3176   2.340   5.788   5.128 -0.1835 -0.2805 -0.2542
   43CHL1  H26B 3177   2.277   5.669   5.239  0.1998 -0.8432 -0.6257
   43CHL1  H26C 3178   2.434   5.743   5.276  1.2739 -0.7950  0.3086
   43CHL1   C27 3179   2.501   5.490   5.212 -0.8222  0.0636  0.3687
   43CHL1  H27A 3180   2.585   5.432   5.168 -1.1871  1.3897 -2.3099
   43CHL1  H27B 3181   2.543   5.555   5.292  1.9844 -0.3011 -0.6957
   43CHL1  H27C 3182   2.427   5.413   5.241  0.3612 -1.3367 -0.2356
   44CHL1    C3 3183   6.485   5.361   3.206  0.1943  0.2736  0.4162
   44CHL1    H3 3184   6.424   5.269   3.195 -2.3928  1.6050  2.5329
   44CHL1    O3 3185   6.497   5.422   3.074  0.2301 -0.3230 -0.2339
   44CHL1   H3' 3186   6.411   5.461   3.060 -0.0353 -0.8656 -0.1543
   44CHL1    C4 3187   6.405   5.445   3.302 -0.6729  0.4334 -0.2993
   44CHL1   H4A 3188   6.449   5.544   3.278 -0.7338  0.3224 -0.8951
   44CHL1   H4B 3189   6.301   5.454   3.264 -1.3698 -0.4760  1.3040
   44CHL1    C5 3190   6.412   5.405   3.455 -0.0133 -0.0800 -0.0195
   44CHL1    C6 3191   6.294   5.387   3.517  0.7891 -0.3772  0.1889
   44CHL1    H6 3192   6.197   5.410   3.469  0.1616  3.2767  2.7678
   44CHL1    C7 3193   6.280   5.342   3.661  0.3758 -0.5700 -0.3365
   44CHL1   H7A 3194   6.196   5.396   3.709 -0.9101 -2.8925  0.1688
   44CHL1   H7B 3195   6.242   5.237   3.663 -3.2066  0.4992 -2.4229
   44CHL1    C8 3196   6.414   5.350   3.740 -0.4104 -0.2501  0.4214
   44CHL1    H8 3197   6.432   5.459   3.752  0.4307 -0.4096  0.6815
   44CHL1   C14 3198   6.410   5.297   3.878 -0.2764 -0.0618 -0.1621
   44CHL1   H14 3199   6.388   5.188   3.871 -1.8331  0.2994 -1.5079
   44CHL1   C15 3200   6.291   5.347   3.959  0.2389  0.1653  0.4874
   44CHL1  H15A 3201   6.272   5.457   3.957  0.4785  0.1941 -0.7353
   44CHL1  H15B 3202   6.203   5.299   3.912  1.8874 -1.7189 -0.8139
   44CHL1   C16 3203   6.327   5.311   4.104  0.5179  0.5300 -0.3658
   44CHL1  H16A 3204   6.322   5.399   4.171 -0.0297 -0.3139  0.7230
   44CHL1  H16B 3205   6.250   5.243   4.146  0.4566  1.1679  0.5927
   44CHL1   C17 3206   6.475   5.255   4.098  0.3856  0.1766  0.2017
   44CHL1   H17 3207   6.460   5.147   4.078 -2.2764  0.3333  0.9355
   44CHL1   C13 3208   6.535   5.304   3.962 -0.1311  0.3072 -0.0152
   44CHL1   C18 3209   6.577   5.452   3.984  0.0791 -0.1264 -0.2532
   44CHL1  H18A 3210   6.492   5.508   4.029 -0.7285 -1.9119  0.5232
   44CHL1  H18B 3211   6.659   5.455   4.059  1.2235  1.4692 -1.5118
   44CHL1  H18C 3212   6.611   5.490   3.886 -3.0726 -0.6352 -1.6708
   44CHL1   C12 3213   6.636   5.215   3.886 -0.7883  0.3437  0.6868
   44CHL1  H12A 3214   6.723   5.216   3.954 -2.3704  1.2751  2.7987
   44CHL1  H12B 3215   6.594   5.113   3.878  0.8910 -0.3453  0.1773
   44CHL1   C11 3216   6.663   5.257   3.741  0.4575  0.0525 -0.1981
   44CHL1  H11A 3217   6.716   5.355   3.746  0.1097  0.2012  0.8619
   44CHL1  H11B 3218   6.727   5.189   3.681  2.9415 -1.5372  3.8582
   44CHL1    C9 3219   6.531   5.286   3.657  0.2608 -0.4875  0.3644
   44CHL1    H9 3220   6.482   5.186   3.650 -2.8673  0.9518 -0.1120
   44CHL1   C10 3221   6.545   5.352   3.514 -0.2434 -0.6509  0.3619
   44CHL1   C19 3222   6.620   5.485   3.536  0.0263  0.2148 -0.4471
   44CHL1  H19A 3223   6.587   5.543   3.625  2.2301  1.6429 -0.4702
   44CHL1  H19B 3224   6.730   5.470   3.543  0.1641  1.4388  0.2515
   44CHL1  H19C 3225   6.607   5.565   3.460 -1.9237 -0.3481 -0.7473
   44CHL1    C1 3226   6.612   5.264   3.407  0.0969  0.2264 -0.1271
   44CHL1   H1A 3227   6.715   5.256   3.447 -0.5025  0.6269  1.6044
   44CHL1   H1B 3228   6.570   5.161   3.410 -0.3097  0.3777 -0.4543
   44CHL1    C2 3229   6.621   5.321   3.267 -0.3016  0.0323  0.4937
   44CHL1   H2A 3230   6.681   5.256   3.199 -0.0367 -2.7572  3.1420
   44CHL1   H2B 3231   6.681   5.413   3.281 -1.7049  1.5983 -2.7945
   44CHL1   C20 3232   6.550   5.278   4.223  0.0066  0.0223 -0.4469
   44CHL1   H20 3233   6.538   5.385   4.247  0.9113  0.3556 -1.4150
   44CHL1   C21 3234   6.695   5.240   4.207  0.2657 -0.0589  0.1446
   44CHL1  H21A 3235   6.706   5.145   4.151  2.0701  0.5400 -0.5655
   44CHL1  H21B 3236   6.750   5.231   4.303  0.0249 -0.3215  0.2617
   44CHL1  H21C 3237   6.753   5.304   4.138 -0.8528  1.1442  0.2915
   44CHL1   C22 3238   6.486   5.189   4.340  0.5160 -0.2094  0.3864
   44CHL1  H22A 3239   6.376   5.201   4.338  0.5320  0.1565 -2.5552
   44CHL1  H22B 3240   6.488   5.078   4.335 -0.4599 -0.2741  1.1256
   44CHL1   C23 3241   6.535   5.228   4.477  0.4426  0.6439  0.1798
   44CHL1  H23A 3242   6.639   5.199   4.502  0.0029  0.1755  1.5961
   44CHL1  H23B 3243   6.535   5.339   4.481 -0.9823  0.6461  1.0723
   44CHL1   C24 3244   6.437   5.176   4.588 -0.7523  0.1918  0.1712
   44CHL1  H24A 3245   6.334   5.207   4.560 -1.1624 -0.5968  0.7749
   44CHL1  H24B 3246   6.448   5.066   4.595 -0.6522  0.2592  1.1367
   44CHL1   C25 3247   6.454   5.227   4.735 -0.0967  0.0565  0.9747
   44CHL1   H25 3248   6.539   5.164   4.769  0.6827  0.4333 -0.1939
   44CHL1   C26 3249   6.487   5.377   4.745 -0.0450 -0.8078 -0.1436
   44CHL1  H26A 3250   6.573   5.407   4.682 -1.8428  1.1454 -1.7847
   44CHL1  H26B 3251   6.402   5.436   4.706  0.5233  0.9849  1.2078
   44CHL1  H26C 3252   6.509   5.411   4.849 -0.0235  0.9629 -0.7066
   44CHL1   C27 3253   6.318   5.203   4.806 -0.2152  1.3422 -0.2132
   44CHL1  H27A 3254   6.321   5.224   4.915  0.6966  0.0263  0.0357
   44CHL1  H27B 3255   6.235   5.261   4.759 -2.4659 -0.5269  1.1976
   44CHL1  H27C 3256   6.292   5.095   4.803 -0.0754  1.2543  1.2017
   45CHL1    C3 3257   1.163   4.192   3.100  0.6349 -0.2571 -0.4688
   45CHL1    H3 3258   1.145   4.088   3.135  2.8244 -0.8091 -0.8251
   45CHL1    O3 3259   1.162   4.192   2.959 -0.6458  0.0720 -0.0302
   45CHL1   H3' 3260   1.196   4.278   2.934 -1.7917  1.0262  1.5142
   45CHL1    C4 3261   1.069   4.307   3.152  0.0086  0.8537 -0.9164
   45CHL1   H4A 3262   1.084   4.403   3.098  1.8408  2.8568  2.7974
   45CHL1   H4B 3263   0.971   4.267   3.118  0.7798 -0.1428 -2.0531
   45CHL1    C5 3264   1.083   4.317   3.304  0.3238 -0.8409  0.8027
   45CHL1    C6 3265   0.975   4.305   3.383 -0.2135  0.1749 -0.2227
   45CHL1    H6 3266   0.872   4.311   3.344 -1.2830  1.4828  2.5286
   45CHL1    C7 3267   0.986   4.332   3.531 -0.0325  0.3216 -0.1432
   45CHL1   H7A 3268   0.910   4.406   3.564  1.5466  1.6476  0.6444
   45CHL1   H7B 3269   0.968   4.238   3.587  3.6703 -0.7716 -0.5573
   45CHL1    C8 3270   1.119   4.387   3.581 -0.1402  0.3266  0.3753
   45CHL1    H8 3271   1.114   4.494   3.552 -1.1390  0.3498  0.6063
   45CHL1   C14 3272   1.130   4.360   3.724  0.7382 -0.1373  0.4796
   45CHL1   H14 3273   1.124   4.250   3.737  0.5496 -0.1231  0.5147
   45CHL1   C15 3274   1.013   4.400   3.817  0.5727  0.0988 -0.0721
   45CHL1  H15A 3275   0.991   4.507   3.796  0.3376  0.6279  2.5497
   45CHL1  H15B 3276   0.919   4.342   3.805  1.2540 -0.8024 -1.2756
   45CHL1   C16 3277   1.071   4.392   3.961  0.1653  0.6514 -0.0687
   45CHL1  H16A 3278   1.041   4.480   4.021  0.7397  1.2364 -0.6248
   45CHL1  H16B 3279   1.027   4.301   4.006  1.0567  0.7623  1.0714
   45CHL1   C17 3280   1.226   4.370   3.948 -0.1472 -0.1966  0.3453
   45CHL1   H17 3281   1.240   4.260   3.959  0.3507 -0.0913  0.8141
   45CHL1   C13 3282   1.263   4.403   3.799 -0.3130  0.2583  0.7694
   45CHL1   C18 3283   1.268   4.561   3.778 -0.6336 -0.7882  0.6075
   45CHL1  H18A 3284   1.374   4.590   3.788 -0.4380  0.8640 -3.8047
   45CHL1  H18B 3285   1.230   4.597   3.680 -0.7318 -1.2360  0.4775
   45CHL1  H18C 3286   1.212   4.617   3.856  0.7697  1.3953  0.1080
   45CHL1   C12 3287   1.378   4.333   3.726  0.1339 -0.4150  0.7095
   45CHL1  H12A 3288   1.471   4.375   3.770 -0.9496  1.1255  1.6374
   45CHL1  H12B 3289   1.379   4.222   3.731  0.5529 -0.3679  2.1197
   45CHL1   C11 3290   1.373   4.357   3.568 -0.6602 -0.3969 -0.5771
   45CHL1  H11A 3291   1.398   4.464   3.554 -1.1842 -0.3003 -0.7810
   45CHL1  H11B 3292   1.458   4.295   3.532  1.2569  1.1873  0.9979
   45CHL1    C9 3293   1.232   4.316   3.504  0.0035 -0.1657 -0.1105
   45CHL1    H9 3294   1.215   4.209   3.527 -1.0585 -0.0523 -0.3430
   45CHL1   C10 3295   1.225   4.334   3.355 -0.2774  0.0709  0.4123
   45CHL1   C19 3296   1.275   4.472   3.315  0.5525  0.1592 -0.0705
   45CHL1  H19A 3297   1.220   4.550   3.372  0.9493  2.6562 -2.8597
   45CHL1  H19B 3298   1.385   4.483   3.327  0.7021  2.9659 -2.6579
   45CHL1  H19C 3299   1.261   4.504   3.209  3.6846  1.2259 -0.2696
   45CHL1    C1 3300   1.320   4.231   3.295  0.1585  0.1197 -0.0900
   45CHL1   H1A 3301   1.424   4.261   3.320 -0.3809  2.1735 -0.1365
   45CHL1   H1B 3302   1.304   4.129   3.336  1.9084 -0.1027  0.1123
   45CHL1    C2 3303   1.308   4.221   3.143 -0.2206  0.1608 -0.5441
   45CHL1   H2A 3304   1.377   4.139   3.114 -1.3432 -1.3475  0.8347
   45CHL1   H2B 3305   1.338   4.316   3.094  1.4443 -0.2070 -0.3011
   45CHL1   C20 3306   1.303   4.442   4.062  0.1056  0.5795  0.0313
   45CHL1   H20 3307   1.292   4.552   4.053  0.2146  0.5957  0.1007
   45CHL1   C21 3308   1.454   4.409   4.037  0.1608 -0.4501 -0.3608
   45CHL1  H21A 3309   1.490   4.453   3.942  0.1649 -1.3374 -0.7814
   45CHL1  H21B 3310   1.470   4.300   4.026 -0.6072 -0.4281 -2.0527
   45CHL1  H21C 3311   1.518   4.456   4.114 -1.2594 -0.0012  0.5985
   45CHL1   C22 3312   1.260   4.391   4.201 -0.0428 -0.0247  0.1251
   45CHL1  H22A 3313   1.152   4.416   4.210 -0.3097 -1.1472  0.1719
   45CHL1  H22B 3314   1.282   4.282   4.208 -0.4768 -0.1006  0.3325
   45CHL1   C23 3315   1.321   4.465   4.315  0.3012  0.5007 -0.0770
   45CHL1  H23A 3316   1.430   4.444   4.323 -0.2490 -2.3462  1.1883
   45CHL1  H23B 3317   1.298   4.573   4.308 -0.4362  0.3533  0.0679
   45CHL1   C24 3318   1.263   4.420   4.451  0.4907 -0.4528  0.4536
   45CHL1  H24A 3319   1.155   4.400   4.442  0.6663 -1.2808  0.0798
   45CHL1  H24B 3320   1.315   4.328   4.485 -0.6247 -2.0488 -1.8705
   45CHL1   C25 3321   1.282   4.525   4.563  0.3844  0.5866  0.4969
   45CHL1   H25 3322   1.247   4.473   4.655 -0.9868 -2.7564 -1.7569
   45CHL1   C26 3323   1.428   4.572   4.583 -0.0937 -0.0302  0.0637
   45CHL1  H26A 3324   1.493   4.487   4.610  0.1604 -0.0479 -0.5837
   45CHL1  H26B 3325   1.466   4.624   4.492 -0.9782  3.6995  1.6367
   45CHL1  H26C 3326   1.433   4.639   4.672  1.7911 -0.3056  0.2037
   45CHL1   C27 3327   1.189   4.646   4.558 -0.4947  0.4611  0.1035
   45CHL1  H27A 3328   1.198   4.703   4.463 -1.4929  3.7072  1.7818
   45CHL1  H27B 3329   1.082   4.624   4.576  0.0796 -3.3406 -0.3744
   45CHL1  H27C 3330   1.234   4.724   4.624 -0.8392  0.4463  0.3563
   46CHL1    C3 3331   0.454   1.342   3.257  0.6285  0.9549  0.0314
   46CHL1    H3 3332   0.414   1.242   3.231  1.0897  0.3236  1.6347
   46CHL1    O3 3333   0.482   1.414   3.133 -0.3974 -0.6207  0.1044
   46CHL1   H3' 3334   0.417   1.384   3.068  0.8361 -2.1486 -0.4961
   46CHL1    C4 3335   0.338   1.416   3.325  1.5667  0.4100  0.0999
   46CHL1   H4A 3336   0.360   1.520   3.358  0.8731 -0.2978  3.0507
   46CHL1   H4B 3337   0.249   1.424   3.259 -0.6416 -0.8776  2.7332
   46CHL1    C5 3338   0.290   1.347   3.453 -0.3593 -0.3023 -0.7090
   46CHL1    C6 3339   0.169   1.292   3.477  0.5736 -1.0440 -0.0715
   46CHL1    H6 3340   0.098   1.273   3.394  0.1998 -0.6261  0.1455
   46CHL1    C7 3341   0.128   1.228   3.607  0.4320 -0.5563  0.4884
   46CHL1   H7A 3342   0.025   1.264   3.631  0.3847  0.1833 -0.7435
   46CHL1   H7B 3343   0.118   1.119   3.588 -2.7746  0.0589 -2.5407
   46CHL1    C8 3344   0.217   1.256   3.729  0.0287 -0.2756 -0.2493
   46CHL1    H8 3345   0.203   1.359   3.768  2.0803 -0.3000  0.6820
   46CHL1   C14 3346   0.198   1.152   3.836  0.0138 -0.3057 -0.6033
   46CHL1   H14 3347   0.225   1.054   3.792 -1.9385 -0.7594 -0.8772
   46CHL1   C15 3348   0.053   1.130   3.877  0.5404 -0.3275  0.5851
   46CHL1  H15A 3349   0.007   1.229   3.895  0.7529 -0.2620  0.7613
   46CHL1  H15B 3350   0.003   1.081   3.790  1.3579  0.6823 -0.4844
   46CHL1   C16 3351   0.071   1.055   4.010  0.8576 -1.0189 -0.2860
   46CHL1  H16A 3352   0.005   1.095   4.090  0.9983 -3.0518  0.9136
   46CHL1  H16B 3353   0.026   0.956   3.989 -0.7713  0.0942 -2.4528
   46CHL1   C17 3354   0.218   1.063   4.052 -0.0172  0.4316 -0.4230
   46CHL1   H17 3355   0.263   0.967   4.018 -1.0777 -0.2156 -0.0335
   46CHL1   C13 3356   0.277   1.171   3.970 -0.3006  0.5256  0.2528
   46CHL1   C18 3357   0.246   1.305   4.044 -0.3054  0.0127 -0.0698
   46CHL1  H18A 3358   0.315   1.336   4.125  0.9128  0.9597 -1.4236
   46CHL1  H18B 3359   0.241   1.397   3.982 -2.2958 -1.1248 -1.7672
   46CHL1  H18C 3360   0.150   1.288   4.097  1.0024 -1.7214  1.9017
   46CHL1   C12 3361   0.432   1.160   3.924  0.1823  0.7424  0.1739
   46CHL1  H12A 3362   0.502   1.182   4.008 -0.1666  0.1898  0.6233
   46CHL1  H12B 3363   0.446   1.058   3.881  0.2950  1.7756 -2.3876
   46CHL1   C11 3364   0.461   1.265   3.813 -0.2869 -0.0784  0.7182
   46CHL1  H11A 3365   0.444   1.368   3.852  1.9103  0.8645 -0.5842
   46CHL1  H11B 3366   0.566   1.246   3.779  0.5171 -0.9409  3.4359
   46CHL1    C9 3367   0.362   1.252   3.692 -0.7237 -0.4582  0.6639
   46CHL1    H9 3368   0.359   1.147   3.654 -4.2490 -0.6827  1.2039
   46CHL1   C10 3369   0.400   1.337   3.566 -0.0513 -0.1002 -0.5437
   46CHL1   C19 3370   0.431   1.478   3.612 -0.2003  0.6011  0.0248
   46CHL1  H19A 3371   0.350   1.528   3.669  0.5406  1.1883  0.5873
   46CHL1  H19B 3372   0.522   1.481   3.676 -0.6731  0.4883  0.7137
   46CHL1  H19C 3373   0.450   1.543   3.525 -1.7245 -1.4807 -1.9812
   46CHL1    C1 3374   0.520   1.269   3.494 -0.0356 -0.2582 -0.0352
   46CHL1   H1A 3375   0.609   1.284   3.558  0.2098 -0.1326 -0.4020
   46CHL1   H1B 3376   0.495   1.162   3.473  2.9475 -0.7809 -1.3959
   46CHL1    C2 3377   0.562   1.331   3.356  0.5762  0.1463  0.9533
   46CHL1   H2A 3378   0.645   1.277   3.304 -0.6747 -0.9225 -0.0135
   46CHL1   H2B 3379   0.589   1.437   3.372  0.7910  0.4471 -1.0803
   46CHL1   C20 3380   0.246   1.059   4.204  0.5687  0.2478 -0.3469
   46CHL1   H20 3381   0.230   1.162   4.243  1.7427  1.1215 -2.0410
   46CHL1   C21 3382   0.394   1.027   4.236 -0.3622 -0.6860  0.3575
   46CHL1  H21A 3383   0.418   0.994   4.339 -0.0732 -2.0746 -0.1446
   46CHL1  H21B 3384   0.465   1.112   4.221  1.0813 -1.7880  0.7700
   46CHL1  H21C 3385   0.431   0.949   4.166 -0.3618 -0.2872 -0.0929
   46CHL1   C22 3386   0.152   0.964   4.277 -0.0541 -0.1639  0.5926
   46CHL1  H22A 3387   0.046   0.997   4.268  0.2908  0.4482 -2.7696
   46CHL1  H22B 3388   0.161   0.862   4.234  1.9590 -0.2980  1.2336
   46CHL1   C23 3389   0.175   0.962   4.420 -0.7930  0.7063  0.3140
   46CHL1  H23A 3390   0.266   0.902   4.441 -0.9258  0.8249  1.2972
   46CHL1  H23B 3391   0.188   1.068   4.452 -1.2702  1.0016 -0.4262
   46CHL1   C24 3392   0.062   0.899   4.503  0.4027 -0.2756  0.1106
   46CHL1  H24A 3393  -0.023   0.970   4.510  1.0560  0.4712  0.6877
   46CHL1  H24B 3394   0.036   0.809   4.443 -0.1449  0.1164 -0.2554
   46CHL1   C25 3395   0.110   0.838   4.641  0.9302 -0.2279 -0.3678
   46CHL1   H25 3396   0.163   0.918   4.698 -0.6637  2.1752 -2.0337
   46CHL1   C26 3397  -0.010   0.809   4.737  0.2116 -0.4576 -0.7955
   46CHL1  H26A 3398  -0.064   0.902   4.763 -0.0109 -1.0030  0.7846
   46CHL1  H26B 3399  -0.084   0.746   4.682 -2.4403  0.6915  1.2338
   46CHL1  H26C 3400   0.023   0.757   4.829 -0.6808  0.4039  0.0341
   46CHL1   C27 3401   0.195   0.706   4.637 -0.0242  0.4289 -0.1755
   46CHL1  H27A 3402   0.291   0.734   4.590 -0.5091  3.6450  0.5503
   46CHL1  H27B 3403   0.225   0.668   4.737 -0.8199 -2.4083 -0.9093
   46CHL1  H27C 3404   0.151   0.614   4.592  1.4627 -0.2872 -0.2127
   47CHL1    C3 3405   4.020   0.448   3.235 -0.4089  0.4196  0.2649
   47CHL1    H3 3406   3.918   0.453   3.279 -0.7813  0.2698 -0.5517
   47CHL1    O3 3407   4.022   0.449   3.090  0.4692 -0.1263 -0.7823
   47CHL1   H3' 3408   4.102   0.497   3.066 -1.5403  2.6159 -2.4097
   47CHL1    C4 3409   4.108   0.569   3.284  0.4937  1.0838 -0.2830
   47CHL1   H4A 3410   4.203   0.552   3.229 -0.8084 -0.9757 -2.0579
   47CHL1   H4B 3411   4.057   0.662   3.252 -2.5724 -0.1273  0.7276
   47CHL1    C5 3412   4.129   0.585   3.435 -0.7260  0.4000 -0.1378
   47CHL1    C6 3413   4.093   0.696   3.506  0.7835 -0.3708  0.1383
   47CHL1    H6 3414   4.040   0.777   3.453 -1.8588 -1.8513  0.3252
   47CHL1    C7 3415   4.087   0.711   3.653 -0.1591  0.6680 -0.6695
   47CHL1   H7A 3416   4.124   0.811   3.685 -1.0596  1.4509 -1.9633
   47CHL1   H7B 3417   3.981   0.694   3.685 -0.2040 -1.2283 -1.6773
   47CHL1    C8 3418   4.177   0.598   3.722  0.3482 -0.3345  0.4499
   47CHL1    H8 3419   4.281   0.615   3.686 -0.4409 -1.2996 -2.4853
   47CHL1   C14 3420   4.144   0.590   3.873 -0.3685  0.4834  0.7041
   47CHL1   H14 3421   4.038   0.556   3.877 -0.3853  0.3135 -0.7987
   47CHL1   C15 3422   4.154   0.716   3.957  0.2484 -0.0992 -0.1401
   47CHL1  H15A 3423   4.239   0.769   3.910 -0.7486  0.2675 -1.6236
   47CHL1  H15B 3424   4.065   0.783   3.961  1.5611  1.6283  1.9298
   47CHL1   C16 3425   4.172   0.661   4.096 -0.7256 -0.4700  0.0752
   47CHL1  H16A 3426   4.262   0.703   4.146  0.4750 -1.4823 -1.1568
   47CHL1  H16B 3427   4.089   0.680   4.168 -1.2210 -0.8168 -0.3931
   47CHL1   C17 3428   4.184   0.506   4.093 -0.0730  0.0706 -0.2492
   47CHL1   H17 3429   4.085   0.457   4.109 -0.1573  0.6548  1.1312
   47CHL1   C13 3430   4.233   0.485   3.951 -0.5353  0.6081  0.1641
   47CHL1   C18 3431   4.385   0.505   3.927 -0.6242 -0.1087 -0.1660
   47CHL1  H18A 3432   4.415   0.511   3.820 -0.2080  2.4698  0.0269
   47CHL1  H18B 3433   4.417   0.599   3.977  2.2542 -1.0962  0.0791
   47CHL1  H18C 3434   4.438   0.416   3.969 -1.8411 -0.9659 -0.3845
   47CHL1   C12 3435   4.188   0.353   3.891  0.4728  0.0833 -0.6236
   47CHL1  H12A 3436   4.251   0.267   3.925  0.9110  0.6804  0.0912
   47CHL1  H12B 3437   4.087   0.325   3.927  0.2432  0.1665 -1.1934
   47CHL1   C11 3438   4.203   0.340   3.740  0.3074  0.3359  0.7172
   47CHL1  H11A 3439   4.312   0.345   3.718  0.2950  4.0372  0.9659
   47CHL1  H11B 3440   4.153   0.249   3.701 -0.6175  1.2069 -0.1920
   47CHL1    C9 3441   4.137   0.456   3.661 -0.9244  0.1822  0.6539
   47CHL1    H9 3442   4.027   0.445   3.671 -1.3623  1.5788 -1.7940
   47CHL1   C10 3443   4.169   0.448   3.510 -0.7398  0.0712 -0.4517
   47CHL1   C19 3444   4.319   0.429   3.476 -0.1708 -0.6991  0.2198
   47CHL1  H19A 3445   4.381   0.507   3.526  1.6626 -1.9987  0.0663
   47CHL1  H19B 3446   4.349   0.328   3.511 -0.2827  0.0281  2.6490
   47CHL1  H19C 3447   4.339   0.422   3.367 -0.2402 -1.1642  0.2343
   47CHL1    C1 3448   4.079   0.337   3.450  0.3211 -0.7930  0.0131
   47CHL1   H1A 3449   4.125   0.240   3.478 -0.8503 -1.5945 -0.7276
   47CHL1   H1B 3450   3.975   0.339   3.489  0.8817 -2.7013  1.7376
   47CHL1    C2 3451   4.080   0.321   3.295 -0.1086  0.6324 -0.0347
   47CHL1   H2A 3452   4.012   0.233   3.283 -0.8277  0.9306  1.6207
   47CHL1   H2B 3453   4.183   0.311   3.255  0.1428  0.3524  0.6655
   47CHL1   C20 3454   4.267   0.444   4.209 -0.0657  0.1787  0.0635
   47CHL1   H20 3455   4.371   0.481   4.195  0.8851 -2.0227  0.9476
   47CHL1   C21 3456   4.264   0.287   4.211 -0.3063 -0.0866 -0.0055
   47CHL1  H21A 3457   4.297   0.256   4.110 -1.5794  2.6137 -1.3387
   47CHL1  H21B 3458   4.166   0.238   4.230  0.0979 -0.0953  2.3414
   47CHL1  H21C 3459   4.338   0.251   4.287 -0.7496  1.3845  1.1653
   47CHL1   C22 3460   4.237   0.489   4.354  0.0846  0.9551 -0.1963
   47CHL1  H22A 3461   4.190   0.590   4.343  0.2235  1.3321  2.2668
   47CHL1  H22B 3462   4.168   0.416   4.400 -0.4220  1.5603  0.0144
   47CHL1   C23 3463   4.359   0.502   4.438 -0.4321  0.4595 -0.3446
   47CHL1  H23A 3464   4.419   0.408   4.442  2.9422  2.3721 -1.7351
   47CHL1  H23B 3465   4.429   0.570   4.386  1.5935 -1.7881 -0.7531
   47CHL1   C24 3466   4.321   0.549   4.576 -0.7993  0.0961  0.0036
   47CHL1  H24A 3467   4.248   0.478   4.619 -2.1043  1.4478  0.0929
   47CHL1  H24B 3468   4.412   0.553   4.640  0.1534 -1.2670 -1.2068
   47CHL1   C25 3469   4.254   0.687   4.589 -0.2269  0.3289 -0.2281
   47CHL1   H25 3470   4.168   0.692   4.519  1.3429  1.8044 -2.1605
   47CHL1   C26 3471   4.200   0.702   4.738 -0.2150 -0.1387  0.7829
   47CHL1  H26A 3472   4.132   0.790   4.739 -0.9673 -0.6971  0.2984
   47CHL1  H26B 3473   4.117   0.640   4.780 -0.0813  0.0215  1.2883
   47CHL1  H26C 3474   4.281   0.708   4.813  1.4118 -0.6541 -0.8758
   47CHL1   C27 3475   4.356   0.793   4.546 -0.0464 -0.2960  0.1375
   47CHL1  H27A 3476   4.433   0.796   4.625  0.4921  0.7224 -0.4067
   47CHL1  H27B 3477   4.402   0.766   4.449 -0.0536 -1.1257  0.3568
   47CHL1  H27C 3478   4.300   0.890   4.543 -0.7612 -0.6652  1.0995
   48CHL1    C3 3479   1.810   0.737   3.156 -0.1041  0.1392  0.8383
   48CHL1    H3 3480   1.759   0.834   3.174 -2.7913 -0.4858 -2.4963
   48CHL1    O3 3481   1.765   0.690   3.022  0.3117 -0.0095  0.1414
   48CHL1   H3' 3482   1.836   0.631   2.994  0.5261  0.8509 -1.2513
   48CHL1    C4 3483   1.964   0.759   3.149 -0.9999  0.0521 -0.1539
   48CHL1   H4A 3484   2.019   0.667   3.120  2.2856  0.9015  2.6574
   48CHL1   H4B 3485   1.977   0.837   3.070 -1.8002  1.0802  0.7009
   48CHL1    C5 3486   2.013   0.806   3.284  0.7116 -0.2460  0.2580
   48CHL1    C6 3487   2.086   0.920   3.292 -0.1585  0.4285 -0.6555
   48CHL1    H6 3488   2.113   0.978   3.203  2.7530  0.2957  0.0380
   48CHL1    C7 3489   2.150   0.977   3.421  0.6586 -0.2995  0.2572
   48CHL1   H7A 3490   2.257   1.004   3.408  0.2847  2.3006  1.8275
   48CHL1   H7B 3491   2.099   1.074   3.439  0.0384 -0.7646  1.0773
   48CHL1    C8 3492   2.143   0.872   3.537 -0.7696 -0.0793 -0.3630
   48CHL1    H8 3493   2.224   0.797   3.524 -1.2028 -0.6122 -0.0620
   48CHL1   C14 3494   2.164   0.941   3.668 -0.0857 -0.7397 -0.9553
   48CHL1   H14 3495   2.069   0.996   3.682 -0.4855 -1.7227  0.3454
   48CHL1   C15 3496   2.276   1.047   3.669  0.7417  0.6486  0.0117
   48CHL1  H15A 3497   2.372   1.006   3.629  1.7782  0.5720  2.3675
   48CHL1  H15B 3498   2.255   1.149   3.632 -1.9016  0.2155  0.1657
   48CHL1   C16 3499   2.299   1.061   3.819 -0.5594 -0.4783  0.1019
   48CHL1  H16A 3500   2.406   1.039   3.840  0.1874  3.0058  0.4568
   48CHL1  H16B 3501   2.281   1.161   3.863  1.6992 -0.3946  0.9579
   48CHL1   C17 3502   2.208   0.956   3.901  0.5370 -0.0969  0.1213
   48CHL1   H17 3503   2.110   1.007   3.909  0.6443  0.0593  0.4290
   48CHL1   C13 3504   2.176   0.853   3.795  0.8279  0.5748  0.4856
   48CHL1   C18 3505   2.303   0.762   3.785  0.5657 -0.0900  0.0226
   48CHL1  H18A 3506   2.302   0.694   3.697 -1.5926 -1.3337  0.9327
   48CHL1  H18B 3507   2.397   0.822   3.788  1.0996 -0.8867 -0.3496
   48CHL1  H18C 3508   2.317   0.697   3.874  4.2015 -1.0521 -1.0404
   48CHL1   C12 3509   2.039   0.785   3.807  0.1882 -0.2399 -0.4003
   48CHL1  H12A 3510   2.017   0.723   3.897  0.8249 -0.9330 -0.7111
   48CHL1  H12B 3511   1.969   0.870   3.820  1.6701  1.2221 -1.5815
   48CHL1   C11 3512   1.991   0.712   3.677  0.3005  0.4428  0.1686
   48CHL1  H11A 3513   2.046   0.616   3.670  1.1089  0.8140  1.1256
   48CHL1  H11B 3514   1.887   0.676   3.693  0.7085  0.1876  2.6240
   48CHL1    C9 3515   2.008   0.794   3.541  0.2514 -0.0246 -0.2072
   48CHL1    H9 3516   1.928   0.868   3.562 -0.5507 -0.6230 -1.0953
   48CHL1   C10 3517   1.977   0.722   3.411 -1.0202  0.1544  0.1452
   48CHL1   C19 3518   2.065   0.595   3.399  0.3941 -0.2757 -0.3297
   48CHL1  H19A 3519   2.045   0.546   3.301 -0.5652 -0.2440 -0.1645
   48CHL1  H19B 3520   2.173   0.616   3.413  0.5060 -1.8495  1.6260
   48CHL1  H19C 3521   2.021   0.523   3.471 -1.0901  0.5903 -0.3123
   48CHL1    C1 3522   1.826   0.688   3.406  0.4023 -0.2466 -0.1501
   48CHL1   H1A 3523   1.815   0.605   3.479  1.3979 -0.0466  0.2463
   48CHL1   H1B 3524   1.770   0.779   3.438 -0.3772  0.1880 -2.5452
   48CHL1    C2 3525   1.768   0.640   3.268  0.0697 -0.2168 -0.3578
   48CHL1   H2A 3526   1.658   0.631   3.273  0.0146 -3.0334 -3.3210
   48CHL1   H2B 3527   1.809   0.541   3.239 -0.2476 -1.1565  2.1840
   48CHL1   C20 3528   2.255   0.920   4.038 -0.0452 -0.1362 -0.9206
   48CHL1   H20 3529   2.350   0.863   4.037  0.2472  0.3292 -0.2915
   48CHL1   C21 3530   2.149   0.848   4.115  0.4191  0.6390  0.2900
   48CHL1  H21A 3531   2.072   0.927   4.129  0.0792  0.1001  1.6809
   48CHL1  H21B 3532   2.178   0.814   4.217  0.6274  3.7033  1.3556
   48CHL1  H21C 3533   2.109   0.759   4.063 -0.4918 -1.1391  3.6961
   48CHL1   C22 3534   2.297   1.041   4.125  0.0885  0.0656 -0.0532
   48CHL1  H22A 3535   2.374   1.099   4.069  0.2301 -1.1374 -1.1264
   48CHL1  H22B 3536   2.217   1.110   4.161 -0.5133 -1.0377  0.7798
   48CHL1   C23 3537   2.370   1.003   4.251 -0.0232 -0.1416  0.3367
   48CHL1  H23A 3538   2.319   0.926   4.312 -0.7262 -0.5987 -0.7862
   48CHL1  H23B 3539   2.469   0.961   4.223 -0.1652  0.2459 -0.7997
   48CHL1   C24 3540   2.381   1.123   4.349 -0.5170 -0.1013  0.7936
   48CHL1  H24A 3541   2.443   1.199   4.299 -0.9399 -1.0906 -1.3449
   48CHL1  H24B 3542   2.278   1.165   4.355 -1.3026 -1.9091  0.7945
   48CHL1   C25 3543   2.436   1.083   4.484 -1.0357 -0.8747 -0.1548
   48CHL1   H25 3544   2.367   1.010   4.531  0.8278 -0.8038  3.0047
   48CHL1   C26 3545   2.580   1.018   4.482  0.3693 -0.4138  0.1024
   48CHL1  H26A 3546   2.633   1.010   4.580  1.0949 -2.9328 -0.4405
   48CHL1  H26B 3547   2.571   0.916   4.440 -0.5825  0.1124 -1.0308
   48CHL1  H26C 3548   2.645   1.071   4.408  0.6161  1.2378  1.4284
   48CHL1   C27 3549   2.448   1.200   4.581  0.4454  0.2842 -0.0936
   48CHL1  H27A 3550   2.515   1.283   4.552 -0.6802  0.4797 -2.2992
   48CHL1  H27B 3551   2.350   1.252   4.593  1.5109  3.0324 -2.4705
   48CHL1  H27C 3552   2.484   1.165   4.680  0.6165 -1.9702 -0.9028
   49CHL1    C3 3553   1.738   5.467   3.721 -0.5189 -0.6050  0.3523
   49CHL1    H3 3554   1.635   5.443   3.755 -1.1191  1.0920 -0.1892
   49CHL1    O3 3555   1.728   5.503   3.589  0.1354  0.3692  0.0592
   49CHL1   H3' 3556   1.700   5.422   3.546  2.4742 -1.7625  2.2457
   49CHL1    C4 3557   1.812   5.571   3.811  0.8887 -0.0317  0.2315
   49CHL1   H4A 3558   1.910   5.583   3.759  1.3680  1.0541  1.3452
   49CHL1   H4B 3559   1.757   5.668   3.808 -0.8159 -0.9609  0.2986
   49CHL1    C5 3560   1.842   5.528   3.951  0.3761  0.4054  0.4857
   49CHL1    C6 3561   1.790   5.604   4.048  0.3208 -0.2027 -1.1603
   49CHL1    H6 3562   1.738   5.699   4.029 -0.5550 -0.5232 -0.4547
   49CHL1    C7 3563   1.802   5.574   4.192  0.6382 -0.0997  0.4759
   49CHL1   H7A 3564   1.840   5.663   4.246 -1.4219  0.4923  1.0399
   49CHL1   H7B 3565   1.701   5.551   4.232  0.3322  0.0994 -0.1726
   49CHL1    C8 3566   1.899   5.460   4.220  1.0483 -0.0850 -0.0660
   49CHL1    H8 3567   2.006   5.490   4.216  1.4711 -1.4232  0.4134
   49CHL1   C14 3568   1.867   5.417   4.360  0.1967  0.2071  0.4782
   49CHL1   H14 3569   1.758   5.392   4.361  0.2555 -0.0596  1.1590
   49CHL1   C15 3570   1.881   5.510   4.477 -0.3545 -0.6219 -0.4169
   49CHL1  H15A 3571   1.980   5.560   4.479  0.7068 -2.6177  1.7875
   49CHL1  H15B 3572   1.797   5.583   4.480 -0.1655 -0.4184  0.9408
   49CHL1   C16 3573   1.874   5.422   4.602  0.0931  0.7875  0.1913
   49CHL1  H16A 3574   1.930   5.451   4.693 -0.6224 -1.0491  1.2591
   49CHL1  H16B 3575   1.765   5.428   4.624 -0.0806  0.7147 -0.6158
   49CHL1   C17 3576   1.902   5.282   4.544 -0.1381 -0.4431 -0.3860
   49CHL1   H17 3577   1.800   5.238   4.540 -0.8807  1.0240  1.4953
   49CHL1   C13 3578   1.950   5.298   4.402  0.7734  0.0957 -0.4077
   49CHL1   C18 3579   2.106   5.331   4.415 -0.0734 -0.3343  0.4462
   49CHL1  H18A 3580   2.128   5.381   4.512 -2.5049 -1.0311  1.4391
   49CHL1  H18B 3581   2.166   5.238   4.405  0.7559  0.3512 -1.2408
   49CHL1  H18C 3582   2.142   5.398   4.335  2.5710 -0.7760  1.1729
   49CHL1   C12 3583   1.928   5.172   4.311  0.5532  0.1793 -0.6316
   49CHL1  H12A 3584   1.989   5.084   4.337  0.3252  0.4247  0.8058
   49CHL1  H12B 3585   1.821   5.145   4.323  0.0454  1.4622 -1.9898
   49CHL1   C11 3586   1.957   5.213   4.168 -0.6546 -0.0694  0.8483
   49CHL1  H11A 3587   2.066   5.235   4.161 -0.3837 -0.6279  2.7209
   49CHL1  H11B 3588   1.942   5.128   4.098  0.0535 -0.0697  0.6902
   49CHL1    C9 3589   1.876   5.340   4.120 -0.5365 -1.0450  0.4082
   49CHL1    H9 3590   1.770   5.312   4.141 -1.9717  2.7285 -0.9387
   49CHL1   C10 3591   1.901   5.386   3.973  0.0578  0.3872  0.7815
   49CHL1   C19 3592   2.059   5.397   3.952  1.1752  0.0193 -0.4851
   49CHL1  H19A 3593   2.104   5.459   4.032  0.2269 -2.2055  1.9269
   49CHL1  H19B 3594   2.106   5.297   3.954 -0.3248 -0.7224 -0.2410
   49CHL1  H19C 3595   2.074   5.442   3.852 -0.8831 -1.8861 -1.7488
   49CHL1    C1 3596   1.850   5.283   3.864  0.3094 -0.1764 -0.7964
   49CHL1   H1A 3597   1.917   5.198   3.841  1.1943  0.9603 -2.6413
   49CHL1   H1B 3598   1.766   5.220   3.899  0.9129 -0.8856 -0.6046
   49CHL1    C2 3599   1.819   5.340   3.722  0.3158  0.3255  0.0098
   49CHL1   H2A 3600   1.763   5.263   3.665 -2.4080 -0.2491  3.1627
   49CHL1   H2B 3601   1.910   5.361   3.662 -1.4594 -0.9511 -3.3849
   49CHL1   C20 3602   1.983   5.179   4.629 -0.0385 -0.2754 -0.1011
   49CHL1   H20 3603   2.073   5.154   4.569 -1.4457  0.5691 -2.7199
   49CHL1   C21 3604   1.889   5.052   4.648 -0.2268 -0.8670 -0.0620
   49CHL1  H21A 3605   1.807   5.080   4.718 -0.0665  0.3373 -0.3406
   49CHL1  H21B 3606   1.950   4.968   4.688  1.2333  0.6125  0.9279
   49CHL1  H21C 3607   1.845   5.015   4.553 -2.2500 -0.0323  0.4857
   49CHL1   C22 3608   2.025   5.225   4.774  0.2379  0.1869 -0.1037
   49CHL1  H22A 3609   2.080   5.322   4.777  1.0237 -0.1197 -2.4236
   49CHL1  H22B 3610   1.932   5.246   4.832  1.7155  1.8784  1.8326
   49CHL1   C23 3611   2.121   5.119   4.840  0.4935 -0.2195  0.3036
   49CHL1  H23A 3612   2.061   5.031   4.875  1.1011 -0.3087  1.1502
   49CHL1  H23B 3613   2.194   5.098   4.759  0.2482  1.9867 -0.5594
   49CHL1   C24 3614   2.181   5.177   4.966 -0.3873 -0.5732  0.3719
   49CHL1  H24A 3615   2.244   5.265   4.939 -0.4482 -0.4873  0.5101
   49CHL1  H24B 3616   2.095   5.204   5.029 -0.9408 -1.7472  0.1577
   49CHL1   C25 3617   2.271   5.088   5.054 -0.1690  0.1188  0.2796
   49CHL1   H25 3618   2.237   4.983   5.060 -1.2487  0.4495  0.2024
   49CHL1   C26 3619   2.413   5.071   4.986 -0.0573 -0.0745 -0.3301
   49CHL1  H26A 3620   2.474   5.019   5.063 -1.1191  0.3489  0.8378
   49CHL1  H26B 3621   2.400   5.020   4.888  0.2705 -0.3737 -0.2214
   49CHL1  H26C 3622   2.457   5.171   4.967  0.9461 -0.5934 -0.7762
   49CHL1   C27 3623   2.281   5.139   5.205  0.0346 -0.8346 -0.3704
   49CHL1  H27A 3624   2.307   5.247   5.206  0.4832 -0.9271 -1.1178
   49CHL1  H27B 3625   2.181   5.128   5.251 -1.0397 -0.2882 -2.4436
   49CHL1  H27C 3626   2.358   5.073   5.250 -0.9053 -4.1316 -3.1727
   50CHL1    C3 3627   6.540   1.056   3.187 -0.9733 -0.1204  0.5575
   50CHL1    H3 3628   6.477   1.147   3.200 -0.3317  0.6850 -1.4538
   50CHL1    O3 3629   6.566   1.032   3.045  0.0266 -0.3811 -0.2559
   50CHL1   H3' 3630   6.630   0.961   3.037 -0.5651 -0.8370 -1.0752
   50CHL1    C4 3631   6.679   1.072   3.256  0.4894 -0.2762  0.3719
   50CHL1   H4A 3632   6.744   0.984   3.239  1.8121  0.1153  2.8916
   50CHL1   H4B 3633   6.722   1.162   3.209 -2.6854  2.4999  2.2646
   50CHL1    C5 3634   6.660   1.094   3.405  0.4539  0.6849  0.1271
   50CHL1    C6 3635   6.712   1.196   3.475  0.5042 -0.5997  0.8174
   50CHL1    H6 3636   6.761   1.272   3.412 -1.8654 -0.0683 -0.5168
   50CHL1    C7 3637   6.714   1.216   3.626 -0.3582  0.2606  0.8200
   50CHL1   H7A 3638   6.809   1.252   3.671 -0.6584 -1.4297  2.9568
   50CHL1   H7B 3639   6.642   1.299   3.644 -1.3960 -0.1709 -1.0853
   50CHL1    C8 3640   6.667   1.092   3.703 -0.0026 -0.1458 -0.0285
   50CHL1    H8 3641   6.756   1.029   3.724 -0.1553 -0.4761 -0.3540
   50CHL1   C14 3642   6.599   1.137   3.840 -0.1092  0.6775  0.2029
   50CHL1   H14 3643   6.507   1.197   3.820 -0.9060 -0.3114  0.8236
   50CHL1   C15 3644   6.682   1.222   3.933  0.3179 -0.5278  0.1248
   50CHL1  H15A 3645   6.788   1.192   3.948 -0.0408 -2.1726 -0.4201
   50CHL1  H15B 3646   6.698   1.322   3.887 -0.5614 -1.1130 -1.5414
   50CHL1   C16 3647   6.604   1.222   4.064 -0.0342 -0.4582  0.1435
   50CHL1  H16A 3648   6.676   1.203   4.148  2.7298  1.6824 -1.5522
   50CHL1  H16B 3649   6.546   1.315   4.081 -0.5376 -0.8974  0.9063
   50CHL1   C17 3650   6.503   1.102   4.060  0.3022 -0.1396  0.4848
   50CHL1   H17 3651   6.408   1.148   4.024  1.3719  1.0650 -0.9238
   50CHL1   C13 3652   6.554   1.023   3.932  0.4157 -0.1294 -0.0397
   50CHL1   C18 3653   6.670   0.928   3.971 -0.0320  0.3359 -0.3255
   50CHL1  H18A 3654   6.718   0.895   3.877  1.0362 -0.4805  0.4812
   50CHL1  H18B 3655   6.752   0.980   4.026 -0.2646  0.0019  0.3407
   50CHL1  H18C 3656   6.620   0.848   4.029 -1.9238  0.0353 -2.2679
   50CHL1   C12 3657   6.451   0.935   3.855 -0.0327 -0.0159 -0.1779
   50CHL1  H12A 3658   6.436   0.849   3.925 -0.4260  1.3767  1.5018
   50CHL1  H12B 3659   6.352   0.980   3.835 -0.4563 -0.3730  1.0129
   50CHL1   C11 3660   6.500   0.904   3.716 -0.0707 -0.5014  0.0192
   50CHL1  H11A 3661   6.584   0.834   3.734 -0.1824 -0.5713  0.2820
   50CHL1  H11B 3662   6.419   0.850   3.664 -1.1129 -1.5394  2.5290
   50CHL1    C9 3663   6.556   1.017   3.628 -0.1669 -0.2647 -0.0439
   50CHL1    H9 3664   6.474   1.088   3.605 -0.8798 -1.9003 -3.1978
   50CHL1   C10 3665   6.583   0.975   3.479 -0.7093 -0.3287 -0.4984
   50CHL1   C19 3666   6.673   0.845   3.472 -1.2190 -0.5413 -0.0911
   50CHL1  H19A 3667   6.624   0.762   3.528 -0.3312 -0.7932  0.3295
   50CHL1  H19B 3668   6.688   0.813   3.367  0.8683 -1.3278  0.3958
   50CHL1  H19C 3669   6.773   0.870   3.512 -2.4116  1.5594  1.8089
   50CHL1    C1 3670   6.453   0.947   3.403 -0.5640  0.7529 -0.3039
   50CHL1   H1A 3671   6.403   0.861   3.452 -1.5353  0.1407 -2.2690
   50CHL1   H1B 3672   6.379   1.029   3.410 -0.9888  0.4163 -0.7674
   50CHL1    C2 3673   6.464   0.933   3.243 -0.3551 -0.0632  0.3953
   50CHL1   H2A 3674   6.359   0.939   3.209  0.2465 -0.5953 -1.7116
   50CHL1   H2B 3675   6.507   0.832   3.225  0.3556  0.2708  0.1781
   50CHL1   C20 3676   6.483   1.025   4.191 -0.5857 -0.0953  0.8751
   50CHL1   H20 3677   6.584   0.995   4.225  0.2440  0.8969 -0.5818
   50CHL1   C21 3678   6.371   0.917   4.188  0.5190  0.2339  0.3296
   50CHL1  H21A 3679   6.404   0.817   4.151 -3.7677 -1.0531 -0.4747
   50CHL1  H21B 3680   6.281   0.948   4.131 -0.7171 -0.1120  2.0287
   50CHL1  H21C 3681   6.322   0.904   4.287 -2.3811  0.2606 -1.0001
   50CHL1   C22 3682   6.440   1.124   4.301 -0.8121  0.1673 -0.6286
   50CHL1  H22A 3683   6.504   1.215   4.299 -0.5754  0.0336  0.5269
   50CHL1  H22B 3684   6.337   1.155   4.272 -0.2544  1.3734 -1.4390
   50CHL1   C23 3685   6.458   1.071   4.443  0.5242 -0.1508  0.2433
   50CHL1  H23A 3686   6.389   0.986   4.461 -1.4129  0.8991 -1.7340
   50CHL1  H23B 3687   6.562   1.031   4.449 -0.3457 -2.8012 -0.8688
   50CHL1   C24 3688   6.414   1.172   4.558  0.5678 -0.2737  0.3628
   50CHL1  H24A 3689   6.449   1.136   4.657 -3.1616 -1.0086  1.5537
   50CHL1  H24B 3690   6.463   1.271   4.544 -1.6294  0.7197 -0.7780
   50CHL1   C25 3691   6.264   1.204   4.582 -0.2847 -0.2485  0.3214
   50CHL1   H25 3692   6.218   1.242   4.488 -0.0574 -2.5153 -0.7712
   50CHL1   C26 3693   6.196   1.076   4.633  0.1828 -0.1301 -0.2537
   50CHL1  H26A 3694   6.094   1.105   4.665  0.9256 -0.3555  2.5486
   50CHL1  H26B 3695   6.172   1.003   4.553 -1.3839  1.7996 -1.6624
   50CHL1  H26C 3696   6.246   1.035   4.723 -0.2638 -2.7788 -1.1126
   50CHL1   C27 3697   6.270   1.318   4.687 -0.0050  0.2249  0.0962
   50CHL1  H27A 3698   6.305   1.411   4.637  0.9359  0.6624  1.5156
   50CHL1  H27B 3699   6.170   1.344   4.727  1.0366  0.2674  2.8634
   50CHL1  H27C 3700   6.341   1.283   4.765  0.1776 -1.2109 -0.6726
   51CHL1    C3 3701   3.712   3.178   3.242 -0.3746  0.5053 -0.1576
   51CHL1    H3 3702   3.663   3.084   3.208  1.7181 -0.1468 -1.5316
   51CHL1    O3 3703   3.816   3.222   3.159 -0.6541 -0.0015 -0.4853
   51CHL1   H3' 3704   3.781   3.256   3.076  1.9378 -1.7648 -2.4672
   51CHL1    C4 3705   3.617   3.286   3.270 -0.2575 -0.2165 -0.6270
   51CHL1   H4A 3706   3.667   3.380   3.301 -3.2738  1.8885 -1.6445
   51CHL1   H4B 3707   3.561   3.314   3.178 -2.7276  1.1177  1.1400
   51CHL1    C5 3708   3.514   3.271   3.382 -0.3546  0.2508  0.0218
   51CHL1    C6 3709   3.384   3.291   3.364  0.1084 -0.4146 -0.2936
   51CHL1    H6 3710   3.345   3.319   3.265 -2.1781  2.6395  1.2953
   51CHL1    C7 3711   3.283   3.283   3.472 -0.3055  0.6318 -0.8098
   51CHL1   H7A 3712   3.223   3.376   3.481 -0.3141  0.5259  0.4521
   51CHL1   H7B 3713   3.211   3.200   3.457  0.3177 -0.5397  1.9829
   51CHL1    C8 3714   3.348   3.268   3.614 -0.1762  0.1246  0.4201
   51CHL1    H8 3715   3.379   3.368   3.650 -0.8853  0.1583  0.9584
   51CHL1   C14 3716   3.241   3.223   3.716  0.0779 -0.3949 -0.0295
   51CHL1   H14 3717   3.200   3.129   3.673 -2.6912 -0.0229  1.5854
   51CHL1   C15 3718   3.121   3.318   3.740  0.3956 -0.0281 -0.1508
   51CHL1  H15A 3719   3.161   3.421   3.752  1.0020 -0.2735 -0.0616
   51CHL1  H15B 3720   3.047   3.307   3.657 -0.6299  1.0561  0.5827
   51CHL1   C16 3721   3.068   3.276   3.884 -0.1444 -0.1637 -0.2676
   51CHL1  H16A 3722   3.074   3.354   3.963  2.2361 -1.3008  0.7718
   51CHL1  H16B 3723   2.967   3.239   3.859 -0.6846  1.3351 -0.3787
   51CHL1   C17 3724   3.164   3.162   3.937 -0.1479 -0.1508 -0.2121
   51CHL1   H17 3725   3.130   3.070   3.886 -2.1850  0.0514  0.6991
   51CHL1   C13 3726   3.290   3.201   3.860 -0.8083 -0.3501 -0.1370
   51CHL1   C18 3727   3.353   3.327   3.931  0.0967 -0.3159  0.0309
   51CHL1  H18A 3728   3.267   3.397   3.942  0.3112  0.0310 -0.4477
   51CHL1  H18B 3729   3.390   3.294   4.030  3.6998  0.1553 -1.0103
   51CHL1  H18C 3730   3.435   3.364   3.866  0.4093 -0.4877  0.3317
   51CHL1   C12 3731   3.394   3.087   3.844 -0.2536  0.4563 -0.0103
   51CHL1  H12A 3732   3.437   3.057   3.941 -2.6529 -0.5543  0.8354
   51CHL1  H12B 3733   3.347   2.994   3.807  0.5758  0.4441 -1.0792
   51CHL1   C11 3734   3.516   3.134   3.757  0.4857 -0.0912  0.6643
   51CHL1  H11A 3735   3.554   3.232   3.795 -0.6136  0.6672 -0.1080
   51CHL1  H11B 3736   3.596   3.058   3.756  0.6740  0.0650  1.8950
   51CHL1    C9 3737   3.468   3.168   3.616 -0.2599  0.2646 -0.0522
   51CHL1    H9 3738   3.428   3.075   3.570  0.1358  0.5030 -0.9031
   51CHL1   C10 3739   3.575   3.215   3.516  0.0293 -0.8286  0.2703
   51CHL1   C19 3740   3.655   3.331   3.582 -0.5812 -0.6905  0.2501
   51CHL1  H19A 3741   3.724   3.387   3.515  0.9829  0.3989  2.6252
   51CHL1  H19B 3742   3.584   3.408   3.619  0.6776  1.0874 -0.8790
   51CHL1  H19C 3743   3.718   3.301   3.669  1.0043  1.9793  0.1195
   51CHL1    C1 3744   3.679   3.104   3.485 -0.9320 -0.2871 -0.2577
   51CHL1   H1A 3745   3.742   3.074   3.571 -0.9330 -0.8085 -0.4379
   51CHL1   H1B 3746   3.626   3.014   3.447 -1.4964 -0.1763  0.2483
   51CHL1    C2 3747   3.780   3.144   3.380 -0.7503  0.8834 -0.7916
   51CHL1   H2A 3748   3.851   3.059   3.370 -0.3913  1.0311  0.3601
   51CHL1   H2B 3749   3.842   3.231   3.410  0.6243 -0.9125  1.9596
   51CHL1   C20 3750   3.161   3.158   4.083 -0.1060 -0.5459  0.1853
   51CHL1   H20 3751   3.188   3.257   4.126  0.5313  0.1099 -1.6455
   51CHL1   C21 3752   3.250   3.045   4.139 -0.1147 -0.3705 -0.3219
   51CHL1  H21A 3753   3.355   3.074   4.115  0.3713 -2.1815 -0.5886
   51CHL1  H21B 3754   3.225   2.948   4.091 -0.8108  0.1684 -1.0727
   51CHL1  H21C 3755   3.244   3.037   4.250 -2.3358  1.2385 -0.2743
   51CHL1   C22 3756   3.011   3.116   4.122 -0.2520 -0.3310  0.2092
   51CHL1  H22A 3757   2.936   3.165   4.056 -0.1227 -0.7065 -0.2220
   51CHL1  H22B 3758   2.993   3.010   4.096  0.3208 -0.1669 -0.9369
   51CHL1   C23 3759   2.966   3.151   4.266 -0.3973 -0.3807 -0.2458
   51CHL1  H23A 3760   3.036   3.106   4.339  1.9837  0.1634 -2.0727
   51CHL1  H23B 3761   2.959   3.260   4.287 -2.1798 -0.4481 -0.3258
   51CHL1   C24 3762   2.826   3.102   4.297  0.1103  0.2300  1.2002
   51CHL1  H24A 3763   2.760   3.113   4.208  1.7270 -1.4747 -0.2946
   51CHL1  H24B 3764   2.833   2.992   4.313  2.5765  0.1120 -0.2034
   51CHL1   C25 3765   2.750   3.175   4.410 -1.1127  0.0981 -0.1894
   51CHL1   H25 3766   2.749   3.283   4.388 -2.1664 -0.0998 -1.2014
   51CHL1   C26 3767   2.602   3.136   4.413 -0.1084 -0.5485 -0.7739
   51CHL1  H26A 3768   2.545   3.164   4.322  1.2653 -0.0154 -1.4859
   51CHL1  H26B 3769   2.588   3.025   4.410  0.3328 -0.6716  0.6745
   51CHL1  H26C 3770   2.535   3.169   4.496  0.5002 -0.7663 -0.1927
   51CHL1   C27 3771   2.812   3.149   4.551  0.2056 -0.3000  0.4609
   51CHL1  H27A 3772   2.861   3.050   4.557  1.2862  0.2942  1.7505
   51CHL1  H27B 3773   2.889   3.223   4.581 -1.5020  1.8527 -0.1253
   51CHL1  H27C 3774   2.727   3.154   4.623  0.2471  0.4442  0.4628
   52CHL1    C3 3775   1.600   1.639   3.531 -0.3425 -0.1418 -0.0885
   52CHL1    H3 3776   1.689   1.598   3.582 -1.0838 -0.3239  1.1198
   52CHL1    O3 3777   1.626   1.628   3.393  0.3823  0.6002  0.0780
   52CHL1   H3' 3778   1.561   1.681   3.348 -0.0905 -0.5230 -0.6111
   52CHL1    C4 3779   1.487   1.541   3.570  0.9803 -0.7328  0.6110
   52CHL1   H4A 3780   1.398   1.560   3.506  1.1635 -3.0826 -0.4473
   52CHL1   H4B 3781   1.517   1.439   3.537  0.0116 -0.5353 -1.0257
   52CHL1    C5 3782   1.452   1.540   3.719  0.1787 -1.2341  0.2054
   52CHL1    C6 3783   1.435   1.429   3.795 -0.1751 -0.3272 -0.2287
   52CHL1    H6 3784   1.439   1.333   3.739  0.6499 -0.3949 -0.0720
   52CHL1    C7 3785   1.408   1.423   3.940  0.7595  0.0717  0.5445
   52CHL1   H7A 3786   1.334   1.345   3.964  1.5268 -0.4537  1.2691
   52CHL1   H7B 3787   1.507   1.387   3.976  1.2939 -1.4538 -2.2177
   52CHL1    C8 3788   1.364   1.561   4.000 -0.0699  0.3314  0.0375
   52CHL1    H8 3789   1.256   1.569   3.976 -0.0168 -1.5585 -1.0312
   52CHL1   C14 3790   1.378   1.555   4.152  0.1811 -0.5853  0.8264
   52CHL1   H14 3791   1.488   1.543   4.164  0.3667  2.0540  2.5274
   52CHL1   C15 3792   1.335   1.433   4.228 -0.7786 -0.6414 -0.7475
   52CHL1  H15A 3793   1.233   1.410   4.193 -0.7241 -2.5310  0.2140
   52CHL1  H15B 3794   1.408   1.349   4.222 -3.0695 -2.6284 -3.1010
   52CHL1   C16 3795   1.335   1.486   4.375 -0.1559  0.7681 -0.7026
   52CHL1  H16A 3796   1.234   1.467   4.418  0.5882 -0.1464  0.7260
   52CHL1  H16B 3797   1.413   1.432   4.433 -1.7044  0.2088  0.9295
   52CHL1   C17 3798   1.374   1.639   4.380  0.0494 -0.2829 -0.0103
   52CHL1   H17 3799   1.484   1.642   4.398  0.3355 -1.2160 -1.4556
   52CHL1   C13 3800   1.340   1.678   4.227 -0.3759  0.1565 -0.6387
   52CHL1   C18 3801   1.185   1.695   4.219  0.0166 -0.2340 -0.0819
   52CHL1  H18A 3802   1.131   1.616   4.276  0.0946  0.6712  1.3073
   52CHL1  H18B 3803   1.145   1.788   4.263 -4.5757 -1.3233 -1.4267
   52CHL1  H18C 3804   1.143   1.689   4.117  1.2294 -1.1581 -0.5551
   52CHL1   C12 3805   1.418   1.800   4.170 -0.5978  0.0992 -0.7609
   52CHL1  H12A 3806   1.366   1.894   4.199  0.2211  0.1864  0.4896
   52CHL1  H12B 3807   1.524   1.806   4.203 -0.4803 -0.9336 -0.9222
   52CHL1   C11 3808   1.413   1.813   4.018 -0.3810  0.4236 -0.2053
   52CHL1  H11A 3809   1.314   1.855   3.992 -0.6101 -0.3836 -0.6971
   52CHL1  H11B 3810   1.493   1.888   3.998  0.2750 -0.5167 -1.2488
   52CHL1    C9 3811   1.440   1.678   3.937  0.3924 -0.2724 -0.3709
   52CHL1    H9 3812   1.546   1.655   3.962 -0.1306 -1.9393  0.4482
   52CHL1   C10 3813   1.438   1.682   3.782  0.1791 -0.1267 -1.2947
   52CHL1   C19 3814   1.303   1.715   3.730 -0.2136 -0.1670  0.0131
   52CHL1  H19A 3815   1.225   1.638   3.748  0.1237 -0.5243 -0.0413
   52CHL1  H19B 3816   1.277   1.807   3.786  2.1804 -0.0875  1.0820
   52CHL1  H19C 3817   1.301   1.744   3.623  1.5701 -1.9709 -0.5774
   52CHL1    C1 3818   1.549   1.776   3.731 -1.0877  0.6404  0.6302
   52CHL1   H1A 3819   1.522   1.879   3.763 -0.6881  0.5263  1.3620
   52CHL1   H1B 3820   1.651   1.753   3.767 -0.5779  2.1288  0.2037
   52CHL1    C2 3821   1.568   1.776   3.580 -0.4629 -0.8630 -0.4546
   52CHL1   H2A 3822   1.667   1.824   3.561 -0.8027  0.9816  2.0111
   52CHL1   H2B 3823   1.479   1.816   3.527 -2.0133 -2.8381  0.5632
   52CHL1   C20 3824   1.303   1.718   4.488  0.4562 -0.7162  0.2796
   52CHL1   H20 3825   1.193   1.730   4.481  0.2593 -1.4583  1.6465
   52CHL1   C21 3826   1.368   1.856   4.476  0.9788 -0.9143  0.5593
   52CHL1  H21A 3827   1.477   1.854   4.459  0.6941  1.7003 -2.4923
   52CHL1  H21B 3828   1.343   1.918   4.564 -2.0241 -0.3404 -0.5804
   52CHL1  H21C 3829   1.314   1.908   4.394 -0.2653 -1.8718  0.7261
   52CHL1   C22 3830   1.326   1.656   4.629  0.5306  0.2760  0.0748
   52CHL1  H22A 3831   1.291   1.552   4.643 -0.1530  0.4996  0.0293
   52CHL1  H22B 3832   1.435   1.638   4.645  0.1214 -2.7795 -0.1560
   52CHL1   C23 3833   1.269   1.747   4.742  0.2990 -0.4002  0.7804
   52CHL1  H23A 3834   1.306   1.703   4.837  0.7700  1.1277  1.3435
   52CHL1  H23B 3835   1.319   1.846   4.741 -1.1136  0.3771  1.8884
   52CHL1   C24 3836   1.119   1.773   4.744  0.6053  0.1183 -0.6960
   52CHL1  H24A 3837   1.077   1.823   4.654  0.7665  1.8104  0.1421
   52CHL1  H24B 3838   1.073   1.672   4.749 -0.3839  0.6048  0.4039
   52CHL1   C25 3839   1.072   1.862   4.859  0.0354  0.4694  0.1962
   52CHL1   H25 3840   0.961   1.871   4.857 -0.1066 -1.0772 -0.1663
   52CHL1   C26 3841   1.088   1.793   5.001 -0.0588 -0.1898 -0.6439
   52CHL1  H26A 3842   1.194   1.769   5.023 -0.1376 -1.7905 -1.8285
   52CHL1  H26B 3843   1.054   1.870   5.074 -0.2857  1.6962 -2.6224
   52CHL1  H26C 3844   1.032   1.697   4.996 -0.4728  0.0465 -0.6002
   52CHL1   C27 3845   1.124   1.999   4.860 -0.0696  0.3363 -0.2652
   52CHL1  H27A 3846   1.113   2.042   4.758  1.3042  0.2752 -0.4620
   52CHL1  H27B 3847   1.065   2.061   4.931  2.6943  0.2126  2.3333
   52CHL1  H27C 3848   1.232   2.004   4.886 -0.2329 -1.3192  0.9252
   53CHL1    C3 3849   3.009   5.224   3.526  0.0587  0.0652  0.4379
   53CHL1    H3 3850   3.009   5.122   3.570 -1.2562  0.0083  0.3256
   53CHL1    O3 3851   2.979   5.217   3.386 -0.1048  0.1323 -0.1429
   53CHL1   H3' 3852   2.988   5.309   3.359  0.5346 -0.2698 -1.3610
   53CHL1    C4 3853   2.899   5.298   3.598 -0.0263 -0.2120  0.4460
   53CHL1   H4A 3854   2.903   5.401   3.556 -0.6647 -0.6841 -0.8504
   53CHL1   H4B 3855   2.797   5.262   3.575 -0.4012  1.6287 -1.0079
   53CHL1    C5 3856   2.928   5.311   3.749  0.4692 -0.0767 -0.1370
   53CHL1    C6 3857   2.840   5.275   3.852 -1.3859  0.1807  0.0825
   53CHL1    H6 3858   2.744   5.237   3.815 -1.1375  0.2732 -0.6882
   53CHL1    C7 3859   2.864   5.284   3.994 -0.5869 -0.4725  0.5131
   53CHL1   H7A 3860   2.778   5.327   4.049 -1.0034 -1.2604  0.4977
   53CHL1   H7B 3861   2.887   5.182   4.031  2.2939  0.1039  0.5013
   53CHL1    C8 3862   2.990   5.378   4.019  0.2739  0.0062  0.0286
   53CHL1    H8 3863   2.957   5.483   4.003  1.7496  0.1245 -3.2133
   53CHL1   C14 3864   3.038   5.363   4.167 -0.2130  0.6238  0.5571
   53CHL1   H14 3865   3.064   5.255   4.174  0.0701  0.5304 -1.3039
   53CHL1   C15 3866   2.936   5.383   4.284  0.6392  0.2353  0.7869
   53CHL1  H15A 3867   2.881   5.479   4.275  1.7924  0.9230  0.8248
   53CHL1  H15B 3868   2.855   5.307   4.289  0.0060  0.6839 -1.3760
   53CHL1   C16 3869   3.020   5.384   4.407 -0.1512 -0.1902 -0.0607
   53CHL1  H16A 3870   2.981   5.454   4.483 -0.4581 -1.7390  1.2493
   53CHL1  H16B 3871   3.014   5.290   4.466  0.5173  0.5115  1.1599
   53CHL1   C17 3872   3.170   5.409   4.357 -0.0379  0.7613 -0.8988
   53CHL1   H17 3873   3.204   5.303   4.356  2.2168  1.4113  0.3935
   53CHL1   C13 3874   3.159   5.446   4.210  0.0586 -0.0873 -0.5786
   53CHL1   C18 3875   3.138   5.605   4.210  0.6050 -0.1321  0.8787
   53CHL1  H18A 3876   3.231   5.660   4.239 -0.2572  2.6706 -1.2490
   53CHL1  H18B 3877   3.100   5.642   4.113  2.7490 -0.8962 -0.3299
   53CHL1  H18C 3878   3.075   5.634   4.297  1.3941  1.1355  1.0607
   53CHL1   C12 3879   3.276   5.418   4.119 -0.3517 -0.4700  0.3691
   53CHL1  H12A 3880   3.351   5.499   4.130 -0.0033 -0.6198 -0.7609
   53CHL1  H12B 3881   3.300   5.315   4.151 -2.2698 -0.8905  0.5537
   53CHL1   C11 3882   3.238   5.423   3.963  0.3639  0.0168  0.0349
   53CHL1  H11A 3883   3.230   5.530   3.934  2.8965  0.1203 -0.4995
   53CHL1  H11B 3884   3.320   5.381   3.902  1.6626  0.9936  1.0433
   53CHL1    C9 3885   3.106   5.354   3.925  0.2630  1.0425 -0.0199
   53CHL1    H9 3886   3.127   5.245   3.937  1.7695  1.3483  0.3317
   53CHL1   C10 3887   3.061   5.373   3.777 -0.9693 -0.0686 -1.1458
   53CHL1   C19 3888   3.067   5.520   3.725  0.5328 -0.2507 -0.3846
   53CHL1  H19A 3889   3.007   5.586   3.791 -0.0447 -0.0742 -1.0830
   53CHL1  H19B 3890   3.170   5.564   3.730  0.4724  0.0572 -1.5840
   53CHL1  H19C 3891   3.024   5.539   3.624 -1.3279 -0.7894  0.2708
   53CHL1    C1 3892   3.169   5.299   3.698 -0.0691 -0.4255 -0.1830
   53CHL1   H1A 3893   3.268   5.348   3.711  0.1943 -0.7732 -0.8467
   53CHL1   H1B 3894   3.180   5.201   3.750  1.4657  0.1358  0.6231
   53CHL1    C2 3895   3.148   5.281   3.551 -0.3971 -0.5907  0.1803
   53CHL1   H2A 3896   3.230   5.217   3.511  1.7051  0.0952  3.0443
   53CHL1   H2B 3897   3.163   5.379   3.501 -0.9183 -1.2320 -1.2866
   53CHL1   C20 3898   3.263   5.476   4.457  0.0012 -0.2930  0.3262
   53CHL1   H20 3899   3.242   5.585   4.457 -0.1025 -0.3126  0.3859
   53CHL1   C21 3900   3.414   5.453   4.408 -0.0538  0.7176 -0.9213
   53CHL1  H21A 3901   3.429   5.500   4.308 -0.0188  0.9275 -0.8168
   53CHL1  H21B 3902   3.445   5.347   4.416 -0.4216  0.6683 -0.0419
   53CHL1  H21C 3903   3.478   5.514   4.475  0.5172 -0.6595 -0.1719
   53CHL1   C22 3904   3.251   5.436   4.604  0.5929 -0.1263  0.0333
   53CHL1  H22A 3905   3.146   5.414   4.631  0.7829 -0.7503  0.2965
   53CHL1  H22B 3906   3.311   5.342   4.613 -1.4479 -2.0583 -3.9698
   53CHL1   C23 3907   3.315   5.534   4.703  0.1055  0.1291  0.1895
   53CHL1  H23A 3908   3.417   5.562   4.672 -0.6733 -0.9948 -4.1903
   53CHL1  H23B 3909   3.247   5.622   4.708  0.1266  0.0920  1.2945
   53CHL1   C24 3910   3.326   5.472   4.843  1.1720  0.0267 -0.1100
   53CHL1  H24A 3911   3.227   5.458   4.891  0.1596 -1.9321 -2.5200
   53CHL1  H24B 3912   3.362   5.367   4.835  1.1400 -0.1563  1.7500
   53CHL1   C25 3913   3.419   5.546   4.938  0.3839 -0.0481 -1.0510
   53CHL1   H25 3914   3.518   5.547   4.887  0.9840  1.7646  0.0634
   53CHL1   C26 3915   3.381   5.695   4.958  0.4276  0.3452  0.4220
   53CHL1  H26A 3916   3.474   5.752   4.978 -1.0083  2.6064  1.0414
   53CHL1  H26B 3917   3.334   5.733   4.865  0.8747  0.2534  0.1541
   53CHL1  H26C 3918   3.304   5.711   5.036 -2.5521 -0.5958 -2.1320
   53CHL1   C27 3919   3.431   5.462   5.066  0.2550 -0.8669  0.5126
   53CHL1  H27A 3920   3.485   5.504   5.154 -1.1851  1.4156  0.3761
   53CHL1  H27B 3921   3.330   5.430   5.100 -0.2461 -2.2242 -2.0103
   53CHL1  H27C 3922   3.486   5.367   5.047 -0.3237 -0.7958 -1.8239
   54CHL1    C3 3923   0.631   3.409   3.517 -0.5111  0.1607 -0.3709
   54CHL1    H3 3924   0.522   3.411   3.498 -0.4733 -0.0044 -0.6029
   54CHL1    O3 3925   0.691   3.390   3.390 -0.2160  0.9076  0.4712
   54CHL1   H3' 3926   0.781   3.422   3.403  0.6668  0.4150 -3.3949
   54CHL1    C4 3927   0.686   3.543   3.575  0.4071  0.2140 -0.8928
   54CHL1   H4A 3928   0.795   3.562   3.567  0.6362  0.7474  2.2601
   54CHL1   H4B 3929   0.642   3.621   3.508 -0.6617 -1.3144 -2.0402
   54CHL1    C5 3930   0.667   3.565   3.730  0.4532  0.4820  0.8453
   54CHL1    C6 3931   0.626   3.682   3.777 -0.0079  0.1258  0.0152
   54CHL1    H6 3932   0.590   3.752   3.701  1.0107 -0.4248 -0.9930
   54CHL1    C7 3933   0.615   3.721   3.921 -0.1194 -0.3002 -0.3731
   54CHL1   H7A 3934   0.636   3.828   3.943 -2.8913  0.2372  0.0028
   54CHL1   H7B 3935   0.509   3.711   3.950 -1.3862  3.7442 -2.7949
   54CHL1    C8 3936   0.688   3.616   4.014  0.2640 -0.0658 -0.4597
   54CHL1    H8 3937   0.799   3.621   4.022  0.4680 -3.8664  1.9704
   54CHL1   C14 3938   0.640   3.616   4.162 -1.1488 -0.0400  0.2996
   54CHL1   H14 3939   0.534   3.589   4.141 -1.0471  0.5631 -1.1046
   54CHL1   C15 3940   0.647   3.754   4.235 -0.2073 -0.2738 -0.3253
   54CHL1  H15A 3941   0.748   3.800   4.246 -0.4745 -0.2017  2.2805
   54CHL1  H15B 3942   0.575   3.823   4.187 -0.2170  0.3558  0.5843
   54CHL1   C16 3943   0.606   3.719   4.380 -0.7594  0.5072 -0.2261
   54CHL1  H16A 3944   0.674   3.774   4.449 -0.3502  0.6045 -0.7068
   54CHL1  H16B 3945   0.498   3.740   4.394 -1.5400 -2.6237 -0.8453
   54CHL1   C17 3946   0.626   3.560   4.393  0.2172  0.3646  0.6259
   54CHL1   H17 3947   0.521   3.522   4.395  0.5194 -0.5650  3.6685
   54CHL1   C13 3948   0.694   3.510   4.260  0.4430 -0.2766 -0.7774
   54CHL1   C18 3949   0.844   3.536   4.275 -0.4795  0.4896  0.2352
   54CHL1  H18A 3950   0.892   3.453   4.332 -1.8428 -0.0346  0.6647
   54CHL1  H18B 3951   0.893   3.552   4.176 -2.3685 -2.2757 -1.2867
   54CHL1  H18C 3952   0.868   3.633   4.324  0.2696 -0.8127  2.5916
   54CHL1   C12 3953   0.663   3.370   4.210 -0.4341  0.2222  0.1178
   54CHL1  H12A 3954   0.710   3.295   4.278  0.0599 -0.1320 -0.6059
   54CHL1  H12B 3955   0.553   3.362   4.225 -0.4512 -2.4423 -0.8322
   54CHL1   C11 3956   0.705   3.357   4.064  0.1469 -0.0537 -0.3943
   54CHL1  H11A 3957   0.815   3.368   4.056  0.5532 -3.0171 -0.1004
   54CHL1  H11B 3958   0.675   3.259   4.021 -0.3467  0.0335 -0.2628
   54CHL1    C9 3959   0.659   3.472   3.961  0.2508  0.2469 -0.5091
   54CHL1    H9 3960   0.549   3.461   3.958  0.4028 -1.4357 -0.7058
   54CHL1   C10 3961   0.708   3.446   3.812 -0.0716  0.6956 -0.2955
   54CHL1   C19 3962   0.862   3.433   3.808  0.1999  0.3067 -0.8519
   54CHL1  H19A 3963   0.916   3.526   3.838 -0.7151  0.6629 -0.2625
   54CHL1  H19B 3964   0.903   3.349   3.868 -1.5737  0.6228  0.9064
   54CHL1  H19C 3965   0.896   3.423   3.703 -0.8111  1.4734 -1.3227
   54CHL1    C1 3966   0.639   3.317   3.751  0.0956 -0.0129  0.5604
   54CHL1   H1A 3967   0.655   3.227   3.814  0.3530 -1.7735 -1.8499
   54CHL1   H1B 3968   0.532   3.342   3.731  0.8583  0.2348 -4.9760
   54CHL1    C2 3969   0.684   3.293   3.604  0.0777  0.1821  0.1803
   54CHL1   H2A 3970   0.642   3.194   3.574  1.6978 -0.2311 -0.9179
   54CHL1   H2B 3971   0.795   3.283   3.597  0.0032 -0.2967 -0.3975
   54CHL1   C20 3972   0.688   3.508   4.530  0.0470  0.6112 -0.1381
   54CHL1   H20 3973   0.794   3.541   4.525  0.1500  0.2289 -0.4941
   54CHL1   C21 3974   0.674   3.350   4.539  0.0340 -0.2335 -0.4070
   54CHL1  H21A 3975   0.570   3.317   4.520  0.4929 -1.0872 -1.5640
   54CHL1  H21B 3976   0.700   3.309   4.639 -0.9329 -1.3842 -0.6101
   54CHL1  H21C 3977   0.746   3.294   4.476 -0.2287  1.2164 -2.0822
   54CHL1   C22 3978   0.626   3.578   4.651  0.0289  0.0481 -0.5528
   54CHL1  H22A 3979   0.611   3.688   4.639  1.2329  0.5603  2.0888
   54CHL1  H22B 3980   0.532   3.526   4.678  0.8314 -1.0857  0.1317
   54CHL1   C23 3981   0.727   3.568   4.773 -0.1302  0.6817  0.3165
   54CHL1  H23A 3982   0.761   3.463   4.788 -2.1935 -0.0641  0.1785
   54CHL1  H23B 3983   0.820   3.620   4.742 -0.5581  0.8951 -0.6574
   54CHL1   C24 3984   0.677   3.636   4.894  0.2109  0.1370  0.1335
   54CHL1  H24A 3985   0.745   3.614   4.980  0.7556 -3.1523 -1.0088
   54CHL1  H24B 3986   0.670   3.742   4.861 -2.4557  1.2112  3.4580
   54CHL1   C25 3987   0.539   3.587   4.936 -0.0685  0.4458 -0.2080
   54CHL1   H25 3988   0.467   3.594   4.851 -2.1500 -0.7625  1.3704
   54CHL1   C26 3989   0.543   3.436   4.980  0.0569 -0.3287 -0.4236
   54CHL1  H26A 3990   0.435   3.412   4.982 -0.6153  2.4023  0.1285
   54CHL1  H26B 3991   0.612   3.369   4.925  2.5978  1.2402  0.6124
   54CHL1  H26C 3992   0.586   3.447   5.082 -0.0019  0.8553 -0.5045
   54CHL1   C27 3993   0.498   3.667   5.050  0.9161 -0.8567 -0.7147
   54CHL1  H27A 3994   0.482   3.771   5.013  0.5983 -0.4595  0.4660
   54CHL1  H27B 3995   0.399   3.624   5.074 -0.1109  1.8413  0.2376
   54CHL1  H27C 3996   0.567   3.670   5.138 -1.3337  1.4696  1.1302
   55CHL1    C3 3997   1.065   6.676   3.261  0.3509  0.0981 -0.4323
   55CHL1    H3 3998   1.053   6.772   3.315 -3.4965 -0.0673 -0.7459
   55CHL1    O3 3999   0.972   6.688   3.148  0.2480  0.0732  0.0634
   55CHL1   H3' 4000   0.890   6.712   3.192 -1.1825 -2.9789 -0.6818
   55CHL1    C4 4001   1.208   6.661   3.225 -0.0606  0.0379 -0.4512
   55CHL1   H4A 4002   1.216   6.577   3.153 -1.2942 -1.5357  1.1466
   55CHL1   H4B 4003   1.220   6.755   3.166 -2.5430  0.7801  0.1265
   55CHL1    C5 4004   1.305   6.639   3.336  0.4750 -0.2492  0.1886
   55CHL1    C6 4005   1.421   6.708   3.337 -0.0689 -0.3285 -0.9764
   55CHL1    H6 4006   1.439   6.780   3.255 -1.4580 -0.0741 -1.0700
   55CHL1    C7 4007   1.523   6.686   3.446  0.2879 -0.0246  0.4611
   55CHL1   H7A 4008   1.621   6.684   3.393  0.3963 -0.7619  0.6754
   55CHL1   H7B 4009   1.514   6.778   3.508  0.0354  2.2526 -2.7292
   55CHL1    C8 4010   1.493   6.569   3.545 -0.4693 -0.4578 -0.0295
   55CHL1    H8 4011   1.527   6.475   3.498  1.8189 -0.4370  1.4095
   55CHL1   C14 4012   1.571   6.587   3.676  0.4830 -0.2828 -0.3709
   55CHL1   H14 4013   1.522   6.676   3.722 -0.4819 -1.6457  1.3715
   55CHL1   C15 4014   1.720   6.622   3.664 -0.4791 -0.9636  0.0946
   55CHL1  H15A 4015   1.769   6.553   3.593 -1.6831 -1.5324 -0.2119
   55CHL1  H15B 4016   1.734   6.723   3.621  0.3643 -0.4827  1.4229
   55CHL1   C16 4017   1.773   6.593   3.808  0.1100 -0.7330  0.6847
   55CHL1  H16A 4018   1.849   6.514   3.792 -0.4458 -1.3704  1.1493
   55CHL1  H16B 4019   1.804   6.680   3.869  0.8193 -1.2221  1.0305
   55CHL1   C17 4020   1.648   6.537   3.888 -0.0921  0.2290 -0.0675
   55CHL1   H17 4021   1.587   6.621   3.929 -0.3560 -0.5088  1.0776
   55CHL1   C13 4022   1.559   6.481   3.772  0.1037  0.5466  0.2589
   55CHL1   C18 4023   1.627   6.355   3.709  0.0091 -0.4923  0.7497
   55CHL1  H18A 4024   1.576   6.324   3.615  2.9493 -1.7847 -0.5603
   55CHL1  H18B 4025   1.737   6.367   3.696 -0.1562 -0.6104 -1.0081
   55CHL1  H18C 4026   1.625   6.268   3.778 -1.2876 -0.3575  0.9114
   55CHL1   C12 4027   1.407   6.459   3.803 -0.7158  0.5558  0.1231
   55CHL1  H12A 4028   1.378   6.372   3.867  0.0305  0.3236  0.1498
   55CHL1  H12B 4029   1.384   6.550   3.862  1.4434 -0.5465  2.9279
   55CHL1   C11 4030   1.322   6.444   3.676 -0.5686 -0.1268  0.0215
   55CHL1  H11A 4031   1.369   6.359   3.622 -0.1153  1.2926 -1.9670
   55CHL1  H11B 4032   1.215   6.428   3.698 -0.2263 -1.8758  0.5684
   55CHL1    C9 4033   1.345   6.559   3.574  0.4616  0.6376 -0.2083
   55CHL1    H9 4034   1.312   6.650   3.629 -1.1870  0.1244 -0.2992
   55CHL1   C10 4035   1.264   6.539   3.442 -0.5191 -0.0452 -0.9582
   55CHL1   C19 4036   1.284   6.401   3.382  0.0041 -0.0692  0.0036
   55CHL1  H19A 4037   1.258   6.323   3.457  1.7560 -0.2662  0.4469
   55CHL1  H19B 4038   1.227   6.387   3.288  2.4301  0.7927 -1.7021
   55CHL1  H19C 4039   1.388   6.388   3.348  0.0663  1.4301 -0.4470
   55CHL1    C1 4040   1.117   6.545   3.476 -0.0843  0.2401 -0.0214
   55CHL1   H1A 4041   1.082   6.446   3.513  2.0249 -2.7842 -5.0828
   55CHL1   H1B 4042   1.097   6.628   3.547 -0.5425  0.9808 -1.0023
   55CHL1    C2 4043   1.025   6.567   3.358  0.1931 -0.9001  0.6164
   55CHL1   H2A 4044   0.925   6.600   3.394  0.0767  0.4810 -0.8893
   55CHL1   H2B 4045   1.002   6.473   3.304  0.8267 -1.2880  1.0064
   55CHL1   C20 4046   1.697   6.453   4.004 -0.3715  0.3993 -0.6297
   55CHL1   H20 4047   1.761   6.370   3.968 -0.3277  0.2323 -0.1676
   55CHL1   C21 4048   1.568   6.400   4.080  0.2625 -0.6468 -0.3697
   55CHL1  H21A 4049   1.514   6.333   4.010 -0.0271  0.2996 -1.0723
   55CHL1  H21B 4050   1.502   6.486   4.102  1.5718  0.1052  0.8033
   55CHL1  H21C 4051   1.595   6.355   4.178 -0.6377 -0.2628  0.0680
   55CHL1   C22 4052   1.792   6.538   4.103  0.2230 -0.2291  0.4552
   55CHL1  H22A 4053   1.875   6.578   4.041 -1.0056  1.2578 -0.3208
   55CHL1  H22B 4054   1.738   6.629   4.138  0.9406  0.0543  0.8321
   55CHL1   C23 4055   1.835   6.457   4.222 -0.1667 -0.0473  0.0961
   55CHL1  H23A 4056   1.740   6.431   4.273 -0.2776 -0.6020 -0.3898
   55CHL1  H23B 4057   1.888   6.364   4.192  1.4711  0.7275  0.4856
   55CHL1   C24 4058   1.929   6.527   4.319 -0.2810  0.5174 -0.9239
   55CHL1  H24A 4059   2.018   6.560   4.261 -0.4675  2.7058 -0.0836
   55CHL1  H24B 4060   1.880   6.620   4.357 -0.0189 -0.1652  1.2275
   55CHL1   C25 4061   1.973   6.441   4.442 -0.1360 -0.6536  0.2931
   55CHL1   H25 4062   2.023   6.353   4.397  2.3285  0.8537 -0.0793
   55CHL1   C26 4063   2.080   6.512   4.530  0.9145  0.6553  0.5989
   55CHL1  H26A 4064   2.128   6.437   4.597  0.1598 -2.8636 -2.4607
   55CHL1  H26B 4065   2.160   6.564   4.474  1.8250 -1.3507 -0.0772
   55CHL1  H26C 4066   2.027   6.582   4.598 -0.1135  0.6402 -0.1659
   55CHL1   C27 4067   1.858   6.381   4.524 -0.2671  0.5207 -0.0300
   55CHL1  H27A 4068   1.903   6.310   4.597 -1.4105  0.4906  0.6771
   55CHL1  H27B 4069   1.792   6.452   4.578  0.9928  1.2038  0.6623
   55CHL1  H27C 4070   1.794   6.321   4.456  1.3218 -0.7626 -0.4444
   56CHL1    C3 4071   0.986   6.155   3.207 -0.3677  0.5604 -0.0959
   56CHL1    H3 4072   1.016   6.261   3.222 -0.7579  0.5038  1.2726
   56CHL1    O3 4073   0.912   6.162   3.086 -0.1700 -0.4060  0.3257
   56CHL1   H3' 4074   0.937   6.081   3.041 -2.3148 -1.3796  0.7793
   56CHL1    C4 4075   1.110   6.065   3.195  0.3497 -0.1790  0.1105
   56CHL1   H4A 4076   1.062   5.967   3.171  0.2944 -0.4997  1.4410
   56CHL1   H4B 4077   1.176   6.103   3.114  0.0659  1.2628  0.5438
   56CHL1    C5 4078   1.184   6.052   3.325  0.5698  0.9705 -0.2873
   56CHL1    C6 4079   1.314   6.075   3.334  0.9545  0.4207 -0.7932
   56CHL1    H6 4080   1.373   6.102   3.245 -0.9417 -0.2970 -2.3511
   56CHL1    C7 4081   1.397   6.058   3.461  0.7412 -0.4500 -0.2188
   56CHL1   H7A 4082   1.488   5.996   3.445  2.0876  2.1149 -3.4169
   56CHL1   H7B 4083   1.424   6.159   3.498  0.5332 -0.4278 -0.1220
   56CHL1    C8 4084   1.329   5.986   3.581  0.8381 -0.3846 -0.0283
   56CHL1    H8 4085   1.312   5.878   3.562  0.0138 -0.5304  1.3919
   56CHL1   C14 4086   1.393   6.012   3.706 -0.2295 -0.8300 -0.0705
   56CHL1   H14 4087   1.392   6.122   3.722 -0.2264 -1.2015  3.4552
   56CHL1   C15 4088   1.538   5.977   3.712 -0.3304  0.2710 -0.4414
   56CHL1  H15A 4089   1.565   5.881   3.664  0.2285 -0.3241  1.0111
   56CHL1  H15B 4090   1.607   6.042   3.655 -0.6709 -0.2858 -1.5088
   56CHL1   C16 4091   1.570   5.978   3.863  0.4158 -0.2729  0.1390
   56CHL1  H16A 4092   1.608   5.883   3.907  1.2781  0.7550  1.6892
   56CHL1  H16B 4093   1.634   6.065   3.887  0.3319 -0.6155  1.7021
   56CHL1   C17 4094   1.432   6.006   3.931  0.4079 -0.5648  0.8818
   56CHL1   H17 4095   1.422   6.117   3.932 -1.0955 -0.6495  3.2532
   56CHL1   C13 4096   1.328   5.958   3.825  0.1414  0.2266 -0.2319
   56CHL1   C18 4097   1.327   5.808   3.827  0.0344 -0.0786 -0.3644
   56CHL1  H18A 4098   1.419   5.754   3.794 -0.9403 -1.6813 -0.5659
   56CHL1  H18B 4099   1.292   5.765   3.924  1.5699 -2.0236 -0.6032
   56CHL1  H18C 4100   1.267   5.764   3.744  1.5217 -1.4964 -0.7537
   56CHL1   C12 4101   1.183   6.019   3.837  0.2036 -0.8717  0.6370
   56CHL1  H12A 4102   1.129   5.975   3.923 -2.0883 -0.2424 -0.4095
   56CHL1  H12B 4103   1.197   6.129   3.843 -2.4649 -0.4744  0.5493
   56CHL1   C11 4104   1.099   5.998   3.708  0.2198  0.3751  0.6730
   56CHL1  H11A 4105   1.093   5.888   3.694  0.0543  0.3650  0.8179
   56CHL1  H11B 4106   0.996   6.036   3.726 -0.5508 -1.2722 -0.0857
   56CHL1    C9 4107   1.182   6.042   3.587  0.6455  0.8781 -0.2402
   56CHL1    H9 4108   1.199   6.150   3.606  2.3766  0.5264  0.3811
   56CHL1   C10 4109   1.099   6.021   3.455 -0.7102  0.5236  0.5097
   56CHL1   C19 4110   1.040   5.877   3.438  0.1675 -0.7703  0.0730
   56CHL1  H19A 4111   1.128   5.812   3.458  1.4509  0.6786 -0.6929
   56CHL1  H19B 4112   0.952   5.849   3.500 -1.2708  0.8721 -1.1081
   56CHL1  H19C 4113   0.997   5.858   3.338 -1.6233 -0.4569  0.7435
   56CHL1    C1 4114   0.975   6.112   3.459  0.0241 -0.1280 -0.1153
   56CHL1   H1A 4115   0.908   6.067   3.536 -0.7324  0.8145 -0.2061
   56CHL1   H1B 4116   1.017   6.212   3.481 -0.7613 -0.0099  0.9017
   56CHL1    C2 4117   0.896   6.127   3.327 -0.4503 -0.0939  0.7442
   56CHL1   H2A 4118   0.818   6.204   3.345  0.6932  1.5280 -0.8091
   56CHL1   H2B 4119   0.847   6.030   3.305  0.0877  0.0591 -1.3489
   56CHL1   C20 4120   1.433   5.950   4.068  0.4774 -0.4722  0.3068
   56CHL1   H20 4121   1.442   5.840   4.066 -3.4635 -0.9358 -0.9416
   56CHL1   C21 4122   1.296   5.973   4.135  0.1850  0.0275  0.1876
   56CHL1  H21A 4123   1.261   6.077   4.116  0.4048  0.0322 -0.1924
   56CHL1  H21B 4124   1.294   5.960   4.245  0.2291 -0.2043  0.1618
   56CHL1  H21C 4125   1.215   5.909   4.093 -1.5652  1.4674  1.2305
   56CHL1   C22 4126   1.543   6.000   4.168  0.2723 -0.1133  0.0793
   56CHL1  H22A 4127   1.645   5.986   4.126 -1.1188 -2.5888 -2.8353
   56CHL1  H22B 4128   1.515   6.107   4.182  0.7490  0.1833 -1.1038
   56CHL1   C23 4129   1.534   5.938   4.306 -0.7674  0.1109  0.4781
   56CHL1  H23A 4130   1.465   5.994   4.372  0.9404  1.6609  1.0222
   56CHL1  H23B 4131   1.501   5.832   4.308  0.1367 -0.1753  1.3057
   56CHL1   C24 4132   1.672   5.950   4.379 -0.1798 -0.1649  0.6630
   56CHL1  H24A 4133   1.743   5.923   4.298  0.7728 -0.3754  1.5533
   56CHL1  H24B 4134   1.685   6.056   4.406 -2.1759  0.6510 -1.2496
   56CHL1   C25 4135   1.691   5.860   4.505  0.0726  0.2327  0.2640
   56CHL1   H25 4136   1.659   5.756   4.481 -1.5856  0.9551 -0.8128
   56CHL1   C26 4137   1.834   5.849   4.558 -0.5553  0.1220 -0.4088
   56CHL1  H26A 4138   1.916   5.815   4.491  1.5508  0.8490  1.6863
   56CHL1  H26B 4139   1.860   5.948   4.600 -0.4268  0.4237 -1.1777
   56CHL1  H26C 4140   1.821   5.781   4.644 -0.7509 -1.3342 -1.5411
   56CHL1   C27 4141   1.585   5.896   4.621  0.3423  0.3449  1.1043
   56CHL1  H27A 4142   1.581   5.818   4.700  0.7664  1.0770  1.8624
   56CHL1  H27B 4143   1.614   5.996   4.660  2.8686  1.2519 -2.6586
   56CHL1  H27C 4144   1.485   5.913   4.575  0.0694 -2.1173  0.6840
   57SAPC     N 4145   4.398   3.216   7.297 -0.3865 -0.7202 -0.0772
   57SAPC   C12 4146   4.364   3.234   7.154 -0.0427 -0.1751 -0.6840
   57SAPC  H12A 4147   4.444   3.190   7.097  0.9082  0.6611 -0.0140
   57SAPC  H12B 4148   4.350   3.339   7.131  1.3199  0.5871  1.7119
   57SAPC   C13 4149   4.394   3.074   7.339 -0.0211  0.3663 -0.7888
   57SAPC  H13A 4150   4.417   3.069   7.445 -0.1789  0.3736 -0.7539
   57SAPC  H13B 4151   4.297   3.032   7.317  0.4472 -0.7241 -0.8582
   57SAPC  H13C 4152   4.458   3.010   7.279 -1.8647 -1.0904 -1.3025
   57SAPC   C14 4153   4.535   3.268   7.320  0.0045 -0.1267  0.4686
   57SAPC  H14A 4154   4.542   3.363   7.268 -0.9458 -1.2639 -1.8785
   57SAPC  H14B 4155   4.558   3.286   7.424  3.4755  2.5184 -0.5581
   57SAPC  H14C 4156   4.613   3.208   7.277 -1.4731 -1.5846 -0.2893
   57SAPC   C15 4157   4.302   3.292   7.372 -0.2610 -0.3859 -0.0022
   57SAPC  H15A 4158   4.318   3.287   7.479 -0.2371  0.4873  0.0415
   57SAPC  H15B 4159   4.298   3.399   7.359 -1.8009 -0.4753 -0.5145
   57SAPC  H15C 4160   4.199   3.265   7.354 -0.9096  1.9245 -0.1003
   57SAPC   C11 4161   4.236   3.167   7.098 -0.3100  0.0827 -0.5399
   57SAPC  H11A 4162   4.258   3.058   7.101 -0.1338  0.1275 -0.1328
   57SAPC  H11B 4163   4.227   3.189   6.989  3.8438  0.2174 -1.0275
   57SAPC     P 4164   4.026   3.312   7.140  0.4103  0.4348 -0.1391
   57SAPC   O13 4165   3.933   3.330   7.250 -0.4921  0.0039 -0.3823
   57SAPC   O14 4166   4.113   3.427   7.103 -0.2987  0.1975  0.4962
   57SAPC   O12 4167   4.113   3.184   7.159 -0.5457 -0.3296 -0.5372
   57SAPC   O11 4168   3.945   3.287   7.007  0.6717  0.0338  0.0187
   57SAPC    C1 4169   3.831   3.205   7.000 -0.5093 -0.2171  0.0160
   57SAPC    HA 4170   3.829   3.123   7.075  2.6338 -1.1420 -0.7313
   57SAPC    HB 4171   3.743   3.269   7.020  0.8464  1.4706  0.8345
   57SAPC    C2 4172   3.814   3.148   6.858 -0.1743 -1.1166  0.7001
   57SAPC    HS 4173   3.727   3.080   6.867 -0.5749 -0.7104  0.0094
   57SAPC   O21 4174   3.928   3.079   6.808 -0.5451  0.1406  0.4751
   57SAPC   C21 4175   3.960   2.967   6.852  0.6012  0.4458 -0.8447
   57SAPC   O22 4176   3.888   2.899   6.922  0.6329  0.4258  0.2385
   57SAPC   C22 4177   4.103   2.928   6.812 -0.1872  0.8350 -0.3056
   57SAPC   H2R 4178   4.174   2.946   6.895  2.1842  0.9707 -2.2613
   57SAPC   H2S 4179   4.104   2.819   6.788 -1.6753  1.1643 -2.0910
   57SAPC    C3 4180   3.776   3.269   6.757  0.0599 -0.2826 -0.2565
   57SAPC    HX 4181   3.856   3.346   6.765  0.5326 -0.6702 -1.2338
   57SAPC    HY 4182   3.680   3.315   6.790 -0.6900 -1.4470 -0.7698
   57SAPC   O31 4183   3.783   3.228   6.621  0.2324  0.2742 -0.4283
   57SAPC   C31 4184   3.686   3.174   6.556  0.1047 -0.2145 -0.4490
   57SAPC   O32 4185   3.572   3.168   6.594  0.1250  0.0626  0.6263
   57SAPC   C32 4186   3.724   3.134   6.410  0.3049  0.3438 -0.7036
   57SAPC   H2X 4187   3.770   3.033   6.412  0.7717  0.5299 -1.8030
   57SAPC   H2Y 4188   3.784   3.223   6.383 -0.7530  0.9313 -1.1690
   57SAPC   C23 4189   4.158   3.003   6.682  0.2025 -0.1572 -0.0405
   57SAPC   H3R 4190   4.267   2.986   6.668  0.8884 -0.8996  4.6564
   57SAPC   H3S 4191   4.145   3.110   6.708 -1.9826 -0.2904 -0.3827
   57SAPC   C24 4192   4.074   2.968   6.560  0.2406 -0.6203  0.6662
   57SAPC   H4R 4193   4.082   3.055   6.492  1.0433 -0.0403  1.4727
   57SAPC   H4S 4194   3.967   2.979   6.584 -0.7675  2.4729 -3.9249
   57SAPC   C25 4195   4.105   2.835   6.498 -0.1614 -0.2003  0.5470
   57SAPC   H5R 4196   4.104   2.742   6.557 -0.3002 -0.3824  0.2643
   57SAPC   C26 4197   4.119   2.812   6.361  0.9448  0.2772 -0.8732
   57SAPC   H6R 4198   4.140   2.709   6.330 -0.4608 -0.6247  0.9927
   57SAPC   C27 4199   4.110   2.913   6.247  0.2876  0.1393  0.4550
   57SAPC   H7R 4200   4.205   2.906   6.189 -0.0337  0.5353 -0.1315
   57SAPC   H7S 4201   4.097   3.018   6.281 -4.0960  0.2813 -1.0207
   57SAPC   C28 4202   3.987   2.882   6.155 -0.9104 -0.2423 -0.4283
   57SAPC   H8R 4203   3.897   2.913   6.209  0.0039  2.9428 -0.5035
   57SAPC   C29 4204   3.981   2.807   6.045  0.3204  0.2957 -0.1615
   57SAPC   H9R 4205   3.890   2.812   5.984  0.4482  0.1013 -0.3677
   57SAPC  C210 4206   4.100   2.743   5.982 -0.0898 -0.3482  0.6517
   57SAPC  H10R 4207   4.063   2.650   5.933  2.3940 -0.5513 -1.0386
   57SAPC  H10S 4208   4.173   2.698   6.052 -0.4702 -2.2708 -0.1207
   57SAPC  C211 4209   4.169   2.835   5.883  0.2197 -0.5813 -0.5685
   57SAPC  H11R 4210   4.189   2.940   5.910  0.7908 -0.2899 -1.9998
   57SAPC  C212 4211   4.194   2.813   5.752  0.4992  0.0215  0.3086
   57SAPC  H12R 4212   4.239   2.892   5.691 -0.7991 -0.2361 -1.0153
   57SAPC  C213 4213   4.157   2.687   5.681 -0.1076 -0.5003  0.0751
   57SAPC  H13R 4214   4.075   2.711   5.610  0.2827 -0.3735 -0.3362
   57SAPC  H13S 4215   4.122   2.609   5.752 -1.2853  0.0563  0.1413
   57SAPC  C214 4216   4.274   2.626   5.610 -0.5365  0.3522 -0.3271
   57SAPC  H14R 4217   4.375   2.653   5.643 -1.2707  0.3469  2.0672
   57SAPC  C215 4218   4.274   2.523   5.525  0.0836  0.5960  0.7553
   57SAPC  H15R 4219   4.371   2.482   5.495 -0.4933  1.0302 -1.9811
   57SAPC  C216 4220   4.155   2.449   5.474 -0.1232 -0.0414 -0.5597
   57SAPC  H16R 4221   4.061   2.509   5.477 -0.5940 -0.7684 -0.4824
   57SAPC  H16S 4222   4.141   2.375   5.555  0.0064 -0.2419 -0.7200
   57SAPC  C217 4223   4.165   2.398   5.333 -0.7954  0.0786  0.4062
   57SAPC  H17R 4224   4.172   2.484   5.262 -1.1408  0.9002  1.3472
   57SAPC  H17S 4225   4.070   2.346   5.309  1.1419 -2.4953 -2.4805
   57SAPC  C218 4226   4.268   2.285   5.312 -0.0256  0.3265 -0.5829
   57SAPC  H18R 4227   4.289   2.232   5.408  1.2895  0.0589 -1.0006
   57SAPC  H18S 4228   4.367   2.327   5.287  0.5897 -0.5496  0.3121
   57SAPC  C219 4229   4.235   2.183   5.205 -0.5793  0.7598  0.2052
   57SAPC  H19R 4230   4.231   2.240   5.110 -1.4138  0.3035 -0.0393
   57SAPC  H19S 4231   4.138   2.131   5.221 -0.6341  0.1232 -1.9495
   57SAPC  C220 4232   4.345   2.076   5.214  0.0838  0.1256  0.9830
   57SAPC  H20R 4233   4.327   2.017   5.306 -1.4616 -1.5613 -0.3125
   57SAPC  H20S 4234   4.445   2.124   5.223  0.6324 -0.9368  0.7219
   57SAPC  H20T 4235   4.339   2.021   5.117 -2.9768 -0.1584  1.2252
   57SAPC   C33 4236   3.613   3.113   6.306  0.5475  0.2738  1.0688
   57SAPC   H3X 4237   3.546   3.200   6.323  1.2564  1.1992 -0.6496
   57SAPC   H3Y 4238   3.559   3.018   6.324  1.5687 -0.9200 -1.6485
   57SAPC   C34 4239   3.656   3.111   6.160  0.1608  0.4347  0.0685
   57SAPC   H4X 4240   3.743   3.042   6.160 -0.6630 -0.6419  0.5598
   57SAPC   H4Y 4241   3.702   3.209   6.136 -1.5341  1.1897 -0.2533
   57SAPC   C35 4242   3.548   3.091   6.059 -0.2247 -0.7341  0.4712
   57SAPC   H5X 4243   3.473   3.166   6.096  0.2224 -0.8110  1.5646
   57SAPC   H5Y 4244   3.504   2.990   6.052 -1.1692 -0.3272  0.3048
   57SAPC   C36 4245   3.585   3.123   5.912  0.8687 -0.0267  0.1481
   57SAPC   H6X 4246   3.639   3.220   5.914  0.9371 -0.0445 -0.6958
   57SAPC   H6Y 4247   3.491   3.116   5.854  0.3890 -0.6547  0.9822
   57SAPC   C37 4248   3.682   3.010   5.862  0.4915 -0.8913  0.1527
   57SAPC   H7X 4249   3.631   2.912   5.878 -0.0150 -0.7527 -0.6054
   57SAPC   H7Y 4250   3.771   3.010   5.929  1.3725  1.3943 -0.9266
   57SAPC   C38 4251   3.726   3.025   5.719 -0.4569 -0.6159  0.6968
   57SAPC   H8X 4252   3.761   3.131   5.718 -0.4191 -0.6030 -1.1345
   57SAPC   H8Y 4253   3.642   3.029   5.646  0.8351  0.0728 -0.8269
   57SAPC   C39 4254   3.834   2.937   5.676  0.5864 -0.0246 -0.7605
   57SAPC   H9X 4255   3.807   2.829   5.673 -1.9001  0.5334 -0.8354
   57SAPC   H9Y 4256   3.918   2.945   5.748  0.3802  1.3930 -0.6474
   57SAPC  C310 4257   3.897   2.976   5.543 -0.2560 -0.8661 -0.5336
   57SAPC  H10X 4258   3.998   2.929   5.537 -0.8118 -2.1322 -0.2588
   57SAPC  H10Y 4259   3.911   3.085   5.560 -1.2713 -0.8139  0.0385
   57SAPC  C311 4260   3.821   2.953   5.414  0.5765  0.1707  0.0090
   57SAPC  H11X 4261   3.871   3.025   5.346 -1.6890  0.9554 -0.9040
   57SAPC  H11Y 4262   3.715   2.986   5.416  0.1227 -1.2487  0.4598
   57SAPC  C312 4263   3.831   2.814   5.357 -0.2460  0.5140  0.3546
   57SAPC  H12X 4264   3.767   2.755   5.426 -0.9865  0.0807 -0.6718
   57SAPC  H12Y 4265   3.931   2.770   5.374  0.7148  2.5168  0.1134
   57SAPC  C313 4266   3.773   2.801   5.215  0.3364  0.5617 -0.1675
   57SAPC  H13X 4267   3.700   2.883   5.204 -0.2063 -0.0813 -1.6904
   57SAPC  H13Y 4268   3.736   2.698   5.195  4.5209 -1.1104 -0.5523
   57SAPC  C314 4269   3.880   2.808   5.105  0.0620 -0.3715  0.1607
   57SAPC  H14X 4270   3.950   2.722   5.116  2.5651  1.1356 -2.5275
   57SAPC  H14Y 4271   3.930   2.906   5.117  1.0650 -0.7670 -0.5767
   57SAPC  C315 4272   3.835   2.795   4.959  0.9747 -0.1600  0.3196
   57SAPC  H15X 4273   3.749   2.865   4.948 -0.1504 -1.4654  0.4966
   57SAPC  H15Y 4274   3.793   2.694   4.942  0.6743 -0.2134  1.2903
   57SAPC  C316 4275   3.941   2.828   4.848  0.1068 -0.1199  0.9240
   57SAPC  H16X 4276   3.992   2.924   4.872  2.0267 -0.9687  0.4054
   57SAPC  H16Y 4277   3.897   2.842   4.747 -1.3589 -0.8363  1.4264
   57SAPC  C317 4278   4.069   2.735   4.849 -0.5128  0.4144  0.1749
   57SAPC  H17X 4279   4.036   2.632   4.826  0.8275 -0.0297  0.1692
   57SAPC  H17Y 4280   4.113   2.742   4.951 -3.4955  1.0616  1.5244
   57SAPC  C318 4281   4.166   2.773   4.727  0.7949 -0.5896 -0.3268
   57SAPC  H18X 4282   4.131   2.721   4.635 -1.8154 -1.4026  1.0320
   57SAPC  H18Y 4283   4.267   2.733   4.751  0.9502  0.3599  0.6509
   57SAPC  H18Z 4284   4.166   2.881   4.700  0.6536 -0.7733 -1.0733
   58SAPC     N 4285   5.978   0.722   7.093  0.3120 -0.4512 -0.3936
   58SAPC   C12 4286   5.974   0.873   7.094 -1.0898 -0.7136  0.0688
   58SAPC  H12A 4287   6.070   0.907   7.057 -2.7119  3.4882 -0.8074
   58SAPC  H12B 4288   5.981   0.914   7.194  1.7922 -0.5245 -0.1215
   58SAPC   C13 4289   5.986   0.687   6.944 -0.2497  0.4491  0.3305
   58SAPC  H13A 4290   5.905   0.722   6.883  1.2597 -0.0617 -2.1021
   58SAPC  H13B 4291   6.074   0.732   6.901  0.7104 -0.1814  1.5629
   58SAPC  H13C 4292   6.006   0.581   6.929 -0.8461  0.6041 -1.8636
   58SAPC   C14 4293   6.102   0.676   7.161  0.6738 -0.2441 -0.1329
   58SAPC  H14A 4294   6.188   0.737   7.138  0.3200 -0.4740 -2.3753
   58SAPC  H14B 4295   6.083   0.678   7.267 -1.3181  1.9697 -0.4362
   58SAPC  H14C 4296   6.133   0.574   7.144  0.0834 -0.6396  1.0926
   58SAPC   C15 4297   5.853   0.662   7.151 -0.1819 -0.0292  0.0064
   58SAPC  H15A 4298   5.842   0.559   7.118 -0.6224 -0.2028  0.6824
   58SAPC  H15B 4299   5.842   0.661   7.258 -3.0816 -1.0760 -0.2054
   58SAPC  H15C 4300   5.770   0.722   7.116  0.2271  0.4545 -0.1497
   58SAPC   C11 4301   5.855   0.946   7.021  0.5063  0.3891  0.2138
   58SAPC  H11A 4302   5.875   0.957   6.913  0.2982 -1.4259 -0.0312
   58SAPC  H11B 4303   5.866   1.054   7.045  1.2848  0.2538  0.4900
   58SAPC     P 4304   5.594   0.946   7.005 -0.5442  0.3650  0.0828
   58SAPC   O13 4305   5.494   0.838   7.022  0.2522  0.7245 -0.1803
   58SAPC   O14 4306   5.574   1.081   7.066 -0.4115 -0.2094  0.1440
   58SAPC   O12 4307   5.728   0.893   7.061  0.6278 -0.0712 -0.3578
   58SAPC   O11 4308   5.619   0.974   6.853 -0.3726  0.0410 -0.3683
   58SAPC    C1 4309   5.616   0.866   6.758 -0.0673  0.4919 -0.3611
   58SAPC    HA 4310   5.685   0.873   6.672  1.5041 -0.7128  0.7480
   58SAPC    HB 4311   5.637   0.770   6.811 -0.8221  0.9152  0.7404
   58SAPC    C2 4312   5.481   0.856   6.678  0.0429  0.4888  0.2314
   58SAPC    HS 4313   5.496   0.784   6.595 -1.0972  1.1114 -0.5443
   58SAPC   O21 4314   5.430   0.989   6.647 -0.2118  0.0991 -0.1862
   58SAPC   C21 4315   5.493   1.038   6.542 -0.1110  0.6114 -0.6628
   58SAPC   O22 4316   5.578   0.986   6.471  0.3214  0.0062 -0.0186
   58SAPC   C22 4317   5.446   1.177   6.512  0.5072 -0.7075  0.5908
   58SAPC   H2R 4318   5.349   1.176   6.458  0.4823 -0.9884  0.6432
   58SAPC   H2S 4319   5.430   1.223   6.612 -2.0626  0.6052 -0.3318
   58SAPC    C3 4320   5.376   0.770   6.751 -0.7781  0.1656 -0.4714
   58SAPC    HX 4321   5.354   0.817   6.850  1.6607 -2.3647  1.4239
   58SAPC    HY 4322   5.427   0.674   6.775  0.9526  1.0209 -0.5805
   58SAPC   O31 4323   5.261   0.762   6.668  0.4056 -0.1562 -0.3122
   58SAPC   C31 4324   5.182   0.647   6.681 -0.1559 -0.2975 -0.3441
   58SAPC   O32 4325   5.224   0.550   6.744 -0.0015  0.0547  0.7038
   58SAPC   C32 4326   5.060   0.663   6.598  0.0953 -0.6324 -0.0239
   58SAPC   H2X 4327   5.076   0.741   6.520  1.0550 -2.0989 -1.3652
   58SAPC   H2Y 4328   4.980   0.718   6.651  1.2239  1.6033 -0.5140
   58SAPC   C23 4329   5.556   1.270   6.450 -0.6513 -0.2273 -0.2543
   58SAPC   H3R 4330   5.648   1.238   6.504 -2.2014 -0.5014  2.4152
   58SAPC   H3S 4331   5.531   1.371   6.491  1.4959 -0.0072  0.6280
   58SAPC   C24 4332   5.572   1.291   6.300  0.3194  0.2696  0.4107
   58SAPC   H4R 4333   5.655   1.364   6.288 -0.4978  1.5550  2.1130
   58SAPC   H4S 4334   5.481   1.345   6.266 -1.6340 -3.5868 -1.1587
   58SAPC   C25 4335   5.577   1.164   6.212  0.3857 -0.5736  0.1160
   58SAPC   H5R 4336   5.660   1.103   6.253  0.6578 -0.0529  0.3439
   58SAPC   C26 4337   5.499   1.131   6.107 -0.3658 -0.7198 -0.4916
   58SAPC   H6R 4338   5.513   1.036   6.053 -1.5098 -0.3242 -1.5267
   58SAPC   C27 4339   5.382   1.220   6.056 -0.2869 -0.3058  0.3171
   58SAPC   H7R 4340   5.329   1.254   6.147 -2.3968  0.9111 -1.2637
   58SAPC   H7S 4341   5.304   1.170   5.994  0.4693 -0.1793 -0.7609
   58SAPC   C28 4342   5.442   1.338   5.984 -0.3372  0.2059  0.1239
   58SAPC   H8R 4343   5.486   1.411   6.054  0.4260 -0.3355  0.2204
   58SAPC   C29 4344   5.458   1.355   5.850  0.0437 -0.9292  0.0220
   58SAPC   H9R 4345   5.505   1.448   5.815 -0.2284 -0.0569  1.8965
   58SAPC  C210 4346   5.412   1.253   5.747  0.5187 -0.1122  0.3549
   58SAPC  H10R 4347   5.313   1.278   5.705  1.0511  0.2621 -0.7282
   58SAPC  H10S 4348   5.399   1.150   5.786 -2.3099 -0.0810 -0.3272
   58SAPC  C211 4349   5.518   1.236   5.641  0.0600 -0.2327  0.1855
   58SAPC  H11R 4350   5.617   1.277   5.666 -0.2381  1.0623 -0.6584
   58SAPC  C212 4351   5.499   1.181   5.515  0.7583 -0.2675  0.4086
   58SAPC  H12R 4352   5.584   1.180   5.445  0.9547 -0.8816  0.6452
   58SAPC  C213 4353   5.365   1.151   5.462 -0.1922  0.7819 -0.5442
   58SAPC  H13R 4354   5.284   1.205   5.516 -1.1001  1.1660 -2.2039
   58SAPC  H13S 4355   5.359   1.040   5.475  0.9739  0.9907  2.3566
   58SAPC  C214 4356   5.343   1.196   5.316 -0.6982 -0.5745  0.5253
   58SAPC  H14R 4357   5.343   1.303   5.291  1.1077 -0.8351 -0.7183
   58SAPC  C215 4358   5.294   1.113   5.223 -0.0965  0.2281  0.1357
   58SAPC  H15R 4359   5.284   1.152   5.121 -1.1967 -2.1589 -0.7305
   58SAPC  C216 4360   5.270   0.960   5.241  0.3464 -0.0001  0.6447
   58SAPC  H16R 4361   5.228   0.931   5.340  1.8690 -0.9946  1.0346
   58SAPC  H16S 4362   5.370   0.912   5.231  0.8756  1.3740 -0.9443
   58SAPC  C217 4363   5.172   0.897   5.143  0.2044 -0.2528  0.1391
   58SAPC  H17R 4364   5.085   0.966   5.135  1.7977  2.1599  2.0728
   58SAPC  H17S 4365   5.144   0.795   5.176  0.8726  0.3105  2.6934
   58SAPC  C218 4366   5.236   0.882   5.004  0.4828 -0.7102 -0.1719
   58SAPC  H18R 4367   5.324   0.815   5.011 -0.5932 -2.1350  0.1222
   58SAPC  H18S 4368   5.264   0.976   4.952 -0.7751  0.0995  0.5897
   58SAPC  C219 4369   5.141   0.808   4.905  0.2695  0.4654  0.3471
   58SAPC  H19R 4370   5.077   0.742   4.967 -0.1412  2.6263  2.3538
   58SAPC  H19S 4371   5.202   0.756   4.828 -0.1264  1.6848 -0.8381
   58SAPC  C220 4372   5.057   0.901   4.821 -0.0040 -0.6257 -0.0289
   58SAPC  H20R 4373   4.983   0.950   4.888  0.8589  1.2925 -0.4020
   58SAPC  H20S 4374   5.001   0.844   4.745 -1.9212  1.3159 -0.1688
   58SAPC  H20T 4375   5.108   0.992   4.782  2.2135 -1.3835  0.8838
   58SAPC   C33 4376   5.018   0.528   6.532  0.4760 -0.2958 -0.5268
   58SAPC   H3X 4377   4.967   0.467   6.610 -0.3491  1.2495  0.2081
   58SAPC   H3Y 4378   5.103   0.479   6.481  0.4992 -0.9140  0.0833
   58SAPC   C34 4379   4.911   0.557   6.437  0.1368 -0.0580  0.8932
   58SAPC   H4X 4380   4.917   0.650   6.376  0.6967 -0.5370  0.2001
   58SAPC   H4Y 4381   4.815   0.570   6.492 -0.1852  1.2473  0.0881
   58SAPC   C35 4382   4.885   0.443   6.338 -0.5140 -0.3623 -0.6957
   58SAPC   H5X 4383   4.849   0.354   6.394 -1.8374  0.2943 -0.4592
   58SAPC   H5Y 4384   4.978   0.419   6.283 -0.5649 -0.9474 -0.5326
   58SAPC   C36 4385   4.769   0.470   6.239 -0.0087 -0.0168 -0.1268
   58SAPC   H6X 4386   4.796   0.554   6.171 -1.1204  1.2681  0.9791
   58SAPC   H6Y 4387   4.681   0.506   6.295  0.1700  0.7617 -0.3409
   58SAPC   C37 4388   4.715   0.344   6.166 -0.2234  0.2838  0.2141
   58SAPC   H7X 4389   4.646   0.384   6.088  2.1451  1.0419 -1.6147
   58SAPC   H7Y 4390   4.659   0.281   6.238  0.7805 -0.0187  0.7535
   58SAPC   C38 4391   4.827   0.262   6.088  0.7770  0.3779 -0.0933
   58SAPC   H8X 4392   4.898   0.209   6.155  0.9448 -0.1090 -0.6502
   58SAPC   H8Y 4393   4.882   0.327   6.017  0.1052  1.5253  0.3968
   58SAPC   C39 4394   4.758   0.148   6.012 -0.3758  0.2161 -0.5284
   58SAPC   H9X 4395   4.667   0.184   5.959  0.3906 -0.0809 -2.0882
   58SAPC   H9Y 4396   4.717   0.085   6.093  0.4455 -0.2815 -0.4915
   58SAPC  C310 4397   4.847   0.062   5.924 -0.4579  0.4342 -0.0493
   58SAPC  H10X 4398   4.929   0.013   5.980 -0.7029  1.6366  1.4187
   58SAPC  H10Y 4399   4.895   0.137   5.857 -0.0828  1.6603  1.5401
   58SAPC  C311 4400   4.769  -0.035   5.834 -0.2083  0.3934 -0.2799
   58SAPC  H11X 4401   4.695   0.018   5.771 -0.1988 -0.5557 -1.1108
   58SAPC  H11Y 4402   4.719  -0.101   5.908 -0.2376 -1.6734 -2.0173
   58SAPC  C312 4403   4.865  -0.123   5.754 -1.7006  0.8063  0.2196
   58SAPC  H12X 4404   4.893  -0.210   5.818 -0.7903  0.2304 -0.9057
   58SAPC  H12Y 4405   4.960  -0.071   5.728 -1.0701 -0.6602 -0.5899
   58SAPC  C313 4406   4.801  -0.197   5.641 -0.1320  0.3574  0.2175
   58SAPC  H13X 4407   4.784  -0.121   5.562 -0.3496 -0.6048 -0.6799
   58SAPC  H13Y 4408   4.708  -0.237   5.685  1.1621 -2.2556  0.7890
   58SAPC  C314 4409   4.883  -0.321   5.592  0.3916  0.1804 -0.5098
   58SAPC  H14X 4410   4.886  -0.390   5.679  0.1148  0.3362 -0.3769
   58SAPC  H14Y 4411   4.985  -0.284   5.568  0.5952 -0.0246  0.0327
   58SAPC  C315 4412   4.822  -0.383   5.463  0.0165  0.0881 -0.5207
   58SAPC  H15X 4413   4.818  -0.300   5.389 -1.3580 -0.9179 -1.6368
   58SAPC  H15Y 4414   4.716  -0.411   5.482  0.5878 -0.7186  1.7541
   58SAPC  C316 4415   4.903  -0.499   5.403 -0.1290 -0.2787 -0.7790
   58SAPC  H16X 4416   4.934  -0.565   5.487  1.0182 -1.2983 -1.9503
   58SAPC  H16Y 4417   4.998  -0.466   5.355  0.7709  0.8393  1.5824
   58SAPC  C317 4418   4.828  -0.594   5.318  0.4049 -0.3077  0.2090
   58SAPC  H17X 4419   4.763  -0.667   5.370 -1.4413  1.2053  0.1608
   58SAPC  H17Y 4420   4.899  -0.657   5.260  1.0595  1.4436 -0.9782
   58SAPC  C318 4421   4.729  -0.520   5.228  0.3085 -0.1430  0.0658
   58SAPC  H18X 4422   4.651  -0.471   5.289  0.7644 -1.4350  1.7392
   58SAPC  H18Y 4423   4.694  -0.590   5.148 -0.9466  0.6182 -0.0861
   58SAPC  H18Z 4424   4.776  -0.438   5.170 -1.1724 -0.7036 -2.0524
   59SAPC     N 4425   3.530   2.914   7.406  0.4689 -0.5484 -0.4199
   59SAPC   C12 4426   3.475   2.959   7.270  0.2981 -0.2534  0.2948
   59SAPC  H12A 4427   3.371   2.980   7.294  0.6897  0.7590  1.2123
   59SAPC  H12B 4428   3.468   2.885   7.191 -1.4479  0.4713 -0.2925
   59SAPC   C13 4429   3.468   2.782   7.452  0.0047 -0.3175  0.5060
   59SAPC  H13A 4430   3.494   2.767   7.556  1.3269 -1.6106  0.0285
   59SAPC  H13B 4431   3.360   2.789   7.460  0.0418  1.9989 -0.2793
   59SAPC  H13C 4432   3.504   2.697   7.395 -1.2986 -1.3635  1.1603
   59SAPC   C14 4433   3.671   2.893   7.408 -0.7014 -0.0002  0.0712
   59SAPC  H14A 4434   3.701   2.805   7.353  2.3659  1.2778 -0.4475
   59SAPC  H14B 4435   3.733   2.961   7.353  0.0656 -1.4862 -0.9916
   59SAPC  H14C 4436   3.706   2.904   7.510 -1.6905 -2.3375  0.7416
   59SAPC   C15 4437   3.495   3.016   7.509 -0.4556  0.2554 -0.2979
   59SAPC  H15A 4438   3.522   2.990   7.611 -1.6134 -0.1095 -0.0690
   59SAPC  H15B 4439   3.536   3.113   7.485  2.8620 -0.7582  0.6439
   59SAPC  H15C 4440   3.389   3.036   7.504 -0.7832 -1.1895  0.4458
   59SAPC   C11 4441   3.535   3.087   7.203 -0.3123  0.5209  0.5842
   59SAPC  H11A 4442   3.467   3.096   7.116  0.2765 -3.8664 -0.5776
   59SAPC  H11B 4443   3.638   3.065   7.169 -1.0721  0.2629 -1.7609
   59SAPC     P 4444   3.455   3.325   7.273 -0.1660 -0.1967  0.2662
   59SAPC   O13 4445   3.318   3.281   7.238 -0.2252  0.9164 -0.3612
   59SAPC   O14 4446   3.471   3.400   7.400 -0.2401  0.5985 -0.3160
   59SAPC   O12 4447   3.545   3.195   7.288  0.0755  0.1936 -0.4542
   59SAPC   O11 4448   3.521   3.388   7.140 -0.1168 -0.2424  0.0553
   59SAPC    C1 4449   3.501   3.527   7.113  0.6546 -0.6233  0.0581
   59SAPC    HA 4450   3.396   3.544   7.081  0.5186 -0.1901  0.7102
   59SAPC    HB 4451   3.522   3.591   7.202  0.0676  1.7510 -1.4298
   59SAPC    C2 4452   3.578   3.589   6.991 -0.3757  0.6052 -0.4790
   59SAPC    HS 4453   3.534   3.691   6.994  0.2995  0.8998 -0.2712
   59SAPC   O21 4454   3.538   3.528   6.871  0.3813  0.1724 -0.3751
   59SAPC   C21 4455   3.558   3.608   6.766  0.1873 -0.9715  0.1986
   59SAPC   O22 4456   3.578   3.725   6.766  0.0891 -0.1967  0.0187
   59SAPC   C22 4457   3.545   3.521   6.638  0.2411 -0.2207 -0.8235
   59SAPC   H2R 4458   3.560   3.413   6.658  0.0539 -0.8389 -3.5855
   59SAPC   H2S 4459   3.443   3.547   6.601 -0.3634 -0.6703  0.4803
   59SAPC    C3 4460   3.728   3.580   7.030 -0.2854  0.0791  0.1245
   59SAPC    HX 4461   3.760   3.475   7.048  0.8177  0.0946 -1.6166
   59SAPC    HY 4462   3.736   3.636   7.126 -1.1625 -0.6930  0.6683
   59SAPC   O31 4463   3.813   3.632   6.923 -0.3398 -0.1006 -0.5998
   59SAPC   C31 4464   3.891   3.728   6.965  0.2465 -0.0001  0.4913
   59SAPC   O32 4465   3.875   3.807   7.057 -0.2027  0.5351 -0.0631
   59SAPC   C32 4466   4.020   3.711   6.894 -0.2737  0.1407  0.2546
   59SAPC   H2X 4467   4.012   3.609   6.851 -1.5940  0.2567  0.1849
   59SAPC   H2Y 4468   4.101   3.719   6.969  1.6546  1.1614 -1.8351
   59SAPC   C23 4469   3.645   3.564   6.537 -0.1010  0.6140  0.0381
   59SAPC   H3R 4470   3.745   3.535   6.574 -0.5890 -3.7311 -1.4863
   59SAPC   H3S 4471   3.649   3.675   6.525 -0.2238  0.4918 -1.2880
   59SAPC   C24 4472   3.623   3.507   6.398 -0.2070 -0.2159  0.6733
   59SAPC   H4R 4473   3.593   3.403   6.422  3.0997 -1.3851  0.2449
   59SAPC   H4S 4474   3.723   3.502   6.351  0.7280 -2.4911  2.7017
   59SAPC   C25 4475   3.532   3.597   6.316 -0.0244 -0.5196 -0.5611
   59SAPC   H5R 4476   3.477   3.665   6.382  1.9636  1.2369 -0.6171
   59SAPC   C26 4477   3.521   3.616   6.183 -0.1158 -0.2386  0.3021
   59SAPC   H6R 4478   3.438   3.680   6.151  2.2968  1.5946 -2.7524
   59SAPC   C27 4479   3.597   3.538   6.076  0.4023 -1.0317 -0.1491
   59SAPC   H7R 4480   3.533   3.498   5.994  2.9596 -2.7492 -1.4323
   59SAPC   H7S 4481   3.649   3.448   6.114  0.6737 -1.2419 -0.9938
   59SAPC   C28 4482   3.704   3.630   6.020 -0.5114  0.1763  0.8202
   59SAPC   H8R 4483   3.772   3.676   6.093  1.3182 -2.4854  0.9439
   59SAPC   C29 4484   3.747   3.647   5.901 -0.5291  0.1850  0.0896
   59SAPC   H9R 4485   3.807   3.739   5.891 -0.0833 -0.1800 -0.6612
   59SAPC  C210 4486   3.697   3.585   5.776  0.3098  0.3748  0.7273
   59SAPC  H10R 4487   3.660   3.672   5.718 -1.4496  0.5282  2.0050
   59SAPC  H10S 4488   3.612   3.514   5.785  0.8474 -0.6364 -1.5230
   59SAPC  C211 4489   3.813   3.518   5.705  0.4458  0.2540  0.0076
   59SAPC  H11R 4490   3.911   3.508   5.753  1.5416  0.1445 -2.0953
   59SAPC  C212 4491   3.803   3.430   5.604  0.0878 -0.0197  0.0065
   59SAPC  H12R 4492   3.894   3.376   5.575 -1.1137 -2.4726  0.4406
   59SAPC  C213 4493   3.677   3.405   5.523  0.3457 -0.5304  0.2594
   59SAPC  H13R 4494   3.706   3.330   5.447  1.4065  0.8023 -0.7009
   59SAPC  H13S 4495   3.646   3.495   5.467 -2.9743 -1.4770  0.3210
   59SAPC  C214 4496   3.562   3.343   5.605  0.0837 -0.4150  0.7182
   59SAPC  H14R 4497   3.591   3.322   5.709 -0.5465 -0.4606  0.8897
   59SAPC  C215 4498   3.433   3.324   5.562 -0.2906  0.5594 -0.2437
   59SAPC  H15R 4499   3.364   3.276   5.633  0.9962  2.0775  2.1692
   59SAPC  C216 4500   3.379   3.368   5.429  0.1202 -0.2381  0.0014
   59SAPC  H16R 4501   3.329   3.277   5.389 -0.5751 -0.3195  1.0159
   59SAPC  H16S 4502   3.451   3.407   5.353  0.5939 -0.1352  0.4999
   59SAPC  C217 4503   3.278   3.481   5.450  0.2352  0.0281  0.3050
   59SAPC  H17R 4504   3.317   3.568   5.507  0.1386  0.2091  0.0973
   59SAPC  H17S 4505   3.199   3.436   5.515  2.6380 -3.9194  0.7958
   59SAPC  C218 4506   3.222   3.524   5.318  0.0669  0.1814 -0.8470
   59SAPC  H18R 4507   3.188   3.435   5.261 -0.8210  1.2015 -1.9774
   59SAPC  H18S 4508   3.303   3.572   5.259  0.3948 -0.2737 -0.7734
   59SAPC  C219 4509   3.093   3.612   5.329 -0.0615  0.4730 -0.6319
   59SAPC  H19R 4510   3.093   3.690   5.408 -3.3117  2.0859 -2.0122
   59SAPC  H19S 4511   3.014   3.543   5.366  1.5723 -1.5878 -0.8174
   59SAPC  C220 4512   3.056   3.680   5.200 -0.4490 -0.3543 -0.5426
   59SAPC  H20R 4513   3.044   3.608   5.116 -0.0047  1.1684 -1.9877
   59SAPC  H20S 4514   3.140   3.745   5.167 -1.7448  0.7583 -1.8123
   59SAPC  H20T 4515   2.958   3.733   5.200  0.2560  0.9901 -0.7464
   59SAPC   C33 4516   4.046   3.826   6.798 -0.3078 -0.7364  0.4224
   59SAPC   H3X 4517   4.152   3.828   6.766 -0.3742 -0.6837  0.2080
   59SAPC   H3Y 4518   4.037   3.913   6.867  2.2959  0.0619 -0.1321
   59SAPC   C34 4519   3.946   3.814   6.684 -0.1870  0.4584  0.2359
   59SAPC   H4X 4520   3.842   3.816   6.723  1.1698  1.4232  4.2944
   59SAPC   H4Y 4521   3.955   3.717   6.632 -1.1909  0.0880  0.7202
   59SAPC   C35 4522   3.969   3.921   6.577  0.5879  0.1647  0.2622
   59SAPC   H5X 4523   4.076   3.923   6.548  0.3231 -1.6585 -0.9985
   59SAPC   H5Y 4524   3.950   4.020   6.625 -0.3817 -0.3694  1.0273
   59SAPC   C36 4525   3.877   3.911   6.462  0.3663 -0.1630  0.7029
   59SAPC   H6X 4526   3.884   4.010   6.411 -0.8203  0.0935  1.0031
   59SAPC   H6Y 4527   3.771   3.912   6.497  0.7049  1.3743  1.8191
   59SAPC   C37 4528   3.905   3.800   6.367 -0.1364  0.0886 -0.1087
   59SAPC   H7X 4529   3.833   3.793   6.283 -0.0181 -1.1118 -0.1327
   59SAPC   H7Y 4530   3.879   3.706   6.420  1.8241 -0.8032 -0.6199
   59SAPC   C38 4531   4.053   3.787   6.321 -0.6818  0.7387  0.1994
   59SAPC   H8X 4532   4.058   3.703   6.247 -1.3990  0.7127  0.1746
   59SAPC   H8Y 4533   4.120   3.766   6.407 -0.9957  0.2025  0.3177
   59SAPC   C39 4534   4.099   3.911   6.240 -0.2477  0.7603  0.1163
   59SAPC   H9X 4535   4.206   3.939   6.228 -0.0311 -0.3409 -0.7330
   59SAPC   H9Y 4536   4.063   3.998   6.298  2.3511  2.5166 -0.7206
   59SAPC  C310 4537   4.046   3.915   6.096  0.6724  0.5851 -0.0904
   59SAPC  H10X 4538   4.059   4.020   6.064  0.9934  0.8374  0.8332
   59SAPC  H10Y 4539   3.936   3.902   6.106  0.3436  2.6930 -0.6137
   59SAPC  C311 4540   4.110   3.828   5.992 -0.1155 -0.8281  0.2833
   59SAPC  H11X 4541   4.085   3.722   6.013 -0.9092 -0.4857  1.1428
   59SAPC  H11Y 4542   4.220   3.846   5.997 -0.5218  2.3934 -0.2566
   59SAPC  C312 4543   4.059   3.863   5.846  0.1730 -0.5364  0.1425
   59SAPC  H12X 4544   4.096   3.963   5.814  1.2759 -0.4375  1.5996
   59SAPC  H12Y 4545   3.949   3.859   5.838  0.2515 -0.6881 -1.0821
   59SAPC  C313 4546   4.102   3.759   5.747 -0.2415 -0.0975 -0.0100
   59SAPC  H13X 4547   4.062   3.662   5.782  2.2667 -0.9822  0.5520
   59SAPC  H13Y 4548   4.212   3.752   5.745 -0.2533 -1.8542  2.0979
   59SAPC  C314 4549   4.036   3.802   5.615 -0.1589  0.4139 -0.3137
   59SAPC  H14X 4550   4.068   3.907   5.601  0.2186  0.2764 -0.4798
   59SAPC  H14Y 4551   3.927   3.810   5.634 -0.5342 -2.0189 -1.0918
   59SAPC  C315 4552   4.070   3.708   5.509  0.4599  0.4785 -0.1450
   59SAPC  H15X 4553   4.016   3.612   5.523 -0.4246  0.6692 -1.8701
   59SAPC  H15Y 4554   4.173   3.669   5.494 -0.0370 -0.7834 -0.3976
   59SAPC  C316 4555   4.008   3.764   5.379  0.1365 -0.3238 -0.0576
   59SAPC  H16X 4556   4.058   3.857   5.345 -1.2886  0.8554  0.9342
   59SAPC  H16Y 4557   3.901   3.790   5.395  0.2377 -0.0058  0.1053
   59SAPC  C317 4558   4.011   3.664   5.260 -0.4959  0.0149 -0.3670
   59SAPC  H17X 4559   4.117   3.638   5.240 -0.2280  0.4265  0.4915
   59SAPC  H17Y 4560   3.963   3.723   5.179 -2.4245 -0.3780  0.4375
   59SAPC  C318 4561   3.918   3.542   5.283 -0.4748  0.1858 -0.0247
   59SAPC  H18X 4562   3.904   3.494   5.184 -2.5354 -0.5034  0.5331
   59SAPC  H18Y 4563   3.820   3.568   5.330  1.2283 -0.0509  4.0709
   59SAPC  H18Z 4564   3.945   3.460   5.354  1.5066  0.6995 -0.1480
   60SAPC     N 4565   2.921   5.137   7.118  0.0901 -0.3502 -0.4956
   60SAPC   C12 4566   2.918   4.998   7.050  0.2458  0.4967  0.3640
   60SAPC  H12A 4567   2.825   4.982   6.998 -0.0978 -0.7562  1.3090
   60SAPC  H12B 4568   2.935   4.925   7.128  0.3411 -0.2963 -0.3747
   60SAPC   C13 4569   2.807   5.146   7.209  0.1393  0.4961  0.0842
   60SAPC  H13A 4570   2.809   5.064   7.279  1.3023  0.7834  0.3930
   60SAPC  H13B 4571   2.808   5.234   7.270  4.4327 -1.0410  2.6320
   60SAPC  H13C 4572   2.710   5.133   7.163 -1.3767  1.2072  2.8749
   60SAPC   C14 4573   3.042   5.158   7.202 -0.5946 -0.0529  0.1047
   60SAPC  H14A 4574   3.123   5.176   7.132 -1.3823  2.2769 -0.3120
   60SAPC  H14B 4575   3.036   5.256   7.248  1.0074 -0.4002  1.1509
   60SAPC  H14C 4576   3.052   5.081   7.277  0.4784 -0.3930 -0.3724
   60SAPC   C15 4577   2.925   5.247   7.018  0.3349 -0.1098  0.0820
   60SAPC  H15A 4578   2.911   5.344   7.063 -3.4203 -0.3853 -0.1839
   60SAPC  H15B 4579   3.007   5.234   6.948  0.8442  0.1867  0.6201
   60SAPC  H15C 4580   2.833   5.233   6.962  0.0823 -1.7356  0.8307
   60SAPC   C11 4581   3.029   4.968   6.947 -0.1156  0.3399 -0.2450
   60SAPC  H11A 4582   3.025   5.037   6.860 -0.4138  2.1398  1.1477
   60SAPC  H11B 4583   3.007   4.869   6.901 -2.1769  0.8005 -0.3285
   60SAPC     P 4584   3.229   4.852   7.068 -0.0573 -0.1151  0.1979
   60SAPC   O13 4585   3.369   4.876   7.074  0.0650  0.4752 -0.6268
   60SAPC   O14 4586   3.164   4.811   7.196 -0.4284 -0.2942  0.1219
   60SAPC   O12 4587   3.160   4.975   7.003  0.8581  0.7620 -0.2844
   60SAPC   O11 4588   3.206   4.753   6.949  0.4652 -0.3489  0.3439
   60SAPC    C1 4589   3.300   4.736   6.846 -0.1793 -0.0241  0.8275
   60SAPC    HA 4590   3.403   4.734   6.889 -0.1937 -0.4953  0.8396
   60SAPC    HB 4591   3.286   4.637   6.799  0.2696  0.7993 -1.1263
   60SAPC    C2 4592   3.277   4.841   6.737 -0.0455  0.3490 -0.3437
   60SAPC    HS 4593   3.302   4.938   6.784 -2.0815  0.2185  1.1406
   60SAPC   O21 4594   3.142   4.853   6.675  0.7966 -0.3316 -0.4873
   60SAPC   C21 4595   3.121   4.960   6.608  0.0975  0.1242 -0.5023
   60SAPC   O22 4596   3.200   5.053   6.605  0.0708 -0.1573 -0.9131
   60SAPC   C22 4597   2.994   4.945   6.523  0.6614 -0.1224  0.5671
   60SAPC   H2R 4598   2.923   4.884   6.581  2.0219 -0.8545  1.5262
   60SAPC   H2S 4599   2.948   5.044   6.501  1.2997 -0.5074 -3.2671
   60SAPC    C3 4600   3.388   4.805   6.632 -0.2535 -0.5369 -0.5496
   60SAPC    HX 4601   3.488   4.790   6.678 -0.4325 -0.6902 -0.2087
   60SAPC    HY 4602   3.398   4.893   6.565  2.1343 -0.0575  0.3301
   60SAPC   O31 4603   3.342   4.695   6.548  0.3179  0.6010 -0.5713
   60SAPC   C31 4604   3.441   4.654   6.469  0.3619  0.0979  0.3942
   60SAPC   O32 4605   3.554   4.698   6.476 -0.5119  0.4730  0.0087
   60SAPC   C32 4606   3.407   4.537   6.378  0.6373  0.2082 -0.0716
   60SAPC   H2X 4607   3.377   4.447   6.436 -0.2548 -0.8242 -2.0095
   60SAPC   H2Y 4608   3.504   4.518   6.327  1.2727  0.7464  0.9238
   60SAPC   C23 4609   3.021   4.887   6.386 -0.6272 -0.4537  0.1053
   60SAPC   H3R 4610   2.933   4.897   6.319 -2.1956 -3.0348  1.6204
   60SAPC   H3S 4611   3.042   4.778   6.390 -2.0670 -0.7403  0.5977
   60SAPC   C24 4612   3.140   4.951   6.306 -0.4942  0.1681  0.6204
   60SAPC   H4R 4613   3.155   4.889   6.215  0.3488 -0.1278  0.9469
   60SAPC   H4S 4614   3.237   4.937   6.359 -0.3263 -0.9402  0.0396
   60SAPC   C25 4615   3.114   5.098   6.281 -0.2816 -0.0521  0.2131
   60SAPC   H5R 4616   3.115   5.165   6.368 -1.4078 -0.2445  0.3927
   60SAPC   C26 4617   3.110   5.149   6.158  0.1553 -0.6750 -0.5660
   60SAPC   H6R 4618   3.096   5.258   6.158  1.8990 -0.3761  1.8918
   60SAPC   C27 4619   3.120   5.076   6.021 -0.5501  0.2181 -0.2963
   60SAPC   H7R 4620   3.107   4.968   6.043  1.6425  0.1713  1.0703
   60SAPC   H7S 4621   3.225   5.081   5.985 -0.6113  1.8690 -0.3070
   60SAPC   C28 4622   3.018   5.122   5.918  1.7011  0.8398  0.8783
   60SAPC   H8R 4623   2.916   5.144   5.951 -0.1969 -1.4881 -2.7801
   60SAPC   C29 4624   3.031   5.128   5.784 -0.2394  0.7286  0.2214
   60SAPC   H9R 4625   2.941   5.138   5.723 -0.0185 -3.3753 -1.0844
   60SAPC  C210 4626   3.165   5.106   5.715  0.1998  0.0725 -0.2433
   60SAPC  H10R 4627   3.183   4.997   5.704 -1.3632 -0.3874  1.3190
   60SAPC  H10S 4628   3.242   5.151   5.781  0.4251  0.7715 -0.9685
   60SAPC  C211 4629   3.178   5.174   5.582 -0.5273  0.5317 -0.7321
   60SAPC  H11R 4630   3.266   5.240   5.578 -0.6347  0.7099 -0.2821
   60SAPC  C212 4631   3.112   5.158   5.469 -0.1371 -0.1005  0.0617
   60SAPC  H12R 4632   3.135   5.226   5.385 -1.8315  1.1882  0.5844
   60SAPC  C213 4633   3.000   5.060   5.437  0.4116  0.2961 -0.2523
   60SAPC  H13R 4634   2.954   5.040   5.537  1.5461 -0.6049  0.1187
   60SAPC  H13S 4635   3.030   4.962   5.394  2.2406  0.4841  0.4862
   60SAPC  C214 4636   2.912   5.120   5.333  0.1680  0.3239 -0.1275
   60SAPC  H14R 4637   2.904   5.077   5.232 -0.8524  2.2128 -0.9069
   60SAPC  C215 4638   2.809   5.201   5.365 -0.1498  0.1156 -0.4660
   60SAPC  H15R 4639   2.753   5.228   5.274 -1.2091  0.2190  0.2055
   60SAPC  C216 4640   2.780   5.270   5.490 -0.0040 -0.1574  0.1489
   60SAPC  H16R 4641   2.776   5.377   5.460  1.1536 -0.1840 -0.1226
   60SAPC  H16S 4642   2.857   5.256   5.568 -0.5470 -0.3587  0.6511
   60SAPC  C217 4643   2.644   5.233   5.562 -0.0138  0.4585  0.6274
   60SAPC  H17R 4644   2.556   5.251   5.497  0.6276 -0.7498 -0.6466
   60SAPC  H17S 4645   2.639   5.298   5.651  2.7879  0.2115  1.0449
   60SAPC  C218 4646   2.628   5.081   5.606 -0.3827 -0.3507 -0.0514
   60SAPC  H18R 4647   2.719   5.049   5.661  0.2173  0.5347 -0.4964
   60SAPC  H18S 4648   2.627   5.015   5.516 -4.3129  0.3761 -0.7097
   60SAPC  C219 4649   2.507   5.056   5.698  0.3596  0.4936  0.9324
   60SAPC  H19R 4650   2.474   5.148   5.751 -0.3610  0.4329  0.6060
   60SAPC  H19S 4651   2.551   4.980   5.766  2.6736  0.7426 -0.1877
   60SAPC  C220 4652   2.389   4.988   5.626 -0.7410  0.6787  0.0377
   60SAPC  H20R 4653   2.379   5.024   5.521  0.0327 -0.2801 -0.3805
   60SAPC  H20S 4654   2.289   5.015   5.666  0.0102  0.3670  2.2304
   60SAPC  H20T 4655   2.381   4.878   5.634 -1.0712  0.7263  0.3702
   60SAPC   C33 4656   3.284   4.570   6.284 -0.0984 -0.3245 -0.0014
   60SAPC   H3X 4657   3.203   4.630   6.330 -0.0853  1.1014 -1.7413
   60SAPC   H3Y 4658   3.239   4.469   6.269 -1.5489  0.2640  0.2538
   60SAPC   C34 4659   3.317   4.619   6.144 -0.2011 -0.1287 -0.6646
   60SAPC   H4X 4660   3.379   4.538   6.098 -3.0230 -2.8273 -0.0650
   60SAPC   H4Y 4661   3.373   4.712   6.169  0.3298 -0.4829 -0.4985
   60SAPC   C35 4662   3.193   4.654   6.059 -0.5465  0.3379 -0.6034
   60SAPC   H5X 4663   3.114   4.704   6.119 -0.3362  2.2803 -1.8441
   60SAPC   H5Y 4664   3.147   4.565   6.011  0.6207 -1.8407  2.0712
   60SAPC   C36 4665   3.236   4.752   5.944  0.8326  0.0065 -0.3557
   60SAPC   H6X 4666   3.325   4.813   5.970  0.7990  0.8546 -2.0621
   60SAPC   H6Y 4667   3.151   4.821   5.925 -0.8912 -1.1874  2.4562
   60SAPC   C37 4668   3.274   4.673   5.812  0.9190 -0.5056  0.2933
   60SAPC   H7X 4669   3.302   4.571   5.850 -0.0727 -0.4044  1.3440
   60SAPC   H7Y 4670   3.351   4.726   5.752  0.5784 -2.2642 -1.8146
   60SAPC   C38 4671   3.153   4.671   5.710  0.0774  0.1964 -0.0843
   60SAPC   H8X 4672   3.141   4.768   5.656 -1.0958  0.4948  0.6838
   60SAPC   H8Y 4673   3.058   4.663   5.766 -1.3206 -1.9335 -2.5026
   60SAPC   C39 4674   3.165   4.566   5.601  1.0686 -0.1632 -0.0383
   60SAPC   H9X 4675   3.073   4.574   5.539  1.3649 -3.8683 -1.1820
   60SAPC   H9Y 4676   3.162   4.465   5.648 -0.0945 -1.2488 -2.2673
   60SAPC  C310 4677   3.291   4.577   5.521  0.0530  0.1651  0.4031
   60SAPC  H10X 4678   3.374   4.538   5.584  0.6023  0.7373  0.0557
   60SAPC  H10Y 4679   3.312   4.684   5.502  0.2086  0.0206 -0.2782
   60SAPC  C311 4680   3.288   4.507   5.384  0.3666 -0.7099 -0.3916
   60SAPC  H11X 4681   3.384   4.525   5.331  0.7269  0.7073  0.6730
   60SAPC  H11Y 4682   3.204   4.550   5.325 -0.1056  0.2887  0.9461
   60SAPC  C312 4683   3.257   4.355   5.387  0.1116  0.3256  0.1994
   60SAPC  H12X 4684   3.156   4.347   5.431 -0.3660  1.9273 -0.5350
   60SAPC  H12Y 4685   3.326   4.312   5.463  0.1913  1.3295  0.7142
   60SAPC  C313 4686   3.260   4.277   5.257 -0.6631 -0.3962  0.0260
   60SAPC  H13X 4687   3.367   4.290   5.230 -0.7617 -1.2317 -0.7894
   60SAPC  H13Y 4688   3.194   4.331   5.186 -0.6891  0.9763  1.0456
   60SAPC  C314 4689   3.198   4.137   5.266  0.3911 -0.3082  0.0491
   60SAPC  H14X 4690   3.093   4.147   5.298  0.0377  0.3007 -1.2252
   60SAPC  H14Y 4691   3.251   4.082   5.347 -0.1432 -0.4496  0.3058
   60SAPC  C315 4692   3.217   4.062   5.130 -1.1305 -0.3985  0.0708
   60SAPC  H15X 4693   3.209   3.954   5.157  1.6246 -0.2145  2.1695
   60SAPC  H15Y 4694   3.324   4.072   5.102 -0.9731 -0.0717  0.7703
   60SAPC  C316 4695   3.123   4.104   5.021 -0.1642 -0.0114  0.8548
   60SAPC  H16X 4696   3.136   4.213   5.000 -1.4952 -0.1767 -1.1094
   60SAPC  H16Y 4697   3.020   4.081   5.056  0.7072 -2.6113  1.9474
   60SAPC  C317 4698   3.169   4.034   4.887  0.2961  0.1006  0.2687
   60SAPC  H17X 4699   3.121   3.934   4.892 -2.5815  1.3884  0.5265
   60SAPC  H17Y 4700   3.277   4.007   4.887  0.3727  0.3099  1.8586
   60SAPC  C318 4701   3.128   4.101   4.757 -1.1109  0.3544  0.2827
   60SAPC  H18X 4702   3.148   4.032   4.672 -0.3393 -1.4016  1.8330
   60SAPC  H18Y 4703   3.170   4.202   4.737 -2.1983  0.5623 -1.1535
   60SAPC  H18Z 4704   3.018   4.116   4.759 -0.9364  2.0018 -0.3944
   61SAPC     N 4705   1.080   1.203   7.133 -0.0674  0.0184 -0.2109
   61SAPC   C12 4706   1.056   1.196   6.980 -0.0589 -0.0271 -0.4405
   61SAPC  H12A 4707   1.140   1.143   6.937  1.5637  1.2291  1.0726
   61SAPC  H12B 4708   1.059   1.296   6.940 -2.0418 -0.6125 -2.2867
   61SAPC   C13 4709   1.071   1.063   7.187 -0.0177  0.7688 -0.2824
   61SAPC  H13A 4710   1.112   1.068   7.286  0.2832  0.0745 -0.3662
   61SAPC  H13B 4711   0.975   1.017   7.171  0.6386 -0.4287 -0.9268
   61SAPC  H13C 4712   1.138   1.005   7.126 -1.3965 -1.5481  0.2995
   61SAPC   C14 4713   1.213   1.268   7.164 -0.7557  0.0872 -0.6491
   61SAPC  H14A 4714   1.299   1.212   7.131  0.1843  0.1279  1.5642
   61SAPC  H14B 4715   1.236   1.358   7.109  1.7602  0.0097  0.1400
   61SAPC  H14C 4716   1.227   1.279   7.271  1.9956 -1.3442 -0.7744
   61SAPC   C15 4717   0.984   1.287   7.218  0.1477  0.8981  0.4465
   61SAPC  H15A 4718   1.016   1.296   7.321 -1.1712  3.2485  0.7138
   61SAPC  H15B 4719   0.985   1.386   7.176 -0.2081 -0.7188 -3.7866
   61SAPC  H15C 4720   0.888   1.237   7.216  0.8581 -0.5000  0.0785
   61SAPC   C11 4721   0.924   1.139   6.936  0.0283  0.0104  0.3848
   61SAPC  H11A 4722   0.916   1.032   6.968 -0.6726 -0.0547  0.0251
   61SAPC  H11B 4723   0.920   1.148   6.826 -2.2739  3.1629  0.5641
   61SAPC     P 4724   0.741   1.333   6.942 -0.0264 -0.0853 -0.2166
   61SAPC   O13 4725   0.630   1.383   7.027 -0.4110 -0.2159 -0.3514
   61SAPC   O14 4726   0.848   1.430   6.924 -0.1403  0.6552 -0.2146
   61SAPC   O12 4727   0.813   1.206   6.999 -0.1234  0.2050  0.1998
   61SAPC   O11 4728   0.683   1.282   6.809  0.6452  0.0362  0.9623
   61SAPC    C1 4729   0.761   1.290   6.688 -0.0450  0.2844  0.2814
   61SAPC    HA 4730   0.868   1.316   6.704 -0.0532  0.1613  0.5394
   61SAPC    HB 4731   0.760   1.195   6.630 -0.5843  1.8087 -2.3471
   61SAPC    C2 4732   0.712   1.399   6.585  0.2488 -0.0751  0.1071
   61SAPC    HS 4733   0.703   1.501   6.629 -1.8435 -0.4412  0.6449
   61SAPC   O21 4734   0.579   1.349   6.540  0.1137  0.7963  0.7199
   61SAPC   C21 4735   0.485   1.436   6.509  0.5382  0.7914 -0.6809
   61SAPC   O22 4736   0.476   1.551   6.542 -0.7101  0.4689 -0.3851
   61SAPC   C22 4737   0.373   1.357   6.439  0.3420 -0.2271  0.7060
   61SAPC   H2R 4738   0.371   1.255   6.482  2.4259 -0.1453  1.0999
   61SAPC   H2S 4739   0.274   1.400   6.467  0.4743 -0.6275  1.8354
   61SAPC    C3 4740   0.805   1.410   6.462  0.1095 -0.4055  0.2107
   61SAPC    HX 4741   0.823   1.306   6.427 -0.5684 -0.5476  0.2627
   61SAPC    HY 4742   0.901   1.446   6.506  1.4945 -0.9041 -2.2409
   61SAPC   O31 4743   0.754   1.476   6.350  0.2116 -0.4239  0.2450
   61SAPC   C31 4744   0.760   1.608   6.360 -0.0224  0.8451 -0.6887
   61SAPC   O32 4745   0.812   1.667   6.452  0.0641 -0.5866  0.2736
   61SAPC   C32 4746   0.711   1.668   6.233 -0.4581 -0.2706 -0.4760
   61SAPC   H2X 4747   0.720   1.778   6.244  1.3116 -0.4748  0.3798
   61SAPC   H2Y 4748   0.603   1.639   6.233 -0.6845  0.4095  1.7638
   61SAPC   C23 4749   0.402   1.380   6.289 -0.8034 -0.4679 -0.6240
   61SAPC   H3R 4750   0.488   1.313   6.263 -1.6885 -2.5587  1.4609
   61SAPC   H3S 4751   0.422   1.488   6.272 -0.2202 -0.4167  0.2925
   61SAPC   C24 4752   0.284   1.352   6.199 -0.7033  0.2484  0.6387
   61SAPC   H4R 4753   0.307   1.383   6.095  0.0779  0.4828  0.8704
   61SAPC   H4S 4754   0.204   1.426   6.219 -0.4131  0.0998  2.5418
   61SAPC   C25 4755   0.219   1.213   6.206 -0.4155  0.5528  0.7575
   61SAPC   H5R 4756   0.170   1.197   6.303 -0.5583  0.2470  0.6381
   61SAPC   C26 4757   0.209   1.124   6.106 -0.1551  0.9323 -0.2572
   61SAPC   H6R 4758   0.157   1.027   6.120  0.3230  0.3187 -2.4019
   61SAPC   C27 4759   0.246   1.144   5.959 -0.2570 -1.1439  0.1997
   61SAPC   H7R 4760   0.275   1.250   5.941 -1.5520 -1.0721 -1.6530
   61SAPC   H7S 4761   0.159   1.127   5.892 -0.1841 -0.3754 -0.0979
   61SAPC   C28 4762   0.358   1.052   5.916 -0.0171  0.1771 -0.1117
   61SAPC   H8R 4763   0.458   1.089   5.945  0.9806 -2.1076 -0.4545
   61SAPC   C29 4764   0.353   0.947   5.835  0.6176  0.0041  0.1700
   61SAPC   H9R 4765   0.445   0.892   5.811 -0.4407 -1.2505 -1.1502
   61SAPC  C210 4766   0.223   0.883   5.781  0.2342 -0.1272  0.1528
   61SAPC  H10R 4767   0.245   0.801   5.709  0.3009 -1.4360  1.5974
   61SAPC  H10S 4768   0.164   0.960   5.728  0.8214 -0.2837 -0.7432
   61SAPC  C211 4769   0.144   0.826   5.894 -0.2126  0.3526  0.9342
   61SAPC  H11R 4770   0.181   0.806   5.995 -2.5667  0.0518  1.7913
   61SAPC  C212 4771   0.013   0.803   5.878  0.9284 -0.5783  0.6405
   61SAPC  H12R 4772  -0.048   0.755   5.956 -0.8771  2.7924  1.4839
   61SAPC  C213 4773  -0.065   0.818   5.747 -0.4580  0.0286  0.1441
   61SAPC  H13R 4774  -0.078   0.927   5.729 -1.9543 -0.3527 -1.3316
   61SAPC  H13S 4775  -0.170   0.785   5.758 -0.7259  1.2424  1.5519
   61SAPC  C214 4776  -0.015   0.750   5.623  0.1886  0.4546 -0.4264
   61SAPC  H14R 4777   0.019   0.647   5.642 -0.0880  0.0966 -1.7964
   61SAPC  C215 4778  -0.003   0.785   5.496 -0.4626  1.0354  0.4783
   61SAPC  H15R 4779   0.037   0.715   5.422 -0.5442  1.9401 -0.4405
   61SAPC  C216 4780  -0.024   0.917   5.430  0.9469 -0.2923  0.7228
   61SAPC  H16R 4781   0.075   0.943   5.388  0.8084  0.0432  0.6023
   61SAPC  H16S 4782  -0.062   1.000   5.494 -1.0909 -0.1786 -0.5338
   61SAPC  C217 4783  -0.123   0.911   5.315 -0.6527  0.1278 -0.3345
   61SAPC  H17R 4784  -0.149   1.012   5.278  0.3712  0.5395  0.0227
   61SAPC  H17S 4785  -0.219   0.862   5.341 -0.2291 -1.2204 -1.1811
   61SAPC  C218 4786  -0.055   0.848   5.192  0.6345  0.5392  0.1145
   61SAPC  H18R 4787  -0.052   0.739   5.212 -0.9374  0.7212  1.5907
   61SAPC  H18S 4788   0.046   0.879   5.158  0.8878 -0.1539  0.2137
   61SAPC  C219 4789  -0.153   0.852   5.069 -0.1895 -0.4591  0.3184
   61SAPC  H19R 4790  -0.249   0.805   5.102  0.1201 -1.3745 -0.0557
   61SAPC  H19S 4791  -0.114   0.786   4.988 -0.7497 -0.4076 -0.0021
   61SAPC  C220 4792  -0.175   0.988   5.016 -0.0295 -0.4494  0.1513
   61SAPC  H20R 4793  -0.180   1.063   5.098 -2.7142 -1.2237  0.7935
   61SAPC  H20S 4794  -0.262   0.989   4.946 -0.3983 -3.5107  0.4284
   61SAPC  H20T 4795  -0.084   1.015   4.958  1.6819 -0.8644  2.5098
   61SAPC   C33 4796   0.774   1.617   6.100  0.5542 -0.1117  0.3278
   61SAPC   H3X 4797   0.784   1.507   6.114  2.7970  0.1598  1.2966
   61SAPC   H3Y 4798   0.880   1.648   6.083  0.9614 -2.5462 -2.3858
   61SAPC   C34 4799   0.710   1.656   5.971 -0.3027  0.3368  0.2268
   61SAPC   H4X 4800   0.728   1.763   5.948  1.4733 -0.3840 -2.1125
   61SAPC   H4Y 4801   0.600   1.644   5.961 -0.2158  0.6948 -1.2956
   61SAPC   C35 4802   0.770   1.583   5.856 -0.5180  0.8523  0.2364
   61SAPC   H5X 4803   0.880   1.585   5.866 -0.4951 -0.1257  0.2091
   61SAPC   H5Y 4804   0.753   1.631   5.757  0.1025 -1.9728 -1.3439
   61SAPC   C36 4805   0.717   1.439   5.848  0.8031  0.2687 -0.0339
   61SAPC   H6X 4806   0.607   1.451   5.857  1.2029  4.3232  1.6767
   61SAPC   H6Y 4807   0.738   1.388   5.944  1.1632 -1.7070 -1.1184
   61SAPC   C37 4808   0.769   1.363   5.735 -0.3620 -0.1351  0.6213
   61SAPC   H7X 4809   0.878   1.353   5.753 -0.4293 -2.0024  0.2001
   61SAPC   H7Y 4810   0.749   1.417   5.640 -1.6005 -1.4995  0.0702
   61SAPC   C38 4811   0.699   1.227   5.716 -0.3381  0.4416  0.4316
   61SAPC   H8X 4812   0.592   1.247   5.693 -0.5782 -0.8177  0.3732
   61SAPC   H8Y 4813   0.694   1.165   5.809 -0.9476 -0.1738 -0.0021
   61SAPC   C39 4814   0.750   1.142   5.597  0.0947  0.5006 -0.3873
   61SAPC   H9X 4815   0.676   1.059   5.599 -0.0561  0.6329 -0.3988
   61SAPC   H9Y 4816   0.850   1.100   5.622  1.3945  1.8871 -2.9273
   61SAPC  C310 4817   0.748   1.219   5.468  0.6565  0.2814  0.1039
   61SAPC  H10X 4818   0.831   1.292   5.464  0.7772  0.1006 -1.1364
   61SAPC  H10Y 4819   0.649   1.268   5.459  0.7765  0.4792 -0.1314
   61SAPC  C311 4820   0.746   1.122   5.348  0.1002 -0.4439 -0.3984
   61SAPC  H11X 4821   0.746   1.183   5.255 -1.1893 -1.2647 -0.9560
   61SAPC  H11Y 4822   0.645   1.075   5.347  0.3287 -1.2005  2.6529
   61SAPC  C312 4823   0.852   1.016   5.361 -0.4663  0.3335  0.9822
   61SAPC  H12X 4824   0.823   0.940   5.437  1.3602 -0.5814  0.8152
   61SAPC  H12Y 4825   0.939   1.078   5.390 -0.1648  1.1724 -1.5479
   61SAPC  C313 4826   0.898   0.938   5.232  0.9491 -0.3844 -0.2508
   61SAPC  H13X 4827   0.963   0.852   5.258  1.6122 -0.2396 -1.3578
   61SAPC  H13Y 4828   0.978   0.990   5.175 -1.1912  0.1378 -3.0274
   61SAPC  C314 4829   0.787   0.893   5.138  0.1885  0.5511  0.0022
   61SAPC  H14X 4830   0.710   0.971   5.118 -1.5589 -0.7153  1.4002
   61SAPC  H14Y 4831   0.733   0.822   5.205  0.2347 -1.3496 -1.8689
   61SAPC  C315 4832   0.833   0.804   5.016  0.1929 -0.3669  0.3430
   61SAPC  H15X 4833   0.749   0.732   4.999  2.2262 -2.3815 -2.0241
   61SAPC  H15Y 4834   0.924   0.754   5.054  0.5201  0.8038  1.1130
   61SAPC  C316 4835   0.876   0.887   4.899  0.0648  0.3921 -1.0971
   61SAPC  H16X 4836   0.942   0.832   4.829  0.1609  1.0019 -1.4999
   61SAPC  H16Y 4837   0.941   0.973   4.926 -1.5980  2.6777 -3.7381
   61SAPC  C317 4838   0.765   0.959   4.822  0.1841  0.1156  0.2233
   61SAPC  H17X 4839   0.708   1.011   4.902  0.4516 -0.2268  0.6445
   61SAPC  H17Y 4840   0.686   0.894   4.778 -1.2019  3.0443 -1.9381
   61SAPC  C318 4841   0.812   1.056   4.716 -0.0738 -0.4647 -0.0447
   61SAPC  H18X 4842   0.899   1.012   4.665  2.5575  2.8988  1.1346
   61SAPC  H18Y 4843   0.844   1.156   4.754 -0.4760 -0.6047  0.6713
   61SAPC  H18Z 4844   0.727   1.079   4.648 -1.0784 -0.4287  1.1818
   62SAPC     N 4845   6.325   1.929   7.172  0.1845 -0.5694  0.3774
   62SAPC   C12 4846   6.419   1.859   7.077 -0.1079 -0.0515  0.4398
   62SAPC  H12A 4847   6.503   1.815   7.128  0.8368 -1.9482 -2.4855
   62SAPC  H12B 4848   6.466   1.931   7.012 -1.9780  2.1440  1.3980
   62SAPC   C13 4849   6.403   2.031   7.247  1.0586  0.2831 -0.3826
   62SAPC  H13A 4850   6.490   1.986   7.292  0.2660 -0.6783  0.2494
   62SAPC  H13B 4851   6.436   2.106   7.176 -1.2726 -0.6186 -2.5801
   62SAPC  H13C 4852   6.342   2.088   7.316  0.4687 -0.0386 -0.6329
   62SAPC   C14 4853   6.218   1.995   7.103 -0.1903 -0.2876  0.4641
   62SAPC  H14A 4854   6.258   2.059   7.026  2.3566 -2.4228 -0.1299
   62SAPC  H14B 4855   6.152   1.926   7.052  0.1948 -1.6204  1.7115
   62SAPC  H14C 4856   6.165   2.059   7.172  2.5406  2.3921  0.2908
   62SAPC   C15 4857   6.284   1.824   7.272  0.3771 -0.1214  0.1543
   62SAPC  H15A 4858   6.368   1.762   7.300  0.8404  1.1091  1.6280
   62SAPC  H15B 4859   6.239   1.870   7.359  2.1420 -1.7313  2.0091
   62SAPC  H15C 4860   6.211   1.754   7.235  0.5876  0.2284 -0.9399
   62SAPC   C11 4861   6.352   1.748   6.988  0.6853 -0.1581 -0.0002
   62SAPC  H11A 4862   6.281   1.697   7.058 -1.2896 -0.4120 -2.0767
   62SAPC  H11B 4863   6.430   1.675   6.957  0.5302  0.1780 -1.2182
   62SAPC     P 4864   6.139   1.755   6.824  0.1388 -0.0744  0.1609
   62SAPC   O13 4865   6.126   1.613   6.859 -0.6725 -0.0601  0.0385
   62SAPC   O14 4866   6.030   1.854   6.856 -0.6958  0.0007  0.8757
   62SAPC   O12 4867   6.283   1.805   6.873  0.0425  0.0244 -0.3585
   62SAPC   O11 4868   6.162   1.760   6.670  0.3047  0.7230  0.8601
   62SAPC    C1 4869   6.051   1.732   6.584 -0.3729  0.5226 -0.4673
   62SAPC    HA 4870   5.975   1.677   6.644  1.5468  0.0361  1.6625
   62SAPC    HB 4871   5.987   1.819   6.558 -0.0528  1.0754  0.5506
   62SAPC    C2 4872   6.083   1.642   6.465  0.2402 -0.7774  0.2616
   62SAPC    HS 4873   6.131   1.551   6.507  0.4382 -1.1948 -0.8470
   62SAPC   O21 4874   6.168   1.731   6.387 -0.2607 -0.5479 -0.4130
   62SAPC   C21 4875   6.251   1.662   6.307  0.0797  0.4459 -0.4639
   62SAPC   O22 4876   6.264   1.540   6.294  0.0067 -0.1210 -0.4033
   62SAPC   C22 4877   6.325   1.769   6.222  0.2965 -0.4744 -0.6997
   62SAPC   H2R 4878   6.333   1.858   6.289 -0.8789 -1.3569  0.6536
   62SAPC   H2S 4879   6.425   1.734   6.190  0.8143  0.6902 -0.4154
   62SAPC    C3 4880   5.955   1.609   6.383  0.6710  0.1703  0.5981
   62SAPC    HX 4881   5.903   1.706   6.364 -0.2495 -0.5318 -0.5778
   62SAPC    HY 4882   5.889   1.546   6.446  0.3968  0.2172  0.3617
   62SAPC   O31 4883   5.988   1.566   6.247  0.4464  0.3854  0.5243
   62SAPC   C31 4884   5.983   1.436   6.239 -0.9080  0.1407  0.0066
   62SAPC   O32 4885   5.967   1.357   6.328 -0.0944 -0.0605 -0.9719
   62SAPC   C32 4886   6.008   1.396   6.093 -0.0342  0.1439 -0.2771
   62SAPC   H2X 4887   6.093   1.325   6.086  1.7359  2.1824 -0.8005
   62SAPC   H2Y 4888   6.047   1.479   6.029  2.2982 -2.3442 -2.3083
   62SAPC   C23 4889   6.238   1.815   6.102  0.1917 -0.7826  0.0936
   62SAPC   H3R 4890   6.157   1.877   6.147  1.4992  1.3027 -0.3130
   62SAPC   H3S 4891   6.173   1.732   6.066 -1.7654  0.7970 -0.1817
   62SAPC   C24 4892   6.306   1.903   5.999 -0.6168 -0.3783 -0.7873
   62SAPC   H4R 4893   6.342   1.997   6.047  1.1352 -1.4362  0.0915
   62SAPC   H4S 4894   6.236   1.920   5.915 -1.7166 -1.3770 -0.1068
   62SAPC   C25 4895   6.429   1.836   5.934  0.0157 -0.2154 -0.1045
   62SAPC   H5R 4896   6.514   1.896   5.969 -1.2276  2.3946 -1.2387
   62SAPC   C26 4897   6.445   1.724   5.850 -0.6026 -0.2084 -0.1434
   62SAPC   H6R 4898   6.544   1.695   5.814 -1.7597 -0.1954 -3.6804
   62SAPC   C27 4899   6.347   1.629   5.785  0.3611 -0.0734 -0.5115
   62SAPC   H7R 4900   6.348   1.639   5.674 -4.3715  0.7112 -0.6684
   62SAPC   H7S 4901   6.240   1.653   5.800  0.1316 -1.0534 -0.5533
   62SAPC   C28 4902   6.369   1.490   5.838 -0.2220  0.3045  0.3760
   62SAPC   H8R 4903   6.324   1.467   5.936 -0.6418 -2.7149 -0.4336
   62SAPC   C29 4904   6.431   1.393   5.778 -0.2742  0.1934  0.2718
   62SAPC   H9R 4905   6.448   1.302   5.837  0.0669 -0.7764 -1.2540
   62SAPC  C210 4906   6.483   1.392   5.638 -0.9937 -0.0254  0.6150
   62SAPC  H10R 4907   6.486   1.495   5.596 -0.3342 -0.7202 -1.1372
   62SAPC  H10S 4908   6.413   1.335   5.574 -0.5930  0.5997 -0.4093
   62SAPC  C211 4909   6.614   1.317   5.635  0.1102 -0.6502 -0.3300
   62SAPC  H11R 4910   6.705   1.379   5.631  1.9052 -3.1776 -1.6046
   62SAPC  C212 4911   6.631   1.181   5.642  0.1172 -0.0416  0.4770
   62SAPC  H12R 4912   6.734   1.147   5.625 -0.2843  0.0253 -2.7617
   62SAPC  C213 4913   6.520   1.084   5.660 -0.7017  0.0482 -0.5968
   62SAPC  H13R 4914   6.434   1.110   5.594 -0.7733  2.3027  0.2945
   62SAPC  H13S 4915   6.474   1.098   5.759 -3.1624 -0.9234 -1.5266
   62SAPC  C214 4916   6.574   0.945   5.642 -0.0077 -0.3274 -0.7609
   62SAPC  H14R 4917   6.636   0.913   5.727 -0.7572  0.9014  0.2886
   62SAPC  C215 4918   6.557   0.874   5.530 -0.5130 -0.0027  1.1824
   62SAPC  H15R 4919   6.594   0.770   5.531  2.7944  1.0458  0.5866
   62SAPC  C216 4920   6.484   0.900   5.394 -0.4390 -0.1298  0.0423
   62SAPC  H16R 4921   6.552   0.937   5.314 -0.4359  1.9597  0.9446
   62SAPC  H16S 4922   6.408   0.978   5.414 -0.9796 -0.9223  1.1826
   62SAPC  C217 4923   6.425   0.769   5.333  0.3984 -0.2376  0.4762
   62SAPC  H17R 4924   6.396   0.796   5.229  3.2752 -0.5465 -0.4968
   62SAPC  H17S 4925   6.329   0.760   5.387 -0.6064  0.6589 -1.0826
   62SAPC  C218 4926   6.513   0.647   5.324 -1.1810  0.4291  0.2805
   62SAPC  H18R 4927   6.542   0.610   5.425  3.2048  0.5489 -0.6991
   62SAPC  H18S 4928   6.606   0.675   5.270  0.3709 -2.1250  1.3815
   62SAPC  C219 4929   6.461   0.531   5.245 -0.5290 -0.4287  0.5640
   62SAPC  H19R 4930   6.441   0.560   5.140 -2.2432  2.6307  1.5921
   62SAPC  H19S 4931   6.362   0.500   5.287 -1.7007  2.7974  0.5014
   62SAPC  C220 4932   6.556   0.417   5.243  0.9162 -0.4847  0.1537
   62SAPC  H20R 4933   6.657   0.450   5.211  1.1452  0.9190  2.1228
   62SAPC  H20S 4934   6.525   0.336   5.175  1.7267  0.9825 -2.0728
   62SAPC  H20T 4935   6.576   0.376   5.344 -0.7898  1.4392  1.3659
   62SAPC   C33 4936   5.873   1.349   6.036  0.3839  0.9598 -0.7394
   62SAPC   H3X 4937   5.799   1.431   6.021 -0.1004  0.2992 -2.1504
   62SAPC   H3Y 4938   5.828   1.271   6.101  2.2938  0.5636  0.1756
   62SAPC   C34 4939   5.885   1.280   5.900  0.6156  0.0270  0.0157
   62SAPC   H4X 4940   5.789   1.228   5.880  1.1718 -0.4572 -1.5795
   62SAPC   H4Y 4941   5.967   1.206   5.892  0.1415 -0.7237  1.7075
   62SAPC   C35 4942   5.903   1.382   5.779 -0.5787  0.8167  0.0926
   62SAPC   H5X 4943   5.996   1.435   5.810  0.0038  0.0944 -0.4032
   62SAPC   H5Y 4944   5.822   1.458   5.769 -4.0919 -2.6937 -0.8917
   62SAPC   C36 4945   5.931   1.309   5.652  0.3109 -0.3592  0.1351
   62SAPC   H6X 4946   5.843   1.245   5.632 -0.7740  1.4371 -1.1079
   62SAPC   H6Y 4947   6.018   1.244   5.675 -0.5256 -0.9480  1.8073
   62SAPC   C37 4948   5.957   1.404   5.538 -0.0742 -0.2274 -0.1132
   62SAPC   H7X 4949   6.031   1.484   5.561  0.0608  0.8675 -3.7109
   62SAPC   H7Y 4950   5.860   1.456   5.525  0.3003  0.1636 -1.6011
   62SAPC   C38 4951   5.980   1.345   5.404 -0.4822  0.1217 -0.0036
   62SAPC   H8X 4952   6.081   1.298   5.402 -0.1659  0.7349  0.8621
   62SAPC   H8Y 4953   5.989   1.426   5.329 -2.9107  0.3259 -0.1624
   62SAPC   C39 4954   5.863   1.252   5.367  0.0247 -0.6330 -0.3014
   62SAPC   H9X 4955   5.764   1.301   5.379 -0.4369 -1.1944 -1.6295
   62SAPC   H9Y 4956   5.867   1.160   5.427  2.0543 -0.7182 -0.4737
   62SAPC  C310 4957   5.862   1.205   5.214 -0.1111  0.8282  0.0658
   62SAPC  H10X 4958   5.958   1.149   5.218 -0.1604  0.5463 -1.9148
   62SAPC  H10Y 4959   5.884   1.290   5.146  0.8488  0.5525  0.0229
   62SAPC  C311 4960   5.735   1.130   5.160 -0.0018  0.1073  0.0655
   62SAPC  H11X 4961   5.636   1.175   5.182 -0.7109 -0.8767 -0.9531
   62SAPC  H11Y 4962   5.730   1.034   5.216  1.0241  0.2986  0.5113
   62SAPC  C312 4963   5.732   1.111   5.006 -0.3847 -0.0902  0.3243
   62SAPC  H12X 4964   5.827   1.077   4.960 -0.0632  0.4552  0.5707
   62SAPC  H12Y 4965   5.714   1.210   4.960  0.0164 -0.0169  0.3210
   62SAPC  C313 4966   5.627   1.020   4.940 -0.1614  0.4291 -0.8619
   62SAPC  H13X 4967   5.528   1.055   4.976 -1.3686 -2.4823 -1.1190
   62SAPC  H13Y 4968   5.656   0.919   4.974  1.2471  0.7999 -0.8850
   62SAPC  C314 4969   5.629   1.029   4.786 -0.2557  0.7650 -0.7436
   62SAPC  H14X 4970   5.732   1.015   4.747 -0.6292 -2.5650 -0.8408
   62SAPC  H14Y 4971   5.579   1.120   4.746 -3.4259 -0.9215 -0.8997
   62SAPC  C315 4972   5.551   0.912   4.718 -0.0117  0.5956  0.2880
   62SAPC  H15X 4973   5.445   0.921   4.751 -0.0145 -0.7656  0.7494
   62SAPC  H15Y 4974   5.593   0.816   4.756 -0.8823  1.3445  3.4267
   62SAPC  C316 4975   5.551   0.912   4.568 -0.7805 -0.1341  0.2862
   62SAPC  H16X 4976   5.478   0.987   4.529  0.1666 -0.2753 -1.9043
   62SAPC  H16Y 4977   5.506   0.819   4.525 -0.3982 -1.5026  2.6557
   62SAPC  C317 4978   5.693   0.922   4.499 -0.4000  0.4069 -0.2004
   62SAPC  H17X 4979   5.757   0.858   4.562  1.0633  0.8661 -1.1601
   62SAPC  H17Y 4980   5.740   1.022   4.512  2.1526 -1.0832  3.3758
   62SAPC  C318 4981   5.687   0.884   4.354  0.0282  0.3343  0.3852
   62SAPC  H18X 4982   5.791   0.898   4.318  0.3186 -0.1209  1.0258
   62SAPC  H18Y 4983   5.622   0.952   4.295  0.9919 -0.6978 -1.9784
   62SAPC  H18Z 4984   5.666   0.777   4.336 -1.0454  0.7848 -1.2495
   63SAPC     N 4985   3.730   6.788   6.896  0.2015 -0.1848 -0.5854
   63SAPC   C12 4986   3.716   6.645   6.878 -0.0109  0.8486 -0.0505
   63SAPC  H12A 4987   3.757   6.622   6.781 -0.4478  0.0291 -0.0518
   63SAPC  H12B 4988   3.611   6.618   6.871  0.7719 -2.8428  0.1993
   63SAPC   C13 4989   3.678   6.807   7.036 -0.4362 -0.6266 -0.1218
   63SAPC  H13A 4990   3.571   6.800   7.032 -0.4732 -0.8776  1.0162
   63SAPC  H13B 4991   3.705   6.738   7.115 -1.8660 -1.3763 -0.2594
   63SAPC  H13C 4992   3.699   6.903   7.080 -0.4176 -0.8610  0.3877
   63SAPC   C14 4993   3.876   6.830   6.888  0.2002  0.5045 -0.1122
   63SAPC  H14A 4994   3.884   6.932   6.922  0.8896  0.2037  0.6464
   63SAPC  H14B 4995   3.947   6.786   6.956 -0.1762  3.6538  2.5507
   63SAPC  H14C 4996   3.924   6.828   6.791  0.4183 -0.3747  0.0115
   63SAPC   C15 4997   3.654   6.876   6.797 -1.2731  0.0010  0.2986
   63SAPC  H15A 4998   3.548   6.856   6.788 -1.4979  0.2035  2.1293
   63SAPC  H15B 4999   3.659   6.976   6.835 -1.4572 -1.3311  4.2980
   63SAPC  H15C 5000   3.707   6.874   6.702 -2.9526 -1.3329 -0.6749
   63SAPC   C11 5001   3.794   6.555   6.979  0.3361 -0.0784 -0.7448
   63SAPC  H11A 5002   3.736   6.460   6.975  0.2487 -0.0063 -1.1554
   63SAPC  H11B 5003   3.792   6.587   7.086 -2.1317  0.9301 -1.0222
   63SAPC     P 5004   3.944   6.417   6.815 -0.0380 -0.0909 -0.0716
   63SAPC   O13 5005   4.087   6.386   6.787 -0.1337  0.0077 -0.5323
   63SAPC   O14 5006   3.860   6.301   6.865 -0.1607 -0.8429  0.4643
   63SAPC   O12 5007   3.929   6.526   6.936 -0.3598  0.9963  0.0631
   63SAPC   O11 5008   3.873   6.491   6.696 -0.5238  0.4442  0.3263
   63SAPC    C1 5009   3.955   6.574   6.601 -1.1964 -0.0597  0.0692
   63SAPC    HA 5010   4.028   6.636   6.656  0.2564  0.0576 -1.8897
   63SAPC    HB 5011   4.015   6.514   6.530 -1.8333  0.1226 -0.6418
   63SAPC    C2 5012   3.865   6.661   6.506 -0.0916 -0.0194 -0.1039
   63SAPC    HS 5013   3.834   6.756   6.555 -1.0009  1.5132 -3.3887
   63SAPC   O21 5014   3.742   6.592   6.466 -0.2449 -0.3397  0.3891
   63SAPC   C21 5015   3.630   6.668   6.453 -0.4930  0.2226  0.2712
   63SAPC   O22 5016   3.628   6.786   6.471  0.3833  0.3835  0.4410
   63SAPC   C22 5017   3.511   6.582   6.396 -0.8023 -0.1228  0.3523
   63SAPC   H2R 5018   3.564   6.493   6.355 -1.2219 -0.9673  1.5794
   63SAPC   H2S 5019   3.459   6.548   6.488 -0.3518  0.7153  0.9399
   63SAPC    C3 5020   3.943   6.710   6.385 -0.2714  0.3589  0.2975
   63SAPC    HX 5021   4.034   6.763   6.421 -0.8402 -0.0909  2.5145
   63SAPC    HY 5022   3.883   6.790   6.337 -1.5030  0.3658  1.7494
   63SAPC   O31 5023   3.981   6.600   6.293 -0.2586 -0.2930 -0.3599
   63SAPC   C31 5024   3.882   6.569   6.204 -0.7251  0.4097  0.0739
   63SAPC   O32 5025   3.778   6.632   6.188 -0.3951  0.7129 -0.5266
   63SAPC   C32 5026   3.924   6.434   6.143 -0.4553  0.3350 -0.5022
   63SAPC   H2X 5027   3.832   6.376   6.120  0.7840 -0.7494 -3.1831
   63SAPC   H2Y 5028   3.984   6.381   6.219 -1.1546 -0.5056 -0.5182
   63SAPC   C23 5029   3.422   6.649   6.288 -0.5255  0.0555 -0.1645
   63SAPC   H3R 5030   3.483   6.687   6.203 -0.7730 -0.6364 -0.6667
   63SAPC   H3S 5031   3.373   6.740   6.330  1.3915  1.8539 -1.6104
   63SAPC   C24 5032   3.313   6.561   6.229  0.3302  0.1173  0.1501
   63SAPC   H4R 5033   3.253   6.621   6.158 -1.6995 -3.1646 -1.1624
   63SAPC   H4S 5034   3.245   6.526   6.310  1.2329 -1.1136  0.4187
   63SAPC   C25 5035   3.370   6.446   6.148  0.0273 -0.1106 -0.6973
   63SAPC   H5R 5036   3.439   6.386   6.208 -0.4256  0.0787  0.0204
   63SAPC   C26 5037   3.384   6.422   6.014  0.3890  0.1378 -0.6388
   63SAPC   H6R 5038   3.418   6.320   5.990  1.6716  0.0981  1.1718
   63SAPC   C27 5039   3.317   6.509   5.908  0.0706  0.5461 -0.3012
   63SAPC   H7R 5040   3.310   6.613   5.945 -0.7490 -0.2795  2.0794
   63SAPC   H7S 5041   3.211   6.476   5.898 -0.1560  0.8822  0.8694
   63SAPC   C28 5042   3.377   6.509   5.773  0.9017  0.2596 -0.0194
   63SAPC   H8R 5043   3.447   6.425   5.755  1.2617  0.7154 -0.8064
   63SAPC   C29 5044   3.344   6.581   5.667 -0.7020 -0.3156 -0.2266
   63SAPC   H9R 5045   3.407   6.570   5.577  1.9913 -0.2987  1.5428
   63SAPC  C210 5046   3.242   6.692   5.664  0.8907  0.6014  0.2741
   63SAPC  H10R 5047   3.284   6.789   5.630  1.0171  0.1110 -1.0296
   63SAPC  H10S 5048   3.198   6.715   5.763  1.1820  0.4547  0.4388
   63SAPC  C211 5049   3.136   6.627   5.580  0.6131  0.2760  0.0328
   63SAPC  H11R 5050   3.054   6.577   5.632 -1.4226  0.8296 -2.4361
   63SAPC  C212 5051   3.124   6.654   5.446 -0.7584  1.0403  0.8890
   63SAPC  H12R 5052   3.036   6.606   5.400 -0.9887  0.3876  1.9678
   63SAPC  C213 5053   3.223   6.733   5.358 -0.1698 -0.5915  0.7559
   63SAPC  H13R 5054   3.310   6.667   5.337 -0.7651 -1.0825 -0.2229
   63SAPC  H13S 5055   3.259   6.829   5.403  0.3715 -1.6428  2.6618
   63SAPC  C214 5056   3.162   6.773   5.220  0.4781  0.2053 -0.0991
   63SAPC  H14R 5057   3.133   6.879   5.209 -2.0753 -0.4980 -0.7646
   63SAPC  C215 5058   3.161   6.693   5.108 -0.6957  0.2116  0.7885
   63SAPC  H15R 5059   3.120   6.731   5.013  0.5745 -0.1850  0.0641
   63SAPC  C216 5060   3.221   6.555   5.108 -0.1438  0.1886  0.2882
   63SAPC  H16R 5061   3.147   6.477   5.080 -1.3238  1.3910 -0.0486
   63SAPC  H16S 5062   3.248   6.522   5.211 -0.5335  1.0929  0.6897
   63SAPC  C217 5063   3.353   6.539   5.022  0.5637 -0.0342 -0.3216
   63SAPC  H17R 5064   3.434   6.606   5.056 -0.9080  0.7809  1.7899
   63SAPC  H17S 5065   3.328   6.577   4.920  1.2929 -1.5529 -1.1027
   63SAPC  C218 5066   3.392   6.396   4.995 -0.3709 -0.0423 -0.9638
   63SAPC  H18R 5067   3.340   6.346   4.910 -2.6824  0.1542  0.2359
   63SAPC  H18S 5068   3.360   6.346   5.089  2.1943  1.1735  0.6621
   63SAPC  C219 5069   3.542   6.361   4.983 -0.0464  0.7467  0.3687
   63SAPC  H19R 5070   3.579   6.398   4.885  0.2031  0.5246  0.3778
   63SAPC  H19S 5071   3.538   6.251   4.977 -2.9368  0.7278  0.8565
   63SAPC  C220 5072   3.616   6.414   5.109  0.9269  0.1099 -0.2184
   63SAPC  H20R 5073   3.621   6.523   5.131  0.1179  0.2710 -0.7857
   63SAPC  H20S 5074   3.720   6.376   5.107  1.5858  1.6014  2.0027
   63SAPC  H20T 5075   3.571   6.381   5.205  1.6622 -0.6449 -0.1261
   63SAPC   C33 5076   4.005   6.453   6.021 -0.6875 -0.9077 -0.0272
   63SAPC   H3X 5077   4.096   6.507   6.054 -1.7475  0.8266  0.1693
   63SAPC   H3Y 5078   3.949   6.506   5.941 -0.8676 -0.0439  0.6567
   63SAPC   C34 5079   4.058   6.320   5.953 -0.2921 -0.2322  0.2973
   63SAPC   H4X 5080   4.114   6.262   6.028 -0.0991 -0.5599 -0.0949
   63SAPC   H4Y 5081   4.138   6.335   5.877 -0.4781 -0.7385 -0.0060
   63SAPC   C35 5082   3.944   6.239   5.886 -0.3435 -0.7750 -0.5111
   63SAPC   H5X 5083   3.873   6.221   5.970 -0.1103  1.2482  0.1666
   63SAPC   H5Y 5084   3.990   6.144   5.849  0.4861 -0.2632 -0.8168
   63SAPC   C36 5085   3.884   6.302   5.766 -0.6829  0.9476  0.9429
   63SAPC   H6X 5086   3.956   6.335   5.688 -1.1928  0.7436  0.3823
   63SAPC   H6Y 5087   3.829   6.394   5.795  0.4671  1.3127  2.0852
   63SAPC   C37 5088   3.784   6.201   5.701  0.0675 -0.2213 -0.2120
   63SAPC   H7X 5089   3.720   6.157   5.780 -0.4685  1.2026  0.1671
   63SAPC   H7Y 5090   3.853   6.128   5.653 -0.4342 -0.2368 -0.9217
   63SAPC   C38 5091   3.711   6.277   5.587 -0.5100  0.6187  0.5646
   63SAPC   H8X 5092   3.786   6.307   5.511  0.0305 -0.2318  0.7427
   63SAPC   H8Y 5093   3.664   6.364   5.637 -1.5042  1.1491 -1.2046
   63SAPC   C39 5094   3.602   6.187   5.525  0.1444  0.4633 -0.9158
   63SAPC   H9X 5095   3.526   6.262   5.494  0.0196  0.7080 -0.0388
   63SAPC   H9Y 5096   3.551   6.124   5.602  0.2394 -1.7813 -2.5814
   63SAPC  C310 5097   3.650   6.093   5.416  0.1623 -0.0899  1.2608
   63SAPC  H10X 5098   3.701   5.999   5.449  1.8969 -0.7028 -2.6388
   63SAPC  H10Y 5099   3.737   6.143   5.369  1.8910 -0.7995  3.5220
   63SAPC  C311 5100   3.549   6.053   5.309 -0.1315  0.4781 -0.3704
   63SAPC  H11X 5101   3.514   6.145   5.258  1.0417  1.0785 -0.1333
   63SAPC  H11Y 5102   3.470   6.001   5.367  1.0689  0.5541  1.3917
   63SAPC  C312 5103   3.604   5.963   5.198  0.6485  0.2139 -0.1640
   63SAPC  H12X 5104   3.516   5.926   5.142  0.2562  0.8560  0.0204
   63SAPC  H12Y 5105   3.649   5.868   5.236 -0.4112 -0.2759 -0.1174
   63SAPC  C313 5106   3.698   6.028   5.096 -0.4001  0.5079  0.1557
   63SAPC  H13X 5107   3.802   5.993   5.110 -0.5656 -0.1573 -0.2144
   63SAPC  H13Y 5108   3.692   6.139   5.096 -0.7446  0.4980  1.1168
   63SAPC  C314 5109   3.645   5.990   4.955  0.7122  0.3966  0.1347
   63SAPC  H14X 5110   3.539   6.024   4.952  0.3430  0.3210  4.6920
   63SAPC  H14Y 5111   3.632   5.880   4.957  0.2338  0.4234 -0.8732
   63SAPC  C315 5112   3.735   6.019   4.843 -0.3483  0.0454  0.4168
   63SAPC  H15X 5113   3.695   5.980   4.747  0.1671 -1.7110  0.8866
   63SAPC  H15Y 5114   3.833   5.971   4.864 -1.1573 -2.5635 -1.3705
   63SAPC  C316 5115   3.761   6.170   4.816  1.3720  0.2187  0.0589
   63SAPC  H16X 5116   3.765   6.231   4.909  0.5915 -1.1074  0.9900
   63SAPC  H16Y 5117   3.673   6.210   4.763 -0.4532 -2.4710  0.8561
   63SAPC  C317 5118   3.874   6.210   4.723 -0.1847  0.4068  0.3429
   63SAPC  H17X 5119   3.975   6.181   4.759  0.8461  1.2458 -1.7221
   63SAPC  H17Y 5120   3.871   6.321   4.732  0.6986  0.5526 -0.8169
   63SAPC  C318 5121   3.856   6.172   4.573  0.3513 -0.4916 -0.0430
   63SAPC  H18X 5122   3.834   6.063   4.567  1.7452 -0.7964  0.0515
   63SAPC  H18Y 5123   3.944   6.194   4.510  0.6357 -1.0821  0.1473
   63SAPC  H18Z 5124   3.771   6.237   4.543 -0.9551 -0.5037  3.1471
   64SAPC     N 5125   4.423   6.533   6.887 -0.0873  0.3903  0.3367
   64SAPC   C12 5126   4.515   6.438   6.812 -0.1888 -0.5448 -1.2331
   64SAPC  H12A 5127   4.459   6.371   6.748 -2.6179  0.2549 -0.0812
   64SAPC  H12B 5128   4.572   6.381   6.884 -0.4680  0.7556  0.0489
   64SAPC   C13 5129   4.328   6.462   6.979  0.0549 -0.3660  0.5260
   64SAPC  H13A 5130   4.278   6.524   7.051 -0.9365 -2.5056  1.8054
   64SAPC  H13B 5131   4.252   6.412   6.920  0.0581  0.6783 -0.3912
   64SAPC  H13C 5132   4.382   6.394   7.044  0.5920 -1.8857 -1.4153
   64SAPC   C14 5133   4.500   6.645   6.956  0.1332  0.2217 -0.3435
   64SAPC  H14A 5134   4.553   6.609   7.043 -0.2060 -2.7278 -1.2604
   64SAPC  H14B 5135   4.579   6.683   6.894  0.3986 -2.1357 -1.5438
   64SAPC  H14C 5136   4.449   6.740   6.971  5.8636  3.7701 -0.0878
   64SAPC   C15 5137   4.332   6.604   6.786 -0.6371 -0.1434  0.1446
   64SAPC  H15A 5138   4.262   6.531   6.747 -1.0511 -0.3417  1.2305
   64SAPC  H15B 5139   4.284   6.686   6.837  0.3300  0.7564 -0.3695
   64SAPC  H15C 5140   4.381   6.656   6.705 -2.1287  1.3586  0.1614
   64SAPC   C11 5141   4.619   6.504   6.721  0.4024  0.5091 -0.5281
   64SAPC  H11A 5142   4.569   6.567   6.645 -1.1084  0.2672  0.2364
   64SAPC  H11B 5143   4.684   6.425   6.676  1.2174  1.2714 -0.7245
   64SAPC     P 5144   4.847   6.552   6.852  0.2171  0.2838 -0.1401
   64SAPC   O13 5145   4.951   6.627   6.782 -0.1506 -0.5842 -0.4938
   64SAPC   O14 5146   4.841   6.560   7.000 -0.0107 -0.3572  0.2845
   64SAPC   O12 5147   4.706   6.595   6.796  0.1095  0.3897  0.0541
   64SAPC   O11 5148   4.862   6.395   6.823  0.6927  0.0501  0.0644
   64SAPC    C1 5149   4.995   6.341   6.803  0.3051  0.6300 -0.1849
   64SAPC    HA 5150   5.067   6.394   6.870 -0.1774  0.9464  0.0909
   64SAPC    HB 5151   4.988   6.233   6.829  0.4903  0.4556 -0.8409
   64SAPC    C2 5152   5.061   6.362   6.661  0.3468  0.0929  0.7049
   64SAPC    HS 5153   5.069   6.472   6.651 -0.2447  0.1972  1.3181
   64SAPC   O21 5154   4.972   6.301   6.570 -0.3676  0.3358  0.1419
   64SAPC   C21 5155   4.950   6.353   6.455  0.3518 -0.5250  0.2933
   64SAPC   O22 5156   4.996   6.459   6.410  0.1369  0.0130  0.1033
   64SAPC   C22 5157   4.847   6.267   6.375 -0.0383  0.1419 -0.3812
   64SAPC   H2R 5158   4.905   6.203   6.305  1.7725  1.6812 -0.3974
   64SAPC   H2S 5159   4.785   6.206   6.443  0.1453  0.0290 -0.3139
   64SAPC    C3 5160   5.197   6.307   6.653 -0.8241  0.7679 -0.2009
   64SAPC    HX 5161   5.193   6.198   6.674  0.2473  1.0140  1.5581
   64SAPC    HY 5162   5.259   6.344   6.738  1.7271 -0.2654 -1.4975
   64SAPC   O31 5163   5.269   6.322   6.526  0.2459 -0.0770 -0.4030
   64SAPC   C31 5164   5.393   6.275   6.531 -0.0059 -0.3761  0.5393
   64SAPC   O32 5165   5.447   6.209   6.623  0.6819  0.0642  0.4134
   64SAPC   C32 5166   5.458   6.309   6.399  0.9096  0.2554 -0.3253
   64SAPC   H2X 5167   5.535   6.386   6.423 -1.0750  2.7825 -1.6028
   64SAPC   H2Y 5168   5.378   6.360   6.341 -0.5034  0.0654  1.3612
   64SAPC   C23 5169   4.744   6.359   6.298 -0.9194  0.2408 -0.7120
   64SAPC   H3R 5170   4.802   6.409   6.217  0.9605  1.2860  1.1655
   64SAPC   H3S 5171   4.713   6.439   6.369  0.4474 -0.8860  1.2813
   64SAPC   C24 5172   4.626   6.273   6.247  0.0324 -0.4071  0.1959
   64SAPC   H4R 5173   4.584   6.208   6.327  1.2776 -1.8436 -0.2519
   64SAPC   H4S 5174   4.673   6.196   6.182  1.5567  1.9681 -1.6845
   64SAPC   C25 5175   4.530   6.366   6.173 -0.3757 -0.2596  0.2496
   64SAPC   H5R 5176   4.466   6.439   6.225 -0.1800  0.8498 -1.0080
   64SAPC   C26 5177   4.505   6.366   6.035  0.4587  0.1410 -0.5370
   64SAPC   H6R 5178   4.417   6.425   6.005 -1.4523 -2.0057  0.5184
   64SAPC   C27 5179   4.585   6.287   5.934 -0.0801  0.3220  0.1325
   64SAPC   H7R 5180   4.516   6.215   5.885 -0.9567  0.8443  0.5533
   64SAPC   H7S 5181   4.665   6.224   5.978 -0.2689 -1.5329 -2.0217
   64SAPC   C28 5182   4.644   6.382   5.837  0.2030 -0.2368  0.9005
   64SAPC   H8R 5183   4.738   6.416   5.884  0.1062 -2.2921  2.7400
   64SAPC   C29 5184   4.588   6.422   5.721 -0.3359 -0.2821  0.8931
   64SAPC   H9R 5185   4.637   6.508   5.672 -0.1687  0.7894  2.8573
   64SAPC  C210 5186   4.467   6.373   5.645 -0.2682  0.3667 -0.1670
   64SAPC  H10R 5187   4.452   6.263   5.655  1.1053 -0.1680 -2.8335
   64SAPC  H10S 5188   4.497   6.376   5.538  0.9859 -1.6250  0.0820
   64SAPC  C211 5189   4.335   6.442   5.654  0.9880 -0.8628 -0.1874
   64SAPC  H11R 5190   4.332   6.481   5.757  1.5445 -0.3000 -0.3776
   64SAPC  C212 5191   4.221   6.441   5.574 -0.1588 -0.5363  0.1303
   64SAPC  H12R 5192   4.133   6.496   5.612  0.2652  2.4884 -2.7252
   64SAPC  C213 5193   4.204   6.392   5.435 -0.4681 -0.3148  0.6409
   64SAPC  H13R 5194   4.299   6.397   5.379 -1.0137  0.9946 -0.2266
   64SAPC  H13S 5195   4.131   6.457   5.382 -0.1328 -0.2633  0.2453
   64SAPC  C214 5196   4.158   6.252   5.417  0.1821  0.4880 -0.1918
   64SAPC  H14R 5197   4.222   6.191   5.482  0.2501  0.9067  0.1413
   64SAPC  C215 5198   4.059   6.199   5.339  0.0873 -0.2945  0.2808
   64SAPC  H15R 5199   4.047   6.089   5.333  1.9470 -0.4527 -3.0324
   64SAPC  C216 5200   3.971   6.280   5.242  0.3517  0.6509 -0.2470
   64SAPC  H16R 5201   3.983   6.390   5.253 -1.7156  0.8895  0.0419
   64SAPC  H16S 5202   3.860   6.271   5.246  0.4561 -0.6731 -0.0223
   64SAPC  C217 5203   4.003   6.263   5.093  0.3219  0.0146  0.6644
   64SAPC  H17R 5204   3.929   6.327   5.040  0.4083 -0.2659  0.1986
   64SAPC  H17S 5205   3.976   6.158   5.066  0.0718 -0.3103  2.1256
   64SAPC  C218 5206   4.149   6.312   5.057 -0.1660 -0.5046  0.1510
   64SAPC  H18R 5207   4.209   6.249   5.126 -1.2159 -1.5392  0.1484
   64SAPC  H18S 5208   4.165   6.417   5.090 -0.1492  0.2074 -1.9669
   64SAPC  C219 5209   4.189   6.298   4.910 -0.9565 -0.4077  0.3166
   64SAPC  H19R 5210   4.155   6.379   4.841 -0.2727  0.6224  1.1654
   64SAPC  H19S 5211   4.147   6.201   4.874 -0.8629 -0.3734  0.1172
   64SAPC  C220 5212   4.342   6.293   4.882  0.5675 -0.8099  0.3118
   64SAPC  H20R 5213   4.366   6.245   4.784 -0.2103  1.8094 -1.2768
   64SAPC  H20S 5214   4.388   6.232   4.962  0.8817  0.4981  1.1503
   64SAPC  H20T 5215   4.392   6.391   4.897 -0.3546 -0.2847  0.0467
   64SAPC   C33 5216   5.531   6.194   6.328 -0.2322 -0.4833  0.4557
   64SAPC   H3X 5217   5.465   6.106   6.310 -0.2804 -0.5294  0.8480
   64SAPC   H3Y 5218   5.618   6.151   6.383  2.1451  2.1524 -1.0160
   64SAPC   C34 5219   5.575   6.254   6.196  0.1012 -0.4841 -1.0780
   64SAPC   H4X 5220   5.644   6.337   6.222  0.9948 -1.6302  0.4030
   64SAPC   H4Y 5221   5.499   6.309   6.138 -0.3803 -0.2888 -0.2693
   64SAPC   C35 5222   5.642   6.145   6.107  0.3153 -0.2584 -0.8182
   64SAPC   H5X 5223   5.549   6.090   6.080 -2.4575  3.3160  0.6139
   64SAPC   H5Y 5224   5.705   6.077   6.168 -1.8054  0.5919  2.5979
   64SAPC   C36 5225   5.711   6.202   5.982 -0.5434  0.2753 -0.3510
   64SAPC   H6X 5226   5.807   6.245   6.020 -0.5181 -1.3275  1.5307
   64SAPC   H6Y 5227   5.655   6.289   5.944 -1.6260  1.1577  2.9516
   64SAPC   C37 5228   5.734   6.096   5.870  0.0230 -0.3092  0.3568
   64SAPC   H7X 5229   5.631   6.077   5.833 -0.6907 -2.6244  3.1560
   64SAPC   H7Y 5230   5.781   6.003   5.908 -0.8762 -1.8087 -2.0004
   64SAPC   C38 5231   5.823   6.138   5.756  0.2282 -0.2986 -0.0638
   64SAPC   H8X 5232   5.925   6.150   5.799  0.3082 -2.1233  0.3325
   64SAPC   H8Y 5233   5.777   6.235   5.727 -0.3737  0.3833  2.8790
   64SAPC   C39 5234   5.834   6.044   5.634 -0.1502 -0.6393 -0.4382
   64SAPC   H9X 5235   5.726   6.030   5.613 -0.5640  1.3406  0.1727
   64SAPC   H9Y 5236   5.887   5.957   5.679 -1.8554 -1.7055 -0.3925
   64SAPC  C310 5237   5.919   6.107   5.519  0.1863  0.2919  0.3306
   64SAPC  H10X 5238   5.956   6.030   5.448  2.3285  1.4594  0.0826
   64SAPC  H10Y 5239   6.008   6.161   5.558  0.5409 -1.1482  1.5759
   64SAPC  C311 5240   5.835   6.216   5.445  0.3958  0.6081  0.0561
   64SAPC  H11X 5241   5.832   6.310   5.504 -1.2916  0.1360  0.8007
   64SAPC  H11Y 5242   5.730   6.184   5.427 -0.8460  3.8503  0.8968
   64SAPC  C312 5243   5.907   6.257   5.313  0.7331 -0.2680  0.3986
   64SAPC  H12X 5244   5.917   6.172   5.242  0.7229  0.4407 -0.4657
   64SAPC  H12Y 5245   6.008   6.304   5.322  0.8181 -0.3525 -0.0846
   64SAPC  C313 5246   5.831   6.370   5.230  0.3183 -0.2918 -0.1846
   64SAPC  H13X 5247   5.824   6.464   5.288 -1.4727  0.5321 -1.6318
   64SAPC  H13Y 5248   5.731   6.331   5.202  0.6061 -1.1953  0.0168
   64SAPC  C314 5249   5.910   6.403   5.099 -0.3490  0.0614 -0.0686
   64SAPC  H14X 5250   5.907   6.316   5.031 -2.8515  0.1870 -0.1984
   64SAPC  H14Y 5251   6.018   6.402   5.126 -0.3539 -3.9702  0.3666
   64SAPC  C315 5252   5.863   6.536   5.046 -0.6826  0.9659  1.1551
   64SAPC  H15X 5253   5.908   6.544   4.944 -1.7045  2.1488  0.7602
   64SAPC  H15Y 5254   5.901   6.628   5.095 -0.6686  0.9688  1.1384
   64SAPC  C316 5255   5.716   6.538   5.017  0.0395 -0.1724 -0.5221
   64SAPC  H16X 5256   5.655   6.530   5.110  0.4158 -0.2434 -0.2809
   64SAPC  H16Y 5257   5.696   6.440   4.969 -0.3343 -1.1113  1.4353
   64SAPC  C317 5258   5.667   6.660   4.944 -0.9302  0.4304 -0.2795
   64SAPC  H17X 5259   5.739   6.708   4.875 -1.2480 -0.7337 -1.4706
   64SAPC  H17Y 5260   5.646   6.744   5.014 -1.3003 -1.1087  1.5519
   64SAPC  C318 5261   5.539   6.626   4.869 -0.3281  0.3080  0.1318
   64SAPC  H18X 5262   5.576   6.565   4.784 -3.2229 -0.5464 -0.6194
   64SAPC  H18Y 5263   5.492   6.714   4.822  0.8303  1.3801  0.9163
   64SAPC  H18Z 5264   5.484   6.561   4.940  0.6444 -1.0035 -0.2765
   65SAPC     N 5265   2.400   6.062   2.576  0.4592  0.1392  0.5399
   65SAPC   C12 5266   2.478   6.024   2.702  0.3639 -0.0052 -0.7303
   65SAPC  H12A 5267   2.431   5.940   2.752 -0.3189  0.9531  0.2970
   65SAPC  H12B 5268   2.473   6.096   2.783 -0.2022 -2.5058  1.6239
   65SAPC   C13 5269   2.417   5.964   2.462  0.1552 -0.1470  0.1047
   65SAPC  H13A 5270   2.522   5.967   2.438 -0.0445  0.6374 -0.7156
   65SAPC  H13B 5271   2.386   5.868   2.501 -0.6786 -0.0314 -0.2535
   65SAPC  H13C 5272   2.362   5.991   2.373 -2.2351 -1.0560  1.2104
   65SAPC   C14 5273   2.253   6.054   2.603 -0.2496  0.0324  0.5746
   65SAPC  H14A 5274   2.228   6.118   2.687  0.9743 -0.4150  1.3089
   65SAPC  H14B 5275   2.194   6.092   2.521 -3.5329 -2.4788  1.5522
   65SAPC  H14C 5276   2.222   5.955   2.634  0.8562  0.0010  1.6929
   65SAPC   C15 5277   2.431   6.204   2.537 -0.4393  0.2687 -0.2427
   65SAPC  H15A 5278   2.406   6.268   2.620 -4.2356  0.2114 -1.1349
   65SAPC  H15B 5279   2.535   6.203   2.510 -0.9176  0.3379 -2.2401
   65SAPC  H15C 5280   2.380   6.231   2.445 -0.0582  1.2704 -0.1728
   65SAPC   C11 5281   2.627   5.988   2.700 -0.8137 -0.1430  0.2548
   65SAPC  H11A 5282   2.676   5.988   2.799 -2.3774 -0.1572  1.0498
   65SAPC  H11B 5283   2.678   6.067   2.641 -0.8837 -1.1412 -1.2088
   65SAPC     P 5284   2.645   5.722   2.697  0.2032  0.1255  0.5130
   65SAPC   O13 5285   2.519   5.718   2.767  0.1349  0.7944 -0.1631
   65SAPC   O14 5286   2.656   5.618   2.593  0.2114  0.5804  0.3665
   65SAPC   O12 5287   2.667   5.868   2.636  0.4772 -0.2083  0.0777
   65SAPC   O11 5288   2.761   5.700   2.801 -0.0137  0.4375  0.1739
   65SAPC    C1 5289   2.900   5.726   2.788 -0.7601  0.0086  0.7846
   65SAPC    HA 5290   2.961   5.650   2.735  0.7796  0.3378  2.0171
   65SAPC    HB 5291   2.911   5.818   2.727  0.0735  0.0773  1.0304
   65SAPC    C2 5292   2.964   5.760   2.927 -0.4108  0.5969 -0.2586
   65SAPC    HS 5293   2.951   5.664   2.980 -0.5444  0.2365 -0.9299
   65SAPC   O21 5294   2.896   5.871   2.979  0.2293  0.2087  0.4211
   65SAPC   C21 5295   2.853   5.859   3.107  0.5385  0.2370  1.0839
   65SAPC   O22 5296   2.863   5.757   3.173 -0.1323  0.3857 -0.3906
   65SAPC   C22 5297   2.775   5.973   3.157  0.3463 -0.1787 -0.1280
   65SAPC   H2R 5298   2.778   6.061   3.089 -3.3878  0.7301  0.6066
   65SAPC   H2S 5299   2.670   5.936   3.153  0.1750  0.0513  1.5888
   65SAPC    C3 5300   3.113   5.794   2.920  0.0057  0.2852  1.1877
   65SAPC    HX 5301   3.123   5.880   2.851 -2.1509 -0.7717 -0.5620
   65SAPC    HY 5302   3.169   5.705   2.882 -0.5941  0.1939  0.4970
   65SAPC   O31 5303   3.170   5.827   3.046  0.4119  0.1192  0.1316
   65SAPC   C31 5304   3.203   5.730   3.133 -0.6923  0.0922 -0.2898
   65SAPC   O32 5305   3.183   5.612   3.116  0.4132  0.2238  0.2202
   65SAPC   C32 5306   3.264   5.789   3.261  0.9577  0.4687 -0.0228
   65SAPC   H2X 5307   3.173   5.834   3.307  0.7186 -0.3561  0.3199
   65SAPC   H2Y 5308   3.326   5.877   3.234 -0.1588  1.5579  0.8055
   65SAPC   C23 5309   2.818   6.010   3.295 -0.1854  0.1556 -0.0634
   65SAPC   H3R 5310   2.926   6.035   3.308  0.0026 -1.1084  0.9491
   65SAPC   H3S 5311   2.810   5.930   3.372  3.5185 -0.5324 -0.1797
   65SAPC   C24 5312   2.736   6.127   3.351  0.0615 -0.5962 -0.5182
   65SAPC   H4R 5313   2.715   6.209   3.280  0.8604  0.7469  0.7357
   65SAPC   H4S 5314   2.798   6.174   3.431 -1.3269  1.4300 -0.5709
   65SAPC   C25 5315   2.608   6.075   3.408 -0.4464 -0.0862 -0.2862
   65SAPC   H5R 5316   2.529   6.062   3.332  0.6819 -0.9843 -1.3659
   65SAPC   C26 5317   2.583   6.038   3.535  0.5382 -0.4296  0.1591
   65SAPC   H6R 5318   2.490   5.989   3.568  0.9137 -1.6448 -0.5286
   65SAPC   C27 5319   2.676   6.054   3.652 -0.7180  0.6732  0.6017
   65SAPC   H7R 5320   2.780   6.063   3.616 -0.2557 -0.2200  1.6532
   65SAPC   H7S 5321   2.680   5.959   3.709  1.4323  0.7102  0.5673
   65SAPC   C28 5322   2.648   6.170   3.737 -0.4855  0.4237 -0.9932
   65SAPC   H8R 5323   2.685   6.266   3.699  1.6326 -0.6031 -1.6458
   65SAPC   C29 5324   2.596   6.172   3.866 -0.1623  0.1271  0.5799
   65SAPC   H9R 5325   2.555   6.264   3.910  2.1634  0.5907  1.9664
   65SAPC  C210 5326   2.553   6.048   3.938 -0.4964  0.5715  0.5288
   65SAPC  H10R 5327   2.609   5.958   3.904 -2.4399 -0.6415  0.3768
   65SAPC  H10S 5328   2.448   6.020   3.915 -0.0092  0.0100 -1.1778
   65SAPC  C211 5329   2.569   6.049   4.086 -0.1344 -0.9283  0.0662
   65SAPC  H11R 5330   2.675   6.067   4.109 -0.2903 -0.0574  0.1191
   65SAPC  C212 5331   2.470   6.055   4.176  0.5463  0.1530 -0.4218
   65SAPC  H12R 5332   2.485   6.053   4.285  1.2473  0.0446 -0.5167
   65SAPC  C213 5333   2.324   6.061   4.150 -0.2576 -0.6678 -0.4561
   65SAPC  H13R 5334   2.281   5.959   4.148 -0.2162 -0.6844 -1.7979
   65SAPC  H13S 5335   2.305   6.124   4.060 -2.8191 -0.9494 -0.2089
   65SAPC  C214 5336   2.252   6.143   4.256  0.7013  0.3077  0.3774
   65SAPC  H14R 5337   2.298   6.242   4.267  1.2571  0.0483  0.4063
   65SAPC  C215 5338   2.128   6.115   4.296 -0.1122  0.3551  0.1149
   65SAPC  H15R 5339   2.094   6.179   4.379 -2.1038 -2.0927  1.3479
   65SAPC  C216 5340   2.045   5.985   4.276 -0.0238 -0.1264 -0.0021
   65SAPC  H16R 5341   1.972   5.980   4.360 -0.3411 -1.2025 -0.3246
   65SAPC  H16S 5342   2.112   5.898   4.294  0.1796  0.1738  0.7351
   65SAPC  C217 5343   1.964   5.943   4.149  0.2442 -0.0297 -0.5889
   65SAPC  H17R 5344   1.883   6.018   4.136  1.3112  1.4804  1.0139
   65SAPC  H17S 5345   1.914   5.846   4.168 -2.1949  1.3583  0.6482
   65SAPC  C218 5346   2.054   5.929   4.024  0.5014 -0.3078  0.1222
   65SAPC  H18R 5347   2.135   5.853   4.031  0.6733 -0.1147  0.2532
   65SAPC  H18S 5348   2.111   6.023   4.006 -2.0971  1.1941 -0.6490
   65SAPC  C219 5349   1.972   5.880   3.902  0.0196  0.0199  0.5625
   65SAPC  H19R 5350   1.870   5.923   3.906  1.4226  3.6987  0.7758
   65SAPC  H19S 5351   1.964   5.771   3.918  0.7495  0.0772  1.4095
   65SAPC  C220 5352   2.047   5.909   3.777  0.8768  0.2492 -0.4486
   65SAPC  H20R 5353   2.146   5.860   3.786 -0.8509 -4.4209 -3.2909
   65SAPC  H20S 5354   2.054   6.018   3.757  0.2579 -0.0716 -2.6354
   65SAPC  H20T 5355   1.998   5.859   3.690  2.2086 -1.5679 -0.2059
   65SAPC   C33 5356   3.314   5.689   3.365  0.3853  0.3986  0.3412
   65SAPC   H3X 5357   3.406   5.635   3.337 -0.4744 -0.6307 -0.5816
   65SAPC   H3Y 5358   3.240   5.606   3.378  0.6152  0.2898  1.0293
   65SAPC   C34 5359   3.359   5.753   3.496  0.7843 -0.0504  0.3104
   65SAPC   H4X 5360   3.276   5.785   3.562 -0.0641 -1.3511 -0.0902
   65SAPC   H4Y 5361   3.439   5.829   3.482 -1.5531  2.5977  0.4479
   65SAPC   C35 5362   3.441   5.648   3.579  0.3334 -0.1471 -0.2385
   65SAPC   H5X 5363   3.535   5.630   3.523  0.4991  1.2071 -0.4444
   65SAPC   H5Y 5364   3.380   5.557   3.594 -1.4274  0.9407 -0.4288
   65SAPC   C36 5365   3.474   5.700   3.721  0.3794  0.3352  0.8843
   65SAPC   H6X 5366   3.382   5.719   3.781 -0.9835 -1.6893 -0.4744
   65SAPC   H6Y 5367   3.526   5.799   3.719  0.3626  0.3772 -2.2872
   65SAPC   C37 5368   3.555   5.590   3.792 -0.2941 -0.2173 -0.0682
   65SAPC   H7X 5369   3.647   5.578   3.731 -0.1154  0.6616  0.0049
   65SAPC   H7Y 5370   3.495   5.497   3.790 -0.5108 -0.0645 -1.2883
   65SAPC   C38 5371   3.582   5.619   3.939  0.4779 -0.0030  0.5766
   65SAPC   H8X 5372   3.481   5.639   3.982 -0.5162 -2.6640 -0.3062
   65SAPC   H8Y 5373   3.629   5.720   3.940  2.7603 -0.9568 -1.5115
   65SAPC   C39 5374   3.648   5.505   4.016  0.4953  0.0175 -0.3286
   65SAPC   H9X 5375   3.622   5.407   3.972  1.2011 -1.1806  1.7728
   65SAPC   H9Y 5376   3.623   5.507   4.124  1.0248  1.0136 -0.2095
   65SAPC  C310 5377   3.801   5.490   4.007  0.6175 -0.6908  0.0033
   65SAPC  H10X 5378   3.815   5.495   3.897 -0.4992 -0.8937 -0.1540
   65SAPC  H10Y 5379   3.825   5.386   4.038 -4.1317 -2.7142 -2.1389
   65SAPC  C311 5380   3.878   5.596   4.077  0.2936 -0.0057  0.0192
   65SAPC  H11X 5381   3.850   5.607   4.184 -1.6856 -0.9654 -0.3440
   65SAPC  H11Y 5382   3.861   5.691   4.022  0.4517  0.6246  1.0267
   65SAPC  C312 5383   4.026   5.569   4.072  0.0510  0.1250  0.1204
   65SAPC  H12X 5384   4.062   5.531   3.974  0.6526 -0.6674  0.6350
   65SAPC  H12Y 5385   4.049   5.486   4.143  0.8246 -1.3894 -1.8227
   65SAPC  C313 5386   4.106   5.690   4.118  0.0047 -0.6800 -0.5646
   65SAPC  H13X 5387   4.101   5.766   4.036 -0.7894 -1.1282 -0.9510
   65SAPC  H13Y 5388   4.211   5.658   4.134 -0.1226 -1.3937 -1.1532
   65SAPC  C314 5389   4.063   5.743   4.254  0.2037 -0.6566  0.1039
   65SAPC  H14X 5390   4.076   5.660   4.326  1.2189 -0.8362 -0.2764
   65SAPC  H14Y 5391   3.956   5.772   4.267  0.2920 -0.9575  1.7340
   65SAPC  C315 5392   4.150   5.864   4.290  0.2493 -0.0941 -0.9233
   65SAPC  H15X 5393   4.140   5.954   4.225  0.1354  2.6825  2.6259
   65SAPC  H15Y 5394   4.253   5.826   4.298  0.2621  0.1662  0.4764
   65SAPC  C316 5395   4.102   5.929   4.426 -0.5912  0.6356  0.4012
   65SAPC  H16X 5396   4.107   5.856   4.509 -0.7119 -2.2518 -1.9503
   65SAPC  H16Y 5397   3.995   5.951   4.408 -0.6076 -0.2693 -0.7255
   65SAPC  C317 5398   4.190   6.051   4.462 -0.1176  0.0636 -0.5029
   65SAPC  H17X 5399   4.126   6.110   4.531  0.5783 -0.4266  0.6043
   65SAPC  H17Y 5400   4.218   6.111   4.373  0.4205 -1.1870 -1.1954
   65SAPC  C318 5401   4.317   6.006   4.540 -0.0406  0.4330  0.6149
   65SAPC  H18X 5402   4.373   6.096   4.573  0.4847 -0.2659  1.6670
   65SAPC  H18Y 5403   4.382   5.941   4.478  0.9360  1.1222  0.8996
   65SAPC  H18Z 5404   4.293   5.950   4.632  3.9710 -0.2126  1.4491
   66SAPC     N 5405   1.969   4.068   2.264 -0.0127  0.1991  0.3889
   66SAPC   C12 5406   2.005   4.060   2.412 -0.1632 -0.2444  0.2989
   66SAPC  H12A 5407   1.967   3.964   2.441 -0.4439 -0.4701 -0.7564
   66SAPC  H12B 5408   1.946   4.134   2.464 -1.8396 -0.5916 -1.0068
   66SAPC   C13 5409   1.821   4.052   2.244  1.0893  0.2539 -0.0705
   66SAPC  H13A 5410   1.765   4.103   2.320  0.1221 -3.4430  1.9421
   66SAPC  H13B 5411   1.792   4.070   2.142  2.1471 -1.0157 -0.6373
   66SAPC  H13C 5412   1.796   3.949   2.266 -0.9776  0.3460 -1.7480
   66SAPC   C14 5413   2.018   4.191   2.190 -0.0709  0.0579 -0.0680
   66SAPC  H14A 5414   2.125   4.180   2.177  0.0517 -1.2333  1.6822
   66SAPC  H14B 5415   1.971   4.190   2.093 -0.1004 -2.5150 -0.0859
   66SAPC  H14C 5416   1.993   4.277   2.250  0.8708 -0.0196  0.4561
   66SAPC   C15 5417   2.028   3.950   2.190 -0.2659 -0.1915 -0.1092
   66SAPC  H15A 5418   2.132   3.942   2.218 -0.1475 -2.3156 -0.9270
   66SAPC  H15B 5419   1.972   3.866   2.228  1.2387  0.1505  3.2224
   66SAPC  H15C 5420   2.021   3.966   2.084  1.1691  3.2985  0.2159
   66SAPC   C11 5421   2.153   4.085   2.455  0.1228  0.9953  0.3899
   66SAPC  H11A 5422   2.230   4.020   2.409  1.0478  1.6009  1.0619
   66SAPC  H11B 5423   2.159   4.054   2.562  1.9221  0.8935  0.2860
   66SAPC     P 5424   2.136   4.335   2.518  0.3940 -0.2530 -0.4254
   66SAPC   O13 5425   2.176   4.466   2.455  0.3836 -0.3307 -0.2572
   66SAPC   O14 5426   1.992   4.315   2.543 -0.5584  0.6923  0.0500
   66SAPC   O12 5427   2.193   4.218   2.435 -0.5502  0.2674  0.1690
   66SAPC   O11 5428   2.210   4.337   2.657  0.0854  0.5080  0.2114
   66SAPC    C1 5429   2.347   4.324   2.661  0.0196 -0.3834 -0.2292
   66SAPC    HA 5430   2.377   4.230   2.611 -1.5956 -0.2298 -1.5368
   66SAPC    HB 5431   2.406   4.405   2.612  0.3380 -0.7690 -0.4853
   66SAPC    C2 5432   2.385   4.312   2.811 -0.3446 -0.0912  0.5341
   66SAPC    HS 5433   2.489   4.273   2.817  0.5289  2.0762  0.6558
   66SAPC   O21 5434   2.286   4.226   2.879 -0.1428 -0.2169 -0.7904
   66SAPC   C21 5435   2.287   4.099   2.846 -0.4010 -0.0864 -0.3638
   66SAPC   O22 5436   2.371   4.049   2.767  0.0452  0.1417 -0.5851
   66SAPC   C22 5437   2.183   4.025   2.937  0.3323  0.1695 -0.0661
   66SAPC   H2R 5438   2.087   4.081   2.944  1.2494  1.6237  1.7955
   66SAPC   H2S 5439   2.149   3.926   2.900 -0.7927 -0.5195  2.5880
   66SAPC    C3 5440   2.385   4.442   2.896  0.2265 -0.4358 -0.6243
   66SAPC    HX 5441   2.278   4.472   2.895  0.1494 -0.7104 -1.5455
   66SAPC    HY 5442   2.448   4.509   2.833  0.5614 -0.0402  0.1127
   66SAPC   O31 5443   2.452   4.441   3.018  0.9470  0.3159 -0.3043
   66SAPC   C31 5444   2.385   4.390   3.125 -0.7965 -0.0523 -0.5649
   66SAPC   O32 5445   2.269   4.363   3.120  0.1737 -0.5664  0.1784
   66SAPC   C32 5446   2.468   4.380   3.254  0.3575 -0.6980 -0.1369
   66SAPC   H2X 5447   2.467   4.482   3.298  0.1719 -0.7958  0.0884
   66SAPC   H2Y 5448   2.565   4.349   3.209  0.2724  0.4093 -1.1287
   66SAPC   C23 5449   2.238   4.000   3.075  0.4114 -0.6765  0.1658
   66SAPC   H3R 5450   2.300   4.087   3.106  0.9452 -0.6899 -0.8369
   66SAPC   H3S 5451   2.298   3.907   3.087  0.1169 -0.7705  1.0080
   66SAPC   C24 5452   2.131   3.999   3.180  0.4289 -0.1739  0.3955
   66SAPC   H4R 5453   2.082   4.097   3.196  2.7703  1.2176 -0.5183
   66SAPC   H4S 5454   2.189   3.978   3.272  0.4919  1.1520  0.6655
   66SAPC   C25 5455   2.031   3.889   3.143 -0.3475  0.4766  0.0766
   66SAPC   H5R 5456   1.990   3.890   3.041  1.7442  1.0065 -0.8290
   66SAPC   C26 5457   2.001   3.777   3.211  0.6929  0.2617 -0.7591
   66SAPC   H6R 5458   1.926   3.707   3.171 -1.5677  1.4262  1.1547
   66SAPC   C27 5459   2.068   3.742   3.341  0.7240  0.6497 -0.0600
   66SAPC   H7R 5460   2.174   3.775   3.342  1.7976 -2.4432 -0.0851
   66SAPC   H7S 5461   2.079   3.632   3.352  0.6404  0.5855 -0.5826
   66SAPC   C28 5462   2.004   3.796   3.462 -1.0656  0.5778  0.3475
   66SAPC   H8R 5463   2.008   3.906   3.460  2.8060  0.6402 -3.3219
   66SAPC   C29 5464   1.959   3.726   3.567  0.1753 -0.1393 -0.6978
   66SAPC   H9R 5465   1.912   3.796   3.638 -1.2023 -1.9880  0.2909
   66SAPC  C210 5466   1.948   3.580   3.609  0.0054  0.0093  0.0232
   66SAPC  H10R 5467   1.905   3.563   3.710  1.8312 -3.1582  0.4037
   66SAPC  H10S 5468   2.050   3.539   3.621 -0.0966 -0.0058  0.9159
   66SAPC  C211 5469   1.877   3.497   3.500  0.2564  0.5344 -0.2028
   66SAPC  H11R 5470   1.844   3.559   3.415 -1.6355  0.3148  0.3419
   66SAPC  C212 5471   1.848   3.367   3.506 -0.1652  0.6607  0.0446
   66SAPC  H12R 5472   1.780   3.326   3.430 -0.8277 -0.1227  1.0243
   66SAPC  C213 5473   1.874   3.259   3.612  0.0677 -0.6296  0.6403
   66SAPC  H13R 5474   1.966   3.285   3.669  1.8139 -4.3327 -0.1724
   66SAPC  H13S 5475   1.908   3.169   3.556 -0.3911 -0.9434  0.8615
   66SAPC  C214 5476   1.762   3.230   3.709 -0.3875 -0.3948  0.0260
   66SAPC  H14R 5477   1.683   3.162   3.674 -0.9822 -0.4923  1.4982
   66SAPC  C215 5478   1.763   3.266   3.837 -0.0641 -0.5253  0.2280
   66SAPC  H15R 5479   1.670   3.231   3.886 -0.6306 -1.2164 -1.2911
   66SAPC  C216 5480   1.846   3.358   3.919 -0.5299  0.0378  1.2173
   66SAPC  H16R 5481   1.794   3.446   3.963 -1.3654  0.9951 -1.4737
   66SAPC  H16S 5482   1.926   3.392   3.850 -0.0354 -2.3334  0.5532
   66SAPC  C217 5483   1.905   3.286   4.049 -0.0349  0.1221 -0.1814
   66SAPC  H17R 5484   1.971   3.359   4.101  0.6194 -0.3261 -0.3687
   66SAPC  H17S 5485   1.975   3.205   4.017  0.9070  0.7288  0.3096
   66SAPC  C218 5486   1.790   3.229   4.137 -0.0184  0.2932 -0.2903
   66SAPC  H18R 5487   1.751   3.141   4.083  0.8678 -0.3443  0.0795
   66SAPC  H18S 5488   1.720   3.314   4.151 -1.8121 -1.2951  0.7418
   66SAPC  C219 5489   1.845   3.168   4.268 -0.5051  0.1825 -0.3833
   66SAPC  H19R 5490   1.917   3.242   4.310 -0.7994  2.0667 -2.9635
   66SAPC  H19S 5491   1.912   3.085   4.236 -1.2488 -0.0882 -1.2709
   66SAPC  C220 5492   1.735   3.130   4.360 -0.3439  0.1170  0.1981
   66SAPC  H20R 5493   1.768   3.102   4.462 -1.6325 -0.5436  0.4416
   66SAPC  H20S 5494   1.671   3.052   4.314  1.2780 -0.5741 -0.9810
   66SAPC  H20T 5495   1.675   3.223   4.367 -1.1767 -0.3203 -0.9017
   66SAPC   C33 5496   2.409   4.271   3.346 -0.3810  0.0140  0.5610
   66SAPC   H3X 5497   2.391   4.176   3.292  0.7059  0.2414 -0.2266
   66SAPC   H3Y 5498   2.310   4.302   3.386 -0.3582  0.7192  0.0791
   66SAPC   C34 5499   2.492   4.257   3.481 -0.4662  0.0701 -0.1096
   66SAPC   H4X 5500   2.509   4.363   3.510  0.8797 -0.1210 -0.1342
   66SAPC   H4Y 5501   2.589   4.205   3.463  0.4274  2.1063 -1.5144
   66SAPC   C35 5502   2.409   4.178   3.587 -0.0805  0.6901  0.2761
   66SAPC   H5X 5503   2.397   4.075   3.548  2.6333  0.8228 -1.1969
   66SAPC   H5Y 5504   2.308   4.225   3.589 -0.2755  0.5782 -2.4712
   66SAPC   C36 5505   2.488   4.181   3.717  0.6442  0.2368  0.2017
   66SAPC   H6X 5506   2.423   4.157   3.804 -0.3268 -0.9121 -0.7961
   66SAPC   H6Y 5507   2.530   4.283   3.728  2.8707 -0.5211 -0.6616
   66SAPC   C37 5508   2.600   4.086   3.718  0.1541 -0.0020  0.3543
   66SAPC   H7X 5509   2.663   4.102   3.628 -0.2611  0.3658  0.1269
   66SAPC   H7Y 5510   2.561   3.982   3.719  0.6254 -0.2465 -1.7884
   66SAPC   C38 5511   2.690   4.104   3.843 -0.8540  0.0621  0.3186
   66SAPC   H8X 5512   2.733   4.206   3.853  0.4403 -0.3610 -0.6001
   66SAPC   H8Y 5513   2.782   4.041   3.831 -0.6585  0.3647  0.2225
   66SAPC   C39 5514   2.620   4.070   3.977  0.1722 -0.5827 -0.7893
   66SAPC   H9X 5515   2.556   3.981   3.961 -0.4772 -0.6426  1.7171
   66SAPC   H9Y 5516   2.560   4.149   4.026  0.1513 -1.0391 -0.0690
   66SAPC  C310 5517   2.715   4.015   4.084 -0.9964  0.2129  0.3468
   66SAPC  H10X 5518   2.807   4.076   4.088  0.5893 -2.0237 -0.2336
   66SAPC  H10Y 5519   2.756   3.921   4.041  0.2828  1.8849 -2.3527
   66SAPC  C311 5520   2.658   4.001   4.225 -0.1019  0.1203  0.0804
   66SAPC  H11X 5521   2.577   3.924   4.223 -0.2910  0.3233 -1.4906
   66SAPC  H11Y 5522   2.621   4.102   4.255 -0.3766 -0.0679  0.3802
   66SAPC  C312 5523   2.758   3.961   4.333 -0.2933  0.1330 -0.5543
   66SAPC  H12X 5524   2.861   3.993   4.307  0.7741 -1.7122  1.1010
   66SAPC  H12Y 5525   2.772   3.851   4.322 -2.7160 -0.2024 -0.8701
   66SAPC  C313 5526   2.722   3.993   4.476 -0.0939 -0.4784  0.7127
   66SAPC  H13X 5527   2.779   3.926   4.544  0.7398 -0.9686 -0.4246
   66SAPC  H13Y 5528   2.617   3.961   4.491 -1.0030  2.1579  0.4514
   66SAPC  C314 5529   2.744   4.144   4.511 -0.2881  0.2453  0.5096
   66SAPC  H14X 5530   2.690   4.214   4.444  0.0411  0.0660  0.0485
   66SAPC  H14Y 5531   2.853   4.156   4.491 -0.1341 -2.0495 -0.4345
   66SAPC  C315 5532   2.727   4.167   4.662  0.5410  0.2015 -0.2075
   66SAPC  H15X 5533   2.786   4.085   4.708  1.1052  0.9744  0.4804
   66SAPC  H15Y 5534   2.620   4.154   4.688 -0.0040 -0.2419 -2.4615
   66SAPC  C316 5535   2.784   4.297   4.709 -0.8290 -0.3307 -0.2947
   66SAPC  H16X 5536   2.731   4.382   4.662  0.2769  0.8097  0.4605
   66SAPC  H16Y 5537   2.893   4.293   4.687 -0.3708 -0.1486  1.6897
   66SAPC  C317 5538   2.793   4.309   4.861  0.1591 -0.2714  1.0818
   66SAPC  H17X 5539   2.862   4.390   4.894  0.2782 -0.4087  1.1691
   66SAPC  H17Y 5540   2.827   4.218   4.915  0.3540 -1.3150 -0.7102
   66SAPC  C318 5541   2.654   4.344   4.924 -0.1753 -0.0540 -0.3921
   66SAPC  H18X 5542   2.569   4.296   4.871 -2.4910  3.3833 -0.1329
   66SAPC  H18Y 5543   2.630   4.453   4.919 -0.5123 -0.1703 -2.2250
   66SAPC  H18Z 5544   2.651   4.322   5.033 -0.0883 -0.3824 -0.4543
   67SAPC     N 5545   4.277   1.373   2.210  0.0444  0.1852  0.2392
   67SAPC   C12 5546   4.408   1.333   2.265  0.0236  0.3282  0.8269
   67SAPC  H12A 5547   4.485   1.330   2.190 -1.6724  1.7522 -1.0668
   67SAPC  H12B 5548   4.397   1.237   2.313  0.3157 -0.2541 -0.2345
   67SAPC   C13 5549   4.167   1.339   2.300  0.0585 -0.0042  0.4134
   67SAPC  H13A 5550   4.068   1.366   2.266 -1.3502 -0.8260  3.5446
   67SAPC  H13B 5551   4.158   1.234   2.323  2.4664 -0.0942  1.1710
   67SAPC  H13C 5552   4.178   1.398   2.390 -0.5175 -0.1625  0.5887
   67SAPC   C14 5553   4.277   1.520   2.177  0.1660 -0.1177  0.3283
   67SAPC  H14A 5554   4.178   1.540   2.140  0.0767  0.1870  0.7313
   67SAPC  H14B 5555   4.294   1.568   2.272 -0.7679 -0.2255  0.5538
   67SAPC  H14C 5556   4.348   1.557   2.105 -0.2284  0.4347  0.2220
   67SAPC   C15 5557   4.239   1.295   2.088 -0.3700 -0.0703  0.1403
   67SAPC  H15A 5558   4.272   1.193   2.104 -0.5974 -0.3488 -1.0741
   67SAPC  H15B 5559   4.132   1.300   2.079 -0.3641  1.0651  0.4999
   67SAPC  H15C 5560   4.285   1.337   2.000  0.0963  0.8245  0.7851
   67SAPC   C11 5561   4.469   1.413   2.382  0.2001 -0.4568  0.4107
   67SAPC  H11A 5562   4.409   1.421   2.474  0.6990 -2.5984  0.9720
   67SAPC  H11B 5563   4.491   1.516   2.346 -3.2261  1.8568  4.1464
   67SAPC     P 5564   4.624   1.235   2.501 -0.1024 -0.3559  0.1730
   67SAPC   O13 5565   4.544   1.128   2.451 -0.3074  0.4283  0.3549
   67SAPC   O14 5566   4.771   1.215   2.495  0.0645 -0.0522 -0.0903
   67SAPC   O12 5567   4.595   1.353   2.406  0.0357 -0.0706 -0.0828
   67SAPC   O11 5568   4.573   1.291   2.634  0.1134  0.9997 -0.4349
   67SAPC    C1 5569   4.634   1.401   2.703 -0.6580  0.3417 -0.0730
   67SAPC    HA 5570   4.745   1.391   2.712 -0.9130 -1.4920  2.1911
   67SAPC    HB 5571   4.614   1.490   2.639  1.4963  0.1342 -1.1465
   67SAPC    C2 5572   4.564   1.417   2.841  0.2424 -0.2072 -1.0852
   67SAPC    HS 5573   4.584   1.521   2.875  0.3566 -0.3972 -0.5588
   67SAPC   O21 5574   4.613   1.322   2.940  0.5922  0.1132 -0.2547
   67SAPC   C21 5575   4.741   1.329   2.971  0.0211 -0.6304  0.7004
   67SAPC   O22 5576   4.815   1.417   2.928  0.1113  0.9254  0.0302
   67SAPC   C22 5577   4.769   1.223   3.076  0.0563 -0.2586 -0.1680
   67SAPC   H2R 5578   4.779   1.127   3.021 -0.2887 -0.6532  0.4464
   67SAPC   H2S 5579   4.873   1.240   3.112  0.1894  0.0209 -0.6707
   67SAPC    C3 5580   4.412   1.398   2.832  0.6975  0.1547  0.0693
   67SAPC    HX 5581   4.394   1.289   2.821 -1.9641  0.6279 -1.0842
   67SAPC    HY 5582   4.375   1.447   2.739  1.6948 -1.8562 -1.4663
   67SAPC   O31 5583   4.343   1.447   2.948 -0.6905 -0.2861 -0.3756
   67SAPC   C31 5584   4.286   1.361   3.033  0.3116  0.1055 -0.2029
   67SAPC   O32 5585   4.300   1.238   3.028  0.1145 -0.0400 -0.4022
   67SAPC   C32 5586   4.190   1.433   3.132  0.0451  0.3303 -0.5069
   67SAPC   H2X 5587   4.217   1.400   3.234 -0.7935 -1.2815 -0.7717
   67SAPC   H2Y 5588   4.085   1.402   3.113  0.3975 -0.4311 -1.3174
   67SAPC   C23 5589   4.672   1.210   3.196 -0.2031  0.3451  0.3851
   67SAPC   H3R 5590   4.569   1.182   3.163  0.1004  1.6073 -1.7789
   67SAPC   H3S 5591   4.657   1.312   3.235 -0.2435  0.2943  0.5028
   67SAPC   C24 5592   4.738   1.114   3.299 -0.2273 -0.6580 -0.1351
   67SAPC   H4R 5593   4.687   1.124   3.397 -2.0129  1.9630 -1.2216
   67SAPC   H4S 5594   4.844   1.146   3.309  0.0178 -1.8199  1.4887
   67SAPC   C25 5595   4.727   0.974   3.251 -0.0636  0.0942 -0.0226
   67SAPC   H5R 5596   4.773   0.946   3.155  0.8529  1.1640  0.0804
   67SAPC   C26 5597   4.646   0.878   3.305  0.0219 -0.2346  0.0625
   67SAPC   H6R 5598   4.660   0.781   3.255 -2.6828  0.3617 -2.1555
   67SAPC   C27 5599   4.544   0.879   3.410  0.5500 -0.1078  0.2700
   67SAPC   H7R 5600   4.537   0.977   3.460  1.7726  0.8164 -1.2546
   67SAPC   H7S 5601   4.570   0.808   3.492 -2.8975 -1.0531  0.6869
   67SAPC   C28 5602   4.419   0.834   3.345 -0.0078  0.4302 -0.2617
   67SAPC   H8R 5603   4.412   0.727   3.317 -2.8701 -0.2837  2.6387
   67SAPC   C29 5604   4.320   0.916   3.299  0.4493 -1.0303 -0.0446
   67SAPC   H9R 5605   4.245   0.878   3.228  0.0194  0.8369 -0.6323
   67SAPC  C210 5606   4.307   1.065   3.318  0.2183  0.8568 -0.6479
   67SAPC  H10R 5607   4.272   1.104   3.220 -0.1435  0.6513 -0.6015
   67SAPC  H10S 5608   4.405   1.113   3.337 -0.1418  2.1889 -2.0422
   67SAPC  C211 5609   4.202   1.093   3.424  0.4298  0.6971  0.0961
   67SAPC  H11R 5610   4.104   1.053   3.395  0.6696  0.8640 -1.0084
   67SAPC  C212 5611   4.217   1.169   3.532  0.1870 -0.2722 -0.1967
   67SAPC  H12R 5612   4.129   1.169   3.598 -0.4078 -0.3244 -0.9696
   67SAPC  C213 5613   4.346   1.225   3.588  0.5097 -0.8402 -0.0226
   67SAPC  H13R 5614   4.433   1.221   3.519  0.0363 -2.2929 -0.5665
   67SAPC  H13S 5615   4.376   1.159   3.673 -0.5462  1.3547  2.1660
   67SAPC  C214 5616   4.322   1.367   3.651 -0.1523  0.1092  0.5199
   67SAPC  H14R 5617   4.247   1.368   3.732  1.3531 -0.1421  1.9688
   67SAPC  C215 5618   4.392   1.480   3.621 -0.3616 -0.1296 -0.3274
   67SAPC  H15R 5619   4.366   1.576   3.669  1.5354 -0.3059  1.1549
   67SAPC  C216 5620   4.495   1.498   3.516  0.2818  0.1713 -0.2857
   67SAPC  H16R 5621   4.474   1.589   3.455 -0.4520 -0.5501 -1.1320
   67SAPC  H16S 5622   4.485   1.415   3.443  1.7683 -0.0814 -0.2292
   67SAPC  C217 5623   4.644   1.502   3.561  0.4963  0.0865 -0.1366
   67SAPC  H17R 5624   4.681   1.398   3.568  0.8087  0.0230 -2.2229
   67SAPC  H17S 5625   4.646   1.543   3.665 -0.1283  0.5748 -0.3088
   67SAPC  C218 5626   4.737   1.593   3.481  0.7300 -0.0755 -0.2153
   67SAPC  H18R 5627   4.843   1.583   3.511  0.8134  0.8981 -0.1447
   67SAPC  H18S 5628   4.711   1.699   3.505 -0.8296 -1.0712  3.0524
   67SAPC  C219 5629   4.728   1.569   3.334 -0.1750  0.0473 -0.3489
   67SAPC  H19R 5630   4.632   1.594   3.284  0.5420 -0.8728 -2.3165
   67SAPC  H19S 5631   4.736   1.458   3.323  1.7793  0.1118 -0.0062
   67SAPC  C220 5632   4.832   1.631   3.247  0.2888 -0.2577 -0.4224
   67SAPC  H20R 5633   4.845   1.737   3.278 -0.1430 -0.5475  0.8244
   67SAPC  H20S 5634   4.796   1.627   3.142 -2.2410 -0.9683  0.3913
   67SAPC  H20T 5635   4.935   1.591   3.257  0.5718 -0.1062 -2.4073
   67SAPC   C33 5636   4.199   1.591   3.131 -0.0642 -0.1858  0.5494
   67SAPC   H3X 5637   4.159   1.614   3.030  2.9857 -1.0250 -0.9631
   67SAPC   H3Y 5638   4.306   1.616   3.144 -0.1115 -0.6723  2.1365
   67SAPC   C34 5639   4.122   1.671   3.232  0.0928 -0.4221 -0.3056
   67SAPC   H4X 5640   4.012   1.654   3.233 -0.8639  4.3386 -1.1050
   67SAPC   H4Y 5641   4.122   1.778   3.204 -0.6796 -0.3675 -0.1227
   67SAPC   C35 5642   4.169   1.674   3.376 -0.4096 -0.2511  0.6398
   67SAPC   H5X 5643   4.275   1.706   3.361 -1.0719  0.5623 -3.9032
   67SAPC   H5Y 5644   4.169   1.579   3.433 -1.9047 -0.9297 -0.4237
   67SAPC   C36 5645   4.102   1.783   3.455  0.4137  0.4201 -0.7964
   67SAPC   H6X 5646   3.997   1.772   3.490 -0.2217  1.7268 -2.1704
   67SAPC   H6Y 5647   4.101   1.880   3.401  1.1006  0.3793 -0.8864
   67SAPC   C37 5648   4.196   1.806   3.571 -0.1079 -0.4100  0.1857
   67SAPC   H7X 5649   4.301   1.815   3.535 -0.3890  1.9928 -0.2103
   67SAPC   H7Y 5650   4.191   1.719   3.640 -0.7556  1.2614  2.3682
   67SAPC   C38 5651   4.154   1.930   3.652 -0.2684 -1.0978  0.3803
   67SAPC   H8X 5652   4.049   1.909   3.680  0.1728 -1.4519  1.8820
   67SAPC   H8Y 5653   4.171   2.020   3.588 -1.8434  0.5798  2.1701
   67SAPC   C39 5654   4.219   1.948   3.792  0.0892  0.1780  0.1110
   67SAPC   H9X 5655   4.329   1.936   3.790  0.1282 -0.5130  2.6475
   67SAPC   H9Y 5656   4.180   1.864   3.855 -0.4747  1.1555  1.1017
   67SAPC  C310 5657   4.164   2.063   3.870  0.2256 -0.3372  0.8471
   67SAPC  H10X 5658   4.054   2.055   3.875  0.2436 -2.4377 -0.4983
   67SAPC  H10Y 5659   4.172   2.165   3.829  0.0594  0.0967  1.8535
   67SAPC  C311 5660   4.216   2.066   4.017 -0.5321  0.5667 -0.0026
   67SAPC  H11X 5661   4.247   2.169   4.046 -1.1671 -0.0224  3.0464
   67SAPC  H11Y 5662   4.309   2.007   4.028 -1.4955 -0.5635  3.3685
   67SAPC  C312 5663   4.119   2.005   4.115 -0.1656  0.3185  0.4187
   67SAPC  H12X 5664   4.110   1.898   4.090  1.3976  0.0638  0.8406
   67SAPC  H12Y 5665   4.030   2.071   4.106  1.6629  3.1450  1.3939
   67SAPC  C313 5666   4.153   2.002   4.262 -0.9433  0.1834 -0.5826
   67SAPC  H13X 5667   4.238   1.934   4.282 -1.0028  0.2265 -0.1643
   67SAPC  H13Y 5668   4.060   1.965   4.311 -0.2862 -1.5741 -0.6146
   67SAPC  C314 5669   4.184   2.145   4.324  1.0458  0.2944 -0.3611
   67SAPC  H14X 5670   4.101   2.211   4.292 -0.3075 -0.6107  1.1083
   67SAPC  H14Y 5671   4.278   2.186   4.283  0.6124  1.2598 -0.4263
   67SAPC  C315 5672   4.189   2.141   4.472 -0.1002 -0.5008 -0.0962
   67SAPC  H15X 5673   4.272   2.073   4.503  0.6748  0.0425 -0.9237
   67SAPC  H15Y 5674   4.093   2.099   4.510 -0.3152  0.9821  1.0900
   67SAPC  C316 5675   4.212   2.275   4.535 -0.2045 -0.1004  0.3939
   67SAPC  H16X 5676   4.215   2.251   4.644  1.3975 -0.5511  0.2764
   67SAPC  H16Y 5677   4.127   2.345   4.518 -0.2981  0.0991  1.5800
   67SAPC  C317 5678   4.343   2.350   4.490 -0.4922 -0.1894 -0.3300
   67SAPC  H17X 5679   4.347   2.363   4.380  1.4248 -0.5436 -0.3531
   67SAPC  H17Y 5680   4.435   2.291   4.512 -0.9156 -0.5479  0.5102
   67SAPC  C318 5681   4.354   2.487   4.554  0.0346  0.2001  0.0021
   67SAPC  H18X 5682   4.254   2.535   4.550  0.5657  1.3957  0.4960
   67SAPC  H18Y 5683   4.434   2.552   4.511  0.3809  0.4473  0.9911
   67SAPC  H18Z 5684   4.398   2.475   4.655  1.5960 -0.7494 -0.7417
   68SAPC     N 5685   4.385   2.380   2.356 -0.7907 -0.1604 -0.5980
   68SAPC   C12 5686   4.511   2.426   2.435  0.5737 -0.1501  0.5701
   68SAPC  H12A 5687   4.489   2.521   2.481 -1.4716 -0.2719 -0.0322
   68SAPC  H12B 5688   4.598   2.431   2.372  2.2220  1.2789  2.8061
   68SAPC   C13 5689   4.395   2.251   2.290  0.3081  0.2857  0.6739
   68SAPC  H13A 5690   4.474   2.245   2.216  0.2065  3.1273  0.2079
   68SAPC  H13B 5691   4.416   2.166   2.353  3.1537 -0.6926 -1.3569
   68SAPC  H13C 5692   4.315   2.222   2.224 -0.2595 -0.5229  1.6937
   68SAPC   C14 5693   4.264   2.360   2.447  0.7116  0.1069 -0.4702
   68SAPC  H14A 5694   4.190   2.310   2.386  1.0685 -0.9222 -0.0759
   68SAPC  H14B 5695   4.288   2.287   2.523  0.1255  0.3617 -0.0350
   68SAPC  H14C 5696   4.223   2.448   2.495 -1.0348 -1.3157  0.7511
   68SAPC   C15 5697   4.347   2.478   2.252  0.5537 -0.4366 -0.1871
   68SAPC  H15A 5698   4.409   2.463   2.165  1.0400 -1.5878  0.3397
   68SAPC  H15B 5699   4.246   2.454   2.224  0.0740 -0.0116  1.0915
   68SAPC  H15C 5700   4.347   2.581   2.286 -0.0172 -0.2637 -0.7112
   68SAPC   C11 5701   4.548   2.333   2.554  0.3382 -0.0915  0.0365
   68SAPC  H11A 5702   4.650   2.365   2.587 -0.0175  1.3797 -0.1934
   68SAPC  H11B 5703   4.552   2.226   2.528 -0.6072 -0.5481  1.6550
   68SAPC     P 5704   4.454   2.490   2.733  0.6900  0.0329  0.0110
   68SAPC   O13 5705   4.497   2.600   2.647  0.5200  0.1475 -1.1331
   68SAPC   O14 5706   4.319   2.520   2.787 -0.3629 -0.0544  0.6173
   68SAPC   O12 5707   4.450   2.348   2.658  0.0761 -0.1852  0.0439
   68SAPC   O11 5708   4.558   2.471   2.853  0.8561  0.5116  0.1432
   68SAPC    C1 5709   4.564   2.342   2.913 -0.3242  0.1785  0.4486
   68SAPC    HA 5710   4.583   2.354   3.022  0.4540  1.2762  0.2084
   68SAPC    HB 5711   4.470   2.284   2.902  0.0959 -0.2413 -1.0482
   68SAPC    C2 5712   4.679   2.258   2.864 -0.1660  0.0186  0.2844
   68SAPC    HS 5713   4.644   2.222   2.765 -1.8748 -0.7095  1.1065
   68SAPC   O21 5714   4.701   2.146   2.956  0.5554 -0.3577 -0.2930
   68SAPC   C21 5715   4.616   2.051   2.957  0.4912 -0.8991 -0.0821
   68SAPC   O22 5716   4.516   2.042   2.887  0.5449  0.8125  1.1691
   68SAPC   C22 5717   4.656   1.955   3.073  0.5521  0.0646  0.5946
   68SAPC   H2R 5718   4.729   1.885   3.028  1.5431  2.1576 -1.2495
   68SAPC   H2S 5719   4.719   2.004   3.151  2.2985 -0.1947 -0.6079
   68SAPC    C3 5720   4.812   2.338   2.868 -0.0971 -0.3112 -0.1972
   68SAPC    HX 5721   4.798   2.415   2.789  2.2452 -1.4329 -1.8313
   68SAPC    HY 5722   4.888   2.260   2.843 -0.0754 -0.4973  0.4232
   68SAPC   O31 5723   4.832   2.400   2.998  0.8849 -0.1284  0.3363
   68SAPC   C31 5724   4.951   2.462   2.995  0.1307  0.5131 -0.9205
   68SAPC   O32 5725   5.016   2.484   2.897 -0.2735 -0.4204  0.2708
   68SAPC   C32 5726   4.996   2.485   3.134 -0.1464 -0.5318  0.1644
   68SAPC   H2X 5727   5.011   2.595   3.138 -2.5830  0.0077 -2.3808
   68SAPC   H2Y 5728   5.100   2.448   3.142 -0.8179 -2.2252  1.6312
   68SAPC   C23 5729   4.527   1.892   3.132 -0.8984  0.7238 -0.5741
   68SAPC   H3R 5730   4.575   1.817   3.197 -1.0381 -0.0063 -1.3025
   68SAPC   H3S 5731   4.471   1.849   3.046 -0.2682  2.0484 -1.6944
   68SAPC   C24 5732   4.455   1.982   3.233 -0.8674 -0.3647  0.2286
   68SAPC   H4R 5733   4.525   1.993   3.318 -1.6100  4.1003  0.4885
   68SAPC   H4S 5734   4.361   1.942   3.275 -0.3527  0.0648  1.8803
   68SAPC   C25 5735   4.403   2.120   3.175 -0.6258 -0.6132 -0.0219
   68SAPC   H5R 5736   4.328   2.112   3.096 -0.4830  0.8716 -0.3479
   68SAPC   C26 5737   4.443   2.240   3.232  0.3288 -0.0814  0.2666
   68SAPC   H6R 5738   4.399   2.331   3.188  1.4903  1.0182  1.3110
   68SAPC   C27 5739   4.531   2.267   3.356  0.3841 -0.4967 -0.9221
   68SAPC   H7R 5740   4.566   2.373   3.355  0.5073 -0.5248 -0.1770
   68SAPC   H7S 5741   4.630   2.216   3.345  1.2646  0.9988 -0.2563
   68SAPC   C28 5742   4.455   2.249   3.482 -0.1425 -0.2995 -0.6223
   68SAPC   H8R 5743   4.378   2.325   3.501  1.6766  2.0980 -2.2106
   68SAPC   C29 5744   4.490   2.166   3.589  0.5285 -0.4401 -0.5467
   68SAPC   H9R 5745   4.419   2.156   3.673  0.1782 -0.5596 -0.8550
   68SAPC  C210 5746   4.616   2.081   3.605 -0.0143 -0.1210 -0.5548
   68SAPC  H10R 5747   4.670   2.110   3.698 -1.0462 -1.2463  0.4258
   68SAPC  H10S 5748   4.681   2.099   3.517 -0.9500  0.4398 -1.1472
   68SAPC  C211 5749   4.574   1.940   3.603 -0.6644 -0.3676 -0.2124
   68SAPC  H11R 5750   4.503   1.919   3.522 -0.1214  1.8821 -1.3385
   68SAPC  C212 5751   4.595   1.849   3.698  0.1105  0.2491  0.0891
   68SAPC  H12R 5752   4.549   1.751   3.675  0.6984  0.0282 -0.1803
   68SAPC  C213 5753   4.669   1.874   3.829 -1.2048  1.1044 -0.2676
   68SAPC  H13R 5754   4.604   1.937   3.893 -1.4227 -1.3773  2.1319
   68SAPC  H13S 5755   4.762   1.931   3.807 -0.1548 -0.2073  0.6252
   68SAPC  C214 5756   4.696   1.766   3.920 -0.4197  0.3032  0.0077
   68SAPC  H14R 5757   4.805   1.756   3.928 -0.1799  1.0526 -1.7752
   68SAPC  C215 5758   4.608   1.702   4.001  0.2345 -0.0126 -0.0821
   68SAPC  H15R 5759   4.641   1.614   4.058  2.0662  1.0020  0.5011
   68SAPC  C216 5760   4.460   1.715   3.991 -0.0791 -0.5720 -0.3070
   68SAPC  H16R 5761   4.416   1.766   3.903 -1.5307  0.3615  0.9298
   68SAPC  H16S 5762   4.436   1.786   4.072  1.5645 -1.0998  0.6898
   68SAPC  C217 5763   4.384   1.581   4.016  0.6126  0.0008  0.1096
   68SAPC  H17R 5764   4.405   1.551   4.120  2.7270  0.1883 -0.2138
   68SAPC  H17S 5765   4.422   1.507   3.942  1.0107 -0.7119  1.0114
   68SAPC  C218 5766   4.230   1.598   3.994  0.2524 -0.0712 -0.2371
   68SAPC  H18R 5767   4.210   1.612   3.885 -1.9113 -0.5730  0.0499
   68SAPC  H18S 5768   4.199   1.676   4.067  2.1276  0.2524  0.2616
   68SAPC  C219 5769   4.148   1.477   4.037 -0.0301  0.2497 -0.3968
   68SAPC  H19R 5770   4.209   1.389   4.008 -0.2915 -0.7724  1.9543
   68SAPC  H19S 5771   4.054   1.481   3.979 -0.6019  2.0326  0.5607
   68SAPC  C220 5772   4.118   1.477   4.186 -0.1487  0.3389  0.4733
   68SAPC  H20R 5773   4.196   1.437   4.255  0.4467  1.2789  0.3625
   68SAPC  H20S 5774   4.032   1.410   4.203  1.4595 -1.5666  1.5538
   68SAPC  H20T 5775   4.091   1.581   4.216  2.1189  1.2923 -0.5349
   68SAPC   C33 5776   4.900   2.439   3.248 -0.3020  0.0531  0.3555
   68SAPC   H3X 5777   4.893   2.328   3.245  1.2498 -0.0502 -1.4024
   68SAPC   H3Y 5778   4.798   2.480   3.233  0.7254  2.3249 -0.9889
   68SAPC   C34 5779   4.948   2.490   3.383  0.8143  0.4344  0.1067
   68SAPC   H4X 5780   4.948   2.599   3.406 -0.5274 -0.2540  4.1745
   68SAPC   H4Y 5781   5.054   2.464   3.404  1.6827  1.9149 -2.0863
   68SAPC   C35 5782   4.862   2.425   3.490  0.1536 -0.1540 -0.5336
   68SAPC   H5X 5783   4.840   2.321   3.461  1.0002 -1.3638  2.6618
   68SAPC   H5Y 5784   4.771   2.488   3.502  0.5487  0.2360  0.6500
   68SAPC   C36 5785   4.912   2.415   3.636 -0.1606  0.9714  0.6840
   68SAPC   H6X 5786   4.969   2.509   3.651  0.7781  0.3042  1.3636
   68SAPC   H6Y 5787   4.985   2.333   3.622 -1.6538 -0.5674  1.4925
   68SAPC   C37 5788   4.799   2.382   3.730  0.3672  0.5007 -0.7257
   68SAPC   H7X 5789   4.729   2.320   3.670  0.6358 -0.7813  0.2240
   68SAPC   H7Y 5790   4.749   2.479   3.753  0.2372 -0.0392  1.5725
   68SAPC   C38 5791   4.838   2.309   3.865 -0.0859  0.7121  0.6097
   68SAPC   H8X 5792   4.918   2.364   3.920  1.6881  1.2698 -2.3060
   68SAPC   H8Y 5793   4.899   2.220   3.842 -0.6217  0.4457  0.2027
   68SAPC   C39 5794   4.710   2.265   3.946 -0.8535 -0.2233 -0.1210
   68SAPC   H9X 5795   4.637   2.227   3.872  1.2125 -2.6520 -1.0486
   68SAPC   H9Y 5796   4.659   2.350   3.998  0.6456  0.2117  0.6957
   68SAPC  C310 5797   4.747   2.172   4.056 -0.9911  0.2221  0.0898
   68SAPC  H10X 5798   4.808   2.220   4.135 -0.5589 -1.3800  0.7860
   68SAPC  H10Y 5799   4.806   2.086   4.018  0.4526  0.6480  1.2699
   68SAPC  C311 5800   4.623   2.114   4.129  0.0861  0.3654  0.4222
   68SAPC  H11X 5801   4.557   2.077   4.047  0.6806  0.3380 -0.0504
   68SAPC  H11Y 5802   4.572   2.205   4.168  1.3061  1.0811  0.4140
   68SAPC  C312 5803   4.637   2.004   4.231 -0.5463 -0.4859 -0.0084
   68SAPC  H12X 5804   4.704   2.038   4.313  1.4879 -0.7920 -1.4490
   68SAPC  H12Y 5805   4.675   1.914   4.177  0.4672  0.2939 -0.6387
   68SAPC  C313 5806   4.508   1.968   4.300  0.6327 -0.4652 -0.0358
   68SAPC  H13X 5807   4.440   1.920   4.227 -0.3995 -1.7456  1.6804
   68SAPC  H13Y 5808   4.461   2.065   4.331 -0.4178 -1.0302  0.1897
   68SAPC  C314 5809   4.511   1.879   4.427 -0.4751  0.2154  0.1658
   68SAPC  H14X 5810   4.414   1.883   4.480 -1.3450 -1.0254 -1.2602
   68SAPC  H14Y 5811   4.594   1.906   4.496 -0.2254  0.8726 -0.3781
   68SAPC  C315 5812   4.524   1.726   4.393 -0.0133  0.5021 -0.8383
   68SAPC  H15X 5813   4.614   1.715   4.329  0.1675 -1.0669 -0.3752
   68SAPC  H15Y 5814   4.446   1.678   4.330  0.3284 -0.4218 -0.5866
   68SAPC  C316 5815   4.548   1.635   4.513 -0.0994  0.3449  0.5836
   68SAPC  H16X 5816   4.446   1.607   4.547 -0.8087 -1.6175 -2.6977
   68SAPC  H16Y 5817   4.604   1.685   4.596  0.1109  0.3685  0.4294
   68SAPC  C317 5818   4.641   1.520   4.477  0.5750  0.6171 -0.2116
   68SAPC  H17X 5819   4.740   1.554   4.439  0.0689  2.6915  0.2035
   68SAPC  H17Y 5820   4.593   1.465   4.393 -0.5873  1.3124 -0.0223
   68SAPC  C318 5821   4.670   1.432   4.597  0.4782  0.1638  0.5572
   68SAPC  H18X 5822   4.596   1.349   4.594  0.4798  0.1428 -3.1776
   68SAPC  H18Y 5823   4.672   1.493   4.690  0.2222  1.2678 -0.1366
   68SAPC  H18Z 5824   4.774   1.398   4.577  0.9832  2.9956 -2.6059
   69SAPC     N 5825   2.762   6.626   2.739 -0.2889  0.0628 -0.2364
   69SAPC   C12 5826   2.815   6.584   2.603  0.0658 -0.6698 -0.0568
   69SAPC  H12A 5827   2.896   6.650   2.577 -0.1745  0.2466  1.4108
   69SAPC  H12B 5828   2.737   6.598   2.530  1.4055  2.2148 -1.0939
   69SAPC   C13 5829   2.701   6.758   2.720 -0.2823 -0.2131 -0.0932
   69SAPC  H13A 5830   2.645   6.783   2.808  0.0568  2.2144 -0.5002
   69SAPC  H13B 5831   2.771   6.840   2.707 -0.3941  0.1674  1.5396
   69SAPC  H13C 5832   2.634   6.764   2.635 -1.6897 -0.0838  1.0036
   69SAPC   C14 5833   2.658   6.528   2.787  0.8461  0.0685 -0.7854
   69SAPC  H14A 5834   2.640   6.534   2.894  1.0817  2.7936 -0.8140
   69SAPC  H14B 5835   2.560   6.549   2.747  0.2827 -0.3888  0.3074
   69SAPC  H14C 5836   2.703   6.432   2.768 -0.3359 -0.7674  0.4114
   69SAPC   C15 5837   2.873   6.635   2.837  0.5313  0.0803  0.6625
   69SAPC  H15A 5838   2.837   6.620   2.937 -0.2036 -0.5897  0.3058
   69SAPC  H15B 5839   2.942   6.553   2.824  0.8781  0.3674  0.6819
   69SAPC  H15C 5840   2.936   6.723   2.827 -0.9694  0.9815 -1.8404
   69SAPC   C11 5841   2.852   6.431   2.591  0.1364 -0.2460 -0.2062
   69SAPC  H11A 5842   2.897   6.422   2.490 -0.2055  1.3907 -0.5311
   69SAPC  H11B 5843   2.756   6.376   2.606 -0.1223  0.9055  3.4161
   69SAPC     P 5844   2.946   6.250   2.756 -0.2225  0.1121  0.3933
   69SAPC   O13 5845   2.854   6.250   2.870 -0.0753  0.7763  0.3378
   69SAPC   O14 5846   2.929   6.156   2.648 -0.0088  0.2819  0.1780
   69SAPC   O12 5847   2.947   6.389   2.690  1.2691  0.2544  0.9110
   69SAPC   O11 5848   3.083   6.217   2.818 -0.3948  0.1865 -0.3225
   69SAPC    C1 5849   3.152   6.310   2.900  0.7514 -0.0664 -0.6224
   69SAPC    HA 5850   3.239   6.352   2.846  0.8903  0.0163 -0.3349
   69SAPC    HB 5851   3.099   6.400   2.938 -0.2837 -1.1279  0.5513
   69SAPC    C2 5852   3.207   6.237   3.025  0.6162  0.3810 -0.0556
   69SAPC    HS 5853   3.241   6.309   3.102 -1.6266 -1.2792  2.6697
   69SAPC   O21 5854   3.321   6.154   2.984  0.5065  0.1219  0.1866
   69SAPC   C21 5855   3.396   6.119   3.089  0.5550 -0.3652 -0.7721
   69SAPC   O22 5856   3.386   6.169   3.202  0.4240  0.0659 -0.0414
   69SAPC   C22 5857   3.506   6.031   3.037  0.2065  0.1746  1.2976
   69SAPC   H2R 5858   3.455   5.946   2.986 -0.5103  1.3477 -0.0051
   69SAPC   H2S 5859   3.574   6.087   2.970  0.7015 -0.0703  1.5935
   69SAPC    C3 5860   3.092   6.158   3.097  0.4786 -0.2476  0.1347
   69SAPC    HX 5861   3.066   6.064   3.043 -0.3241  0.7590 -1.2833
   69SAPC    HY 5862   3.000   6.220   3.091  0.0663 -0.9937 -2.9024
   69SAPC   O31 5863   3.131   6.121   3.231 -0.2450 -0.4285 -0.4746
   69SAPC   C31 5864   3.130   6.219   3.323  0.2705  0.1278  0.8955
   69SAPC   O32 5865   3.078   6.331   3.309  0.2271  0.3012  0.2423
   69SAPC   C32 5866   3.190   6.174   3.451  0.3612  0.8112 -0.3217
   69SAPC   H2X 5867   3.264   6.252   3.481 -0.2598  0.3847  2.5932
   69SAPC   H2Y 5868   3.237   6.076   3.430 -0.3022  0.7822 -1.7833
   69SAPC   C23 5869   3.595   5.960   3.144 -0.1534 -0.9475 -0.0800
   69SAPC   H3R 5870   3.535   5.924   3.230  0.1997  0.0264  0.6031
   69SAPC   H3S 5871   3.657   6.038   3.195 -1.5425 -0.7037  1.3027
   69SAPC   C24 5872   3.687   5.849   3.086 -0.1114  0.0668  0.0275
   69SAPC   H4R 5873   3.769   5.829   3.160  0.8109  1.8647 -0.4616
   69SAPC   H4S 5874   3.730   5.888   2.992 -3.3135 -0.8072 -1.9339
   69SAPC   C25 5875   3.612   5.717   3.060 -0.6473 -0.6542 -0.7450
   69SAPC   H5R 5876   3.545   5.725   2.973  1.4492 -3.7086 -2.8224
   69SAPC   C26 5877   3.616   5.603   3.132 -0.3990 -0.0194  0.1846
   69SAPC   H6R 5878   3.575   5.509   3.091  1.4791 -0.6658 -0.3253
   69SAPC   C27 5879   3.699   5.583   3.255  0.3574 -0.0490 -0.0996
   69SAPC   H7R 5880   3.645   5.520   3.328  1.5356 -0.2950  0.5958
   69SAPC   H7S 5881   3.715   5.677   3.313  2.3142 -0.2075 -0.3215
   69SAPC   C28 5882   3.835   5.526   3.221  0.2321  0.7781 -0.0063
   69SAPC   H8R 5883   3.873   5.545   3.120 -0.1454  0.4745 -0.2095
   69SAPC   C29 5884   3.926   5.476   3.304 -0.7394 -0.4420 -0.1629
   69SAPC   H9R 5885   4.024   5.448   3.263 -0.4876  1.2298 -0.7421
   69SAPC  C210 5886   3.923   5.451   3.457  0.5379 -0.2521 -0.0069
   69SAPC  H10R 5887   3.861   5.359   3.467 -1.8096  1.0471 -1.7684
   69SAPC  H10S 5888   3.862   5.535   3.495  1.6032  0.3825  0.3378
   69SAPC  C211 5889   4.061   5.445   3.515 -0.8261  0.3296 -0.2082
   69SAPC  H11R 5890   4.106   5.350   3.481 -0.9888 -0.2218  1.0862
   69SAPC  C212 5891   4.138   5.549   3.556 -0.0790 -0.5021  0.6643
   69SAPC  H12R 5892   4.238   5.516   3.589 -0.0790 -2.4532 -1.0943
   69SAPC  C213 5893   4.087   5.690   3.584 -0.6164  0.2320 -0.8576
   69SAPC  H13R 5894   4.035   5.729   3.493 -2.4718 -1.4122 -0.5767
   69SAPC  H13S 5895   4.183   5.745   3.596  0.2751 -1.2301 -0.9636
   69SAPC  C214 5896   4.004   5.697   3.714 -0.4054  0.3143  0.0449
   69SAPC  H14R 5897   4.063   5.654   3.796  0.1215 -1.1887 -1.0668
   69SAPC  C215 5898   3.885   5.752   3.735 -0.6067 -1.3323  0.7344
   69SAPC  H15R 5899   3.834   5.747   3.832 -0.1765 -0.9442  0.9903
   69SAPC  C216 5900   3.807   5.829   3.632  0.0275  0.2090  0.3830
   69SAPC  H16R 5901   3.697   5.820   3.648  0.1489 -0.8704  0.6473
   69SAPC  H16S 5902   3.818   5.778   3.534  2.5918 -1.5367  1.4797
   69SAPC  C217 5903   3.850   5.975   3.609  0.2723  0.4728 -0.3839
   69SAPC  H17R 5904   3.959   5.968   3.592  0.1449 -0.3910 -0.9028
   69SAPC  H17S 5905   3.834   6.028   3.705  1.5256  0.7188 -0.2966
   69SAPC  C218 5906   3.769   6.046   3.503 -0.1552 -0.1548  0.1345
   69SAPC  H18R 5907   3.767   5.992   3.406 -2.1462  2.6489 -1.5501
   69SAPC  H18S 5908   3.828   6.138   3.482 -0.1538  0.5091  2.7822
   69SAPC  C219 5909   3.623   6.066   3.535  0.0402  0.2727  0.6275
   69SAPC  H19R 5910   3.566   5.970   3.541  0.8043 -0.1700  0.9710
   69SAPC  H19S 5911   3.577   6.128   3.455  0.7312  1.2748  0.9968
   69SAPC  C220 5912   3.598   6.127   3.675 -0.4447 -0.1945  0.2998
   69SAPC  H20R 5913   3.491   6.156   3.677 -0.9278 -1.3820 -2.5577
   69SAPC  H20S 5914   3.655   6.222   3.683 -2.6186  1.5319 -2.5685
   69SAPC  H20T 5915   3.621   6.063   3.763 -1.1640  0.4468  0.9712
   69SAPC   C33 5916   3.081   6.159   3.564 -0.0749  0.1677  1.2898
   69SAPC   H3X 5917   3.017   6.075   3.528 -0.3604  1.3186 -1.0132
   69SAPC   H3Y 5918   3.008   6.242   3.557  0.0291  0.1137 -2.5360
   69SAPC   C34 5919   3.127   6.118   3.701 -0.1250  1.3126  0.3082
   69SAPC   H4X 5920   3.201   6.187   3.746  1.3352 -0.9386  1.5179
   69SAPC   H4Y 5921   3.177   6.020   3.691 -1.5985  0.0473  3.7896
   69SAPC   C35 5922   3.015   6.072   3.797 -0.3383  0.0011 -0.7437
   69SAPC   H5X 5923   2.973   5.977   3.758 -0.7729  0.6945 -2.0590
   69SAPC   H5Y 5924   2.943   6.156   3.809 -0.8738 -0.6650  0.9468
   69SAPC   C36 5925   3.074   6.040   3.938  0.7834  0.0084 -0.3228
   69SAPC   H6X 5926   3.121   6.136   3.970 -0.5561  0.9994 -1.2168
   69SAPC   H6Y 5927   3.152   5.961   3.941  0.6532 -0.1186  2.5049
   69SAPC   C37 5928   2.977   6.016   4.058 -0.2980 -0.0541  0.2665
   69SAPC   H7X 5929   2.892   5.948   4.036 -1.0839 -0.0033  2.8596
   69SAPC   H7Y 5930   2.928   6.114   4.075 -1.5688 -0.5909 -0.1967
   69SAPC   C38 5931   3.047   5.973   4.192  0.3357 -0.8323  0.0126
   69SAPC   H8X 5932   3.120   6.045   4.235  0.0477 -0.6042  0.1202
   69SAPC   H8Y 5933   3.092   5.873   4.173  0.4128 -0.1923 -4.1349
   69SAPC   C39 5934   2.934   5.952   4.297 -0.9460  1.1098 -1.0953
   69SAPC   H9X 5935   2.836   5.907   4.268 -0.8196  0.0768 -0.0130
   69SAPC   H9Y 5936   2.904   6.054   4.330 -0.4027  0.4677  1.6102
   69SAPC  C310 5937   2.988   5.877   4.420 -0.1367 -0.2356 -0.1632
   69SAPC  H10X 5938   3.098   5.887   4.412 -0.3471  1.4246 -1.5977
   69SAPC  H10Y 5939   2.962   5.769   4.415 -2.2115  0.1833  0.4265
   69SAPC  C311 5940   2.940   5.938   4.557 -0.3727  0.0726 -0.2954
   69SAPC  H11X 5941   2.838   5.980   4.565 -0.1091  0.6338  0.2138
   69SAPC  H11Y 5942   3.002   6.029   4.577  1.2278 -0.6226 -1.8224
   69SAPC  C312 5943   2.974   5.833   4.672  0.5900 -0.3613 -0.5062
   69SAPC  H12X 5944   3.069   5.780   4.648 -0.7589 -2.6779 -1.0868
   69SAPC  H12Y 5945   2.902   5.749   4.666  1.4948 -1.3026  1.1957
   69SAPC  C313 5946   2.981   5.901   4.815  0.4200 -0.0510  0.0495
   69SAPC  H13X 5947   3.067   5.971   4.808 -0.6972  1.1942 -3.4578
   69SAPC  H13Y 5948   2.997   5.824   4.894  1.4177 -0.5735 -0.6314
   69SAPC  C314 5949   2.862   5.993   4.845  0.5033  0.0943 -0.1946
   69SAPC  H14X 5950   2.831   6.058   4.760 -0.7076  0.2998  0.3747
   69SAPC  H14Y 5951   2.882   6.058   4.933  0.9283  0.4899 -0.5780
   69SAPC  C315 5952   2.736   5.903   4.874 -0.5194 -0.7729 -0.0991
   69SAPC  H15X 5953   2.757   5.849   4.969  2.6356 -0.0131 -0.2597
   69SAPC  H15Y 5954   2.729   5.832   4.789  1.4636  0.0705 -1.0398
   69SAPC  C316 5955   2.613   5.991   4.888  0.0191  0.1587 -0.2773
   69SAPC  H16X 5956   2.647   6.077   4.951  2.8952 -1.0795  0.0362
   69SAPC  H16Y 5957   2.530   5.936   4.936 -0.0413  1.0692  0.7016
   69SAPC  C317 5958   2.560   6.027   4.749  0.3182 -0.2251  0.3554
   69SAPC  H17X 5959   2.478   5.955   4.728 -0.1943  0.5013 -0.1811
   69SAPC  H17Y 5960   2.639   6.010   4.673 -0.8889  3.7009 -2.0731
   69SAPC  C318 5961   2.510   6.173   4.741  0.1887 -0.5690  0.1758
   69SAPC  H18X 5962   2.585   6.255   4.734 -2.3233  1.9823  1.3838
   69SAPC  H18Y 5963   2.442   6.193   4.827  0.5754 -1.6375  0.7477
   69SAPC  H18Z 5964   2.452   6.192   4.648  1.7754  0.3911 -0.6595
   70SAPC     N 5965   6.761   5.975   2.436  0.2830 -0.1989  0.8362
   70SAPC   C12 5966   6.780   5.896   2.561  0.3372 -0.3336 -0.1633
   70SAPC  H12A 5967   6.752   5.953   2.649  0.7023  0.8775 -0.8093
   70SAPC  H12B 5968   6.882   5.863   2.571  0.0996 -1.3721 -0.9463
   70SAPC   C13 5969   6.868   6.076   2.434 -0.2356  0.5463  0.3074
   70SAPC  H13A 5970   6.964   6.029   2.452 -0.3392  0.0099 -0.4750
   70SAPC  H13B 5971   6.873   6.109   2.331 -0.2329  0.4333  0.2713
   70SAPC  H13C 5972   6.854   6.149   2.512 -0.5394  0.5083  0.2910
   70SAPC   C14 5973   6.777   5.886   2.311 -0.2390 -0.2488 -0.4208
   70SAPC  H14A 5974   6.690   5.821   2.310  0.0185 -0.6893  1.4301
   70SAPC  H14B 5975   6.794   5.938   2.218  1.4782 -0.9486 -0.5234
   70SAPC  H14C 5976   6.869   5.830   2.321  1.0836  1.6459 -1.3136
   70SAPC   C15 5977   6.629   6.048   2.430 -0.5909 -0.2665 -0.8569
   70SAPC  H15A 5978   6.623   6.093   2.331 -1.6073  2.0818  0.1796
   70SAPC  H15B 5979   6.549   5.975   2.433 -0.1932 -0.6788 -0.0162
   70SAPC  H15C 5980   6.631   6.127   2.504  1.8774  0.3296 -1.4660
   70SAPC   C11 5981   6.693   5.766   2.575 -0.0126 -0.1040  0.4707
   70SAPC  H11A 5982   6.717   5.717   2.671 -0.8450 -0.2109  0.6288
   70SAPC  H11B 5983   6.719   5.687   2.502 -0.6301 -0.4722  0.6411
   70SAPC     P 5984   6.450   5.810   2.691 -0.1155  0.3260 -0.5405
   70SAPC   O13 5985   6.359   5.925   2.662 -0.4077  0.1361  0.5488
   70SAPC   O14 5986   6.377   5.683   2.716  0.4838 -0.4906 -0.0253
   70SAPC   O12 5987   6.549   5.798   2.566  0.7761 -0.3797 -0.1388
   70SAPC   O11 5988   6.530   5.842   2.819  0.0922 -0.0904 -0.3208
   70SAPC    C1 5989   6.587   5.970   2.846 -0.0256  0.1418 -0.3987
   70SAPC    HA 5990   6.697   5.953   2.841 -0.1648 -0.6768 -0.6886
   70SAPC    HB 5991   6.550   6.054   2.784 -1.4765  0.9217  1.4086
   70SAPC    C2 5992   6.554   6.036   2.987  0.6990  0.4406 -0.0593
   70SAPC    HS 5993   6.644   6.029   3.052  1.3864 -0.4845 -1.0843
   70SAPC   O21 5994   6.430   5.980   3.051 -0.4902  0.3618  0.6554
   70SAPC   C21 5995   6.439   5.871   3.110 -0.5980 -0.1589  0.2535
   70SAPC   O22 5996   6.531   5.790   3.115  0.1506  0.0175  0.2829
   70SAPC   C22 5997   6.309   5.851   3.181  0.6518  0.3144  0.0697
   70SAPC   H2R 5998   6.228   5.881   3.111  1.8090  0.4948 -1.2296
   70SAPC   H2S 5999   6.298   5.747   3.220  0.3408 -0.0872 -1.0377
   70SAPC    C3 6000   6.527   6.191   2.986  0.3639  0.0768 -0.3813
   70SAPC    HX 6001   6.439   6.220   2.924 -0.4299 -0.2704  0.5568
   70SAPC    HY 6002   6.617   6.236   2.938 -0.3333 -0.6212 -2.4389
   70SAPC   O31 6003   6.502   6.245   3.117  0.1624 -0.1150  0.2861
   70SAPC   C31 6004   6.599   6.273   3.196  0.0296 -0.0680  0.3135
   70SAPC   O32 6005   6.712   6.220   3.194 -0.4884  0.3673 -0.3748
   70SAPC   C32 6006   6.540   6.354   3.311  0.4266 -0.6384 -0.2911
   70SAPC   H2X 6007   6.438   6.387   3.284  0.2517 -0.6914  0.2898
   70SAPC   H2Y 6008   6.600   6.447   3.324 -1.3546  0.4938  0.2053
   70SAPC   C23 6009   6.300   5.934   3.315 -0.1181 -0.3221  0.0679
   70SAPC   H3R 6010   6.195   5.936   3.353 -0.6407 -1.3411 -1.2288
   70SAPC   H3S 6011   6.317   6.040   3.290 -0.9275 -0.2612 -0.2720
   70SAPC   C24 6012   6.399   5.880   3.421 -1.1485 -1.2827 -0.6626
   70SAPC   H4R 6013   6.427   5.967   3.485  0.1406 -1.2991 -1.1872
   70SAPC   H4S 6014   6.488   5.850   3.362  0.5615  2.8893 -0.5403
   70SAPC   C25 6015   6.340   5.776   3.512 -0.1792 -0.2377  0.8257
   70SAPC   H5R 6016   6.312   5.687   3.453 -1.9411  0.6623  0.2641
   70SAPC   C26 6017   6.312   5.780   3.636 -0.3848 -0.8107 -0.9805
   70SAPC   H6R 6018   6.263   5.695   3.686 -0.2856 -0.0973  0.3844
   70SAPC   C27 6019   6.332   5.896   3.739 -0.4253  0.4124 -0.0048
   70SAPC   H7R 6020   6.241   5.913   3.802 -0.4112  0.2856  0.0512
   70SAPC   H7S 6021   6.357   5.986   3.679  0.0193  0.5841  0.4290
   70SAPC   C28 6022   6.462   5.865   3.817  0.3099 -0.1773  0.9558
   70SAPC   H8R 6023   6.549   5.845   3.752 -0.1674  0.4958  0.0942
   70SAPC   C29 6024   6.482   5.862   3.954  0.2250 -0.7508 -0.0173
   70SAPC   H9R 6025   6.580   5.833   3.995  0.5966  0.8713  0.2849
   70SAPC  C210 6026   6.387   5.881   4.069  0.5028 -0.0245  0.9443
   70SAPC  H10R 6027   6.293   5.924   4.030 -0.1663 -1.9110  0.3615
   70SAPC  H10S 6028   6.427   5.961   4.135  0.0806  0.7746  0.2592
   70SAPC  C211 6029   6.349   5.756   4.144 -0.2411 -0.0159  0.6223
   70SAPC  H11R 6030   6.259   5.701   4.113  1.1660 -1.3406 -1.3585
   70SAPC  C212 6031   6.411   5.704   4.248 -0.2492  0.3127  0.4377
   70SAPC  H12R 6032   6.383   5.603   4.284 -2.4857  0.6539 -0.2171
   70SAPC  C213 6033   6.543   5.751   4.309 -0.9297  0.1231 -0.2562
   70SAPC  H13R 6034   6.548   5.861   4.316  1.3087 -0.0144  1.3685
   70SAPC  H13S 6035   6.630   5.722   4.246 -1.0297 -1.4183  0.2690
   70SAPC  C214 6036   6.563   5.701   4.448  0.0412 -0.1345 -0.2274
   70SAPC  H14R 6037   6.643   5.628   4.463  1.9137  1.5737 -1.3331
   70SAPC  C215 6038   6.483   5.732   4.553  0.1662  0.7731  0.3176
   70SAPC  H15R 6039   6.502   5.690   4.653  0.8227 -1.2631 -0.6216
   70SAPC  C216 6040   6.367   5.827   4.550 -0.0677  0.6621  0.0048
   70SAPC  H16R 6041   6.366   5.897   4.463  0.8859  0.2255 -0.3789
   70SAPC  H16S 6042   6.360   5.894   4.638 -1.3729  0.7176 -0.1326
   70SAPC  C217 6043   6.231   5.752   4.551  0.0023 -0.1573  0.2673
   70SAPC  H17R 6044   6.220   5.686   4.640 -0.6754  0.3490  0.5667
   70SAPC  H17S 6045   6.227   5.695   4.456  0.8482  2.1921 -1.2635
   70SAPC  C218 6046   6.119   5.858   4.557 -0.3626 -0.2711 -0.2741
   70SAPC  H18R 6047   6.109   5.912   4.460 -1.0496 -0.0290 -0.0715
   70SAPC  H18S 6048   6.142   5.932   4.636 -1.1642  0.5773 -0.8233
   70SAPC  C219 6049   5.979   5.800   4.589  0.1572  0.2084  0.6650
   70SAPC  H19R 6050   5.968   5.711   4.524  0.1515 -0.6823  1.8654
   70SAPC  H19S 6051   5.900   5.876   4.570 -0.8355 -1.3433 -2.0013
   70SAPC  C220 6052   5.966   5.745   4.728  0.1634  0.2748  0.1334
   70SAPC  H20R 6053   6.024   5.650   4.734  0.8584  0.7658  3.7918
   70SAPC  H20S 6054   5.861   5.722   4.757 -0.1417  0.0967 -1.0754
   70SAPC  H20T 6055   5.996   5.818   4.806 -1.5417  2.9879 -1.5806
   70SAPC   C33 6056   6.530   6.267   3.433 -0.4225  0.0816  0.7501
   70SAPC   H3X 6057   6.613   6.194   3.444 -0.9853 -0.3890  2.1923
   70SAPC   H3Y 6058   6.434   6.211   3.428  0.1237 -0.7580 -2.0145
   70SAPC   C34 6059   6.539   6.347   3.564  0.6462 -0.0104 -0.2051
   70SAPC   H4X 6060   6.458   6.423   3.554  0.5110 -0.1701 -0.3256
   70SAPC   H4Y 6061   6.638   6.398   3.569 -0.4186  2.0565  2.0955
   70SAPC   C35 6062   6.523   6.260   3.686  0.2736 -0.2828 -0.0269
   70SAPC   H5X 6063   6.606   6.186   3.689 -0.4253 -1.0370  1.2263
   70SAPC   H5Y 6064   6.425   6.209   3.690 -0.0557  0.3460  0.0187
   70SAPC   C36 6065   6.531   6.338   3.820 -0.8427  0.1318  0.1340
   70SAPC   H6X 6066   6.456   6.420   3.828 -0.8969  0.2693 -1.5031
   70SAPC   H6Y 6067   6.636   6.374   3.823 -0.6591  0.0325 -2.7738
   70SAPC   C37 6068   6.516   6.242   3.941  0.3416 -0.1055  0.0997
   70SAPC   H7X 6069   6.422   6.183   3.944  1.4407 -1.9867 -0.8463
   70SAPC   H7Y 6070   6.596   6.165   3.935  0.0209 -0.5527  1.2508
   70SAPC   C38 6071   6.566   6.310   4.071  0.8724  0.1000  0.4363
   70SAPC   H8X 6072   6.575   6.419   4.055  0.6117  0.5215  2.8220
   70SAPC   H8Y 6073   6.657   6.256   4.105 -0.3166 -1.9127  0.6075
   70SAPC   C39 6074   6.458   6.297   4.185  1.0342 -0.4012 -0.2873
   70SAPC   H9X 6075   6.423   6.191   4.188 -1.5061  0.3861  0.7444
   70SAPC   H9Y 6076   6.376   6.369   4.164  2.7543  1.6368 -0.4025
   70SAPC  C310 6077   6.506   6.337   4.323  0.2479  0.6988 -0.3567
   70SAPC  H10X 6078   6.514   6.443   4.354 -2.2551  1.1654 -1.0849
   70SAPC  H10Y 6079   6.608   6.295   4.337 -0.4425 -0.9544 -0.0030
   70SAPC  C311 6080   6.420   6.286   4.442 -0.5631  0.5316 -0.4681
   70SAPC  H11X 6081   6.344   6.212   4.409 -0.6693 -0.3475  1.6250
   70SAPC  H11Y 6082   6.377   6.374   4.496  2.5079  2.0773 -0.2936
   70SAPC  C312 6083   6.498   6.214   4.553 -0.0309  0.0327 -0.2689
   70SAPC  H12X 6084   6.586   6.277   4.579 -0.3107  0.2982  0.0482
   70SAPC  H12Y 6085   6.536   6.113   4.528 -0.0806 -0.4801  1.5445
   70SAPC  C313 6086   6.420   6.193   4.690 -0.3919  0.2131 -0.0347
   70SAPC  H13X 6087   6.331   6.129   4.671 -0.6559  0.9815 -1.5116
   70SAPC  H13Y 6088   6.387   6.294   4.723 -1.1292  0.8226 -2.4210
   70SAPC  C314 6089   6.507   6.148   4.808 -0.3504  0.3924 -0.2375
   70SAPC  H14X 6090   6.596   6.214   4.812 -0.1788  0.1302  0.4399
   70SAPC  H14Y 6091   6.553   6.047   4.797  2.5889  1.5801  0.2010
   70SAPC  C315 6092   6.426   6.154   4.941 -0.1096  0.7776  0.1458
   70SAPC  H15X 6093   6.405   6.256   4.979  0.2631  0.3774  1.4929
   70SAPC  H15Y 6094   6.485   6.104   5.022 -0.2900 -0.6316 -0.5692
   70SAPC  C316 6095   6.293   6.076   4.949  0.5007 -0.1343 -0.2142
   70SAPC  H16X 6096   6.302   5.977   4.901 -0.5407  1.0309 -3.0383
   70SAPC  H16Y 6097   6.211   6.135   4.902 -2.1049 -1.4428  2.3899
   70SAPC  C317 6098   6.252   6.046   5.089  0.7387  0.0760  0.0067
   70SAPC  H17X 6099   6.232   6.134   5.154 -1.2458 -1.1703  1.1791
   70SAPC  H17Y 6100   6.325   5.984   5.146 -2.1873 -1.4109  2.4165
   70SAPC  C318 6101   6.126   5.962   5.088  0.2696  0.3401  0.6130
   70SAPC  H18X 6102   6.075   5.956   5.187  0.5169 -1.3741  0.6630
   70SAPC  H18Y 6103   6.146   5.860   5.050  1.7870  1.0993 -0.7735
   70SAPC  H18Z 6104   6.051   6.002   5.017  1.5892 -0.3309 -1.2329
   71SAPC     N 6105   2.378   3.403   2.621  0.3532 -0.4070  0.2349
   71SAPC   C12 6106   2.346   3.347   2.758  1.0758 -0.1519  0.0129
   71SAPC  H12A 6107   2.259   3.398   2.797  1.9067  2.5112 -1.4350
   71SAPC  H12B 6108   2.420   3.360   2.835 -0.7821 -0.1053  1.8638
   71SAPC   C13 6109   2.445   3.297   2.538  0.0442  0.0202  0.0357
   71SAPC  H13A 6110   2.540   3.285   2.588  0.1215  3.0484  0.8322
   71SAPC  H13B 6111   2.390   3.204   2.541  1.6942 -0.9982  0.1320
   71SAPC  H13C 6112   2.470   3.332   2.439  0.2452 -2.1913 -0.7442
   71SAPC   C14 6113   2.255   3.446   2.544  0.0152  0.1261 -0.2454
   71SAPC  H14A 6114   2.192   3.358   2.542 -0.5117  0.4068  1.6484
   71SAPC  H14B 6115   2.206   3.521   2.604  1.0730  0.3848  0.3228
   71SAPC  H14C 6116   2.293   3.480   2.449  0.9977 -1.3311 -0.4156
   71SAPC   C15 6117   2.464   3.522   2.630  0.0090 -0.4860 -0.1583
   71SAPC  H15A 6118   2.547   3.488   2.690 -0.1213 -1.6643 -0.6171
   71SAPC  H15B 6119   2.498   3.559   2.534  0.2752 -2.1059 -0.7215
   71SAPC  H15C 6120   2.419   3.598   2.692  0.1015 -0.8940  0.4136
   71SAPC   C11 6121   2.308   3.201   2.773  0.9251  0.6897 -0.0701
   71SAPC  H11A 6122   2.280   3.185   2.880  0.1859  1.9763 -0.0490
   71SAPC  H11B 6123   2.390   3.130   2.751  0.4947  0.3390 -0.5693
   71SAPC     P 6124   2.053   3.158   2.731  0.2370  0.0291 -0.4386
   71SAPC   O13 6125   1.978   3.281   2.769 -0.0481 -0.3311 -0.0193
   71SAPC   O14 6126   1.994   3.078   2.622 -0.0366 -0.1360 -0.2187
   71SAPC   O12 6127   2.203   3.180   2.676  0.7060  0.8506 -0.4487
   71SAPC   O11 6128   2.077   3.068   2.860 -0.4921 -0.3635 -0.3357
   71SAPC    C1 6129   2.083   2.919   2.859 -0.6177  0.1648  0.4609
   71SAPC    HA 6130   2.088   2.871   2.759 -2.6203  0.4825  0.1570
   71SAPC    HB 6131   2.171   2.887   2.918 -0.5526 -0.5534 -0.0213
   71SAPC    C2 6132   1.948   2.857   2.905 -0.0019  0.5977 -0.6181
   71SAPC    HS 6133   1.870   2.905   2.842 -1.7417 -1.6262 -0.2877
   71SAPC   O21 6134   1.938   2.896   3.042  0.0119 -0.1505  0.0806
   71SAPC   C21 6135   1.807   2.887   3.091  0.5305  0.4815  0.7692
   71SAPC   O22 6136   1.712   2.859   3.013  1.2005 -0.1194  0.0356
   71SAPC   C22 6137   1.803   2.897   3.240 -0.0050 -0.3912 -0.4026
   71SAPC   H2R 6138   1.814   2.794   3.281 -1.7173  0.2862  1.9379
   71SAPC   H2S 6139   1.881   2.968   3.275  0.2758 -0.4198 -0.9579
   71SAPC    C3 6140   1.952   2.699   2.885  0.2269 -0.5272  0.5663
   71SAPC    HX 6141   1.960   2.690   2.774 -0.2325  1.1294  0.3669
   71SAPC    HY 6142   1.856   2.654   2.919 -0.1746 -0.7801 -0.8250
   71SAPC   O31 6143   2.063   2.636   2.947 -0.6090  0.3577  0.4999
   71SAPC   C31 6144   2.040   2.582   3.062  0.5207  0.8598  0.6690
   71SAPC   O32 6145   1.930   2.569   3.116  0.0459  0.3962  0.0379
   71SAPC   C32 6146   2.168   2.546   3.127  0.3352  0.3758 -0.2671
   71SAPC   H2X 6147   2.212   2.455   3.082  0.1356 -0.7420  1.6840
   71SAPC   H2Y 6148   2.165   2.505   3.230  4.9787 -1.6759 -0.7266
   71SAPC   C23 6149   1.665   2.947   3.280  0.6559  0.0477 -0.0293
   71SAPC   H3R 6150   1.582   2.884   3.241  0.3138  0.7374 -0.4454
   71SAPC   H3S 6151   1.645   3.050   3.241 -0.6558 -0.3869 -0.5754
   71SAPC   C24 6152   1.658   2.966   3.433 -0.1338  0.3169  0.0942
   71SAPC   H4R 6153   1.716   3.055   3.467  0.0272  0.6524 -1.0246
   71SAPC   H4S 6154   1.694   2.869   3.471 -3.1025 -2.2445 -2.9996
   71SAPC   C25 6155   1.516   2.991   3.476 -0.3933  0.3005  0.3519
   71SAPC   H5R 6156   1.460   3.067   3.419  0.5358  0.8796  0.1820
   71SAPC   C26 6157   1.448   2.933   3.577 -0.2087 -0.4361 -0.8623
   71SAPC   H6R 6158   1.344   2.959   3.603 -0.4228 -2.0782  0.0648
   71SAPC   C27 6159   1.512   2.834   3.674  0.3438 -0.0943  0.3780
   71SAPC   H7R 6160   1.574   2.752   3.633  0.2331 -0.5871  1.1635
   71SAPC   H7S 6161   1.426   2.778   3.717 -0.2642  1.5096  1.3449
   71SAPC   C28 6162   1.591   2.896   3.790 -0.4800  0.3918  0.4734
   71SAPC   H8R 6163   1.698   2.912   3.770  0.4875 -3.4491  1.7120
   71SAPC   C29 6164   1.546   2.913   3.915 -0.4954  0.0539 -0.0710
   71SAPC   H9R 6165   1.609   2.966   3.988  1.5648 -1.5050 -0.6363
   71SAPC  C210 6166   1.406   2.878   3.964 -0.8465 -0.0293 -0.0184
   71SAPC  H10R 6167   1.338   2.861   3.877 -0.6761 -0.3203 -0.0967
   71SAPC  H10S 6168   1.368   2.968   4.016 -1.7371 -0.0235 -0.6483
   71SAPC  C211 6169   1.400   2.748   4.031 -1.2582 -0.2198 -0.3925
   71SAPC  H11R 6170   1.410   2.661   3.965 -0.6164 -1.7337  1.5840
   71SAPC  C212 6171   1.380   2.735   4.163 -0.3226 -0.2623  0.2645
   71SAPC  H12R 6172   1.388   2.637   4.212  0.9591  1.0761  2.9300
   71SAPC  C213 6173   1.368   2.848   4.263 -0.0886 -0.1398  0.0756
   71SAPC  H13R 6174   1.314   2.939   4.231  0.3826  0.6432  1.4107
   71SAPC  H13S 6175   1.464   2.900   4.286  0.1954 -0.8156  0.4605
   71SAPC  C214 6176   1.297   2.816   4.394 -0.4611 -0.5999 -0.1281
   71SAPC  H14R 6177   1.257   2.713   4.392  0.1994 -0.9746  2.3111
   71SAPC  C215 6178   1.293   2.884   4.508 -0.0192 -0.5658  0.1825
   71SAPC  H15R 6179   1.252   2.839   4.600  0.1053 -1.3087 -0.1180
   71SAPC  C216 6180   1.354   3.023   4.533  0.3026 -0.3241  0.4988
   71SAPC  H16R 6181   1.268   3.093   4.540  0.6221  0.0482  0.7620
   71SAPC  H16S 6182   1.412   3.062   4.446 -3.6966  0.4903 -2.0415
   71SAPC  C217 6183   1.438   3.013   4.660 -0.1041  0.3376  0.4684
   71SAPC  H17R 6184   1.511   2.929   4.654  0.2944  0.7065  0.0425
   71SAPC  H17S 6185   1.372   2.986   4.745 -0.0668 -3.2921 -0.5081
   71SAPC  C218 6186   1.520   3.138   4.690  0.2407 -0.3248  0.5067
   71SAPC  H18R 6187   1.437   3.208   4.713  0.9014  0.3822  0.7766
   71SAPC  H18S 6188   1.569   3.164   4.594 -0.0127  1.9295  0.9465
   71SAPC  C219 6189   1.610   3.130   4.816  0.0504 -0.3426 -0.7966
   71SAPC  H19R 6190   1.660   3.229   4.825 -0.5632 -0.0827 -0.2264
   71SAPC  H19S 6191   1.686   3.050   4.805  3.1650  1.9101  2.2032
   71SAPC  C220 6192   1.530   3.097   4.942 -0.0969  0.6951  1.0705
   71SAPC  H20R 6193   1.588   3.117   5.034  2.0109  1.7534 -0.3969
   71SAPC  H20S 6194   1.486   2.995   4.933 -2.2652  1.6577 -0.3221
   71SAPC  H20T 6195   1.442   3.162   4.960 -0.3996  0.2985  1.0572
   71SAPC   C33 6196   2.288   2.642   3.125  0.1704 -0.3920  0.2520
   71SAPC   H3X 6197   2.278   2.711   3.039  2.0002  1.0701  1.1228
   71SAPC   H3Y 6198   2.382   2.585   3.108 -1.4857 -3.5274  0.7128
   71SAPC   C34 6199   2.293   2.728   3.253 -0.1667  0.7688  0.1063
   71SAPC   H4X 6200   2.387   2.786   3.256 -0.8797  1.9598  0.0035
   71SAPC   H4Y 6201   2.287   2.655   3.337 -5.6973 -1.3220 -1.6541
   71SAPC   C35 6202   2.172   2.818   3.265 -0.1447  0.3057 -0.2991
   71SAPC   H5X 6203   2.085   2.750   3.275 -1.2303  1.6310 -0.3409
   71SAPC   H5Y 6204   2.163   2.876   3.170 -1.4903  1.0940  0.2884
   71SAPC   C36 6205   2.193   2.918   3.383 -0.1416  0.2892 -0.3389
   71SAPC   H6X 6206   2.112   2.993   3.372 -0.9561 -0.1099  2.2277
   71SAPC   H6Y 6207   2.292   2.967   3.372  0.1065 -0.4358 -1.5600
   71SAPC   C37 6208   2.192   2.867   3.526 -0.4610  0.1206  0.2890
   71SAPC   H7X 6209   2.209   2.955   3.592 -1.9440  1.0801 -0.5662
   71SAPC   H7Y 6210   2.267   2.785   3.535 -1.9847 -1.3562 -0.1034
   71SAPC   C38 6211   2.063   2.801   3.568 -0.2451 -0.1342 -0.6324
   71SAPC   H8X 6212   2.043   2.705   3.516  0.2599  0.0913 -1.2487
   71SAPC   H8Y 6213   1.982   2.871   3.538  0.8717  0.0758 -3.4366
   71SAPC   C39 6214   2.064   2.764   3.719 -0.7606  0.5648 -0.3117
   71SAPC   H9X 6215   2.162   2.714   3.737 -1.5044 -1.4019 -1.4070
   71SAPC   H9Y 6216   1.989   2.686   3.745 -2.3123  2.8058  2.5286
   71SAPC  C310 6217   2.053   2.882   3.814  0.0514  0.2333  0.3630
   71SAPC  H10X 6218   1.952   2.922   3.792 -0.6144 -1.3337  0.3867
   71SAPC  H10Y 6219   2.132   2.956   3.789  1.1308 -1.0029 -0.0308
   71SAPC  C311 6220   2.079   2.849   3.960  0.3410  0.4491 -0.2286
   71SAPC  H11X 6221   2.102   2.942   4.017  1.1727  1.0381 -1.4791
   71SAPC  H11Y 6222   2.170   2.784   3.965 -1.3176 -1.9099  1.6152
   71SAPC  C312 6223   1.953   2.786   4.026 -0.0025  0.1906 -0.0574
   71SAPC  H12X 6224   1.949   2.686   3.978  2.8030  0.8177 -1.8129
   71SAPC  H12Y 6225   1.859   2.835   3.993  0.7666 -0.1313 -3.0139
   71SAPC  C313 6226   1.964   2.782   4.177  0.1449  0.1810  0.2770
   71SAPC  H13X 6227   1.955   2.886   4.214 -0.6244  0.3049 -0.2187
   71SAPC  H13Y 6228   2.060   2.736   4.209 -0.1717 -1.6763 -1.2689
   71SAPC  C314 6229   1.846   2.699   4.237 -0.0772  0.4264 -0.3452
   71SAPC  H14X 6230   1.832   2.605   4.180 -1.1004 -0.0142  0.5962
   71SAPC  H14Y 6231   1.756   2.754   4.201  0.2543  0.4298 -1.1842
   71SAPC  C315 6232   1.853   2.692   4.390  0.4092 -0.2037  0.5618
   71SAPC  H15X 6233   1.882   2.787   4.440 -2.5682 -0.3161  2.8064
   71SAPC  H15Y 6234   1.937   2.625   4.417  2.5765  2.0861 -0.1091
   71SAPC  C316 6235   1.723   2.646   4.449  0.3920  0.5772 -0.0071
   71SAPC  H16X 6236   1.671   2.557   4.408  0.4016  1.2971 -1.6356
   71SAPC  H16Y 6237   1.654   2.730   4.427  1.0728  1.1814  0.1249
   71SAPC  C317 6238   1.726   2.631   4.602 -0.4661 -0.4272  0.6633
   71SAPC  H17X 6239   1.797   2.548   4.623  1.0287  1.0753  1.8487
   71SAPC  H17Y 6240   1.629   2.609   4.653 -0.3210  1.6916  1.9723
   71SAPC  C318 6241   1.791   2.756   4.672 -0.3109 -0.1543 -0.8449
   71SAPC  H18X 6242   1.771   2.854   4.623  3.2692  1.6431  0.8925
   71SAPC  H18Y 6243   1.902   2.748   4.669  0.0800  3.2989  0.1807
   71SAPC  H18Z 6244   1.759   2.756   4.778  0.2379 -0.4169 -0.6780
   72SAPC     N 6245   6.325   1.735   2.626 -0.2772 -0.5369 -0.5975
   72SAPC   C12 6246   6.469   1.722   2.611 -0.5334  0.3378  0.0009
   72SAPC  H12A 6247   6.513   1.802   2.553 -1.8359 -0.6647 -2.5463
   72SAPC  H12B 6248   6.480   1.637   2.544 -0.8687 -1.1628  1.7774
   72SAPC   C13 6249   6.294   1.867   2.697  0.4779 -0.2407 -0.5402
   72SAPC  H13A 6250   6.187   1.882   2.693  0.2094 -1.8343 -4.8815
   72SAPC  H13B 6251   6.329   1.867   2.799 -0.5390  0.3120 -0.1703
   72SAPC  H13C 6252   6.342   1.945   2.639  0.5166  0.2642  0.1628
   72SAPC   C14 6253   6.268   1.744   2.477 -0.1924 -0.2012 -1.4480
   72SAPC  H14A 6254   6.161   1.751   2.488  0.1131  0.2031  2.6600
   72SAPC  H14B 6255   6.309   1.829   2.425  0.9191 -1.2005 -2.2745
   72SAPC  H14C 6256   6.283   1.653   2.419  1.5508  0.2491 -1.7538
   72SAPC   C15 6257   6.256   1.628   2.701 -0.4112 -0.3940  0.7653
   72SAPC  H15A 6258   6.149   1.639   2.703 -0.4032 -0.3774  1.0234
   72SAPC  H15B 6259   6.266   1.532   2.653  0.5314 -0.1835  0.5200
   72SAPC  H15C 6260   6.296   1.626   2.801 -0.5352 -2.3302  0.8053
   72SAPC   C11 6261   6.555   1.695   2.743 -0.2143  0.3681 -0.3322
   72SAPC  H11A 6262   6.514   1.604   2.792  1.5238  0.4681  1.4390
   72SAPC  H11B 6263   6.544   1.778   2.816 -0.3652  1.5289 -1.6406
   72SAPC     P 6264   6.808   1.767   2.740 -0.5828 -0.0129  0.0063
   72SAPC   O13 6265   6.929   1.733   2.664 -0.8097  0.5346 -0.6933
   72SAPC   O14 6266   6.756   1.911   2.741 -0.3956  0.4144  0.4678
   72SAPC   O12 6267   6.692   1.669   2.702  0.5897  0.2091 -0.2672
   72SAPC   O11 6268   6.829   1.723   2.888 -0.3111 -0.5680 -0.2382
   72SAPC    C1 6269   6.850   1.585   2.915 -0.0220 -0.1181  0.0170
   72SAPC    HA 6270   6.752   1.533   2.907  0.0619 -0.1146 -1.2748
   72SAPC    HB 6271   6.928   1.539   2.850  0.2757 -1.3778  1.2282
   72SAPC    C2 6272   6.898   1.577   3.065  0.0188  0.5201 -0.3649
   72SAPC    HS 6273   6.929   1.473   3.087  3.2199  1.4208 -0.0815
   72SAPC   O21 6274   6.795   1.625   3.155  0.0893 -0.1711 -0.1145
   72SAPC   C21 6275   6.704   1.529   3.173  0.6863  0.0015  0.3004
   72SAPC   O22 6276   6.700   1.423   3.113 -0.1170 -0.4748 -0.2857
   72SAPC   C22 6277   6.605   1.572   3.277 -0.0810 -0.0768 -0.4973
   72SAPC   H2R 6278   6.653   1.593   3.376 -2.1771 -0.1691  0.5962
   72SAPC   H2S 6279   6.572   1.669   3.236  1.1457  0.2636 -0.7257
   72SAPC    C3 6280   7.026   1.666   3.089 -0.4269 -0.2091 -0.7002
   72SAPC    HX 6281   6.996   1.771   3.071  0.1265  0.3135  1.2127
   72SAPC    HY 6282   7.098   1.643   3.007  1.8552 -0.6145  1.3205
   72SAPC   O31 6283   7.078   1.648   3.224 -0.2242 -0.3801 -0.4149
   72SAPC   C31 6284   7.149   1.752   3.278 -0.5793  0.6385  0.1568
   72SAPC   O32 6285   7.185   1.845   3.210  0.4508  0.2648 -0.0279
   72SAPC   C32 6286   7.155   1.732   3.430 -0.1601  0.6028  0.0502
   72SAPC   H2X 6287   7.169   1.834   3.471  1.5644 -0.2141  1.6206
   72SAPC   H2Y 6288   7.237   1.661   3.452 -0.2797  0.1700 -0.8487
   72SAPC   C23 6289   6.480   1.482   3.302 -0.3487  0.7207  0.0931
   72SAPC   H3R 6290   6.520   1.379   3.315 -0.5333  0.6864  0.4031
   72SAPC   H3S 6291   6.431   1.480   3.202  0.5649 -0.1057 -0.3535
   72SAPC   C24 6292   6.380   1.518   3.407 -0.0550 -0.0375 -0.2936
   72SAPC   H4R 6293   6.287   1.459   3.390  0.9073 -2.1758  1.3325
   72SAPC   H4S 6294   6.353   1.624   3.386  2.2139  0.7224  0.3108
   72SAPC   C25 6295   6.434   1.515   3.550 -0.5069 -0.1855  0.3359
   72SAPC   H5R 6296   6.541   1.540   3.562  0.0088 -1.4949 -1.1134
   72SAPC   C26 6297   6.367   1.468   3.658 -0.0505 -0.1544 -0.4220
   72SAPC   H6R 6298   6.411   1.465   3.759 -0.5102  1.6722 -0.1342
   72SAPC   C27 6299   6.226   1.426   3.675  0.3945  0.3293 -0.0259
   72SAPC   H7R 6300   6.171   1.429   3.579 -0.4884  0.4499  0.4782
   72SAPC   H7S 6301   6.162   1.493   3.736 -0.0688 -1.3146  1.3358
   72SAPC   C28 6302   6.212   1.293   3.743 -0.1063  0.2682  0.2221
   72SAPC   H8R 6303   6.245   1.212   3.677 -0.4576 -0.5718  1.0499
   72SAPC   C29 6304   6.149   1.257   3.855 -0.0822 -0.3886  0.4624
   72SAPC   H9R 6305   6.149   1.154   3.893 -1.3786  0.1368  1.9918
   72SAPC  C210 6306   6.079   1.356   3.949 -0.0898  0.0252  0.1036
   72SAPC  H10R 6307   5.978   1.315   3.971  0.3737 -0.5687  1.1545
   72SAPC  H10S 6308   6.060   1.454   3.901  2.0023  0.2629 -0.3169
   72SAPC  C211 6309   6.158   1.385   4.073  0.0311  0.3194  0.3225
   72SAPC  H11R 6310   6.265   1.359   4.076 -0.0055  0.2440  2.3381
   72SAPC  C212 6311   6.089   1.408   4.189  0.3420 -0.0953  0.6546
   72SAPC  H12R 6312   6.155   1.430   4.274  0.0918 -0.4810  0.9516
   72SAPC  C213 6313   5.940   1.422   4.220  0.7394  0.3296 -0.4287
   72SAPC  H13R 6314   5.891   1.500   4.159  1.4307  0.5593 -0.7016
   72SAPC  H13S 6315   5.934   1.460   4.324  1.4549 -1.1974  0.2102
   72SAPC  C214 6316   5.863   1.292   4.228  0.5207  0.0987  0.3200
   72SAPC  H14R 6317   5.898   1.210   4.164  0.4554 -0.8618  1.4919
   72SAPC  C215 6318   5.739   1.276   4.276  0.0753  0.1681  0.5110
   72SAPC  H15R 6319   5.681   1.186   4.251  2.3561 -1.6425  1.2834
   72SAPC  C216 6320   5.665   1.382   4.353  0.5747  0.0877  0.1284
   72SAPC  H16R 6321   5.560   1.370   4.318  0.4770 -1.2211  0.8124
   72SAPC  H16S 6322   5.703   1.481   4.318  1.8106 -0.0335  1.0593
   72SAPC  C217 6323   5.648   1.375   4.504 -0.4421  0.5057 -0.4301
   72SAPC  H17R 6324   5.591   1.285   4.536  0.6390  0.0048  0.1326
   72SAPC  H17S 6325   5.582   1.458   4.538  1.5640  1.3307  1.7527
   72SAPC  C218 6326   5.777   1.390   4.593 -0.1835  0.5131  0.4631
   72SAPC  H18R 6327   5.835   1.475   4.554 -0.9259  1.5321  1.5139
   72SAPC  H18S 6328   5.845   1.302   4.584 -1.3516 -0.5353  1.3358
   72SAPC  C219 6329   5.749   1.413   4.741 -0.0709 -0.4038 -0.3662
   72SAPC  H19R 6330   5.708   1.321   4.787  0.4351  0.2765  1.5459
   72SAPC  H19S 6331   5.675   1.495   4.753  1.4709  0.8818  0.9026
   72SAPC  C220 6332   5.876   1.453   4.823 -0.2917  0.3096  0.1338
   72SAPC  H20R 6333   5.931   1.358   4.839  0.6403  0.4226 -2.0877
   72SAPC  H20S 6334   5.858   1.487   4.927  3.2454 -2.4121  1.8356
   72SAPC  H20T 6335   5.926   1.545   4.785 -2.1940  1.4731  0.3159
   72SAPC   C33 6336   7.029   1.672   3.489  0.5353  0.4344  0.1184
   72SAPC   H3X 6337   7.028   1.565   3.460 -1.9588 -1.5756  6.0433
   72SAPC   H3Y 6338   6.948   1.736   3.446  2.4350  1.9531 -1.4009
   72SAPC   C34 6339   7.030   1.671   3.646 -0.2567  0.5508 -0.1702
   72SAPC   H4X 6340   7.000   1.773   3.678  0.1833  0.6571 -0.0997
   72SAPC   H4Y 6341   7.128   1.632   3.681 -0.0206  0.3884 -1.0079
   72SAPC   C35 6342   6.930   1.566   3.700  0.6835 -0.4596 -0.1164
   72SAPC   H5X 6343   6.966   1.461   3.693  1.5164 -0.1688 -0.2909
   72SAPC   H5Y 6344   6.832   1.579   3.650 -1.4775 -0.6757  3.6381
   72SAPC   C36 6345   6.894   1.585   3.857 -0.2253 -0.0889  0.3042
   72SAPC   H6X 6346   6.814   1.513   3.884 -1.3195  0.8713 -0.2608
   72SAPC   H6Y 6347   6.861   1.689   3.875  0.9452  0.5176 -0.8235
   72SAPC   C37 6348   7.011   1.550   3.953 -0.8364 -0.1641  0.1198
   72SAPC   H7X 6349   7.099   1.614   3.930  0.7555 -2.7746 -1.6115
   72SAPC   H7Y 6350   7.043   1.447   3.927  1.1637  0.3133  0.4938
   72SAPC   C38 6351   6.983   1.564   4.097  0.2706 -0.4944  0.4738
   72SAPC   H8X 6352   6.949   1.668   4.118 -2.6241 -0.9364 -1.4409
   72SAPC   H8Y 6353   7.081   1.546   4.146  1.0805  0.1216 -0.8520
   72SAPC   C39 6354   6.873   1.472   4.151 -0.4209  0.5794  0.0263
   72SAPC   H9X 6355   6.929   1.376   4.162 -1.1470  0.2049  0.5622
   72SAPC   H9Y 6356   6.792   1.458   4.075 -1.3364  2.8695  0.4999
   72SAPC  C310 6357   6.805   1.515   4.282  0.2334 -0.7962 -0.8307
   72SAPC  H10X 6358   6.718   1.447   4.293 -0.2300 -0.2695 -1.1378
   72SAPC  H10Y 6359   6.751   1.611   4.266  0.9800 -0.5908 -2.3018
   72SAPC  C311 6360   6.890   1.518   4.412 -0.7684 -0.1676  0.4765
   72SAPC  H11X 6361   6.831   1.546   4.502 -0.9037 -2.5897  1.2404
   72SAPC  H11Y 6362   6.970   1.594   4.409  0.5952 -1.5672 -1.7754
   72SAPC  C312 6363   6.959   1.380   4.440  0.0680  0.1360 -0.3006
   72SAPC  H12X 6364   7.026   1.393   4.527  1.2596 -0.4218 -1.0946
   72SAPC  H12Y 6365   7.031   1.362   4.357 -0.3225 -1.8248 -0.2610
   72SAPC  C313 6366   6.866   1.263   4.455  0.3155 -0.0908 -0.0612
   72SAPC  H13X 6367   6.920   1.167   4.471  0.4237 -0.2022 -1.0553
   72SAPC  H13Y 6368   6.812   1.247   4.360 -0.2845 -1.0066  0.4077
   72SAPC  C314 6369   6.766   1.279   4.575  0.7668  0.0800  0.1085
   72SAPC  H14X 6370   6.704   1.189   4.591  1.1997 -0.2933 -0.2862
   72SAPC  H14Y 6371   6.690   1.357   4.554 -0.6590 -1.5706 -1.0366
   72SAPC  C315 6372   6.846   1.310   4.702 -0.4128  0.8676  0.7969
   72SAPC  H15X 6373   6.906   1.403   4.692  0.6468  0.1878  0.6149
   72SAPC  H15Y 6374   6.918   1.230   4.728 -2.2556 -0.1550  3.1675
   72SAPC  C316 6375   6.765   1.328   4.826  0.3627  0.5196 -0.4909
   72SAPC  H16X 6376   6.824   1.378   4.906  1.5429 -0.3548 -0.7916
   72SAPC  H16Y 6377   6.733   1.229   4.863  0.5365  0.3051 -0.9086
   72SAPC  C317 6378   6.629   1.414   4.806 -0.2047  0.0930  0.5375
   72SAPC  H17X 6379   6.574   1.409   4.903  0.8881 -3.7268  1.1587
   72SAPC  H17Y 6380   6.567   1.374   4.723 -0.2775  1.4411 -0.0800
   72SAPC  C318 6381   6.672   1.559   4.775 -0.4097  0.2603  0.5532
   72SAPC  H18X 6382   6.590   1.634   4.776  0.7930  1.6418 -0.7588
   72SAPC  H18Y 6383   6.729   1.571   4.681  2.0729  1.7161  2.1297
   72SAPC  H18Z 6384   6.746   1.598   4.848  1.6252 -2.2210 -0.0188
   73SLPC     N 6385   2.239   4.267   7.303 -0.5065 -0.2258 -0.5111
   73SLPC   C13 6386   2.266   4.352   7.427 -0.5008  0.5117 -0.4132
   73SLPC  H13A 6387   2.362   4.399   7.418  0.6340 -1.7347 -0.7351
   73SLPC  H13B 6388   2.189   4.425   7.448  0.1669  1.1606 -0.2189
   73SLPC  H13C 6389   2.280   4.287   7.513 -1.6077 -1.4622 -1.6367
   73SLPC   C14 6390   2.124   4.180   7.331 -0.3273 -0.5583  0.0721
   73SLPC  H14A 6391   2.109   4.107   7.253 -1.2907 -0.6108  0.3008
   73SLPC  H14B 6392   2.141   4.123   7.422 -0.1711 -0.7295 -0.0650
   73SLPC  H14C 6393   2.034   4.238   7.341 -0.1772 -0.4754  1.0638
   73SLPC   C15 6394   2.359   4.176   7.275  0.0932 -0.3244  0.3843
   73SLPC  H15A 6395   2.416   4.163   7.367  0.6178  3.3147  0.7460
   73SLPC  H15B 6396   2.330   4.081   7.234  2.3083 -2.0377  2.4438
   73SLPC  H15C 6397   2.422   4.236   7.211 -0.5629  1.2438  1.1469
   73SLPC   C12 6398   2.195   4.342   7.183  0.8730 -0.0742  0.1985
   73SLPC  H12A 6399   2.094   4.377   7.198 -0.0538 -2.0258 -1.0394
   73SLPC  H12B 6400   2.173   4.273   7.103 -0.6023  1.1534 -0.4972
   73SLPC   C11 6401   2.288   4.453   7.138  0.3775  0.1731  0.4987
   73SLPC  H11A 6402   2.390   4.414   7.116  0.8289  1.6215 -0.1417
   73SLPC  H11B 6403   2.312   4.524   7.220  0.1825 -0.3881  1.0474
   73SLPC     P 6404   2.274   4.481   6.874  0.1869 -0.1186  0.5301
   73SLPC   O13 6405   2.401   4.554   6.852  0.2952  0.0733 -0.0514
   73SLPC   O14 6406   2.282   4.333   6.858  0.0188  0.0245  0.3875
   73SLPC   O12 6407   2.226   4.514   7.023 -0.0484 -0.1095 -0.0654
   73SLPC   O11 6408   2.160   4.536   6.781  0.3367 -0.8384 -0.1140
   73SLPC    C1 6409   2.015   4.502   6.818 -0.3016 -0.1434 -0.2684
   73SLPC    HA 6410   2.008   4.391   6.822  1.3655 -0.2471  0.1495
   73SLPC    HB 6411   1.987   4.545   6.916 -2.0582  0.3856 -0.9552
   73SLPC    C2 6412   1.923   4.551   6.704  0.4556  0.9347  0.1340
   73SLPC    HS 6413   1.819   4.515   6.719  1.4490 -2.4450 -0.2227
   73SLPC   O21 6414   1.969   4.496   6.581 -0.3420  0.1282 -0.4877
   73SLPC   C21 6415   1.885   4.487   6.479 -0.1034  0.5741 -0.5597
   73SLPC   O22 6416   1.765   4.521   6.491 -0.3760  0.4201 -0.3589
   73SLPC   C22 6417   1.938   4.429   6.350 -0.0285 -0.1214 -0.1705
   73SLPC   H2R 6418   2.047   4.440   6.333 -0.5559  2.2540 -2.5754
   73SLPC   H2S 6419   1.928   4.318   6.353  1.7414 -0.4552  5.2481
   73SLPC    C3 6420   1.932   4.711   6.699  0.5406 -0.3945  0.2554
   73SLPC    HX 6421   2.041   4.728   6.680  0.7422  0.2965  1.8630
   73SLPC    HY 6422   1.907   4.750   6.800 -0.0235 -0.4035  0.1228
   73SLPC   O31 6423   1.849   4.782   6.595 -0.8306 -0.4297  0.0648
   73SLPC   C31 6424   1.721   4.802   6.639  0.0483  0.7136 -0.2957
   73SLPC   O32 6425   1.688   4.781   6.753 -0.4222 -0.0724 -0.4183
   73SLPC   C32 6426   1.637   4.850   6.526  0.0794 -0.0068 -0.5905
   73SLPC   H2X 6427   1.673   4.947   6.485  0.7606 -0.0221 -0.0554
   73SLPC   H2Y 6428   1.545   4.874   6.583 -0.2652 -0.8408 -0.7845
   73SLPC   C23 6429   1.860   4.496   6.234 -0.2983  0.2563 -0.5850
   73SLPC   H3R 6430   1.882   4.605   6.226 -1.3176  0.3321 -4.9060
   73SLPC   H3S 6431   1.749   4.500   6.242 -0.3851  0.2968 -1.7082
   73SLPC   C24 6432   1.893   4.444   6.102  0.0208 -0.3908 -0.2753
   73SLPC   H4R 6433   1.882   4.334   6.115  0.7481 -0.3390  0.9176
   73SLPC   H4S 6434   1.999   4.469   6.079 -0.1071 -0.2268 -0.7026
   73SLPC   C25 6435   1.816   4.503   5.982 -0.0347 -0.4769  0.0023
   73SLPC   H5R 6436   1.838   4.612   5.986  0.0865 -0.4779 -0.5424
   73SLPC   H5S 6437   1.707   4.487   5.993 -0.6002  2.4677 -0.6174
   73SLPC   C26 6438   1.855   4.462   5.841  0.2539 -0.2360 -0.1479
   73SLPC   H6R 6439   1.843   4.353   5.823  0.3937  0.2462 -3.8261
   73SLPC   H6S 6440   1.964   4.483   5.832  0.5322 -1.1886  0.7799
   73SLPC   C27 6441   1.774   4.527   5.734 -0.6563  0.1353  0.2932
   73SLPC   H7R 6442   1.749   4.633   5.758 -0.6989  1.1391 -3.4855
   73SLPC   H7S 6443   1.680   4.472   5.715  0.0083 -1.8545  2.3601
   73SLPC   C28 6444   1.863   4.518   5.605  0.6542 -0.5189 -1.1685
   73SLPC   H8R 6445   1.866   4.409   5.584  1.5546 -0.8570  0.5332
   73SLPC   H8S 6446   1.959   4.566   5.634  1.1061 -0.4130 -2.7480
   73SLPC   C29 6447   1.799   4.597   5.502 -0.6287 -0.3224  0.0298
   73SLPC   H9R 6448   1.785   4.700   5.537 -0.5583  0.2322 -1.4865
   73SLPC  C210 6449   1.771   4.568   5.371  0.2653  0.1558 -0.3487
   73SLPC  H10R 6450   1.718   4.642   5.309  1.3091 -0.0770 -1.5569
   73SLPC  C211 6451   1.806   4.442   5.300  0.3828 -0.1595  0.5346
   73SLPC  H11R 6452   1.874   4.385   5.367  0.1651 -2.3571 -1.0474
   73SLPC  H11S 6453   1.861   4.466   5.207  1.1044  2.5297  1.5348
   73SLPC  C212 6454   1.681   4.365   5.285  0.7466 -0.5036 -0.2406
   73SLPC  H12R 6455   1.627   4.357   5.380  1.6432  2.6342  0.6660
   73SLPC  C213 6456   1.640   4.300   5.170 -1.0143 -0.6325  0.1458
   73SLPC  H13R 6457   1.547   4.242   5.164 -0.0856 -2.2746  0.7986
   73SLPC  C214 6458   1.713   4.296   5.038  0.7471 -0.4743 -0.3481
   73SLPC  H14R 6459   1.710   4.190   5.004 -2.5529 -1.2470  1.8586
   73SLPC  H14S 6460   1.820   4.322   5.054  0.7327 -1.1836  0.9930
   73SLPC  C215 6461   1.649   4.374   4.920  0.4729 -0.0046 -0.1687
   73SLPC  H15R 6462   1.701   4.357   4.823 -2.9692  2.0152 -2.5840
   73SLPC  H15S 6463   1.669   4.481   4.943  1.5444 -0.9222  4.2154
   73SLPC  C216 6464   1.505   4.338   4.886 -0.8690  0.0169  0.3620
   73SLPC  H16R 6465   1.465   4.394   4.799 -3.8307 -4.2021 -1.3114
   73SLPC  H16S 6466   1.433   4.365   4.967 -1.4260  1.1717 -0.4905
   73SLPC  C217 6467   1.488   4.190   4.853  0.2914  0.5480 -0.6333
   73SLPC  H17R 6468   1.499   4.134   4.948  0.9434  1.7922  0.0437
   73SLPC  H17S 6469   1.569   4.151   4.787  1.4889  2.4484 -0.3713
   73SLPC  C218 6470   1.356   4.148   4.777 -0.0374  0.6977 -0.5056
   73SLPC  H18R 6471   1.364   4.179   4.671  3.1229  1.1573 -0.2376
   73SLPC  H18S 6472   1.276   4.206   4.829 -0.3793 -1.6298  1.7984
   73SLPC  H18T 6473   1.344   4.038   4.786 -1.0339  0.6585 -1.9418
   73SLPC   C33 6474   1.609   4.758   6.408  0.5276  0.5607 -0.1887
   73SLPC   H3X 6475   1.577   4.657   6.441 -4.3197  1.7720 -0.4356
   73SLPC   H3Y 6476   1.702   4.736   6.351  0.9246  1.5749  0.0427
   73SLPC   C34 6477   1.510   4.811   6.306 -1.1393 -0.0023  0.0234
   73SLPC   H4X 6478   1.514   4.918   6.278 -1.4368 -0.3112 -1.2464
   73SLPC   H4Y 6479   1.407   4.804   6.346 -1.2108  0.8029 -0.0140
   73SLPC   C35 6480   1.534   4.728   6.177  0.1695  0.0923 -0.2692
   73SLPC   H5X 6481   1.481   4.634   6.203  0.5921 -0.1818 -0.3937
   73SLPC   H5Y 6482   1.639   4.710   6.147  0.3478 -0.5974  0.7180
   73SLPC   C36 6483   1.465   4.782   6.053  0.2672 -0.0146  0.4645
   73SLPC   H6X 6484   1.512   4.878   6.021  2.8015 -1.2986  0.0566
   73SLPC   H6Y 6485   1.357   4.797   6.070 -0.1357 -0.9286 -1.0406
   73SLPC   C37 6486   1.484   4.685   5.927  0.2234 -0.4192 -0.8625
   73SLPC   H7X 6487   1.426   4.593   5.950  1.0094 -1.0222 -1.2426
   73SLPC   H7Y 6488   1.589   4.650   5.937  0.0888 -0.1682  2.5112
   73SLPC   C38 6489   1.443   4.761   5.806  0.3433  0.5775 -0.1265
   73SLPC   H8X 6490   1.489   4.861   5.789 -0.0849  0.4592 -2.2877
   73SLPC   H8Y 6491   1.333   4.777   5.814  0.0559 -1.2728 -0.0720
   73SLPC   C39 6492   1.461   4.688   5.673  0.5591 -0.1908 -0.2248
   73SLPC   H9X 6493   1.400   4.596   5.676 -1.9044  1.3017 -1.1400
   73SLPC   H9Y 6494   1.565   4.656   5.652 -0.4519 -3.9516 -0.1915
   73SLPC  C310 6495   1.430   4.777   5.550  0.3426  0.1599  0.4472
   73SLPC  H10X 6496   1.516   4.808   5.487  0.3009 -1.5675 -0.5321
   73SLPC  H10Y 6497   1.395   4.874   5.591  0.7142  0.0306  1.0722
   73SLPC  C311 6498   1.319   4.723   5.454  0.1554 -0.7538  0.3703
   73SLPC  H11X 6499   1.296   4.800   5.377 -0.3397 -1.4552 -0.1991
   73SLPC  H11Y 6500   1.230   4.697   5.515 -0.7364 -0.4909 -0.7816
   73SLPC  C312 6501   1.360   4.600   5.371  0.5540  0.1280 -0.1569
   73SLPC  H12X 6502   1.271   4.541   5.340  2.0644 -2.7525  0.6220
   73SLPC  H12Y 6503   1.425   4.537   5.436  1.3256 -0.7949 -1.7628
   73SLPC  C313 6504   1.420   4.651   5.235  0.1632 -0.9551 -0.3208
   73SLPC  H13X 6505   1.475   4.557   5.212  0.8440 -0.9151  1.0612
   73SLPC  H13Y 6506   1.490   4.733   5.260 -1.1073  0.6329 -1.6793
   73SLPC  C314 6507   1.328   4.688   5.118 -0.0241 -0.1453 -0.6378
   73SLPC  H14X 6508   1.252   4.766   5.141  1.2751  1.2756 -0.9557
   73SLPC  H14Y 6509   1.275   4.592   5.101 -1.8585  0.5904  0.5264
   73SLPC  C315 6510   1.397   4.714   4.982  0.2155  0.0677 -0.7222
   73SLPC  H15X 6511   1.314   4.743   4.914 -0.0836  0.5133 -0.1711
   73SLPC  H15Y 6512   1.453   4.628   4.940  0.5753  0.5334 -1.2082
   73SLPC  C316 6513   1.507   4.823   4.990 -0.4069  0.7517  0.4705
   73SLPC  H16X 6514   1.575   4.802   5.075  0.7350 -0.0308 -0.5912
   73SLPC  H16Y 6515   1.465   4.923   5.014  0.5518  1.0813  0.8413
   73SLPC  C317 6516   1.582   4.840   4.860  0.1813  0.0926 -0.1739
   73SLPC  H17X 6517   1.604   4.737   4.822  0.7314  0.0248  0.3241
   73SLPC  H17Y 6518   1.662   4.908   4.894  0.1215 -0.1141  0.3890
   73SLPC  C318 6519   1.486   4.919   4.765 -0.2388 -0.5668  0.3919
   73SLPC  H18X 6520   1.536   4.938   4.668 -2.6305 -0.4484 -0.9064
   73SLPC  H18Y 6521   1.468   5.019   4.809  0.9758 -0.2081  0.0847
   73SLPC  H18Z 6522   1.394   4.859   4.747  0.4527 -0.9495 -2.3569
   74SLPC     N 6523   6.028   3.342   7.240 -1.1770 -0.2978  0.6359
   74SLPC   C13 6524   6.154   3.303   7.299  0.2767 -0.1295 -0.5097
   74SLPC  H13A 6525   6.217   3.243   7.236  0.8572 -2.6381  2.2077
   74SLPC  H13B 6526   6.220   3.382   7.334  0.1305  0.0232 -0.5756
   74SLPC  H13C 6527   6.135   3.245   7.388 -1.2542  0.2913 -0.5257
   74SLPC   C14 6528   5.949   3.416   7.345  0.4498  0.2997  0.1879
   74SLPC  H14A 6529   5.925   3.346   7.424 -0.2357 -1.9917 -1.9375
   74SLPC  H14B 6530   5.988   3.503   7.396 -0.3960  1.3840 -0.9466
   74SLPC  H14C 6531   5.855   3.445   7.301  0.4471 -0.5784 -0.3847
   74SLPC   C15 6532   5.960   3.225   7.174 -0.0563 -0.5217 -0.4319
   74SLPC  H15A 6533   5.947   3.138   7.237  3.1222  1.0437  2.7744
   74SLPC  H15B 6534   5.862   3.247   7.133 -0.3895 -1.1697 -0.0058
   74SLPC  H15C 6535   6.019   3.204   7.086 -1.8481  1.2076 -2.1693
   74SLPC   C12 6536   6.054   3.443   7.128 -0.8697  0.3541 -0.1361
   74SLPC  H12A 6537   6.083   3.537   7.174  5.9289 -1.2972 -0.0713
   74SLPC  H12B 6538   5.963   3.460   7.071 -2.2205 -0.1208  1.7869
   74SLPC   C11 6539   6.159   3.409   7.020 -0.0636  0.2736  0.0345
   74SLPC  H11A 6540   6.256   3.393   7.071  1.1145  1.8056 -1.6202
   74SLPC  H11B 6541   6.173   3.501   6.960 -2.3068 -0.6520 -2.0456
   74SLPC     P 6542   6.027   3.320   6.806  0.2848 -0.8258  0.2945
   74SLPC   O13 6543   5.975   3.187   6.762 -0.4090  0.0811 -0.1146
   74SLPC   O14 6544   5.923   3.425   6.830  0.0639  0.0474 -0.3272
   74SLPC   O12 6545   6.121   3.302   6.934  0.3445  0.2125 -0.1504
   74SLPC   O11 6546   6.121   3.373   6.700 -0.1356  0.2413  0.3216
   74SLPC    C1 6547   6.109   3.491   6.614  0.0266  0.3432  0.1032
   74SLPC    HA 6548   6.089   3.582   6.675  0.4939  1.4327 -1.3192
   74SLPC    HB 6549   6.197   3.519   6.553 -0.5614  0.7065 -0.5977
   74SLPC    C2 6550   5.994   3.476   6.509 -0.4676  0.1767 -0.2454
   74SLPC    HS 6551   5.905   3.473   6.575 -0.6383  1.4119 -0.4094
   74SLPC   O21 6552   6.013   3.352   6.432 -0.9386 -0.4301 -0.4906
   74SLPC   C21 6553   5.903   3.293   6.395 -0.5302  0.0211 -0.1994
   74SLPC   O22 6554   5.797   3.314   6.446  0.1918 -0.0033  0.3619
   74SLPC   C22 6555   5.934   3.200   6.273  0.3580 -0.1217  0.3056
   74SLPC   H2R 6556   5.950   3.271   6.188 -0.2481  0.7403  0.8915
   74SLPC   H2S 6557   6.028   3.149   6.303 -1.2330 -1.9978  2.4152
   74SLPC    C3 6558   5.983   3.595   6.404  1.1215  1.8527  0.5286
   74SLPC    HX 6559   6.085   3.591   6.360  0.3117 -0.5897 -1.3873
   74SLPC    HY 6560   5.969   3.687   6.464 -1.2470  0.3561  2.4398
   74SLPC   O31 6561   5.887   3.573   6.296  0.2005 -0.8821  0.2160
   74SLPC   C31 6562   5.765   3.615   6.321 -0.3412  0.0892 -0.2385
   74SLPC   O32 6563   5.740   3.682   6.421  0.5111  0.2650  0.5644
   74SLPC   C32 6564   5.669   3.585   6.212  0.8586 -0.3502  0.6366
   74SLPC   H2X 6565   5.605   3.675   6.205  1.0131 -0.0281  2.8232
   74SLPC   H2Y 6566   5.614   3.494   6.245  1.7507 -0.4393  1.9600
   74SLPC   C23 6567   5.818   3.102   6.242  0.5726  0.3154 -0.5806
   74SLPC   H3R 6568   5.797   3.044   6.334 -0.2161  0.1339 -0.8636
   74SLPC   H3S 6569   5.862   3.028   6.172  0.6386  1.0875 -1.3822
   74SLPC   C24 6570   5.693   3.157   6.190 -0.5146 -0.3774 -0.2967
   74SLPC   H4R 6571   5.717   3.222   6.103  1.8741  1.6994  1.7653
   74SLPC   H4S 6572   5.648   3.226   6.265  0.3624 -1.5608  1.4017
   74SLPC   C25 6573   5.583   3.062   6.146  0.3231 -0.4425  0.5598
   74SLPC   H5R 6574   5.494   3.125   6.121  0.2099 -0.0790  1.8212
   74SLPC   H5S 6575   5.548   2.994   6.226  1.2160 -1.8895 -0.2545
   74SLPC   C26 6576   5.629   2.980   6.027 -0.1182  0.4143 -0.4787
   74SLPC   H6R 6577   5.563   2.895   5.999  1.6013 -1.2132  0.2140
   74SLPC   H6S 6578   5.725   2.933   6.056  0.4310  1.3547 -0.7427
   74SLPC   C27 6579   5.635   3.068   5.898 -0.5823  0.5855 -0.0655
   74SLPC   H7R 6580   5.698   3.158   5.915  0.6962 -0.5601  1.5620
   74SLPC   H7S 6581   5.529   3.098   5.878 -0.6792  0.2598 -0.0369
   74SLPC   C28 6582   5.667   2.996   5.772  0.3392  0.2869 -0.1108
   74SLPC   H8R 6583   5.586   2.925   5.747 -0.1658  0.4445  1.0182
   74SLPC   H8S 6584   5.759   2.936   5.791  1.1381  2.0186  1.9285
   74SLPC   C29 6585   5.706   3.082   5.660 -0.0744 -0.3218  0.8163
   74SLPC   H9R 6586   5.809   3.117   5.647 -0.4836  1.3018  1.7181
   74SLPC  C210 6587   5.630   3.120   5.558 -0.3190  0.8876  0.4450
   74SLPC  H10R 6588   5.675   3.204   5.504  0.6123  0.5754  0.7210
   74SLPC  C211 6589   5.486   3.105   5.538 -0.6289 -0.0975  0.3398
   74SLPC  H11R 6590   5.434   3.200   5.513  1.6738  0.4704 -2.9690
   74SLPC  H11S 6591   5.432   3.073   5.629  0.7473  1.4512  1.7737
   74SLPC  C212 6592   5.468   2.991   5.435 -0.2503  0.0765 -0.7445
   74SLPC  H12R 6593   5.439   2.892   5.473  1.1831  0.3964  1.3801
   74SLPC  C213 6594   5.488   3.012   5.305 -0.5255  0.5017  0.1908
   74SLPC  H13R 6595   5.486   2.924   5.239 -2.5317 -0.6124  1.6211
   74SLPC  C214 6596   5.514   3.139   5.233 -0.1368 -0.5231 -0.1128
   74SLPC  H14R 6597   5.518   3.226   5.302 -0.5429 -0.2335 -0.4496
   74SLPC  H14S 6598   5.424   3.156   5.170 -0.2166  0.0587  0.1511
   74SLPC  C215 6599   5.641   3.138   5.137  0.9294 -0.5834 -0.3618
   74SLPC  H15R 6600   5.662   3.242   5.104  0.0034 -0.0377  0.6865
   74SLPC  H15S 6601   5.627   3.091   5.038  1.1237 -1.2120 -0.0978
   74SLPC  C216 6602   5.776   3.089   5.195  0.0563  0.0189  0.0408
   74SLPC  H16R 6603   5.761   2.986   5.234  2.9733  0.1900  1.9215
   74SLPC  H16S 6604   5.825   3.144   5.278 -0.2528  2.0465 -1.0415
   74SLPC  C217 6605   5.884   3.077   5.085  0.0090  0.3783 -0.0020
   74SLPC  H17R 6606   5.893   3.180   5.045  1.1766  0.2750 -0.0454
   74SLPC  H17S 6607   5.858   3.002   5.007 -3.1603 -0.6998  1.9042
   74SLPC  C218 6608   6.018   3.037   5.148 -0.1686 -0.2077  0.8640
   74SLPC  H18R 6609   6.007   2.936   5.192 -3.0979  0.4505  1.8431
   74SLPC  H18S 6610   6.039   3.114   5.225 -3.0931  2.4403 -0.7477
   74SLPC  H18T 6611   6.091   3.036   5.064  2.3734 -2.3330  2.9125
   74SLPC   C33 6612   5.731   3.560   6.068 -0.0983  0.0731 -0.1426
   74SLPC   H3X 6613   5.797   3.474   6.092 -1.5821 -1.2315 -0.5913
   74SLPC   H3Y 6614   5.795   3.645   6.038  0.3409  0.1990  1.0692
   74SLPC   C34 6615   5.629   3.521   5.960  0.8445 -0.5337  0.0380
   74SLPC   H4X 6616   5.541   3.587   5.970  2.9670  2.4709  0.2140
   74SLPC   H4Y 6617   5.606   3.413   5.973  0.1865 -0.2731  1.1636
   74SLPC   C35 6618   5.684   3.537   5.811 -0.0909  0.1952  0.3545
   74SLPC   H5X 6619   5.777   3.479   5.795  0.9992  2.2821 -1.4993
   74SLPC   H5Y 6620   5.728   3.637   5.791  0.0792 -0.0404 -0.5074
   74SLPC   C36 6621   5.580   3.504   5.702  0.5126  0.1237  1.0729
   74SLPC   H6X 6622   5.493   3.571   5.718 -0.0894 -0.3498 -0.1005
   74SLPC   H6Y 6623   5.553   3.397   5.701 -0.2963  0.3246 -0.1366
   74SLPC   C37 6624   5.640   3.533   5.558  0.0831  0.3710  0.8819
   74SLPC   H7X 6625   5.731   3.470   5.551 -0.3591 -0.1770 -0.3348
   74SLPC   H7Y 6626   5.665   3.641   5.567  3.4407 -0.3788  2.1203
   74SLPC   C38 6627   5.551   3.504   5.443 -0.0124 -0.6343  0.2421
   74SLPC   H8X 6628   5.461   3.567   5.454  0.4533  0.0965 -0.0459
   74SLPC   H8Y 6629   5.521   3.397   5.444 -1.2293 -0.2987  0.3210
   74SLPC   C39 6630   5.611   3.539   5.300 -0.0390  0.2737 -0.2757
   74SLPC   H9X 6631   5.690   3.462   5.284 -0.3768  0.0875 -1.0968
   74SLPC   H9Y 6632   5.662   3.637   5.287  3.0052 -1.3116 -1.2799
   74SLPC  C310 6633   5.493   3.534   5.202 -0.1197  0.3387  0.6531
   74SLPC  H10X 6634   5.428   3.621   5.227 -0.1391  1.1134 -1.8262
   74SLPC  H10Y 6635   5.447   3.433   5.213 -0.8384  0.8777  3.2634
   74SLPC  C311 6636   5.545   3.545   5.053  0.8263 -0.1539  0.4789
   74SLPC  H11X 6637   5.459   3.536   4.984 -0.0425  1.0779  1.3635
   74SLPC  H11Y 6638   5.614   3.460   5.032  0.7392  0.2115 -1.4963
   74SLPC  C312 6639   5.604   3.675   5.013  0.7091 -0.1963  0.4277
   74SLPC  H12X 6640   5.707   3.694   5.048  1.4423  1.7546 -2.4409
   74SLPC  H12Y 6641   5.538   3.757   5.050 -0.0932 -0.3744 -0.5486
   74SLPC  C313 6642   5.623   3.694   4.865 -0.0507 -0.0941  0.2202
   74SLPC  H13X 6643   5.542   3.660   4.797 -0.5717 -0.9594  1.2414
   74SLPC  H13Y 6644   5.709   3.629   4.839  0.1328  0.6047 -1.0530
   74SLPC  C314 6645   5.686   3.826   4.823  0.5332  0.2721  0.2016
   74SLPC  H14X 6646   5.764   3.856   4.896  0.3788  3.3822 -0.7534
   74SLPC  H14Y 6647   5.611   3.906   4.838 -0.1132  0.2934 -2.6465
   74SLPC  C315 6648   5.750   3.817   4.683 -0.7380  0.1788 -0.1196
   74SLPC  H15X 6649   5.671   3.821   4.605 -0.2013  0.4736 -0.6583
   74SLPC  H15Y 6650   5.799   3.718   4.665  1.0852  1.5114 -3.4105
   74SLPC  C316 6651   5.861   3.920   4.663 -0.1530  0.3030 -0.5327
   74SLPC  H16X 6652   5.932   3.913   4.749  0.0364  1.3236 -0.5906
   74SLPC  H16Y 6653   5.820   4.019   4.690 -0.6239 -0.1469  0.4464
   74SLPC  C317 6654   5.924   3.919   4.520  0.1678 -0.2847 -0.1703
   74SLPC  H17X 6655   5.849   3.949   4.444  0.4003 -1.5876 -0.9369
   74SLPC  H17Y 6656   5.944   3.810   4.518  2.9678 -0.0842  4.0244
   74SLPC  C318 6657   6.053   4.004   4.521 -0.0876 -1.0834  0.2320
   74SLPC  H18X 6658   6.093   4.028   4.420 -0.2745 -0.8186  0.2204
   74SLPC  H18Y 6659   6.131   3.955   4.583 -0.1949 -0.9051  0.5049
   74SLPC  H18Z 6660   6.034   4.099   4.574  0.2957 -1.5758  1.2808
   75SLPC     N 6661   0.907   6.949   7.220 -0.1905  0.7820 -0.1145
   75SLPC   C13 6662   1.013   6.868   7.146  0.6325  0.1832 -0.0619
   75SLPC  H13A 6663   1.111   6.908   7.169 -0.7377  2.7898  1.6133
   75SLPC  H13B 6664   1.001   6.764   7.175 -0.0016  0.0670 -0.7275
   75SLPC  H13C 6665   0.993   6.870   7.040  0.0819 -0.9282  0.0059
   75SLPC   C14 6666   0.922   7.095   7.189  0.7442  0.8192  0.2731
   75SLPC  H14A 6667   0.847   7.152   7.241 -1.2024 -0.5016 -0.9331
   75SLPC  H14B 6668   1.022   7.127   7.216  1.4128 -0.1254 -0.9428
   75SLPC  H14C 6669   0.906   7.118   7.084 -1.9873 -0.8581  0.2202
   75SLPC   C15 6670   0.933   6.929   7.370  0.8074  0.8079 -0.4287
   75SLPC  H15A 6671   0.869   7.002   7.417 -1.8961 -1.5306 -0.2014
   75SLPC  H15B 6672   0.897   6.830   7.396 -0.1675  0.7925 -1.7071
   75SLPC  H15C 6673   1.031   6.945   7.411  0.8988  0.5623 -0.5429
   75SLPC   C12 6674   0.771   6.900   7.174 -0.1753  0.2483  0.0956
   75SLPC  H12A 6675   0.742   6.943   7.079 -0.0713 -0.1274 -0.1049
   75SLPC  H12B 6676   0.697   6.935   7.244  0.0987 -0.6584  0.8582
   75SLPC   C11 6677   0.746   6.750   7.162  0.3203  0.2853 -0.3335
   75SLPC  H11A 6678   0.818   6.713   7.086  0.6091  0.1256  0.0104
   75SLPC  H11B 6679   0.647   6.730   7.114  0.4815  1.0930 -1.0127
   75SLPC     P 6680   0.856   6.555   7.312  0.3898 -0.2126 -0.0556
   75SLPC   O13 6681   0.985   6.587   7.255  0.0641  0.3571 -0.1919
   75SLPC   O14 6682   0.846   6.501   7.449 -0.2757 -0.6750 -0.3485
   75SLPC   O12 6683   0.762   6.676   7.288  0.0595 -0.2334 -0.2932
   75SLPC   O11 6684   0.786   6.459   7.211  0.4499 -0.2432  0.2390
   75SLPC    C1 6685   0.812   6.322   7.208 -0.4575  0.0080  0.3527
   75SLPC    HA 6686   0.916   6.309   7.171 -0.9316  1.5119 -1.7227
   75SLPC    HB 6687   0.791   6.277   7.307 -1.1424  0.7658  0.5608
   75SLPC    C2 6688   0.702   6.257   7.099 -0.3544  0.1414 -0.1073
   75SLPC    HS 6689   0.704   6.148   7.123 -2.4906 -0.2405 -1.4161
   75SLPC   O21 6690   0.740   6.287   6.957  0.0344  0.5231 -0.2564
   75SLPC   C21 6691   0.848   6.221   6.919 -0.2803  1.1870  0.1779
   75SLPC   O22 6692   0.886   6.124   6.979  0.2587 -0.4815  0.0291
   75SLPC   C22 6693   0.902   6.271   6.780 -0.3319  0.9636 -0.3707
   75SLPC   H2R 6694   0.810   6.307   6.729 -2.2310 -0.7854  1.5817
   75SLPC   H2S 6695   0.970   6.351   6.815  0.0614  0.3661  0.2520
   75SLPC    C3 6696   0.564   6.309   7.123 -0.5179  0.4306 -0.3931
   75SLPC    HX 6697   0.568   6.415   7.088  0.8210  0.6478  0.3454
   75SLPC    HY 6698   0.541   6.315   7.232 -0.3746  0.4288 -0.3628
   75SLPC   O31 6699   0.469   6.220   7.057  0.0175  0.4053  0.5695
   75SLPC   C31 6700   0.410   6.265   6.952  0.5476  0.8802  1.0155
   75SLPC   O32 6701   0.426   6.378   6.902 -0.3921  0.2347  0.7774
   75SLPC   C32 6702   0.316   6.154   6.890 -0.0085 -0.0564  0.4168
   75SLPC   H2X 6703   0.260   6.205   6.809 -0.2671 -0.4663  0.3374
   75SLPC   H2Y 6704   0.247   6.114   6.967  0.5445 -1.4458  0.2232
   75SLPC   C23 6705   0.971   6.161   6.688  0.7959  0.3835 -0.4668
   75SLPC   H3R 6706   1.037   6.095   6.747  1.8618  2.3826  0.6932
   75SLPC   H3S 6707   1.022   6.227   6.614  0.6521  2.7336  1.3903
   75SLPC   C24 6708   0.870   6.076   6.618 -0.1076  0.0232 -0.1528
   75SLPC   H4R 6709   0.789   6.129   6.563  0.8641 -1.3402 -3.1143
   75SLPC   H4S 6710   0.816   6.018   6.696  2.7371  0.3060  2.2067
   75SLPC   C25 6711   0.940   5.988   6.516 -0.9553  0.4279 -0.0449
   75SLPC   H5R 6712   1.013   5.919   6.565 -0.3892  0.9987 -0.0720
   75SLPC   H5S 6713   0.996   6.060   6.453 -0.6823  0.2354 -0.0248
   75SLPC   C26 6714   0.847   5.918   6.431  0.1775  0.6751  0.9391
   75SLPC   H6R 6715   0.753   5.886   6.480  0.5408 -0.4405  0.9558
   75SLPC   H6S 6716   0.878   5.820   6.388 -0.7130  1.3361 -1.3505
   75SLPC   C27 6717   0.812   5.993   6.302 -0.3803 -0.0415 -0.0088
   75SLPC   H7R 6718   0.914   6.015   6.263  0.2410 -1.3926  0.7860
   75SLPC   H7S 6719   0.767   6.090   6.332  0.5386  0.2980  0.3213
   75SLPC   C28 6720   0.734   5.903   6.199  0.1277 -0.7166  0.0997
   75SLPC   H8R 6721   0.640   5.886   6.256 -1.8947 -0.6998 -3.0177
   75SLPC   H8S 6722   0.791   5.808   6.194  1.3410  0.0348 -0.7780
   75SLPC   C29 6723   0.695   5.961   6.070 -0.6602  0.2164  0.1337
   75SLPC   H9R 6724   0.628   6.048   6.074 -0.9436 -0.0361  1.5492
   75SLPC  C210 6725   0.741   5.925   5.949 -0.0238  0.2743  0.8349
   75SLPC  H10R 6726   0.705   5.974   5.857  3.5951  1.0904 -0.2909
   75SLPC  C211 6727   0.838   5.808   5.930  0.0848 -0.4931 -0.2740
   75SLPC  H11R 6728   0.927   5.819   5.996  0.7637 -0.1438 -1.2072
   75SLPC  H11S 6729   0.883   5.821   5.829 -0.6525  0.5809 -0.4713
   75SLPC  C212 6730   0.785   5.667   5.948 -0.2389 -0.0285 -0.0364
   75SLPC  H12R 6731   0.716   5.648   6.032 -2.3829  0.0524 -1.6842
   75SLPC  C213 6732   0.805   5.565   5.860  0.2696  0.6504 -0.2469
   75SLPC  H13R 6733   0.768   5.463   5.880  1.9691 -0.2662 -1.5620
   75SLPC  C214 6734   0.889   5.583   5.732 -0.7794  0.3181 -0.1663
   75SLPC  H14R 6735   0.855   5.662   5.661 -0.1391 -0.4268 -1.3359
   75SLPC  H14S 6736   0.884   5.486   5.679  1.1398 -0.5960  1.2128
   75SLPC  C215 6737   1.044   5.594   5.745  0.0401 -0.1337  0.0540
   75SLPC  H15R 6738   1.074   5.674   5.816 -2.8017  1.4237 -0.3762
   75SLPC  H15S 6739   1.080   5.622   5.643 -1.5092  0.9876 -0.2168
   75SLPC  C216 6740   1.112   5.462   5.783  0.0657  0.1823 -0.0394
   75SLPC  H16R 6741   1.061   5.379   5.730 -1.4847  0.5176  0.8519
   75SLPC  H16S 6742   1.102   5.460   5.894  1.6580  2.2779  0.1977
   75SLPC  C217 6743   1.264   5.459   5.757 -0.2241  0.1046  0.5757
   75SLPC  H17R 6744   1.308   5.372   5.810 -0.6661 -1.4935 -1.5775
   75SLPC  H17S 6745   1.325   5.538   5.808  0.7491  1.0112 -1.8354
   75SLPC  C218 6746   1.300   5.453   5.609 -1.1102  0.2737 -0.3225
   75SLPC  H18R 6747   1.242   5.375   5.554 -0.5981  0.9057 -1.8050
   75SLPC  H18S 6748   1.408   5.427   5.599 -1.2386 -0.0412 -0.9560
   75SLPC  H18T 6749   1.286   5.555   5.569 -0.9354  0.7203  0.7093
   75SLPC   C33 6750   0.398   6.038   6.824  0.1246 -0.1020  0.7145
   75SLPC   H3X 6751   0.332   5.950   6.807 -2.9246  2.2736 -0.8926
   75SLPC   H3Y 6752   0.475   6.006   6.897  0.4494 -0.4040  0.2399
   75SLPC   C34 6753   0.475   6.082   6.697  0.2456  0.1731 -0.0205
   75SLPC   H4X 6754   0.546   6.005   6.659  1.4215  1.8654 -1.3849
   75SLPC   H4Y 6755   0.548   6.165   6.707  1.6917 -1.0570  0.1140
   75SLPC   C35 6756   0.388   6.129   6.572  0.2291 -1.3349 -0.5768
   75SLPC   H5X 6757   0.322   6.214   6.603  2.1824  0.2612 -0.5774
   75SLPC   H5Y 6758   0.335   6.041   6.531  0.2126 -1.7841  0.3725
   75SLPC   C36 6759   0.478   6.189   6.466  0.0431  0.4064 -0.3123
   75SLPC   H6X 6760   0.564   6.121   6.447 -0.3697 -0.0688 -0.4973
   75SLPC   H6Y 6761   0.529   6.281   6.502  0.7307  0.0875 -0.4627
   75SLPC   C37 6762   0.407   6.217   6.334  0.5727 -0.3168  0.2256
   75SLPC   H7X 6763   0.321   6.286   6.352  1.6806  0.9277  0.9260
   75SLPC   H7Y 6764   0.365   6.118   6.306  2.2550 -0.8111 -0.6512
   75SLPC   C38 6765   0.496   6.281   6.227 -0.1651 -0.2343 -0.1326
   75SLPC   H8X 6766   0.587   6.217   6.224 -0.6988 -1.0652  1.0168
   75SLPC   H8Y 6767   0.530   6.375   6.277  0.2765 -0.6733  0.3983
   75SLPC   C39 6768   0.415   6.299   6.095  0.2031 -0.4303  1.2265
   75SLPC   H9X 6769   0.324   6.363   6.102  1.0097  1.0509 -0.8171
   75SLPC   H9Y 6770   0.376   6.204   6.052 -0.1461  0.7340 -1.1944
   75SLPC  C310 6771   0.510   6.354   5.989 -0.0214 -0.1011 -0.0349
   75SLPC  H10X 6772   0.598   6.286   5.979 -0.1105 -0.3002  0.5256
   75SLPC  H10Y 6773   0.533   6.458   6.019 -2.5628  0.4852  0.1137
   75SLPC  C311 6774   0.461   6.360   5.841 -0.1338  0.2971  0.2429
   75SLPC  H11X 6775   0.542   6.394   5.773 -0.9814  1.0306 -0.4292
   75SLPC  H11Y 6776   0.370   6.424   5.835  0.4371  1.2518  1.4259
   75SLPC  C312 6777   0.414   6.218   5.794  0.2579  0.6120 -0.0701
   75SLPC  H12X 6778   0.327   6.167   5.841  1.6067 -0.7287  1.1002
   75SLPC  H12Y 6779   0.494   6.141   5.801 -2.3420 -2.2463  0.3677
   75SLPC  C313 6780   0.380   6.219   5.636 -0.5714  0.3148  0.3228
   75SLPC  H13X 6781   0.376   6.117   5.593 -1.7810  0.8377 -0.8874
   75SLPC  H13Y 6782   0.449   6.277   5.570  0.3750 -3.7426 -2.6199
   75SLPC  C314 6783   0.240   6.264   5.617 -0.0376 -0.7118  0.4611
   75SLPC  H14X 6784   0.219   6.353   5.681  2.8188  0.1946  0.2933
   75SLPC  H14Y 6785   0.174   6.181   5.649  2.3249 -2.5251  0.8835
   75SLPC  C315 6786   0.209   6.300   5.470  0.7388 -0.2085 -0.4757
   75SLPC  H15X 6787   0.210   6.207   5.410  0.4347  0.1265 -1.0161
   75SLPC  H15Y 6788   0.283   6.374   5.431  0.4596  0.9213  1.0349
   75SLPC  C316 6789   0.073   6.356   5.431 -0.6556  1.1010 -0.1965
   75SLPC  H16X 6790   0.001   6.284   5.476  0.3953  0.6427  0.7876
   75SLPC  H16Y 6791   0.056   6.356   5.322 -1.1555 -1.0974 -0.1638
   75SLPC  C317 6792   0.037   6.488   5.493  0.3268  0.0745  0.2857
   75SLPC  H17X 6793   0.091   6.568   5.438  0.3811  0.1905  0.5045
   75SLPC  H17Y 6794   0.056   6.496   5.602  0.0574  1.2221  0.2690
   75SLPC  C318 6795  -0.106   6.528   5.464 -0.3860 -0.3111 -0.7476
   75SLPC  H18X 6796  -0.116   6.539   5.353  1.1288 -0.5204 -0.9280
   75SLPC  H18Y 6797  -0.123   6.629   5.506  1.3288 -0.6106  0.7974
   75SLPC  H18Z 6798  -0.182   6.452   5.493  0.8062 -1.2263  0.0666
   76SLPC     N 6799   1.309   5.719   7.315 -0.0567 -0.1051 -0.2357
   76SLPC   C13 6800   1.225   5.592   7.289 -0.3755  0.1639 -0.1932
   76SLPC  H13A 6801   1.122   5.624   7.291  0.2880  2.5333  1.9062
   76SLPC  H13B 6802   1.252   5.567   7.187  0.0067  1.3163 -0.3858
   76SLPC  H13C 6803   1.250   5.511   7.356 -0.9223 -0.8815 -1.2185
   76SLPC   C14 6804   1.267   5.783   7.440 -0.5387 -0.4756  0.4978
   76SLPC  H14A 6805   1.160   5.799   7.441 -0.6183 -0.8502  2.2563
   76SLPC  H14B 6806   1.305   5.732   7.528  0.3813  1.1776  1.1062
   76SLPC  H14C 6807   1.315   5.878   7.455 -0.7305  0.0780 -2.0069
   76SLPC   C15 6808   1.277   5.811   7.209 -0.0451 -0.2494  0.2457
   76SLPC  H15A 6809   1.174   5.839   7.194  0.6125  0.9203 -2.8147
   76SLPC  H15B 6810   1.332   5.904   7.221 -2.7226  1.9210 -2.5604
   76SLPC  H15C 6811   1.303   5.776   7.111 -0.8425 -0.0253 -0.0478
   76SLPC   C12 6812   1.462   5.697   7.317  0.0579  0.3027  0.2981
   76SLPC  H12A 6813   1.509   5.667   7.224  2.4707 -2.9101  2.3549
   76SLPC  H12B 6814   1.496   5.625   7.389  2.2410 -0.0442 -0.9965
   76SLPC   C11 6815   1.538   5.832   7.342 -0.0578 -0.0564  0.2254
   76SLPC  H11A 6816   1.641   5.806   7.373 -0.1419 -0.0411  0.5269
   76SLPC  H11B 6817   1.499   5.885   7.432 -1.9402  0.5955 -0.9071
   76SLPC     P 6818   1.634   5.917   7.117  0.2174  0.3197 -0.2820
   76SLPC   O13 6819   1.752   5.990   7.162  0.2344 -0.0714 -0.1550
   76SLPC   O14 6820   1.644   5.776   7.071  0.5118 -0.8740  1.2568
   76SLPC   O12 6821   1.528   5.932   7.239  0.3078 -0.2822  0.1546
   76SLPC   O11 6822   1.558   6.004   7.015  0.1757  0.3280  0.1297
   76SLPC    C1 6823   1.564   6.150   7.012 -0.2672 -0.0852 -0.3654
   76SLPC    HA 6824   1.466   6.202   7.022  0.7899  2.2433 -1.4463
   76SLPC    HB 6825   1.623   6.194   7.096  1.5052 -0.8008 -1.1802
   76SLPC    C2 6826   1.636   6.204   6.884  0.1205  0.3397  0.5228
   76SLPC    HS 6827   1.637   6.315   6.885 -2.1909  0.4869 -1.7329
   76SLPC   O21 6828   1.570   6.157   6.762 -0.2626 -0.2978  0.5687
   76SLPC   C21 6829   1.457   6.219   6.731  0.0921 -0.0134 -0.5889
   76SLPC   O22 6830   1.398   6.299   6.798 -0.7206 -0.0812 -0.2022
   76SLPC   C22 6831   1.405   6.175   6.595 -0.4375  0.4626  0.0424
   76SLPC   H2R 6832   1.476   6.105   6.546 -0.7612  0.9174 -1.1116
   76SLPC   H2S 6833   1.304   6.130   6.612 -1.2553  1.3611 -2.0814
   76SLPC    C3 6834   1.777   6.156   6.866 -0.0798 -0.1755  0.2885
   76SLPC    HX 6835   1.769   6.048   6.840  1.0536 -0.0719 -0.6083
   76SLPC    HY 6836   1.827   6.167   6.964 -0.5169  0.3859  0.4559
   76SLPC   O31 6837   1.836   6.238   6.764  0.0185 -0.1229  0.2816
   76SLPC   C31 6838   1.926   6.176   6.685 -0.3507 -0.1315 -0.5247
   76SLPC   O32 6839   1.989   6.080   6.725  0.2090 -0.1637  0.2240
   76SLPC   C32 6840   1.925   6.244   6.550 -0.4279  0.1750  0.1925
   76SLPC   H2X 6841   2.005   6.319   6.536 -1.8585  1.6298 -0.6168
   76SLPC   H2Y 6842   1.830   6.302   6.550 -0.1517  0.6545  0.9078
   76SLPC   C23 6843   1.391   6.289   6.487 -0.4234 -0.0775  0.1348
   76SLPC   H3R 6844   1.473   6.364   6.482 -0.1471 -0.4156 -0.6136
   76SLPC   H3S 6845   1.299   6.349   6.497 -1.1915 -1.3628  0.9998
   76SLPC   C24 6846   1.378   6.241   6.348 -0.6734 -0.4990 -0.3426
   76SLPC   H4R 6847   1.288   6.175   6.346 -0.0553 -1.4562  1.7109
   76SLPC   H4S 6848   1.471   6.189   6.317  0.0113  1.6855 -2.3155
   76SLPC   C25 6849   1.353   6.352   6.249 -0.5617  0.3897 -0.0824
   76SLPC   H5R 6850   1.361   6.310   6.147 -3.7027  0.3659 -0.4065
   76SLPC   H5S 6851   1.424   6.436   6.265 -0.3955  0.1322  0.5794
   76SLPC   C26 6852   1.216   6.412   6.275 -0.2032  0.9086 -0.6129
   76SLPC   H6R 6853   1.233   6.500   6.340  0.2202  2.1782 -2.3699
   76SLPC   H6S 6854   1.143   6.346   6.328  0.6135 -0.3188 -0.9676
   76SLPC   C27 6855   1.146   6.462   6.152  0.2263  0.3492 -0.3993
   76SLPC   H7R 6856   1.214   6.510   6.078 -0.1013 -0.4923 -1.2715
   76SLPC   H7S 6857   1.084   6.547   6.189 -2.8533 -1.3269 -1.3384
   76SLPC   C28 6858   1.049   6.360   6.088 -0.7448  0.2339  0.3305
   76SLPC   H8R 6859   0.996   6.412   6.006  0.8495  1.9271  0.3013
   76SLPC   H8S 6860   0.968   6.331   6.159 -3.4117  2.1746 -1.7153
   76SLPC   C29 6861   1.119   6.237   6.027 -0.5809 -0.3116 -0.0475
   76SLPC   H9R 6862   1.170   6.168   6.096 -1.4451 -1.1885 -0.2604
   76SLPC  C210 6863   1.098   6.182   5.906 -0.3265  0.5444 -0.9937
   76SLPC  H10R 6864   1.137   6.083   5.879 -2.8850 -0.1107 -2.6140
   76SLPC  C211 6865   1.025   6.244   5.785  1.3694  0.1827 -0.6639
   76SLPC  H11R 6866   1.060   6.206   5.687  0.5278  2.0629 -1.7521
   76SLPC  H11S 6867   1.061   6.349   5.780  1.4063  0.1994 -0.1335
   76SLPC  C212 6868   0.869   6.241   5.791 -0.1675 -0.0169  0.6309
   76SLPC  H12R 6869   0.832   6.302   5.874 -0.8986  0.0705  0.2443
   76SLPC  C213 6870   0.785   6.209   5.691  0.2724 -0.0785  0.4897
   76SLPC  H13R 6871   0.677   6.210   5.715  0.2724 -2.6750  0.9699
   76SLPC  C214 6872   0.811   6.149   5.557  0.2879  0.5090  0.0996
   76SLPC  H14R 6873   0.917   6.124   5.532 -0.6965 -1.1022 -3.0278
   76SLPC  H14S 6874   0.776   6.220   5.478  1.1603 -1.7422 -2.4802
   76SLPC  C215 6875   0.738   6.012   5.536  0.3186 -0.8804 -0.0530
   76SLPC  H15R 6876   0.629   6.031   5.542  0.6838  1.0931  1.5702
   76SLPC  H15S 6877   0.772   5.951   5.622  1.4653  1.6156  1.3721
   76SLPC  C216 6878   0.761   5.946   5.393  0.2533  0.1120  0.1323
   76SLPC  H16R 6879   0.771   6.027   5.317  3.7280  0.5993  0.9416
   76SLPC  H16S 6880   0.664   5.900   5.364 -0.8396  0.5907  2.7444
   76SLPC  C217 6881   0.872   5.840   5.380 -0.4825 -0.6505 -0.2871
   76SLPC  H17R 6882   0.892   5.812   5.274  0.3610 -2.9500  0.4104
   76SLPC  H17S 6883   0.833   5.748   5.428  1.1375 -2.0938 -1.6259
   76SLPC  C218 6884   1.009   5.888   5.445 -0.4664  0.1705 -0.1946
   76SLPC  H18R 6885   1.033   5.995   5.427 -1.6061  0.5249  0.2898
   76SLPC  H18S 6886   1.093   5.824   5.411  0.2659  0.4797  0.9686
   76SLPC  H18T 6887   1.003   5.874   5.555  2.2811 -0.9112 -0.1028
   76SLPC   C33 6888   1.933   6.145   6.438  0.1496 -0.6418  0.0914
   76SLPC   H3X 6889   1.906   6.211   6.352  0.3270  0.4887  0.8778
   76SLPC   H3Y 6890   1.852   6.068   6.443 -0.6177  0.1652  0.5269
   76SLPC   C34 6891   2.069   6.089   6.422 -0.4054  0.0199  0.4300
   76SLPC   H4X 6892   2.077   6.003   6.492  1.2277 -1.2925 -1.2582
   76SLPC   H4Y 6893   2.148   6.165   6.441 -0.5989  0.7712 -1.5544
   76SLPC   C35 6894   2.090   6.034   6.281  0.3612  0.5948  0.3252
   76SLPC   H5X 6895   1.989   6.030   6.235  1.2224  2.0492 -1.8502
   76SLPC   H5Y 6896   2.129   5.932   6.302 -1.0204 -0.2607 -0.9835
   76SLPC   C36 6897   2.179   6.110   6.185  0.3137  0.1140  0.0445
   76SLPC   H6X 6898   2.207   6.050   6.096  0.8084  1.1782 -0.5340
   76SLPC   H6Y 6899   2.280   6.127   6.230  0.2912 -0.1700  0.2035
   76SLPC   C37 6900   2.116   6.243   6.139  0.0627 -0.0380 -0.9716
   76SLPC   H7X 6901   2.199   6.298   6.090  0.7046 -0.7669 -0.7331
   76SLPC   H7Y 6902   2.084   6.305   6.225 -1.4834  1.3192 -2.4431
   76SLPC   C38 6903   2.001   6.213   6.046  0.3531 -0.3751  0.2730
   76SLPC   H8X 6904   1.912   6.174   6.100 -0.6730  0.2291 -0.9053
   76SLPC   H8Y 6905   2.025   6.133   5.973 -1.8055  0.8400 -1.9450
   76SLPC   C39 6906   1.961   6.333   5.959 -0.6856 -0.3430  0.2469
   76SLPC   H9X 6907   2.054   6.364   5.907 -0.4461 -1.7270 -0.1957
   76SLPC   H9Y 6908   1.924   6.417   6.022  0.9410  0.8400 -0.2882
   76SLPC  C310 6909   1.848   6.301   5.859  0.2791  0.2336 -0.5191
   76SLPC  H10X 6910   1.750   6.283   5.907 -0.2571 -0.3993 -1.8205
   76SLPC  H10Y 6911   1.870   6.210   5.800  0.9575  1.1039 -1.6469
   76SLPC  C311 6912   1.827   6.420   5.763 -0.3243 -1.0055 -0.4245
   76SLPC  H11X 6913   1.818   6.511   5.827 -0.2140 -1.8462  0.8165
   76SLPC  H11Y 6914   1.726   6.401   5.719  0.7407 -0.0995 -3.5387
   76SLPC  C312 6915   1.935   6.448   5.664  0.1383 -0.6220  0.1870
   76SLPC  H12X 6916   2.032   6.441   5.717  0.0093  1.7009  0.8322
   76SLPC  H12Y 6917   1.932   6.557   5.643  2.3339 -0.4830  0.3333
   76SLPC  C313 6918   1.932   6.359   5.537 -0.3379  0.3598 -0.0605
   76SLPC  H13X 6919   1.890   6.257   5.551  2.2450 -0.9524 -1.2571
   76SLPC  H13Y 6920   2.038   6.339   5.512 -0.1053 -1.7829  2.2065
   76SLPC  C314 6921   1.873   6.441   5.430 -0.0542  0.8096  0.1101
   76SLPC  H14X 6922   1.913   6.544   5.422  1.7558  0.2919  1.7890
   76SLPC  H14Y 6923   1.764   6.455   5.451 -0.1212 -0.8760  1.0596
   76SLPC  C315 6924   1.889   6.372   5.287 -0.7597 -0.5121 -0.7985
   76SLPC  H15X 6925   1.830   6.278   5.285 -2.0903  0.2846 -2.8001
   76SLPC  H15Y 6926   1.998   6.355   5.282 -1.0505 -2.5785 -0.7173
   76SLPC  C316 6927   1.850   6.473   5.173 -0.4786  0.0201 -0.2722
   76SLPC  H16X 6928   1.848   6.575   5.218  0.1458  0.2262 -0.6857
   76SLPC  H16Y 6929   1.747   6.451   5.139  0.7088 -3.0050 -2.2846
   76SLPC  C317 6930   1.940   6.467   5.047 -0.3592 -0.6896  0.3504
   76SLPC  H17X 6931   1.943   6.366   5.001  0.5379  0.5722 -2.5840
   76SLPC  H17Y 6932   2.046   6.487   5.076 -1.4132  2.3508  2.6914
   76SLPC  C318 6933   1.903   6.563   4.932 -0.8895  0.6998 -0.1291
   76SLPC  H18X 6934   1.908   6.666   4.972 -2.2974  0.4507  0.7517
   76SLPC  H18Y 6935   1.797   6.548   4.903 -1.3381 -2.1114  2.4971
   76SLPC  H18Z 6936   1.971   6.552   4.844 -2.2952 -0.1146 -1.1682
   77SLPC     N 6937   2.981   4.067   7.174 -0.3938  0.1895  0.4459
   77SLPC   C13 6938   3.067   3.961   7.243 -0.4931 -0.2697  0.6110
   77SLPC  H13A 6939   3.010   3.880   7.287 -0.5594 -0.9436 -0.6839
   77SLPC  H13B 6940   3.124   3.923   7.161  1.5279 -1.5921  2.5244
   77SLPC  H13C 6941   3.126   4.011   7.319  1.4522  0.2191 -1.1204
   77SLPC   C14 6942   3.066   4.186   7.138  0.4151  0.2496  0.1434
   77SLPC  H14A 6943   3.137   4.158   7.062  3.2754  2.9095  1.6168
   77SLPC  H14B 6944   3.022   4.271   7.090  3.6296  2.1661  0.2815
   77SLPC  H14C 6945   3.129   4.217   7.220  0.7678  1.1827 -0.4680
   77SLPC   C15 6946   2.872   4.108   7.260  0.0723 -0.3468  0.6863
   77SLPC  H15A 6947   2.818   4.190   7.215 -2.4655 -2.6946 -0.7972
   77SLPC  H15B 6948   2.806   4.027   7.284 -1.5859  0.5537 -0.6410
   77SLPC  H15C 6949   2.902   4.154   7.353  0.9118  0.6376 -0.0353
   77SLPC   C12 6950   2.926   4.011   7.046  0.1371 -0.2442  0.1383
   77SLPC  H12A 6951   2.873   4.087   6.991  0.3996 -0.6024 -0.6163
   77SLPC  H12B 6952   2.856   3.931   7.068 -2.8520  2.1887  0.1727
   77SLPC   C11 6953   3.024   3.955   6.944  0.0525 -0.7837 -0.5106
   77SLPC  H11A 6954   2.959   3.901   6.872 -0.7113 -0.1809 -0.2817
   77SLPC  H11B 6955   3.094   3.878   6.984  0.9690 -0.4604 -1.4452
   77SLPC     P 6956   3.036   4.133   6.765 -0.0717  0.0805  0.0038
   77SLPC   O13 6957   3.009   4.040   6.648 -0.5539 -0.2010 -0.4282
   77SLPC   O14 6958   2.913   4.200   6.816 -0.1994  0.4552 -0.4439
   77SLPC   O12 6959   3.110   4.054   6.883  0.5273 -0.5129 -0.4955
   77SLPC   O11 6960   3.140   4.244   6.720 -0.3711  0.3847 -0.2145
   77SLPC    C1 6961   3.097   4.378   6.711 -0.7737 -0.1106 -0.2134
   77SLPC    HA 6962   3.078   4.430   6.807  1.7826 -0.5068  0.5754
   77SLPC    HB 6963   3.182   4.440   6.676 -1.5021 -0.6254 -3.2253
   77SLPC    C2 6964   2.988   4.408   6.615 -0.1975 -0.3296  0.2305
   77SLPC    HS 6965   2.887   4.379   6.653 -0.5890  0.4030 -0.2165
   77SLPC   O21 6966   3.010   4.341   6.490  0.1289 -0.5028 -0.5476
   77SLPC   C21 6967   2.911   4.268   6.439  0.3470 -0.0221  0.1559
   77SLPC   O22 6968   2.809   4.237   6.493  0.2922  0.6065 -0.0669
   77SLPC   C22 6969   2.939   4.232   6.288 -0.6121  0.7376 -0.0967
   77SLPC   H2R 6970   3.025   4.161   6.290  1.1617  2.8020  0.5735
   77SLPC   H2S 6971   2.854   4.164   6.265 -0.3619 -0.1656  1.4762
   77SLPC    C3 6972   2.986   4.559   6.597 -0.2402  0.2262 -0.2870
   77SLPC    HX 6973   3.091   4.591   6.577  0.5062 -0.4214  2.2227
   77SLPC    HY 6974   2.958   4.599   6.697 -1.0480 -1.2429  0.1083
   77SLPC   O31 6975   2.892   4.596   6.491 -0.0292  0.2423  0.2470
   77SLPC   C31 6976   2.760   4.607   6.527 -0.3141 -0.6075  0.5129
   77SLPC   O32 6977   2.729   4.612   6.647  0.4317  0.0998 -0.1965
   77SLPC   C32 6978   2.670   4.618   6.406 -0.8334 -0.2131  0.4425
   77SLPC   H2X 6979   2.565   4.635   6.438 -1.6268  2.4255 -2.9371
   77SLPC   H2Y 6980   2.673   4.514   6.369  2.0038 -0.1490  0.2559
   77SLPC   C23 6981   2.959   4.358   6.198 -0.0011  0.2135 -0.2764
   77SLPC   H3R 6982   3.057   4.403   6.224  0.7819 -1.8143  0.4899
   77SLPC   H3S 6983   2.878   4.433   6.205 -1.5589 -1.4610  0.6332
   77SLPC   C24 6984   2.959   4.320   6.044  0.5029 -0.1591 -0.4734
   77SLPC   H4R 6985   2.976   4.416   5.990  4.6620 -0.1143  0.5815
   77SLPC   H4S 6986   2.867   4.267   6.011  0.3334 -0.5500  0.5964
   77SLPC   C25 6987   3.071   4.220   6.009 -0.5514  0.2897  0.2379
   77SLPC   H5R 6988   3.040   4.118   6.040 -1.2554  0.0507 -1.1608
   77SLPC   H5S 6989   3.158   4.240   6.075 -0.7717 -0.3184  0.7302
   77SLPC   C26 6990   3.106   4.221   5.854  0.0212  0.3928 -0.3981
   77SLPC   H6R 6991   3.180   4.139   5.845  0.7221  0.9795 -0.0849
   77SLPC   H6S 6992   3.151   4.319   5.827 -1.7902  0.8475 -2.0503
   77SLPC   C27 6993   2.974   4.214   5.767 -0.0463  0.4126  0.0976
   77SLPC   H7R 6994   2.931   4.317   5.764 -2.4156 -0.5467 -0.6363
   77SLPC   H7S 6995   2.901   4.152   5.822 -0.0731  1.0567  0.8024
   77SLPC   C28 6996   2.993   4.168   5.617 -0.5696  0.6179 -0.3223
   77SLPC   H8R 6997   3.088   4.210   5.578 -0.9710  1.3208 -0.5577
   77SLPC   H8S 6998   2.908   4.202   5.554 -2.2714 -1.0688  0.9477
   77SLPC   C29 6999   3.000   4.012   5.612  0.7708 -0.4879  0.1971
   77SLPC   H9R 7000   3.046   3.974   5.705 -0.7973 -0.0335  1.2114
   77SLPC  C210 7001   2.961   3.931   5.512 -0.2559  0.1419 -0.9144
   77SLPC  H10R 7002   2.956   3.823   5.530  2.0134 -0.3940 -2.9712
   77SLPC  C211 7003   2.900   3.972   5.378  0.3002  0.0344  0.0253
   77SLPC  H11R 7004   2.968   3.940   5.297  0.0073  0.3866 -0.3641
   77SLPC  H11S 7005   2.888   4.078   5.347 -0.2936 -0.1068 -0.2303
   77SLPC  C212 7006   2.767   3.895   5.363  0.2426  0.6601  0.5686
   77SLPC  H12R 7007   2.720   3.852   5.453 -1.6323  0.6081 -0.3944
   77SLPC  C213 7008   2.703   3.888   5.244  0.0576 -0.4205  0.0053
   77SLPC  H13R 7009   2.612   3.828   5.233 -0.2262 -0.0856  0.5074
   77SLPC  C214 7010   2.752   3.955   5.116  0.1952  0.0305 -0.1593
   77SLPC  H14R 7011   2.842   4.020   5.117  0.4619 -0.2850  2.3434
   77SLPC  H14S 7012   2.673   4.021   5.075  0.1748 -0.6857 -1.3124
   77SLPC  C215 7013   2.777   3.849   5.003  0.8007 -0.0995  0.1007
   77SLPC  H15R 7014   2.869   3.792   5.026  1.2184  0.7886  0.7145
   77SLPC  H15S 7015   2.801   3.900   4.907  2.5971  1.8106  1.4760
   77SLPC  C216 7016   2.644   3.775   4.970  0.3988  0.2765  0.8798
   77SLPC  H16R 7017   2.569   3.848   4.931  0.8774  0.9885  1.2712
   77SLPC  H16S 7018   2.584   3.724   5.049  0.5341 -1.6078 -0.1641
   77SLPC  C217 7019   2.667   3.669   4.859 -0.8430  0.1794 -0.0279
   77SLPC  H17R 7020   2.742   3.707   4.786  1.1667 -2.9462  0.1956
   77SLPC  H17S 7021   2.572   3.644   4.807 -1.6631  1.1425  0.9666
   77SLPC  C218 7022   2.716   3.540   4.912 -0.0668 -0.2635 -0.6570
   77SLPC  H18R 7023   2.639   3.503   4.983  0.7056  3.7469  2.6329
   77SLPC  H18S 7024   2.815   3.548   4.962 -1.0127 -4.0245  2.2224
   77SLPC  H18T 7025   2.735   3.477   4.823  0.0140 -1.0048 -0.1198
   77SLPC   C33 7026   2.716   4.724   6.298 -0.8651 -0.2876 -0.2147
   77SLPC   H3X 7027   2.810   4.682   6.255  0.5686  0.4564  2.0775
   77SLPC   H3Y 7028   2.742   4.819   6.348 -0.0241 -1.3490  1.4259
   77SLPC   C34 7029   2.614   4.776   6.197 -1.2849  0.1519  0.0700
   77SLPC   H4X 7030   2.545   4.850   6.243 -2.3713  0.5952 -2.1220
   77SLPC   H4Y 7031   2.542   4.692   6.186 -2.8279  0.9053  3.2798
   77SLPC   C35 7032   2.678   4.834   6.071 -0.0311  0.2276 -0.0927
   77SLPC   H5X 7033   2.724   4.931   6.096 -2.2665  0.8610  1.9109
   77SLPC   H5Y 7034   2.586   4.850   6.010 -0.3428  0.3598  0.4123
   77SLPC   C36 7035   2.769   4.749   5.990 -0.7577 -0.6142  0.3986
   77SLPC   H6X 7036   2.864   4.730   6.044  0.8166  2.4497 -1.0390
   77SLPC   H6Y 7037   2.799   4.809   5.902  2.4278  1.1148  2.4760
   77SLPC   C37 7038   2.707   4.614   5.943 -0.6118  0.5076  0.5760
   77SLPC   H7X 7039   2.604   4.630   5.905 -1.0454 -1.8076  0.6315
   77SLPC   H7Y 7040   2.696   4.545   6.030  0.6145 -0.6058 -0.1204
   77SLPC   C38 7041   2.773   4.553   5.814  0.4304  0.5970  0.2463
   77SLPC   H8X 7042   2.738   4.449   5.804 -1.0474  1.1199 -0.2627
   77SLPC   H8Y 7043   2.882   4.531   5.817  0.0350 -1.7904 -1.0046
   77SLPC   C39 7044   2.734   4.625   5.685 -0.2483  0.3551 -0.0185
   77SLPC   H9X 7045   2.765   4.731   5.700 -0.4108  0.1945  1.6308
   77SLPC   H9Y 7046   2.623   4.632   5.682 -0.2592  1.8041  1.6591
   77SLPC  C310 7047   2.779   4.547   5.563  0.2160 -0.6318  0.5020
   77SLPC  H10X 7048   2.714   4.458   5.550  0.3310 -0.5456 -0.7735
   77SLPC  H10Y 7049   2.881   4.507   5.583  0.0779 -0.5905  1.3541
   77SLPC  C311 7050   2.776   4.630   5.437 -0.5338  0.1058  0.0918
   77SLPC  H11X 7051   2.831   4.722   5.465  1.4123 -0.9380 -0.1419
   77SLPC  H11Y 7052   2.672   4.663   5.417  0.1007  1.6495 -0.8631
   77SLPC  C312 7053   2.832   4.557   5.316  0.6031 -0.2288  0.3061
   77SLPC  H12X 7054   2.766   4.470   5.295 -0.0971  0.5626 -0.9049
   77SLPC  H12Y 7055   2.934   4.517   5.332  0.3260 -1.2199 -0.3132
   77SLPC  C313 7056   2.819   4.635   5.178 -0.5030 -0.3850 -0.0994
   77SLPC  H13X 7057   2.711   4.652   5.157 -0.3245  0.0656 -0.6713
   77SLPC  H13Y 7058   2.863   4.568   5.101 -0.2260  0.8796 -1.0737
   77SLPC  C314 7059   2.915   4.759   5.172 -0.5755  0.9107  0.0961
   77SLPC  H14X 7060   3.018   4.718   5.184 -1.6509 -1.5322  1.7029
   77SLPC  H14Y 7061   2.896   4.818   5.264 -1.5475  1.4716 -0.4473
   77SLPC  C315 7062   2.906   4.847   5.047  0.7731 -0.2222 -0.9400
   77SLPC  H15X 7063   2.818   4.914   5.059 -0.2970 -1.5741 -1.0849
   77SLPC  H15Y 7064   2.886   4.780   4.961  2.8550  1.5356 -2.9299
   77SLPC  C316 7065   3.041   4.926   5.024  0.9189  0.2266 -0.1800
   77SLPC  H16X 7066   3.122   4.852   5.005  0.5535 -1.1120  2.7611
   77SLPC  H16Y 7067   3.063   4.979   5.119 -1.9297  1.9955 -0.3946
   77SLPC  C317 7068   3.043   5.027   4.905  0.6638  0.0009  0.0071
   77SLPC  H17X 7069   2.959   5.098   4.921 -1.6932 -2.5634 -0.2135
   77SLPC  H17Y 7070   3.017   4.980   4.808  0.5922  0.1762 -0.0594
   77SLPC  C318 7071   3.177   5.095   4.894  0.3167 -0.0414 -0.4358
   77SLPC  H18X 7072   3.256   5.021   4.867  0.6372  0.0363  0.2640
   77SLPC  H18Y 7073   3.207   5.118   4.998  0.1088 -0.4202 -0.2921
   77SLPC  H18Z 7074   3.167   5.183   4.827 -0.6231 -1.9505 -2.9615
   78SLPC     N 7075   4.857   0.015   7.047 -0.1564 -0.5487  0.3686
   78SLPC   C13 7076   4.810  -0.128   7.024 -0.1163 -0.5927  0.6447
   78SLPC  H13A 7077   4.864  -0.172   6.941  0.5568  1.6989 -0.1965
   78SLPC  H13B 7078   4.833  -0.186   7.112 -3.1246 -1.0064  1.2507
   78SLPC  H13C 7079   4.704  -0.125   7.006  0.2233 -0.6111 -1.5962
   78SLPC   C14 7080   5.003   0.012   7.046 -0.6508  0.4788 -0.0700
   78SLPC  H14A 7081   5.055   0.102   7.075  0.3074  0.3002 -1.1679
   78SLPC  H14B 7082   5.040  -0.068   7.110 -0.3393  0.7839  0.1380
   78SLPC  H14C 7083   5.050  -0.018   6.954  0.5404  1.5993  0.1426
   78SLPC   C15 7084   4.805   0.080   7.173 -0.9824  0.2714 -0.0906
   78SLPC  H15A 7085   4.864   0.167   7.197 -1.5053  0.5905  0.0561
   78SLPC  H15B 7086   4.700   0.102   7.160 -1.8349 -0.9903  3.4996
   78SLPC  H15C 7087   4.809   0.013   7.257 -0.2411  1.4367  0.8347
   78SLPC   C12 7088   4.818   0.112   6.932 -0.0386  0.1057 -0.1253
   78SLPC  H12A 7089   4.858   0.068   6.842  0.8105 -1.7286  1.0738
   78SLPC  H12B 7090   4.870   0.206   6.939  2.1765 -1.0373 -0.2043
   78SLPC   C11 7091   4.669   0.131   6.906 -0.1091 -0.2773  0.3837
   78SLPC  H11A 7092   4.659   0.206   6.825  4.3213 -0.0647 -0.2053
   78SLPC  H11B 7093   4.600   0.168   6.985 -0.5284  3.5636 -1.5787
   78SLPC     P 7094   4.475  -0.015   6.810  0.0586 -0.3386 -0.1099
   78SLPC   O13 7095   4.412  -0.070   6.933  0.3899 -0.2663 -0.3435
   78SLPC   O14 7096   4.415   0.104   6.746  0.6643 -0.4283  0.0659
   78SLPC   O12 7097   4.621   0.006   6.849  0.1417 -0.6405 -0.1334
   78SLPC   O11 7098   4.488  -0.123   6.702  0.8729 -0.0718  0.6419
   78SLPC    C1 7099   4.594  -0.123   6.607  0.2247 -1.0129 -0.1431
   78SLPC    HA 7100   4.695  -0.115   6.653  0.0298  3.0128 -0.0986
   78SLPC    HB 7101   4.591  -0.219   6.551 -1.0077 -1.3527  0.4689
   78SLPC    C2 7102   4.570  -0.012   6.495 -1.0839  0.4779 -0.0073
   78SLPC    HS 7103   4.563   0.084   6.552  0.7792  1.1422 -0.8293
   78SLPC   O21 7104   4.450  -0.060   6.425 -0.7232 -0.2641 -0.5694
   78SLPC   C21 7105   4.389   0.042   6.363  0.0521  0.3180  0.3720
   78SLPC   O22 7106   4.434   0.156   6.347  0.5027 -0.1075  0.2459
   78SLPC   C22 7107   4.260   0.002   6.298  0.2176 -0.0195 -0.0511
   78SLPC   H2R 7108   4.218  -0.076   6.364 -0.6516 -0.1073 -0.6830
   78SLPC   H2S 7109   4.191   0.089   6.298  2.7964  2.1937  1.6134
   78SLPC    C3 7110   4.693  -0.008   6.401 -0.0346  0.2312  0.0805
   78SLPC    HX 7111   4.777   0.025   6.467 -0.8895  0.2980  1.1564
   78SLPC    HY 7112   4.675   0.074   6.328  1.0633 -1.7664 -2.5982
   78SLPC   O31 7113   4.726  -0.128   6.323 -0.1298  0.4790  0.1949
   78SLPC   C31 7114   4.839  -0.122   6.250 -0.5005 -0.1737 -0.1663
   78SLPC   O32 7115   4.907  -0.022   6.240 -0.0072  0.0509  0.5363
   78SLPC   C32 7116   4.856  -0.251   6.171  0.0088  0.0454  0.6436
   78SLPC   H2X 7117   4.768  -0.259   6.104  0.1155  0.0695  0.4993
   78SLPC   H2Y 7118   4.841  -0.335   6.242 -3.7992  1.2379  1.4992
   78SLPC   C23 7119   4.285  -0.037   6.141 -0.3797  0.1837 -0.0559
   78SLPC   H3R 7120   4.347   0.048   6.105 -0.8551  0.3710 -0.4413
   78SLPC   H3S 7121   4.184  -0.039   6.095 -1.2292 -2.0135  1.7345
   78SLPC   C24 7122   4.356  -0.178   6.124 -0.1859 -0.2027  0.1109
   78SLPC   H4R 7123   4.324  -0.233   6.215 -0.2631 -0.5649 -0.1307
   78SLPC   H4S 7124   4.465  -0.162   6.140 -0.0981 -1.8015  1.4534
   78SLPC   C25 7125   4.322  -0.243   5.988  0.1063  0.1718  0.1825
   78SLPC   H5R 7126   4.215  -0.267   5.970 -1.4448  3.9173  2.9015
   78SLPC   H5S 7127   4.376  -0.340   5.981 -1.6333 -0.7952 -0.2996
   78SLPC   C26 7128   4.372  -0.160   5.868  0.3178 -0.4732  0.5754
   78SLPC   H6R 7129   4.470  -0.111   5.883  1.2563 -1.5421 -1.6586
   78SLPC   H6S 7130   4.302  -0.075   5.855 -0.5498 -1.5432 -2.4010
   78SLPC   C27 7131   4.374  -0.245   5.740 -0.7698  0.1741  0.8303
   78SLPC   H7R 7132   4.269  -0.280   5.725 -1.4169  1.2035  2.7040
   78SLPC   H7S 7133   4.448  -0.324   5.764 -0.5360  0.0797 -0.1275
   78SLPC   C28 7134   4.408  -0.162   5.617 -0.4007  0.8941  0.2417
   78SLPC   H8R 7135   4.513  -0.125   5.615 -0.1417  0.1425 -1.1842
   78SLPC   H8S 7136   4.348  -0.069   5.626 -0.4892  0.9358 -0.6603
   78SLPC   C29 7137   4.383  -0.237   5.492 -0.5587 -0.1912  1.0027
   78SLPC   H9R 7138   4.354  -0.342   5.501  0.0363 -0.5663 -0.9347
   78SLPC  C210 7139   4.412  -0.191   5.362  0.3462  0.5614  0.0016
   78SLPC  H10R 7140   4.387  -0.248   5.271 -0.6308  1.1155 -0.0893
   78SLPC  C211 7141   4.457  -0.046   5.334  0.4012 -0.3671  0.5225
   78SLPC  H11R 7142   4.439   0.015   5.426  0.2682 -0.7897  0.7795
   78SLPC  H11S 7143   4.387  -0.002   5.260  0.6769 -1.2441 -0.2697
   78SLPC  C212 7144   4.595  -0.051   5.286 -0.3602  0.3575  0.0195
   78SLPC  H12R 7145   4.665  -0.114   5.342 -1.8296 -2.8880 -1.5097
   78SLPC  C213 7146   4.640   0.026   5.184  0.6291  0.6210 -0.2394
   78SLPC  H13R 7147   4.746   0.011   5.156  0.7240  1.8614 -0.5894
   78SLPC  C214 7148   4.574   0.135   5.103 -0.3217 -0.0058  0.5443
   78SLPC  H14R 7149   4.660   0.191   5.059  0.0662  0.1662  1.5005
   78SLPC  H14S 7150   4.525   0.202   5.177  0.0054  0.5713  0.2498
   78SLPC  C215 7151   4.482   0.099   4.989  0.5806  0.0760 -0.3881
   78SLPC  H15R 7152   4.383   0.070   5.030  0.6397  2.3655  1.5806
   78SLPC  H15S 7153   4.525   0.011   4.937  0.6066  1.2603 -2.4655
   78SLPC  C216 7154   4.466   0.207   4.879  0.1326  0.1349  0.3758
   78SLPC  H16R 7155   4.407   0.165   4.795  0.6141  0.6257 -0.2280
   78SLPC  H16S 7156   4.562   0.246   4.837 -0.5094  0.5091 -0.7967
   78SLPC  C217 7157   4.383   0.328   4.937  0.4918 -0.2914  0.3429
   78SLPC  H17R 7158   4.332   0.296   5.031  0.8183  2.0392  1.3827
   78SLPC  H17S 7159   4.312   0.347   4.854  1.2843  0.2140 -0.2369
   78SLPC  C218 7160   4.460   0.458   4.972 -0.1778 -0.3117  0.1133
   78SLPC  H18R 7161   4.403   0.530   5.034  0.7632 -0.4077  1.1085
   78SLPC  H18S 7162   4.479   0.516   4.879  0.2671  1.1767  1.0873
   78SLPC  H18T 7163   4.559   0.447   5.022 -0.7675  1.8645  1.9134
   78SLPC   C33 7164   4.987  -0.270   6.084 -0.4186 -0.2374  0.2931
   78SLPC   H3X 7165   5.081  -0.276   6.144  0.5974  0.4366 -1.1713
   78SLPC   H3Y 7166   5.002  -0.199   6.000 -1.4254  0.1460  0.4226
   78SLPC   C34 7167   4.983  -0.402   6.012  1.0418  0.0997  0.1951
   78SLPC   H4X 7168   4.891  -0.408   5.950 -0.1916  0.7023  1.8771
   78SLPC   H4Y 7169   4.972  -0.479   6.091  3.0168  0.3999  0.8228
   78SLPC   C35 7170   5.111  -0.431   5.940 -0.2006  0.1538  0.2673
   78SLPC   H5X 7171   5.197  -0.385   5.993 -0.2219 -0.2153  0.6238
   78SLPC   H5Y 7172   5.113  -0.410   5.831 -1.1444 -1.7513 -0.1599
   78SLPC   C36 7173   5.163  -0.577   5.952 -0.0312 -0.1220  0.5575
   78SLPC   H6X 7174   5.113  -0.639   5.875  0.3304  0.5767 -0.2613
   78SLPC   H6Y 7175   5.137  -0.625   6.048  1.6951 -1.7447  0.2694
   78SLPC   C37 7176   5.318  -0.590   5.920  0.6666 -0.5536 -0.4009
   78SLPC   H7X 7177   5.346  -0.696   5.937 -1.0291 -0.3853  6.0885
   78SLPC   H7Y 7178   5.381  -0.547   6.000 -1.9276  0.5315  1.1805
   78SLPC   C38 7179   5.370  -0.543   5.783  0.5756 -0.2120 -0.5330
   78SLPC   H8X 7180   5.479  -0.564   5.773  0.4202 -1.7841  0.6890
   78SLPC   H8Y 7181   5.349  -0.436   5.766  0.5462 -0.1673 -0.2176
   78SLPC   C39 7182   5.304  -0.623   5.665 -0.2862  0.7216  0.3628
   78SLPC   H9X 7183   5.203  -0.577   5.660 -0.9196 -0.5849  0.8402
   78SLPC   H9Y 7184   5.284  -0.730   5.685 -0.3604  0.6851  0.0948
   78SLPC  C310 7185   5.364  -0.595   5.528  0.0745 -0.4379 -0.0892
   78SLPC  H10X 7186   5.471  -0.623   5.533  1.4348  3.4131 -3.0383
   78SLPC  H10Y 7187   5.361  -0.486   5.508 -1.2377 -0.8256 -2.4108
   78SLPC  C311 7188   5.294  -0.668   5.414 -0.0027  0.1624  0.0553
   78SLPC  H11X 7189   5.187  -0.643   5.394  0.5904  2.2434 -0.7511
   78SLPC  H11Y 7190   5.302  -0.775   5.445  0.0754 -0.2382 -1.2903
   78SLPC  C312 7191   5.359  -0.651   5.282  0.5521  0.1905  0.4247
   78SLPC  H12X 7192   5.304  -0.696   5.196 -0.0709 -1.0840  1.4479
   78SLPC  H12Y 7193   5.461  -0.697   5.279  0.1089 -0.8627  0.9705
   78SLPC  C313 7194   5.377  -0.503   5.234  0.1458  0.1115 -0.2081
   78SLPC  H13X 7195   5.457  -0.508   5.157 -1.1342  2.0221 -1.7239
   78SLPC  H13Y 7196   5.430  -0.434   5.303  0.1598  2.2814 -2.2587
   78SLPC  C314 7197   5.255  -0.426   5.185 -0.3214 -0.2190  0.5152
   78SLPC  H14X 7198   5.285  -0.332   5.134 -0.5036  1.2473  2.9810
   78SLPC  H14Y 7199   5.195  -0.399   5.274 -1.9660 -2.7358  0.2731
   78SLPC  C315 7200   5.165  -0.509   5.086  0.0869 -0.4156 -0.6424
   78SLPC  H15X 7201   5.127  -0.587   5.155  1.3591 -0.3232  0.1947
   78SLPC  H15Y 7202   5.227  -0.555   5.007  1.0303 -0.3726  0.0483
   78SLPC  C316 7203   5.047  -0.427   5.037 -0.2834 -0.3675  0.5293
   78SLPC  H16X 7204   5.017  -0.360   5.121 -0.0349  2.3712 -1.4050
   78SLPC  H16Y 7205   4.963  -0.495   5.014 -0.9714  1.0135 -1.2979
   78SLPC  C317 7206   5.073  -0.353   4.907 -0.1424 -0.5366 -0.1577
   78SLPC  H17X 7207   5.162  -0.289   4.921  0.7474 -1.6794 -0.4547
   78SLPC  H17Y 7208   4.987  -0.289   4.879 -0.4427 -1.7545 -2.2427
   78SLPC  C318 7209   5.085  -0.433   4.782 -0.0978 -0.1725  0.5054
   78SLPC  H18X 7210   5.103  -0.355   4.706 -1.9944  1.1860  1.3928
   78SLPC  H18Y 7211   4.991  -0.486   4.754 -0.5441  0.4014  0.9076
   78SLPC  H18Z 7212   5.168  -0.507   4.786  0.1786 -0.3213 -3.7996
   79SLPC     N 7213   4.101   2.604   7.172  0.1138  0.9306 -0.0446
   79SLPC   C13 7214   4.206   2.685   7.235  0.0033 -0.0467  0.3426
   79SLPC  H13A 7215   4.180   2.786   7.265  0.8606  1.4015 -3.2608
   79SLPC  H13B 7216   4.233   2.634   7.327 -0.8400 -2.2626 -0.5712
   79SLPC  H13C 7217   4.292   2.701   7.172  0.9959 -1.8883  1.1570
   79SLPC   C14 7218   4.050   2.654   7.043 -0.4919 -0.3711 -0.9943
   79SLPC  H14A 7219   3.987   2.577   7.001 -1.9323  0.5864 -0.6762
   79SLPC  H14B 7220   3.987   2.740   7.061  0.5063  0.4158 -1.1450
   79SLPC  H14C 7221   4.125   2.664   6.965  0.5176 -1.7107 -0.2318
   79SLPC   C15 7222   3.996   2.589   7.280 -1.0539  0.2856  0.1082
   79SLPC  H15A 7223   3.921   2.518   7.249 -0.8461  0.4173 -0.7317
   79SLPC  H15B 7224   4.033   2.558   7.377  2.1344 -1.3463 -1.4367
   79SLPC  H15C 7225   3.961   2.688   7.301  2.6992  1.3677  2.3641
   79SLPC   C12 7226   4.151   2.460   7.140  0.1612 -0.2480  0.3560
   79SLPC  H12A 7227   4.195   2.410   7.225  2.1096  1.6270  0.5014
   79SLPC  H12B 7228   4.229   2.477   7.068 -0.4366 -2.2357 -0.8271
   79SLPC   C11 7229   4.054   2.352   7.087  0.1817 -0.3378  0.2630
   79SLPC  H11A 7230   4.106   2.255   7.077  4.8967  2.0592 -1.4076
   79SLPC  H11B 7231   4.025   2.384   6.985  0.4416 -1.2660 -0.1150
   79SLPC     P 7232   3.819   2.262   7.105  0.0763  0.1979 -0.1478
   79SLPC   O13 7233   3.864   2.116   7.107  0.6030  0.0218 -0.6191
   79SLPC   O14 7234   3.697   2.297   7.180 -0.4509 -0.1980 -0.6777
   79SLPC   O12 7235   3.940   2.349   7.164  0.0315  0.2349  0.5561
   79SLPC   O11 7236   3.804   2.302   6.955 -0.2518 -0.5675 -0.4357
   79SLPC    C1 7237   3.733   2.426   6.928  0.3897  0.0567  0.0994
   79SLPC    HA 7238   3.718   2.493   7.016 -2.1154  0.1618 -0.3330
   79SLPC    HB 7239   3.785   2.484   6.849 -2.0226  1.5733 -0.5097
   79SLPC    C2 7240   3.591   2.392   6.866 -0.1705  0.3345  0.0536
   79SLPC    HS 7241   3.549   2.307   6.924 -0.5541  0.2549 -0.3416
   79SLPC   O21 7242   3.618   2.358   6.729  0.2613 -0.5874 -0.2267
   79SLPC   C21 7243   3.516   2.292   6.670  0.0043 -0.2679  0.1046
   79SLPC   O22 7244   3.419   2.255   6.730  0.4531 -0.6681 -0.0456
   79SLPC   C22 7245   3.533   2.267   6.525  0.0380  1.1006  0.1040
   79SLPC   H2R 7246   3.498   2.356   6.468 -2.0140  0.8707  0.8861
   79SLPC   H2S 7247   3.640   2.257   6.498  0.0185  1.6721 -0.2081
   79SLPC    C3 7248   3.510   2.514   6.885  0.5553  0.2721  0.3713
   79SLPC    HX 7249   3.498   2.513   6.996  0.0808  1.2440  0.3391
   79SLPC    HY 7250   3.409   2.498   6.843 -0.8146  3.1307  2.2290
   79SLPC   O31 7251   3.588   2.631   6.832 -0.1556  0.0217 -0.4848
   79SLPC   C31 7252   3.564   2.656   6.707  0.4602  0.3270 -0.0894
   79SLPC   O32 7253   3.463   2.620   6.647  0.5416  0.0616  0.2935
   79SLPC   C32 7254   3.677   2.727   6.637  0.7138 -0.0032 -0.4970
   79SLPC   H2X 7255   3.771   2.721   6.697  1.3937  1.1525 -1.4102
   79SLPC   H2Y 7256   3.652   2.835   6.631 -3.0422 -0.5779  1.7105
   79SLPC   C23 7257   3.447   2.150   6.475 -0.3370 -0.5612 -0.2628
   79SLPC   H3R 7258   3.339   2.173   6.486 -0.0390  0.8606 -0.1076
   79SLPC   H3S 7259   3.472   2.066   6.543  2.8894 -1.1160 -1.9534
   79SLPC   C24 7260   3.476   2.117   6.326  0.1566 -0.7198  1.2151
   79SLPC   H4R 7261   3.441   2.196   6.257  1.1478  0.1957  1.7268
   79SLPC   H4S 7262   3.409   2.029   6.309  1.9328 -2.0519  0.8628
   79SLPC   C25 7263   3.612   2.078   6.282 -0.4102  0.1982 -0.2314
   79SLPC   H5R 7264   3.659   2.026   6.369 -0.6798  3.9457  2.4125
   79SLPC   H5S 7265   3.667   2.172   6.258 -0.6295  0.4019  0.0674
   79SLPC   C26 7266   3.621   1.979   6.159 -0.0207 -0.0322 -0.5652
   79SLPC   H6R 7267   3.591   1.875   6.185 -0.4977  0.1517 -0.3583
   79SLPC   H6S 7268   3.730   1.978   6.138 -0.2794 -0.9347 -1.9582
   79SLPC   C27 7269   3.549   2.025   6.035  0.2811  0.1415 -0.5031
   79SLPC   H7R 7270   3.439   2.021   6.047  0.2090  1.2497 -0.6371
   79SLPC   H7S 7271   3.565   1.951   5.953 -1.4421 -0.2081 -0.5610
   79SLPC   C28 7272   3.598   2.163   5.969 -0.0961  0.1209 -0.2815
   79SLPC   H8R 7273   3.608   2.239   6.050 -0.7401  0.4804 -0.5350
   79SLPC   H8S 7274   3.519   2.212   5.908 -0.5140 -0.0387  0.1255
   79SLPC   C29 7275   3.729   2.140   5.894 -0.5193  0.0903  0.5008
   79SLPC   H9R 7276   3.815   2.188   5.942  0.2787 -0.3270 -0.4944
   79SLPC  C210 7277   3.748   2.076   5.776 -0.8202  0.3185  0.4121
   79SLPC  H10R 7278   3.851   2.061   5.740 -0.8865 -1.3476  0.8111
   79SLPC  C211 7279   3.644   2.011   5.690 -0.1342 -0.0472 -0.5933
   79SLPC  H11R 7280   3.635   2.067   5.594  0.6906 -1.3383 -1.4656
   79SLPC  H11S 7281   3.543   2.025   5.736 -0.8156  1.0673 -2.3166
   79SLPC  C212 7282   3.661   1.861   5.685  0.2857  0.1831  0.3782
   79SLPC  H12R 7283   3.641   1.808   5.779  0.3130 -0.2533  0.1385
   79SLPC  C213 7284   3.624   1.794   5.578 -0.3887  0.0775  0.5389
   79SLPC  H13R 7285   3.621   1.685   5.591 -1.3104  0.1799  1.2706
   79SLPC  C214 7286   3.597   1.853   5.437 -0.1753 -0.2560 -0.1965
   79SLPC  H14R 7287   3.670   1.805   5.368  2.1021 -0.6283  2.3306
   79SLPC  H14S 7288   3.606   1.964   5.431 -1.6419  0.0160  1.6296
   79SLPC  C215 7289   3.456   1.822   5.399 -0.7654 -0.5386 -0.1000
   79SLPC  H15R 7290   3.375   1.868   5.460 -1.9949 -0.4691 -1.6939
   79SLPC  H15S 7291   3.438   1.712   5.396 -2.0664 -0.3388 -0.4224
   79SLPC  C216 7292   3.425   1.849   5.251 -0.5049 -0.9741 -0.3749
   79SLPC  H16R 7293   3.338   1.786   5.225 -1.7284  1.8243 -3.9428
   79SLPC  H16S 7294   3.506   1.810   5.185  1.4310  1.7727  0.1995
   79SLPC  C217 7295   3.405   1.995   5.215 -0.2472 -0.4085  0.0539
   79SLPC  H17R 7296   3.493   2.056   5.245 -0.5389  0.5374 -0.9485
   79SLPC  H17S 7297   3.336   2.046   5.285  0.4231  0.3811  0.1570
   79SLPC  C218 7298   3.382   2.020   5.064 -0.9851  0.1439  0.3861
   79SLPC  H18R 7299   3.456   1.977   4.993  0.4808  2.2882  0.5197
   79SLPC  H18S 7300   3.380   2.129   5.045 -0.5785 -0.2309 -2.1416
   79SLPC  H18T 7301   3.285   1.973   5.039  0.5113 -2.1866 -1.4955
   79SLPC   C33 7302   3.711   2.669   6.503  0.3197 -0.3844 -0.6685
   79SLPC   H3X 7303   3.733   2.561   6.514 -1.6646 -0.5473  2.7942
   79SLPC   H3Y 7304   3.799   2.728   6.467  1.1454 -1.6573 -0.8008
   79SLPC   C34 7305   3.615   2.698   6.392 -0.0164  0.2076 -0.8754
   79SLPC   H4X 7306   3.629   2.806   6.371  1.1783  0.4338  0.8796
   79SLPC   H4Y 7307   3.511   2.667   6.417 -0.0324  1.9486  1.6215
   79SLPC   C35 7308   3.660   2.616   6.276  0.4337 -0.4504 -0.5046
   79SLPC   H5X 7309   3.652   2.506   6.286 -2.1123 -0.6038 -2.8920
   79SLPC   H5Y 7310   3.764   2.631   6.241  0.8054 -2.2452 -0.2200
   79SLPC   C36 7311   3.573   2.638   6.154  0.4436  0.1086 -0.2724
   79SLPC   H6X 7312   3.567   2.747   6.130  0.4705 -0.2462 -2.0661
   79SLPC   H6Y 7313   3.466   2.615   6.171  0.6791 -0.5695  0.3213
   79SLPC   C37 7314   3.654   2.578   6.029  0.3632  0.1489  0.0708
   79SLPC   H7X 7315   3.644   2.468   6.035  0.7945  0.1426  0.7767
   79SLPC   H7Y 7316   3.761   2.606   6.042  0.4066 -0.1935  0.4511
   79SLPC   C38 7317   3.614   2.627   5.884  0.0819 -1.0056 -0.7786
   79SLPC   H8X 7318   3.671   2.720   5.864  1.8176 -1.4985  1.5348
   79SLPC   H8Y 7319   3.505   2.649   5.882  0.4939  2.4604  2.5935
   79SLPC   C39 7320   3.641   2.518   5.780  0.9557  0.0920  0.3096
   79SLPC   H9X 7321   3.559   2.443   5.769 -1.9355  3.0280  0.4491
   79SLPC   H9Y 7322   3.722   2.458   5.827 -0.0175 -0.6926  1.0232
   79SLPC  C310 7323   3.688   2.572   5.651  0.2136  0.6367 -0.3720
   79SLPC  H10X 7324   3.784   2.624   5.666  0.3470  0.2116  0.2799
   79SLPC  H10Y 7325   3.613   2.645   5.614 -1.5699 -0.6431  0.5608
   79SLPC  C311 7326   3.702   2.453   5.549 -0.0098 -0.1608 -0.2338
   79SLPC  H11X 7327   3.608   2.396   5.533 -0.7365  1.2865 -1.4140
   79SLPC  H11Y 7328   3.788   2.397   5.592  1.2679  0.8540 -1.3787
   79SLPC  C312 7329   3.746   2.479   5.408  0.1955 -0.6142  0.1397
   79SLPC  H12X 7330   3.844   2.531   5.405 -0.2405  0.2891  0.9942
   79SLPC  H12Y 7331   3.680   2.553   5.357  1.7313  2.2819  2.0933
   79SLPC  C313 7332   3.761   2.356   5.313  0.3810 -0.5625 -0.6335
   79SLPC  H13X 7333   3.669   2.294   5.303 -0.2356 -0.2473  2.1774
   79SLPC  H13Y 7334   3.845   2.299   5.358 -0.6989 -0.8333  1.1594
   79SLPC  C314 7335   3.794   2.388   5.173 -0.4197 -0.4188 -0.7391
   79SLPC  H14X 7336   3.886   2.449   5.169 -0.2571 -0.6028  0.0581
   79SLPC  H14Y 7337   3.704   2.438   5.131 -1.6286  0.1455  2.2789
   79SLPC  C315 7338   3.821   2.253   5.092  0.4026 -0.0083 -0.5649
   79SLPC  H15X 7339   3.725   2.204   5.066  0.1095  1.9365 -3.7135
   79SLPC  H15Y 7340   3.875   2.182   5.159  0.0687  0.0947 -0.1822
   79SLPC  C316 7341   3.901   2.269   4.968 -0.0133 -0.3685 -0.1152
   79SLPC  H16X 7342   4.003   2.300   4.998 -0.7312 -0.2934  2.5285
   79SLPC  H16Y 7343   3.858   2.351   4.905  1.6696  1.0598  0.5001
   79SLPC  C317 7344   3.905   2.145   4.885 -0.3334  0.4820 -0.2369
   79SLPC  H17X 7345   3.800   2.128   4.853 -0.5862 -0.3319  0.9977
   79SLPC  H17Y 7346   3.939   2.060   4.946 -1.0028 -1.5467 -2.5341
   79SLPC  C318 7347   3.998   2.162   4.769  0.2772  0.5337 -0.4141
   79SLPC  H18X 7348   4.105   2.139   4.786  1.1077  0.4105 -4.7014
   79SLPC  H18Y 7349   3.984   2.264   4.727  1.6023  1.3539  1.0133
   79SLPC  H18Z 7350   3.973   2.089   4.690  1.7888  0.4656 -0.8540
   80SLPC     N 7351   6.225   6.270   7.025 -0.5193 -0.5302  0.1659
   80SLPC   C13 7352   6.141   6.323   7.135 -0.1629 -0.0094 -0.4481
   80SLPC  H13A 7353   6.196   6.341   7.226 -1.8927 -1.5837  1.0067
   80SLPC  H13B 7354   6.082   6.408   7.103 -0.5883  0.5136  1.5622
   80SLPC  H13C 7355   6.071   6.241   7.147 -0.1883 -0.3361 -2.5026
   80SLPC   C14 7356   6.314   6.386   6.985 -0.1438 -0.2481  0.5738
   80SLPC  H14A 7357   6.408   6.344   6.951 -0.4455 -0.8588  0.4749
   80SLPC  H14B 7358   6.263   6.457   6.923  0.5330  1.6215  2.0707
   80SLPC  H14C 7359   6.344   6.437   7.075 -0.2366  1.4888 -0.3404
   80SLPC   C15 7360   6.143   6.230   6.906  1.0136 -0.1822 -0.1874
   80SLPC  H15A 7361   6.207   6.215   6.820 -1.0905  0.5895 -1.9869
   80SLPC  H15B 7362   6.080   6.145   6.925  2.1671 -1.0363 -0.0404
   80SLPC  H15C 7363   6.075   6.306   6.872  0.4285 -1.3260 -1.7074
   80SLPC   C12 7364   6.305   6.144   7.057  0.6621  0.3029  0.3202
   80SLPC  H12A 7365   6.364   6.113   6.972  0.7576 -0.9911  0.8327
   80SLPC  H12B 7366   6.225   6.073   7.071  0.6137  0.0937 -0.9069
   80SLPC   C11 7367   6.410   6.148   7.173 -0.3685 -0.8337 -0.2487
   80SLPC  H11A 7368   6.448   6.045   7.190  2.6644  0.0787 -0.8220
   80SLPC  H11B 7369   6.354   6.180   7.263 -1.1695 -1.4597 -0.5174
   80SLPC     P 7370   6.635   6.179   7.040  0.5730  0.4316 -0.1404
   80SLPC   O13 7371   6.708   6.296   6.995  0.3597 -0.0776 -0.1130
   80SLPC   O14 7372   6.713   6.073   7.100 -0.1178  0.6532 -0.8687
   80SLPC   O12 7373   6.527   6.231   7.140  0.3836  0.1037 -0.1506
   80SLPC   O11 7374   6.552   6.128   6.922 -0.2371 -0.0413 -0.2308
   80SLPC    C1 7375   6.546   5.988   6.872 -0.3935  0.7825  0.0120
   80SLPC    HA 7376   6.544   5.916   6.956  1.1866  2.1698  1.3237
   80SLPC    HB 7377   6.450   5.990   6.816  0.5529  0.7112 -1.6596
   80SLPC    C2 7378   6.661   5.962   6.768 -0.9414 -0.8065 -0.4584
   80SLPC    HS 7379   6.748   5.941   6.834  1.6789  1.8833 -2.7628
   80SLPC   O21 7380   6.704   6.088   6.704  0.1128  0.3355  0.0835
   80SLPC   C21 7381   6.840   6.097   6.674  0.1318 -0.5766 -0.0398
   80SLPC   O22 7382   6.915   6.010   6.704  0.3819  0.2485 -0.0114
   80SLPC   C22 7383   6.870   6.233   6.612 -0.0754  0.5670  0.1647
   80SLPC   H2R 7384   6.777   6.274   6.567  0.7460 -0.1535 -2.3544
   80SLPC   H2S 7385   6.909   6.299   6.693  1.7720  0.2048 -0.3845
   80SLPC    C3 7386   6.639   5.847   6.661  0.1352 -0.5156  0.1684
   80SLPC    HX 7387   6.611   5.764   6.729 -0.6059 -0.1947  0.2582
   80SLPC    HY 7388   6.735   5.836   6.605 -0.2702  0.6082 -0.7848
   80SLPC   O31 7389   6.537   5.884   6.564 -0.2506 -0.5392  0.1910
   80SLPC   C31 7390   6.489   5.785   6.499  0.3044 -0.3621  1.0244
   80SLPC   O32 7391   6.520   5.669   6.509  0.4140  0.2897  0.0067
   80SLPC   C32 7392   6.402   5.842   6.388  0.3544 -0.0810 -0.6419
   80SLPC   H2X 7393   6.322   5.908   6.427 -0.9538 -1.4320 -0.9534
   80SLPC   H2Y 7394   6.343   5.767   6.331 -3.3862  0.1868  2.4679
   80SLPC   C23 7395   6.989   6.221   6.516 -0.6007  0.4425 -0.2652
   80SLPC   H3R 7396   7.054   6.147   6.568 -1.4312 -0.8776 -1.0544
   80SLPC   H3S 7397   7.034   6.320   6.493 -1.8947  1.0601 -0.2412
   80SLPC   C24 7398   6.960   6.147   6.383 -0.3718  0.5443 -0.5198
   80SLPC   H4R 7399   6.919   6.045   6.399 -0.5318  0.9464  2.0244
   80SLPC   H4S 7400   7.055   6.138   6.327 -0.8098  2.0193 -1.5435
   80SLPC   C25 7401   6.858   6.216   6.291  1.1000 -0.1141 -0.2148
   80SLPC   H5R 7402   6.854   6.324   6.317 -0.9272  0.1794 -1.4629
   80SLPC   H5S 7403   6.757   6.181   6.324  1.4894 -1.0430  0.0292
   80SLPC   C26 7404   6.888   6.201   6.141  0.2477 -0.8011  0.3750
   80SLPC   H6R 7405   6.784   6.206   6.101 -0.2958 -0.7463  1.7585
   80SLPC   H6S 7406   6.923   6.097   6.128  1.6413 -0.0544 -2.9272
   80SLPC   C27 7407   6.975   6.318   6.098 -0.1899 -0.7397  0.4127
   80SLPC   H7R 7408   7.066   6.320   6.162 -1.3643 -1.7419  2.1947
   80SLPC   H7S 7409   6.930   6.416   6.124  0.0947 -0.4110 -0.2934
   80SLPC   C28 7410   7.023   6.317   5.947  0.2764 -0.9924 -0.5500
   80SLPC   H8R 7411   7.067   6.215   5.933 -0.8633 -1.4275 -1.0778
   80SLPC   H8S 7412   7.103   6.393   5.933 -0.0478 -0.4262  0.5853
   80SLPC   C29 7413   6.904   6.336   5.861  0.6347 -0.7376  0.3839
   80SLPC   H9R 7414   6.876   6.442   5.860 -0.8129 -1.0949 -0.8654
   80SLPC  C210 7415   6.828   6.242   5.790 -0.3355 -0.2114 -0.5708
   80SLPC  H10R 7416   6.737   6.275   5.739 -0.6227 -1.3675 -0.8156
   80SLPC  C211 7417   6.847   6.091   5.790  0.4517 -0.1877 -0.1784
   80SLPC  H11R 7418   6.951   6.067   5.821  1.0006  0.5870 -1.3198
   80SLPC  H11S 7419   6.839   6.066   5.682 -0.6795  0.7616 -0.3443
   80SLPC  C212 7420   6.730   6.009   5.856  0.3646  0.3782  0.0475
   80SLPC  H12R 7421   6.675   6.062   5.935  1.6357  2.5971 -0.4632
   80SLPC  C213 7422   6.707   5.877   5.838  0.0762 -0.6352  0.1526
   80SLPC  H13R 7423   6.628   5.839   5.905 -0.1097  1.6652  1.3553
   80SLPC  C214 7424   6.763   5.775   5.739  0.4252 -0.3196 -0.2821
   80SLPC  H14R 7425   6.832   5.814   5.662 -0.8283 -2.4346 -2.6038
   80SLPC  H14S 7426   6.685   5.716   5.685  0.2243 -1.9464  1.6524
   80SLPC  C215 7427   6.851   5.667   5.819 -0.3498  0.0650  0.0546
   80SLPC  H15R 7428   6.920   5.718   5.889 -0.9728  0.9890  0.0164
   80SLPC  H15S 7429   6.907   5.617   5.737 -2.8878  1.4564 -2.7306
   80SLPC  C216 7430   6.760   5.569   5.899  0.1508  0.5741 -0.6555
   80SLPC  H16R 7431   6.762   5.465   5.858  3.1560  0.1432  0.3452
   80SLPC  H16S 7432   6.659   5.614   5.909 -0.9533 -2.1189  1.9405
   80SLPC  C217 7433   6.807   5.561   6.042 -0.1605  0.4038 -0.6773
   80SLPC  H17R 7434   6.831   5.663   6.079  1.6782  0.3816 -1.6733
   80SLPC  H17S 7435   6.900   5.500   6.047 -1.2976 -1.4190 -1.0837
   80SLPC  C218 7436   6.718   5.477   6.131  0.7187 -0.3208 -0.2112
   80SLPC  H18R 7437   6.705   5.376   6.087 -1.1821  0.5154 -1.7277
   80SLPC  H18S 7438   6.613   5.510   6.146  1.1298 -0.1846  3.0650
   80SLPC  H18T 7439   6.763   5.455   6.230  1.2083 -0.3233 -0.4304
   80SLPC   C33 7440   6.486   5.899   6.280 -0.3190 -0.0051  0.3699
   80SLPC   H3X 7441   6.545   5.817   6.235 -0.1423  0.2651  0.1035
   80SLPC   H3Y 7442   6.561   5.967   6.326  0.1694 -0.6138  0.4738
   80SLPC   C34 7443   6.414   5.979   6.168 -0.0167 -0.8628 -0.5198
   80SLPC   H4X 7444   6.319   5.929   6.138 -1.6792  1.7195  0.1349
   80SLPC   H4Y 7445   6.488   5.979   6.086  0.7190  2.3892  0.0061
   80SLPC   C35 7446   6.383   6.131   6.190  0.0506  0.0389  0.6753
   80SLPC   H5X 7447   6.469   6.191   6.226  0.7162  0.4285 -1.4547
   80SLPC   H5Y 7448   6.303   6.130   6.267  0.0766  3.2064  0.8776
   80SLPC   C36 7449   6.308   6.192   6.070 -0.7100 -0.3085  0.3456
   80SLPC   H6X 7450   6.285   6.299   6.087  0.4653  0.1064 -0.5556
   80SLPC   H6Y 7451   6.207   6.148   6.057 -0.1258 -1.2895 -1.0630
   80SLPC   C37 7452   6.397   6.193   5.942  0.7888  0.3831 -0.6733
   80SLPC   H7X 7453   6.428   6.095   5.902  0.9232  0.5706 -1.0374
   80SLPC   H7Y 7454   6.489   6.249   5.972 -2.2733  4.0575  3.2007
   80SLPC   C38 7455   6.312   6.256   5.831 -0.0967 -0.1658 -0.1966
   80SLPC   H8X 7456   6.275   6.354   5.869 -1.5160 -1.3983  1.7608
   80SLPC   H8Y 7457   6.240   6.178   5.797  0.5065 -1.3138  1.0612
   80SLPC   C39 7458   6.397   6.293   5.707 -1.1215  0.0680  0.2569
   80SLPC   H9X 7459   6.450   6.203   5.669  0.3453  1.1136 -0.2587
   80SLPC   H9Y 7460   6.477   6.369   5.722 -1.9160  1.1213 -0.6364
   80SLPC  C310 7461   6.310   6.352   5.598 -0.1371 -0.2327  0.1334
   80SLPC  H10X 7462   6.244   6.437   5.628 -0.4822 -0.5330  0.2388
   80SLPC  H10Y 7463   6.241   6.272   5.563  0.5593 -0.1285 -1.5271
   80SLPC  C311 7464   6.382   6.408   5.468  0.5240  0.1118  0.7975
   80SLPC  H11X 7465   6.468   6.343   5.439  0.5081 -0.0448  1.0935
   80SLPC  H11Y 7466   6.428   6.507   5.485  1.5371 -0.0589 -0.7489
   80SLPC  C312 7467   6.287   6.434   5.352 -0.1791 -0.5677  0.3913
   80SLPC  H12X 7468   6.199   6.486   5.396 -0.3571 -1.7562  1.4903
   80SLPC  H12Y 7469   6.267   6.337   5.302 -2.9540 -0.4438  1.0700
   80SLPC  C313 7470   6.358   6.526   5.239  0.8133 -0.4993  0.4231
   80SLPC  H13X 7471   6.453   6.473   5.219  1.4914  1.1330 -0.9054
   80SLPC  H13Y 7472   6.376   6.620   5.293 -0.0570 -0.7147  1.1215
   80SLPC  C314 7473   6.273   6.558   5.106 -0.6872 -0.0173 -0.1311
   80SLPC  H14X 7474   6.192   6.624   5.144 -1.3970 -2.5121  3.2038
   80SLPC  H14Y 7475   6.241   6.454   5.084  1.0838 -0.9482  1.2942
   80SLPC  C315 7476   6.347   6.646   5.005  0.4351  0.6203 -0.8522
   80SLPC  H15X 7477   6.398   6.721   5.068  0.0399 -0.0211  0.2634
   80SLPC  H15Y 7478   6.276   6.713   4.950 -0.3637  1.0982  0.7038
   80SLPC  C316 7479   6.450   6.563   4.922  0.6244 -0.5294 -0.1868
   80SLPC  H16X 7480   6.400   6.472   4.881  0.9222 -0.1035 -1.5381
   80SLPC  H16Y 7481   6.528   6.524   4.991  0.9978  0.7711  0.1540
   80SLPC  C317 7482   6.505   6.654   4.807 -0.3159  0.1232 -0.2538
   80SLPC  H17X 7483   6.577   6.721   4.859 -0.5222 -0.8732  1.3883
   80SLPC  H17Y 7484   6.415   6.704   4.765 -0.9397 -1.8293 -1.3461
   80SLPC  C318 7485   6.572   6.565   4.703 -0.4306  0.4627  0.5558
   80SLPC  H18X 7486   6.506   6.492   4.652  0.0898 -1.7965  2.8690
   80SLPC  H18Y 7487   6.650   6.505   4.756  1.3302  2.6532  0.5744
   80SLPC  H18Z 7488   6.622   6.619   4.621  1.8233 -2.0922  0.1068
   81SLPC     N 7489   0.676   2.726   2.243 -0.4052  0.2279  0.7865
   81SLPC   C13 7490   0.669   2.842   2.151  1.0454 -0.3743  0.2218
   81SLPC  H13A 7491   0.567   2.875   2.142  1.0531  0.6076  2.8817
   81SLPC  H13B 7492   0.719   2.923   2.202 -2.0272  3.1383 -1.7961
   81SLPC  H13C 7493   0.706   2.825   2.051 -0.5601 -1.8849 -0.1640
   81SLPC   C14 7494   0.813   2.672   2.227  0.3148 -0.3307 -0.5201
   81SLPC  H14A 7495   0.885   2.751   2.240 -0.3964  0.6982 -2.3827
   81SLPC  H14B 7496   0.838   2.594   2.297  0.9222 -1.4663 -1.9308
   81SLPC  H14C 7497   0.830   2.630   2.129 -0.1523 -1.2255 -0.2297
   81SLPC   C15 7498   0.565   2.631   2.212 -0.1279  0.1279  0.2786
   81SLPC  H15A 7499   0.563   2.554   2.287  0.0041  0.7259  0.8982
   81SLPC  H15B 7500   0.473   2.687   2.202  0.7622  1.6584  0.4977
   81SLPC  H15C 7501   0.590   2.585   2.117 -0.9554  0.3422 -0.0571
   81SLPC   C12 7502   0.661   2.771   2.387 -0.5873  0.0551  0.4348
   81SLPC  H12A 7503   0.646   2.678   2.439  0.1233  0.0023  0.5460
   81SLPC  H12B 7504   0.572   2.828   2.409 -0.3966  0.3150  0.5465
   81SLPC   C11 7505   0.772   2.855   2.454  0.2018  0.0328 -0.2879
   81SLPC  H11A 7506   0.868   2.799   2.462  0.1433 -0.3336 -1.7848
   81SLPC  H11B 7507   0.740   2.861   2.560  3.2994 -1.7064  0.8761
   81SLPC     P 7508   0.910   3.063   2.364 -0.1451  0.1935 -0.1699
   81SLPC   O13 7509   0.986   2.995   2.257 -0.7224  0.1026  0.4469
   81SLPC   O14 7510   0.893   3.209   2.342 -0.3051 -0.4372  0.0472
   81SLPC   O12 7511   0.778   2.985   2.395 -0.3301 -0.3228 -0.6180
   81SLPC   O11 7512   1.000   3.055   2.489  0.2797 -0.2890 -0.4520
   81SLPC    C1 7513   0.946   3.093   2.620  0.0706  0.0306  0.1094
   81SLPC    HA 7514   0.883   3.185   2.613  0.2545  0.0754 -1.4823
   81SLPC    HB 7515   0.872   3.024   2.666  0.1737  0.6294  1.2116
   81SLPC    C2 7516   1.046   3.125   2.732 -0.4955  0.1300 -0.3971
   81SLPC    HS 7517   1.108   3.205   2.687 -0.7759  1.7345  1.8682
   81SLPC   O21 7518   1.128   3.005   2.765  0.5020 -0.2949  0.1097
   81SLPC   C21 7519   1.238   3.045   2.823 -0.4167  0.4323 -0.4205
   81SLPC   O22 7520   1.278   3.158   2.843 -0.5773 -0.8936  0.1790
   81SLPC   C22 7521   1.324   2.917   2.853 -0.7490 -0.2728 -0.6347
   81SLPC   H2R 7522   1.274   2.820   2.835 -1.1921  0.1456 -1.7544
   81SLPC   H2S 7523   1.410   2.917   2.782  0.2596 -3.3475  0.4514
   81SLPC    C3 7524   0.970   3.171   2.858 -0.0450 -0.6935 -0.0525
   81SLPC    HX 7525   0.912   3.265   2.844 -0.0141 -0.2945  2.1115
   81SLPC    HY 7526   1.043   3.198   2.937  1.3400 -0.4778 -1.3597
   81SLPC   O31 7527   0.884   3.072   2.910  0.9734  0.0550 -0.7589
   81SLPC   C31 7528   0.836   3.090   3.038 -0.5815 -0.0861 -0.0523
   81SLPC   O32 7529   0.880   3.177   3.111 -0.2225 -0.4435  0.5463
   81SLPC   C32 7530   0.749   2.973   3.079  0.5142  0.1340 -0.1780
   81SLPC   H2X 7531   0.811   2.881   3.076 -0.2922 -0.5055  1.3821
   81SLPC   H2Y 7532   0.675   2.966   2.997  0.3618  1.8679 -0.2351
   81SLPC   C23 7533   1.391   2.925   2.996  0.0881  0.3323 -0.2011
   81SLPC   H3R 7534   1.464   3.008   3.010  0.5919  0.7711 -4.2670
   81SLPC   H3S 7535   1.441   2.827   3.012 -2.8862 -1.1218  0.9288
   81SLPC   C24 7536   1.292   2.930   3.118  0.7485  0.2953  0.7864
   81SLPC   H4R 7537   1.258   3.035   3.132  0.7587  0.4081  0.0162
   81SLPC   H4S 7538   1.350   2.893   3.204 -0.1843  0.3126  1.4325
   81SLPC   C25 7539   1.166   2.840   3.104 -0.0360  0.4667  0.0522
   81SLPC   H5R 7540   1.190   2.738   3.067 -1.8674  0.2934 -0.7401
   81SLPC   H5S 7541   1.107   2.886   3.023 -0.1293  0.9345  0.3811
   81SLPC   C26 7542   1.078   2.825   3.230  0.2578  0.1548  0.4384
   81SLPC   H6R 7543   1.108   2.740   3.293 -0.6548  0.6361  1.5647
   81SLPC   H6S 7544   0.974   2.803   3.197  0.5195  0.7257 -0.8369
   81SLPC   C27 7545   1.081   2.939   3.333  0.0942 -0.3057  0.4530
   81SLPC   H7R 7546   1.049   3.031   3.279  3.0270  0.5688  0.0212
   81SLPC   H7S 7547   1.184   2.961   3.369 -0.6519  0.7347  2.0547
   81SLPC   C28 7548   0.993   2.911   3.461 -0.4757 -0.8904 -0.4731
   81SLPC   H8R 7549   1.043   2.822   3.507 -0.5845 -0.8359 -0.2455
   81SLPC   H8S 7550   0.894   2.875   3.427 -0.4430 -1.3161 -0.1198
   81SLPC   C29 7551   0.969   3.027   3.558 -0.8769  0.0487  0.9761
   81SLPC   H9R 7552   0.895   3.105   3.536 -2.5050 -1.4176  0.9944
   81SLPC  C210 7553   1.017   3.034   3.685 -0.0900 -0.2677 -0.3935
   81SLPC  H10R 7554   0.981   3.118   3.746 -1.7670 -0.2684 -1.3146
   81SLPC  C211 7555   1.109   2.937   3.759  0.3280 -0.3559  0.1585
   81SLPC  H11R 7556   1.185   2.984   3.825  0.2937 -1.9852  1.4435
   81SLPC  H11S 7557   1.168   2.880   3.685  1.8039 -0.0101  1.0210
   81SLPC  C212 7558   1.014   2.840   3.835  0.2534 -0.3028 -0.0689
   81SLPC  H12R 7559   0.972   2.750   3.787 -0.7683 -0.5552  1.2248
   81SLPC  C213 7560   0.979   2.851   3.966 -0.9855  0.0698 -0.4742
   81SLPC  H13R 7561   0.919   2.771   4.012 -0.5425  0.3515  0.6273
   81SLPC  C214 7562   1.007   2.964   4.069 -0.3492 -0.3804  0.4263
   81SLPC  H14R 7563   1.045   3.055   4.019 -0.9926  0.1621  0.8997
   81SLPC  H14S 7564   1.089   2.939   4.140  1.1798 -0.1998 -1.2091
   81SLPC  C215 7565   0.882   3.015   4.142 -0.8761 -0.2762 -0.7513
   81SLPC  H15R 7566   0.814   3.056   4.064  0.2953 -1.7359 -2.6121
   81SLPC  H15S 7567   0.905   3.104   4.205 -2.1444  1.1017 -2.1234
   81SLPC  C216 7568   0.811   2.908   4.214  0.0885 -0.4226 -0.0545
   81SLPC  H16R 7569   0.895   2.855   4.265  0.9608  0.0008 -1.0064
   81SLPC  H16S 7570   0.768   2.833   4.145 -3.0520  1.5818 -0.4686
   81SLPC  C217 7571   0.708   2.949   4.311 -0.0290 -0.0496 -0.4346
   81SLPC  H17R 7572   0.627   3.002   4.256  1.6417  0.3955 -2.6188
   81SLPC  H17S 7573   0.747   3.028   4.378 -1.8054  0.0840  0.5030
   81SLPC  C218 7574   0.648   2.833   4.406 -0.5755 -0.7034 -0.2003
   81SLPC  H18R 7575   0.626   2.750   4.337  1.0536 -0.6377 -0.8608
   81SLPC  H18S 7576   0.554   2.866   4.455 -1.5602  0.0778 -2.4869
   81SLPC  H18T 7577   0.734   2.800   4.470 -0.7028  0.3609  0.5570
   81SLPC   C33 7578   0.681   2.981   3.209  0.6306  0.0997  0.0377
   81SLPC   H3X 7579   0.618   3.072   3.217  1.7302  0.8620  0.2225
   81SLPC   H3Y 7580   0.760   2.983   3.287 -0.3355 -0.7591  1.0836
   81SLPC   C34 7581   0.599   2.854   3.240 -0.1470  0.1805  0.1879
   81SLPC   H4X 7582   0.662   2.763   3.237 -0.8474 -0.2877 -2.1216
   81SLPC   H4Y 7583   0.526   2.841   3.157  1.2191  0.5145 -1.0953
   81SLPC   C35 7584   0.530   2.864   3.373 -0.4901  0.5067  0.2567
   81SLPC   H5X 7585   0.447   2.791   3.385 -1.7141  1.9595  0.8396
   81SLPC   H5Y 7586   0.477   2.961   3.374 -2.0743 -0.3283  0.4419
   81SLPC   C36 7587   0.629   2.858   3.495  0.2206 -0.0313  0.1223
   81SLPC   H6X 7588   0.686   2.953   3.486 -2.0451  1.6164  1.7586
   81SLPC   H6Y 7589   0.692   2.766   3.495  2.7851  1.6120 -0.2507
   81SLPC   C37 7590   0.556   2.862   3.630  0.6193  1.1674 -0.8290
   81SLPC   H7X 7591   0.504   2.764   3.628  2.1697  0.3272 -1.5488
   81SLPC   H7Y 7592   0.492   2.952   3.619  1.4925  1.5673 -3.2819
   81SLPC   C38 7593   0.661   2.868   3.747  0.1827 -0.3315  0.6140
   81SLPC   H8X 7594   0.715   2.965   3.748  0.0399 -0.2520  1.7548
   81SLPC   H8Y 7595   0.737   2.789   3.725 -1.4724 -1.6404 -0.6709
   81SLPC   C39 7596   0.587   2.843   3.879  0.4786  0.0155  0.2190
   81SLPC   H9X 7597   0.481   2.870   3.861  0.7449 -0.5982 -2.8360
   81SLPC   H9Y 7598   0.622   2.918   3.953 -0.4582  1.2736 -0.5751
   81SLPC  C310 7599   0.600   2.694   3.923 -0.3279 -0.5180  0.2786
   81SLPC  H10X 7600   0.707   2.667   3.937 -0.4549 -1.2631 -0.1340
   81SLPC  H10Y 7601   0.561   2.633   3.839 -1.2539  1.2516 -0.6302
   81SLPC  C311 7602   0.524   2.663   4.047  0.6340  0.3278 -0.4092
   81SLPC  H11X 7603   0.534   2.742   4.125  2.0027 -0.5990  0.3883
   81SLPC  H11Y 7604   0.570   2.571   4.089  1.1205  0.7434 -0.0138
   81SLPC  C312 7605   0.370   2.653   4.020  0.0362 -0.2883  0.9335
   81SLPC  H12X 7606   0.359   2.621   3.914 -2.9374  0.5872  0.8754
   81SLPC  H12Y 7607   0.327   2.756   4.028  2.3330  0.8435 -0.3644
   81SLPC  C313 7608   0.285   2.557   4.103 -0.4908  0.4822 -0.6734
   81SLPC  H13X 7609   0.317   2.559   4.209 -0.8376 -1.6455 -0.4816
   81SLPC  H13Y 7610   0.301   2.451   4.072  1.3927  0.6384 -0.3028
   81SLPC  C314 7611   0.134   2.601   4.084  0.1971  0.7061  0.3224
   81SLPC  H14X 7612   0.105   2.597   3.977  1.9441  0.7461 -0.1832
   81SLPC  H14Y 7613   0.125   2.705   4.121  0.7762  0.8282  0.1284
   81SLPC  C315 7614   0.035   2.527   4.173 -0.9466  0.1940 -0.3069
   81SLPC  H15X 7615   0.004   2.428   4.132  1.2966 -0.7452  0.1005
   81SLPC  H15Y 7616  -0.061   2.582   4.173  0.0577  2.0158 -0.6439
   81SLPC  C316 7617   0.087   2.507   4.314  0.0380  0.5475 -0.0372
   81SLPC  H16X 7618   0.142   2.597   4.348  0.7638  1.5709 -3.5259
   81SLPC  H16Y 7619   0.144   2.412   4.321 -0.2306  0.5256  2.4416
   81SLPC  C317 7620  -0.033   2.483   4.405  0.1129 -0.2477  0.9978
   81SLPC  H17X 7621  -0.097   2.405   4.360 -1.6375  1.4661  0.3974
   81SLPC  H17Y 7622  -0.096   2.575   4.411 -1.7690 -1.5112  1.4487
   81SLPC  C318 7623  -0.003   2.450   4.551 -0.0092 -0.3641  0.1278
   81SLPC  H18X 7624   0.058   2.530   4.598 -0.3703 -0.6445  1.1206
   81SLPC  H18Y 7625   0.054   2.355   4.560  0.8491 -0.1043 -2.0024
   81SLPC  H18Z 7626  -0.091   2.433   4.617  1.5482 -1.9308  1.9453
   82SLPC     N 7627   3.984   2.994   2.326  0.2151  1.0831  1.3170
   82SLPC   C13 7628   3.844   2.942   2.295  0.0205  0.4148 -0.5950
   82SLPC  H13A 7629   3.775   3.020   2.267 -1.1400  0.0035  1.0153
   82SLPC  H13B 7630   3.837   2.867   2.217 -0.6485 -0.8309  0.6355
   82SLPC  H13C 7631   3.801   2.895   2.382 -0.6295  0.5844 -0.8219
   82SLPC   C14 7632   4.028   3.064   2.213 -0.0480  0.2113 -0.0600
   82SLPC  H14A 7633   3.982   3.160   2.199  0.4258  0.6099  1.0259
   82SLPC  H14B 7634   4.135   3.075   2.220 -0.2875  1.6728  2.1860
   82SLPC  H14C 7635   4.005   3.006   2.124  0.1620  1.8636 -1.2329
   82SLPC   C15 7636   4.068   2.868   2.336 -0.4391  0.0384 -0.5941
   82SLPC  H15A 7637   4.043   2.805   2.252 -0.8793 -3.0248  1.6382
   82SLPC  H15B 7638   4.174   2.887   2.340 -0.7944  2.1574  0.0818
   82SLPC  H15C 7639   4.045   2.821   2.431 -1.8822  0.3486 -0.7663
   82SLPC   C12 7640   3.995   3.074   2.449 -0.0167 -0.0302 -0.6996
   82SLPC  H12A 7641   3.918   3.149   2.445  0.4171  0.4072 -0.8844
   82SLPC  H12B 7642   4.091   3.123   2.451  1.0317 -1.8881  2.1893
   82SLPC   C11 7643   3.971   3.000   2.586 -0.1118  0.2327 -0.1741
   82SLPC  H11A 7644   3.974   3.074   2.670 -0.7382  0.6407 -0.4997
   82SLPC  H11B 7645   4.060   2.935   2.603  0.1539  0.7236  0.3570
   82SLPC     P 7646   3.717   2.979   2.656  0.2581 -0.0558 -0.1331
   82SLPC   O13 7647   3.677   3.096   2.576  0.0680 -0.0445  0.6840
   82SLPC   O14 7648   3.614   2.872   2.645  0.3515  0.4379 -0.4376
   82SLPC   O12 7649   3.849   2.922   2.590 -0.1879  0.3810 -0.1517
   82SLPC   O11 7650   3.736   3.028   2.807  0.5754  0.7233  0.0159
   82SLPC    C1 7651   3.815   2.955   2.902 -0.3177  0.0728 -0.2866
   82SLPC    HA 7652   3.892   2.897   2.847 -0.9339 -0.5753 -0.4770
   82SLPC    HB 7653   3.867   3.027   2.969 -0.7260  0.7784 -0.7174
   82SLPC    C2 7654   3.720   2.857   2.983 -1.3776  0.2705 -0.1718
   82SLPC    HS 7655   3.697   2.779   2.908  2.3514  0.1561 -1.3984
   82SLPC   O21 7656   3.609   2.923   3.043  0.4997  0.0521 -0.0144
   82SLPC   C21 7657   3.496   2.853   3.050 -1.0010  0.0263 -0.0192
   82SLPC   O22 7658   3.482   2.733   3.013 -0.0828 -0.6371  0.1102
   82SLPC   C22 7659   3.395   2.943   3.112 -0.4539 -0.0412 -0.0404
   82SLPC   H2R 7660   3.435   3.016   3.185  1.0111 -0.2198 -0.6255
   82SLPC   H2S 7661   3.354   2.998   3.025 -1.8941 -0.4381  0.3560
   82SLPC    C3 7662   3.811   2.784   3.090  0.6537  0.4545  0.1236
   82SLPC    HX 7663   3.865   2.860   3.152  0.0118  1.3696 -0.4154
   82SLPC    HY 7664   3.886   2.735   3.026 -0.1660  2.4923 -2.5675
   82SLPC   O31 7665   3.745   2.698   3.181 -0.2210 -0.3548  0.0201
   82SLPC   C31 7666   3.769   2.576   3.171  0.0671  0.0290 -0.6924
   82SLPC   O32 7667   3.836   2.519   3.089  0.1044  0.1555  0.2717
   82SLPC   C32 7668   3.709   2.489   3.289  0.0983  0.4684  0.2985
   82SLPC   H2X 7669   3.795   2.445   3.343  1.0143 -0.4180 -1.7659
   82SLPC   H2Y 7670   3.658   2.403   3.240 -1.1895 -1.4734  4.5156
   82SLPC   C23 7671   3.275   2.870   3.173  0.4624 -0.0505  0.2993
   82SLPC   H3R 7672   3.256   2.766   3.141 -1.1748 -0.4551  2.3788
   82SLPC   H3S 7673   3.184   2.926   3.141 -1.3120 -0.7809  3.5959
   82SLPC   C24 7674   3.297   2.863   3.327 -0.0162  0.3006 -0.1454
   82SLPC   H4R 7675   3.324   2.964   3.364 -0.8965  1.1144 -1.6371
   82SLPC   H4S 7676   3.373   2.785   3.348 -0.0976 -0.4579 -2.4258
   82SLPC   C25 7677   3.171   2.813   3.402  0.3048  0.6642  0.5091
   82SLPC   H5R 7678   3.161   2.709   3.362 -0.8321  1.6219 -1.8499
   82SLPC   H5S 7679   3.082   2.871   3.371 -1.4301 -0.3241  3.2266
   82SLPC   C26 7680   3.182   2.814   3.549  0.6794  0.6927 -0.4137
   82SLPC   H6R 7681   3.195   2.918   3.585  1.5504 -0.3083  2.4999
   82SLPC   H6S 7682   3.271   2.760   3.588  0.7024  2.5253  2.3323
   82SLPC   C27 7683   3.060   2.765   3.621 -0.0309 -0.1377 -0.4262
   82SLPC   H7R 7684   2.967   2.812   3.583  0.8804  1.2806 -0.9641
   82SLPC   H7S 7685   3.054   2.818   3.718  2.1239  0.6399 -0.6823
   82SLPC   C28 7686   3.036   2.611   3.639 -0.0766 -0.0365  0.4792
   82SLPC   H8R 7687   3.073   2.558   3.549 -2.9992  0.5961 -1.2240
   82SLPC   H8S 7688   2.925   2.600   3.638  0.0990 -2.4260  1.5193
   82SLPC   C29 7689   3.099   2.555   3.761 -0.0066 -0.6350 -0.7181
   82SLPC   H9R 7690   3.208   2.537   3.758  0.0311 -1.6285  2.4291
   82SLPC  C210 7691   3.049   2.506   3.869  0.2372  0.6442 -0.9554
   82SLPC  H10R 7692   3.107   2.466   3.953 -1.8557  0.6036  0.5503
   82SLPC  C211 7693   2.895   2.499   3.896  0.3022  0.0256 -0.7654
   82SLPC  H11R 7694   2.829   2.564   3.835  0.1353  1.6034  1.0193
   82SLPC  H11S 7695   2.867   2.549   3.991  1.2487  0.4640 -0.7095
   82SLPC  C212 7696   2.837   2.355   3.883  0.0892 -1.1773 -0.0720
   82SLPC  H12R 7697   2.850   2.311   3.782  0.6306  0.2140 -0.6346
   82SLPC  C213 7698   2.785   2.285   3.987  0.5397  0.1375  0.0581
   82SLPC  H13R 7699   2.749   2.183   3.966 -1.5833  0.4600  1.7899
   82SLPC  C214 7700   2.757   2.321   4.128  0.8458  0.5042 -0.0889
   82SLPC  H14R 7701   2.652   2.358   4.133  0.9894  0.9475 -0.2225
   82SLPC  H14S 7702   2.818   2.412   4.150  0.2735  0.8854 -0.0623
   82SLPC  C215 7703   2.781   2.199   4.225 -0.0030  0.8395 -0.6232
   82SLPC  H15R 7704   2.775   2.238   4.329 -1.0588  0.6952 -0.6200
   82SLPC  H15S 7705   2.880   2.153   4.206  0.9661  3.2396 -1.9418
   82SLPC  C216 7706   2.672   2.089   4.210 -0.6161  0.3007  0.2045
   82SLPC  H16R 7707   2.668   2.055   4.105  0.8034 -0.4565  0.3714
   82SLPC  H16S 7708   2.574   2.137   4.232  0.1187  2.1743 -0.4641
   82SLPC  C217 7709   2.691   1.972   4.316  0.1218 -0.1676 -0.9045
   82SLPC  H17R 7710   2.787   1.916   4.310 -1.5570 -3.2163 -0.7733
   82SLPC  H17S 7711   2.612   1.896   4.299 -2.9152  1.9573  2.3405
   82SLPC  C218 7712   2.673   2.021   4.462  0.7090 -0.0545 -0.6601
   82SLPC  H18R 7713   2.750   2.093   4.500  1.9223 -0.2267 -2.6700
   82SLPC  H18S 7714   2.692   1.942   4.538 -0.2965  0.1525 -0.1741
   82SLPC  H18T 7715   2.572   2.063   4.483  0.7316  1.4054 -3.1528
   82SLPC   C33 7716   3.616   2.565   3.385  0.2324  0.5790 -0.5241
   82SLPC   H3X 7717   3.560   2.493   3.449 -0.2076 -0.1320 -1.6797
   82SLPC   H3Y 7718   3.544   2.629   3.330  0.0589  3.4256  2.7230
   82SLPC   C34 7719   3.691   2.642   3.486 -0.2381 -0.6223  0.2287
   82SLPC   H4X 7720   3.758   2.716   3.437  1.7223 -1.7500  1.0968
   82SLPC   H4Y 7721   3.761   2.580   3.546  0.4422  2.5683  3.0563
   82SLPC   C35 7722   3.592   2.721   3.584  0.2293  0.1506  0.8332
   82SLPC   H5X 7723   3.503   2.762   3.532  1.0786  0.1124 -0.7295
   82SLPC   H5Y 7724   3.644   2.804   3.636 -1.4099  2.0402 -0.4368
   82SLPC   C36 7725   3.553   2.630   3.695 -0.5689 -0.5614  0.2313
   82SLPC   H6X 7726   3.635   2.570   3.740 -0.5740  0.2313  1.3319
   82SLPC   H6Y 7727   3.478   2.557   3.657 -1.7603  1.4171 -1.4558
   82SLPC   C37 7728   3.475   2.706   3.804 -0.4334  0.0456 -0.6982
   82SLPC   H7X 7729   3.376   2.723   3.755 -0.4254 -1.4710 -1.3040
   82SLPC   H7Y 7730   3.519   2.806   3.825  0.0088 -0.3338  0.2510
   82SLPC   C38 7731   3.445   2.614   3.927  0.1761 -0.2205  0.0593
   82SLPC   H8X 7732   3.539   2.581   3.976  1.0791  0.7379 -0.9481
   82SLPC   H8Y 7733   3.376   2.532   3.899 -3.9141  3.0869 -0.5617
   82SLPC   C39 7734   3.379   2.706   4.036 -0.6209  0.0528  0.4902
   82SLPC   H9X 7735   3.282   2.750   4.004 -0.4801 -0.6464 -0.9675
   82SLPC   H9Y 7736   3.455   2.785   4.054 -0.4464  0.9665 -3.3998
   82SLPC  C310 7737   3.361   2.618   4.159  0.1270  0.0373  0.7530
   82SLPC  H10X 7738   3.459   2.617   4.211 -0.2841 -2.1957  1.5897
   82SLPC  H10Y 7739   3.339   2.510   4.142  1.5918 -0.6520  2.8301
   82SLPC  C311 7740   3.253   2.673   4.248 -0.9661 -0.2156  0.1012
   82SLPC  H11X 7741   3.259   2.783   4.255  0.1338 -0.3052  0.7770
   82SLPC  H11Y 7742   3.276   2.631   4.348 -2.4455  0.3085  0.6861
   82SLPC  C312 7743   3.112   2.634   4.207  0.9525 -0.0551 -0.1678
   82SLPC  H12X 7744   3.090   2.525   4.198  0.9343 -0.1227  0.6251
   82SLPC  H12Y 7745   3.094   2.674   4.105 -1.3314 -0.6575 -0.0648
   82SLPC  C313 7746   2.997   2.684   4.294 -0.4310 -0.1236 -0.3424
   82SLPC  H13X 7747   2.909   2.660   4.231 -0.3718 -1.2818  0.0043
   82SLPC  H13Y 7748   3.005   2.794   4.307  0.1592 -0.3538  1.4573
   82SLPC  C314 7749   2.986   2.617   4.431  0.5775  0.4291  0.1307
   82SLPC  H14X 7750   3.084   2.605   4.481  0.4081 -0.8741  0.1642
   82SLPC  H14Y 7751   2.963   2.511   4.410 -0.0496  0.6572 -0.3915
   82SLPC  C315 7752   2.896   2.682   4.533  0.5527 -0.5614  0.3284
   82SLPC  H15X 7753   2.949   2.770   4.575  0.2146 -0.9752  1.6661
   82SLPC  H15Y 7754   2.886   2.610   4.617 -2.1054  1.0876  1.5326
   82SLPC  C316 7755   2.759   2.716   4.479  0.6579  0.1029 -0.9065
   82SLPC  H16X 7756   2.702   2.622   4.458  0.4014  0.0733 -0.1455
   82SLPC  H16Y 7757   2.766   2.781   4.390 -0.6476  3.7834  1.4352
   82SLPC  C317 7758   2.673   2.793   4.579  0.1022  0.5131 -0.3221
   82SLPC  H17X 7759   2.569   2.815   4.546  0.0793  2.1906  0.7379
   82SLPC  H17Y 7760   2.708   2.897   4.598 -0.7457  0.8625 -0.6344
   82SLPC  C318 7761   2.645   2.719   4.715 -0.4235 -0.8411  0.1064
   82SLPC  H18X 7762   2.613   2.613   4.706  0.3951 -1.5050  3.4244
   82SLPC  H18Y 7763   2.568   2.773   4.774 -0.2074  0.9532 -1.1691
   82SLPC  H18Z 7764   2.734   2.716   4.782 -1.3741 -2.5992  1.3628
   83SLPC     N 7765   3.237   6.297   2.466  0.2404 -0.1666 -0.6523
   83SLPC   C13 7766   3.335   6.322   2.361 -0.0259  0.1218 -0.0129
   83SLPC  H13A 7767   3.291   6.388   2.288 -0.3120  3.0695  2.6385
   83SLPC  H13B 7768   3.417   6.382   2.399 -0.3961  1.2984 -0.9908
   83SLPC  H13C 7769   3.375   6.231   2.317  1.3711  0.8448 -0.3050
   83SLPC   C14 7770   3.123   6.218   2.407  0.5566  0.1741 -0.2563
   83SLPC  H14A 7771   3.056   6.194   2.488 -1.5723  0.6373 -1.7830
   83SLPC  H14B 7772   3.070   6.284   2.339  0.1639  1.7180  1.4589
   83SLPC  H14C 7773   3.154   6.124   2.364 -0.0044  0.6705 -1.8396
   83SLPC   C15 7774   3.179   6.434   2.516  0.0020 -0.3879  0.1098
   83SLPC  H15A 7775   3.140   6.509   2.449  1.0444 -0.3173 -0.4329
   83SLPC  H15B 7776   3.099   6.406   2.583 -0.0580  1.1370  0.7153
   83SLPC  H15C 7777   3.256   6.484   2.573 -1.3974 -0.4276  2.1799
   83SLPC   C12 7778   3.295   6.225   2.589  0.5239  0.0213 -0.0838
   83SLPC  H12A 7779   3.310   6.122   2.561  0.8141 -0.0854  0.4395
   83SLPC  H12B 7780   3.223   6.227   2.670  0.9519  1.0507  0.2826
   83SLPC   C11 7781   3.414   6.290   2.662  0.0503 -0.1821  0.3835
   83SLPC  H11A 7782   3.410   6.232   2.756 -0.5102 -0.4873  0.1746
   83SLPC  H11B 7783   3.397   6.397   2.687  2.8086  0.5152 -0.3861
   83SLPC     P 7784   3.615   6.141   2.603 -0.1326  0.1423  0.3879
   83SLPC   O13 7785   3.535   6.021   2.634  0.5168  0.3817 -0.4261
   83SLPC   O14 7786   3.708   6.130   2.494 -0.1200  0.0484  0.4330
   83SLPC   O12 7787   3.531   6.272   2.590 -0.0098  0.2338 -0.2192
   83SLPC   O11 7788   3.713   6.171   2.727 -0.5853 -0.1767 -0.0774
   83SLPC    C1 7789   3.702   6.296   2.794  0.8376 -0.2957 -0.2374
   83SLPC    HA 7790   3.689   6.383   2.727  1.2380  1.0437  1.3706
   83SLPC    HB 7791   3.615   6.288   2.863  0.3325 -1.2878 -0.9532
   83SLPC    C2 7792   3.825   6.319   2.873 -0.7980  0.7909  0.4005
   83SLPC    HS 7793   3.908   6.337   2.801 -0.2474  1.7562  1.2475
   83SLPC   O21 7794   3.859   6.202   2.950 -0.1209  0.4215 -0.6020
   83SLPC   C21 7795   3.979   6.196   2.997 -0.3824  0.8551  0.3780
   83SLPC   O22 7796   4.074   6.272   2.966 -0.2419 -0.1226 -0.1383
   83SLPC   C22 7797   3.978   6.086   3.106  0.0424  0.1448 -0.0011
   83SLPC   H2R 7798   3.892   6.102   3.174  0.0627 -2.0718  0.6157
   83SLPC   H2S 7799   3.947   5.992   3.056  0.9834 -0.0638 -0.2258
   83SLPC    C3 7800   3.824   6.455   2.960 -0.4705 -0.0535 -0.1907
   83SLPC    HX 7801   3.804   6.534   2.884 -1.0723 -1.7661 -1.8692
   83SLPC    HY 7802   3.929   6.466   2.995 -0.4117  0.1628 -0.4278
   83SLPC   O31 7803   3.734   6.438   3.073 -0.4126 -0.3409  0.0751
   83SLPC   C31 7804   3.614   6.489   3.072  0.5808 -0.8041 -0.0283
   83SLPC   O32 7805   3.566   6.548   2.978 -0.2283 -0.2206 -0.4154
   83SLPC   C32 7806   3.536   6.475   3.205 -0.4063  1.0647  0.2421
   83SLPC   H2X 7807   3.610   6.513   3.279  0.7071  0.4474 -0.5224
   83SLPC   H2Y 7808   3.520   6.365   3.216  0.6730  1.0428  1.9555
   83SLPC   C23 7809   4.120   6.050   3.156  0.1037 -0.0646  0.1032
   83SLPC   H3R 7810   4.173   6.144   3.182  0.2842 -0.1870  0.1784
   83SLPC   H3S 7811   4.182   6.010   3.073 -0.8727 -1.8349  0.1993
   83SLPC   C24 7812   4.137   5.963   3.279  0.6099  0.5614 -0.6243
   83SLPC   H4R 7813   4.110   5.863   3.241 -2.1443  0.5855  0.9740
   83SLPC   H4S 7814   4.062   5.992   3.356  0.2845  0.2601 -0.8257
   83SLPC   C25 7815   4.278   5.979   3.339 -0.5397  0.2679 -0.2863
   83SLPC   H5R 7816   4.352   5.970   3.257 -0.1827  0.9838 -0.0584
   83SLPC   H5S 7817   4.282   5.899   3.415  0.6578 -0.0580 -0.6696
   83SLPC   C26 7818   4.317   6.113   3.393 -0.1257 -0.0927  0.5524
   83SLPC   H6R 7819   4.243   6.140   3.471 -0.0681  1.1767  0.2050
   83SLPC   H6S 7820   4.320   6.192   3.315 -0.2639  1.2867  1.8986
   83SLPC   C27 7821   4.456   6.099   3.454  0.5502 -0.2428  0.8046
   83SLPC   H7R 7822   4.517   6.056   3.372  0.2242  1.5420 -0.4377
   83SLPC   H7S 7823   4.468   6.026   3.538  3.0882 -0.7145  0.1166
   83SLPC   C28 7824   4.508   6.241   3.498  0.2985  0.1642  0.1959
   83SLPC   H8R 7825   4.442   6.274   3.581  0.2505  0.9052 -0.1281
   83SLPC   H8S 7826   4.487   6.314   3.416  0.2664  0.6387  0.6175
   83SLPC   C29 7827   4.651   6.242   3.531  0.4153  0.0523  0.0305
   83SLPC   H9R 7828   4.709   6.177   3.463 -0.3583 -0.7764  0.1488
   83SLPC  C210 7829   4.710   6.302   3.639  0.1343 -0.3890 -0.0949
   83SLPC  H10R 7830   4.816   6.293   3.666  0.4714  0.6854 -0.9788
   83SLPC  C211 7831   4.638   6.393   3.734 -0.3602 -0.1034  0.5249
   83SLPC  H11R 7832   4.681   6.363   3.832 -1.3684  1.8098  1.6202
   83SLPC  H11S 7833   4.530   6.368   3.744 -0.9085  0.9734 -1.9903
   83SLPC  C212 7834   4.671   6.537   3.697 -0.0278  0.0849 -0.0234
   83SLPC  H12R 7835   4.631   6.565   3.598  1.0082 -0.8449 -0.7422
   83SLPC  C213 7836   4.772   6.610   3.755 -0.1221 -0.6508  0.8497
   83SLPC  H13R 7837   4.781   6.712   3.714 -0.9389 -1.0041 -0.2662
   83SLPC  C214 7838   4.846   6.582   3.881  0.6994  0.1060  0.1381
   83SLPC  H14R 7839   4.952   6.612   3.873  0.6701  0.0865 -0.3571
   83SLPC  H14S 7840   4.842   6.474   3.906 -2.8570 -0.1046 -0.7718
   83SLPC  C215 7841   4.773   6.651   3.995 -0.9652  0.5873  0.4901
   83SLPC  H15R 7842   4.684   6.591   4.022  0.1580 -1.8408 -0.8969
   83SLPC  H15S 7843   4.753   6.758   3.972  0.6655  0.6604 -0.7372
   83SLPC  C216 7844   4.844   6.657   4.135  0.5093 -0.6640 -0.6160
   83SLPC  H16R 7845   4.948   6.686   4.108  0.3231  1.0915  0.3986
   83SLPC  H16S 7846   4.847   6.553   4.174 -2.1831 -1.9528 -3.4856
   83SLPC  C217 7847   4.787   6.754   4.235 -0.4068 -0.5873 -0.1670
   83SLPC  H17R 7848   4.677   6.738   4.244 -0.6523  0.0238 -1.7585
   83SLPC  H17S 7849   4.808   6.853   4.188  1.4522 -0.5082  0.7471
   83SLPC  C218 7850   4.848   6.768   4.373 -0.5856 -0.2871  0.2417
   83SLPC  H18R 7851   4.902   6.863   4.392 -0.1879 -0.3726 -0.4146
   83SLPC  H18S 7852   4.935   6.699   4.368 -0.7079 -0.3970 -0.6109
   83SLPC  H18T 7853   4.783   6.733   4.456 -0.5983  1.1430  0.8497
   83SLPC   C33 7854   3.404   6.558   3.214  0.1947 -0.6247 -0.3020
   83SLPC   H3X 7855   3.329   6.533   3.135 -0.4654  0.2882  0.0178
   83SLPC   H3Y 7856   3.440   6.663   3.208  1.6514 -0.9455  1.8585
   83SLPC   C34 7857   3.338   6.544   3.350  0.2044  0.7010  0.6947
   83SLPC   H4X 7858   3.274   6.454   3.345  1.7287 -0.4309  0.6576
   83SLPC   H4Y 7859   3.277   6.635   3.366 -0.3069  0.7908 -1.4240
   83SLPC   C35 7860   3.431   6.527   3.469 -0.6206  0.5029 -0.3761
   83SLPC   H5X 7861   3.500   6.614   3.459 -2.3328  1.9706  0.0443
   83SLPC   H5Y 7862   3.492   6.435   3.466 -0.1689  0.8159 -1.1183
   83SLPC   C36 7863   3.367   6.516   3.607 -0.3874  0.3589  0.2358
   83SLPC   H6X 7864   3.311   6.421   3.618 -1.2762  0.8970  0.4791
   83SLPC   H6Y 7865   3.307   6.603   3.641 -1.1280 -0.0054 -0.1222
   83SLPC   C37 7866   3.485   6.503   3.710 -0.0976  0.2540  0.1042
   83SLPC   H7X 7867   3.531   6.604   3.702  2.8395 -1.1209 -2.1885
   83SLPC   H7Y 7868   3.561   6.427   3.682  0.0640 -0.3508  2.0416
   83SLPC   C38 7869   3.427   6.486   3.852 -0.0377 -0.5205 -0.2020
   83SLPC   H8X 7870   3.318   6.506   3.857 -0.2783 -1.3178 -1.5481
   83SLPC   H8Y 7871   3.489   6.562   3.903 -1.8496  1.2583 -0.5358
   83SLPC   C39 7872   3.445   6.344   3.903 -0.4148 -0.2013 -0.4135
   83SLPC   H9X 7873   3.555   6.330   3.892 -0.2550  2.4990 -3.6167
   83SLPC   H9Y 7874   3.405   6.284   3.818  3.3166 -0.5479 -2.1365
   83SLPC  C310 7875   3.392   6.309   4.044 -0.6845 -0.2684 -0.5331
   83SLPC  H10X 7876   3.389   6.200   4.065 -0.0443  0.2753  3.0040
   83SLPC  H10Y 7877   3.287   6.345   4.051 -1.4277 -2.0426 -1.8680
   83SLPC  C311 7878   3.469   6.382   4.156 -0.1727 -0.0620 -0.6622
   83SLPC  H11X 7879   3.446   6.491   4.152 -0.9430 -0.0668  1.9076
   83SLPC  H11Y 7880   3.577   6.359   4.143 -0.1185 -0.6489  0.6329
   83SLPC  C312 7881   3.435   6.345   4.301  0.1758 -1.1284  1.0275
   83SLPC  H12X 7882   3.496   6.391   4.381  0.5848  0.5284 -0.1970
   83SLPC  H12Y 7883   3.459   6.236   4.305  1.2018 -0.9651 -0.1036
   83SLPC  C313 7884   3.285   6.366   4.332 -0.3814  0.0947  0.5214
   83SLPC  H13X 7885   3.229   6.289   4.273  0.1636  0.2962 -0.2803
   83SLPC  H13Y 7886   3.262   6.470   4.300  0.7791 -0.2460 -1.6358
   83SLPC  C314 7887   3.265   6.359   4.481 -0.1850  0.0376  0.3597
   83SLPC  H14X 7888   3.340   6.431   4.520 -1.9097  1.0926  1.8568
   83SLPC  H14Y 7889   3.294   6.259   4.518 -0.5916 -0.5782 -0.9267
   83SLPC  C315 7890   3.125   6.406   4.513 -0.3982 -0.2631 -0.3744
   83SLPC  H15X 7891   3.047   6.352   4.455 -1.9221 -0.0549  1.3954
   83SLPC  H15Y 7892   3.116   6.511   4.478 -1.2177  0.0422  0.6820
   83SLPC  C316 7893   3.080   6.383   4.659  0.1952 -0.5410 -0.0134
   83SLPC  H16X 7894   3.141   6.441   4.731 -0.6042  1.7668 -1.0853
   83SLPC  H16Y 7895   3.096   6.275   4.681 -0.7058 -1.0177 -1.5320
   83SLPC  C317 7896   2.935   6.407   4.691 -0.0952 -0.5206 -0.0864
   83SLPC  H17X 7897   2.873   6.344   4.624 -0.1666  0.5258 -1.0562
   83SLPC  H17Y 7898   2.911   6.511   4.659  0.7019 -0.2030  0.3130
   83SLPC  C318 7899   2.905   6.397   4.839 -0.4160  0.5230  0.6872
   83SLPC  H18X 7900   2.799   6.422   4.861 -0.7843 -1.2521  1.0350
   83SLPC  H18Y 7901   2.953   6.477   4.900 -4.5138  1.7847  2.6603
   83SLPC  H18Z 7902   2.921   6.293   4.874  2.4793  0.9527  0.8956
   84SLPC     N 7903   4.641   0.196   2.411 -0.6654  0.0685  0.5005
   84SLPC   C13 7904   4.750   0.175   2.308  0.5627  0.0847 -0.5692
   84SLPC  H13A 7905   4.843   0.212   2.348 -0.2879  0.9124  0.7052
   84SLPC  H13B 7906   4.766   0.070   2.286  0.5538 -0.1058  0.2739
   84SLPC  H13C 7907   4.723   0.228   2.218 -2.0192 -0.7026 -0.3365
   84SLPC   C14 7908   4.510   0.149   2.351  0.0565  0.0166  0.9347
   84SLPC  H14A 7909   4.490   0.208   2.263  0.0257 -0.1093  0.8582
   84SLPC  H14B 7910   4.528   0.045   2.330  0.1097 -0.0993  1.5212
   84SLPC  H14C 7911   4.427   0.143   2.420 -0.7490 -3.2722 -0.1469
   84SLPC   C15 7912   4.626   0.339   2.432  0.7664 -0.3657  0.0595
   84SLPC  H15A 7913   4.606   0.392   2.340 -0.7566  0.8450  1.0369
   84SLPC  H15B 7914   4.547   0.359   2.503  0.9803 -0.7158  0.3988
   84SLPC  H15C 7915   4.707   0.386   2.486  0.0009  0.3743  0.6000
   84SLPC   C12 7916   4.679   0.127   2.544  0.9126  0.2232  0.0903
   84SLPC  H12A 7917   4.615   0.158   2.625  0.6009  1.9222 -0.7674
   84SLPC  H12B 7918   4.774   0.166   2.576  0.7772 -0.9532  2.0832
   84SLPC   C11 7919   4.680  -0.020   2.544 -0.3150  0.3541 -0.1194
   84SLPC  H11A 7920   4.718  -0.047   2.645  0.8033  3.9454  0.5757
   84SLPC  H11B 7921   4.748  -0.051   2.462  0.0579  0.4281  0.1592
   84SLPC     P 7922   4.425  -0.060   2.625 -0.1777  0.2263  0.5542
   84SLPC   O13 7923   4.394   0.079   2.661  0.3622 -0.6382  0.3578
   84SLPC   O14 7924   4.306  -0.139   2.584 -0.4177 -0.2433  0.0951
   84SLPC   O12 7925   4.547  -0.068   2.521 -0.3182  0.3095 -0.2258
   84SLPC   O11 7926   4.490  -0.126   2.750 -0.1409 -0.0378 -0.6851
   84SLPC    C1 7927   4.573  -0.240   2.757 -0.5779 -0.3984 -0.2635
   84SLPC    HA 7928   4.625  -0.256   2.660 -2.6430  0.0690 -1.5041
   84SLPC    HB 7929   4.645  -0.233   2.842 -0.7000 -2.7613  0.1041
   84SLPC    C2 7930   4.502  -0.371   2.789  0.2334 -0.0073 -0.5137
   84SLPC    HS 7931   4.420  -0.384   2.715  0.7433 -0.3368 -1.0364
   84SLPC   O21 7932   4.459  -0.360   2.924 -0.1322  0.6138 -0.2914
   84SLPC   C21 7933   4.355  -0.434   2.959  0.4206  0.0860 -0.1352
   84SLPC   O22 7934   4.297  -0.502   2.875  0.0173  0.0043 -0.0297
   84SLPC   C22 7935   4.329  -0.433   3.113 -0.7914  0.4468 -0.0103
   84SLPC   H2R 7936   4.417  -0.463   3.174 -1.3065  1.1430  1.1137
   84SLPC   H2S 7937   4.313  -0.328   3.144  0.2821  0.6184 -0.0196
   84SLPC    C3 7938   4.593  -0.494   2.772  0.2001 -0.4274  1.0138
   84SLPC    HX 7939   4.606  -0.495   2.661 -1.4907  0.9926  0.7637
   84SLPC    HY 7940   4.551  -0.593   2.798  1.4666 -1.1359  0.4627
   84SLPC   O31 7941   4.720  -0.476   2.835  0.4052 -0.0112  0.0978
   84SLPC   C31 7942   4.728  -0.519   2.961 -0.3434  0.4584 -0.4711
   84SLPC   O32 7943   4.635  -0.583   3.016  0.0069 -0.7255 -0.1983
   84SLPC   C32 7944   4.855  -0.465   3.024  0.6863 -0.5344 -0.4486
   84SLPC   H2X 7945   4.889  -0.380   2.961  0.2763 -0.4105 -0.5005
   84SLPC   H2Y 7946   4.934  -0.544   3.034  1.2103  0.1989  1.8886
   84SLPC   C23 7947   4.213  -0.519   3.160  0.4576 -0.2699  0.0780
   84SLPC   H3R 7948   4.230  -0.628   3.146 -1.2245 -0.7436  1.4575
   84SLPC   H3S 7949   4.126  -0.478   3.104  0.2342 -1.9583 -0.8794
   84SLPC   C24 7950   4.174  -0.500   3.306 -0.6446 -0.5945 -0.1021
   84SLPC   H4R 7951   4.127  -0.400   3.315 -0.3440 -0.4458 -0.1875
   84SLPC   H4S 7952   4.272  -0.511   3.358 -0.5937  0.7032  0.1014
   84SLPC   C25 7953   4.065  -0.605   3.342  0.7330 -0.0442 -0.3694
   84SLPC   H5R 7954   4.109  -0.707   3.339 -0.7049 -0.6829 -0.7997
   84SLPC   H5S 7955   3.987  -0.601   3.263 -0.9566  0.9457  1.2524
   84SLPC   C26 7956   3.984  -0.571   3.470 -0.0420 -0.5019 -0.2357
   84SLPC   H6R 7957   3.893  -0.634   3.470 -1.0625  0.9016 -1.8457
   84SLPC   H6S 7958   3.953  -0.464   3.473  0.0066 -0.3434 -2.9770
   84SLPC   C27 7959   4.059  -0.591   3.600 -0.5962 -0.2355  0.5814
   84SLPC   H7R 7960   4.165  -0.559   3.589 -0.9715  0.6020 -0.8070
   84SLPC   H7S 7961   4.069  -0.701   3.615 -1.6189 -0.2960  0.8683
   84SLPC   C28 7962   3.993  -0.527   3.720  0.3499 -0.0092 -0.5770
   84SLPC   H8R 7963   3.884  -0.550   3.724  0.1665  0.9568  1.3426
   84SLPC   H8S 7964   4.005  -0.416   3.713  1.2700  0.0597  1.2467
   84SLPC   C29 7965   4.065  -0.559   3.840 -0.1890  0.3201  0.0625
   84SLPC   H9R 7966   4.163  -0.510   3.852  0.8972 -0.7282 -3.4467
   84SLPC  C210 7967   4.029  -0.648   3.935  0.6258  0.3335  0.6442
   84SLPC  H10R 7968   4.088  -0.663   4.027  2.5611  0.2312 -0.5645
   84SLPC  C211 7969   3.896  -0.730   3.935 -0.2878 -0.7601 -0.4975
   84SLPC  H11R 7970   3.825  -0.711   3.853 -1.6649  0.4136  0.8944
   84SLPC  H11S 7971   3.834  -0.710   4.025  0.5354  0.1143 -0.1071
   84SLPC  C212 7972   3.940  -0.873   3.926 -0.6598 -0.3705 -0.1390
   84SLPC  H12R 7973   4.028  -0.899   3.864 -0.1872 -2.0929  1.1930
   84SLPC  C213 7974   3.889  -0.966   4.004  0.2157  0.6760 -0.5466
   84SLPC  H13R 7975   3.913  -1.071   3.982  0.8671  0.2964  1.7580
   84SLPC  C214 7976   3.785  -0.946   4.110  0.1201  0.3507  0.6627
   84SLPC  H14R 7977   3.703  -0.887   4.064 -2.6310 -2.0263  2.2181
   84SLPC  H14S 7978   3.825  -0.890   4.197  1.7357 -1.2707  1.0259
   84SLPC  C215 7979   3.707  -1.068   4.146 -0.1551  0.5213 -0.5897
   84SLPC  H15R 7980   3.768  -1.144   4.199  1.5460  2.4492  0.3537
   84SLPC  H15S 7981   3.650  -1.119   4.066  1.9248 -1.7145 -0.7839
   84SLPC  C216 7982   3.605  -1.027   4.246 -0.2936 -0.2790  0.6249
   84SLPC  H16R 7983   3.542  -0.946   4.203  1.7198  0.9053 -0.2504
   84SLPC  H16S 7984   3.642  -0.987   4.343 -1.5060  0.0282  0.9890
   84SLPC  C217 7985   3.506  -1.144   4.271  0.1083 -0.1355 -0.2909
   84SLPC  H17R 7986   3.560  -1.219   4.332  1.3086  0.0924 -1.0431
   84SLPC  H17S 7987   3.478  -1.192   4.175  0.4005 -1.0210  0.0609
   84SLPC  C218 7988   3.379  -1.106   4.350 -0.2018 -0.2707 -0.0245
   84SLPC  H18R 7989   3.338  -1.010   4.313  0.0908  0.2253  0.9124
   84SLPC  H18S 7990   3.394  -1.085   4.458 -3.5177  1.6829  0.2021
   84SLPC  H18T 7991   3.305  -1.190   4.345 -1.9679  1.0577  1.9933
   84SLPC   C33 7992   4.817  -0.410   3.169 -0.1517  0.2050 -0.1845
   84SLPC   H3X 7993   4.807  -0.498   3.236  0.6182 -0.1654 -0.5429
   84SLPC   H3Y 7994   4.729  -0.347   3.145 -0.6313 -0.3892 -0.0354
   84SLPC   C34 7995   4.922  -0.313   3.229 -0.4445  0.6884  0.3899
   84SLPC   H4X 7996   4.941  -0.234   3.153  1.6344 -1.4126 -1.3970
   84SLPC   H4Y 7997   5.012  -0.376   3.247 -0.8775 -0.0651 -0.0482
   84SLPC   C35 7998   4.889  -0.258   3.370  0.8830  1.1656 -0.8484
   84SLPC   H5X 7999   4.881  -0.336   3.449 -0.0427  1.3630 -0.7334
   84SLPC   H5Y 8000   4.788  -0.211   3.375  0.3461  0.2835 -2.6658
   84SLPC   C36 8001   4.992  -0.146   3.403 -0.0479  0.0820 -0.6502
   84SLPC   H6X 8002   4.958  -0.071   3.329  0.4480  1.6530  0.6490
   84SLPC   H6Y 8003   5.096  -0.179   3.379 -0.3658  0.4846 -2.7601
   84SLPC   C37 8004   4.987  -0.070   3.535 -0.3898  0.4878  0.1921
   84SLPC   H7X 8005   4.891  -0.054   3.587  0.5578  2.3345  1.4982
   84SLPC   H7Y 8006   5.024   0.034   3.520  1.3369 -0.0845  0.2588
   84SLPC   C38 8007   5.073  -0.144   3.636 -0.0891 -0.3734  0.9202
   84SLPC   H8X 8008   5.180  -0.142   3.606 -0.4680  0.0588 -0.4601
   84SLPC   H8Y 8009   5.042  -0.251   3.642 -0.5620 -0.2913 -0.0095
   84SLPC   C39 8010   5.069  -0.091   3.781  0.5792  0.0744 -0.3973
   84SLPC   H9X 8011   4.981  -0.128   3.838  0.1440  0.5712 -0.7404
   84SLPC   H9Y 8012   5.070   0.019   3.770  1.9758  0.4024  2.1836
   84SLPC  C310 8013   5.202  -0.122   3.860  0.3452  0.1106 -0.4236
   84SLPC  H10X 8014   5.297  -0.092   3.810  1.3332 -0.4078  1.0511
   84SLPC  H10Y 8015   5.206  -0.232   3.875 -0.3520 -0.1522 -2.0570
   84SLPC  C311 8016   5.204  -0.060   3.997  0.3179 -0.2936  0.1633
   84SLPC  H11X 8017   5.104  -0.061   4.045  0.3108  1.5909  0.2290
   84SLPC  H11Y 8018   5.220   0.049   3.988  0.3891 -0.3862 -1.1552
   84SLPC  C312 8019   5.314  -0.127   4.085  0.4956 -0.0646  0.7286
   84SLPC  H12X 8020   5.416  -0.103   4.048 -0.4579  0.3290 -1.8905
   84SLPC  H12Y 8021   5.293  -0.236   4.086 -0.7695  0.1515  1.9296
   84SLPC  C313 8022   5.308  -0.084   4.230 -0.4463 -1.2248  0.3767
   84SLPC  H13X 8023   5.202  -0.097   4.262 -0.9060  0.8545 -0.1663
   84SLPC  H13Y 8024   5.342   0.021   4.246  0.6111 -1.8228  2.5529
   84SLPC  C314 8025   5.384  -0.170   4.328  0.3925  0.6558 -0.0653
   84SLPC  H14X 8026   5.398  -0.274   4.291  0.6166  0.3148  0.9464
   84SLPC  H14Y 8027   5.339  -0.168   4.430 -1.2066  3.2625 -0.7262
   84SLPC  C315 8028   5.534  -0.119   4.336  0.1913 -0.7646 -0.2504
   84SLPC  H15X 8029   5.527  -0.009   4.333  2.5201 -0.3371  3.5519
   84SLPC  H15Y 8030   5.584  -0.162   4.246  1.0418 -0.7221  0.1934
   84SLPC  C316 8031   5.594  -0.166   4.467  0.2340  0.3006  0.8283
   84SLPC  H16X 8032   5.537  -0.259   4.490 -0.2127 -0.0331 -1.4329
   84SLPC  H16Y 8033   5.562  -0.089   4.541  3.1825  0.6954  1.8267
   84SLPC  C317 8034   5.745  -0.191   4.476  0.5348 -0.3153 -0.4528
   84SLPC  H17X 8035   5.787  -0.200   4.579 -0.0089  1.5899 -0.0354
   84SLPC  H17Y 8036   5.805  -0.106   4.438  0.0483 -0.2463 -1.0831
   84SLPC  C318 8037   5.799  -0.299   4.389  0.0364  0.5923  0.4313
   84SLPC  H18X 8038   5.763  -0.391   4.440  0.3945  0.6367  0.7759
   84SLPC  H18Y 8039   5.910  -0.292   4.386  0.0969 -0.5166 -0.8652
   84SLPC  H18Z 8040   5.760  -0.297   4.286  1.7204  1.0026 -0.2351
   85SLPC     N 8041   2.559   4.611   2.332 -0.2546  0.3144  1.0400
   85SLPC   C13 8042   2.485   4.735   2.360 -0.3057  0.3600  0.1488
   85SLPC  H13A 8043   2.379   4.716   2.369 -0.0035 -1.2605  0.4458
   85SLPC  H13B 8044   2.520   4.757   2.460  1.4871  0.1583 -0.4035
   85SLPC  H13C 8045   2.514   4.817   2.296  1.3271  0.4766  0.9966
   85SLPC   C14 8046   2.704   4.641   2.375 -0.2460  0.0063  0.3514
   85SLPC  H14A 8047   2.751   4.544   2.371  0.4604  0.3829 -1.2020
   85SLPC  H14B 8048   2.746   4.709   2.302  1.9506 -1.3745  0.2259
   85SLPC  H14C 8049   2.714   4.697   2.467 -3.4989  0.7591  0.3633
   85SLPC   C15 8050   2.567   4.586   2.185 -0.2905 -0.1412 -1.0516
   85SLPC  H15A 8051   2.608   4.489   2.160  1.5174  0.3343 -0.0792
   85SLPC  H15B 8052   2.468   4.592   2.144 -0.5417  0.6799 -0.3494
   85SLPC  H15C 8053   2.623   4.665   2.136 -0.9519  1.6834  0.9776
   85SLPC   C12 8054   2.502   4.489   2.403 -0.7996 -0.2432  0.0179
   85SLPC  H12A 8055   2.396   4.496   2.380 -0.3837 -0.2673 -2.0971
   85SLPC  H12B 8056   2.507   4.505   2.510  2.2237 -0.2973 -0.0449
   85SLPC   C11 8057   2.559   4.344   2.378  0.1180  0.1421  0.0701
   85SLPC  H11A 8058   2.550   4.310   2.272  2.0769 -0.0222 -0.0805
   85SLPC  H11B 8059   2.479   4.282   2.424 -1.0206  1.8432  0.4782
   85SLPC     P 8060   2.730   4.301   2.575 -0.1480 -0.0004  0.0046
   85SLPC   O13 8061   2.671   4.170   2.616  0.1998  0.2915  0.2522
   85SLPC   O14 8062   2.880   4.314   2.584 -0.4271  0.1407 -0.7863
   85SLPC   O12 8063   2.693   4.329   2.425  0.1722 -0.1991 -0.0722
   85SLPC   O11 8064   2.662   4.412   2.658  0.3576  0.1554 -0.0679
   85SLPC    C1 8065   2.747   4.501   2.730  0.1056 -0.3029  0.3120
   85SLPC    HA 8066   2.813   4.553   2.658 -2.3528  0.1123 -1.7423
   85SLPC    HB 8067   2.678   4.580   2.765 -0.2001 -0.5868  0.3520
   85SLPC    C2 8068   2.812   4.445   2.856 -0.0040 -0.0330  0.1920
   85SLPC    HS 8069   2.911   4.406   2.826 -1.1052 -1.6738 -1.5929
   85SLPC   O21 8070   2.727   4.344   2.916  0.1521 -0.4608  0.3893
   85SLPC   C21 8071   2.799   4.240   2.966  0.2660  0.4028  0.3562
   85SLPC   O22 8072   2.917   4.216   2.958  0.4768 -0.6705 -0.3578
   85SLPC   C22 8073   2.703   4.155   3.047 -0.2026  0.1293 -0.5110
   85SLPC   H2R 8074   2.614   4.216   3.074 -1.9096 -0.9958 -3.1575
   85SLPC   H2S 8075   2.646   4.087   2.979 -0.1046 -0.6465  0.1685
   85SLPC    C3 8076   2.846   4.549   2.963 -0.0503  0.2083  0.3536
   85SLPC    HX 8077   2.743   4.574   2.997 -1.9972 -0.6971 -4.0806
   85SLPC    HY 8078   2.879   4.642   2.912 -0.9282  0.5896  0.4654
   85SLPC   O31 8079   2.936   4.502   3.063 -0.1332 -0.3434 -0.5825
   85SLPC   C31 8080   2.879   4.485   3.185  0.4087 -0.9707 -0.7188
   85SLPC   O32 8081   2.761   4.509   3.213  0.0306  0.2803  0.1230
   85SLPC   C32 8082   2.990   4.431   3.273  0.1135  0.0619 -0.2293
   85SLPC   H2X 8083   3.072   4.505   3.280  1.1169 -0.8853 -1.5559
   85SLPC   H2Y 8084   3.030   4.335   3.234  1.7655  0.7325 -0.2639
   85SLPC   C23 8085   2.784   4.082   3.161 -0.7110 -0.1144 -0.4534
   85SLPC   H3R 8086   2.851   4.157   3.207 -2.6991  1.6365 -0.2414
   85SLPC   H3S 8087   2.835   3.992   3.123  2.3209  1.3166 -0.0255
   85SLPC   C24 8088   2.690   4.020   3.261 -0.3192 -0.5616 -0.1657
   85SLPC   H4R 8089   2.618   4.099   3.289  2.1715  1.8258 -0.0016
   85SLPC   H4S 8090   2.743   3.995   3.355 -0.9568  1.1271  0.6784
   85SLPC   C25 8091   2.623   3.894   3.214  0.1896  0.2663  0.1900
   85SLPC   H5R 8092   2.552   3.928   3.135  0.9407  2.1689  0.2637
   85SLPC   H5S 8093   2.704   3.832   3.169  0.1062 -0.0396  0.4580
   85SLPC   C26 8094   2.562   3.811   3.322 -0.1350 -0.9838  0.2108
   85SLPC   H6R 8095   2.462   3.847   3.354  0.2932  2.0182 -1.4131
   85SLPC   H6S 8096   2.628   3.805   3.411 -0.4399  2.4399  0.8174
   85SLPC   C27 8097   2.525   3.666   3.274  0.3924 -0.2841 -0.2724
   85SLPC   H7R 8098   2.623   3.621   3.246  0.6045  0.4745 -0.8000
   85SLPC   H7S 8099   2.457   3.673   3.186 -1.2621 -0.3594  0.9442
   85SLPC   C28 8100   2.441   3.583   3.375  0.0187  0.0658  0.2903
   85SLPC   H8R 8101   2.353   3.650   3.384 -1.0338 -1.0902 -1.0061
   85SLPC   H8S 8102   2.493   3.566   3.472 -0.3640 -3.0053  0.0505
   85SLPC   C29 8103   2.381   3.454   3.320 -0.1402  0.6901  0.2808
   85SLPC   H9R 8104   2.366   3.455   3.211 -4.5215 -1.8439  0.5910
   85SLPC  C210 8105   2.367   3.335   3.380  0.6846 -0.2980  0.0928
   85SLPC  H10R 8106   2.341   3.249   3.317  2.0092 -0.3650 -0.4099
   85SLPC  C211 8107   2.373   3.294   3.529 -0.5744  0.8419  0.0334
   85SLPC  H11R 8108   2.478   3.258   3.541 -0.9366 -2.0689 -3.7016
   85SLPC  H11S 8109   2.312   3.201   3.528 -0.7931  0.9084  2.2405
   85SLPC  C212 8110   2.329   3.384   3.639  0.8238  0.5332 -0.4045
   85SLPC  H12R 8111   2.315   3.491   3.617  1.6051  1.3433  2.6129
   85SLPC  C213 8112   2.287   3.342   3.762 -0.4683  0.3665  0.4236
   85SLPC  H13R 8113   2.257   3.419   3.835 -0.6129  0.4597  0.2660
   85SLPC  C214 8114   2.290   3.201   3.810 -0.2649  0.6218  0.2628
   85SLPC  H14R 8115   2.325   3.132   3.731  0.9232  0.5327  0.8433
   85SLPC  H14S 8116   2.189   3.166   3.840 -0.0814 -0.9968 -0.8696
   85SLPC  C215 8117   2.385   3.179   3.930 -0.4096 -0.6270 -0.6639
   85SLPC  H15R 8118   2.487   3.204   3.893  0.6108 -2.1490  0.9632
   85SLPC  H15S 8119   2.392   3.072   3.959  0.3229 -0.5894 -0.6887
   85SLPC  C216 8120   2.343   3.255   4.059  0.2050 -0.3672 -0.2893
   85SLPC  H16R 8121   2.299   3.354   4.036  2.7633  1.3111  1.4318
   85SLPC  H16S 8122   2.431   3.282   4.122 -0.8284 -3.6658  2.9059
   85SLPC  C217 8123   2.246   3.188   4.162  0.0301  0.1830 -0.0132
   85SLPC  H17R 8124   2.305   3.104   4.203 -1.1954  0.7474  3.2259
   85SLPC  H17S 8125   2.150   3.161   4.114 -0.8378  0.6306  1.4071
   85SLPC  C218 8126   2.210   3.271   4.287  1.2303  0.0706 -0.0254
   85SLPC  H18R 8127   2.145   3.357   4.260 -0.3802 -1.4022 -1.0863
   85SLPC  H18S 8128   2.307   3.303   4.330  0.5297  1.5917  0.4927
   85SLPC  H18T 8129   2.180   3.213   4.378  3.8704  1.0879  1.6190
   85SLPC   C33 8130   2.949   4.375   3.414 -0.5098 -0.1372  0.5378
   85SLPC   H3X 8131   3.025   4.302   3.447  0.8355  0.3677 -1.2770
   85SLPC   H3Y 8132   2.857   4.313   3.404  0.1620 -1.4158  1.9752
   85SLPC   C34 8133   2.910   4.482   3.511 -0.0746 -0.3486 -0.2902
   85SLPC   H4X 8134   2.819   4.528   3.468  1.4850  1.5651 -1.7133
   85SLPC   H4Y 8135   2.989   4.559   3.519 -1.3317  1.1708 -1.6356
   85SLPC   C35 8136   2.880   4.429   3.653 -0.0047  0.0816  0.5388
   85SLPC   H5X 8137   2.838   4.326   3.656 -1.3675  0.6007 -0.1865
   85SLPC   H5Y 8138   2.795   4.485   3.697 -0.4863 -2.9914  3.9374
   85SLPC   C36 8139   3.004   4.416   3.744 -0.4007  0.7910 -0.2596
   85SLPC   H6X 8140   3.056   4.513   3.728  0.8581  0.2228  0.2114
   85SLPC   H6Y 8141   3.064   4.328   3.713  1.3840  1.7476  0.2959
   85SLPC   C37 8142   2.975   4.396   3.897  0.1651 -0.5564  0.0402
   85SLPC   H7X 8143   2.875   4.352   3.915  0.4051 -0.1262  2.9213
   85SLPC   H7Y 8144   2.974   4.495   3.948  1.8301 -1.3002  1.6392
   85SLPC   C38 8145   3.060   4.295   3.976  0.4943 -0.0553 -0.2502
   85SLPC   H8X 8146   3.166   4.328   3.975  0.4206  0.7887 -4.9709
   85SLPC   H8Y 8147   3.059   4.197   3.925  0.6953  0.3643 -1.0710
   85SLPC   C39 8148   3.012   4.278   4.126 -0.0385  0.1395  0.3171
   85SLPC   H9X 8149   3.069   4.192   4.167 -0.6214 -1.2448 -1.6100
   85SLPC   H9Y 8150   2.903   4.257   4.127 -0.3768  1.6942 -0.4826
   85SLPC  C310 8151   3.034   4.413   4.188  0.4267  0.5562 -1.3904
   85SLPC  H10X 8152   2.954   4.485   4.161 -0.6139  0.1893  0.5225
   85SLPC  H10Y 8153   3.136   4.446   4.158  0.9482  0.3739  0.0888
   85SLPC  C311 8154   3.037   4.399   4.348  0.5611  0.3171  0.0446
   85SLPC  H11X 8155   3.107   4.319   4.377 -0.4514 -0.8654 -0.6694
   85SLPC  H11Y 8156   2.942   4.359   4.391 -0.3014  2.3613  0.1876
   85SLPC  C312 8157   3.087   4.525   4.417  0.3668 -0.3529  0.0600
   85SLPC  H12X 8158   3.034   4.608   4.366  1.4096  0.3448  0.0753
   85SLPC  H12Y 8159   3.193   4.533   4.383  0.5127 -1.6224  0.1511
   85SLPC  C313 8160   3.071   4.529   4.563 -0.4487  0.7262  0.3237
   85SLPC  H13X 8161   3.122   4.439   4.604 -1.0288  0.4642  0.4769
   85SLPC  H13Y 8162   2.969   4.525   4.607 -0.9211 -2.8095 -0.8280
   85SLPC  C314 8163   3.138   4.658   4.620  0.1722 -0.2058  0.5163
   85SLPC  H14X 8164   3.107   4.749   4.564 -0.2746 -0.1068  0.9257
   85SLPC  H14Y 8165   3.247   4.651   4.596 -0.0511  0.5917 -0.8630
   85SLPC  C315 8166   3.123   4.692   4.769 -0.1423 -0.1230  0.1721
   85SLPC  H15X 8167   3.015   4.698   4.793 -0.2813 -1.9088  0.1005
   85SLPC  H15Y 8168   3.173   4.789   4.788  0.6848 -0.0880 -1.8765
   85SLPC  C316 8169   3.182   4.592   4.864  0.8353 -0.0564  0.1983
   85SLPC  H16X 8170   3.152   4.496   4.818  3.5227 -0.1309 -1.5980
   85SLPC  H16Y 8171   3.135   4.608   4.964 -2.3632  2.7286 -1.5468
   85SLPC  C317 8172   3.333   4.604   4.883 -0.0849 -0.4476  0.0274
   85SLPC  H17X 8173   3.375   4.695   4.931 -1.4930  0.0572  0.3287
   85SLPC  H17Y 8174   3.383   4.609   4.784  1.7366  0.3264  0.9307
   85SLPC  C318 8175   3.393   4.478   4.955 -0.1911  0.0920  0.2950
   85SLPC  H18X 8176   3.363   4.378   4.918  1.0482 -0.2570  0.1786
   85SLPC  H18Y 8177   3.383   4.473   5.065  0.3060 -0.2331  0.3291
   85SLPC  H18Z 8178   3.502   4.490   4.936  0.1197 -0.5227  1.5467
   86SLPC     N 8179   3.664   2.046   2.493 -0.8229  0.3212 -0.2747
   86SLPC   C13 8180   3.818   2.056   2.499 -0.1860 -0.1305  0.6388
   86SLPC  H13A 8181   3.857   2.017   2.406 -2.1598  1.1159 -0.7884
   86SLPC  H13B 8182   3.838   2.160   2.518 -4.2328  0.8993  0.2765
   86SLPC  H13C 8183   3.862   1.999   2.580  1.5412  0.7417  0.3467
   86SLPC   C14 8184   3.611   2.157   2.401  0.2052  0.1080 -0.3701
   86SLPC  H14A 8185   3.505   2.139   2.398  0.5083 -2.0767  0.3071
   86SLPC  H14B 8186   3.625   2.259   2.435  0.2535 -0.2601  0.7823
   86SLPC  H14C 8187   3.648   2.152   2.300 -0.5840  2.7505 -0.8692
   86SLPC   C15 8188   3.614   2.064   2.633 -0.6259 -0.1834  0.1885
   86SLPC  H15A 8189   3.508   2.083   2.623 -0.5159  0.5729  0.3771
   86SLPC  H15B 8190   3.622   1.970   2.686  0.5212 -1.3863 -1.9915
   86SLPC  H15C 8191   3.653   2.146   2.692 -2.0970  0.2192  0.6427
   86SLPC   C12 8192   3.623   1.903   2.444  0.9014 -0.8418 -0.1170
   86SLPC  H12A 8193   3.649   1.887   2.340 -0.4804  0.1934 -0.6576
   86SLPC  H12B 8194   3.515   1.902   2.442  0.8268  0.3874  1.1140
   86SLPC   C11 8195   3.667   1.775   2.513  0.5884 -0.0618  0.4767
   86SLPC  H11A 8196   3.777   1.770   2.527  0.4739 -0.3272  1.3118
   86SLPC  H11B 8197   3.642   1.692   2.444  1.7253 -1.3015  1.5028
   86SLPC     P 8198   3.552   1.638   2.714  0.0556  0.0621 -0.3696
   86SLPC   O13 8199   3.490   1.536   2.623  1.3399  0.0071 -0.2416
   86SLPC   O14 8200   3.669   1.597   2.789 -0.3473  0.1437  0.2703
   86SLPC   O12 8201   3.588   1.771   2.635  0.0665 -0.0440  0.6506
   86SLPC   O11 8202   3.438   1.688   2.808 -0.5090 -0.0716 -0.5977
   86SLPC    C1 8203   3.427   1.825   2.850 -0.2446  0.0873 -0.1838
   86SLPC    HA 8204   3.486   1.897   2.789 -1.0977  1.6584  0.7546
   86SLPC    HB 8205   3.320   1.854   2.844 -0.2618 -0.1485 -1.0374
   86SLPC    C2 8206   3.464   1.833   3.002 -0.2093 -0.0735 -0.1315
   86SLPC    HS 8207   3.430   1.930   3.045 -0.1484  0.4581 -1.2373
   86SLPC   O21 8208   3.600   1.821   2.999  0.3171 -0.5710 -0.0474
   86SLPC   C21 8209   3.667   1.933   2.965 -0.2361 -0.0252 -0.2038
   86SLPC   O22 8210   3.619   2.048   2.963  0.0417  0.9179 -0.0454
   86SLPC   C22 8211   3.823   1.900   2.951 -0.5243 -0.9451  0.4304
   86SLPC   H2R 8212   3.844   1.804   3.003  0.8428 -0.3398  1.0260
   86SLPC   H2S 8213   3.832   1.892   2.841 -1.9068  0.7923  0.1422
   86SLPC    C3 8214   3.404   1.721   3.091  1.3742  0.5920 -0.7116
   86SLPC    HX 8215   3.432   1.622   3.048 -0.5681 -0.3017 -0.0303
   86SLPC    HY 8216   3.295   1.724   3.070  1.3082  1.2199 -0.3077
   86SLPC   O31 8217   3.428   1.731   3.236  0.4266 -0.2275  0.0276
   86SLPC   C31 8218   3.543   1.666   3.277  0.3971  0.2764 -0.4276
   86SLPC   O32 8219   3.600   1.592   3.199 -0.2851 -0.2703  0.1368
   86SLPC   C32 8220   3.558   1.682   3.428 -0.1486  0.3240  0.2240
   86SLPC   H2X 8221   3.526   1.590   3.482  0.8016 -1.1627 -1.6330
   86SLPC   H2Y 8222   3.496   1.767   3.465  0.9512  1.0733  0.3662
   86SLPC   C23 8223   3.914   2.010   3.011 -0.4220  0.0801  0.6032
   86SLPC   H3R 8224   3.892   2.104   2.955 -1.1561 -1.2897 -1.5041
   86SLPC   H3S 8225   4.018   1.982   2.986  0.5453  1.6462  2.5963
   86SLPC   C24 8226   3.900   2.020   3.161  0.0274  0.3483 -0.3381
   86SLPC   H4R 8227   3.953   1.933   3.204 -0.2605 -0.1438 -0.9615
   86SLPC   H4S 8228   3.790   2.031   3.177  0.2792  1.5354  0.6999
   86SLPC   C25 8229   3.970   2.150   3.206  0.1612  0.5327 -0.3703
   86SLPC   H5R 8230   3.914   2.232   3.156 -1.6933  0.4864  1.4523
   86SLPC   H5S 8231   4.073   2.151   3.164 -0.5412  0.8417 -2.1675
   86SLPC   C26 8232   3.977   2.158   3.358 -0.1948  0.2801 -0.4404
   86SLPC   H6R 8233   4.026   2.255   3.378 -1.7385  1.4682 -2.1367
   86SLPC   H6S 8234   4.037   2.069   3.388 -0.0242  0.6746  0.4382
   86SLPC   C27 8235   3.844   2.144   3.430 -0.1806  0.0730 -0.4596
   86SLPC   H7R 8236   3.811   2.039   3.414 -0.5672  0.1146  0.0410
   86SLPC   H7S 8237   3.766   2.208   3.383 -2.9130 -0.4512  2.9179
   86SLPC   C28 8238   3.832   2.159   3.576  0.7874 -0.4623 -0.2191
   86SLPC   H8R 8239   3.886   2.083   3.635 -1.0296 -1.6845 -0.0665
   86SLPC   H8S 8240   3.725   2.136   3.595 -0.5112  3.4913 -1.6210
   86SLPC   C29 8241   3.872   2.298   3.622 -0.0773  0.3973  0.9864
   86SLPC   H9R 8242   3.893   2.362   3.534  1.9708 -1.2186  0.2268
   86SLPC  C210 8243   3.875   2.346   3.746 -0.0536 -0.0946 -0.2799
   86SLPC  H10R 8244   3.918   2.445   3.766  3.3192 -1.3156 -0.8479
   86SLPC  C211 8245   3.857   2.266   3.878 -0.1550  0.1622 -0.0919
   86SLPC  H11R 8246   3.949   2.279   3.939  0.8884  1.0461 -1.7668
   86SLPC  H11S 8247   3.838   2.160   3.848 -0.2389 -0.4577  2.0116
   86SLPC  C212 8248   3.740   2.310   3.952  0.3927  0.2078  0.2939
   86SLPC  H12R 8249   3.657   2.342   3.887  0.4530 -0.6451 -0.2269
   86SLPC  C213 8250   3.726   2.323   4.085 -0.6072  0.1369 -0.3709
   86SLPC  H13R 8251   3.623   2.344   4.118 -1.9632 -1.7699 -3.0740
   86SLPC  C214 8252   3.826   2.279   4.188  0.3967 -0.2230 -0.3003
   86SLPC  H14R 8253   3.914   2.346   4.195  0.1862  0.0533 -0.2549
   86SLPC  H14S 8254   3.853   2.172   4.176 -0.8501 -0.4704 -1.0991
   86SLPC  C215 8255   3.764   2.281   4.331 -0.4055 -0.5471 -0.5514
   86SLPC  H15R 8256   3.749   2.385   4.366  0.9148 -0.3418 -0.5437
   86SLPC  H15S 8257   3.844   2.255   4.404 -0.1596  1.0955 -0.2036
   86SLPC  C216 8258   3.643   2.192   4.352  0.2491 -0.2705  0.4212
   86SLPC  H16R 8259   3.659   2.087   4.319  2.2467 -0.4105  1.6317
   86SLPC  H16S 8260   3.556   2.223   4.290  2.8291  1.1916 -2.7921
   86SLPC  C217 8261   3.608   2.172   4.496  0.1149 -0.7887 -0.6699
   86SLPC  H17R 8262   3.692   2.125   4.553 -0.5819 -0.5627  0.5873
   86SLPC  H17S 8263   3.521   2.104   4.510 -0.0827 -0.1040  1.9920
   86SLPC  C218 8264   3.573   2.298   4.575  0.5176 -0.5897  0.2065
   86SLPC  H18R 8265   3.658   2.368   4.581  1.4585 -1.8139  3.2935
   86SLPC  H18S 8266   3.547   2.268   4.679 -0.2772 -0.6496 -0.0022
   86SLPC  H18T 8267   3.494   2.359   4.527  1.0768  0.1164  0.1747
   86SLPC   C33 8268   3.706   1.707   3.460 -0.4224  0.5913 -0.4439
   86SLPC   H3X 8269   3.747   1.763   3.373  0.6220  1.8319  0.7997
   86SLPC   H3Y 8270   3.768   1.615   3.464  1.2451  1.6833 -0.2893
   86SLPC   C34 8271   3.718   1.785   3.589  0.5970 -0.1382 -0.2107
   86SLPC   H4X 8272   3.636   1.860   3.595  0.1752 -0.4493 -1.6064
   86SLPC   H4Y 8273   3.808   1.846   3.569  0.3046  0.1862 -0.5599
   86SLPC   C35 8274   3.737   1.697   3.709  0.4182  0.5837 -0.0327
   86SLPC   H5X 8275   3.842   1.659   3.701 -0.3745 -1.4898 -1.2827
   86SLPC   H5Y 8276   3.674   1.606   3.708  2.5805 -1.0553  1.4066
   86SLPC   C36 8277   3.724   1.783   3.836 -0.3828 -0.3123  0.0178
   86SLPC   H6X 8278   3.618   1.808   3.856 -0.5438  0.3284 -1.4637
   86SLPC   H6Y 8279   3.772   1.881   3.814 -1.7523  0.6345  1.0941
   86SLPC   C37 8280   3.786   1.727   3.968  0.2486  0.6441  0.3061
   86SLPC   H7X 8281   3.889   1.687   3.961 -0.5404 -1.3177 -1.2940
   86SLPC   H7Y 8282   3.732   1.633   3.993  2.7770 -0.8249  0.5511
   86SLPC   C38 8283   3.772   1.840   4.073  0.0896  0.4080 -0.2733
   86SLPC   H8X 8284   3.670   1.848   4.115  1.1813 -0.7318  2.8612
   86SLPC   H8Y 8285   3.793   1.935   4.019 -1.9263  0.4825 -1.0028
   86SLPC   C39 8286   3.859   1.814   4.195 -0.3652 -0.4215  0.3171
   86SLPC   H9X 8287   3.868   1.907   4.256  0.6461 -1.1192  1.2574
   86SLPC   H9Y 8288   3.962   1.809   4.154 -0.7109  2.0863 -1.0756
   86SLPC  C310 8289   3.822   1.699   4.276  0.2838  0.9611  0.2343
   86SLPC  H10X 8290   3.853   1.613   4.213  3.2777  0.7586  1.7990
   86SLPC  H10Y 8291   3.714   1.705   4.302  0.6241  1.1727  1.6895
   86SLPC  C311 8292   3.897   1.689   4.414  0.0175  0.0283  0.7287
   86SLPC  H11X 8293   4.007   1.689   4.398 -0.0477  0.7421  0.2121
   86SLPC  H11Y 8294   3.859   1.589   4.443  1.3320 -1.0989 -1.1707
   86SLPC  C312 8295   3.860   1.802   4.511  0.0140 -0.7758  0.3931
   86SLPC  H12X 8296   3.756   1.836   4.492 -0.2903 -1.9730 -0.1990
   86SLPC  H12Y 8297   3.931   1.885   4.492  1.2195 -1.5705  1.2954
   86SLPC  C313 8298   3.903   1.752   4.649 -0.1164  0.2487  0.2997
   86SLPC  H13X 8299   3.841   1.662   4.670  1.0762 -0.2331  1.9676
   86SLPC  H13Y 8300   3.866   1.828   4.722 -1.1588  1.7054 -1.6632
   86SLPC  C314 8301   4.048   1.725   4.663 -0.1389 -0.0805  0.0814
   86SLPC  H14X 8302   4.105   1.813   4.625 -0.1165 -0.2127 -0.1873
   86SLPC  H14Y 8303   4.079   1.632   4.611  0.9033  1.0764 -1.4738
   86SLPC  C315 8304   4.095   1.696   4.808 -0.4269 -0.9656  0.1914
   86SLPC  H15X 8305   4.202   1.665   4.811 -0.2365 -0.4849 -0.9962
   86SLPC  H15Y 8306   4.040   1.608   4.848  1.3481 -2.0598  0.3426
   86SLPC  C316 8307   4.071   1.814   4.906  0.4027  0.4041 -0.6405
   86SLPC  H16X 8308   3.960   1.815   4.917  0.4147 -2.2790  0.5404
   86SLPC  H16Y 8309   4.110   1.912   4.870 -1.2966  1.7975  1.0366
   86SLPC  C317 8310   4.135   1.786   5.042  0.0365  0.1192 -0.0018
   86SLPC  H17X 8311   4.243   1.812   5.036  0.1400 -0.5800 -1.8983
   86SLPC  H17Y 8312   4.110   1.680   5.062 -1.7313  0.4169 -0.4796
   86SLPC  C318 8313   4.074   1.871   5.151  0.4011  0.1039 -1.0717
   86SLPC  H18X 8314   3.984   1.815   5.184 -0.3041  2.8735  2.2098
   86SLPC  H18Y 8315   4.039   1.970   5.114 -1.1777  0.4790  1.2524
   86SLPC  H18Z 8316   4.145   1.888   5.234 -0.6917  0.6750 -0.2291
   87SLPC     N 8317   0.697   5.984   2.561 -0.0201  0.1649  0.3351
   87SLPC   C13 8318   0.843   5.950   2.582  0.1875  0.0792 -0.3353
   87SLPC  H13A 8319   0.912   6.018   2.534  0.1517 -1.4211 -2.6333
   87SLPC  H13B 8320   0.853   5.959   2.690 -0.0374 -0.2225 -0.2888
   87SLPC  H13C 8321   0.863   5.847   2.561 -1.7643 -0.4574  0.1837
   87SLPC   C14 8322   0.670   5.956   2.418 -0.0846  0.5459 -0.0556
   87SLPC  H14A 8323   0.731   6.015   2.351  2.3194 -0.2710  1.2690
   87SLPC  H14B 8324   0.692   5.851   2.403  0.2171  0.1971  2.3935
   87SLPC  H14C 8325   0.566   5.976   2.398 -0.8106 -0.9464  1.9026
   87SLPC   C15 8326   0.676   6.122   2.589 -0.3479 -0.2517 -0.2899
   87SLPC  H15A 8327   0.760   6.181   2.557 -0.0551 -1.3835 -1.6831
   87SLPC  H15B 8328   0.593   6.175   2.546  1.0447  2.8036  0.4837
   87SLPC  H15C 8329   0.662   6.140   2.695  2.4717 -0.2773  0.1715
   87SLPC   C12 8330   0.605   5.890   2.638 -0.8158 -0.0606 -0.2091
   87SLPC  H12A 8331   0.613   5.787   2.606  0.3023 -0.4476  1.1621
   87SLPC  H12B 8332   0.509   5.929   2.609 -0.4232  1.5333  0.4807
   87SLPC   C11 8333   0.612   5.885   2.799  0.2100  0.4401  0.3534
   87SLPC  H11A 8334   0.514   5.846   2.835 -0.0443 -0.8546 -1.5715
   87SLPC  H11B 8335   0.631   5.985   2.842  0.3683  0.6164 -0.1169
   87SLPC     P 8336   0.823   5.809   2.931 -0.0590  0.3479 -0.2953
   87SLPC   O13 8337   0.891   5.678   2.948  0.0278 -0.2140  0.2396
   87SLPC   O14 8338   0.909   5.920   2.882  0.3078 -0.1331 -0.5602
   87SLPC   O12 8339   0.702   5.781   2.838 -0.1356  0.0660 -0.0021
   87SLPC   O11 8340   0.753   5.846   3.070 -0.2904 -0.0945  0.2645
   87SLPC    C1 8341   0.656   5.752   3.124 -0.2835 -0.0051  1.0034
   87SLPC    HA 8342   0.567   5.817   3.106  0.6583  0.9108 -0.5807
   87SLPC    HB 8343   0.647   5.660   3.063  2.8600  0.5829 -0.5529
   87SLPC    C2 8344   0.691   5.713   3.271 -0.1446 -0.0344 -0.3611
   87SLPC    HS 8345   0.617   5.636   3.302  1.5283 -1.8285 -0.6443
   87SLPC   O21 8346   0.678   5.835   3.356 -0.4780  0.4221  0.2925
   87SLPC   C21 8347   0.547   5.867   3.373 -0.7756 -1.0598 -0.2754
   87SLPC   O22 8348   0.451   5.804   3.329  0.6253  0.1794 -0.4821
   87SLPC   C22 8349   0.551   5.998   3.457 -0.0627  0.4227  0.3160
   87SLPC   H2R 8350   0.657   6.032   3.455  0.3517 -0.6676  1.7313
   87SLPC   H2S 8351   0.491   6.076   3.405 -0.0403  0.4152  0.2797
   87SLPC    C3 8352   0.839   5.662   3.276  0.0860  0.3392  0.3221
   87SLPC    HX 8353   0.896   5.740   3.220 -2.2496  1.7970 -0.1389
   87SLPC    HY 8354   0.848   5.572   3.212  1.4021 -0.0033  0.9453
   87SLPC   O31 8355   0.898   5.641   3.406 -0.0355 -0.3389  0.1969
   87SLPC   C31 8356   0.839   5.562   3.484 -0.5091  0.0916 -0.5512
   87SLPC   O32 8357   0.750   5.481   3.463  0.2295  0.1263  0.2821
   87SLPC   C32 8358   0.909   5.580   3.625 -0.0650 -0.5974  0.4152
   87SLPC   H2X 8359   0.954   5.681   3.637  1.0855 -0.6988 -2.2738
   87SLPC   H2Y 8360   1.005   5.524   3.619  1.4934  2.0321 -1.8781
   87SLPC   C23 8361   0.497   5.997   3.598  0.1877  0.4043 -0.6147
   87SLPC   H3R 8362   0.411   5.928   3.610 -0.6371  1.4061 -0.6036
   87SLPC   H3S 8363   0.456   6.099   3.615  1.1467  0.5830  0.7826
   87SLPC   C24 8364   0.601   5.990   3.713  0.9825  0.5025  0.2937
   87SLPC   H4R 8365   0.665   6.080   3.700  0.6448  0.6127 -0.7171
   87SLPC   H4S 8366   0.665   5.900   3.700  1.1499  0.7705 -0.8507
   87SLPC   C25 8367   0.534   5.991   3.851  0.5112  0.1762  0.3354
   87SLPC   H5R 8368   0.444   5.927   3.860 -1.8597  3.4106  1.7817
   87SLPC   H5S 8369   0.492   6.092   3.874 -2.7897 -1.1112  0.5275
   87SLPC   C26 8370   0.634   5.943   3.955 -0.6184 -0.1049  0.2155
   87SLPC   H6R 8371   0.724   6.009   3.944  0.5325 -1.2032  2.3657
   87SLPC   H6S 8372   0.659   5.835   3.951 -2.4074 -0.6111  1.5310
   87SLPC   C27 8373   0.567   5.957   4.099  0.1731  0.8559 -0.6807
   87SLPC   H7R 8374   0.472   5.902   4.080  0.6260  0.5249 -2.0839
   87SLPC   H7S 8375   0.546   6.063   4.125  0.6262  1.2823 -1.9550
   87SLPC   C28 8376   0.639   5.887   4.226 -0.2640 -0.3225  0.9321
   87SLPC   H8R 8377   0.734   5.944   4.240 -0.6674  1.2245 -1.8550
   87SLPC   H8S 8378   0.681   5.793   4.185  1.6389  0.9529 -0.2449
   87SLPC   C29 8379   0.547   5.867   4.345  0.3213  0.0750 -0.8724
   87SLPC   H9R 8380   0.445   5.835   4.320  0.1265 -0.3827  0.3919
   87SLPC  C210 8381   0.585   5.871   4.474 -0.3969 -1.3653 -0.4364
   87SLPC  H10R 8382   0.520   5.865   4.562 -0.0636  2.0824  0.1977
   87SLPC  C211 8383   0.728   5.903   4.514  0.7952  0.4812  0.8063
   87SLPC  H11R 8384   0.727   6.008   4.551 -2.5294  0.4972  0.9155
   87SLPC  H11S 8385   0.806   5.890   4.436  1.0088  2.4006  0.6563
   87SLPC  C212 8386   0.767   5.811   4.623 -0.5263 -0.4471 -0.1283
   87SLPC  H12R 8387   0.800   5.709   4.598 -0.3454 -0.3383 -0.3427
   87SLPC  C213 8388   0.766   5.846   4.755  0.5198  0.4635  0.4939
   87SLPC  H13R 8389   0.823   5.789   4.829 -1.3704 -1.6485  0.4291
   87SLPC  C214 8390   0.723   5.976   4.814 -0.5749 -0.3577  0.2470
   87SLPC  H14R 8391   0.648   5.962   4.894 -2.3368  4.0450 -0.3209
   87SLPC  H14S 8392   0.662   6.034   4.741  1.2191  0.0523 -0.9818
   87SLPC  C215 8393   0.835   6.067   4.877 -0.2580  0.4873  0.3447
   87SLPC  H15R 8394   0.771   6.150   4.914  0.1460  0.9221  0.0748
   87SLPC  H15S 8395   0.892   6.099   4.787 -2.6260 -0.7532 -1.7208
   87SLPC  C216 8396   0.930   6.010   4.983 -0.3659 -0.6782  0.1532
   87SLPC  H16R 8397   0.974   5.914   4.949  2.8626  1.0351 -0.9069
   87SLPC  H16S 8398   0.866   5.992   5.073  0.9866  1.3224  1.5953
   87SLPC  C217 8399   1.032   6.114   5.025  0.0880 -0.5714  0.4264
   87SLPC  H17R 8400   0.994   6.218   5.039  0.5677 -0.3748  0.3118
   87SLPC  H17S 8401   1.097   6.117   4.935 -1.8593  0.2303 -1.0347
   87SLPC  C218 8402   1.121   6.080   5.146 -0.1469 -0.3376 -0.6335
   87SLPC  H18R 8403   1.085   6.120   5.243 -1.3342  0.7467 -1.4848
   87SLPC  H18S 8404   1.222   6.126   5.138 -0.2802  0.0446 -0.1460
   87SLPC  H18T 8405   1.147   5.972   5.148 -0.9707 -0.5318 -0.3045
   87SLPC   C33 8406   0.825   5.538   3.750  0.2971 -0.8173  0.3840
   87SLPC   H3X 8407   0.887   5.543   3.842 -0.3062  1.4497  0.7190
   87SLPC   H3Y 8408   0.785   5.435   3.734 -0.2414 -0.3858 -1.2192
   87SLPC   C34 8409   0.701   5.628   3.752  0.7827  0.0745  1.1663
   87SLPC   H4X 8410   0.651   5.632   3.653  2.6453  0.5273  0.2008
   87SLPC   H4Y 8411   0.736   5.731   3.772  3.4111 -0.0392 -2.0082
   87SLPC   C35 8412   0.589   5.577   3.841  0.7854  0.0557 -0.0265
   87SLPC   H5X 8413   0.550   5.482   3.799  1.6894  0.8570 -2.9093
   87SLPC   H5Y 8414   0.514   5.659   3.839  1.9418  1.1530 -2.3766
   87SLPC   C36 8415   0.633   5.551   3.985  0.1314 -0.3831  0.3000
   87SLPC   H6X 8416   0.686   5.644   4.015 -1.1372  0.4344  0.0820
   87SLPC   H6Y 8417   0.706   5.467   3.984  2.7465  1.7565 -0.7040
   87SLPC   C37 8418   0.528   5.513   4.085 -0.2832 -0.1707  0.1663
   87SLPC   H7X 8419   0.474   5.430   4.035  3.4740 -1.4666 -2.1269
   87SLPC   H7Y 8420   0.465   5.601   4.113  0.7182  0.2017  1.3719
   87SLPC   C38 8421   0.592   5.469   4.221  1.3219 -0.0356 -0.4322
   87SLPC   H8X 8422   0.664   5.544   4.260  2.0953 -1.3730  0.7856
   87SLPC   H8Y 8423   0.650   5.376   4.203  2.6305  0.7421 -0.3230
   87SLPC   C39 8424   0.479   5.439   4.323  0.0990 -0.7564 -0.5100
   87SLPC   H9X 8425   0.405   5.375   4.270 -0.6564  1.5064 -2.3055
   87SLPC   H9Y 8426   0.435   5.536   4.355  0.0961 -0.6833 -0.7382
   87SLPC  C310 8427   0.523   5.372   4.458  0.2840  0.6341  0.1810
   87SLPC  H10X 8428   0.585   5.281   4.442 -0.6305  0.1104 -0.4648
   87SLPC  H10Y 8429   0.426   5.329   4.490 -1.3455  2.6552 -1.6815
   87SLPC  C311 8430   0.591   5.466   4.554  0.4098 -0.0868  0.3430
   87SLPC  H11X 8431   0.531   5.549   4.595  1.5589  1.4689 -0.9841
   87SLPC  H11Y 8432   0.664   5.519   4.490  0.5421 -0.2256  0.3768
   87SLPC  C312 8433   0.650   5.384   4.669 -0.3842 -0.8324 -0.1201
   87SLPC  H12X 8434   0.718   5.299   4.646  2.7023 -0.3203  5.3524
   87SLPC  H12Y 8435   0.570   5.335   4.728  0.6128 -1.1950  0.9654
   87SLPC  C313 8436   0.747   5.468   4.762  0.0004 -0.0792  1.0024
   87SLPC  H13X 8437   0.694   5.561   4.794 -0.4032  0.0556 -0.0065
   87SLPC  H13Y 8438   0.832   5.494   4.695  0.0143 -0.8139  0.7287
   87SLPC  C314 8439   0.812   5.392   4.878 -1.0452  0.0148  0.6666
   87SLPC  H14X 8440   0.880   5.311   4.846 -0.1609  0.8388  0.4309
   87SLPC  H14Y 8441   0.727   5.350   4.937 -1.2247  0.2402  0.5746
   87SLPC  C315 8442   0.896   5.478   4.980  0.0814 -0.5635 -0.1717
   87SLPC  H15X 8443   0.855   5.581   4.989 -1.6662 -1.0892 -1.5431
   87SLPC  H15Y 8444   1.001   5.474   4.945  0.3811  0.1979  0.6130
   87SLPC  C316 8445   0.903   5.417   5.127 -0.4196 -0.6365 -0.1903
   87SLPC  H16X 8446   0.935   5.311   5.117 -0.1156 -0.3359 -3.4934
   87SLPC  H16Y 8447   0.811   5.422   5.188  0.7477  0.1399  1.5846
   87SLPC  C317 8448   1.016   5.495   5.200  0.3723 -0.2914 -0.1434
   87SLPC  H17X 8449   0.977   5.597   5.181  1.9811  0.6870  1.4979
   87SLPC  H17Y 8450   1.111   5.468   5.150  0.1948 -0.9230 -0.1553
   87SLPC  C318 8451   1.011   5.470   5.350  0.5644  0.0587 -0.2318
   87SLPC  H18X 8452   0.912   5.474   5.401 -1.0822  0.9299 -3.2794
   87SLPC  H18Y 8453   1.074   5.546   5.401  0.2638 -0.1875  0.5227
   87SLPC  H18Z 8454   1.062   5.380   5.392  0.8769  0.0145 -0.6948
   88SLPC     N 8455   3.086   2.136   2.020 -0.3842 -0.6282  0.0094
   88SLPC   C13 8456   3.160   2.053   1.913 -0.2178  0.3990  0.3086
   88SLPC  H13A 8457   3.174   2.125   1.834  0.3918  0.4475  0.4548
   88SLPC  H13B 8458   3.251   2.011   1.952 -0.6191  0.4646  1.3543
   88SLPC  H13C 8459   3.097   1.978   1.867  1.2022 -0.2804 -0.6043
   88SLPC   C14 8460   2.954   2.185   1.970 -0.4245  0.0286  1.0010
   88SLPC  H14A 8461   2.899   2.239   2.045 -2.7058 -0.7599 -0.0130
   88SLPC  H14B 8462   2.964   2.254   1.887 -1.0665 -1.8870 -0.7396
   88SLPC  H14C 8463   2.887   2.106   1.940  0.1512 -1.1988  2.8017
   88SLPC   C15 8464   3.171   2.256   2.057 -0.0457  0.5215 -0.6911
   88SLPC  H15A 8465   3.129   2.308   2.142  1.3202 -0.5192  0.6972
   88SLPC  H15B 8466   3.271   2.220   2.077 -0.2637  0.1161 -0.3011
   88SLPC  H15C 8467   3.175   2.322   1.972 -2.5080 -0.3734 -1.5902
   88SLPC   C12 8468   3.060   2.046   2.141  0.2063  0.3647  0.3759
   88SLPC  H12A 8469   3.149   1.985   2.152 -1.6292 -2.6340 -0.1374
   88SLPC  H12B 8470   2.990   1.969   2.113 -0.2160  0.6676  0.5822
   88SLPC   C11 8471   3.022   2.103   2.275 -0.6862  0.2599  0.2106
   88SLPC  H11A 8472   2.961   2.022   2.321 -2.4558  1.4772  0.0984
   88SLPC  H11B 8473   2.964   2.196   2.253 -0.2507  0.3850 -0.4502
   88SLPC     P 8474   3.216   2.081   2.452  0.2066 -0.2341 -0.2753
   88SLPC   O13 8475   3.294   1.975   2.383  0.1940 -0.0276  0.5501
   88SLPC   O14 8476   3.293   2.173   2.538  0.1136  1.2963 -0.3986
   88SLPC   O12 8477   3.137   2.151   2.343  0.4436 -0.0110 -0.1357
   88SLPC   O11 8478   3.105   2.010   2.545 -0.8649 -0.5084  0.1722
   88SLPC    C1 8479   3.007   2.102   2.599 -0.0845  0.5003  0.2968
   88SLPC    HA 8480   2.984   2.191   2.537 -1.7530  0.6319  1.0605
   88SLPC    HB 8481   2.911   2.047   2.605  0.2774 -0.6459 -2.5032
   88SLPC    C2 8482   3.046   2.141   2.741 -0.0459 -0.4802 -0.3406
   88SLPC    HS 8483   3.156   2.145   2.726 -0.4001  0.4504 -3.4050
   88SLPC   O21 8484   2.992   2.032   2.830 -0.0630 -0.4108  0.0409
   88SLPC   C21 8485   3.078   1.994   2.925 -0.5050  0.5435  0.8126
   88SLPC   O22 8486   3.186   2.047   2.947  0.3469  0.5402  0.0217
   88SLPC   C22 8487   3.020   1.870   2.999 -0.4873 -0.4622  0.3147
   88SLPC   H2R 8488   2.912   1.861   2.975 -0.9580  1.2979  1.5763
   88SLPC   H2S 8489   3.080   1.782   2.970  0.5926  0.4409 -0.2721
   88SLPC    C3 8490   2.975   2.282   2.782  0.3424  0.4126  0.1328
   88SLPC    HX 8491   2.867   2.266   2.759  0.7895 -1.4028 -0.8574
   88SLPC    HY 8492   3.030   2.357   2.722 -0.2691  0.0570 -0.8916
   88SLPC   O31 8493   2.972   2.306   2.928 -0.1079  0.3780 -0.3486
   88SLPC   C31 8494   3.098   2.340   2.968 -0.0711 -0.9921  0.1150
   88SLPC   O32 8495   3.187   2.377   2.891  0.7044 -0.0809 -0.5211
   88SLPC   C32 8496   3.110   2.333   3.117  0.0682  0.5281  0.3855
   88SLPC   H2X 8497   3.147   2.231   3.141 -0.8368 -0.1800 -1.0859
   88SLPC   H2Y 8498   3.017   2.359   3.172 -0.7235 -0.9907 -0.1760
   88SLPC   C23 8499   3.030   1.861   3.160 -0.2169  0.6094  0.6578
   88SLPC   H3R 8500   3.113   1.933   3.180 -0.2312  0.6912  0.4288
   88SLPC   H3S 8501   3.050   1.756   3.192 -1.4065  0.2361  0.2302
   88SLPC   C24 8502   2.901   1.910   3.216 -0.6884  0.5645 -0.3325
   88SLPC   H4R 8503   2.820   1.838   3.189  0.8050 -0.8062 -1.2945
   88SLPC   H4S 8504   2.877   2.006   3.167 -1.7562 -0.0956 -1.1645
   88SLPC   C25 8505   2.890   1.933   3.370 -0.0802 -0.5768  0.3997
   88SLPC   H5R 8506   2.798   1.985   3.403 -0.3962 -1.2311  0.5793
   88SLPC   H5S 8507   2.977   1.998   3.392  0.8662 -1.2921 -1.0748
   88SLPC   C26 8508   2.885   1.808   3.455  0.4181 -0.0510 -0.1266
   88SLPC   H6R 8509   2.974   1.746   3.433  0.2004 -0.5977  0.5181
   88SLPC   H6S 8510   2.798   1.747   3.424 -0.0239  1.3113 -1.6826
   88SLPC   C27 8511   2.877   1.846   3.604  0.1985  0.5905 -0.4357
   88SLPC   H7R 8512   2.845   1.750   3.650 -0.6459  0.8730 -0.4145
   88SLPC   H7S 8513   2.796   1.920   3.620 -1.3732 -1.5549  2.4549
   88SLPC   C28 8514   3.012   1.895   3.661  0.0375 -0.4469 -0.0576
   88SLPC   H8R 8515   3.034   1.990   3.609 -0.5150 -0.1902  0.1706
   88SLPC   H8S 8516   3.092   1.822   3.637  0.5408  0.3638 -0.9183
   88SLPC   C29 8517   3.019   1.936   3.809  0.1983 -0.2411 -0.1997
   88SLPC   H9R 8518   3.086   2.023   3.815  0.5303 -0.3377 -1.9179
   88SLPC  C210 8519   2.973   1.875   3.920 -0.3505 -0.0079  0.1891
   88SLPC  H10R 8520   2.997   1.915   4.019 -2.5834  0.7981  0.4622
   88SLPC  C211 8521   2.905   1.743   3.937  1.0568  0.3542  0.7579
   88SLPC  H11R 8522   2.968   1.684   4.007  1.7849  1.8855  1.4397
   88SLPC  H11S 8523   2.919   1.681   3.846 -0.8363 -0.6237  1.0831
   88SLPC  C212 8524   2.755   1.731   3.958 -0.2046 -0.4812 -0.4764
   88SLPC  H12R 8525   2.704   1.736   3.861 -0.0886  1.7395 -0.4729
   88SLPC  C213 8526   2.696   1.688   4.072  0.3820  0.3860 -0.0153
   88SLPC  H13R 8527   2.589   1.707   4.087  1.0299  4.0058  1.0960
   88SLPC  C214 8528   2.766   1.643   4.202 -0.1922  0.5126 -0.5672
   88SLPC  H14R 8529   2.743   1.700   4.294 -0.7161  2.6826 -1.9720
   88SLPC  H14S 8530   2.876   1.640   4.184 -0.0297  1.7367  0.1260
   88SLPC  C215 8531   2.727   1.496   4.240  0.3148 -0.2470  0.9599
   88SLPC  H15R 8532   2.725   1.437   4.145 -1.0963  0.0312  0.7924
   88SLPC  H15S 8533   2.622   1.495   4.277  0.1025 -1.3040  0.3595
   88SLPC  C216 8534   2.807   1.446   4.352 -0.4385 -0.3445 -0.3822
   88SLPC  H16R 8535   2.749   1.450   4.447  0.1092  2.3674 -0.0836
   88SLPC  H16S 8536   2.908   1.488   4.369 -0.8884  1.6506 -2.2535
   88SLPC  C217 8537   2.853   1.292   4.345  0.0743 -0.3702  0.5834
   88SLPC  H17R 8538   2.763   1.234   4.317  0.7834 -0.9668 -0.5322
   88SLPC  H17S 8539   2.897   1.255   4.440  1.5852  2.2439  0.9944
   88SLPC  C218 8540   2.973   1.272   4.247  0.0186 -0.3515 -0.1295
   88SLPC  H18R 8541   2.989   1.163   4.237 -1.4284 -0.7252  1.1860
   88SLPC  H18S 8542   3.074   1.312   4.273  0.2614  0.6513 -2.3765
   88SLPC  H18T 8543   2.955   1.324   4.150  1.0144 -1.6017 -1.0303
   88SLPC   C33 8544   3.210   2.437   3.169  0.1272 -0.2970  0.1081
   88SLPC   H3X 8545   3.152   2.531   3.154 -1.7188 -1.0950  1.6377
   88SLPC   H3Y 8546   3.304   2.444   3.111  2.0960 -1.3141  2.9270
   88SLPC   C34 8547   3.246   2.416   3.315 -0.5149 -0.4066  0.4241
   88SLPC   H4X 8548   3.162   2.427   3.387 -1.0675  0.5304 -0.3472
   88SLPC   H4Y 8549   3.325   2.493   3.332  0.6670 -1.4176 -0.3302
   88SLPC   C35 8550   3.313   2.274   3.339 -0.5295 -0.1897 -0.8558
   88SLPC   H5X 8551   3.391   2.254   3.262 -0.4847  1.2720 -1.2200
   88SLPC   H5Y 8552   3.232   2.199   3.330 -0.8243 -0.1661  1.1921
   88SLPC   C36 8553   3.371   2.258   3.482  0.2153 -0.4077 -0.2829
   88SLPC   H6X 8554   3.451   2.335   3.492  1.4262 -1.6113 -0.4655
   88SLPC   H6Y 8555   3.420   2.159   3.488 -0.2807 -0.5933  0.8467
   88SLPC   C37 8556   3.268   2.269   3.597 -0.5515  0.6549  0.1175
   88SLPC   H7X 8557   3.209   2.176   3.584 -0.4933  0.3115  1.9836
   88SLPC   H7Y 8558   3.213   2.365   3.586 -0.9802  0.3881 -0.1050
   88SLPC   C38 8559   3.318   2.263   3.743  0.3943  0.7263 -0.1854
   88SLPC   H8X 8560   3.228   2.280   3.806  0.3002  0.3977 -0.2280
   88SLPC   H8Y 8561   3.385   2.350   3.764 -0.1251  1.8754 -2.9187
   88SLPC   C39 8562   3.372   2.122   3.786  0.1257  0.3307  0.0874
   88SLPC   H9X 8563   3.470   2.118   3.733 -0.2329  0.0304 -0.5744
   88SLPC   H9Y 8564   3.309   2.037   3.753  0.8771 -0.4795  0.6837
   88SLPC  C310 8565   3.406   2.106   3.939 -0.2283 -0.2885 -0.0204
   88SLPC  H10X 8566   3.472   2.187   3.978 -1.5927  1.0069 -0.3210
   88SLPC  H10Y 8567   3.477   2.021   3.951  2.8612  2.3506  2.2626
   88SLPC  C311 8568   3.286   2.088   4.038 -0.0330 -0.1533  0.3822
   88SLPC  H11X 8569   3.234   1.992   4.018 -1.4069 -0.0933  3.2225
   88SLPC  H11Y 8570   3.215   2.168   4.007 -1.0048  0.8052  4.5574
   88SLPC  C312 8571   3.320   2.111   4.185  0.3738 -0.4366  0.3700
   88SLPC  H12X 8572   3.367   2.212   4.191 -1.3691  0.5623 -1.4819
   88SLPC  H12Y 8573   3.385   2.029   4.223  0.6254 -0.6561 -0.5110
   88SLPC  C313 8574   3.187   2.110   4.263 -0.8498  0.3628 -0.0914
   88SLPC  H13X 8575   3.146   2.008   4.254 -2.5518  1.1238 -1.5519
   88SLPC  H13Y 8576   3.118   2.181   4.212 -0.8335  0.5925  0.2019
   88SLPC  C314 8577   3.215   2.152   4.409 -0.1661 -0.1711 -0.2181
   88SLPC  H14X 8578   3.255   2.255   4.413 -0.5250 -0.0636  2.0272
   88SLPC  H14Y 8579   3.282   2.082   4.464 -0.9678 -0.7675  0.0184
   88SLPC  C315 8580   3.085   2.163   4.489  0.1643 -0.5719 -0.2366
   88SLPC  H15X 8581   3.037   2.065   4.508 -1.4329  0.0613 -0.8564
   88SLPC  H15Y 8582   3.005   2.218   4.434  0.1209  0.9638  1.2848
   88SLPC  C316 8583   3.102   2.240   4.623  0.4739 -0.1119  0.5068
   88SLPC  H16X 8584   3.122   2.347   4.604  1.1775 -0.1419  1.0351
   88SLPC  H16Y 8585   3.184   2.188   4.678  0.3699 -1.3826 -0.4951
   88SLPC  C317 8586   2.976   2.236   4.709 -0.2589 -0.0472 -0.0310
   88SLPC  H17X 8587   2.894   2.285   4.652  0.0619  1.5677  0.8251
   88SLPC  H17Y 8588   2.984   2.308   4.793  0.4696  1.0299 -0.9842
   88SLPC  C318 8589   2.938   2.100   4.764 -0.1357  0.3471  0.2308
   88SLPC  H18X 8590   2.916   2.024   4.686  0.7402 -0.1388  0.4466
   88SLPC  H18Y 8591   2.848   2.116   4.827  1.6078  1.5528  2.5851
   88SLPC  H18Z 8592   3.018   2.057   4.828  1.4684 -0.1570 -1.9993
   89SAPE     N 8593   6.708   3.727   6.547  0.4708  0.5746 -0.5201
   89SAPE   HN1 8594   6.734   3.808   6.606 -1.0183  0.1608  0.7407
   89SAPE   HN2 8595   6.790   3.666   6.566  0.8110  1.0789 -0.3467
   89SAPE   HN3 8596   6.717   3.751   6.446  0.7807  1.2873 -0.3260
   89SAPE   C12 8597   6.572   3.673   6.586 -0.0517  0.4336  0.1285
   89SAPE  H12A 8598   6.490   3.735   6.542 -1.4924 -1.0954  0.5319
   89SAPE  H12B 8599   6.566   3.665   6.697 -0.3946  2.1366  0.2667
   89SAPE   C11 8600   6.546   3.532   6.517 -0.0585  0.3431  0.0864
   89SAPE  H11A 8601   6.549   3.551   6.408 -1.5675 -2.2917 -0.4886
   89SAPE  H11B 8602   6.444   3.505   6.550  0.1131  0.1335  0.4570
   89SAPE     P 8603   6.624   3.294   6.604  0.1341  0.0264  0.1215
   89SAPE   O13 8604   6.703   3.255   6.721 -0.1784  0.1934 -0.1680
   89SAPE   O14 8605   6.474   3.280   6.615 -0.5041  0.0061 -0.0523
   89SAPE   O12 8606   6.644   3.442   6.562  0.2025  0.1148  0.0544
   89SAPE   O11 8607   6.679   3.227   6.477  0.1755  0.5992 -0.5703
   89SAPE    C1 8608   6.807   3.262   6.420  1.4361 -0.2644  0.3270
   89SAPE    HA 8609   6.866   3.328   6.486  1.1310 -1.3146  1.7117
   89SAPE    HB 8610   6.861   3.167   6.398  0.9101 -0.2025 -1.3780
   89SAPE    C2 8611   6.787   3.339   6.291 -0.8442  0.5744  0.1701
   89SAPE    HS 8612   6.723   3.425   6.321 -0.4524  0.9812 -0.1482
   89SAPE   O21 8613   6.741   3.255   6.181  0.1150  0.0982 -0.0271
   89SAPE   C21 8614   6.633   3.296   6.108  0.2146 -0.5282  0.3627
   89SAPE   O22 8615   6.582   3.404   6.116  0.2743 -0.3687  0.0945
   89SAPE   C22 8616   6.598   3.189   6.005 -1.2664 -0.1122 -1.1176
   89SAPE   H2R 8617   6.629   3.235   5.909 -0.0922  0.8298 -0.3015
   89SAPE   H2S 8618   6.669   3.103   6.010  0.8713  1.5251 -1.8573
   89SAPE    C3 8619   6.922   3.402   6.242  0.4799 -0.1621 -0.1612
   89SAPE    HX 8620   6.993   3.323   6.209  0.7933 -0.5932  1.4658
   89SAPE    HY 8621   6.978   3.455   6.322  0.6626  0.6603 -0.8223
   89SAPE   O31 8622   6.889   3.496   6.139 -0.6500  0.0501 -0.4920
   89SAPE   C31 8623   6.836   3.610   6.188 -0.0041 -0.2818 -0.6757
   89SAPE   O32 8624   6.822   3.645   6.303 -0.1029  0.7065 -0.5713
   89SAPE   C32 8625   6.809   3.711   6.070  0.1190 -0.1328 -0.2448
   89SAPE   H2X 8626   6.904   3.736   6.018  1.0768  2.0568  2.2906
   89SAPE   H2Y 8627   6.767   3.805   6.112 -0.8167 -1.5070  2.1311
   89SAPE   C23 8628   6.449   3.139   6.026 -0.1174  0.1346 -0.0338
   89SAPE   H3R 8629   6.379   3.225   6.029  1.1015  1.2424 -1.5002
   89SAPE   H3S 8630   6.457   3.080   6.119 -0.1071 -2.7529 -1.7417
   89SAPE   C24 8631   6.406   3.042   5.902 -0.3439 -0.9236  0.5794
   89SAPE   H4R 8632   6.445   3.106   5.820 -2.2682 -0.4536 -0.0459
   89SAPE   H4S 8633   6.295   3.040   5.891 -0.1466 -2.6436 -1.7843
   89SAPE   C25 8634   6.461   2.905   5.900  0.7791 -0.1450  0.4816
   89SAPE   H5R 8635   6.457   2.849   5.994 -3.3196  0.4274  0.8268
   89SAPE   C26 8636   6.519   2.849   5.788  0.0334  0.2933 -0.9010
   89SAPE   H6R 8637   6.572   2.752   5.795  1.2204  0.9465 -0.4257
   89SAPE   C27 8638   6.537   2.910   5.650  0.2470  0.4348  0.2292
   89SAPE   H7R 8639   6.472   3.000   5.650 -0.4437 -0.0319  1.7005
   89SAPE   H7S 8640   6.499   2.836   5.576  1.9838 -0.5891  0.2919
   89SAPE   C28 8641   6.676   2.952   5.607 -0.3409  0.5826 -0.1199
   89SAPE   H8R 8642   6.749   2.979   5.685 -0.5237  0.4847  0.0850
   89SAPE   C29 8643   6.716   2.948   5.476 -0.2689  0.0862 -0.0561
   89SAPE   H9R 8644   6.813   2.999   5.465 -0.4872  1.1351  2.2664
   89SAPE  C210 8645   6.639   2.911   5.354  0.3530 -0.8085 -0.6829
   89SAPE  H10R 8646   6.650   2.995   5.282  1.1053 -2.6544 -2.8173
   89SAPE  H10S 8647   6.532   2.900   5.382  0.1602  0.7467 -0.6950
   89SAPE  C211 8648   6.678   2.784   5.286  0.2063  0.4150 -0.4044
   89SAPE  H11R 8649   6.741   2.711   5.339 -0.0240  0.7771  0.3815
   89SAPE  C212 8650   6.641   2.747   5.168 -0.2827  0.5297  0.5981
   89SAPE  H12R 8651   6.675   2.649   5.134  0.2016  0.6972  0.5847
   89SAPE  C213 8652   6.544   2.819   5.077 -1.1005 -0.2948  0.0692
   89SAPE  H13R 8653   6.602   2.888   5.011 -0.9936  2.1994  2.6052
   89SAPE  H13S 8654   6.485   2.886   5.143  0.4791  1.3248 -0.0910
   89SAPE  C214 8655   6.446   2.727   5.000 -0.0442 -0.2587 -0.5707
   89SAPE  H14R 8656   6.392   2.653   5.062  1.4861 -0.8595  0.1052
   89SAPE  C215 8657   6.424   2.728   4.869 -0.7403  0.1468 -0.1223
   89SAPE  H15R 8658   6.348   2.659   4.831  0.7558 -1.8733  0.4168
   89SAPE  C216 8659   6.488   2.822   4.767  0.2455 -0.4682  0.0133
   89SAPE  H16R 8660   6.468   2.777   4.667  0.8122  1.1949 -0.8944
   89SAPE  H16S 8661   6.598   2.825   4.783  0.1998 -1.0481  0.4564
   89SAPE  C217 8662   6.449   2.968   4.763 -0.0874 -0.1472  0.0027
   89SAPE  H17R 8663   6.486   3.020   4.671 -0.9705 -0.2638 -0.4273
   89SAPE  H17S 8664   6.496   3.017   4.851 -1.7693 -0.6644  1.2182
   89SAPE  C218 8665   6.299   2.988   4.754  0.2435  0.0072 -0.2952
   89SAPE  H18R 8666   6.251   2.947   4.846 -0.9216 -1.5198 -1.5356
   89SAPE  H18S 8667   6.263   2.942   4.660  0.5470 -1.9588  0.4969
   89SAPE  C219 8668   6.264   3.134   4.747  0.3613 -0.3175  0.0017
   89SAPE  H19R 8669   6.299   3.180   4.652 -0.0061  0.1027  0.0636
   89SAPE  H19S 8670   6.312   3.204   4.818 -2.0783  0.5996  0.8520
   89SAPE  C220 8671   6.113   3.157   4.750 -0.3908 -0.3048  0.6594
   89SAPE  H20R 8672   6.071   3.107   4.660  0.7862  0.6835 -0.4882
   89SAPE  H20S 8673   6.079   3.262   4.734 -1.3762 -0.5010  1.3800
   89SAPE  H20T 8674   6.064   3.115   4.841 -2.0957  0.1711  0.0032
   89SAPE   C33 8675   6.702   3.660   5.974 -0.3476 -0.0949 -0.2287
   89SAPE   H3X 8676   6.611   3.646   6.037 -0.5968 -0.6269 -0.7004
   89SAPE   H3Y 8677   6.723   3.565   5.921 -1.5021 -0.5328  0.0592
   89SAPE   C34 8678   6.661   3.760   5.864  0.4220  0.3104  0.0646
   89SAPE   H4X 8679   6.613   3.851   5.905 -0.2404  0.3436 -0.7566
   89SAPE   H4Y 8680   6.595   3.716   5.786 -1.5012  0.0292  1.7784
   89SAPE   C35 8681   6.783   3.805   5.785  1.0525 -0.3256  0.9141
   89SAPE   H5X 8682   6.851   3.720   5.762 -0.0078 -0.9227 -0.1749
   89SAPE   H5Y 8683   6.847   3.867   5.850  1.1319  1.7620 -1.0327
   89SAPE   C36 8684   6.736   3.887   5.656  0.1035 -0.1088 -0.1784
   89SAPE   H6X 8685   6.661   3.966   5.679  0.7889  0.8887 -1.2410
   89SAPE   H6Y 8686   6.687   3.826   5.576  0.3702  1.2419 -1.4175
   89SAPE   C37 8687   6.862   3.943   5.578  0.3909  0.3568 -0.5102
   89SAPE   H7X 8688   6.922   3.854   5.549  1.2594  0.3861  1.0710
   89SAPE   H7Y 8689   6.925   3.991   5.655  2.4845  0.9143 -2.4838
   89SAPE   C38 8690   6.828   4.035   5.465 -0.4594 -0.9210  0.1717
   89SAPE   H8X 8691   6.915   4.060   5.401 -0.4912 -0.0807  0.4513
   89SAPE   H8Y 8692   6.791   4.132   5.505 -1.5874 -1.7639  1.2415
   89SAPE   C39 8693   6.726   4.002   5.356 -0.2498  0.1211  0.3418
   89SAPE   H9X 8694   6.627   3.990   5.405 -0.1310 -1.3243  0.2835
   89SAPE   H9Y 8695   6.762   3.904   5.317 -0.8733 -0.3314  0.8855
   89SAPE  C310 8696   6.721   4.103   5.249 -0.6134 -0.4264 -0.2618
   89SAPE  H10X 8697   6.823   4.131   5.214  0.3161 -0.6882  2.0581
   89SAPE  H10Y 8698   6.684   4.197   5.293  4.1897  0.7438  1.9881
   89SAPE  C311 8699   6.657   4.064   5.115 -0.9861  1.1729  0.0158
   89SAPE  H11X 8700   6.731   3.990   5.080 -1.2275 -1.1205  3.7150
   89SAPE  H11Y 8701   6.664   4.154   5.052 -4.7619  1.4103 -0.3273
   89SAPE  C312 8702   6.510   4.023   5.103  0.8803  0.1202  0.2040
   89SAPE  H12X 8703   6.441   4.096   5.055  1.5344 -0.6370 -2.0210
   89SAPE  H12Y 8704   6.477   4.006   5.208 -0.0495 -1.3393 -0.2936
   89SAPE  C313 8705   6.492   3.887   5.022 -0.1295  0.2434 -0.4408
   89SAPE  H13X 8706   6.539   3.894   4.922 -1.5673 -0.4976 -1.1841
   89SAPE  H13Y 8707   6.387   3.856   5.005 -0.5897  0.9307  0.9901
   89SAPE  C314 8708   6.553   3.767   5.097 -0.3461  0.3914 -0.1797
   89SAPE  H14X 8709   6.482   3.734   5.176 -2.4075 -0.6865 -2.3439
   89SAPE  H14Y 8710   6.648   3.805   5.139  1.8234 -2.0289 -2.5368
   89SAPE  C315 8711   6.600   3.648   5.011  0.2519  0.8287  0.6272
   89SAPE  H15X 8712   6.645   3.566   5.072 -0.6864 -1.7707 -1.9807
   89SAPE  H15Y 8713   6.688   3.684   4.954 -2.0100  2.3264 -2.1345
   89SAPE  C316 8714   6.504   3.579   4.915  0.4273 -0.0519  0.0383
   89SAPE  H16X 8715   6.432   3.654   4.875 -0.4496 -1.1634 -0.5356
   89SAPE  H16Y 8716   6.443   3.504   4.970  0.6078 -0.3141 -0.1196
   89SAPE  C317 8717   6.575   3.514   4.795 -0.1119 -0.3471 -0.3935
   89SAPE  H17X 8718   6.651   3.453   4.849 -1.1729 -0.4470  1.0541
   89SAPE  H17Y 8719   6.632   3.585   4.732  0.3122 -1.5679 -1.4202
   89SAPE  C318 8720   6.491   3.431   4.700  0.9381  0.2804  0.4152
   89SAPE  H18X 8721   6.399   3.398   4.752  0.4493  0.7482 -0.1505
   89SAPE  H18Y 8722   6.534   3.341   4.650 -1.2438 -0.7605  0.2945
   89SAPE  H18Z 8723   6.446   3.499   4.625  0.0997  1.6543  2.0869
   90SAPE     N 8724   1.155   2.173   7.698 -0.6462  0.2128  0.1848
   90SAPE   HN1 8725   1.257   2.195   7.689 -0.8336  0.6404 -1.0654
   90SAPE   HN2 8726   1.120   2.210   7.789  4.1030  1.3526  1.8963
   90SAPE   HN3 8727   1.155   2.069   7.702  1.4715  0.1426 -0.1521
   90SAPE   C12 8728   1.072   2.217   7.583  0.3475 -0.1765  0.0184
   90SAPE  H12A 8729   1.073   2.328   7.591  0.4814 -0.3084  2.5154
   90SAPE  H12B 8730   0.968   2.179   7.598  1.2419 -1.6507  3.6517
   90SAPE   C11 8731   1.122   2.178   7.447 -0.1524 -0.4209  0.6966
   90SAPE  H11A 8732   1.061   2.226   7.367  1.2470  0.3576  0.0769
   90SAPE  H11B 8733   1.111   2.069   7.427  0.6432 -0.2990 -0.4757
   90SAPE     P 8734   1.318   2.337   7.362 -0.1401 -0.1213  0.0949
   90SAPE   O13 8735   1.213   2.432   7.388  0.0292  0.3738  0.2843
   90SAPE   O14 8736   1.455   2.362   7.417  0.0273  0.0663 -0.5379
   90SAPE   O12 8737   1.259   2.209   7.429  0.2867 -0.3150 -0.4885
   90SAPE   O11 8738   1.334   2.302   7.210 -0.2990 -0.3206  0.0088
   90SAPE    C1 8739   1.234   2.252   7.121  0.0610  0.0096 -0.5873
   90SAPE    HA 8740   1.246   2.143   7.102 -2.5734 -0.6540  1.0550
   90SAPE    HB 8741   1.131   2.266   7.161  0.9030 -0.4320  1.9217
   90SAPE    C2 8742   1.237   2.333   6.996  0.2853 -0.2333 -0.3676
   90SAPE    HS 8743   1.139   2.320   6.947 -0.5576  2.1958  0.5192
   90SAPE   O21 8744   1.351   2.295   6.916 -0.3809 -0.4884 -0.4164
   90SAPE   C21 8745   1.343   2.184   6.848 -0.2240 -0.3422  0.7115
   90SAPE   O22 8746   1.262   2.099   6.859  0.3909 -0.1574 -0.4723
   90SAPE   C22 8747   1.462   2.162   6.758 -0.2141  0.0552  0.6542
   90SAPE   H2R 8748   1.496   2.268   6.751 -0.5315  0.1869  1.0695
   90SAPE   H2S 8749   1.540   2.092   6.793  1.4081  1.6666  0.4009
   90SAPE    C3 8750   1.252   2.493   7.025  0.3530  0.0517  0.3741
   90SAPE    HX 8751   1.338   2.519   7.091  0.8601  0.6909 -0.5193
   90SAPE    HY 8752   1.166   2.523   7.088 -0.7518 -2.7363  0.3481
   90SAPE   O31 8753   1.242   2.565   6.902 -0.2376 -0.1292  0.0939
   90SAPE   C31 8754   1.342   2.659   6.890 -0.7891 -0.2999  0.4611
   90SAPE   O32 8755   1.427   2.686   6.974  0.0830 -0.3144  0.3429
   90SAPE   C32 8756   1.338   2.715   6.750  0.1457  0.2679  0.7455
   90SAPE   H2X 8757   1.301   2.818   6.763 -2.7753 -0.4401 -1.0093
   90SAPE   H2Y 8758   1.259   2.658   6.696  2.4729 -1.8671 -0.6138
   90SAPE   C23 8759   1.407   2.129   6.614 -0.2238  0.4499  0.4814
   90SAPE   H3R 8760   1.335   2.044   6.604 -0.0895  0.5636 -1.9856
   90SAPE   H3S 8761   1.493   2.107   6.548 -1.7377  1.0762 -1.8214
   90SAPE   C24 8762   1.335   2.261   6.559 -0.4334 -0.6344  0.1068
   90SAPE   H4R 8763   1.413   2.339   6.550 -0.5082 -0.4873  0.6748
   90SAPE   H4S 8764   1.262   2.293   6.636  1.0912 -2.1665  2.3224
   90SAPE   C25 8765   1.264   2.242   6.433  0.0120  0.0042 -0.2457
   90SAPE   H5R 8766   1.218   2.143   6.426  1.9303 -0.8420 -1.7136
   90SAPE   C26 8767   1.247   2.323   6.328 -0.4475  0.7806 -0.3629
   90SAPE   H6R 8768   1.184   2.301   6.241 -1.5105 -1.1103  0.7973
   90SAPE   C27 8769   1.301   2.460   6.338  0.2049  0.3404 -0.2818
   90SAPE   H7R 8770   1.412   2.464   6.330  0.3374  4.4345  1.4523
   90SAPE   H7S 8771   1.286   2.508   6.437 -0.4425  0.2999 -0.3594
   90SAPE   C28 8772   1.259   2.556   6.236 -0.5539 -1.0891  0.0411
   90SAPE   H8R 8773   1.214   2.647   6.278 -0.8903 -1.6820  1.0069
   90SAPE   C29 8774   1.258   2.545   6.098 -0.0785 -0.6421  0.2111
   90SAPE   H9R 8775   1.214   2.626   6.038 -0.4661 -0.7554  0.3398
   90SAPE  C210 8776   1.314   2.438   6.007 -0.1246 -0.5173 -0.0877
   90SAPE  H10R 8777   1.231   2.404   5.941 -0.2312  0.4229 -0.4415
   90SAPE  H10S 8778   1.340   2.349   6.069 -2.5814 -1.4575 -0.2835
   90SAPE  C211 8779   1.426   2.481   5.919 -0.0119 -0.3377 -0.5785
   90SAPE  H11R 8780   1.523   2.478   5.970 -0.0969  0.0119 -0.3975
   90SAPE  C212 8781   1.421   2.500   5.789  0.1791 -0.5709 -0.2183
   90SAPE  H12R 8782   1.519   2.520   5.742 -1.0819 -0.4821 -2.9952
   90SAPE  C213 8783   1.303   2.492   5.692 -0.0719 -0.8207 -0.0175
   90SAPE  H13R 8784   1.209   2.541   5.726 -1.1031 -0.5222 -3.0119
   90SAPE  H13S 8785   1.268   2.387   5.685  0.4285 -0.9755 -0.1954
   90SAPE  C214 8786   1.332   2.556   5.554 -0.2940 -0.2202  0.2641
   90SAPE  H14R 8787   1.363   2.661   5.572  0.2187 -0.5200  1.2270
   90SAPE  C215 8788   1.325   2.500   5.431  0.4077  0.2030  0.5151
   90SAPE  H15R 8789   1.361   2.551   5.340 -2.0305  1.7728  0.3536
   90SAPE  C216 8790   1.292   2.361   5.394  0.6937  0.1940 -0.2916
   90SAPE  H16R 8791   1.298   2.297   5.485  3.7461  0.8369  0.0718
   90SAPE  H16S 8792   1.379   2.330   5.332  1.3091  0.4375  0.4354
   90SAPE  C217 8793   1.150   2.347   5.337 -0.5818 -0.1266  0.2626
   90SAPE  H17R 8794   1.080   2.347   5.423 -0.6179  1.8163  0.2908
   90SAPE  H17S 8795   1.122   2.253   5.286 -0.5546 -0.4317  0.8020
   90SAPE  C218 8796   1.089   2.454   5.247 -0.3185 -0.0500  1.0242
   90SAPE  H18R 8797   1.089   2.551   5.301  1.0243  0.1116  0.7654
   90SAPE  H18S 8798   0.982   2.439   5.219 -0.6313  2.4483  0.6596
   90SAPE  C219 8799   1.168   2.482   5.118  0.0653 -0.6158  0.7437
   90SAPE  H19R 8800   1.272   2.518   5.134 -0.0127 -0.3091  0.5615
   90SAPE  H19S 8801   1.113   2.566   5.070  1.9791  0.5122  0.4038
   90SAPE  C220 8802   1.160   2.360   5.032  0.2246  0.1764  0.2282
   90SAPE  H20R 8803   1.056   2.331   5.009  0.8047 -1.3947 -0.6307
   90SAPE  H20S 8804   1.216   2.274   5.076 -0.9361  0.2173  1.8374
   90SAPE  H20T 8805   1.204   2.389   4.934 -0.7320  0.4279 -0.1342
   90SAPE   C33 8806   1.466   2.717   6.669  0.5662 -0.4590 -0.4264
   90SAPE   H3X 8807   1.500   2.612   6.652  0.3270 -0.5195 -0.5343
   90SAPE   H3Y 8808   1.547   2.778   6.715 -0.0432  1.1376 -1.4072
   90SAPE   C34 8809   1.442   2.769   6.528 -0.1055 -0.5877  0.5432
   90SAPE   H4X 8810   1.398   2.871   6.531  0.3829 -0.3880  2.0524
   90SAPE   H4Y 8811   1.377   2.706   6.464 -1.1820  3.3397 -2.6220
   90SAPE   C35 8812   1.569   2.789   6.443 -0.3847  0.3190 -0.3743
   90SAPE   H5X 8813   1.631   2.701   6.471 -3.8987 -2.3828 -0.4173
   90SAPE   H5Y 8814   1.618   2.879   6.485  1.5954 -1.5245  1.5094
   90SAPE   C36 8815   1.540   2.817   6.299 -0.4913  0.2875 -0.6125
   90SAPE   H6X 8816   1.486   2.912   6.282  1.4635  1.5831  0.1698
   90SAPE   H6Y 8817   1.482   2.728   6.265 -0.8156  1.0971 -2.2972
   90SAPE   C37 8818   1.672   2.817   6.225 -0.3332 -0.3798  1.1493
   90SAPE   H7X 8819   1.743   2.739   6.261  1.4336  0.2217 -0.8182
   90SAPE   H7Y 8820   1.733   2.909   6.236  3.1875 -2.2217 -0.7966
   90SAPE   C38 8821   1.673   2.787   6.077  0.7657  0.2869  0.2959
   90SAPE   H8X 8822   1.583   2.830   6.028  1.0433 -1.2135 -1.6154
   90SAPE   H8Y 8823   1.652   2.680   6.058  1.1117  0.4439 -1.0689
   90SAPE   C39 8824   1.793   2.833   5.990 -0.3501  0.3160 -0.2617
   90SAPE   H9X 8825   1.885   2.787   6.032  1.0492  2.1528 -1.1618
   90SAPE   H9Y 8826   1.802   2.943   5.984  0.5161  0.2887  0.3843
   90SAPE  C310 8827   1.778   2.779   5.846 -0.0531  0.0673 -0.2294
   90SAPE  H10X 8828   1.677   2.802   5.804  0.2934  0.6234 -0.7802
   90SAPE  H10Y 8829   1.792   2.669   5.855 -1.6746 -0.0273  1.8499
   90SAPE  C311 8830   1.899   2.820   5.755 -0.0553  0.0597  0.3640
   90SAPE  H11X 8831   1.996   2.783   5.794  0.3232 -0.7635 -1.2768
   90SAPE  H11Y 8832   1.906   2.931   5.752  0.7697 -0.0027 -0.4204
   90SAPE  C312 8833   1.880   2.764   5.612  0.2399  0.2262  0.2842
   90SAPE  H12X 8834   1.883   2.653   5.609 -0.0911  0.2233  0.0883
   90SAPE  H12Y 8835   1.969   2.796   5.554  0.7033 -2.9216 -0.9264
   90SAPE  C313 8836   1.753   2.812   5.542 -0.1348 -0.5330 -0.7902
   90SAPE  H13X 8837   1.733   2.921   5.552  0.4719 -0.4797 -0.1868
   90SAPE  H13Y 8838   1.674   2.755   5.595  0.9062 -3.2225 -1.9436
   90SAPE  C314 8839   1.759   2.781   5.394 -0.2018  0.2859  0.8149
   90SAPE  H14X 8840   1.794   2.676   5.383 -1.0888 -0.0863  1.4280
   90SAPE  H14Y 8841   1.831   2.847   5.341  0.6170 -1.7043 -0.6630
   90SAPE  C315 8842   1.627   2.788   5.324 -0.3270  0.3415 -0.0514
   90SAPE  H15X 8843   1.578   2.887   5.331 -2.2488 -0.5715 -0.0890
   90SAPE  H15Y 8844   1.545   2.738   5.381 -0.5781  1.6507  0.7815
   90SAPE  C316 8845   1.616   2.739   5.180 -0.0868  0.2709  0.6053
   90SAPE  H16X 8846   1.618   2.628   5.175 -1.2487  0.2755 -0.1766
   90SAPE  H16Y 8847   1.705   2.779   5.126 -0.7592  2.0489  0.7358
   90SAPE  C317 8848   1.480   2.783   5.112 -0.0597  0.2266  0.3743
   90SAPE  H17X 8849   1.465   2.893   5.124  0.0040  0.3079 -0.3030
   90SAPE  H17Y 8850   1.401   2.734   5.172 -0.5934  0.0002 -0.5002
   90SAPE  C318 8851   1.463   2.735   4.977 -0.4198  0.0069 -0.1296
   90SAPE  H18X 8852   1.361   2.756   4.938  0.0609  2.1044 -0.3373
   90SAPE  H18Y 8853   1.483   2.626   4.969  2.0471  0.3339  0.8202
   90SAPE  H18Z 8854   1.534   2.787   4.910 -1.4708  1.6707 -0.0012
   91SAPE     N 8855   5.117   2.271   6.943 -0.5545 -0.4758 -0.4185
   91SAPE   HN1 8856   5.157   2.298   6.851 -0.0277  0.9259  0.1844
   91SAPE   HN2 8857   5.062   2.183   6.937 -0.3394 -0.6358 -0.0696
   91SAPE   HN3 8858   5.057   2.341   6.992 -1.6397 -1.5278 -0.2172
   91SAPE   C12 8859   5.245   2.252   7.017  0.3585  0.0628  0.4995
   91SAPE  H12A 8860   5.303   2.183   6.952 -1.0460 -0.7273  0.0423
   91SAPE  H12B 8861   5.230   2.217   7.121  1.1062  1.5044  1.1274
   91SAPE   C11 8862   5.303   2.392   7.045  0.3792  0.2766  0.6795
   91SAPE  H11A 8863   5.398   2.361   7.094 -0.1618 -0.8117  1.0840
   91SAPE  H11B 8864   5.234   2.440   7.118  0.1956 -0.2455  0.8574
   91SAPE     P 8865   5.405   2.602   6.926 -0.0513 -0.0488 -0.2771
   91SAPE   O13 8866   5.399   2.678   7.052 -0.2032 -0.1832  0.3323
   91SAPE   O14 8867   5.540   2.573   6.859  1.6425  0.4115 -0.2620
   91SAPE   O12 8868   5.319   2.468   6.933  0.3018 -0.3250  0.3439
   91SAPE   O11 8869   5.323   2.685   6.820  0.0736 -0.3811 -0.5700
   91SAPE    C1 8870   5.298   2.620   6.697 -0.3873  0.0234  1.0908
   91SAPE    HA 8871   5.359   2.674   6.622 -1.4786 -0.4182 -0.1461
   91SAPE    HB 8872   5.327   2.513   6.695 -0.5586 -0.0083 -0.0284
   91SAPE    C2 8873   5.149   2.633   6.671 -0.4834  0.2089  0.1934
   91SAPE    HS 8874   5.092   2.602   6.761  1.0953  0.4032  1.2946
   91SAPE   O21 8875   5.113   2.556   6.554 -0.2025 -0.6655  0.3945
   91SAPE   C21 8876   5.113   2.425   6.577  0.1903 -1.2333 -0.4897
   91SAPE   O22 8877   5.123   2.381   6.692 -0.0305 -0.1670 -0.0192
   91SAPE   C22 8878   5.096   2.346   6.452 -0.0279  0.1168  0.0168
   91SAPE   H2R 8879   5.091   2.402   6.356  1.8004 -3.5750 -2.4443
   91SAPE   H2S 8880   5.191   2.290   6.450 -0.5313 -0.9194  2.0322
   91SAPE    C3 8881   5.097   2.777   6.646  0.1488 -0.0977 -0.1654
   91SAPE    HX 8882   5.088   2.830   6.743 -1.2904 -0.2472 -0.1872
   91SAPE    HY 8883   4.994   2.762   6.605  0.4092 -0.6606 -0.6331
   91SAPE   O31 8884   5.187   2.840   6.552  0.4424 -0.5834 -0.4572
   91SAPE   C31 8885   5.118   2.912   6.464 -0.1449  0.2070 -0.5201
   91SAPE   O32 8886   4.999   2.945   6.476 -0.7411 -0.3331  0.3206
   91SAPE   C32 8887   5.204   2.938   6.345 -0.3336 -0.1483  0.2284
   91SAPE   H2X 8888   5.300   2.984   6.376  0.0351 -0.7383 -0.0123
   91SAPE   H2Y 8889   5.147   3.005   6.277  1.1974 -0.6015 -1.6070
   91SAPE   C23 8890   4.986   2.233   6.461 -0.4049 -0.2052  0.2924
   91SAPE   H3R 8891   4.883   2.270   6.479 -0.4134 -0.6367  1.2155
   91SAPE   H3S 8892   4.996   2.165   6.548  2.7898  1.3385  1.2933
   91SAPE   C24 8893   4.975   2.149   6.327  0.4141  0.3833 -0.9535
   91SAPE   H4R 8894   4.923   2.221   6.260 -1.8157  0.2892  0.5822
   91SAPE   H4S 8895   4.909   2.065   6.358  0.1518  0.1203 -2.1504
   91SAPE   C25 8896   5.101   2.100   6.261  0.1016 -0.2554  0.3990
   91SAPE   H5R 8897   5.143   2.011   6.311 -1.9230 -2.0665 -0.9568
   91SAPE   C26 8898   5.166   2.143   6.148 -0.5926  0.0699 -0.7533
   91SAPE   H6R 8899   5.244   2.079   6.104 -1.5258 -0.0866 -2.2641
   91SAPE   C27 8900   5.141   2.258   6.057  0.3469  0.5961 -0.1638
   91SAPE   H7R 8901   5.239   2.304   6.036 -0.0531  1.2776 -0.5503
   91SAPE   H7S 8902   5.071   2.329   6.107  0.5213 -0.8228  2.3104
   91SAPE   C28 8903   5.081   2.209   5.927  0.0341  0.1277 -0.3483
   91SAPE   H8R 8904   4.986   2.155   5.940 -1.5252  3.0941  1.8215
   91SAPE   C29 8905   5.135   2.238   5.807 -0.1145 -0.8495 -0.3851
   91SAPE   H9R 8906   5.078   2.214   5.716  1.9489  1.4783 -2.4491
   91SAPE  C210 8907   5.258   2.327   5.774  0.2565  0.6125 -0.2968
   91SAPE  H10R 8908   5.291   2.380   5.866 -0.4967  1.5541 -0.5558
   91SAPE  H10S 8909   5.232   2.395   5.690 -0.0341 -1.2604 -1.7960
   91SAPE  C211 8910   5.367   2.239   5.719  0.2171 -0.0086 -0.9487
   91SAPE  H11R 8911   5.450   2.215   5.786 -0.1691 -2.0695 -1.1369
   91SAPE  C212 8912   5.390   2.203   5.591  0.6777  0.2104  0.1709
   91SAPE  H12R 8913   5.481   2.153   5.552  0.1290  1.4202 -2.9444
   91SAPE  C213 8914   5.296   2.229   5.476  0.4965 -0.8802  0.4637
   91SAPE  H13R 8915   5.248   2.329   5.471 -2.7278 -2.3391 -3.9421
   91SAPE  H13S 8916   5.205   2.165   5.478 -0.5658  0.5925  1.4192
   91SAPE  C214 8917   5.375   2.234   5.341  0.5308 -0.5666 -0.5268
   91SAPE  H14R 8918   5.463   2.300   5.342 -0.6988  1.1190  0.4416
   91SAPE  C215 8919   5.345   2.168   5.230 -0.2473 -0.8358  0.1458
   91SAPE  H15R 8920   5.415   2.201   5.152  1.2328  1.1003  2.1234
   91SAPE  C216 8921   5.235   2.076   5.187 -0.4222 -0.1900 -0.1484
   91SAPE  H16R 8922   5.169   2.129   5.115 -0.5309  0.7627  0.6294
   91SAPE  H16S 8923   5.167   2.054   5.273  1.1897  1.4714  1.6599
   91SAPE  C217 8924   5.280   1.936   5.129  0.1361 -0.0401 -0.2259
   91SAPE  H17R 8925   5.338   1.882   5.206  1.7123 -0.2853 -1.5375
   91SAPE  H17S 8926   5.336   1.948   5.034 -0.9185  0.9910 -0.7441
   91SAPE  C218 8927   5.153   1.852   5.104 -0.3128  0.6454 -0.1107
   91SAPE  H18R 8928   5.094   1.867   5.197  3.0986  2.4520  1.9497
   91SAPE  H18S 8929   5.174   1.743   5.093  1.3328  1.0705 -1.6216
   91SAPE  C219 8930   5.077   1.894   4.981  0.9144  0.0436  0.1870
   91SAPE  H19R 8931   5.131   1.868   4.887 -1.5179 -3.2828 -0.4611
   91SAPE  H19S 8932   5.059   2.003   4.985  0.6428  0.0994 -1.6169
   91SAPE  C220 8933   4.936   1.823   4.978 -0.0853  0.0797 -0.1562
   91SAPE  H20R 8934   4.894   1.796   5.078 -0.0480 -3.8300 -1.0112
   91SAPE  H20S 8935   4.943   1.727   4.921 -2.2399 -0.3546  0.2166
   91SAPE  H20T 8936   4.868   1.887   4.919 -1.6261 -0.2572  1.1928
   91SAPE   C33 8937   5.234   2.804   6.269  0.4443  0.4306 -0.6025
   91SAPE   H3X 8938   5.136   2.754   6.256  0.9335 -0.7136 -0.0296
   91SAPE   H3Y 8939   5.303   2.747   6.336 -0.4870 -1.5598 -1.2471
   91SAPE   C34 8940   5.288   2.820   6.129 -0.1699  0.1262  0.0037
   91SAPE   H4X 8941   5.342   2.726   6.105  0.0086  0.3377 -0.4282
   91SAPE   H4Y 8942   5.366   2.899   6.125 -0.8314  0.7934  0.1003
   91SAPE   C35 8943   5.186   2.869   6.026  0.4917 -0.6906 -0.2464
   91SAPE   H5X 8944   5.159   2.972   6.057  2.6112  0.1386 -0.9957
   91SAPE   H5Y 8945   5.088   2.817   6.028 -0.7889  1.4515 -2.3800
   91SAPE   C36 8946   5.237   2.862   5.881  0.1352  0.0721  0.5459
   91SAPE   H6X 8947   5.324   2.927   5.859  0.6688 -0.4805  0.9857
   91SAPE   H6Y 8948   5.158   2.885   5.806  1.6814  0.3134 -1.0859
   91SAPE   C37 8949   5.274   2.721   5.829  0.6632 -0.1366 -0.5213
   91SAPE   H7X 8950   5.183   2.658   5.831  1.9945 -2.2214 -1.3262
   91SAPE   H7Y 8951   5.352   2.668   5.888  1.1335  2.2080  1.0704
   91SAPE   C38 8952   5.326   2.731   5.677 -0.6755 -0.0558 -0.4395
   91SAPE   H8X 8953   5.351   2.628   5.645  1.7489 -0.2964  1.8511
   91SAPE   H8Y 8954   5.420   2.790   5.674 -0.2295 -0.7459 -0.3371
   91SAPE   C39 8955   5.213   2.790   5.587  0.0895 -0.2929 -0.1014
   91SAPE   H9X 8956   5.223   2.900   5.574 -1.8150 -0.0200  0.4103
   91SAPE   H9Y 8957   5.119   2.761   5.640  2.0653 -2.0968  2.7478
   91SAPE  C310 8958   5.195   2.725   5.453 -0.0659 -0.4770 -0.2290
   91SAPE  H10X 8959   5.133   2.633   5.459 -1.4404  0.4567  0.6393
   91SAPE  H10Y 8960   5.297   2.708   5.414 -0.1426 -2.6454  0.4192
   91SAPE  C311 8961   5.121   2.807   5.354  0.5470  0.0500  0.6638
   91SAPE  H11X 8962   5.191   2.885   5.317  0.2035 -0.4349 -1.1048
   91SAPE  H11Y 8963   5.026   2.849   5.394  0.1450  1.0555 -1.2003
   91SAPE  C312 8964   5.093   2.724   5.224  0.1074  0.0581  0.6431
   91SAPE  H12X 8965   5.020   2.644   5.251  0.6258 -0.5760  0.1969
   91SAPE  H12Y 8966   5.186   2.681   5.180  0.3467 -0.7512  1.8807
   91SAPE  C313 8967   5.025   2.817   5.119  0.0910 -0.2631  0.5264
   91SAPE  H13X 8968   5.085   2.902   5.079 -0.5410  0.6302  1.4447
   91SAPE  H13Y 8969   4.932   2.862   5.160 -0.2444 -0.5561  0.0969
   91SAPE  C314 8970   4.993   2.722   4.994  0.2064  0.0773 -0.5554
   91SAPE  H14X 8971   4.910   2.654   5.022 -0.0104 -0.5342 -2.5567
   91SAPE  H14Y 8972   5.070   2.648   4.964 -0.8369 -1.2647 -0.0013
   91SAPE  C315 8973   4.953   2.798   4.865  0.0892  0.4105  0.0977
   91SAPE  H15X 8974   4.975   2.735   4.776 -1.3063 -0.5600  0.4151
   91SAPE  H15Y 8975   5.001   2.899   4.860 -0.3656  0.6972  1.1481
   91SAPE  C316 8976   4.800   2.818   4.852  0.2517 -0.1396 -0.3049
   91SAPE  H16X 8977   4.773   2.837   4.958  0.4117 -3.2116  0.3951
   91SAPE  H16Y 8978   4.759   2.718   4.825  1.6415 -1.9571  3.4963
   91SAPE  C317 8979   4.767   2.936   4.764  0.8485 -0.1132 -0.3509
   91SAPE  H17X 8980   4.803   2.901   4.665  0.6826 -1.2887 -0.0091
   91SAPE  H17Y 8981   4.825   3.030   4.776  0.1662  0.9506 -4.0413
   91SAPE  C318 8982   4.613   2.961   4.753 -0.0524  1.0330  1.0710
   91SAPE  H18X 8983   4.557   2.866   4.751  0.1117  0.9186  1.7438
   91SAPE  H18Y 8984   4.581   3.006   4.656 -0.0726 -0.5687  0.3103
   91SAPE  H18Z 8985   4.576   3.026   4.835  1.3510 -0.1091  2.6588
   92SAPE     N 8986   0.390   5.133   7.146  0.2244 -0.2377  0.1213
   92SAPE   HN1 8987   0.463   5.204   7.167  1.2777 -1.8475  2.3988
   92SAPE   HN2 8988   0.297   5.176   7.130 -0.0571 -1.0239 -0.4519
   92SAPE   HN3 8989   0.386   5.069   7.228  1.0909 -0.3274  0.1011
   92SAPE   C12 8990   0.448   5.061   7.030 -0.9458  0.4548  0.8652
   92SAPE  H12A 8991   0.446   5.133   6.946  0.1880  1.1064  1.3697
   92SAPE  H12B 8992   0.377   4.980   7.005  0.6033 -1.2584  1.7230
   92SAPE   C11 8993   0.582   4.989   7.063 -0.1016  0.5104  0.0840
   92SAPE  H11A 8994   0.619   4.917   6.987  0.4172 -3.0806  3.4861
   92SAPE  H11B 8995   0.566   4.918   7.147  0.7041 -0.7300 -0.7737
   92SAPE     P 8996   0.832   5.037   7.108  0.1407  0.1798 -0.0056
   92SAPE   O13 8997   0.893   5.153   7.161 -0.2430 -0.3913 -0.1933
   92SAPE   O14 8998   0.841   4.911   7.186  0.3246 -0.4933  0.4954
   92SAPE   O12 8999   0.680   5.081   7.087 -0.3210  0.8324 -0.2668
   92SAPE   O11 9000   0.888   5.006   6.966  0.4002 -0.1760 -0.5531
   92SAPE    C1 9001   0.998   5.066   6.903  0.5534 -0.0380 -0.3544
   92SAPE    HA 9002   1.089   5.075   6.966 -0.4156  1.2237  0.9339
   92SAPE    HB 9003   1.034   5.002   6.819  2.9057  0.1737  0.4180
   92SAPE    C2 9004   0.965   5.215   6.867  0.1956 -0.4665  0.7100
   92SAPE    HS 9005   0.966   5.276   6.960 -2.1228 -0.3877  0.7346
   92SAPE   O21 9006   0.830   5.229   6.815  0.5054  0.0206  0.3014
   92SAPE   C21 9007   0.776   5.341   6.827 -0.1263  0.5780 -0.0318
   92SAPE   O22 9008   0.834   5.443   6.864 -0.4776 -0.2570 -0.5529
   92SAPE   C22 9009   0.629   5.354   6.780  1.0190  0.1452 -0.0437
   92SAPE   H2R 9010   0.590   5.252   6.757 -2.0959  0.7644  1.8735
   92SAPE   H2S 9011   0.563   5.385   6.863  0.3680  0.3343 -0.6228
   92SAPE    C3 9012   1.066   5.274   6.764  0.3947  0.3879 -0.5167
   92SAPE    HX 9013   1.167   5.283   6.808  0.1570  0.1464  0.0925
   92SAPE    HY 9014   1.020   5.371   6.738  1.0525  0.8900  0.1354
   92SAPE   O31 9015   1.065   5.193   6.648  0.2673 -0.2695  0.2333
   92SAPE   C31 9016   1.149   5.240   6.553  0.1106  0.3700 -0.8704
   92SAPE   O32 9017   1.225   5.329   6.562  0.0136 -0.3112 -0.0075
   92SAPE   C32 9018   1.139   5.151   6.431 -0.3196 -0.3038 -0.9799
   92SAPE   H2X 9019   1.037   5.159   6.388 -0.9745 -0.5408  0.4812
   92SAPE   H2Y 9020   1.158   5.048   6.469 -2.7775 -0.7058 -0.6720
   92SAPE   C23 9021   0.624   5.449   6.658  0.6135  0.2884 -0.8019
   92SAPE   H3R 9022   0.706   5.415   6.590  0.4527 -1.3672 -0.2188
   92SAPE   H3S 9023   0.636   5.547   6.708 -1.1751  1.0511 -1.7988
   92SAPE   C24 9024   0.483   5.461   6.584  0.0912 -0.2900  0.4755
   92SAPE   H4R 9025   0.499   5.525   6.494 -0.4368  0.4147  0.8661
   92SAPE   H4S 9026   0.410   5.517   6.647  1.1114  1.6210  0.0468
   92SAPE   C25 9027   0.429   5.328   6.532  0.2972 -0.7106 -0.4650
   92SAPE   H5R 9028   0.421   5.252   6.611  2.1235 -0.0670  0.4048
   92SAPE   C26 9029   0.393   5.304   6.405  0.2398  0.0873  0.5263
   92SAPE   H6R 9030   0.352   5.207   6.375 -0.8753  1.3352 -2.3759
   92SAPE   C27 9031   0.372   5.412   6.294 -0.4191  0.0996 -0.5993
   92SAPE   H7R 9032   0.457   5.418   6.223 -1.6933 -1.7300 -2.3794
   92SAPE   H7S 9033   0.359   5.513   6.338  0.6001 -0.0205 -0.0091
   92SAPE   C28 9034   0.249   5.385   6.220 -0.1897 -0.2684 -0.2050
   92SAPE   H8R 9035   0.157   5.428   6.261 -0.3629  0.7067 -1.5479
   92SAPE   C29 9036   0.232   5.336   6.094  0.4048  0.1206  0.0693
   92SAPE   H9R 9037   0.127   5.325   6.063  1.4253  0.1875 -4.0615
   92SAPE  C210 9038   0.337   5.277   5.996  0.2809  0.0193  0.1167
   92SAPE  H10R 9039   0.384   5.182   6.030  0.4248 -0.0790 -0.3470
   92SAPE  H10S 9040   0.429   5.340   5.996 -0.4596  1.1996  2.0098
   92SAPE  C211 9041   0.274   5.281   5.861 -0.1418 -0.3182 -0.5494
   92SAPE  H11R 9042   0.253   5.381   5.819  0.2944 -0.0480 -0.1347
   92SAPE  C212 9043   0.258   5.177   5.774  0.7498  0.1409 -0.3754
   92SAPE  H12R 9044   0.214   5.201   5.676 -0.3985 -1.9337 -0.4091
   92SAPE  C213 9045   0.294   5.032   5.801 -0.3190 -0.1910 -1.0465
   92SAPE  H13R 9046   0.385   5.047   5.863 -1.7743  3.0065  0.6090
   92SAPE  H13S 9047   0.314   4.978   5.706 -0.6299 -1.7808 -0.2500
   92SAPE  C214 9048   0.197   4.962   5.890  0.2713  1.0470  0.1389
   92SAPE  H14R 9049   0.147   5.022   5.968 -0.4488  0.5135  0.1043
   92SAPE  C215 9050   0.164   4.831   5.877  0.4027 -0.3836 -0.2218
   92SAPE  H15R 9051   0.096   4.788   5.951  0.5463 -0.6861 -0.2649
   92SAPE  C216 9052   0.210   4.741   5.760  0.3213  0.3392 -0.4421
   92SAPE  H16R 9053   0.262   4.785   5.672  0.7181  2.3275  0.7266
   92SAPE  H16S 9054   0.114   4.699   5.724  0.5491 -0.6847  0.1044
   92SAPE  C217 9055   0.288   4.615   5.801 -0.3617  0.3167  0.7161
   92SAPE  H17R 9056   0.288   4.539   5.720 -3.9796 -0.9248  1.7082
   92SAPE  H17S 9057   0.235   4.569   5.887 -1.2816  1.0587  0.5536
   92SAPE  C218 9058   0.432   4.634   5.847  0.0577 -0.5182  1.1024
   92SAPE  H18R 9059   0.482   4.536   5.861  1.4213 -0.4564 -2.2516
   92SAPE  H18S 9060   0.436   4.694   5.940  0.2143  1.7830 -0.2969
   92SAPE  C219 9061   0.530   4.706   5.739  0.1556  0.3783  0.0924
   92SAPE  H19R 9062   0.632   4.703   5.782 -0.3868  0.6886  1.4625
   92SAPE  H19S 9063   0.506   4.814   5.751 -1.3526  0.0502  0.2589
   92SAPE  C220 9064   0.519   4.666   5.591  0.0624  0.0233  0.5946
   92SAPE  H20R 9065   0.429   4.705   5.539  1.4478  1.6201 -0.7083
   92SAPE  H20S 9066   0.509   4.555   5.592 -2.1296  0.0650 -2.5910
   92SAPE  H20T 9067   0.609   4.701   5.537 -1.5476  1.9574 -0.9828
   92SAPE   C33 9068   1.249   5.172   6.324 -0.2908 -0.1426 -0.7497
   92SAPE   H3X 9069   1.344   5.127   6.358 -0.2567  0.0987 -0.5282
   92SAPE   H3Y 9070   1.271   5.279   6.304  0.9201 -0.4025 -0.8850
   92SAPE   C34 9071   1.201   5.112   6.195 -0.1686  0.1372 -0.2088
   92SAPE   H4X 9072   1.111   5.170   6.165 -1.4973 -1.2242  0.9948
   92SAPE   H4Y 9073   1.171   5.006   6.206  2.2148 -0.5266  0.3576
   92SAPE   C35 9074   1.306   5.116   6.081 -1.0672 -0.1112 -0.3431
   92SAPE   H5X 9075   1.403   5.073   6.117 -0.6430  0.4320 -0.8181
   92SAPE   H5Y 9076   1.341   5.220   6.069  0.2243 -0.1630  2.2130
   92SAPE   C36 9077   1.259   5.052   5.950  0.0431  0.7615 -0.1161
   92SAPE   H6X 9078   1.233   4.946   5.965 -0.1016  0.6956 -0.7724
   92SAPE   H6Y 9079   1.337   5.063   5.871 -0.9770 -0.5864 -1.3676
   92SAPE   C37 9080   1.136   5.122   5.897 -1.1798  0.0387 -0.8955
   92SAPE   H7X 9081   1.156   5.229   5.879  0.7329 -0.1156  0.0743
   92SAPE   H7Y 9082   1.054   5.116   5.972 -0.8568 -0.1367 -0.5503
   92SAPE   C38 9083   1.088   5.067   5.762 -0.0121 -0.7759  0.7323
   92SAPE   H8X 9084   1.127   4.965   5.742 -1.8687 -1.3442 -0.3053
   92SAPE   H8Y 9085   1.121   5.125   5.673 -0.7257 -1.1462  0.2115
   92SAPE   C39 9086   0.932   5.044   5.762 -0.1645 -0.3009  0.0561
   92SAPE   H9X 9087   0.914   4.982   5.853  0.0230  0.5830  0.7164
   92SAPE   H9Y 9088   0.918   4.997   5.662  0.5213  1.1895 -0.7652
   92SAPE  C310 9089   0.857   5.178   5.780 -0.3648 -0.6985 -0.0546
   92SAPE  H10X 9090   0.883   5.244   5.695 -1.1370  0.1117  0.3237
   92SAPE  H10Y 9091   0.890   5.242   5.865 -3.1201 -0.3422  0.8324
   92SAPE  C311 9092   0.701   5.176   5.777  0.3767  0.2044 -0.6022
   92SAPE  H11X 9093   0.660   5.260   5.838  1.3590 -0.7691  1.4991
   92SAPE  H11Y 9094   0.663   5.080   5.817  2.1047 -0.3603 -0.2383
   92SAPE  C312 9095   0.638   5.186   5.636 -0.6295  0.2431 -0.3803
   92SAPE  H12X 9096   0.662   5.292   5.614  1.0323  0.1253  0.7267
   92SAPE  H12Y 9097   0.528   5.172   5.647 -0.4951 -1.1806 -0.6731
   92SAPE  C313 9098   0.689   5.078   5.534  0.0510 -1.0215 -0.5205
   92SAPE  H13X 9099   0.657   4.980   5.573 -0.5286 -0.4156  0.5723
   92SAPE  H13Y 9100   0.799   5.063   5.529  0.1154 -0.8909  0.3383
   92SAPE  C314 9101   0.641   5.120   5.394  0.5169 -0.1377 -0.1592
   92SAPE  H14X 9102   0.704   5.069   5.318  0.4365  0.7650 -0.8453
   92SAPE  H14Y 9103   0.662   5.227   5.373  0.5100 -0.6239 -3.0200
   92SAPE  C315 9104   0.492   5.081   5.383 -0.1933  0.3579 -0.1351
   92SAPE  H15X 9105   0.438   5.156   5.445 -0.5890 -2.8009  3.7399
   92SAPE  H15Y 9106   0.476   4.974   5.409  1.5141  0.0426 -0.2867
   92SAPE  C316 9107   0.442   5.112   5.238 -0.4025  1.0069 -0.3823
   92SAPE  H16X 9108   0.492   5.051   5.160 -1.2620 -1.7978  1.1189
   92SAPE  H16Y 9109   0.474   5.218   5.228  0.6026  0.7238 -0.2896
   92SAPE  C317 9110   0.297   5.098   5.207 -0.3223  0.4973 -0.2137
   92SAPE  H17X 9111   0.242   5.167   5.274 -0.3691 -1.9810  2.5379
   92SAPE  H17Y 9112   0.269   4.993   5.233  0.3106 -0.9166 -4.4324
   92SAPE  C318 9113   0.284   5.123   5.062 -0.0360 -0.0162 -0.1749
   92SAPE  H18X 9114   0.343   5.048   5.005 -1.2889 -1.0115 -0.2197
   92SAPE  H18Y 9115   0.328   5.223   5.041  0.4877 -0.2883 -0.4046
   92SAPE  H18Z 9116   0.177   5.116   5.034 -0.4630  2.2603  0.7265
   93SAPE     N 9117   3.912   1.881   7.193  0.2249  0.1032  0.4184
   93SAPE   HN1 9118   3.889   1.974   7.155 -1.2530 -0.9330 -1.4144
   93SAPE   HN2 9119   3.831   1.833   7.237 -0.7396  2.1700  1.0117
   93SAPE   HN3 9120   3.978   1.893   7.272  0.3983 -0.2999  0.3382
   93SAPE   C12 9121   3.987   1.791   7.103  0.1174 -0.3220  0.7902
   93SAPE  H12A 9122   4.035   1.851   7.022 -1.2130 -2.1183 -1.4690
   93SAPE  H12B 9123   3.923   1.720   7.045 -1.4715  2.4161 -1.0363
   93SAPE   C11 9124   4.083   1.708   7.201  0.2729 -0.1942  0.8570
   93SAPE  H11A 9125   4.156   1.650   7.139 -0.9837 -1.2240  0.3065
   93SAPE  H11B 9126   4.030   1.636   7.267  1.3409 -2.6653 -0.8108
   93SAPE     P 9127   4.286   1.866   7.248  0.0941  0.3429 -0.1592
   93SAPE   O13 9128   4.289   2.006   7.302 -0.2886 -0.5062 -0.2380
   93SAPE   O14 9129   4.402   1.782   7.291  0.0922 -0.0820  0.5581
   93SAPE   O12 9130   4.151   1.792   7.291  0.1563  0.3775  0.0561
   93SAPE   O11 9131   4.282   1.880   7.092 -0.4039  0.0860 -0.2324
   93SAPE    C1 9132   4.400   1.904   7.015 -0.0200  0.3086  0.1661
   93SAPE    HA 9133   4.495   1.921   7.070  1.0305 -1.3377 -1.0355
   93SAPE    HB 9134   4.428   1.828   6.939  0.1454  1.3214 -0.8206
   93SAPE    C2 9135   4.372   2.031   6.931 -0.3808 -0.6892  0.7525
   93SAPE    HS 9136   4.350   2.111   7.005  1.4382  0.8523 -0.3026
   93SAPE   O21 9137   4.258   2.023   6.841 -0.3118  0.4110 -0.9966
   93SAPE   C21 9138   4.199   2.134   6.798 -0.1787  0.2532  0.8044
   93SAPE   O22 9139   4.246   2.244   6.796 -0.4257 -0.5787  0.2767
   93SAPE   C22 9140   4.054   2.100   6.743  0.3728 -0.0450  0.6741
   93SAPE   H2R 9141   4.060   2.017   6.670  1.7086 -0.9196  1.7196
   93SAPE   H2S 9142   4.000   2.066   6.834 -1.1496  1.9522  0.5791
   93SAPE    C3 9143   4.507   2.083   6.855  0.7252  0.3252 -0.5149
   93SAPE    HX 9144   4.594   2.082   6.924  0.3570  0.4098 -0.0447
   93SAPE    HY 9145   4.491   2.184   6.812  0.9553  0.6044  0.0426
   93SAPE   O31 9146   4.538   1.996   6.740  0.2490 -0.0135  0.1017
   93SAPE   C31 9147   4.658   2.018   6.680  0.2947 -0.2024 -0.7689
   93SAPE   O32 9148   4.745   2.085   6.721  0.3811  0.4250 -0.1150
   93SAPE   C32 9149   4.675   1.947   6.551 -0.0592  0.0376 -0.1585
   93SAPE   H2X 9150   4.657   2.018   6.468 -3.0423  0.9022  1.1134
   93SAPE   H2Y 9151   4.590   1.876   6.549 -0.8903  0.6486  4.3617
   93SAPE   C23 9152   3.986   2.217   6.678 -0.0057 -0.1563 -0.7811
   93SAPE   H3R 9153   3.990   2.302   6.749 -0.5650 -2.0464  1.6267
   93SAPE   H3S 9154   3.882   2.192   6.647  0.8295 -0.6268 -3.5314
   93SAPE   C24 9155   4.048   2.259   6.547  0.0914  0.7242  0.2879
   93SAPE   H4R 9156   4.026   2.179   6.473  0.8821 -0.9559  1.7811
   93SAPE   H4S 9157   4.158   2.259   6.557  0.1686 -0.5552 -0.4053
   93SAPE   C25 9158   4.007   2.395   6.505 -0.0728  0.0143 -0.7202
   93SAPE   H5R 9159   3.974   2.456   6.590 -1.3989 -1.6421  0.0380
   93SAPE   C26 9160   4.027   2.444   6.384  0.6232  0.0568  0.3224
   93SAPE   H6R 9161   3.997   2.548   6.364 -0.6725  0.2956  3.0479
   93SAPE   C27 9162   4.076   2.370   6.264 -0.2402  0.5953  0.2426
   93SAPE   H7R 9163   4.079   2.261   6.285  0.3366  0.4556 -0.5254
   93SAPE   H7S 9164   4.181   2.401   6.245  0.1367 -1.4333 -1.3605
   93SAPE   C28 9165   4.002   2.396   6.131 -0.2310  0.8326 -0.2518
   93SAPE   H8R 9166   3.916   2.463   6.147 -1.8206 -1.3235  0.7139
   93SAPE   C29 9167   4.028   2.339   6.006  0.2877 -0.2821 -0.2761
   93SAPE   H9R 9168   3.961   2.362   5.922 -0.8039 -1.9268  0.1075
   93SAPE  C210 9169   4.149   2.245   5.981  0.7566 -0.8916 -0.1192
   93SAPE  H10R 9170   4.218   2.241   6.068  0.7458  1.6978  0.1057
   93SAPE  H10S 9171   4.212   2.299   5.907  0.5478  3.0035  2.2578
   93SAPE  C211 9172   4.123   2.099   5.949 -0.1316  0.0880 -0.0613
   93SAPE  H11R 9173   4.071   2.042   6.028  1.3394 -0.2569  0.7122
   93SAPE  C212 9174   4.120   2.035   5.830 -0.5504 -0.4681  0.5257
   93SAPE  H12R 9175   4.126   1.926   5.843 -1.0355 -0.7368 -1.2290
   93SAPE  C213 9176   4.172   2.100   5.703 -0.1076  0.7233  0.2242
   93SAPE  H13R 9177   4.279   2.128   5.715  0.0039  0.6217 -0.4828
   93SAPE  H13S 9178   4.121   2.198   5.687  0.0860  0.4325 -2.7441
   93SAPE  C214 9179   4.157   2.005   5.587 -0.1947  0.5971  0.3736
   93SAPE  H14R 9180   4.073   2.036   5.523 -1.9597  0.2426  2.4114
   93SAPE  C215 9181   4.226   1.900   5.553 -1.1579 -0.2023  0.1203
   93SAPE  H15R 9182   4.205   1.847   5.459 -2.1050  0.3602  0.0059
   93SAPE  C216 9183   4.346   1.844   5.630  0.7656 -0.3716 -0.2165
   93SAPE  H16R 9184   4.324   1.741   5.665  2.0684 -0.3724  0.6747
   93SAPE  H16S 9185   4.381   1.910   5.713  1.7888  0.2557 -1.1295
   93SAPE  C217 9186   4.473   1.823   5.532  0.2084 -0.1796 -0.3054
   93SAPE  H17R 9187   4.552   1.785   5.600  1.6887  2.4231 -0.4689
   93SAPE  H17S 9188   4.499   1.928   5.507 -1.4709  0.6650  1.2889
   93SAPE  C218 9189   4.464   1.735   5.406 -0.5373  0.1431 -0.6346
   93SAPE  H18R 9190   4.387   1.774   5.336  0.1429  0.8043 -1.0225
   93SAPE  H18S 9191   4.433   1.632   5.433 -1.7718  0.7290  0.2881
   93SAPE  C219 9192   4.600   1.730   5.335  0.2526 -0.3702  0.7030
   93SAPE  H19R 9193   4.671   1.692   5.412 -1.2627  0.0749  2.4134
   93SAPE  H19S 9194   4.618   1.833   5.297 -2.5182 -1.1910 -3.4905
   93SAPE  C220 9195   4.612   1.627   5.225 -0.5088  0.4273 -0.2455
   93SAPE  H20R 9196   4.716   1.635   5.186 -1.2910  1.0061 -2.3198
   93SAPE  H20S 9197   4.535   1.645   5.147 -0.4106 -0.2132 -0.4893
   93SAPE  H20T 9198   4.598   1.525   5.267  0.5577  1.1454  1.9970
   93SAPE   C33 9199   4.803   1.868   6.527  0.3874  0.1418  0.0013
   93SAPE   H3X 9200   4.825   1.793   6.606  1.0546  2.1814  1.8712
   93SAPE   H3Y 9201   4.894   1.932   6.530  0.6239 -0.2097  1.6142
   93SAPE   C34 9202   4.784   1.793   6.397 -0.4660 -0.6342 -0.0286
   93SAPE   H4X 9203   4.797   1.861   6.310 -1.5705 -0.7576 -0.2965
   93SAPE   H4Y 9204   4.686   1.742   6.389 -0.8385  0.2091 -1.2105
   93SAPE   C35 9205   4.903   1.682   6.382  0.0498 -0.0080 -0.0104
   93SAPE   H5X 9206   4.866   1.585   6.423  1.0100 -0.6803 -0.7198
   93SAPE   H5Y 9207   4.983   1.713   6.452  1.2006 -0.7205 -0.9847
   93SAPE   C36 9208   4.950   1.673   6.239 -0.1314  0.2069 -0.1718
   93SAPE   H6X 9209   4.972   1.776   6.204 -0.8866  0.1422 -0.8641
   93SAPE   H6Y 9210   4.870   1.645   6.168 -0.7615  1.4801  0.0090
   93SAPE   C37 9211   5.076   1.589   6.224 -0.3225  0.3245 -0.0719
   93SAPE   H7X 9212   5.088   1.518   6.309 -0.0816  0.2624 -0.1574
   93SAPE   H7Y 9213   5.167   1.652   6.222 -0.1477  0.1201  0.8870
   93SAPE   C38 9214   5.059   1.493   6.100  0.2913 -0.5286 -1.3158
   93SAPE   H8X 9215   4.966   1.432   6.108 -0.5824  0.6882 -1.9031
   93SAPE   H8Y 9216   5.142   1.419   6.098 -0.5271 -1.4516 -2.3218
   93SAPE   C39 9217   5.064   1.577   5.971 -0.7504 -0.3638 -0.3879
   93SAPE   H9X 9218   5.164   1.625   5.972  0.1572 -1.6349 -5.1255
   93SAPE   H9Y 9219   5.005   1.670   5.957 -0.1451  0.0321 -0.3904
   93SAPE  C310 9220   5.045   1.481   5.855 -0.1749  0.7759  0.1672
   93SAPE  H10X 9221   4.937   1.454   5.859  0.0048  0.1618  1.1006
   93SAPE  H10Y 9222   5.098   1.385   5.873  0.3837  0.7122 -1.5855
   93SAPE  C311 9223   5.071   1.532   5.714 -0.0166 -0.4953  0.5366
   93SAPE  H11X 9224   5.174   1.572   5.706 -1.0756  2.3585 -0.0642
   93SAPE  H11Y 9225   5.003   1.620   5.704  0.5090 -0.0630  0.7124
   93SAPE  C312 9226   5.031   1.425   5.613  0.1533  0.3533  0.4695
   93SAPE  H12X 9227   4.926   1.390   5.624  0.0690  0.4988  0.1297
   93SAPE  H12Y 9228   5.088   1.332   5.634  1.5334  0.9979 -0.2655
   93SAPE  C313 9229   5.049   1.461   5.465  0.0991 -0.0104 -0.2384
   93SAPE  H13X 9230   5.156   1.462   5.435  1.1932 -0.6694  3.1918
   93SAPE  H13Y 9231   5.002   1.559   5.440 -0.4017 -0.4004 -0.8706
   93SAPE  C314 9232   4.986   1.360   5.367 -0.7470 -0.4624 -0.0725
   93SAPE  H14X 9233   4.877   1.353   5.386 -0.8880 -3.9444 -1.4096
   93SAPE  H14Y 9234   5.037   1.262   5.372 -1.8392 -1.0259  0.1745
   93SAPE  C315 9235   4.994   1.401   5.224 -0.1681 -0.0366  0.0979
   93SAPE  H15X 9236   5.101   1.410   5.193 -0.8830  3.0090 -1.9802
   93SAPE  H15Y 9237   4.953   1.505   5.223 -0.6850 -0.2367 -0.8344
   93SAPE  C316 9238   4.925   1.304   5.123  0.0623  0.2142  0.1387
   93SAPE  H16X 9239   4.827   1.272   5.166 -1.3766  3.1711 -0.6459
   93SAPE  H16Y 9240   4.993   1.216   5.127  1.4251  1.2154 -0.3876
   93SAPE  C317 9241   4.927   1.358   4.983 -0.1466  0.2457  0.0758
   93SAPE  H17X 9242   5.027   1.404   4.970  0.0537 -0.6406 -1.8470
   93SAPE  H17Y 9243   4.849   1.435   4.967  2.2404  2.3289 -2.3074
   93SAPE  C318 9244   4.916   1.247   4.875 -0.3124 -0.2151 -0.0218
   93SAPE  H18X 9245   4.832   1.182   4.907 -0.0452 -0.4205  0.2669
   93SAPE  H18Y 9246   5.002   1.177   4.875 -1.3941 -1.6011  0.6868
   93SAPE  H18Z 9247   4.893   1.292   4.776  0.2844  0.8925  0.3169
   94SAPE     N 9248   4.077   3.887   7.370  0.5891 -0.3208 -0.0393
   94SAPE   HN1 9249   3.996   3.856   7.427 -0.5434  1.7447 -0.4588
   94SAPE   HN2 9250   4.036   3.969   7.320 -1.2507 -1.0514  0.1751
   94SAPE   HN3 9251   4.096   3.815   7.296 -1.0635 -1.5156  0.6222
   94SAPE   C12 9252   4.207   3.925   7.434 -0.0364  0.2513  0.0070
   94SAPE  H12A 9253   4.282   3.847   7.410 -1.1762 -1.4672  1.6894
   94SAPE  H12B 9254   4.195   3.919   7.545 -0.2662 -0.4005 -0.0465
   94SAPE   C11 9255   4.251   4.062   7.393  0.2484  0.0234 -0.8065
   94SAPE  H11A 9256   4.341   4.076   7.456  0.6425 -0.1376 -1.3320
   94SAPE  H11B 9257   4.173   4.134   7.424 -1.1281 -1.8533  0.3062
   94SAPE     P 9258   4.373   4.166   7.192  0.0289 -0.1180 -0.0907
   94SAPE   O13 9259   4.392   4.277   7.293 -0.5720 -0.1703 -0.1584
   94SAPE   O14 9260   4.496   4.097   7.144  0.1915  0.4328 -0.0537
   94SAPE   O12 9261   4.272   4.061   7.249 -0.6405 -0.1023 -0.1788
   94SAPE   O11 9262   4.303   4.227   7.064  0.2535  0.0007 -0.4061
   94SAPE    C1 9263   4.214   4.144   6.984  0.4108 -0.3522 -0.3776
   94SAPE    HA 9264   4.282   4.064   6.950 -0.3116 -1.2048  0.1393
   94SAPE    HB 9265   4.133   4.103   7.048 -1.1973  0.6812 -1.6535
   94SAPE    C2 9266   4.143   4.215   6.856 -0.0430  0.6841  0.3912
   94SAPE    HS 9267   4.111   4.131   6.792  3.3008 -0.4055 -0.0493
   94SAPE   O21 9268   4.226   4.313   6.781 -0.2432 -0.6263 -0.5208
   94SAPE   C21 9269   4.322   4.248   6.711  0.0271  0.0792  0.0442
   94SAPE   O22 9270   4.337   4.130   6.709  0.9221 -0.1897 -0.3040
   94SAPE   C22 9271   4.398   4.348   6.626  0.1556 -0.0024  0.4488
   94SAPE   H2R 9272   4.432   4.433   6.689 -0.6861 -0.1098  1.0607
   94SAPE   H2S 9273   4.487   4.292   6.590  0.0520 -0.3262  0.6919
   94SAPE    C3 9274   4.021   4.294   6.916 -0.2471 -0.0432 -0.0913
   94SAPE    HX 9275   4.049   4.348   7.008 -1.0771  2.3294 -1.1596
   94SAPE    HY 9276   3.952   4.216   6.954  1.7502 -1.0656  1.6761
   94SAPE   O31 9277   3.955   4.401   6.841  0.6285  0.2205 -0.6510
   94SAPE   C31 9278   3.877   4.368   6.742  0.9020 -0.8274 -0.8534
   94SAPE   O32 9279   3.848   4.254   6.711  0.8263  0.0544  0.2741
   94SAPE   C32 9280   3.834   4.489   6.664 -0.4268  0.2264  0.1016
   94SAPE   H2X 9281   3.837   4.577   6.732 -0.0153  0.1056  0.2435
   94SAPE   H2Y 9282   3.735   4.478   6.615  0.9674 -1.1113 -2.6633
   94SAPE   C23 9283   4.324   4.396   6.490  0.3994 -0.4432  0.5663
   94SAPE   H3R 9284   4.404   4.452   6.436 -0.5717 -0.7525 -1.2766
   94SAPE   H3S 9285   4.250   4.473   6.520  1.3894  1.6299 -1.9211
   94SAPE   C24 9286   4.279   4.281   6.401  0.7989 -0.6711 -0.2733
   94SAPE   H4R 9287   4.216   4.214   6.464  2.1177 -2.3178 -0.6350
   94SAPE   H4S 9288   4.363   4.219   6.364  0.9763 -0.9700  0.6115
   94SAPE   C25 9289   4.189   4.330   6.285 -0.8397 -0.4133 -0.6947
   94SAPE   H5R 9290   4.089   4.372   6.303 -0.1257  1.5029 -0.8929
   94SAPE   C26 9291   4.242   4.324   6.162 -0.0143 -0.4721  0.6107
   94SAPE   H6R 9292   4.171   4.366   6.089 -1.3447 -0.4792  1.8566
   94SAPE   C27 9293   4.370   4.264   6.110 -0.0791 -0.4237  0.1650
   94SAPE   H7R 9294   4.436   4.232   6.194 -0.3747 -0.8648  0.2353
   94SAPE   H7S 9295   4.435   4.347   6.076  0.0243 -0.5480  0.0561
   94SAPE   C28 9296   4.364   4.148   6.019 -0.3346 -0.2180  0.4669
   94SAPE   H8R 9297   4.425   4.062   6.049  0.7386  0.6303  0.7630
   94SAPE   C29 9298   4.298   4.146   5.903  0.1440  0.2894  0.5358
   94SAPE   H9R 9299   4.305   4.054   5.844 -1.4898  0.4006  0.1244
   94SAPE  C210 9300   4.218   4.258   5.840 -0.0850  0.6496 -0.3537
   94SAPE  H10R 9301   4.266   4.348   5.883  1.9355 -0.5377  0.0094
   94SAPE  H10S 9302   4.120   4.245   5.891  0.9175 -0.9728  1.3006
   94SAPE  C211 9303   4.218   4.250   5.689  0.2362  0.2947 -0.4269
   94SAPE  H11R 9304   4.164   4.163   5.649  2.7582 -1.5233 -0.0551
   94SAPE  C212 9305   4.279   4.340   5.604 -0.7164  0.1930 -0.3718
   94SAPE  H12R 9306   4.274   4.328   5.495  1.0345  2.1521 -0.7275
   94SAPE  C213 9307   4.370   4.455   5.638  0.4189 -0.0376  0.2132
   94SAPE  H13R 9308   4.330   4.525   5.714 -3.1744 -1.3611 -0.2723
   94SAPE  H13S 9309   4.381   4.506   5.540 -0.0654 -3.3969 -1.7587
   94SAPE  C214 9310   4.505   4.414   5.689  0.0484  0.4266  0.1021
   94SAPE  H14R 9311   4.518   4.439   5.796 -0.6862  0.5763  0.1609
   94SAPE  C215 9312   4.608   4.360   5.617 -0.4581  0.6471  0.3854
   94SAPE  H15R 9313   4.700   4.334   5.673  0.0271 -0.5287 -0.9141
   94SAPE  C216 9314   4.597   4.338   5.467  0.7494  0.8226 -0.6728
   94SAPE  H16R 9315   4.492   4.363   5.442  0.2630  0.0491  0.5079
   94SAPE  H16S 9316   4.589   4.228   5.456  1.6231  0.5201  1.2047
   94SAPE  C217 9317   4.701   4.400   5.378  0.5630  0.0969 -0.0688
   94SAPE  H17R 9318   4.800   4.348   5.375  0.7688  0.1173  2.9879
   94SAPE  H17S 9319   4.727   4.502   5.414 -0.4908  1.2337 -2.3252
   94SAPE  C218 9320   4.659   4.422   5.231 -0.0195 -0.1169  0.5679
   94SAPE  H18R 9321   4.739   4.471   5.171 -0.4029 -1.3105 -0.9988
   94SAPE  H18S 9322   4.572   4.491   5.218  1.0020  0.6954 -3.5453
   94SAPE  C219 9323   4.638   4.294   5.151 -0.1672 -0.3867 -0.0147
   94SAPE  H19R 9324   4.590   4.222   5.221 -1.2860 -2.4635 -2.7566
   94SAPE  H19S 9325   4.736   4.254   5.120 -0.3461  1.3135 -3.1400
   94SAPE  C220 9326   4.554   4.314   5.028  0.0051 -0.4302  0.5511
   94SAPE  H20R 9327   4.457   4.362   5.052  1.0184  2.3488 -0.5373
   94SAPE  H20S 9328   4.536   4.223   4.967 -4.9863 -0.6503  1.9625
   94SAPE  H20T 9329   4.604   4.387   4.960 -0.5974  0.4041  0.9868
   94SAPE   C33 9330   3.928   4.504   6.542  0.5304  0.7543 -0.3989
   94SAPE   H3X 9331   3.937   4.410   6.483  1.8471  1.1404 -0.8651
   94SAPE   H3Y 9332   4.027   4.531   6.587  0.3986 -1.1763  1.2006
   94SAPE   C34 9333   3.891   4.619   6.443 -0.1444 -0.7250 -0.4828
   94SAPE   H4X 9334   3.889   4.714   6.501  1.9635 -0.7752 -0.2289
   94SAPE   H4Y 9335   3.788   4.610   6.402 -0.6039 -0.0250  0.4898
   94SAPE   C35 9336   3.991   4.631   6.328  0.2448 -0.2758 -0.5552
   94SAPE   H5X 9337   3.977   4.528   6.288  0.9620 -1.1049  1.2137
   94SAPE   H5Y 9338   4.095   4.647   6.366 -0.2284 -0.1256  0.7469
   94SAPE   C36 9339   3.974   4.746   6.234  0.6719  0.5083 -0.6005
   94SAPE   H6X 9340   3.991   4.832   6.302  1.0264 -1.7146  2.3084
   94SAPE   H6Y 9341   3.869   4.746   6.198  0.7117 -2.3128 -0.9100
   94SAPE   C37 9342   4.074   4.753   6.127  0.7992 -0.5926  0.2153
   94SAPE   H7X 9343   4.155   4.680   6.150 -0.8280 -2.1590  1.2206
   94SAPE   H7Y 9344   4.104   4.860   6.133 -2.6934  0.4323  1.4845
   94SAPE   C38 9345   4.032   4.709   5.988 -0.2504 -0.0183  0.9677
   94SAPE   H8X 9346   3.936   4.756   5.958  1.1963  1.5174 -1.7523
   94SAPE   H8Y 9347   4.026   4.599   6.003  5.1218 -0.8450 -0.5644
   94SAPE   C39 9348   4.124   4.753   5.876  0.0193 -0.1429 -0.2300
   94SAPE   H9X 9349   4.216   4.691   5.872  0.0714  0.0023 -1.9270
   94SAPE   H9Y 9350   4.167   4.854   5.890  3.0544 -1.0756 -1.9114
   94SAPE  C310 9351   4.055   4.737   5.746 -0.3170 -0.4768  0.4929
   94SAPE  H10X 9352   3.970   4.807   5.752 -0.5447 -0.8399  2.1260
   94SAPE  H10Y 9353   4.018   4.633   5.761  3.0920 -1.7729  0.8836
   94SAPE  C311 9354   4.147   4.762   5.627  0.2620 -0.1086  0.9528
   94SAPE  H11X 9355   4.231   4.690   5.632 -0.6114 -1.1392  1.3017
   94SAPE  H11Y 9356   4.186   4.866   5.629  0.4689 -0.1943  1.5877
   94SAPE  C312 9357   4.066   4.727   5.500 -0.7901 -0.0847 -0.0535
   94SAPE  H12X 9358   3.972   4.786   5.497 -1.0330 -0.4662 -0.0508
   94SAPE  H12Y 9359   4.043   4.619   5.509 -0.6743 -0.0213  1.1309
   94SAPE  C313 9360   4.130   4.745   5.360 -0.3255  0.3821  0.2648
   94SAPE  H13X 9361   4.161   4.851   5.358 -0.9957  0.6042  1.1795
   94SAPE  H13Y 9362   4.053   4.729   5.282  0.9819 -3.1989 -0.4901
   94SAPE  C314 9363   4.246   4.642   5.325  0.4554  0.0550 -0.1623
   94SAPE  H14X 9364   4.195   4.546   5.350  2.5152 -0.8807  0.7325
   94SAPE  H14Y 9365   4.322   4.669   5.401 -1.0132  1.1848  0.9697
   94SAPE  C315 9366   4.296   4.653   5.184  0.4523 -0.1268  0.0342
   94SAPE  H15X 9367   4.200   4.671   5.132 -0.9786  0.0291  2.5705
   94SAPE  H15Y 9368   4.339   4.560   5.142  0.6816 -0.2278  0.4881
   94SAPE  C316 9369   4.394   4.770   5.159  0.0296 -0.2462  0.2258
   94SAPE  H16X 9370   4.495   4.736   5.189  1.0515  0.1572 -2.4666
   94SAPE  H16Y 9371   4.371   4.860   5.219  0.9007 -1.0866  1.8825
   94SAPE  C317 9372   4.409   4.790   5.011  0.2226  0.0513  0.2056
   94SAPE  H17X 9373   4.316   4.842   4.978  0.0416  0.9329  1.9895
   94SAPE  H17Y 9374   4.427   4.696   4.955  0.5542 -0.3473  0.9851
   94SAPE  C318 9375   4.527   4.888   4.978 -0.3658 -0.2249 -0.1564
   94SAPE  H18X 9376   4.630   4.849   4.995 -1.2953 -1.7476  2.7554
   94SAPE  H18Y 9377   4.514   4.979   5.040  1.9967  0.2213 -0.2308
   94SAPE  H18Z 9378   4.525   4.924   4.873 -3.2983  1.3804  0.3394
   95SAPE     N 9379   5.845   2.070   6.818 -0.5082  0.0651  0.0155
   95SAPE   HN1 9380   5.744   2.055   6.800 -0.6582  0.1880  0.7638
   95SAPE   HN2 9381   5.868   1.983   6.869  0.6092  0.7662  0.7598
   95SAPE   HN3 9382   5.849   2.158   6.873  0.1720  1.0996 -1.6150
   95SAPE   C12 9383   5.946   2.099   6.705  0.9902  0.1135  0.7701
   95SAPE  H12A 9384   5.953   2.004   6.649 -0.6845  1.3338 -1.6733
   95SAPE  H12B 9385   6.043   2.122   6.753  1.9733 -0.1112 -1.0256
   95SAPE   C11 9386   5.902   2.207   6.604  0.2189 -0.3568 -0.6034
   95SAPE  H11A 9387   5.795   2.189   6.580  0.2310 -3.1165  1.0005
   95SAPE  H11B 9388   5.964   2.197   6.512  2.8247 -0.6257  1.0909
   95SAPE     P 9389   6.042   2.427   6.639  0.1084  0.9359  0.0854
   95SAPE   O13 9390   6.015   2.563   6.680 -0.0606 -0.1664 -0.5023
   95SAPE   O14 9391   6.158   2.361   6.705  0.3055  0.2531  0.3093
   95SAPE   O12 9392   5.915   2.339   6.662 -0.3838  0.2229 -0.1708
   95SAPE   O11 9393   6.064   2.430   6.483 -0.3334  0.3496 -0.0492
   95SAPE    C1 9394   5.966   2.416   6.378  0.3045 -0.3165  0.5527
   95SAPE    HA 9395   5.974   2.314   6.334 -0.4883 -0.1607  0.0069
   95SAPE    HB 9396   5.859   2.437   6.403 -0.1507  2.1336 -2.7166
   95SAPE    C2 9397   5.985   2.522   6.265 -0.5088  0.9437 -0.4861
   95SAPE    HS 9398   5.904   2.499   6.192 -1.6047  1.1393  0.6484
   95SAPE   O21 9399   6.124   2.505   6.206  0.6321  0.0199 -0.4223
   95SAPE   C21 9400   6.146   2.409   6.117 -0.0866 -0.0922  0.3288
   95SAPE   O22 9401   6.058   2.333   6.076  0.2278 -0.6972  0.4098
   95SAPE   C22 9402   6.288   2.418   6.060 -0.4790  0.0463  0.0320
   95SAPE   H2R 9403   6.341   2.505   6.105 -0.8476 -0.2253  1.0126
   95SAPE   H2S 9404   6.332   2.322   6.094 -1.1871 -0.2818  0.0224
   95SAPE    C3 9405   5.957   2.666   6.309  0.2808 -0.2967  0.3403
   95SAPE    HX 9406   6.048   2.691   6.368  0.1832 -1.3128  0.9282
   95SAPE    HY 9407   5.873   2.663   6.381  1.9610 -0.6229  2.3729
   95SAPE   O31 9408   5.933   2.758   6.199 -0.3212  0.2220  0.4234
   95SAPE   C31 9409   6.046   2.809   6.150 -0.9346 -0.7261  0.9329
   95SAPE   O32 9410   6.147   2.835   6.216 -0.5680  0.1433  0.5596
   95SAPE   C32 9411   6.034   2.833   5.997  0.0631 -0.6403  0.1389
   95SAPE   H2X 9412   6.105   2.917   5.980  0.6231 -0.8441  1.3557
   95SAPE   H2Y 9413   5.933   2.870   5.969  2.0147  3.4542 -2.4536
   95SAPE   C23 9414   6.289   2.411   5.903  0.0413  0.4607  0.0798
   95SAPE   H3R 9415   6.226   2.488   5.854 -0.1758  0.4338  0.3167
   95SAPE   H3S 9416   6.244   2.312   5.881 -2.1237  1.3709  0.1412
   95SAPE   C24 9417   6.432   2.428   5.848  0.2273  0.9889 -0.2418
   95SAPE   H4R 9418   6.500   2.357   5.899  1.3894  1.1326 -1.5449
   95SAPE   H4S 9419   6.473   2.529   5.873 -0.0366  0.6890  1.5662
   95SAPE   C25 9420   6.441   2.411   5.697 -0.1040  0.6053 -0.5341
   95SAPE   H5R 9421   6.432   2.509   5.648  0.5957  0.7261 -0.4360
   95SAPE   C26 9422   6.469   2.293   5.636  0.3578  0.6467  0.2935
   95SAPE   H6R 9423   6.492   2.286   5.529  1.3995  1.0371  0.4738
   95SAPE   C27 9424   6.472   2.158   5.702  0.3154  0.0604 -0.8538
   95SAPE   H7R 9425   6.443   2.172   5.808  1.4421  2.3785 -0.7798
   95SAPE   H7S 9426   6.575   2.120   5.687  0.9884  1.0644  0.9690
   95SAPE   C28 9427   6.378   2.046   5.662  0.1304 -0.2432  0.0046
   95SAPE   H8R 9428   6.297   2.031   5.734 -0.2209  0.5364 -0.2189
   95SAPE   C29 9429   6.379   1.973   5.548 -0.1918  0.0666  0.8402
   95SAPE   H9R 9430   6.298   1.901   5.527  1.4643 -1.4795 -0.6058
   95SAPE  C210 9431   6.486   1.982   5.441 -0.2973  0.3697 -0.1597
   95SAPE  H10R 9432   6.528   2.085   5.440  0.6486  0.1737  3.3536
   95SAPE  H10S 9433   6.443   1.963   5.341 -1.9620  0.4157  0.5081
   95SAPE  C211 9434   6.607   1.891   5.471 -0.8777 -0.1163 -0.1844
   95SAPE  H11R 9435   6.667   1.919   5.558 -1.9690  0.2440  0.4753
   95SAPE  C212 9436   6.637   1.782   5.400  0.1338  0.5838  0.1234
   95SAPE  H12R 9437   6.731   1.726   5.409  0.2853  0.8774  0.3824
   95SAPE  C213 9438   6.558   1.732   5.281  0.1598 -0.8485  0.2281
   95SAPE  H13R 9439   6.618   1.657   5.225  2.9603  0.4743  1.3000
   95SAPE  H13S 9440   6.527   1.819   5.219 -1.4709 -1.4334  0.1692
   95SAPE  C214 9441   6.436   1.653   5.332  0.4700  0.1179 -0.2055
   95SAPE  H14R 9442   6.353   1.712   5.373  0.8266  0.4675  0.0231
   95SAPE  C215 9443   6.418   1.518   5.306  0.2531 -0.4040 -0.3306
   95SAPE  H15R 9444   6.328   1.473   5.352  1.4998 -0.3292  2.3560
   95SAPE  C216 9445   6.521   1.419   5.259 -0.0274  0.5335 -0.4001
   95SAPE  H16R 9446   6.608   1.410   5.328  0.6432 -1.7830 -1.4338
   95SAPE  H16S 9447   6.558   1.448   5.158  0.2861  2.4147  0.2026
   95SAPE  C217 9448   6.454   1.291   5.259  0.8507 -0.0504 -0.5027
   95SAPE  H17R 9449   6.420   1.267   5.362  1.6394 -0.0232 -0.2284
   95SAPE  H17S 9450   6.533   1.216   5.240 -0.3359 -1.4079 -0.2719
   95SAPE  C218 9451   6.342   1.281   5.155 -0.7981 -0.6155 -0.9893
   95SAPE  H18R 9452   6.386   1.334   5.067  1.2451  1.4249  1.1091
   95SAPE  H18S 9453   6.262   1.351   5.188 -0.2073 -1.2379  2.0338
   95SAPE  C219 9454   6.296   1.136   5.130  0.9856  0.4066 -0.6653
   95SAPE  H19R 9455   6.199   1.139   5.075  0.9917  2.0139 -0.6317
   95SAPE  H19S 9456   6.293   1.084   5.228  1.2317 -0.4214 -1.0899
   95SAPE  C220 9457   6.407   1.063   5.052  0.1384  0.2184 -1.0383
   95SAPE  H20R 9458   6.486   1.047   5.128 -2.1677 -2.4285  1.0685
   95SAPE  H20S 9459   6.443   1.116   4.961 -0.0086 -1.3286 -2.0446
   95SAPE  H20T 9460   6.370   0.963   5.019  1.2361 -0.2510 -0.8901
   95SAPE   C33 9461   6.065   2.708   5.910  0.1214  0.6132 -0.9720
   95SAPE   H3X 9462   5.995   2.629   5.944  0.4408  0.3748 -0.8581
   95SAPE   H3Y 9463   6.164   2.664   5.935 -0.9489 -1.6381 -0.4083
   95SAPE   C34 9464   6.041   2.738   5.761 -0.1697 -0.1580 -0.5455
   95SAPE   H4X 9465   5.932   2.747   5.739 -0.4932 -2.0468  0.0728
   95SAPE   H4Y 9466   6.072   2.647   5.704 -0.7354 -0.5969 -0.1672
   95SAPE   C35 9467   6.119   2.858   5.711  0.2048 -0.6181 -0.0494
   95SAPE   H5X 9468   6.216   2.876   5.762 -1.0343  0.1749  2.2206
   95SAPE   H5Y 9469   6.065   2.947   5.751 -1.0613 -1.6500  0.6478
   95SAPE   C36 9470   6.132   2.871   5.562  0.3609 -0.4073  0.7728
   95SAPE   H6X 9471   6.187   2.960   5.524 -2.4490  0.5910 -1.2822
   95SAPE   H6Y 9472   6.030   2.876   5.518 -0.3647  0.8346  2.4289
   95SAPE   C37 9473   6.202   2.745   5.506  0.1643  0.1428  0.2840
   95SAPE   H7X 9474   6.254   2.679   5.579 -0.1059 -1.2479 -0.7277
   95SAPE   H7Y 9475   6.278   2.789   5.437 -0.2545  1.1000  0.4162
   95SAPE   C38 9476   6.107   2.654   5.420 -0.1240 -0.0122 -0.0021
   95SAPE   H8X 9477   6.101   2.695   5.318 -1.4213  0.5514  0.2799
   95SAPE   H8Y 9478   6.002   2.661   5.458 -1.0354 -2.9737 -1.6527
   95SAPE   C39 9479   6.146   2.508   5.418  0.7554 -1.1287 -0.2143
   95SAPE   H9X 9480   6.069   2.454   5.359 -0.0824  0.6440 -0.7995
   95SAPE   H9Y 9481   6.148   2.469   5.523 -1.3696 -0.9754 -0.0769
   95SAPE  C310 9482   6.280   2.483   5.355  0.1195  1.1587 -0.1250
   95SAPE  H10X 9483   6.350   2.529   5.429 -0.2803  1.6065 -0.0226
   95SAPE  H10Y 9484   6.276   2.546   5.264 -0.0342  0.7861 -0.3776
   95SAPE  C311 9485   6.319   2.338   5.336 -0.4765  0.1650 -0.1242
   95SAPE  H11X 9486   6.282   2.273   5.418  1.2163  2.5927  2.7912
   95SAPE  H11Y 9487   6.429   2.337   5.354 -0.6219 -0.4177  0.8082
   95SAPE  C312 9488   6.288   2.275   5.201 -0.1847 -0.0763  0.3333
   95SAPE  H12X 9489   6.329   2.332   5.114 -0.4284 -0.9245 -0.3557
   95SAPE  H12Y 9490   6.178   2.284   5.187 -0.2246  0.3919  0.8945
   95SAPE  C313 9491   6.337   2.135   5.174 -0.2214 -0.1672  0.4574
   95SAPE  H13X 9492   6.289   2.061   5.242  0.8996 -0.9036  0.4681
   95SAPE  H13Y 9493   6.447   2.127   5.184 -0.1013  0.8956  0.0947
   95SAPE  C314 9494   6.292   2.097   5.028 -0.6456 -0.1566 -0.3841
   95SAPE  H14X 9495   6.318   2.183   4.961  0.4041 -0.7525 -0.7695
   95SAPE  H14Y 9496   6.181   2.099   5.025 -0.6554  0.8905  0.2129
   95SAPE  C315 9497   6.355   1.976   4.965  0.2003 -0.1544  0.0722
   95SAPE  H15X 9498   6.464   1.967   4.985  0.5430  2.6001 -0.1058
   95SAPE  H15Y 9499   6.355   1.995   4.855 -2.1083 -0.4523 -0.0223
   95SAPE  C316 9500   6.271   1.850   5.003 -0.3454  0.1503 -0.6509
   95SAPE  H16X 9501   6.170   1.866   4.961 -0.9184 -0.4910  0.4454
   95SAPE  H16Y 9502   6.262   1.846   5.114 -0.2941 -0.1156 -0.6577
   95SAPE  C317 9503   6.306   1.719   4.942  0.3638 -0.4105 -0.3745
   95SAPE  H17X 9504   6.405   1.687   4.981 -0.3356 -0.8373  1.0998
   95SAPE  H17Y 9505   6.315   1.745   4.834  0.0221 -0.3189 -0.3819
   95SAPE  C318 9506   6.193   1.614   4.969 -0.0105 -0.6939 -0.6839
   95SAPE  H18X 9507   6.227   1.515   4.930 -1.7002 -0.5924 -2.6082
   95SAPE  H18Y 9508   6.102   1.644   4.914  1.1788  0.3707 -2.1701
   95SAPE  H18Z 9509   6.164   1.597   5.075 -1.1994  1.5659 -0.5990
   96SAPE     N 9510   5.551   4.601   7.184  0.3569 -0.5463 -0.2440
   96SAPE   HN1 9511   5.637   4.627   7.235 -0.5781  1.2223  0.5068
   96SAPE   HN2 9512   5.556   4.518   7.121  0.8960  0.9377 -2.2465
   96SAPE   HN3 9513   5.527   4.681   7.122  2.3082 -0.5031 -1.0004
   96SAPE   C12 9514   5.432   4.584   7.285 -0.1407 -0.5242 -0.5583
   96SAPE  H12A 9515   5.423   4.682   7.336  0.1132 -0.7273 -0.1126
   96SAPE  H12B 9516   5.458   4.501   7.354 -1.9025  0.4255  1.3338
   96SAPE   C11 9517   5.307   4.547   7.204 -0.4083  0.9695 -0.2043
   96SAPE  H11A 9518   5.220   4.546   7.273 -0.0933 -2.2445  0.2752
   96SAPE  H11B 9519   5.310   4.439   7.179 -0.9521  0.6188  1.1321
   96SAPE     P 9520   5.167   4.628   6.997  0.3310 -0.0699 -0.2356
   96SAPE   O13 9521   5.092   4.500   7.023  0.2400 -0.5172 -0.1280
   96SAPE   O14 9522   5.099   4.754   7.030 -0.3332  0.5320  0.1656
   96SAPE   O12 9523   5.295   4.621   7.084 -0.7395 -0.5133  0.2085
   96SAPE   O11 9524   5.228   4.635   6.851  0.2818  0.0892  0.1152
   96SAPE    C1 9525   5.257   4.512   6.781  0.4070 -0.8447 -0.1079
   96SAPE    HA 9526   5.336   4.464   6.844  1.0552  0.9933  0.5747
   96SAPE    HB 9527   5.170   4.447   6.760  0.4690 -0.2412 -2.5269
   96SAPE    C2 9528   5.308   4.535   6.630  0.1568 -0.0985 -0.3730
   96SAPE    HS 9529   5.384   4.616   6.635 -0.0807  0.0923  0.2647
   96SAPE   O21 9530   5.193   4.584   6.551 -0.0985 -0.0439 -0.1356
   96SAPE   C21 9531   5.230   4.661   6.452 -0.0295  0.3194 -0.5716
   96SAPE   O22 9532   5.346   4.700   6.429  0.2076  0.7030 -0.4525
   96SAPE   C22 9533   5.109   4.694   6.376  0.8833 -0.5330  0.4049
   96SAPE   H2R 9534   5.072   4.609   6.314 -0.1734  0.8051 -0.8550
   96SAPE   H2S 9535   5.018   4.712   6.437 -0.2620 -1.2394 -1.0195
   96SAPE    C3 9536   5.381   4.402   6.578  0.1832 -0.1232 -0.5850
   96SAPE    HX 9537   5.306   4.323   6.559  0.8269 -0.3243 -2.5036
   96SAPE    HY 9538   5.446   4.361   6.658 -1.2325 -0.8036  0.2491
   96SAPE   O31 9539   5.474   4.426   6.467  0.5080  0.4110  0.1936
   96SAPE   C31 9540   5.574   4.513   6.476 -0.0239  0.7024 -0.7659
   96SAPE   O32 9541   5.597   4.589   6.565 -0.3548  0.0372 -0.4566
   96SAPE   C32 9542   5.655   4.498   6.344 -0.1461  0.3133  0.0700
   96SAPE   H2X 9543   5.663   4.388   6.334 -0.1247  0.0375  2.4900
   96SAPE   H2Y 9544   5.749   4.551   6.369 -0.5126  0.3984  1.3809
   96SAPE   C23 9545   5.140   4.810   6.274 -0.0001  0.2195  0.4444
   96SAPE   H3R 9546   5.192   4.768   6.185 -1.1471  0.4757 -0.3671
   96SAPE   H3S 9547   5.213   4.868   6.334 -0.7610 -0.0768  1.6840
   96SAPE   C24 9548   5.022   4.891   6.226 -0.1348  0.6156 -0.0364
   96SAPE   H4R 9549   5.062   4.982   6.177  1.8027 -0.4867 -0.6250
   96SAPE   H4S 9550   4.951   4.917   6.307 -2.2897  0.6974 -1.8699
   96SAPE   C25 9551   4.945   4.811   6.122  0.0255  0.3126 -0.4210
   96SAPE   H5R 9552   4.858   4.755   6.159 -1.9511  3.5167  0.2354
   96SAPE   C26 9553   4.966   4.817   5.994 -0.2624  0.2504 -0.2056
   96SAPE   H6R 9554   4.908   4.754   5.925  1.1298  1.0896 -2.2462
   96SAPE   C27 9555   5.084   4.891   5.930 -0.3999 -0.0989 -0.2078
   96SAPE   H7R 9556   5.121   4.978   5.988 -0.7200  0.5518 -0.9551
   96SAPE   H7S 9557   5.050   4.940   5.836  1.6277  1.1714 -0.3453
   96SAPE   C28 9558   5.199   4.797   5.889 -0.4107 -0.3470  0.8051
   96SAPE   H8R 9559   5.253   4.754   5.974  1.3397 -0.9747 -0.5753
   96SAPE   C29 9560   5.248   4.765   5.762  0.5973  0.4349  0.4297
   96SAPE   H9R 9561   5.325   4.687   5.764 -1.8685 -2.2932 -2.0925
   96SAPE  C210 9562   5.185   4.806   5.636 -0.4281 -0.6310  0.0093
   96SAPE  H10R 9563   5.164   4.916   5.635 -1.0038 -0.7382  0.0043
   96SAPE  H10S 9564   5.085   4.759   5.634 -0.5793 -0.2987 -0.8070
   96SAPE  C211 9565   5.261   4.761   5.505 -0.4586  0.2171 -0.4054
   96SAPE  H11R 9566   5.214   4.677   5.452  0.5745  0.3002 -1.4972
   96SAPE  C212 9567   5.388   4.800   5.475 -0.5793 -0.2735 -0.0519
   96SAPE  H12R 9568   5.440   4.757   5.388 -0.8960 -0.5165 -0.1237
   96SAPE  C213 9569   5.469   4.906   5.539 -0.4254 -0.7655 -0.0613
   96SAPE  H13R 9570   5.420   4.929   5.637 -1.2106 -1.5226 -0.2575
   96SAPE  H13S 9571   5.460   5.005   5.489 -2.3685 -0.7545  0.2245
   96SAPE  C214 9572   5.618   4.888   5.549  0.0732  0.0600  0.1472
   96SAPE  H14R 9573   5.657   4.846   5.456 -0.3552 -0.4384  0.1866
   96SAPE  C215 9574   5.698   4.929   5.649 -0.0291 -0.0536  0.1576
   96SAPE  H15R 9575   5.804   4.901   5.637 -0.3640 -1.1023 -0.5616
   96SAPE  C216 9576   5.650   4.974   5.788  0.5434 -0.2961 -0.0954
   96SAPE  H16R 9577   5.545   4.943   5.806  0.4276 -0.0968 -0.4125
   96SAPE  H16S 9578   5.651   5.085   5.792 -2.4304 -0.1081 -1.8571
   96SAPE  C217 9579   5.741   4.916   5.897  0.4331 -0.2002 -0.2294
   96SAPE  H17R 9580   5.847   4.942   5.877  0.2106  0.2974 -0.7973
   96SAPE  H17S 9581   5.723   4.806   5.895 -0.0305 -0.1640  1.0366
   96SAPE  C218 9582   5.720   4.972   6.041 -1.3964  0.1851  0.3058
   96SAPE  H18R 9583   5.736   5.081   6.036 -1.1314  0.1062 -0.7726
   96SAPE  H18S 9584   5.800   4.936   6.109 -0.4208  0.7635 -0.5192
   96SAPE  C219 9585   5.586   4.943   6.113 -0.0011 -0.1478  0.4292
   96SAPE  H19R 9586   5.558   4.841   6.077  0.9981  0.6347 -2.9664
   96SAPE  H19S 9587   5.517   5.018   6.069  0.0795 -0.3860 -0.1162
   96SAPE  C220 9588   5.584   4.954   6.263  0.3816  0.3881  0.3159
   96SAPE  H20R 9589   5.606   5.058   6.297  1.1344  0.4475 -0.3222
   96SAPE  H20S 9590   5.673   4.895   6.294 -0.6933 -0.9545  0.9222
   96SAPE  H20T 9591   5.487   4.926   6.307  1.6980 -1.4891  2.1912
   96SAPE   C33 9592   5.582   4.547   6.219 -0.1741 -0.5022  0.3385
   96SAPE   H3X 9593   5.604   4.653   6.195 -2.1661 -0.1549 -0.1338
   96SAPE   H3Y 9594   5.473   4.546   6.236  0.1651 -1.5428  2.7175
   96SAPE   C34 9595   5.615   4.459   6.098 -0.1007 -0.4504 -0.2459
   96SAPE   H4X 9596   5.594   4.351   6.115 -1.3863 -0.1491  0.2145
   96SAPE   H4Y 9597   5.725   4.468   6.084 -0.1180  0.5457  0.1549
   96SAPE   C35 9598   5.547   4.504   5.971 -0.0684 -0.0793  0.2991
   96SAPE   H5X 9599   5.563   4.614   5.977 -0.8723  0.0127  1.1207
   96SAPE   H5Y 9600   5.436   4.496   5.973 -0.0175 -0.8982  0.0274
   96SAPE   C36 9601   5.619   4.446   5.852 -0.2339  0.5795  0.8813
   96SAPE   H6X 9602   5.611   4.336   5.858 -1.2900  0.4588 -1.4829
   96SAPE   H6Y 9603   5.728   4.465   5.851 -0.2486  0.8407 -1.0330
   96SAPE   C37 9604   5.571   4.498   5.712 -0.5865 -0.5470  0.0439
   96SAPE   H7X 9605   5.580   4.607   5.692 -1.2883 -0.4221  0.3639
   96SAPE   H7Y 9606   5.460   4.493   5.711 -0.5548 -2.1698 -1.8963
   96SAPE   C38 9607   5.624   4.406   5.601  0.5703 -0.4336  0.1951
   96SAPE   H8X 9608   5.590   4.300   5.605  3.2871 -1.6532 -3.3079
   96SAPE   H8Y 9609   5.735   4.397   5.610  0.6391  0.0964 -0.0393
   96SAPE   C39 9610   5.595   4.473   5.469 -0.7179 -0.0613  0.0105
   96SAPE   H9X 9611   5.635   4.577   5.464 -0.6212 -0.1392 -1.5561
   96SAPE   H9Y 9612   5.486   4.469   5.448 -0.7570  1.0170 -0.0294
   96SAPE  C310 9613   5.652   4.396   5.345  0.0574 -0.4141 -0.3497
   96SAPE  H10X 9614   5.634   4.288   5.362  1.5446 -0.2110  3.4624
   96SAPE  H10Y 9615   5.762   4.410   5.338  0.4075 -2.2269  0.7893
   96SAPE  C311 9616   5.594   4.451   5.211  1.0080 -0.2174 -0.0673
   96SAPE  H11X 9617   5.634   4.554   5.198  0.5248  0.3405  2.4161
   96SAPE  H11Y 9618   5.484   4.455   5.206  1.0049 -1.2494 -3.0036
   96SAPE  C312 9619   5.641   4.371   5.086 -0.3076 -0.1337  0.3595
   96SAPE  H12X 9620   5.556   4.307   5.054 -0.3946 -0.4171  1.1357
   96SAPE  H12Y 9621   5.716   4.298   5.123  0.4556  0.2703 -0.3595
   96SAPE  C313 9622   5.712   4.456   4.980  0.1597  0.3559  0.3276
   96SAPE  H13X 9623   5.799   4.512   5.021  1.4545 -0.3106 -1.3659
   96SAPE  H13Y 9624   5.630   4.528   4.956  0.5909  0.8074  0.1791
   96SAPE  C314 9625   5.736   4.379   4.850 -0.7537 -0.3916  0.0419
   96SAPE  H14X 9626   5.797   4.290   4.877  0.5086  0.6835  0.9167
   96SAPE  H14Y 9627   5.797   4.436   4.777 -2.1108  1.0492 -0.0214
   96SAPE  C315 9628   5.603   4.332   4.785 -0.2553 -0.6708 -0.7523
   96SAPE  H15X 9629   5.522   4.408   4.787 -0.6411 -1.0851 -0.1290
   96SAPE  H15Y 9630   5.568   4.238   4.834 -0.1405  0.7003  2.2113
   96SAPE  C316 9631   5.616   4.309   4.642 -0.0183 -0.1049 -0.3769
   96SAPE  H16X 9632   5.662   4.208   4.634 -0.1598 -0.2489  0.5494
   96SAPE  H16Y 9633   5.695   4.376   4.601  0.4906 -1.2341 -1.3234
   96SAPE  C317 9634   5.481   4.328   4.576 -0.8740 -0.5383  0.4010
   96SAPE  H17X 9635   5.465   4.437   4.580 -0.0238 -0.3416 -0.8743
   96SAPE  H17Y 9636   5.391   4.286   4.625  0.1400  1.1471  4.0607
   96SAPE  C318 9637   5.483   4.289   4.430 -0.2035 -0.4447  0.5858
   96SAPE  H18X 9638   5.506   4.183   4.406 -1.1069 -0.5112 -0.0698
   96SAPE  H18Y 9639   5.555   4.350   4.372  1.8449 -1.5454  1.8289
   96SAPE  H18Z 9640   5.379   4.296   4.392 -0.1740 -2.0425  0.1239
   97SAPE     N 9641   1.219   4.847   7.369  0.5433 -0.4790  0.2799
   97SAPE   HN1 9642   1.134   4.788   7.371 -1.6727  2.3825 -1.3980
   97SAPE   HN2 9643   1.304   4.787   7.361  0.8917  0.2127 -1.9866
   97SAPE   HN3 9644   1.223   4.912   7.450 -0.8018 -0.0776  0.0378
   97SAPE   C12 9645   1.213   4.908   7.231 -0.1511  0.0521  0.2097
   97SAPE  H12A 9646   1.254   5.011   7.240  0.9770 -0.2894 -0.7624
   97SAPE  H12B 9647   1.105   4.904   7.207 -0.3216 -2.4171  1.0904
   97SAPE   C11 9648   1.287   4.821   7.131  0.3975  0.1390  0.1423
   97SAPE  H11A 9649   1.394   4.808   7.156  0.2438 -0.1387  0.6747
   97SAPE  H11B 9650   1.268   4.890   7.046 -1.5926  0.3985  0.7306
   97SAPE     P 9651   1.279   4.557   7.162  0.0520  0.0929 -0.0039
   97SAPE   O13 9652   1.383   4.589   7.262 -0.3230 -0.0899 -0.3868
   97SAPE   O14 9653   1.159   4.481   7.214 -0.9426  0.1842  0.1417
   97SAPE   O12 9654   1.221   4.698   7.114 -0.5195  0.1871  0.0953
   97SAPE   O11 9655   1.341   4.495   7.024 -0.0186 -0.1969  0.2217
   97SAPE    C1 9656   1.424   4.582   6.945  0.0313 -0.6532  0.3277
   97SAPE    HA 9657   1.356   4.642   6.880 -1.2825 -3.1716 -0.7699
   97SAPE    HB 9658   1.490   4.641   7.012  3.6319 -4.6253  0.7200
   97SAPE    C2 9659   1.520   4.493   6.858  0.5219 -0.3392 -0.8735
   97SAPE    HS 9660   1.587   4.557   6.796  1.0545 -0.4026 -0.3743
   97SAPE   O21 9661   1.445   4.421   6.760  0.1964 -0.2318 -0.5288
   97SAPE   C21 9662   1.394   4.499   6.670 -0.5159  0.5225  0.1396
   97SAPE   O22 9663   1.414   4.617   6.654  0.3047  0.3458 -0.1231
   97SAPE   C22 9664   1.302   4.420   6.577 -0.7168 -0.3843  0.4417
   97SAPE   H2R 9665   1.211   4.400   6.637  0.5149  1.4325  3.1430
   97SAPE   H2S 9666   1.272   4.492   6.499 -0.7767  1.4667  2.0855
   97SAPE    C3 9667   1.614   4.395   6.936  0.4569  0.6000 -0.8119
   97SAPE    HX 9668   1.548   4.321   6.985 -1.8112  0.0076 -4.3497
   97SAPE    HY 9669   1.668   4.448   7.017 -0.1212  0.8707 -0.5980
   97SAPE   O31 9670   1.716   4.333   6.847  0.1243 -0.3693 -0.0079
   97SAPE   C31 9671   1.682   4.208   6.794 -0.0561 -0.4237  0.0195
   97SAPE   O32 9672   1.573   4.154   6.809  0.0300  0.4341 -0.2592
   97SAPE   C32 9673   1.800   4.153   6.728 -0.2033  0.0434 -0.1674
   97SAPE   H2X 9674   1.881   4.148   6.804 -1.4089  0.5929  1.1923
   97SAPE   H2Y 9675   1.820   4.208   6.634 -2.3647 -1.9848 -1.9409
   97SAPE   C23 9676   1.364   4.293   6.520 -0.2470 -0.4242  0.3052
   97SAPE   H3R 9677   1.275   4.239   6.482 -0.6733  0.9615 -0.7812
   97SAPE   H3S 9678   1.425   4.238   6.595  0.9893 -0.2175 -0.5234
   97SAPE   C24 9679   1.458   4.340   6.409  0.1343  1.4069 -0.4928
   97SAPE   H4R 9680   1.540   4.398   6.457 -1.3663  2.4987  0.8681
   97SAPE   H4S 9681   1.407   4.406   6.336 -1.6256 -1.6043 -2.1562
   97SAPE   C25 9682   1.524   4.222   6.330  0.0596 -0.4889 -0.4279
   97SAPE   H5R 9683   1.579   4.143   6.384 -1.3046  0.4117  2.5213
   97SAPE   C26 9684   1.524   4.201   6.194 -0.4488  0.0563  0.1296
   97SAPE   H6R 9685   1.585   4.125   6.144 -0.8865 -0.1282 -0.1379
   97SAPE   C27 9686   1.460   4.292   6.092 -0.5293  0.1094 -0.1522
   97SAPE   H7R 9687   1.522   4.289   6.000 -1.1057  0.6314 -0.5702
   97SAPE   H7S 9688   1.463   4.399   6.121 -1.5830  0.3654 -0.9071
   97SAPE   C28 9689   1.319   4.252   6.061  0.0190 -0.1658 -0.5328
   97SAPE   H8R 9690   1.241   4.281   6.133 -1.2833 -2.3334 -0.9824
   97SAPE   C29 9691   1.288   4.203   5.944  0.2914 -0.0650  0.2598
   97SAPE   H9R 9692   1.180   4.205   5.925  0.4847  0.4798 -0.8933
   97SAPE  C210 9693   1.382   4.160   5.830 -0.4929 -0.0689 -0.4196
   97SAPE  H10R 9694   1.329   4.091   5.761 -2.9423  2.3368 -1.0994
   97SAPE  H10S 9695   1.466   4.095   5.863 -0.0325  0.3656 -0.7075
   97SAPE  C211 9696   1.446   4.281   5.751  0.7396 -0.1829  0.3923
   97SAPE  H11R 9697   1.478   4.363   5.816  1.8121  0.7995 -1.2905
   97SAPE  C212 9698   1.456   4.287   5.617 -0.7237 -0.0538  0.0226
   97SAPE  H12R 9699   1.495   4.380   5.573  1.0088 -1.6971 -2.1309
   97SAPE  C213 9700   1.407   4.189   5.517 -0.2342 -0.1142  0.1095
   97SAPE  H13R 9701   1.369   4.093   5.557  1.4436 -0.7969  0.1330
   97SAPE  H13S 9702   1.500   4.147   5.472  1.3711 -0.1384  3.2319
   97SAPE  C214 9703   1.294   4.245   5.427  0.3137  0.8053  0.2033
   97SAPE  H14R 9704   1.244   4.336   5.465 -2.5362 -0.6592  0.2245
   97SAPE  C215 9705   1.245   4.193   5.311  0.7071  0.4642  0.2243
   97SAPE  H15R 9706   1.161   4.243   5.262  0.3121 -0.4042 -0.0105
   97SAPE  C216 9707   1.305   4.074   5.237  0.2295  0.1883 -0.2984
   97SAPE  H16R 9708   1.409   4.048   5.267  0.3756  0.1602 -0.8109
   97SAPE  H16S 9709   1.313   4.108   5.131 -1.9842  0.0176 -0.5500
   97SAPE  C217 9710   1.216   3.945   5.254 -0.1465 -0.0780 -0.0708
   97SAPE  H17R 9711   1.207   3.919   5.361 -0.2684  0.4492  0.0512
   97SAPE  H17S 9712   1.277   3.867   5.204  0.3622  0.8160 -0.8903
   97SAPE  C218 9713   1.071   3.952   5.204 -0.3799 -1.2250 -0.3069
   97SAPE  H18R 9714   1.024   4.032   5.264  0.7210 -1.3271  0.7386
   97SAPE  H18S 9715   1.013   3.867   5.244 -3.5259  1.9916  2.6046
   97SAPE  C219 9716   1.058   3.958   5.051  0.1837 -0.3104 -0.5909
   97SAPE  H19R 9717   1.120   4.041   5.012 -0.8313  0.3533 -0.8120
   97SAPE  H19S 9718   0.953   3.989   5.030 -0.5872 -3.3865 -1.8541
   97SAPE  C220 9719   1.096   3.832   4.979  0.4133  0.0462  0.0727
   97SAPE  H20R 9720   1.102   3.855   4.870 -0.5638  1.2923  0.2486
   97SAPE  H20S 9721   1.019   3.752   4.984 -0.2788  0.4968 -2.0240
   97SAPE  H20T 9722   1.195   3.792   5.008  1.9216  1.2381 -2.9274
   97SAPE   C33 9723   1.774   4.002   6.691 -0.2631  0.3239  1.1210
   97SAPE   H3X 9724   1.690   4.001   6.618 -0.5920  0.1342  1.5020
   97SAPE   H3Y 9725   1.746   3.932   6.773 -0.8881 -3.2161 -1.8552
   97SAPE   C34 9726   1.889   3.933   6.614  0.5672 -0.0758 -0.2790
   97SAPE   H4X 9727   1.859   3.827   6.597 -1.3400  0.4355 -0.3920
   97SAPE   H4Y 9728   1.982   3.933   6.675  0.6710 -0.1732 -0.4358
   97SAPE   C35 9729   1.927   3.995   6.478 -0.5508 -0.7566 -0.0244
   97SAPE   H5X 9730   2.037   4.012   6.468 -0.8196 -0.0442 -2.2882
   97SAPE   H5Y 9731   1.892   4.100   6.480  0.1504 -0.5173  1.7532
   97SAPE   C36 9732   1.880   3.929   6.343  0.3030 -0.0640  0.1851
   97SAPE   H6X 9733   1.775   3.895   6.358  0.4456 -1.8322 -2.3685
   97SAPE   H6Y 9734   1.936   3.834   6.332 -1.0732 -1.0566  1.3317
   97SAPE   C37 9735   1.884   4.029   6.222  0.0187 -0.2736 -0.5279
   97SAPE   H7X 9736   1.990   4.061   6.211  0.5259 -1.4447  0.6640
   97SAPE   H7Y 9737   1.827   4.119   6.251 -0.2568 -0.4096 -0.6459
   97SAPE   C38 9738   1.842   3.963   6.091 -0.0381  0.1503  0.0580
   97SAPE   H8X 9739   1.734   3.943   6.106  0.2815  0.2827  2.9453
   97SAPE   H8Y 9740   1.890   3.863   6.088 -1.8872 -0.8970  2.4906
   97SAPE   C39 9741   1.863   4.045   5.957 -0.5396 -0.0214 -0.5872
   97SAPE   H9X 9742   1.972   4.031   5.947 -0.2220  2.0464 -0.4253
   97SAPE   H9Y 9743   1.850   4.153   5.977 -2.6625 -0.4553  0.7209
   97SAPE  C310 9744   1.776   3.985   5.842  0.4238  0.4236 -0.9349
   97SAPE  H10X 9745   1.671   3.990   5.878  0.4960 -0.3412 -0.6086
   97SAPE  H10Y 9746   1.801   3.880   5.817 -1.3090  0.1851 -1.8417
   97SAPE  C311 9747   1.788   4.062   5.714 -0.3404 -0.5204  0.2871
   97SAPE  H11X 9748   1.895   4.089   5.701 -0.9185  2.5714  1.1980
   97SAPE  H11Y 9749   1.721   4.149   5.725 -1.1956 -1.2164  0.6602
   97SAPE  C312 9750   1.737   3.973   5.590 -0.3969  0.3994 -0.3505
   97SAPE  H12X 9751   1.628   3.989   5.578 -0.5154 -0.3059 -0.2448
   97SAPE  H12Y 9752   1.765   3.865   5.595 -1.2668  0.1613 -0.4956
   97SAPE  C313 9753   1.807   4.020   5.463  0.2463 -0.5546  0.4044
   97SAPE  H13X 9754   1.917   4.033   5.473  0.4706 -2.0206  0.0089
   97SAPE  H13Y 9755   1.752   4.113   5.439 -0.5714 -0.0727  3.6323
   97SAPE  C314 9756   1.794   3.920   5.350  0.0442  0.5680  0.0837
   97SAPE  H14X 9757   1.688   3.886   5.343  1.0963 -2.8843 -0.3878
   97SAPE  H14Y 9758   1.853   3.828   5.367  0.2613  0.4527 -1.2215
   97SAPE  C315 9759   1.849   3.988   5.220  0.0566  0.6140  0.1749
   97SAPE  H15X 9760   1.953   4.025   5.222 -0.5761  2.4537  0.8764
   97SAPE  H15Y 9761   1.794   4.084   5.209  1.3304  1.3783  0.3142
   97SAPE  C316 9762   1.831   3.898   5.095 -0.2864 -0.5235  0.0959
   97SAPE  H16X 9763   1.724   3.878   5.072 -0.4574  1.2933 -0.8688
   97SAPE  H16Y 9764   1.877   3.803   5.130  0.4735  1.0474  3.9555
   97SAPE  C317 9765   1.908   3.949   4.968 -0.6887 -0.3454 -0.7661
   97SAPE  H17X 9766   2.014   3.960   5.000 -1.2561 -0.2490  1.2507
   97SAPE  H17Y 9767   1.873   4.050   4.939 -0.3031 -0.1381 -0.5181
   97SAPE  C318 9768   1.904   3.856   4.848  0.0764 -0.0472 -0.3390
   97SAPE  H18X 9769   1.969   3.889   4.764  1.3192 -3.4182 -0.8943
   97SAPE  H18Y 9770   1.799   3.855   4.813  0.1299 -0.0067 -0.5000
   97SAPE  H18Z 9771   1.941   3.756   4.880 -1.9810 -0.8074 -0.2344
   98SAPE     N 9772   6.696   1.306   7.272  0.4147 -0.7437 -0.1493
   98SAPE   HN1 9773   6.652   1.246   7.344  2.2167  0.1489  1.8151
   98SAPE   HN2 9774   6.694   1.256   7.181  0.9102 -1.2326  0.1009
   98SAPE   HN3 9775   6.794   1.313   7.306 -0.7594  0.6176  3.3881
   98SAPE   C12 9776   6.646   1.447   7.251  0.6251  0.4728 -0.2279
   98SAPE  H12A 9777   6.690   1.507   7.334  1.7665 -0.2356 -0.3008
   98SAPE  H12B 9778   6.535   1.442   7.255  0.7209 -1.2791  1.6416
   98SAPE   C11 9779   6.689   1.516   7.124 -1.0475  0.2201  0.3322
   98SAPE  H11A 9780   6.655   1.621   7.132 -1.1209  0.0917  2.1262
   98SAPE  H11B 9781   6.650   1.468   7.032 -2.3608  0.4408  0.7622
   98SAPE     P 9782   6.902   1.562   6.974 -0.0062 -0.2117 -0.5022
   98SAPE   O13 9783   7.046   1.567   6.987 -0.3972 -0.3122  0.0500
   98SAPE   O14 9784   6.838   1.480   6.869  0.6446  0.3427  0.3380
   98SAPE   O12 9785   6.835   1.516   7.110  0.1605 -0.0301 -0.0321
   98SAPE   O11 9786   6.859   1.715   6.960 -0.3312  0.0376 -0.2376
   98SAPE    C1 9787   6.747   1.771   6.894  0.3900  0.5107 -0.6856
   98SAPE    HA 9788   6.665   1.696   6.886  0.2475  0.8264 -2.7727
   98SAPE    HB 9789   6.705   1.850   6.960 -2.1267  0.2009 -1.7800
   98SAPE    C2 9790   6.792   1.826   6.753 -0.4343  0.3126 -0.1688
   98SAPE    HS 9791   6.718   1.886   6.695 -0.4134  1.9312  1.4003
   98SAPE   O21 9792   6.858   1.723   6.668 -0.0371 -0.0698 -0.0617
   98SAPE   C21 9793   6.781   1.633   6.620 -0.8608 -0.5090 -0.8182
   98SAPE   O22 9794   6.661   1.629   6.638  0.4481  0.1538 -0.1846
   98SAPE   C22 9795   6.867   1.541   6.524  0.4047 -0.2580  0.0254
   98SAPE   H2R 9796   6.951   1.604   6.489  0.5069  0.5664  1.6649
   98SAPE   H2S 9797   6.906   1.457   6.585  0.8299  1.1674  1.8226
   98SAPE    C3 9798   6.901   1.940   6.800  0.3548  0.1959  0.2342
   98SAPE    HX 9799   6.969   1.893   6.874  0.8056 -1.9860 -1.4350
   98SAPE    HY 9800   6.855   2.025   6.854  1.7532 -1.1229  3.8203
   98SAPE   O31 9801   6.980   1.985   6.692  0.6683 -0.3497 -0.1939
   98SAPE   C31 9802   7.082   1.916   6.649  0.2701 -0.8619  0.1818
   98SAPE   O32 9803   7.146   1.831   6.716 -0.2169  0.3221 -0.3108
   98SAPE   C32 9804   7.121   1.961   6.512 -0.7442 -1.3305  1.4937
   98SAPE   H2X 9805   7.208   2.029   6.518 -1.4650 -0.1949 -0.2469
   98SAPE   H2Y 9806   7.038   2.026   6.476  2.7380  1.4528 -2.3282
   98SAPE   C23 9807   6.793   1.486   6.399  0.0841  0.6907 -0.3620
   98SAPE   H3R 9808   6.691   1.450   6.427 -0.0176  0.7574 -0.6464
   98SAPE   H3S 9809   6.850   1.396   6.367 -0.9051  0.2462 -0.9251
   98SAPE   C24 9810   6.798   1.582   6.282  0.1402  0.0570  0.1691
   98SAPE   H4R 9811   6.903   1.603   6.251 -0.0928  1.3579  0.2081
   98SAPE   H4S 9812   6.762   1.681   6.316 -0.7586  0.0056 -0.6074
   98SAPE   C25 9813   6.714   1.548   6.157 -0.2571  0.5813  0.2147
   98SAPE   H5R 9814   6.604   1.554   6.168 -0.1009  2.5610  1.0204
   98SAPE   C26 9815   6.749   1.492   6.039 -0.9968  0.2197 -0.3963
   98SAPE   H6R 9816   6.665   1.468   5.972 -1.1290 -0.2937 -0.0559
   98SAPE   C27 9817   6.892   1.461   5.983 -0.6962 -0.1296 -0.0418
   98SAPE   H7R 9818   6.961   1.464   6.070  0.2287 -1.1503 -0.7055
   98SAPE   H7S 9819   6.921   1.541   5.911  2.3895 -0.4645  0.6579
   98SAPE   C28 9820   6.889   1.324   5.913  0.0600  0.2186  0.0607
   98SAPE   H8R 9821   6.821   1.251   5.960  3.3581 -3.1495  0.0852
   98SAPE   C29 9822   6.957   1.287   5.799 -0.5558 -0.1556 -0.0785
   98SAPE   H9R 9823   6.946   1.195   5.741 -0.1709  1.7454 -3.4723
   98SAPE  C210 9824   7.068   1.370   5.728 -0.9296 -0.2754  0.0728
   98SAPE  H10R 9825   7.167   1.332   5.761 -1.8328 -1.4386  1.5686
   98SAPE  H10S 9826   7.060   1.472   5.771 -1.1210  0.1670 -0.9928
   98SAPE  C211 9827   7.062   1.376   5.584  0.8441 -0.1041 -0.5978
   98SAPE  H11R 9828   6.966   1.383   5.531  1.8564 -3.4241 -3.2959
   98SAPE  C212 9829   7.163   1.335   5.499 -0.0484  0.0929 -0.1123
   98SAPE  H12R 9830   7.145   1.343   5.391 -0.6512  0.1308 -0.0147
   98SAPE  C213 9831   7.297   1.287   5.539  0.6858 -0.7700 -0.4359
   98SAPE  H13R 9832   7.313   1.297   5.649 -2.4616  2.4681 -0.0574
   98SAPE  H13S 9833   7.368   1.362   5.499 -0.0383  0.9915  1.3954
   98SAPE  C214 9834   7.309   1.148   5.489 -0.3406 -0.0150  0.0027
   98SAPE  H14R 9835   7.277   1.063   5.551  1.0780  0.7750  1.9263
   98SAPE  C215 9836   7.358   1.116   5.368  0.0179  0.0436  0.1187
   98SAPE  H15R 9837   7.359   1.014   5.328  0.3031  0.1239 -0.0869
   98SAPE  C216 9838   7.402   1.217   5.264 -0.0609  0.0949  0.5975
   98SAPE  H16R 9839   7.501   1.194   5.218  0.9288  3.0216  1.0477
   98SAPE  H16S 9840   7.415   1.314   5.315 -0.3029 -0.0224  0.8800
   98SAPE  C217 9841   7.301   1.237   5.151  0.2550  0.3982  0.1274
   98SAPE  H17R 9842   7.343   1.309   5.078  1.5148  2.8335  3.0070
   98SAPE  H17S 9843   7.205   1.286   5.175 -0.1072  0.6747 -1.7827
   98SAPE  C218 9844   7.270   1.106   5.073  0.5039  0.2054 -0.2766
   98SAPE  H18R 9845   7.184   1.119   5.005  1.4592  2.0030 -1.2182
   98SAPE  H18S 9846   7.244   1.021   5.140  1.1194 -1.0924 -1.6270
   98SAPE  C219 9847   7.390   1.057   4.988  0.2691 -0.2316 -0.0834
   98SAPE  H19R 9848   7.482   1.040   5.048 -0.9737 -0.5712  1.8015
   98SAPE  H19S 9849   7.404   1.127   4.903 -0.5543 -0.7204 -0.6373
   98SAPE  C220 9850   7.357   0.924   4.918  0.3782 -0.0242 -0.2880
   98SAPE  H20R 9851   7.383   0.838   4.983 -0.1041 -1.1670 -1.5444
   98SAPE  H20S 9852   7.413   0.920   4.822  1.9087  1.7805  0.4849
   98SAPE  H20T 9853   7.251   0.923   4.884 -0.0544  0.1301  0.9953
   98SAPE   C33 9854   7.158   1.837   6.422  0.0282  0.1146 -0.1926
   98SAPE   H3X 9855   7.077   1.762   6.418 -0.5162  0.7648 -2.0994
   98SAPE   H3Y 9856   7.245   1.782   6.463 -0.9225 -0.5924  0.9490
   98SAPE   C34 9857   7.197   1.890   6.287 -0.8340 -0.1003  0.7347
   98SAPE   H4X 9858   7.282   1.958   6.311 -0.6733  0.3835 -1.0728
   98SAPE   H4Y 9859   7.128   1.963   6.239  0.1189  0.4730  0.2011
   98SAPE   C35 9860   7.230   1.791   6.178 -0.2499 -0.6522 -0.2454
   98SAPE   H5X 9861   7.131   1.751   6.148  0.0911 -2.9272  1.3800
   98SAPE   H5Y 9862   7.297   1.704   6.192  0.7348 -0.1245 -1.5493
   98SAPE   C36 9863   7.284   1.876   6.062  0.3013 -0.7644 -0.2648
   98SAPE   H6X 9864   7.376   1.933   6.087 -0.0129  0.2732 -1.3741
   98SAPE   H6Y 9865   7.203   1.941   6.022  0.7399 -0.5221 -0.7613
   98SAPE   C37 9866   7.330   1.780   5.950  0.4657 -0.8435 -0.3646
   98SAPE   H7X 9867   7.240   1.719   5.925 -0.0980 -0.2173  0.0987
   98SAPE   H7Y 9868   7.406   1.713   5.995 -0.3889 -0.2588  2.0854
   98SAPE   C38 9869   7.381   1.853   5.831  0.1111  0.2221  0.2358
   98SAPE   H8X 9870   7.461   1.922   5.866  0.3281  1.7118 -2.8508
   98SAPE   H8Y 9871   7.297   1.910   5.785  0.8853 -0.3442 -2.0130
   98SAPE   C39 9872   7.440   1.761   5.723 -0.8805 -0.0253  0.1665
   98SAPE   H9X 9873   7.361   1.685   5.702 -2.1676  0.9519  1.2789
   98SAPE   H9Y 9874   7.530   1.712   5.765 -0.3285 -0.6458 -1.6381
   98SAPE  C310 9875   7.486   1.845   5.606  0.1399 -0.5616  0.7543
   98SAPE  H10X 9876   7.574   1.906   5.635  0.0741  0.2748 -0.7094
   98SAPE  H10Y 9877   7.404   1.915   5.579 -1.2989 -2.6792 -0.7830
   98SAPE  C311 9878   7.512   1.771   5.479 -0.1603  0.8967 -0.2248
   98SAPE  H11X 9879   7.529   1.841   5.394  1.1065  0.3465 -0.4455
   98SAPE  H11Y 9880   7.416   1.722   5.448  0.7872 -0.9186 -0.4326
   98SAPE  C312 9881   7.619   1.667   5.495 -0.7005  0.7094 -0.6298
   98SAPE  H12X 9882   7.582   1.608   5.582  1.7749  0.1283  0.1150
   98SAPE  H12Y 9883   7.708   1.713   5.543  0.1966 -0.4906 -1.1119
   98SAPE  C313 9884   7.652   1.567   5.383 -0.0373 -0.3571 -0.3790
   98SAPE  H13X 9885   7.597   1.472   5.402 -0.5006  0.0644  0.4587
   98SAPE  H13Y 9886   7.760   1.552   5.404  0.4548 -1.4075 -3.2892
   98SAPE  C314 9887   7.642   1.619   5.241  0.0887  0.2550 -0.2042
   98SAPE  H14X 9888   7.703   1.712   5.250  2.1214 -0.9988 -0.3577
   98SAPE  H14Y 9889   7.537   1.635   5.208  0.0684 -0.1810 -0.3560
   98SAPE  C315 9890   7.704   1.536   5.120 -0.0368  0.0438 -1.0649
   98SAPE  H15X 9891   7.646   1.442   5.107  1.9335 -1.3992  0.1125
   98SAPE  H15Y 9892   7.807   1.499   5.139 -0.2262  0.0426  0.0772
   98SAPE  C316 9893   7.692   1.616   4.985 -0.3475  0.3335  0.9954
   98SAPE  H16X 9894   7.749   1.710   5.003  1.1670  0.0848 -1.8860
   98SAPE  H16Y 9895   7.587   1.651   4.982 -0.5555 -0.3565 -0.6803
   98SAPE  C317 9896   7.728   1.537   4.863 -0.0621  0.7205  0.2787
   98SAPE  H17X 9897   7.661   1.448   4.863  2.0580 -0.9815  1.7313
   98SAPE  H17Y 9898   7.830   1.499   4.882 -0.1415  0.7983  0.8782
   98SAPE  C318 9899   7.731   1.610   4.730  0.2157  0.5379  0.8173
   98SAPE  H18X 9900   7.630   1.649   4.707  0.2671  1.7487  2.4440
   98SAPE  H18Y 9901   7.765   1.542   4.648  0.0484  1.5408 -0.1095
   98SAPE  H18Z 9902   7.809   1.689   4.741  0.4912  0.1719  1.5261
   99SAPE     N 9903   1.598   0.705   6.694  0.5596 -0.2605  0.9721
   99SAPE   HN1 9904   1.553   0.620   6.734  1.0920 -0.4811  1.1189
   99SAPE   HN2 9905   1.522   0.751   6.640  2.1253 -0.0425 -1.2026
   99SAPE   HN3 9906   1.678   0.686   6.630  1.3644 -0.1912  1.9318
   99SAPE   C12 9907   1.646   0.818   6.784  0.7502  0.6315  0.4675
   99SAPE  H12A 9908   1.660   0.903   6.714  0.6011 -1.2016 -1.8993
   99SAPE  H12B 9909   1.749   0.788   6.812  0.0731 -1.5862  0.8263
   99SAPE   C11 9910   1.551   0.833   6.900 -0.3584 -0.5832 -0.1239
   99SAPE  H11A 9911   1.588   0.914   6.968 -0.4324 -0.3289 -0.3887
   99SAPE  H11B 9912   1.541   0.738   6.958 -0.7266 -0.0951  0.6348
   99SAPE     P 9913   1.361   1.000   6.803 -0.1097  0.0846  0.2181
   99SAPE   O13 9914   1.352   1.086   6.921 -0.9212  0.2436 -0.2978
   99SAPE   O14 9915   1.452   1.054   6.702 -0.3790 -0.2179 -0.1409
   99SAPE   O12 9916   1.415   0.860   6.859 -0.7204  0.1110 -0.0673
   99SAPE   O11 9917   1.216   0.979   6.736 -0.5018  0.0075 -0.0027
   99SAPE    C1 9918   1.134   0.870   6.757  0.2774  0.2785  0.0573
   99SAPE    HA 9919   1.114   0.846   6.863  1.6772 -1.9140 -0.1071
   99SAPE    HB 9920   1.038   0.892   6.705  0.5103 -1.3589 -1.1299
   99SAPE    C2 9921   1.180   0.741   6.684 -0.2212  1.2374  0.2824
   99SAPE    HS 9922   1.278   0.705   6.724 -0.6532 -0.1570  0.1512
   99SAPE   O21 9923   1.175   0.764   6.541  0.2280  0.3937 -0.3660
   99SAPE   C21 9924   1.291   0.792   6.483  0.2540  0.1036 -0.5304
   99SAPE   O22 9925   1.403   0.777   6.522  0.2100 -0.0798  0.2392
   99SAPE   C22 9926   1.266   0.852   6.345  1.0111 -0.1810 -0.4531
   99SAPE   H2R 9927   1.283   0.765   6.277  0.0180 -2.8181  2.4586
   99SAPE   H2S 9928   1.162   0.891   6.339  0.3303 -1.6134  1.2868
   99SAPE    C3 9929   1.089   0.611   6.718 -0.0241 -0.3793 -0.2586
   99SAPE    HX 9930   1.094   0.604   6.829 -1.6607  0.9796 -0.0544
   99SAPE    HY 9931   1.132   0.519   6.672 -1.4942 -0.2410 -2.0323
   99SAPE   O31 9932   0.955   0.623   6.680  0.0090  0.1343  0.3986
   99SAPE   C31 9933   0.923   0.600   6.553 -0.2593 -0.7807  0.3928
   99SAPE   O32 9934   0.995   0.550   6.470  0.0698  0.7729 -0.0780
   99SAPE   C32 9935   0.769   0.629   6.526 -0.4279  0.6378  0.1151
   99SAPE   H2X 9936   0.696   0.604   6.606 -0.5669 -2.0752 -0.7655
   99SAPE   H2Y 9937   0.736   0.565   6.442 -0.5865 -0.1194  0.7469
   99SAPE   C23 9938   1.370   0.949   6.285  0.4042  1.4081  0.1838
   99SAPE   H3R 9939   1.473   0.907   6.286 -0.5475 -1.1693 -0.7303
   99SAPE   H3S 9940   1.359   1.041   6.346  1.5891  0.8944  1.2061
   99SAPE   C24 9941   1.352   0.976   6.132 -0.3588  0.8601 -0.9774
   99SAPE   H4R 9942   1.247   0.994   6.102 -0.8026  0.6544  0.3749
   99SAPE   H4S 9943   1.395   0.888   6.079 -0.9692 -0.0514 -0.0142
   99SAPE   C25 9944   1.422   1.112   6.122  0.3650  0.5248  1.0633
   99SAPE   H5R 9945   1.364   1.193   6.168  0.0627  1.5642 -1.0235
   99SAPE   C26 9946   1.519   1.141   6.030 -0.0990  0.2258  0.4823
   99SAPE   H6R 9947   1.555   1.244   6.015 -1.3815  0.9591  2.1341
   99SAPE   C27 9948   1.571   1.032   5.936 -0.2297 -0.5055 -0.3575
   99SAPE   H7R 9949   1.588   0.938   5.993  0.2433  0.2411  0.7711
   99SAPE   H7S 9950   1.676   1.055   5.908  0.0439 -1.6205 -0.2665
   99SAPE   C28 9951   1.489   0.993   5.816  0.2247  0.0860  0.7582
   99SAPE   H8R 9952   1.382   0.976   5.835  0.4687 -2.3522  0.2867
   99SAPE   C29 9953   1.536   0.975   5.690 -0.7096 -0.2903  0.2356
   99SAPE   H9R 9954   1.462   0.963   5.609 -2.9918 -1.6802  2.3550
   99SAPE  C210 9955   1.677   0.975   5.633 -0.8292  0.6818 -0.4427
   99SAPE  H10R 9956   1.753   0.972   5.714 -3.0484  0.3046  1.7891
   99SAPE  H10S 9957   1.697   1.067   5.575 -0.0900 -0.4617 -2.0482
   99SAPE  C211 9958   1.701   0.854   5.552  0.0359  1.0300  0.3505
   99SAPE  H11R 9959   1.616   0.807   5.500  2.0287 -3.7111  0.8342
   99SAPE  C212 9960   1.820   0.792   5.534  0.0762 -0.4781 -0.3102
   99SAPE  H12R 9961   1.827   0.699   5.477 -0.7383 -0.7768  0.0682
   99SAPE  C213 9962   1.942   0.845   5.602  0.6475 -0.7636 -0.1106
   99SAPE  H13R 9963   1.938   0.836   5.712 -2.2513  2.0933  0.1857
   99SAPE  H13S 9964   1.956   0.954   5.581  2.9841 -0.5499  2.0208
   99SAPE  C214 9965   2.066   0.772   5.545  0.9010 -0.0004 -0.6593
   99SAPE  H14R 9966   2.114   0.832   5.466 -1.4935  0.5740 -1.7821
   99SAPE  C215 9967   2.116   0.650   5.585 -0.4406  0.0660  0.3604
   99SAPE  H15R 9968   2.208   0.620   5.533  0.1690  0.8713  0.9565
   99SAPE  C216 9969   2.043   0.558   5.678 -0.2062 -0.2142  0.6745
   99SAPE  H16R 9970   2.034   0.464   5.620  0.0554 -0.0637  0.3882
   99SAPE  H16S 9971   1.949   0.603   5.716  0.3328  0.3107  1.4222
   99SAPE  C217 9972   2.116   0.517   5.811  1.0203 -0.5513 -0.1155
   99SAPE  H17R 9973   2.201   0.447   5.803  0.7939 -1.2083  2.3770
   99SAPE  H17S 9974   2.047   0.466   5.882  1.9545  0.8936  1.9408
   99SAPE  C218 9975   2.160   0.642   5.890  0.5840 -0.1205 -0.1649
   99SAPE  H18R 9976   2.091   0.655   5.976  1.4567 -1.0309  0.6972
   99SAPE  H18S 9977   2.141   0.731   5.825 -0.2707 -1.2288 -1.4996
   99SAPE  C219 9978   2.306   0.652   5.935 -0.3601  0.2527  0.3345
   99SAPE  H19R 9979   2.384   0.648   5.856  1.5529  1.2064  2.0819
   99SAPE  H19S 9980   2.331   0.571   6.007  1.1417  0.4946  0.1216
   99SAPE  C220 9981   2.327   0.780   6.013 -0.1144  0.4863  0.3817
   99SAPE  H20R 9982   2.434   0.778   6.043  0.3623  0.9927 -1.1927
   99SAPE  H20S 9983   2.273   0.785   6.110  1.1525  3.0399  1.0434
   99SAPE  H20T 9984   2.295   0.876   5.967  0.4841  1.4655  1.9327
   99SAPE   C33 9985   0.749   0.773   6.481 -0.4889 -0.2567 -0.8022
   99SAPE   H3X 9986   0.842   0.807   6.430 -1.3572  0.8738 -1.7051
   99SAPE   H3Y 9987   0.756   0.819   6.582  1.2747 -2.1015 -0.0019
   99SAPE   C34 9988   0.623   0.801   6.398  0.4448  0.4101 -0.4227
   99SAPE   H4X 9989   0.532   0.766   6.452  0.8886  0.2387  0.2201
   99SAPE   H4Y 9990   0.626   0.732   6.311  0.3231 -2.5195  1.7593
   99SAPE   C35 9991   0.610   0.952   6.374  0.2564  0.1960 -0.3147
   99SAPE   H5X 9992   0.610   1.001   6.474  0.7083 -0.9661  0.2856
   99SAPE   H5Y 9993   0.520   0.959   6.309  0.5655  1.0389 -0.6609
   99SAPE   C36 9994   0.719   1.019   6.286  0.8691 -0.0472 -0.5561
   99SAPE   H6X 9995   0.822   0.988   6.313  1.4230  0.0150 -2.4671
   99SAPE   H6Y 9996   0.700   1.127   6.305  0.5993  0.0567 -1.3890
   99SAPE   C37 9997   0.706   1.026   6.132 -0.1041  0.1154  0.4225
   99SAPE   H7X 9998   0.747   1.126   6.107 -0.8233  0.1935 -0.4600
   99SAPE   H7Y 9999   0.600   1.035   6.102  0.6266  0.4794 -2.3214
   99SAPE   C3810000   0.770   0.923   6.049 -0.7818  1.2002  0.3057
   99SAPE   H8X10001   0.759   0.948   5.941 -1.5014  0.9996  0.3314
   99SAPE   H8Y10002   0.748   0.819   6.079  2.8156  0.0532 -0.5908
   99SAPE   C3910003   0.928   0.926   6.067 -0.2513 -0.6076  0.4497
   99SAPE   H9X10004   0.951   0.926   6.176  0.5475  3.0280  0.4028
   99SAPE   H9Y10005   0.962   1.022   6.024  3.5987  0.1380  4.4274
   99SAPE  C31010006   1.005   0.814   6.000  0.0553  0.8046  0.2852
   99SAPE  H10X10007   0.954   0.716   6.007 -2.1991  1.8810 -0.3023
   99SAPE  H10Y10008   1.107   0.808   6.044 -0.3216 -0.5835  1.0258
   99SAPE  C31110009   1.042   0.847   5.856  0.4843 -0.3675  0.3488
   99SAPE  H11X10010   1.103   0.940   5.859  1.5680 -1.0073 -0.6458
   99SAPE  H11Y10011   0.950   0.860   5.796  0.9376 -0.7815 -0.4598
   99SAPE  C31210012   1.131   0.751   5.776 -0.0069  0.5597 -0.2768
   99SAPE  H12X10013   1.079   0.653   5.768 -2.2999  1.2715  3.3844
   99SAPE  H12Y10014   1.228   0.725   5.822 -1.2030  0.3884  2.3811
   99SAPE  C31310015   1.148   0.798   5.631  0.4304  0.4693 -0.2637
   99SAPE  H13X10016   1.201   0.896   5.632 -0.1065  0.7898 -1.1573
   99SAPE  H13Y10017   1.048   0.820   5.587 -0.7258 -2.4736  0.6456
   99SAPE  C31410018   1.217   0.697   5.538 -0.3819  0.1055 -0.2313
   99SAPE  H14X10019   1.162   0.602   5.551 -0.3945 -0.0441 -1.3192
   99SAPE  H14Y10020   1.320   0.666   5.569 -0.4569 -0.2067 -0.2889
   99SAPE  C31510021   1.198   0.727   5.388 -0.3332 -0.1797 -0.6775
   99SAPE  H15X10022   1.087   0.733   5.386 -0.4503 -0.7242  1.3955
   99SAPE  H15Y10023   1.223   0.644   5.318 -0.4247 -1.8757  1.2000
   99SAPE  C31610024   1.234   0.860   5.346  0.0618  0.9556  0.0981
   99SAPE  H16X10025   1.189   0.940   5.410 -2.8128 -0.4539 -0.0082
   99SAPE  H16Y10026   1.198   0.870   5.241 -1.5715 -0.1911  0.5172
   99SAPE  C31710027   1.388   0.876   5.340 -0.3001  0.5664  0.8380
   99SAPE  H17X10028   1.429   0.782   5.297  0.1401 -0.3352  3.1138
   99SAPE  H17Y10029   1.434   0.887   5.440  1.2783 -0.9574  0.3244
   99SAPE  C31810030   1.429   0.995   5.247  0.4760  0.1996  0.2428
   99SAPE  H18X10031   1.405   0.977   5.141 -1.3120 -3.3674  1.0952
   99SAPE  H18Y10032   1.539   1.006   5.259  0.5715 -0.1548 -0.2945
   99SAPE  H18Z10033   1.377   1.089   5.275 -2.8007 -1.2399 -0.4910
  100SAPE     N10034   2.366   6.967   7.111  0.1853  0.4540  0.1815
  100SAPE   HN110035   2.438   7.016   7.168  3.2389 -2.5139 -0.8641
  100SAPE   HN210036   2.403   6.954   7.015  0.4642  2.4331 -0.0272
  100SAPE   HN310037   2.285   7.029   7.088 -0.7593 -0.4924  0.8610
  100SAPE   C1210038   2.319   6.839   7.176 -0.0204  0.3642  0.1162
  100SAPE  H12A10039   2.236   6.871   7.243 -1.0679  0.8960 -1.3777
  100SAPE  H12B10040   2.406   6.791   7.225  1.8656  1.8058 -1.6609
  100SAPE   C1110041   2.269   6.727   7.075  0.2285  0.0522  0.8045
  100SAPE  H11A10042   2.226   6.639   7.127  0.0147 -0.5477 -0.3494
  100SAPE  H11B10043   2.351   6.678   7.018  0.0637 -1.7049  2.0033
  100SAPE     P10044   2.032   6.835   7.017  0.3139 -0.2549  0.0025
  100SAPE   O1310045   2.008   6.800   7.158 -0.0157 -0.5493 -0.2841
  100SAPE   O1410046   2.024   6.981   6.980  0.1172  0.0748  0.2624
  100SAPE   O1210047   2.176   6.783   6.982  0.2751 -0.0625  0.3582
  100SAPE   O1110048   1.933   6.756   6.920 -0.4747  0.3082  0.1817
  100SAPE    C110049   1.950   6.627   6.884 -0.1570 -0.6020  0.6017
  100SAPE    HA10050   2.025   6.574   6.946  0.0835  0.2775  1.0859
  100SAPE    HB10051   1.851   6.585   6.912 -1.3976 -0.3370 -2.9310
  100SAPE    C210052   1.981   6.619   6.730 -0.0917 -0.2941  0.2112
  100SAPE    HS10053   1.968   6.511   6.709  2.2253 -1.0128  2.1074
  100SAPE   O2110054   2.105   6.675   6.691 -0.1192  0.2834  0.3899
  100SAPE   C2110055   2.203   6.596   6.731  0.6259  0.5377 -0.2280
  100SAPE   O2210056   2.197   6.481   6.763  0.1091  0.6414 -0.4323
  100SAPE   C2210057   2.333   6.676   6.718  0.0760 -0.0716 -0.3764
  100SAPE   H2R10058   2.335   6.707   6.611  0.1839 -2.2943 -1.0604
  100SAPE   H2S10059   2.313   6.761   6.787 -0.9111 -0.4893 -0.1355
  100SAPE    C310060   1.862   6.693   6.661  0.6997 -0.2721  0.6713
  100SAPE    HX10061   1.868   6.804   6.663  0.0618 -0.1741 -1.3120
  100SAPE    HY10062   1.766   6.668   6.713 -0.8917  1.3372 -1.3211
  100SAPE   O3110063   1.841   6.659   6.516 -0.3532 -0.1586 -0.5359
  100SAPE   C3110064   1.920   6.733   6.431  0.5297  0.0313  0.4486
  100SAPE   O3210065   1.988   6.825   6.462 -0.2435  0.1440  0.0478
  100SAPE   C3210066   1.880   6.677   6.289  0.2754  0.5521 -0.0866
  100SAPE   H2X10067   1.791   6.738   6.261 -0.3330  0.8298  2.2140
  100SAPE   H2Y10068   1.848   6.571   6.293 -3.7820  1.6388  0.6757
  100SAPE   C2310069   2.461   6.599   6.753  0.6195 -0.0703  0.7115
  100SAPE   H3R10070   2.444   6.521   6.831 -0.5755 -0.4633  0.0763
  100SAPE   H3S10071   2.532   6.667   6.804  2.2487 -1.7215  0.7730
  100SAPE   C2410072   2.540   6.536   6.626  0.2818  0.2449 -0.3022
  100SAPE   H4R10073   2.642   6.516   6.666  0.7709  0.9117 -1.1977
  100SAPE   H4S10074   2.544   6.614   6.547  2.8891  0.5668  0.0396
  100SAPE   C2510075   2.467   6.413   6.578 -0.4567 -0.1531  1.0162
  100SAPE   H5R10076   2.429   6.358   6.665 -0.7091 -0.2717  0.8330
  100SAPE   C2610077   2.428   6.369   6.457  0.2319  0.5248  0.9211
  100SAPE   H6R10078   2.366   6.278   6.454 -1.5515  1.5532  3.2095
  100SAPE   C2710079   2.457   6.428   6.318  0.5414  0.2348 -0.2949
  100SAPE   H7R10080   2.430   6.356   6.238  1.4504  0.4349 -0.7909
  100SAPE   H7S10081   2.567   6.441   6.306  0.1871  1.8172 -2.3848
  100SAPE   C2810082   2.396   6.560   6.284 -0.6202 -0.3120  0.3719
  100SAPE   H8R10083   2.331   6.602   6.362 -1.5074  3.3547 -2.0884
  100SAPE   C2910084   2.412   6.643   6.174 -0.3075  0.6373 -0.1034
  100SAPE   H9R10085   2.352   6.735   6.168 -0.1317  0.6792 -1.4888
  100SAPE  C21010086   2.507   6.601   6.058 -0.8928  0.1722 -0.3299
  100SAPE  H10R10087   2.447   6.560   5.973 -1.2897 -0.8600  0.4313
  100SAPE  H10S10088   2.568   6.514   6.087 -0.4558  0.6955  0.3529
  100SAPE  C21110089   2.600   6.702   5.989 -0.1891  1.4012 -0.4689
  100SAPE  H11R10090   2.705   6.683   6.018 -0.3548 -2.0178 -1.7426
  100SAPE  C21210091   2.568   6.801   5.906 -1.1856 -0.2109 -0.2196
  100SAPE  H12R10092   2.638   6.871   5.857  0.2484 -2.4663 -1.5908
  100SAPE  C21310093   2.429   6.845   5.875 -0.0551  0.2803  0.2094
  100SAPE  H13R10094   2.361   6.760   5.896  1.3841 -1.0611 -0.3378
  100SAPE  H13S10095   2.418   6.862   5.766 -1.8123  1.4212  0.5329
  100SAPE  C21410096   2.410   6.968   5.957 -0.4213  0.4084 -0.1851
  100SAPE  H14R10097   2.427   6.956   6.065 -0.2397 -3.7991 -0.5410
  100SAPE  C21510098   2.409   7.092   5.906 -0.5692  0.6612 -0.7754
  100SAPE  H15R10099   2.395   7.174   5.978  1.2038 -1.6511  2.5108
  100SAPE  C21610100   2.414   7.124   5.757  0.4416  0.0489 -0.2866
  100SAPE  H16R10101   2.314   7.099   5.714  0.1239  0.2272  0.3495
  100SAPE  H16S10102   2.495   7.060   5.714  0.3774 -0.2685  0.0682
  100SAPE  C21710103   2.450   7.270   5.741 -0.4976 -0.4481 -0.6302
  100SAPE  H17R10104   2.548   7.292   5.788 -0.8797 -0.2446  0.0836
  100SAPE  H17S10105   2.382   7.330   5.805  2.2963  0.1006  2.0421
  100SAPE  C21810106   2.431   7.322   5.595 -0.1404 -0.4056  0.3297
  100SAPE  H18R10107   2.331   7.305   5.549 -0.5032  1.2367  0.4464
  100SAPE  H18S10108   2.498   7.255   5.538 -0.0620 -2.1412  2.3278
  100SAPE  C21910109   2.473   7.474   5.561 -0.2925  0.6350  0.5266
  100SAPE  H19R10110   2.558   7.484   5.632 -0.8226  0.2978  1.2232
  100SAPE  H19S10111   2.397   7.547   5.596  1.3304  2.1598  1.0345
  100SAPE  C22010112   2.515   7.494   5.418 -0.5436 -0.2883  0.2621
  100SAPE  H20R10113   2.523   7.600   5.388  0.2951  0.1177  1.8395
  100SAPE  H20S10114   2.443   7.437   5.354  1.1766 -1.1509 -1.0046
  100SAPE  H20T10115   2.614   7.446   5.403 -1.1267 -0.8344 -2.3639
  100SAPE   C3310116   1.997   6.698   6.186 -0.0934  0.5236 -0.0225
  100SAPE   H3X10117   2.054   6.603   6.190  0.0424  0.5854 -0.4373
  100SAPE   H3Y10118   2.059   6.782   6.224 -1.7478  0.1305  4.0706
  100SAPE   C3410119   1.942   6.730   6.051 -0.0600 -0.0666 -0.0290
  100SAPE   H4X10120   1.926   6.840   6.057  1.1510  0.0823  0.7810
  100SAPE   H4Y10121   1.851   6.668   6.035  0.1179 -0.7893  1.5837
  100SAPE   C3510122   2.045   6.692   5.945  0.0132  0.2022 -0.2029
  100SAPE   H5X10123   2.049   6.582   5.939  2.2024  0.2688 -0.8472
  100SAPE   H5Y10124   2.142   6.733   5.980 -0.0848  0.1568  0.1244
  100SAPE   C3610125   2.025   6.745   5.801 -0.4221  0.0294  0.7449
  100SAPE   H6X10126   1.917   6.729   5.780 -1.0366  3.3452  0.9218
  100SAPE   H6Y10127   2.087   6.686   5.731 -0.4739 -0.9529  1.4965
  100SAPE   C3710128   2.050   6.896   5.790 -0.1467  0.3539  0.1098
  100SAPE   H7X10129   2.157   6.915   5.815  0.0815 -2.3887  1.7084
  100SAPE   H7Y10130   1.995   6.943   5.874 -0.5146  0.0837  0.0250
  100SAPE   C3810131   2.009   6.950   5.654 -0.1506 -0.2644 -0.6949
  100SAPE   H8X10132   1.991   7.059   5.652  0.3219 -0.1857 -0.7422
  100SAPE   H8Y10133   1.906   6.915   5.634 -0.7218  1.0797 -0.1770
  100SAPE   C3910134   2.103   6.913   5.542  0.4427  0.5780  0.2349
  100SAPE   H9X10135   2.077   6.807   5.520 -2.5313  0.6038  2.8409
  100SAPE   H9Y10136   2.206   6.899   5.580  0.1780 -0.2707  0.6694
  100SAPE  C31010137   2.085   6.999   5.418  0.7003 -1.2514  1.1875
  100SAPE  H10X10138   1.986   6.989   5.367  0.1381  3.8248  0.7650
  100SAPE  H10Y10139   2.150   6.976   5.331  0.8450  2.6231  0.0522
  100SAPE  C31110140   2.106   7.149   5.434 -0.5787 -0.3778  0.6150
  100SAPE  H11X10141   2.205   7.174   5.478 -0.8267  1.3109  0.2581
  100SAPE  H11Y10142   2.031   7.191   5.504 -1.0191 -2.4075  1.4493
  100SAPE  C31210143   2.081   7.225   5.301  0.4807  0.1615  0.2066
  100SAPE  H12X10144   1.985   7.195   5.254  0.3220  0.6912  0.1791
  100SAPE  H12Y10145   2.155   7.193   5.224 -0.8278 -2.6904  0.0132
  100SAPE  C31310146   2.064   7.375   5.325 -0.1590 -0.1850 -0.4137
  100SAPE  H13X10147   2.165   7.416   5.348 -0.6007  0.3645  0.6247
  100SAPE  H13Y10148   1.996   7.383   5.412  1.3132 -0.1945  0.7788
  100SAPE  C31410149   1.996   7.442   5.201 -0.6610 -0.0122 -0.2583
  100SAPE  H14X10150   1.901   7.388   5.183 -0.2593  0.0932 -3.0068
  100SAPE  H14Y10151   2.061   7.420   5.114 -1.1478 -0.0138 -0.6256
  100SAPE  C31510152   1.983   7.593   5.228  0.5702 -0.2493 -0.3653
  100SAPE  H15X10153   2.068   7.634   5.287  1.8845 -2.0824 -0.9054
  100SAPE  H15Y10154   1.891   7.597   5.290  1.3260 -2.4074  0.9807
  100SAPE  C31610155   1.945   7.676   5.103 -0.5099  0.7753 -0.2781
  100SAPE  H16X10156   2.028   7.649   5.034  3.0122 -0.5673  4.0335
  100SAPE  H16Y10157   1.963   7.783   5.128  0.7712  1.0944 -2.3225
  100SAPE  C31710158   1.802   7.653   5.047  0.3008 -0.3067 -0.2545
  100SAPE  H17X10159   1.783   7.544   5.047  1.4898 -0.5227 -0.6434
  100SAPE  H17Y10160   1.803   7.697   4.945  0.9169  2.0136  0.6814
  100SAPE  C31810161   1.700   7.718   5.137  0.4677  0.5660  0.4957
  100SAPE  H18X10162   1.666   7.637   5.205  1.1360 -1.0153 -0.9814
  100SAPE  H18Y10163   1.609   7.750   5.081  0.1687 -1.5379 -0.3317
  100SAPE  H18Z10164   1.743   7.802   5.196  0.8277 -0.5592  1.8894
  101SAPE     N10165   2.898   6.927   6.918  0.1093  0.1445 -0.5407
  101SAPE   HN110166   2.878   6.825   6.926 -2.2230  0.4783 -1.3283
  101SAPE   HN210167   2.915   6.967   7.012  0.6123  0.6356 -0.8317
  101SAPE   HN310168   2.821   6.975   6.867 -0.2116  0.1081 -0.0898
  101SAPE   C1210169   3.021   6.951   6.833 -0.2265 -0.9387  0.1120
  101SAPE  H12A10170   2.978   6.946   6.730 -0.9507  1.6857  0.2030
  101SAPE  H12B10171   3.092   6.869   6.855  0.7957 -0.5781 -1.6310
  101SAPE   C1110172   3.078   7.087   6.868  0.3084 -0.2178  0.2747
  101SAPE  H11A10173   3.174   7.090   6.812 -0.7469  1.7096 -1.5549
  101SAPE  H11B10174   3.102   7.098   6.976 -1.8515  0.6386  0.7111
  101SAPE     P10175   3.044   7.330   6.772  0.0782  0.1872 -0.3197
  101SAPE   O1310176   2.936   7.431   6.778 -0.0122 -0.3035  0.3566
  101SAPE   O1410177   3.174   7.372   6.834  0.3176 -0.5946 -0.2371
  101SAPE   O1210178   2.992   7.186   6.829 -0.5414 -0.8430  0.4122
  101SAPE   O1110179   3.079   7.288   6.621  0.0816 -0.0911 -0.0148
  101SAPE    C110180   2.993   7.198   6.544 -0.1896 -0.7831 -0.4590
  101SAPE    HA10181   3.013   7.095   6.580  3.0398 -0.1624 -0.1923
  101SAPE    HB10182   2.886   7.221   6.562 -0.1554 -0.9009 -0.0959
  101SAPE    C210183   3.024   7.217   6.394 -0.2352  0.0762 -0.0152
  101SAPE    HS10184   2.960   7.149   6.334 -1.9258  2.3104 -0.8924
  101SAPE   O2110185   3.164   7.197   6.378  0.0738  0.4026  0.1026
  101SAPE   C2110186   3.204   7.070   6.364 -0.5086  0.2983 -0.0391
  101SAPE   O2210187   3.142   6.975   6.405 -0.3916  0.6851 -0.3953
  101SAPE   C2210188   3.335   7.071   6.277  0.1305  0.1381  0.3638
  101SAPE   H2R10189   3.336   7.174   6.235 -2.1629 -0.5968 -1.7321
  101SAPE   H2S10190   3.427   7.045   6.334  1.2173  0.2066 -1.2858
  101SAPE    C310191   2.993   7.356   6.335  0.3443 -0.0874  0.0025
  101SAPE    HX10192   3.060   7.417   6.399 -0.2090  0.8213 -0.2630
  101SAPE    HY10193   2.889   7.387   6.359  0.9288  2.7723 -0.7154
  101SAPE   O3110194   3.018   7.366   6.190 -0.7274  0.0121  0.4202
  101SAPE   C3110195   3.118   7.448   6.157  0.4096 -0.6346 -0.1208
  101SAPE   O3210196   3.159   7.537   6.224 -0.4152  0.3261  0.4196
  101SAPE   C3210197   3.175   7.414   6.020  0.5271  0.0613 -0.2478
  101SAPE   H2X10198   3.127   7.481   5.945 -1.2110  0.7899  1.4318
  101SAPE   H2Y10199   3.166   7.305   6.001  0.5232 -0.1237  0.7538
  101SAPE   C2310200   3.334   6.981   6.155 -0.1361 -0.1233  0.0962
  101SAPE   H3R10201   3.273   7.017   6.070  0.5770  0.2748 -0.2601
  101SAPE   H3S10202   3.305   6.876   6.178  2.5839 -1.8784 -3.3540
  101SAPE   C2410203   3.476   6.964   6.101  0.4535 -0.3905 -0.1487
  101SAPE   H4R10204   3.455   6.884   6.028 -2.1772 -0.1008  0.1897
  101SAPE   H4S10205   3.537   6.918   6.181 -1.2482 -0.7622  0.9909
  101SAPE   C2510206   3.545   7.088   6.043  0.4730  0.2878  0.1165
  101SAPE   H5R10207   3.595   7.155   6.114  2.2914 -1.1976  0.3207
  101SAPE   C2610208   3.551   7.112   5.911  0.4952  0.3732  0.7708
  101SAPE   H6R10209   3.598   7.207   5.881 -1.0809  1.0004  0.1720
  101SAPE   C2710210   3.517   7.024   5.793  0.0697  0.5375 -0.0753
  101SAPE   H7R10211   3.461   6.935   5.829  0.2979  0.3811 -0.1052
  101SAPE   H7S10212   3.610   6.981   5.750  0.7903  2.1364 -0.1809
  101SAPE   C2810213   3.431   7.091   5.688 -0.2091  0.1082  0.9092
  101SAPE   H8R10214   3.334   7.134   5.717 -0.7976 -2.2566  2.7956
  101SAPE   C2910215   3.464   7.090   5.562 -0.2881  0.7606  0.9255
  101SAPE   H9R10216   3.378   7.128   5.504 -0.0108 -0.2392 -0.1719
  101SAPE  C21010217   3.584   7.036   5.485 -0.2984  0.5485 -0.1618
  101SAPE  H10R10218   3.653   6.984   5.554  1.1158  1.0903 -1.1142
  101SAPE  H10S10219   3.649   7.114   5.439  1.2508 -0.7272 -0.2258
  101SAPE  C21110220   3.554   6.928   5.391 -0.2149 -0.0232  0.7536
  101SAPE  H11R10221   3.505   6.837   5.429 -1.2955 -0.4684 -1.5036
  101SAPE  C21210222   3.566   6.938   5.251 -0.7336  0.6852 -0.5053
  101SAPE  H12R10223   3.542   6.853   5.186 -4.3465  3.7725 -3.6757
  101SAPE  C21310224   3.623   7.056   5.178  0.1085  0.1052  0.3547
  101SAPE  H13R10225   3.710   7.099   5.231 -0.0854  0.9907 -0.0377
  101SAPE  H13S10226   3.554   7.143   5.172  0.1048  0.0967  0.2711
  101SAPE  C21410227   3.670   7.014   5.036 -0.0537 -0.4820 -0.5854
  101SAPE  H14R10228   3.779   7.022   5.019  0.4286 -1.1053  1.7752
  101SAPE  C21510229   3.582   6.980   4.932 -0.7222 -0.0234 -0.1210
  101SAPE  H15R10230   3.625   6.969   4.831 -2.1557 -3.1752 -0.5101
  101SAPE  C21610231   3.433   6.973   4.942 -0.4830  0.2165 -0.1917
  101SAPE  H16R10232   3.405   6.919   5.035 -0.0490 -0.0011 -0.1859
  101SAPE  H16S10233   3.402   6.908   4.857  0.9924  1.7145 -1.9640
  101SAPE  C21710234   3.359   7.104   4.933  0.2142 -0.0793 -1.0293
  101SAPE  H17R10235   3.412   7.181   4.993  2.3261 -1.2953 -1.2379
  101SAPE  H17S10236   3.254   7.098   4.967 -0.5472  0.3718 -3.1643
  101SAPE  C21810237   3.359   7.157   4.790  0.2590  0.5911  0.4483
  101SAPE  H18R10238   3.349   7.066   4.727 -1.0668  1.2557 -0.3459
  101SAPE  H18S10239   3.457   7.202   4.764  0.2188  0.8418  0.7181
  101SAPE  C21910240   3.254   7.251   4.742  0.8686 -0.6386 -0.0284
  101SAPE  H19R10241   3.267   7.351   4.788 -1.8253 -1.3981  2.7486
  101SAPE  H19S10242   3.155   7.210   4.772  0.9416 -0.8539 -0.0804
  101SAPE  C22010243   3.247   7.275   4.592  0.3778  0.1042 -0.2396
  101SAPE  H20R10244   3.231   7.179   4.539 -0.4949  0.0616  0.0780
  101SAPE  H20S10245   3.342   7.321   4.558  0.5858 -0.2652 -0.1617
  101SAPE  H20T10246   3.164   7.341   4.556  2.2621  2.2610 -0.8640
  101SAPE   C3310247   3.331   7.426   6.023 -0.0538 -0.4016  0.1069
  101SAPE   H3X10248   3.380   7.346   6.082 -0.8972  0.1220  1.5807
  101SAPE   H3Y10249   3.364   7.513   6.084  1.1977 -0.8183  0.0402
  101SAPE   C3410250   3.387   7.427   5.886 -0.1589  0.1181 -0.3589
  101SAPE   H4X10251   3.342   7.339   5.834  1.0226 -1.1980  0.7573
  101SAPE   H4Y10252   3.496   7.406   5.886 -0.0946  0.4449  0.3808
  101SAPE   C3510253   3.378   7.557   5.803 -0.1094  0.1340  0.1998
  101SAPE   H5X10254   3.442   7.640   5.839 -1.1878  1.0533  0.0379
  101SAPE   H5Y10255   3.275   7.596   5.808 -0.0487  0.2097  0.9531
  101SAPE   C3610256   3.393   7.544   5.654 -0.2897 -0.8440  0.9474
  101SAPE   H6X10257   3.354   7.641   5.615  2.1107  0.7639  2.2585
  101SAPE   H6Y10258   3.334   7.454   5.628  1.2876 -1.8867  0.8542
  101SAPE   C3710259   3.533   7.529   5.590  0.3330 -0.0437 -0.4490
  101SAPE   H7X10260   3.592   7.449   5.641  1.7831  0.5592 -1.1261
  101SAPE   H7Y10261   3.590   7.624   5.586 -1.8478  1.2891 -1.9801
  101SAPE   C3810262   3.502   7.467   5.454 -0.0080 -0.6747  0.4625
  101SAPE   H8X10263   3.402   7.509   5.431  0.8646  2.5891  2.0462
  101SAPE   H8Y10264   3.490   7.356   5.458 -1.3343 -0.6790 -1.7254
  101SAPE   C3910265   3.605   7.499   5.346  0.0435  0.6628  0.6836
  101SAPE   H9X10266   3.706   7.461   5.373  0.3199 -0.1509 -1.3185
  101SAPE   H9Y10267   3.617   7.609   5.353  1.4864  0.4793  1.4664
  101SAPE  C31010268   3.555   7.445   5.215  0.0538 -0.2318  0.0536
  101SAPE  H10X10269   3.466   7.501   5.180 -1.5767 -2.6195  0.1043
  101SAPE  H10Y10270   3.531   7.336   5.219  0.1201 -0.3146 -1.2819
  101SAPE  C31110271   3.667   7.469   5.112 -0.4225  0.3493  0.0307
  101SAPE  H11X10272   3.756   7.412   5.147 -1.3824 -0.8207  0.6079
  101SAPE  H11Y10273   3.698   7.575   5.101  2.2777 -0.5043 -1.6454
  101SAPE  C31210274   3.612   7.415   4.972 -0.2840  0.1089  0.0071
  101SAPE  H12X10275   3.519   7.467   4.942 -0.6600  0.1063  1.1580
  101SAPE  H12Y10276   3.590   7.307   4.985 -1.3169  0.4966  1.6557
  101SAPE  C31310277   3.712   7.430   4.854 -0.2153 -0.1247  0.4238
  101SAPE  H13X10278   3.756   7.531   4.844  1.0597 -0.7916 -1.1377
  101SAPE  H13Y10279   3.657   7.404   4.761  1.7084 -1.6571 -0.3568
  101SAPE  C31410280   3.827   7.331   4.851  0.7167 -0.0986  0.0684
  101SAPE  H14X10281   3.799   7.225   4.865 -0.0140  0.2460  1.3214
  101SAPE  H14Y10282   3.895   7.356   4.935 -1.8629  1.9946  1.6707
  101SAPE  C31510283   3.906   7.354   4.716  0.5209  0.4328 -0.2290
  101SAPE  H15X10284   3.937   7.460   4.710  4.3643 -0.3481  2.2293
  101SAPE  H15Y10285   3.842   7.320   4.632 -1.6218  0.7929  1.1730
  101SAPE  C31610286   4.042   7.286   4.688 -0.0342 -0.2063 -0.2088
  101SAPE  H16X10287   4.121   7.322   4.757 -2.4856  2.4911  1.4545
  101SAPE  H16Y10288   4.065   7.308   4.582 -0.8175 -1.2786 -0.6228
  101SAPE  C31710289   4.044   7.134   4.701  0.3099  0.9548 -0.3885
  101SAPE  H17X10290   4.003   7.098   4.798 -0.8175  0.3225 -1.0838
  101SAPE  H17Y10291   4.148   7.095   4.704  0.1108  0.1638 -2.3194
  101SAPE  C31810292   3.973   7.052   4.590  0.0747 -0.4158  0.3449
  101SAPE  H18X10293   3.989   7.100   4.491 -1.7081 -1.2033 -0.3677
  101SAPE  H18Y10294   3.863   7.049   4.600 -0.0901  1.3352 -0.4927
  101SAPE  H18Z10295   4.021   6.952   4.582  3.2336  1.1241 -2.7087
  102SAPE     N10296   2.660   4.128   6.723  0.2378 -0.7372  0.4291
  102SAPE   HN110297   2.760   4.122   6.752 -0.4454 -2.9230  2.6983
  102SAPE   HN210298   2.639   4.217   6.674  1.3687 -1.5070 -1.5456
  102SAPE   HN310299   2.599   4.126   6.807 -0.3986  1.6193  0.0903
  102SAPE   C1210300   2.623   4.006   6.632  0.5436  0.0679  0.2754
  102SAPE  H12A10301   2.715   3.985   6.574  0.0004 -1.1003 -0.1947
  102SAPE  H12B10302   2.540   4.041   6.567  1.0315  1.1037  0.1815
  102SAPE   C1110303   2.575   3.890   6.719 -0.2416  0.5682  0.0429
  102SAPE  H11A10304   2.549   3.802   6.655  2.8928 -0.7787  0.4521
  102SAPE  H11B10305   2.485   3.931   6.769  0.7627  2.6496  0.2315
  102SAPE     P10306   2.675   3.722   6.899 -0.2616  0.1985 -0.6285
  102SAPE   O1310307   2.795   3.731   6.979 -0.5572  0.3854  0.3068
  102SAPE   O1410308   2.554   3.720   6.981 -0.3586  0.5911 -0.2884
  102SAPE   O1210309   2.675   3.851   6.812 -0.0788  0.0590 -0.1269
  102SAPE   O1110310   2.691   3.599   6.803  0.4104 -0.5650  0.0910
  102SAPE    C110311   2.817   3.565   6.744  0.1036 -0.1492  0.6856
  102SAPE    HA10312   2.891   3.567   6.826 -1.3299  0.0926  2.0150
  102SAPE    HB10313   2.810   3.457   6.716 -0.7171 -0.0699  0.5705
  102SAPE    C210314   2.847   3.661   6.627 -0.0707 -0.0739 -0.3056
  102SAPE    HS10315   2.816   3.766   6.646 -0.1808  0.1221 -1.4837
  102SAPE   O2110316   2.787   3.615   6.505  0.0317 -0.5608 -0.0700
  102SAPE   C2110317   2.784   3.704   6.407  0.5844  0.2121  0.2580
  102SAPE   O2210318   2.797   3.827   6.416 -0.2991 -0.1781 -0.0703
  102SAPE   C2210319   2.761   3.632   6.277  0.6783  0.0522  1.1872
  102SAPE   H2R10320   2.841   3.558   6.256  1.1801  0.6109  1.1053
  102SAPE   H2S10321   2.665   3.583   6.306  0.0575 -0.0732 -0.9580
  102SAPE    C310322   3.005   3.656   6.605  0.3618 -0.0478 -0.2749
  102SAPE    HX10323   3.065   3.699   6.687 -1.2900 -0.3080  1.1248
  102SAPE    HY10324   3.020   3.712   6.510  1.0894  0.0729 -0.0925
  102SAPE   O3110325   3.047   3.515   6.599  0.1760  0.4947 -0.1646
  102SAPE   C3110326   3.144   3.491   6.511 -0.6043  0.3163 -0.5032
  102SAPE   O3210327   3.225   3.573   6.477 -0.1093 -0.1849  0.2945
  102SAPE   C3210328   3.132   3.347   6.452  0.1462 -0.0344 -0.3272
  102SAPE   H2X10329   3.100   3.281   6.536  0.2014  1.3183  0.7948
  102SAPE   H2Y10330   3.237   3.311   6.446  0.7675  1.1087  2.0990
  102SAPE   C2310331   2.742   3.730   6.159 -0.1631  0.0316 -0.2031
  102SAPE   H3R10332   2.702   3.831   6.180 -4.3120 -1.6607  1.2718
  102SAPE   H3S10333   2.669   3.688   6.086  0.8770  0.2847 -1.4148
  102SAPE   C2410334   2.870   3.745   6.071  0.8371 -0.3392  0.4988
  102SAPE   H4R10335   2.909   3.650   6.029  0.1622 -0.2507 -0.3744
  102SAPE   H4S10336   2.954   3.775   6.137  0.5434 -0.5969  0.9973
  102SAPE   C2510337   2.847   3.847   5.959 -0.4855  0.5057  0.0078
  102SAPE   H5R10338   2.842   3.952   5.991 -2.5249  0.4021  0.1620
  102SAPE   C2610339   2.808   3.830   5.829 -0.1663 -0.0254  0.5656
  102SAPE   H6R10340   2.807   3.923   5.771 -1.9908  1.8522  3.3963
  102SAPE   C2710341   2.779   3.695   5.760 -0.2276 -0.4212 -0.3862
  102SAPE   H7R10342   2.715   3.721   5.673 -0.5788 -0.1566 -0.0517
  102SAPE   H7S10343   2.730   3.633   5.838 -0.2039  0.9441  0.7648
  102SAPE   C2810344   2.905   3.629   5.719  0.2819 -0.5036 -0.5751
  102SAPE   H8R10345   2.997   3.679   5.755 -1.2394  1.3751  0.8964
  102SAPE   C2910346   2.920   3.519   5.648  0.2217  0.2320  0.4142
  102SAPE   H9R10347   3.021   3.504   5.608 -0.2747 -0.6346 -0.5704
  102SAPE  C21010348   2.817   3.419   5.600  0.2522  0.0601 -0.3071
  102SAPE  H10R10349   2.797   3.428   5.491  0.4036  1.7657 -0.2177
  102SAPE  H10S10350   2.724   3.439   5.658  1.8380 -0.2670  2.5526
  102SAPE  C21110351   2.868   3.277   5.617 -0.1313  0.1874 -1.0430
  102SAPE  H11R10352   2.860   3.248   5.722 -0.4160  0.4579 -0.9922
  102SAPE  C21210353   2.905   3.183   5.530 -0.7399  0.5748  0.3976
  102SAPE  H12R10354   2.949   3.086   5.557 -2.6236 -0.7776 -1.1507
  102SAPE  C21310355   2.929   3.218   5.385 -0.8910 -0.1873  0.1480
  102SAPE  H13R10356   3.033   3.254   5.374 -1.5491  1.9757  0.5623
  102SAPE  H13S10357   2.867   3.299   5.341 -0.4264  0.2625  0.3167
  102SAPE  C21410358   2.897   3.093   5.308 -0.0806 -0.5496 -0.0150
  102SAPE  H14R10359   2.901   2.997   5.361 -2.1092  0.7181  2.6322
  102SAPE  C21510360   2.890   3.099   5.172  0.4874  0.1729  0.4110
  102SAPE  H15R10361   2.879   2.998   5.129 -2.7680 -0.5090  2.4428
  102SAPE  C21610362   2.893   3.218   5.084 -0.7419 -0.1373  0.4000
  102SAPE  H16R10363   2.944   3.304   5.132 -2.4603 -0.2524  2.5559
  102SAPE  H16S10364   2.791   3.262   5.083 -0.8556 -0.3740  1.3186
  102SAPE  C21710365   2.929   3.183   4.937 -0.1289  0.5470 -0.1160
  102SAPE  H17R10366   2.908   3.278   4.882 -0.1044  0.2231 -0.6937
  102SAPE  H17S10367   2.867   3.104   4.890  0.7545  2.0971 -4.3974
  102SAPE  C21810368   3.084   3.158   4.920 -0.3627  0.2257  0.5018
  102SAPE  H18R10369   3.121   3.077   4.986  1.1843  0.1443 -0.4259
  102SAPE  H18S10370   3.132   3.251   4.956 -2.1385  0.5346  2.2452
  102SAPE  C21910371   3.125   3.130   4.776 -0.1563 -0.1543 -0.7315
  102SAPE  H19R10372   3.233   3.150   4.765  0.2897 -2.4025 -1.0677
  102SAPE  H19S10373   3.081   3.205   4.707  1.6953  1.7210  0.0291
  102SAPE  C22010374   3.099   2.981   4.728 -0.5966 -0.9528  0.1434
  102SAPE  H20R10375   3.146   2.916   4.805  1.0257  2.0850  1.8813
  102SAPE  H20S10376   3.141   2.959   4.628 -0.6433  1.3290 -0.4255
  102SAPE  H20T10377   2.990   2.958   4.734 -1.0229  0.6819 -0.8947
  102SAPE   C3310378   3.070   3.334   6.317  0.7743  0.1957 -0.1322
  102SAPE   H3X10379   2.970   3.383   6.321  0.3371 -0.7890  2.3489
  102SAPE   H3Y10380   3.063   3.227   6.288 -0.3263  0.3455 -0.4410
  102SAPE   C3410381   3.153   3.399   6.203 -0.7860  0.2750  0.3826
  102SAPE   H4X10382   3.255   3.356   6.211 -0.1841  1.5324 -0.3755
  102SAPE   H4Y10383   3.159   3.510   6.205  1.0427  0.2035  1.9426
  102SAPE   C3510384   3.101   3.352   6.061  0.5289  0.5883 -0.5395
  102SAPE   H5X10385   2.999   3.396   6.056  0.9786  1.8685  0.7441
  102SAPE   H5Y10386   3.087   3.242   6.060 -0.6158  0.7136 -2.6074
  102SAPE   C3610387   3.198   3.393   5.951 -0.5856  0.4652  0.2529
  102SAPE   H6X10388   3.167   3.376   5.845  0.2844 -1.3882  0.2588
  102SAPE   H6Y10389   3.298   3.352   5.977 -1.6166 -0.6701  2.7221
  102SAPE   C3710390   3.218   3.547   5.959 -0.7872  0.3185  0.2029
  102SAPE   H7X10391   3.296   3.558   6.038 -0.0760  0.4189 -0.4943
  102SAPE   H7Y10392   3.122   3.591   5.993 -1.5343 -0.7899 -0.3913
  102SAPE   C3810393   3.282   3.603   5.828 -0.0568 -0.6237  0.5520
  102SAPE   H8X10394   3.211   3.572   5.747 -0.6004 -0.8426  1.1079
  102SAPE   H8Y10395   3.381   3.556   5.812  2.7131  3.8866  2.4940
  102SAPE   C3910396   3.295   3.751   5.824  0.3508  0.0289  0.3123
  102SAPE   H9X10397   3.374   3.794   5.889  0.9489  1.7363 -1.4432
  102SAPE   H9Y10398   3.201   3.791   5.867  0.6130  1.0319 -0.0197
  102SAPE  C31010399   3.303   3.818   5.680 -0.0119  0.2299 -0.3684
  102SAPE  H10X10400   3.284   3.927   5.690 -0.2373  0.2518 -1.0085
  102SAPE  H10Y10401   3.222   3.784   5.613 -0.6233  3.1246 -1.2238
  102SAPE  C31110402   3.433   3.806   5.609 -0.5804 -0.0211  0.0755
  102SAPE  H11X10403   3.470   3.701   5.609 -1.5177 -0.4287  3.0907
  102SAPE  H11Y10404   3.521   3.863   5.644  1.2041 -2.2239 -0.6069
  102SAPE  C31210405   3.423   3.867   5.466 -0.2335  0.1389 -0.4338
  102SAPE  H12X10406   3.423   3.978   5.467  0.5888  0.1464  0.5605
  102SAPE  H12Y10407   3.324   3.836   5.425 -0.4825  0.6508 -0.2339
  102SAPE  C31310408   3.546   3.816   5.388  0.1005 -0.5230 -0.4903
  102SAPE  H13X10409   3.551   3.708   5.364 -0.9535 -0.7017  0.0141
  102SAPE  H13Y10410   3.638   3.848   5.442 -0.8146  1.3574  0.0211
  102SAPE  C31410411   3.560   3.882   5.244  0.1042 -0.0361  0.0821
  102SAPE  H14X10412   3.575   3.991   5.256  1.8291 -0.2137 -0.1816
  102SAPE  H14Y10413   3.457   3.868   5.203 -0.6704 -1.7657  2.4209
  102SAPE  C31510414   3.661   3.820   5.153  0.0196 -0.0041  0.2248
  102SAPE  H15X10415   3.664   3.709   5.166 -0.4483 -0.4736 -2.9073
  102SAPE  H15Y10416   3.755   3.865   5.191 -0.5827  2.5257 -1.1108
  102SAPE  C31610417   3.643   3.847   4.998 -0.5699  0.2877 -1.2227
  102SAPE  H16X10418   3.721   3.805   4.932 -0.8349 -2.9432  0.3230
  102SAPE  H16Y10419   3.625   3.957   4.995 -2.6757  0.1019  0.9505
  102SAPE  C31710420   3.518   3.788   4.932 -0.2600 -0.2310 -0.3914
  102SAPE  H17X10421   3.425   3.799   4.992  0.0346 -1.5309  0.3407
  102SAPE  H17Y10422   3.534   3.678   4.929  1.8090  0.0556 -1.6618
  102SAPE  C31810423   3.505   3.861   4.801  0.5693 -1.0337  0.4148
  102SAPE  H18X10424   3.608   3.881   4.763 -0.0418 -1.2636 -1.5044
  102SAPE  H18Y10425   3.452   3.957   4.814  0.5584 -0.9333 -0.3167
  102SAPE  H18Z10426   3.455   3.805   4.719 -0.5471  1.8438 -0.9886
  103SAPE     N10427   4.006   4.751   2.594 -0.1474  0.1197 -0.8035
  103SAPE   HN110428   4.094   4.704   2.565  0.0976  0.2421 -0.2591
  103SAPE   HN210429   3.962   4.685   2.661  1.1026 -2.2797 -2.2185
  103SAPE   HN310430   3.939   4.760   2.514  1.5358 -0.8722 -2.4060
  103SAPE   C1210431   4.044   4.891   2.652 -0.3602 -0.0985  0.1202
  103SAPE  H12A10432   3.958   4.962   2.659  1.2659  1.9248  0.3688
  103SAPE  H12B10433   4.108   4.942   2.577 -0.0138 -0.1828  0.3596
  103SAPE   C1110434   4.123   4.870   2.776  0.0380  0.5736  0.4558
  103SAPE  H11A10435   4.208   4.801   2.760 -2.0797 -1.8910 -0.9541
  103SAPE  H11B10436   4.055   4.819   2.848 -1.3897 -3.5786 -3.4124
  103SAPE     P10437   4.301   5.063   2.813  0.1400 -0.0109 -0.2681
  103SAPE   O1310438   4.347   5.045   2.679 -0.0986  0.5048  0.2678
  103SAPE   O1410439   4.282   5.207   2.848 -0.1841  0.0599  0.1641
  103SAPE   O1210440   4.163   4.998   2.831  0.3162 -0.4419 -0.5370
  103SAPE   O1110441   4.397   5.003   2.917  0.0257  0.6751 -0.0665
  103SAPE    C110442   4.359   4.983   3.049 -0.0877 -0.8644 -0.0583
  103SAPE    HA10443   4.408   5.059   3.112 -0.5026 -0.6634  0.0267
  103SAPE    HB10444   4.249   4.989   3.064 -0.1006 -2.1663  0.5185
  103SAPE    C210445   4.419   4.849   3.102  0.3702  0.0209  0.3099
  103SAPE    HS10446   4.411   4.768   3.026  0.6006 -0.4031  0.7284
  103SAPE   O2110447   4.369   4.812   3.230 -0.2454 -0.5413  0.3968
  103SAPE   C2110448   4.271   4.725   3.223  0.3190 -0.1382  0.8308
  103SAPE   O2210449   4.212   4.691   3.120 -0.2434 -0.3863 -0.2519
  103SAPE   C2210450   4.244   4.667   3.367  0.1122  0.4421 -0.3224
  103SAPE   H2R10451   4.327   4.686   3.439 -1.3375 -1.3344  1.9401
  103SAPE   H2S10452   4.144   4.707   3.395  0.1293 -0.5363  1.2494
  103SAPE    C310453   4.575   4.867   3.119  0.4420 -1.1217 -0.7041
  103SAPE    HX10454   4.595   4.945   3.195 -0.9729  0.7127 -2.1458
  103SAPE    HY10455   4.626   4.920   3.037  0.7208  0.2591  0.3247
  103SAPE   O3110456   4.633   4.737   3.150  0.0276 -0.6166 -0.2534
  103SAPE   C3110457   4.680   4.720   3.274 -0.4945  0.2445  0.0707
  103SAPE   O3210458   4.718   4.806   3.350  0.3578 -0.1458  0.0042
  103SAPE   C3210459   4.677   4.566   3.300 -0.3165  0.7532  0.2479
  103SAPE   H2X10460   4.754   4.506   3.247 -1.5952  0.4670 -1.3584
  103SAPE   H2Y10461   4.579   4.524   3.269  0.0482 -0.0018  0.1022
  103SAPE   C2310462   4.229   4.514   3.357  0.4323 -0.5820  0.0184
  103SAPE   H3R10463   4.321   4.476   3.309  0.2104 -0.1665 -0.7496
  103SAPE   H3S10464   4.142   4.498   3.290  0.4052  0.3384 -0.1858
  103SAPE   C2410465   4.198   4.435   3.490 -0.0621  0.5239 -0.8570
  103SAPE   H4R10466   4.183   4.330   3.457 -2.5086  0.5758 -0.0838
  103SAPE   H4S10467   4.099   4.457   3.535  1.1289  1.7008  1.3508
  103SAPE   C2510468   4.311   4.452   3.592 -0.4025  0.0300  0.9180
  103SAPE   H5R10469   4.411   4.431   3.553 -0.2331  0.0492  1.3326
  103SAPE   C2610470   4.296   4.483   3.726  0.5300  0.7346 -0.3526
  103SAPE   H6R10471   4.389   4.501   3.782  2.2681 -2.5265 -1.8989
  103SAPE   C2710472   4.166   4.516   3.796  0.2883 -0.8483  0.5328
  103SAPE   H7R10473   4.178   4.457   3.889  0.1737 -2.8311 -0.6585
  103SAPE   H7S10474   4.085   4.470   3.736  1.0031 -1.9915  0.4285
  103SAPE   C2810475   4.126   4.659   3.828  0.8240  0.1422  0.4158
  103SAPE   H8R10476   4.080   4.709   3.741  0.9661  0.4782  0.5332
  103SAPE   C2910477   4.165   4.722   3.941 -0.0250 -0.4113  0.5381
  103SAPE   H9R10478   4.132   4.827   3.951 -0.1027 -0.1610 -1.6689
  103SAPE  C21010479   4.242   4.662   4.058 -0.3976 -0.7730 -0.0759
  103SAPE  H10R10480   4.310   4.743   4.093 -0.7540 -0.1006 -0.9009
  103SAPE  H10S10481   4.313   4.581   4.031  1.0059  0.5484 -0.4598
  103SAPE  C21110482   4.151   4.609   4.161  0.3780  0.5454 -0.7198
  103SAPE  H11R10483   4.073   4.547   4.113  1.4027  0.1959 -2.0003
  103SAPE  C21210484   4.174   4.598   4.290 -0.3672 -0.0321  0.2803
  103SAPE  H12R10485   4.099   4.537   4.343 -1.1862 -0.9138 -1.7803
  103SAPE  C21310486   4.282   4.663   4.374  0.1526 -0.0926 -0.3885
  103SAPE  H13R10487   4.337   4.743   4.320 -0.1435 -0.1749 -0.8168
  103SAPE  H13S10488   4.354   4.586   4.407  0.1428 -0.2950 -0.8419
  103SAPE  C21410489   4.232   4.724   4.506  0.0732  0.1544  0.3110
  103SAPE  H14R10490   4.134   4.773   4.494 -0.3883 -0.9102 -0.4996
  103SAPE  C21510491   4.291   4.726   4.631  1.4013  0.6463 -0.0262
  103SAPE  H15R10492   4.251   4.774   4.722 -1.1689 -0.0684 -0.7130
  103SAPE  C21610493   4.423   4.659   4.650 -0.3775 -0.0650 -0.8534
  103SAPE  H16R10494   4.421   4.553   4.619 -2.3941 -0.4230  0.3096
  103SAPE  H16S10495   4.459   4.676   4.754  0.2609 -1.7909 -0.7622
  103SAPE  C21710496   4.539   4.727   4.561 -0.5377  0.5437  0.1744
  103SAPE  H17R10497   4.526   4.836   4.577 -1.2257  0.3175  1.2895
  103SAPE  H17S10498   4.551   4.698   4.455  1.2381  0.6107  0.3259
  103SAPE  C21810499   4.669   4.683   4.622  0.8064 -0.7542  0.2497
  103SAPE  H18R10500   4.661   4.712   4.729  1.0436 -0.1867  0.1235
  103SAPE  H18S10501   4.756   4.740   4.583 -0.0849  1.6068  1.4964
  103SAPE  C21910502   4.697   4.532   4.608 -0.2070  0.3809  0.3033
  103SAPE  H19R10503   4.686   4.487   4.507 -0.3211 -0.9091  0.8659
  103SAPE  H19S10504   4.623   4.487   4.678 -1.6825 -0.0883 -1.4945
  103SAPE  C22010505   4.844   4.498   4.658 -0.5198 -0.6648  0.1804
  103SAPE  H20R10506   4.903   4.532   4.571 -2.9930  0.3297 -1.1924
  103SAPE  H20S10507   4.848   4.387   4.662  2.7350 -0.6541 -0.3828
  103SAPE  H20T10508   4.863   4.566   4.744  6.0875 -1.4966 -0.0858
  103SAPE   C3310509   4.691   4.537   3.452 -0.1228  0.0732  0.2344
  103SAPE   H3X10510   4.596   4.587   3.485 -0.6837 -0.8944  0.1127
  103SAPE   H3Y10511   4.780   4.591   3.490 -0.3750  1.1703 -0.6704
  103SAPE   C3410512   4.696   4.394   3.496 -0.6875  0.1648 -0.2953
  103SAPE   H4X10513   4.789   4.343   3.462 -1.1016 -3.2396  3.0729
  103SAPE   H4Y10514   4.601   4.346   3.465 -1.5788  2.3785 -1.2501
  103SAPE   C3510515   4.709   4.384   3.648 -0.0832 -0.3471  0.2202
  103SAPE   H5X10516   4.640   4.454   3.699  0.7652  1.5438 -1.1395
  103SAPE   H5Y10517   4.802   4.438   3.677 -1.4270  2.1577  0.1730
  103SAPE   C3610518   4.727   4.238   3.704  0.3701 -0.3609  0.3570
  103SAPE   H6X10519   4.827   4.205   3.669  0.8073  0.8043  0.4520
  103SAPE   H6Y10520   4.655   4.170   3.655 -0.5543  0.4522  0.5480
  103SAPE   C3710521   4.717   4.233   3.853  0.0430  0.9489  0.3332
  103SAPE   H7X10522   4.803   4.291   3.891  1.4105 -1.4714  1.1416
  103SAPE   H7Y10523   4.735   4.130   3.888 -2.3197  0.8117  1.3675
  103SAPE   C3810524   4.592   4.281   3.920  0.5847 -0.8741  0.3360
  103SAPE   H8X10525   4.503   4.220   3.895  0.3244 -0.0873 -0.7565
  103SAPE   H8Y10526   4.572   4.388   3.897 -2.6745 -1.4489 -0.0641
  103SAPE   C3910527   4.608   4.262   4.074  0.7084 -0.6656 -0.1967
  103SAPE   H9X10528   4.690   4.330   4.106  0.4949  0.0171 -1.0608
  103SAPE   H9Y10529   4.626   4.156   4.102  0.1746 -1.1889 -1.7024
  103SAPE  C31010530   4.477   4.301   4.149 -0.9558  0.3525  0.1187
  103SAPE  H10X10531   4.395   4.237   4.111  0.5612 -1.3254 -0.4791
  103SAPE  H10Y10532   4.443   4.403   4.120  1.2177  0.9259 -0.6303
  103SAPE  C31110533   4.493   4.286   4.300  0.1528 -0.4107  0.2833
  103SAPE  H11X10534   4.546   4.374   4.344 -0.8612 -0.8942  2.6521
  103SAPE  H11Y10535   4.557   4.196   4.312 -0.9996 -1.1230  1.4200
  103SAPE  C31210536   4.356   4.266   4.373  0.1015 -0.0731  0.2791
  103SAPE  H12X10537   4.298   4.194   4.313 -0.3362  0.4832  0.0267
  103SAPE  H12Y10538   4.305   4.364   4.384 -0.9348 -0.7997  2.6596
  103SAPE  C31310539   4.383   4.217   4.516 -0.7462 -0.1983 -0.1633
  103SAPE  H13X10540   4.434   4.295   4.576 -1.3380 -1.3462  1.9578
  103SAPE  H13Y10541   4.445   4.127   4.498 -0.0713  0.0783  0.7406
  103SAPE  C31410542   4.259   4.175   4.595 -0.3909 -0.5827  0.2188
  103SAPE  H14X10543   4.206   4.090   4.545 -1.4464  0.6180 -0.7663
  103SAPE  H14Y10544   4.183   4.256   4.595  0.2889  0.0808  1.7423
  103SAPE  C31510545   4.301   4.133   4.737 -0.2528 -0.4459  0.5435
  103SAPE  H15X10546   4.352   4.218   4.787  0.3849 -1.1183  1.0660
  103SAPE  H15Y10547   4.382   4.057   4.728 -0.3523 -0.4515 -0.4394
  103SAPE  C31610548   4.185   4.072   4.820 -0.0700  0.0512  0.5781
  103SAPE  H16X10549   4.223   4.026   4.915 -1.0959  2.6295  2.3463
  103SAPE  H16Y10550   4.147   3.989   4.758 -1.4885  1.4128 -0.4325
  103SAPE  C31710551   4.079   4.177   4.855  0.3662 -0.4470  0.0226
  103SAPE  H17X10552   4.020   4.202   4.764 -0.5730 -0.9616  0.4722
  103SAPE  H17Y10553   4.129   4.271   4.886  1.0881 -0.2556 -1.6218
  103SAPE  C31810554   3.984   4.128   4.965 -0.1615  0.2517  0.3320
  103SAPE  H18X10555   3.904   4.204   4.981  0.0038  0.6610 -0.7093
  103SAPE  H18Y10556   4.036   4.099   5.059 -0.4558 -2.4746 -0.2587
  103SAPE  H18Z10557   3.927   4.040   4.927 -0.2420  1.4047 -2.4334
  104SAPE     N10558   4.896   4.672   2.834  0.4355  0.5221  0.9687
  104SAPE   HN110559   4.981   4.612   2.835  0.8629  1.0161 -0.6803
  104SAPE   HN210560   4.853   4.681   2.739 -0.2973  0.1026  1.2573
  104SAPE   HN310561   4.930   4.766   2.863  1.1946  0.7871 -0.6504
  104SAPE   C1210562   4.785   4.635   2.930 -0.6661  0.1269  0.3465
  104SAPE  H12A10563   4.694   4.694   2.907 -0.6470 -0.6542 -1.9731
  104SAPE  H12B10564   4.834   4.656   3.028  0.8211 -0.5562 -0.2032
  104SAPE   C1110565   4.764   4.478   2.918  0.1687  0.4994  0.0356
  104SAPE  H11A10566   4.704   4.460   3.010 -1.5488 -0.0833 -1.1581
  104SAPE  H11B10567   4.859   4.421   2.919  0.4190  0.9089  0.8650
  104SAPE     P10568   4.681   4.333   2.702 -0.2073 -0.1380 -0.1765
  104SAPE   O1310569   4.545   4.293   2.664 -0.1522  0.6039  0.2571
  104SAPE   O1410570   4.772   4.376   2.597  0.5255 -0.3056 -0.0505
  104SAPE   O1210571   4.671   4.451   2.810 -0.1397 -0.2832 -0.1871
  104SAPE   O1110572   4.752   4.226   2.794  0.1873 -0.1877  0.6004
  104SAPE    C110573   4.679   4.111   2.839 -0.3731  0.5065 -0.8773
  104SAPE    HA10574   4.572   4.100   2.812 -1.6601  1.1345  3.3034
  104SAPE    HB10575   4.736   4.021   2.808 -0.5193 -0.0107  0.3066
  104SAPE    C210576   4.681   4.101   2.995 -0.3325  0.4110  0.4316
  104SAPE    HS10577   4.625   4.187   3.038  0.8384  1.2702  0.2864
  104SAPE   O2110578   4.820   4.117   3.029 -0.0410  0.5263 -0.7297
  104SAPE   C2110579   4.856   4.188   3.135 -0.1525  0.4557 -0.0199
  104SAPE   O2210580   4.772   4.234   3.213  0.1941  0.1996  0.3697
  104SAPE   C2210581   5.005   4.216   3.147  0.0154  0.2860  0.0320
  104SAPE   H2R10582   5.063   4.126   3.118  1.7222  0.0617  3.6512
  104SAPE   H2S10583   5.046   4.306   3.096  1.6529 -0.0196  0.7655
  104SAPE    C310584   4.645   3.961   3.053  0.3750  0.0133 -0.2422
  104SAPE    HX10585   4.692   3.879   2.993  0.9593  0.6175 -0.6269
  104SAPE    HY10586   4.534   3.955   3.043  0.1900  1.4592  0.8261
  104SAPE   O3110587   4.679   3.954   3.192 -0.1280  0.5574  0.4826
  104SAPE   C3110588   4.776   3.875   3.235 -0.0076 -0.4653  0.0262
  104SAPE   O3210589   4.844   3.802   3.169  0.3136  0.3436 -0.2245
  104SAPE   C3210590   4.812   3.916   3.379  0.7777 -0.2881  0.2357
  104SAPE   H2X10591   4.724   3.884   3.440  0.9415 -0.6325  0.2970
  104SAPE   H2Y10592   4.814   4.026   3.387 -0.9122 -0.1229 -1.1064
  104SAPE   C2310593   5.038   4.262   3.298  0.0985  0.6243 -0.2494
  104SAPE   H3R10594   4.994   4.197   3.377  1.0206  0.6258  0.2808
  104SAPE   H3S10595   4.990   4.361   3.312 -1.7921 -0.0651 -1.4234
  104SAPE   C2410596   5.184   4.268   3.336 -0.1752 -0.5537  0.3158
  104SAPE   H4R10597   5.205   4.326   3.429  5.1812  0.7098 -1.3596
  104SAPE   H4S10598   5.229   4.327   3.253 -1.4443  0.8768  0.5898
  104SAPE   C2510599   5.235   4.125   3.359 -0.3517  0.4126 -0.2314
  104SAPE   H5R10600   5.254   4.059   3.272  1.4353 -0.3853  0.7170
  104SAPE   C2610601   5.281   4.070   3.473 -0.3253 -0.0394 -0.2766
  104SAPE   H6R10602   5.324   3.969   3.481 -0.0532  0.1369  0.5263
  104SAPE   C2710603   5.265   4.135   3.614 -1.2290 -0.4953  1.1247
  104SAPE   H7R10604   5.189   4.215   3.613  0.1807  0.8869  1.1740
  104SAPE   H7S10605   5.356   4.195   3.635 -1.2790 -0.5186  1.4188
  104SAPE   C2810606   5.234   4.037   3.723 -1.2874 -0.5552  0.0300
  104SAPE   H8R10607   5.229   3.931   3.693  5.8416 -2.3628  3.1561
  104SAPE   C2910608   5.194   4.079   3.844  0.5392  0.6091  0.7489
  104SAPE   H9R10609   5.164   4.000   3.915 -1.9642  1.2756  0.5143
  104SAPE  C21010610   5.180   4.223   3.894 -0.2518  0.6365 -0.0221
  104SAPE  H10R10611   5.081   4.258   3.858 -0.9163 -0.3173  0.8119
  104SAPE  H10S10612   5.250   4.292   3.842  1.3816  0.7380  2.1654
  104SAPE  C21110613   5.191   4.247   4.043 -0.2859 -0.0869 -0.1112
  104SAPE  H11R10614   5.274   4.315   4.068 -0.4931  0.1181  0.0386
  104SAPE  C21210615   5.100   4.214   4.134 -0.2034  0.4237 -0.0062
  104SAPE  H12R10616   5.120   4.241   4.238 -0.6847  1.0422 -0.0688
  104SAPE  C21310617   4.974   4.132   4.113  0.1608  0.0921 -0.1164
  104SAPE  H13R10618   4.935   4.121   4.009 -1.8043  2.3000  0.3012
  104SAPE  H13S10619   4.885   4.173   4.164  0.1782  0.4061 -0.3361
  104SAPE  C21410620   5.000   3.992   4.167 -0.2299 -0.0275 -0.1344
  104SAPE  H14R10621   5.064   3.925   4.108  0.5739 -1.1164  1.8839
  104SAPE  C21510622   4.960   3.946   4.286  0.3477  0.7093 -0.5390
  104SAPE  H15R10623   5.000   3.853   4.328 -0.2617  1.3617  1.6563
  104SAPE  C21610624   4.861   4.009   4.390  0.4080  0.7261  1.5229
  104SAPE  H16R10625   4.759   3.969   4.377  0.5468  1.1789 -2.0363
  104SAPE  H16S10626   4.863   4.117   4.363  0.5223  0.1743 -0.9300
  104SAPE  C21710627   4.916   4.008   4.535 -0.4905  0.8959  0.0092
  104SAPE  H17R10628   5.022   4.044   4.537  0.1477 -0.7508 -1.8013
  104SAPE  H17S10629   4.919   3.901   4.565  0.8330  0.9995  0.3109
  104SAPE  C21810630   4.837   4.084   4.639  0.4074 -0.8042 -0.4807
  104SAPE  H18R10631   4.832   4.190   4.606 -0.1319 -0.6251  0.1584
  104SAPE  H18S10632   4.887   4.086   4.738 -3.6540 -2.1381  1.8413
  104SAPE  C21910633   4.689   4.034   4.668 -0.0205  0.0135 -0.2584
  104SAPE  H19R10634   4.628   4.060   4.578  0.7389  1.4070 -0.3890
  104SAPE  H19S10635   4.639   4.094   4.747 -1.3476 -1.3341 -0.0201
  104SAPE  C22010636   4.686   3.886   4.704  0.5919  0.2459  0.1422
  104SAPE  H20R10637   4.582   3.857   4.731  1.1513 -1.3371  0.7000
  104SAPE  H20S10638   4.749   3.860   4.791  1.7758 -1.5075 -1.1616
  104SAPE  H20T10639   4.719   3.820   4.621  1.8478 -0.2546  1.0174
  104SAPE   C3310640   4.938   3.837   3.414  1.0047 -0.4394 -0.1773
  104SAPE   H3X10641   5.017   3.869   3.342 -1.7207 -0.1313 -3.2719
  104SAPE   H3Y10642   4.933   3.727   3.403  1.1394 -0.3798 -0.9286
  104SAPE   C3410643   4.984   3.871   3.553  0.3870 -0.0609 -0.7571
  104SAPE   H4X10644   5.003   3.980   3.551  0.7217 -0.1153 -0.5373
  104SAPE   H4Y10645   5.069   3.803   3.575  1.1762  1.6637  2.0386
  104SAPE   C3510646   4.869   3.841   3.659  0.5557 -0.1500  0.5788
  104SAPE   H5X10647   4.812   3.751   3.629  1.0134 -0.7455  1.4590
  104SAPE   H5Y10648   4.798   3.926   3.656 -1.0455 -1.3935  1.6531
  104SAPE   C3610649   4.917   3.817   3.802 -0.3621 -0.0978 -0.5925
  104SAPE   H6X10650   4.836   3.836   3.876  0.4509  1.0813  0.0362
  104SAPE   H6Y10651   4.999   3.885   3.834 -2.1031  1.2082  1.3436
  104SAPE   C3710652   4.967   3.675   3.820 -1.2232 -0.9651 -0.1391
  104SAPE   H7X10653   5.057   3.663   3.756 -1.1886 -1.0642 -0.0725
  104SAPE   H7Y10654   4.901   3.589   3.795 -2.4414 -0.4512  1.1142
  104SAPE   C3810655   4.997   3.649   3.973  0.6735  0.1944 -0.0985
  104SAPE   H8X10656   4.901   3.667   4.026 -0.6334 -0.0935 -2.2271
  104SAPE   H8Y10657   5.077   3.718   4.008  1.8497 -0.9566 -0.4765
  104SAPE   C3910658   5.049   3.514   4.010 -0.2130  0.3905  0.5384
  104SAPE   H9X10659   5.130   3.508   4.086  0.6915 -0.8268 -0.4647
  104SAPE   H9Y10660   5.110   3.478   3.924  1.6849 -0.1435  2.0385
  104SAPE  C31010661   4.943   3.410   4.054  0.0476  0.2512  0.0316
  104SAPE  H10X10662   4.984   3.309   4.074  1.1201  0.3975 -1.2504
  104SAPE  H10Y10663   4.859   3.396   3.982  0.4689 -0.0065 -0.4157
  104SAPE  C31110664   4.880   3.455   4.185  0.6500  0.3566  0.4087
  104SAPE  H11X10665   4.810   3.540   4.172  1.0585  0.6868  0.3800
  104SAPE  H11Y10666   4.957   3.483   4.261 -1.6325  2.6772  2.0335
  104SAPE  C31210667   4.799   3.344   4.254 -1.0981 -0.2102  0.5879
  104SAPE  H12X10668   4.853   3.248   4.269 -1.0608 -0.1565  0.8128
  104SAPE  H12Y10669   4.715   3.318   4.186  0.4487 -2.5445 -0.5318
  104SAPE  C31310670   4.745   3.403   4.384  0.2603  1.1839  0.1835
  104SAPE  H13X10671   4.684   3.493   4.363 -1.3388  0.3500  1.0653
  104SAPE  H13Y10672   4.834   3.425   4.448  2.4249 -0.1949 -2.1818
  104SAPE  C31410673   4.653   3.307   4.469 -0.3843 -0.6137  0.7072
  104SAPE  H14X10674   4.705   3.209   4.475  0.4780 -0.1780  0.5719
  104SAPE  H14Y10675   4.564   3.277   4.409  1.5616 -1.8203 -1.7530
  104SAPE  C31510676   4.621   3.362   4.606  0.1375  0.0969 -0.5650
  104SAPE  H15X10677   4.529   3.310   4.642  0.6937 -1.9832 -1.9508
  104SAPE  H15Y10678   4.595   3.469   4.594  0.9974  0.3490 -0.2882
  104SAPE  C31610679   4.732   3.350   4.712  0.0212  0.2850 -0.3499
  104SAPE  H16X10680   4.822   3.399   4.668  1.5735 -3.3291 -1.5705
  104SAPE  H16Y10681   4.756   3.245   4.740  0.1172  0.6589  1.0463
  104SAPE  C31710682   4.701   3.422   4.846  0.1813  0.4118 -0.6241
  104SAPE  H17X10683   4.652   3.519   4.821 -1.7731 -0.4015 -0.1045
  104SAPE  H17Y10684   4.795   3.439   4.902  0.9758 -1.2693 -1.3829
  104SAPE  C31810685   4.586   3.348   4.926 -0.6817 -0.0092 -0.0090
  104SAPE  H18X10686   4.562   3.390   5.026 -1.6766  3.0151 -1.3842
  104SAPE  H18Y10687   4.605   3.239   4.932 -1.0018 -0.3100 -3.1827
  104SAPE  H18Z10688   4.502   3.342   4.854  0.1841 -2.0730 -0.9195
  105SAPE     N10689   5.379   1.932   2.139  0.0811  0.7099  0.7922
  105SAPE   HN110690   5.293   1.879   2.162  0.8619 -0.5812  0.8614
  105SAPE   HN210691   5.366   1.962   2.041 -2.0817  0.8907  1.0841
  105SAPE   HN310692   5.458   1.864   2.144 -1.2005 -0.7997  1.1374
  105SAPE   C1210693   5.397   2.054   2.213 -0.3965 -0.6075 -0.3912
  105SAPE  H12A10694   5.294   2.094   2.227 -0.1679 -0.5445  1.3686
  105SAPE  H12B10695   5.460   2.125   2.157  1.6252 -2.0995 -0.1126
  105SAPE   C1110696   5.458   2.030   2.354  0.1015  0.2244  0.0223
  105SAPE  H11A10697   5.386   1.970   2.413 -0.2600  0.5542 -0.0725
  105SAPE  H11B10698   5.456   2.133   2.395  2.7613  0.6815 -0.8057
  105SAPE     P10699   5.633   1.843   2.377 -0.0973  0.2929  0.1584
  105SAPE   O1310700   5.536   1.764   2.300 -0.3986 -0.3533 -0.3909
  105SAPE   O1410701   5.775   1.829   2.362  0.0788 -0.1855 -0.3045
  105SAPE   O1210702   5.591   1.988   2.355 -0.3426 -0.3338  0.5844
  105SAPE   O1110703   5.597   1.828   2.526  0.3301 -0.4179  0.0246
  105SAPE    C110704   5.667   1.871   2.639 -0.3993 -0.4019 -0.8380
  105SAPE    HA10705   5.731   1.789   2.677  1.4113  1.2455 -0.1904
  105SAPE    HB10706   5.733   1.958   2.622 -0.2401 -0.4396 -0.4085
  105SAPE    C210707   5.579   1.898   2.765 -0.5937  0.1279 -0.2249
  105SAPE    HS10708   5.644   1.921   2.852 -1.1485 -1.5591  0.6884
  105SAPE   O2110709   5.520   1.773   2.794  0.2760 -0.0655 -1.1811
  105SAPE   C2110710   5.593   1.682   2.854  1.0171 -0.0253  0.2363
  105SAPE   O2210711   5.706   1.694   2.898  0.2505  0.2973 -0.9059
  105SAPE   C2210712   5.503   1.555   2.883  0.2109 -0.3756 -0.1036
  105SAPE   H2R10713   5.469   1.510   2.787 -0.0594  0.2425 -0.3036
  105SAPE   H2S10714   5.570   1.477   2.923  1.7939  1.0285  0.0903
  105SAPE    C310715   5.481   2.003   2.745 -0.4357 -0.1359  0.4709
  105SAPE    HX10716   5.403   1.962   2.678 -1.0377 -0.1370  1.1529
  105SAPE    HY10717   5.514   2.100   2.703 -2.9744 -0.4938 -2.7792
  105SAPE   O3110718   5.430   2.034   2.877  0.7312 -0.3402  0.1222
  105SAPE   C3110719   5.316   2.105   2.874  0.0515  0.5021 -0.2961
  105SAPE   O3210720   5.260   2.141   2.770  0.2350  0.5975 -0.7264
  105SAPE   C3210721   5.259   2.122   3.014 -0.2644 -0.1282  0.8822
  105SAPE   H2X10722   5.162   2.173   2.996 -1.1420 -1.7214  0.9345
  105SAPE   H2Y10723   5.320   2.181   3.086  0.7421 -0.6880  0.5150
  105SAPE   C2310724   5.387   1.571   2.983 -0.1037 -0.3865 -0.1447
  105SAPE   H3R10725   5.346   1.672   2.966 -0.4405 -0.6052 -0.6275
  105SAPE   H3S10726   5.423   1.560   3.088 -1.1265  1.1722  0.3948
  105SAPE   C2410727   5.264   1.478   2.964 -0.2404  0.0332 -0.1608
  105SAPE   H4R10728   5.219   1.508   2.866 -0.9041 -0.3612  0.0168
  105SAPE   H4S10729   5.194   1.498   3.047  2.5989 -1.0466  2.6803
  105SAPE   C2510730   5.306   1.333   2.975  0.0559 -0.2058  0.1328
  105SAPE   H5R10731   5.324   1.289   2.876  0.0446 -0.7705  0.3815
  105SAPE   C2610732   5.311   1.254   3.078  0.1930  0.1250  0.0187
  105SAPE   H6R10733   5.342   1.149   3.069  2.2227  0.6126  0.7094
  105SAPE   C2710734   5.276   1.297   3.219  0.0273 -0.2252  0.3483
  105SAPE   H7R10735   5.230   1.399   3.217 -1.7098 -0.9592  1.1316
  105SAPE   H7S10736   5.377   1.308   3.265  0.5799  1.6303 -1.1726
  105SAPE   C2810737   5.184   1.199   3.298 -0.0017 -0.3948  0.0839
  105SAPE   H8R10738   5.167   1.105   3.244 -1.2583  0.2764 -0.7461
  105SAPE   C2910739   5.134   1.227   3.422 -0.5482  0.2954  0.6645
  105SAPE   H9R10740   5.060   1.162   3.470 -3.3903  1.7934 -1.3719
  105SAPE  C21010741   5.151   1.360   3.495 -0.0686  0.4666 -0.4662
  105SAPE  H10R10742   5.068   1.427   3.464 -1.0117 -0.7180 -0.5955
  105SAPE  H10S10743   5.241   1.418   3.463 -0.1550  1.2068  0.5817
  105SAPE  C21110744   5.158   1.340   3.650 -0.1222 -0.7487 -0.4747
  105SAPE  H11R10745   5.259   1.359   3.690  1.5531  0.7903 -4.8175
  105SAPE  C21210746   5.050   1.319   3.730  0.0671 -0.5995  0.0270
  105SAPE  H12R10747   5.066   1.308   3.838  0.7088  0.9029  0.1063
  105SAPE  C21310748   4.907   1.304   3.677 -0.4380 -0.0616 -0.4208
  105SAPE  H13R10749   4.903   1.349   3.576  0.6481  0.5453 -0.2104
  105SAPE  H13S10750   4.841   1.372   3.735  1.2335  1.0080  0.3083
  105SAPE  C21410751   4.851   1.161   3.672  0.0583 -0.5042 -0.0581
  105SAPE  H14R10752   4.925   1.104   3.614  1.3976  1.6608 -0.6192
  105SAPE  C21510753   4.740   1.116   3.715  0.1680  0.3525  0.2293
  105SAPE  H15R10754   4.706   1.015   3.686  1.1746 -0.3691  1.4786
  105SAPE  C21610755   4.639   1.183   3.808  0.1083 -0.2305 -0.5566
  105SAPE  H16R10756   4.542   1.129   3.806 -0.1136  0.1467 -2.7811
  105SAPE  H16S10757   4.610   1.285   3.774 -0.4833  0.5600  2.0694
  105SAPE  C21710758   4.696   1.193   3.954  0.4263  0.6915 -0.3484
  105SAPE  H17R10759   4.643   1.277   4.005 -1.5095 -1.5774  1.5921
  105SAPE  H17S10760   4.803   1.221   3.944  0.8999 -0.6883  0.6524
  105SAPE  C21810761   4.674   1.060   4.035 -0.2314 -0.3020  0.6429
  105SAPE  H18R10762   4.762   1.060   4.103 -0.7983  0.1725  1.3905
  105SAPE  H18S10763   4.703   0.974   3.971  1.0097  0.9424 -0.5302
  105SAPE  C21910764   4.540   1.060   4.099  0.2836  0.3308  0.3450
  105SAPE  H19R10765   4.463   1.066   4.020  0.5412  1.9083  0.1875
  105SAPE  H19S10766   4.524   1.160   4.143 -0.6361  1.8185 -3.0652
  105SAPE  C22010767   4.518   0.938   4.185 -0.1129 -0.4889  0.6024
  105SAPE  H20R10768   4.490   0.849   4.125  0.5052 -0.0331 -0.3902
  105SAPE  H20S10769   4.422   0.953   4.239  0.1570  0.0054  0.9399
  105SAPE  H20T10770   4.602   0.922   4.255  1.5411 -1.4220 -1.4643
  105SAPE   C3310771   5.242   1.991   3.085  0.1410 -0.3044 -0.8123
  105SAPE   H3X10772   5.335   1.933   3.105 -1.1227 -1.7894  1.2101
  105SAPE   H3Y10773   5.174   1.926   3.025 -2.4155  0.4186  1.1248
  105SAPE   C3410774   5.173   2.010   3.222  0.2064  0.8101  0.3334
  105SAPE   H4X10775   5.235   2.071   3.292 -1.0780  1.1412  1.2190
  105SAPE   H4Y10776   5.174   1.909   3.270  1.1403 -0.1487 -1.5932
  105SAPE   C3510777   5.034   2.065   3.214  0.0863  0.3032  0.3640
  105SAPE   H5X10778   4.971   2.015   3.138 -1.5559  2.2007  0.3892
  105SAPE   H5Y10779   5.045   2.169   3.177  3.0630 -0.6048 -1.6342
  105SAPE   C3610780   4.961   2.075   3.351  0.4895  0.3065 -0.2475
  105SAPE   H6X10781   4.860   2.119   3.336  0.1945 -0.4801 -0.6195
  105SAPE   H6Y10782   5.009   2.153   3.414  1.0470  0.4076 -0.7979
  105SAPE   C3710783   4.946   1.950   3.437  0.1923  0.5262 -1.0576
  105SAPE   H7X10784   4.949   1.859   3.372  1.2257 -0.3066  0.0926
  105SAPE   H7Y10785   4.848   1.951   3.489  0.4439 -0.0132 -0.5557
  105SAPE   C3810786   5.061   1.934   3.545 -0.1390 -0.1165 -0.1171
  105SAPE   H8X10787   5.074   2.030   3.600 -1.3129 -0.5579  0.9977
  105SAPE   H8Y10788   5.154   1.919   3.486 -0.9187 -1.7677 -0.9819
  105SAPE   C3910789   5.036   1.809   3.628  0.0223 -0.2150 -0.0341
  105SAPE   H9X10790   5.059   1.724   3.560  3.7991  0.2107  0.4931
  105SAPE   H9Y10791   4.928   1.812   3.656  0.2638  0.6978  0.8653
  105SAPE  C31010792   5.125   1.798   3.756  0.1191  0.4161 -0.2449
  105SAPE  H10X10793   5.096   1.698   3.794  3.8411 -0.4167  0.8056
  105SAPE  H10Y10794   5.081   1.880   3.817 -0.0452  1.3743 -1.6095
  105SAPE  C31110795   5.276   1.787   3.742 -0.0295  0.4459  0.2493
  105SAPE  H11X10796   5.327   1.728   3.821  0.4165 -1.3093 -1.2814
  105SAPE  H11Y10797   5.322   1.887   3.727 -0.4246  0.3870 -1.6405
  105SAPE  C31210798   5.315   1.701   3.617 -0.2553  0.2678  0.2143
  105SAPE  H12X10799   5.312   1.771   3.530  1.9006 -1.3939 -1.2984
  105SAPE  H12Y10800   5.249   1.617   3.584  0.9349  0.0105 -1.6799
  105SAPE  C31310801   5.469   1.670   3.610 -0.2695  0.5901  0.6069
  105SAPE  H13X10802   5.510   1.638   3.708 -0.5886 -1.6411  0.0874
  105SAPE  H13Y10803   5.510   1.770   3.586 -0.7524  1.6390  3.7680
  105SAPE  C31410804   5.511   1.568   3.493  0.6013  0.2413  0.1228
  105SAPE  H14X10805   5.470   1.470   3.525  3.0386 -1.8975 -2.6877
  105SAPE  H14Y10806   5.622   1.562   3.498  0.6818  0.9503 -0.6201
  105SAPE  C31510807   5.455   1.605   3.357  0.7385  0.4577  0.2652
  105SAPE  H15X10808   5.344   1.596   3.361  0.7873 -0.2861  0.2392
  105SAPE  H15Y10809   5.499   1.523   3.295 -0.7698  0.4185 -0.8015
  105SAPE  C31610810   5.511   1.732   3.298  0.1377 -0.4290  0.7886
  105SAPE  H16X10811   5.492   1.816   3.368  0.8507 -0.5247  1.1042
  105SAPE  H16Y10812   5.459   1.739   3.200 -0.6776 -1.0313  1.1661
  105SAPE  C31710813   5.646   1.727   3.249  0.1620  0.1048 -0.3609
  105SAPE  H17X10814   5.660   1.656   3.164 -0.2428 -0.6153  0.1589
  105SAPE  H17Y10815   5.713   1.695   3.332 -0.4530 -0.3507 -0.0353
  105SAPE  C31810816   5.690   1.854   3.202 -0.4143  0.6768  0.0008
  105SAPE  H18X10817   5.794   1.851   3.164 -0.2371 -1.3838  0.5317
  105SAPE  H18Y10818   5.688   1.932   3.281 -0.2213  0.2802  0.3960
  105SAPE  H18Z10819   5.628   1.890   3.116 -0.2669  2.0135  0.4298
  106SAPE     N10820   5.641   4.339   2.372 -0.4122 -0.2118 -0.1330
  106SAPE   HN110821   5.613   4.318   2.470  0.3339  0.2067  0.1788
  106SAPE   HN210822   5.683   4.434   2.364 -1.5364  0.2643 -0.6330
  106SAPE   HN310823   5.556   4.345   2.312 -0.5100  1.5997  0.1237
  106SAPE   C1210824   5.734   4.231   2.316  0.2157 -0.6978  0.2278
  106SAPE  H12A10825   5.744   4.267   2.211  0.7827  0.1059  0.5469
  106SAPE  H12B10826   5.684   4.134   2.336 -0.0113 -0.2854  1.7854
  106SAPE   C1110827   5.871   4.225   2.375 -0.5965 -0.5904 -1.0603
  106SAPE  H11A10828   5.905   4.330   2.387 -0.0714 -0.7908 -0.7223
  106SAPE  H11B10829   5.933   4.163   2.306  1.4230 -1.8075  1.6496
  106SAPE     P10830   5.976   4.168   2.594 -0.6265  0.0035 -0.2071
  106SAPE   O1310831   6.090   4.084   2.544 -0.4194 -0.0298 -0.0202
  106SAPE   O1410832   6.005   4.303   2.636 -1.3594  0.1591  1.1861
  106SAPE   O1210833   5.855   4.157   2.500 -0.0582 -0.3898 -0.1146
  106SAPE   O1110834   5.914   4.098   2.717  0.1303 -0.2322 -0.4084
  106SAPE    C110835   5.987   4.048   2.826 -1.4012 -0.0825 -0.0555
  106SAPE    HA10836   5.946   3.960   2.879 -0.5010  1.4291  3.4358
  106SAPE    HB10837   6.095   4.028   2.806 -1.2807  0.9287 -0.4741
  106SAPE    C210838   6.009   4.169   2.925 -0.2354  0.4450  0.0843
  106SAPE    HS10839   6.088   4.234   2.882 -0.7012  1.0837  0.1915
  106SAPE   O2110840   6.055   4.125   3.053  0.0119 -0.0014  0.0489
  106SAPE   C2110841   6.131   4.211   3.118  0.1119 -0.7318 -0.2684
  106SAPE   O2210842   6.171   4.318   3.077 -0.1187 -0.7646 -0.3982
  106SAPE   C2210843   6.163   4.148   3.255  0.6892  0.3838  0.1511
  106SAPE   H2R10844   6.068   4.111   3.299 -0.3094  1.1224 -1.3185
  106SAPE   H2S10845   6.214   4.050   3.241  1.4250  0.6540  0.8783
  106SAPE    C310846   5.874   4.239   2.944  0.2039  0.3112 -0.1771
  106SAPE    HX10847   5.804   4.161   2.982 -0.2657  1.3844  1.2282
  106SAPE    HY10848   5.826   4.272   2.849  0.3591  3.4860  0.7563
  106SAPE   O3110849   5.883   4.351   3.039 -0.1419 -0.3081  0.8234
  106SAPE   C3110850   5.917   4.473   2.996 -0.6935  0.0958 -0.7116
  106SAPE   O3210851   5.932   4.500   2.879  0.5591  0.0671 -0.2100
  106SAPE   C3210852   5.947   4.560   3.118  0.2148  0.4991 -0.3041
  106SAPE   H2X10853   5.945   4.669   3.095 -0.0302  0.6691  0.4889
  106SAPE   H2Y10854   6.047   4.548   3.164 -0.1033  1.9949  0.8638
  106SAPE   C2310855   6.234   4.252   3.344 -0.6963  0.6470  0.7197
  106SAPE   H3R10856   6.166   4.338   3.365 -2.1996  0.0787 -1.3904
  106SAPE   H3S10857   6.326   4.291   3.295 -0.4825 -1.9000 -1.0691
  106SAPE   C2410858   6.269   4.178   3.474 -0.5058 -0.0330  0.1109
  106SAPE   H4R10859   6.345   4.100   3.451  2.0693  2.1897  0.5378
  106SAPE   H4S10860   6.180   4.138   3.526 -1.0058  2.5843  1.4079
  106SAPE   C2510861   6.333   4.272   3.572  0.3218  0.1159 -0.0200
  106SAPE   H5R10862   6.326   4.378   3.545 -0.9022  0.1861  0.4880
  106SAPE   C2610863   6.370   4.251   3.696  0.4871  0.0923 -0.0910
  106SAPE   H6R10864   6.412   4.339   3.746 -0.4897 -0.0135  0.9609
  106SAPE   C2710865   6.384   4.113   3.761 -0.0661  0.3166  0.0026
  106SAPE   H7R10866   6.417   4.041   3.682 -0.0662 -0.2638  0.5260
  106SAPE   H7S10867   6.292   4.085   3.816  1.0522  1.5827  2.7091
  106SAPE   C2810868   6.508   4.130   3.852  0.4529 -0.2564 -0.4915
  106SAPE   H8R10869   6.606   4.139   3.801  1.5874 -0.8089  1.5119
  106SAPE   C2910870   6.505   4.159   3.986 -0.3861 -0.3363 -0.2250
  106SAPE   H9R10871   6.599   4.177   4.040 -1.5103 -2.7773  2.8345
  106SAPE  C21010872   6.383   4.184   4.070 -0.2736 -0.9737  0.8456
  106SAPE  H10R10873   6.402   4.117   4.156  1.0721 -1.4316  0.2219
  106SAPE  H10S10874   6.298   4.146   4.010 -0.0869  0.0100 -0.0758
  106SAPE  C21110875   6.350   4.326   4.116 -0.4600  0.2696  0.1269
  106SAPE  H11R10876   6.388   4.412   4.059 -1.6718  0.7032 -0.0391
  106SAPE  C21210877   6.268   4.357   4.215 -0.0125  0.2977 -0.0904
  106SAPE  H12R10878   6.247   4.464   4.227 -1.9462  0.0868 -1.2442
  106SAPE  C21310879   6.191   4.258   4.300  0.7198 -0.5317 -0.4304
  106SAPE  H13R10880   6.262   4.224   4.378  1.4070  1.5517 -0.0656
  106SAPE  H13S10881   6.173   4.163   4.245 -0.7660 -1.5329  1.6696
  106SAPE  C21410882   6.065   4.322   4.352  0.0720 -0.4982 -0.2783
  106SAPE  H14R10883   6.070   4.411   4.416 -0.9355  0.4659 -1.4759
  106SAPE  C21510884   5.940   4.282   4.327  0.4174 -0.2361 -0.2124
  106SAPE  H15R10885   5.861   4.339   4.377 -0.1412  0.3240 -1.6872
  106SAPE  C21610886   5.892   4.171   4.227  0.3226 -0.7706 -0.3790
  106SAPE  H16R10887   5.960   4.084   4.238 -1.3307 -2.1053 -0.4099
  106SAPE  H16S10888   5.898   4.203   4.121 -0.2104  1.8597  0.3041
  106SAPE  C21710889   5.750   4.126   4.245 -0.3981 -0.0167 -0.5340
  106SAPE  H17R10890   5.693   4.220   4.230  1.8755  1.3242 -1.3390
  106SAPE  H17S10891   5.720   4.084   4.344 -1.7817 -0.9995 -1.3439
  106SAPE  C21810892   5.710   4.025   4.136 -0.9770  0.9442  0.1791
  106SAPE  H18R10893   5.794   3.953   4.141 -0.4604  1.5854  1.2255
  106SAPE  H18S10894   5.712   4.081   4.040  0.8345  0.5046 -0.0567
  106SAPE  C21910895   5.577   3.953   4.175 -0.4124  0.0032  0.3762
  106SAPE  H19R10896   5.592   3.930   4.282  3.3541 -1.3731 -0.2746
  106SAPE  H19S10897   5.562   3.859   4.118 -2.3536  1.8860 -2.5048
  106SAPE  C22010898   5.457   4.035   4.136 -0.1621 -0.0207 -0.1071
  106SAPE  H20R10899   5.452   4.055   4.027  1.0015  2.0891  0.1644
  106SAPE  H20S10900   5.451   4.133   4.188  3.3598  0.1354  0.2445
  106SAPE  H20T10901   5.367   3.976   4.161  1.0368 -1.3295  1.3161
  106SAPE   C3310902   5.842   4.549   3.237  0.2550 -0.5367 -0.0259
  106SAPE   H3X10903   5.814   4.443   3.252  2.0686 -1.1166 -0.5342
  106SAPE   H3Y10904   5.748   4.606   3.217 -0.7897 -2.4127 -0.7070
  106SAPE   C3410905   5.903   4.602   3.366 -0.3473 -0.5751 -0.0382
  106SAPE   H4X10906   5.921   4.709   3.342  0.9276 -0.0586  2.7330
  106SAPE   H4Y10907   6.002   4.553   3.380  1.6627  2.9048 -0.8051
  106SAPE   C3510908   5.807   4.598   3.482 -0.3532 -0.3127  0.2749
  106SAPE   H5X10909   5.782   4.492   3.501 -2.9248  0.5496  2.1882
  106SAPE   H5Y10910   5.711   4.643   3.450 -1.0377 -1.4009  0.7579
  106SAPE   C3610911   5.856   4.650   3.620  1.1776  0.2446 -0.5365
  106SAPE   H6X10912   5.829   4.758   3.626 -2.1532 -0.0851 -4.4150
  106SAPE   H6Y10913   5.966   4.640   3.621  1.4164  2.3590  0.8377
  106SAPE   C3710914   5.788   4.571   3.737 -0.7867 -0.0770 -0.4748
  106SAPE   H7X10915   5.827   4.468   3.726 -0.1886 -0.4028  3.3902
  106SAPE   H7Y10916   5.677   4.570   3.729 -0.9243  0.9127  0.9185
  106SAPE   C3810917   5.822   4.620   3.886 -0.2518 -0.0993  0.4066
  106SAPE   H8X10918   5.824   4.731   3.880  0.6125 -0.0220  1.7081
  106SAPE   H8Y10919   5.924   4.586   3.911 -0.5765 -1.2668  0.2025
  106SAPE   C3910920   5.722   4.580   3.999 -0.1629 -0.2711 -0.7663
  106SAPE   H9X10921   5.702   4.471   3.999  0.4087 -0.4139  1.1539
  106SAPE   H9Y10922   5.628   4.630   3.969  0.8908  1.7252 -0.9279
  106SAPE  C31010923   5.767   4.627   4.137 -0.2174 -0.6882 -0.4216
  106SAPE  H10X10924   5.794   4.731   4.108  0.3061 -1.1950 -1.8409
  106SAPE  H10Y10925   5.854   4.571   4.178  0.8201  2.7206  2.5647
  106SAPE  C31110926   5.664   4.618   4.251 -0.0140  0.4825 -0.0726
  106SAPE  H11X10927   5.619   4.517   4.261  0.1815  0.3404 -0.5971
  106SAPE  H11Y10928   5.583   4.686   4.218 -1.7423 -1.2056  0.4866
  106SAPE  C31210929   5.730   4.676   4.385 -0.2247 -0.2010 -0.2927
  106SAPE  H12X10930   5.782   4.774   4.376  1.1666 -0.9157 -0.2907
  106SAPE  H12Y10931   5.804   4.597   4.413 -1.1053 -0.6199  0.9764
  106SAPE  C31310932   5.630   4.683   4.491 -0.0759  0.5815 -0.5332
  106SAPE  H13X10933   5.579   4.584   4.494 -1.4589  1.2855  1.3891
  106SAPE  H13Y10934   5.556   4.761   4.462 -1.3683 -0.6673 -0.6783
  106SAPE  C31410935   5.692   4.718   4.631  0.1433 -0.0061 -0.3960
  106SAPE  H14X10936   5.755   4.809   4.623 -0.4876  0.5657  0.9147
  106SAPE  H14Y10937   5.756   4.633   4.662 -0.6360 -1.9616 -3.5908
  106SAPE  C31510938   5.585   4.740   4.751 -0.2721 -0.0054  0.2131
  106SAPE  H15X10939   5.542   4.639   4.764 -1.2139  0.2623 -0.6461
  106SAPE  H15Y10940   5.507   4.804   4.704 -0.9752 -2.1831 -1.8016
  106SAPE  C31610941   5.626   4.817   4.879 -0.3203  0.1261  0.5598
  106SAPE  H16X10942   5.661   4.918   4.851 -1.1541  0.1884 -0.3217
  106SAPE  H16Y10943   5.712   4.757   4.915  0.3964 -0.9322 -2.5939
  106SAPE  C31710944   5.515   4.831   4.982  0.1818  0.0729  0.7050
  106SAPE  H17X10945   5.498   4.724   5.005 -1.1219 -0.4125 -2.0993
  106SAPE  H17Y10946   5.426   4.878   4.935  0.0593 -0.5401  0.3175
  106SAPE  C31810947   5.559   4.885   5.119  0.5064 -0.1092 -0.0698
  106SAPE  H18X10948   5.591   4.991   5.110  1.6444 -0.6433 -3.3790
  106SAPE  H18Y10949   5.648   4.830   5.154  1.7842  1.2403 -1.0814
  106SAPE  H18Z10950   5.477   4.868   5.193  0.1487  0.8385 -0.2243
  107SAPE     N10951   3.776   0.362   2.599 -0.6823 -0.0225 -0.1156
  107SAPE   HN110952   3.701   0.394   2.663 -2.2344 -1.9046 -0.8829
  107SAPE   HN210953   3.803   0.427   2.522  1.1644 -0.6359 -0.0380
  107SAPE   HN310954   3.733   0.278   2.556  0.5555 -1.6385  1.6240
  107SAPE   C1210955   3.902   0.323   2.675 -0.2597  0.6747  0.7550
  107SAPE  H12A10956   3.973   0.281   2.600 -0.6815  2.3236 -0.6269
  107SAPE  H12B10957   3.876   0.250   2.755  2.6806  0.1681  1.3678
  107SAPE   C1110958   3.967   0.445   2.734  0.2593  0.1251 -0.2975
  107SAPE  H11A10959   4.052   0.414   2.799 -1.0819 -2.6785  0.2689
  107SAPE  H11B10960   3.903   0.494   2.811 -1.9120 -2.2055 -0.5232
  107SAPE     P10961   4.077   0.683   2.682 -0.2075 -0.1020 -0.0955
  107SAPE   O1310962   4.210   0.652   2.741  0.2837 -0.6905 -0.2696
  107SAPE   O1410963   4.069   0.776   2.570  0.2316  0.0126 -0.2904
  107SAPE   O1210964   4.011   0.549   2.636 -0.1129  0.3156  0.2643
  107SAPE   O1110965   3.981   0.735   2.793  0.0275 -0.4799  0.2838
  107SAPE    C110966   3.847   0.770   2.752 -0.1033 -0.4580  0.2807
  107SAPE    HA10967   3.847   0.857   2.683 -2.1847 -0.2927  0.4124
  107SAPE    HB10968   3.805   0.682   2.699  0.7148 -1.2041  0.8437
  107SAPE    C210969   3.756   0.820   2.872 -0.1264 -0.0183 -0.4360
  107SAPE    HS10970   3.657   0.844   2.826  1.1833 -0.6933 -3.9172
  107SAPE   O2110971   3.820   0.922   2.952 -0.6239 -0.5106  0.2011
  107SAPE   C2110972   3.794   1.043   2.900  0.4523 -0.5243  0.6792
  107SAPE   O2210973   3.716   1.070   2.810  0.0648 -0.3274  0.8063
  107SAPE   C2210974   3.888   1.153   2.966  0.0714  0.1255 -0.2626
  107SAPE   H2R10975   3.966   1.177   2.891 -0.1321 -0.7595 -0.7723
  107SAPE   H2S10976   3.827   1.244   2.983  0.2932 -0.0614  1.8427
  107SAPE    C310977   3.722   0.702   2.977  0.4933 -0.1947  0.7224
  107SAPE    HX10978   3.814   0.651   3.014  0.3090 -0.8508  0.2935
  107SAPE    HY10979   3.668   0.631   2.912 -0.8220  2.3158 -1.0809
  107SAPE   O3110980   3.627   0.748   3.086 -0.2580 -0.1352  0.2044
  107SAPE   C3110981   3.683   0.766   3.205 -1.3492 -0.2219  0.8405
  107SAPE   O3210982   3.801   0.736   3.229 -0.3388 -0.1610  0.0466
  107SAPE   C3210983   3.573   0.816   3.301 -0.4163 -0.2974  0.6387
  107SAPE   H2X10984   3.496   0.737   3.316 -2.3693  1.9133  3.3254
  107SAPE   H2Y10985   3.523   0.902   3.251 -0.7113 -0.1107  1.2458
  107SAPE   C2310986   3.955   1.105   3.103 -0.3652 -0.1662  0.4824
  107SAPE   H3R10987   4.042   1.167   3.133 -1.3226  0.4354  2.1113
  107SAPE   H3S10988   4.010   1.009   3.096  0.7603  0.5407 -0.8380
  107SAPE   C2410989   3.844   1.107   3.221 -0.2877 -0.2679  0.7798
  107SAPE   H4R10990   3.896   1.052   3.302  0.8010  0.1285  0.3840
  107SAPE   H4S10991   3.765   1.039   3.185  0.7365  0.1467 -2.6547
  107SAPE   C2510992   3.789   1.248   3.252 -0.0378 -0.1676  0.4621
  107SAPE   H5R10993   3.736   1.295   3.167  0.7931  1.9114  1.0518
  107SAPE   C2610994   3.788   1.317   3.368 -0.2252  0.0530  0.3602
  107SAPE   H6R10995   3.734   1.413   3.366 -0.3314 -0.0155 -0.3052
  107SAPE   C2710996   3.846   1.263   3.500  0.2242  0.5085  0.6525
  107SAPE   H7R10997   3.922   1.184   3.480 -0.0635 -0.0207  1.6107
  107SAPE   H7S10998   3.766   1.224   3.566  1.0267 -0.9511  0.8290
  107SAPE   C2810999   3.919   1.372   3.577 -0.2458  0.1032  0.2355
  107SAPE   H8R11000   3.981   1.439   3.516 -0.6547  0.1177 -0.1689
  107SAPE   C2911001   3.930   1.366   3.710  0.7204 -0.1661 -0.2336
  107SAPE   H9R11002   3.992   1.443   3.758  1.1934  0.1181 -1.2606
  107SAPE  C21011003   3.869   1.268   3.799  0.2274  0.8484  0.3081
  107SAPE  H10R11004   3.760   1.257   3.776 -0.1581  0.5969  2.1361
  107SAPE  H10S11005   3.865   1.297   3.906  1.5968 -0.1245  0.6426
  107SAPE  C21111006   3.935   1.134   3.783 -0.2002 -0.3964 -0.5800
  107SAPE  H11R11007   3.933   1.085   3.685  1.0943 -1.0759 -0.2945
  107SAPE  C21211008   3.997   1.057   3.868  0.0384  0.3004 -0.7984
  107SAPE  H12R11009   4.059   0.978   3.824  2.5497  0.9489  1.2793
  107SAPE  C21311010   4.029   1.106   4.013 -0.4870  0.1484  0.3734
  107SAPE  H13R11011   3.931   1.104   4.064 -0.9711 -1.0459 -0.5545
  107SAPE  H13S11012   4.061   1.211   3.999  1.2823 -0.5347 -1.3349
  107SAPE  C21411013   4.134   1.036   4.091 -1.1481  0.0120 -0.4712
  107SAPE  H14R11014   4.221   1.002   4.033 -0.6342 -0.3716  0.5067
  107SAPE  C21511015   4.124   1.003   4.227  0.0094  0.0867  0.7659
  107SAPE  H15R11016   4.210   0.953   4.275 -0.1641 -0.3262  0.6466
  107SAPE  C21611017   4.008   1.046   4.320 -0.1861  0.8612  0.0871
  107SAPE  H16R11018   3.973   0.979   4.402  0.7332  1.6570  1.1792
  107SAPE  H16S11019   3.922   1.096   4.272  1.1674  1.7861 -1.4671
  107SAPE  C21711020   4.092   1.148   4.409  0.1287  0.7045  0.2440
  107SAPE  H17R11021   4.129   1.229   4.341  3.1600 -1.1018 -0.4461
  107SAPE  H17S11022   4.185   1.101   4.447 -0.2794 -0.9148 -0.6858
  107SAPE  C21811023   4.009   1.202   4.526  0.3418 -0.1674  0.1758
  107SAPE  H18R11024   4.054   1.146   4.611  1.6901  0.5874 -0.0084
  107SAPE  H18S11025   3.901   1.184   4.508 -0.0252  0.5733  1.5334
  107SAPE  C21911026   4.027   1.352   4.547 -0.8776  0.1039 -0.2736
  107SAPE  H19R11027   3.977   1.390   4.638 -0.6696 -1.6318  0.6228
  107SAPE  H19S11028   3.983   1.400   4.458  2.6727 -0.3131 -2.4415
  107SAPE  C22011029   4.180   1.393   4.549 -0.1453 -0.2562 -0.0302
  107SAPE  H20R11030   4.255   1.334   4.493 -1.8254  0.8497 -3.7825
  107SAPE  H20S11031   4.211   1.384   4.656  0.2036  0.3777 -0.0711
  107SAPE  H20T11032   4.190   1.498   4.516  1.8891 -1.0292 -2.1087
  107SAPE   C3311033   3.611   0.871   3.441  0.3017  0.1911 -0.6110
  107SAPE   H3X11034   3.519   0.918   3.482 -0.2978 -1.1851 -0.3178
  107SAPE   H3Y11035   3.684   0.954   3.428 -1.5744  2.3485  1.7188
  107SAPE   C3411036   3.661   0.761   3.536 -0.2090  0.2648 -0.3007
  107SAPE   H4X11037   3.745   0.709   3.486  1.4827  2.5925 -0.0640
  107SAPE   H4Y11038   3.587   0.680   3.550  0.3641  0.0183  1.4708
  107SAPE   C3511039   3.718   0.802   3.670  0.7855  0.2502  0.5098
  107SAPE   H5X11040   3.793   0.883   3.658 -0.4444  1.7070  2.1162
  107SAPE   H5Y11041   3.773   0.711   3.703  0.7710 -0.2380 -0.7785
  107SAPE   C3611042   3.610   0.847   3.769 -0.3442  0.1171  0.6526
  107SAPE   H6X11043   3.525   0.776   3.777 -0.9253  0.9803  2.5464
  107SAPE   H6Y11044   3.576   0.949   3.740  0.0101 -0.1484 -0.7745
  107SAPE   C3711045   3.665   0.858   3.917  0.3673  0.8158  0.2625
  107SAPE   H7X11046   3.604   0.920   3.986 -0.4987 -0.2031  0.4346
  107SAPE   H7Y11047   3.770   0.897   3.919  1.1698 -1.2433  1.1844
  107SAPE   C3811048   3.678   0.721   3.976  0.0002  0.2736 -0.4928
  107SAPE   H8X11049   3.736   0.659   3.904 -0.5130  0.0844 -0.7491
  107SAPE   H8Y11050   3.575   0.681   3.992  1.2036 -3.2396 -0.7000
  107SAPE   C3911051   3.757   0.720   4.112 -0.0952 -0.3884  0.7432
  107SAPE   H9X11052   3.703   0.799   4.168 -1.2335  1.4685 -2.6550
  107SAPE   H9Y11053   3.851   0.777   4.095 -0.9920  0.1871 -3.2542
  107SAPE  C31011054   3.770   0.589   4.190 -0.2407  0.2364  0.6088
  107SAPE  H10X11055   3.828   0.515   4.131  1.6439  0.1838  2.4161
  107SAPE  H10Y11056   3.666   0.552   4.197 -0.3811  0.5750  0.3268
  107SAPE  C31111057   3.818   0.608   4.335 -0.6710 -0.0491  0.2977
  107SAPE  H11X11058   3.925   0.639   4.338 -0.1121 -1.9190  1.1724
  107SAPE  H11Y11059   3.817   0.512   4.390 -0.9610  0.6953  1.6192
  107SAPE  C31211060   3.720   0.695   4.418  0.3608 -0.5537 -0.5009
  107SAPE  H12X11061   3.614   0.665   4.399  0.2635 -1.0825  0.7891
  107SAPE  H12Y11062   3.735   0.802   4.393 -0.4450 -0.1955  0.4904
  107SAPE  C31311063   3.749   0.695   4.572 -0.2533  0.5502 -0.8183
  107SAPE  H13X11064   3.853   0.733   4.579 -0.5162  1.6415 -2.3128
  107SAPE  H13Y11065   3.742   0.593   4.616 -1.5591  0.9143 -0.1324
  107SAPE  C31411066   3.650   0.793   4.644 -0.7660 -0.6130  0.2505
  107SAPE  H14X11067   3.658   0.762   4.751  2.5233 -0.7126  0.0853
  107SAPE  H14Y11068   3.548   0.784   4.603 -1.2071  0.8075  0.9437
  107SAPE  C31511069   3.696   0.937   4.611  0.5320 -0.0166 -0.5810
  107SAPE  H15X11070   3.696   0.965   4.504  1.3626  1.3218 -0.2600
  107SAPE  H15Y11071   3.800   0.966   4.638  0.6643  0.0079 -1.1052
  107SAPE  C31611072   3.606   1.034   4.689 -0.0386 -0.0859  0.0756
  107SAPE  H16X11073   3.617   1.014   4.798  4.5338  2.6854  0.4279
  107SAPE  H16Y11074   3.503   1.027   4.648  0.4362 -1.4540 -0.9539
  107SAPE  C31711075   3.656   1.170   4.650 -0.4633 -0.9417 -0.5254
  107SAPE  H17X11076   3.651   1.192   4.541  0.1030 -4.5236 -1.3944
  107SAPE  H17Y11077   3.760   1.191   4.682 -0.3878  3.0887 -2.7475
  107SAPE  C31811078   3.569   1.285   4.714  0.3963 -0.3670 -0.3713
  107SAPE  H18X11079   3.461   1.261   4.706 -0.2143  2.1991 -0.8883
  107SAPE  H18Y11080   3.580   1.375   4.649  3.5039 -0.2107  0.2014
  107SAPE  H18Z11081   3.597   1.318   4.817  0.9803  0.6060 -0.8213
  108SAPE     N11082   1.729   4.918   2.704  0.3702  0.3011  0.4231
  108SAPE   HN111083   1.698   4.950   2.798  0.9604 -1.0037  1.0968
  108SAPE   HN211084   1.655   4.862   2.658 -0.2914  2.2918 -1.1071
  108SAPE   HN311085   1.808   4.852   2.719  0.0890  0.0873  0.9788
  108SAPE   C1211086   1.769   5.041   2.622  0.5756  0.1961 -0.0460
  108SAPE  H12A11087   1.673   5.095   2.605  0.9338  0.4971 -1.2624
  108SAPE  H12B11088   1.795   5.002   2.521 -0.7624 -0.3323 -0.1998
  108SAPE   C1111089   1.870   5.128   2.698 -0.3253  0.2759  0.2633
  108SAPE  H11A11090   1.818   5.174   2.785 -0.3067 -0.3914  0.6386
  108SAPE  H11B11091   1.896   5.207   2.624 -1.9047  0.0864 -0.5364
  108SAPE     P11092   2.095   5.123   2.824 -0.2398  0.2886  0.1325
  108SAPE   O1311093   2.221   5.052   2.806 -0.2427 -0.0895 -0.6626
  108SAPE   O1411094   2.099   5.268   2.792  0.0884 -0.0247  0.0403
  108SAPE   O1211095   1.988   5.052   2.729 -0.6967 -0.1038 -0.3591
  108SAPE   O1111096   2.053   5.099   2.973  0.1042 -0.0717 -0.0369
  108SAPE    C111097   1.932   5.030   3.009  0.0865  0.0009  0.1386
  108SAPE    HA11098   1.848   5.102   2.997  0.4997  0.4721  0.0305
  108SAPE    HB11099   1.903   4.944   2.946 -1.9217  1.6886 -1.3779
  108SAPE    C211100   1.943   4.983   3.154  0.5692 -0.3498 -0.0899
  108SAPE    HS11101   1.965   5.067   3.223  0.9292 -1.1378  0.7643
  108SAPE   O2111102   2.049   4.885   3.167  0.2220 -0.6562  0.2152
  108SAPE   C2111103   2.153   4.920   3.238 -0.1443 -0.3888 -0.0863
  108SAPE   O2211104   2.155   5.022   3.307 -0.1388  0.0427  0.4107
  108SAPE   C2211105   2.248   4.804   3.237 -0.1910  0.3926  0.8250
  108SAPE   H2R11106   2.195   4.707   3.237  2.9003 -1.4326  0.1338
  108SAPE   H2S11107   2.302   4.811   3.140 -2.0811  0.5542 -0.2547
  108SAPE    C311108   1.806   4.930   3.214 -0.1336 -0.0680 -0.7761
  108SAPE    HX11109   1.763   4.854   3.146 -0.3741  0.4358 -1.2011
  108SAPE    HY11110   1.725   5.007   3.214 -2.8036 -2.7021 -1.4041
  108SAPE   O3111111   1.821   4.866   3.341 -0.0458 -0.2852  0.6356
  108SAPE   C3111112   1.842   4.952   3.445  0.0740  0.2187 -0.2997
  108SAPE   O3211113   1.812   5.069   3.444 -0.6732 -0.2811 -0.4974
  108SAPE   C3211114   1.895   4.875   3.556 -0.1591 -0.4967  0.5620
  108SAPE   H2X11115   1.972   4.802   3.524 -0.0627 -1.0430  1.9681
  108SAPE   H2Y11116   1.810   4.816   3.597 -2.3941  1.2492 -1.2270
  108SAPE   C2311117   2.356   4.807   3.348  0.4195  0.2283  0.4742
  108SAPE   H3R11118   2.416   4.899   3.333  1.9733 -0.6554  1.1420
  108SAPE   H3S11119   2.425   4.722   3.331 -2.1853 -1.8295 -0.4797
  108SAPE   C2411120   2.283   4.796   3.484 -0.0215 -0.0532  0.2670
  108SAPE   H4R11121   2.204   4.873   3.498  0.6996  1.1819 -2.0594
  108SAPE   H4S11122   2.351   4.825   3.568 -0.9951 -1.6043  1.6523
  108SAPE   C2511123   2.223   4.655   3.511  0.0294  0.2557 -0.5055
  108SAPE   H5R11124   2.150   4.628   3.433  0.0712 -1.3402 -0.0342
  108SAPE   C2611125   2.251   4.573   3.606 -0.2706  0.6185 -0.0711
  108SAPE   H6R11126   2.204   4.474   3.607 -0.9054  0.7656 -3.5515
  108SAPE   C2711127   2.350   4.593   3.719  0.4077 -0.5355  0.6416
  108SAPE   H7R11128   2.378   4.701   3.720 -1.2516  0.0647 -2.5231
  108SAPE   H7S11129   2.440   4.535   3.691  0.0885 -1.1010  0.7698
  108SAPE   C2811130   2.310   4.541   3.855 -0.2878 -0.0315  1.0387
  108SAPE   H8R11131   2.206   4.510   3.877  0.3997 -2.4916  1.0673
  108SAPE   C2911132   2.394   4.518   3.953  0.6950 -0.7632 -0.1153
  108SAPE   H9R11133   2.351   4.474   4.044 -0.5923  0.7937  0.0792
  108SAPE  C21011134   2.542   4.552   3.952  0.2494 -0.5326 -0.3653
  108SAPE  H10R11135   2.560   4.662   3.946  2.0770 -0.6979  1.0975
  108SAPE  H10S11136   2.585   4.510   3.859  0.5218 -0.5607 -0.2293
  108SAPE  C21111137   2.605   4.490   4.076  0.0312 -0.2032  0.0485
  108SAPE  H11R11138   2.607   4.380   4.076 -3.2655 -0.4089  2.3341
  108SAPE  C21211139   2.652   4.549   4.187  0.4465  0.2649  0.1499
  108SAPE  H12R11140   2.682   4.483   4.270 -1.6837 -1.0773 -0.0690
  108SAPE  C21311141   2.658   4.701   4.211 -0.6702 -0.1930  0.1247
  108SAPE  H13R11142   2.593   4.728   4.297 -0.5648  2.0511 -0.4246
  108SAPE  H13S11143   2.636   4.766   4.123  0.8365 -2.6855 -2.2643
  108SAPE  C21411144   2.797   4.745   4.251 -0.7615 -0.0406  0.2598
  108SAPE  H14R11145   2.874   4.698   4.189  0.0384  2.4044 -0.7116
  108SAPE  C21511146   2.827   4.822   4.356 -0.3456 -0.3154  0.7066
  108SAPE  H15R11147   2.933   4.827   4.385  0.7620  2.2151 -3.0625
  108SAPE  C21611148   2.741   4.885   4.459  0.7535  0.1737 -0.6004
  108SAPE  H16R11149   2.638   4.899   4.420 -0.4823 -1.8455  1.6832
  108SAPE  H16S11150   2.777   4.980   4.504 -0.0620 -0.4239  1.4312
  108SAPE  C21711151   2.735   4.781   4.572  0.3100 -0.3872 -0.0533
  108SAPE  H17R11152   2.833   4.762   4.622 -0.7791 -1.4700  1.7656
  108SAPE  H17S11153   2.690   4.686   4.535  1.8204 -1.0053 -0.4096
  108SAPE  C21811154   2.644   4.824   4.689  0.5902  0.5653 -0.3642
  108SAPE  H18R11155   2.541   4.843   4.652  0.0351  0.8886  1.2247
  108SAPE  H18S11156   2.686   4.914   4.740  1.4164 -1.3708  2.6507
  108SAPE  C21911157   2.629   4.712   4.796  0.4145 -0.3334  0.3912
  108SAPE  H19R11158   2.706   4.733   4.873  0.6151  0.4536 -0.0037
  108SAPE  H19S11159   2.645   4.610   4.753  0.2738 -0.2114  0.0442
  108SAPE  C22011160   2.489   4.706   4.867 -0.2673  0.3530  0.0570
  108SAPE  H20R11161   2.492   4.637   4.955  0.1431  1.1984  0.7217
  108SAPE  H20S11162   2.423   4.655   4.794 -0.2178 -0.8037  0.7858
  108SAPE  H20T11163   2.451   4.805   4.899  2.3625  0.8588  1.9725
  108SAPE   C3311164   1.968   4.964   3.658 -0.0515 -0.0023 -0.9904
  108SAPE   H3X11165   1.893   5.037   3.694  2.7566  2.2024  0.8112
  108SAPE   H3Y11166   2.048   5.018   3.602  2.4859 -1.4209  1.0283
  108SAPE   C3411167   2.036   4.890   3.770  0.2829 -0.0781  0.3787
  108SAPE   H4X11168   2.094   4.963   3.830 -1.0794  0.7181  0.7600
  108SAPE   H4Y11169   2.107   4.817   3.726  0.9725  0.6505  0.2706
  108SAPE   C3511170   1.932   4.821   3.860  0.4715  0.0211  0.3646
  108SAPE   H5X11171   1.849   4.892   3.879 -1.0155 -1.6462  0.3734
  108SAPE   H5Y11172   1.901   4.735   3.796  2.3675  0.4100 -1.1880
  108SAPE   C3611173   1.981   4.781   4.002 -1.0212  0.3304 -0.2978
  108SAPE   H6X11174   2.032   4.865   4.054 -0.9288  0.2523 -0.2627
  108SAPE   H6Y11175   2.056   4.702   3.978 -0.2931  0.3353  1.8004
  108SAPE   C3711176   1.873   4.726   4.090 -0.2654 -0.4351 -0.3730
  108SAPE   H7X11177   1.814   4.651   4.033 -0.6500 -0.0080 -0.5386
  108SAPE   H7Y11178   1.800   4.802   4.125  1.3906  1.0216  0.0873
  108SAPE   C3811179   1.929   4.641   4.208  0.4006  0.1385 -0.6713
  108SAPE   H8X11180   2.012   4.702   4.249  0.0803  1.1239 -1.4710
  108SAPE   H8Y11181   1.991   4.557   4.171  1.6489  0.4837  0.5599
  108SAPE   C3911182   1.818   4.589   4.303  0.3375  0.2409 -0.2943
  108SAPE   H9X11183   1.870   4.515   4.367 -1.1643  2.4107  3.8462
  108SAPE   H9Y11184   1.729   4.555   4.246  0.2689  1.0486 -0.6937
  108SAPE  C31011185   1.760   4.691   4.406 -0.9518  0.3789  0.1732
  108SAPE  H10X11186   1.650   4.703   4.390 -1.0972 -0.3314  0.6164
  108SAPE  H10Y11187   1.811   4.789   4.398  0.6619 -0.5157 -1.1420
  108SAPE  C31111188   1.751   4.643   4.552 -0.9600  0.0725  0.2449
  108SAPE  H11X11189   1.695   4.547   4.561 -2.3879  0.7510 -0.9414
  108SAPE  H11Y11190   1.693   4.722   4.604 -1.8922  0.4115 -1.2658
  108SAPE  C31211191   1.897   4.629   4.607  0.0465  0.1120 -0.7758
  108SAPE  H12X11192   1.951   4.712   4.557 -1.0763  1.5941  0.3756
  108SAPE  H12Y11193   1.958   4.542   4.574 -1.8546 -2.2157  1.3788
  108SAPE  C31311194   1.907   4.632   4.764  0.2096  0.5193 -0.4784
  108SAPE  H13X11195   1.874   4.541   4.818  1.4276  0.3756  0.0545
  108SAPE  H13Y11196   1.831   4.706   4.798 -1.1878  0.1907 -2.6687
  108SAPE  C31411197   2.043   4.674   4.809  0.3505 -0.1261 -0.4235
  108SAPE  H14X11198   2.079   4.759   4.748  0.6561  0.0249 -0.0353
  108SAPE  H14Y11199   2.103   4.583   4.787  1.0225 -0.0056  0.7972
  108SAPE  C31511200   2.052   4.711   4.958  0.1098  0.1857 -0.2522
  108SAPE  H15X11201   2.004   4.624   5.009 -2.4489  0.6897 -1.6106
  108SAPE  H15Y11202   1.996   4.804   4.981  1.0168  0.8734 -0.7482
  108SAPE  C31611203   2.194   4.707   5.016 -0.0030 -0.3323  0.2225
  108SAPE  H16X11204   2.254   4.789   4.973  1.4348 -0.9120  1.0499
  108SAPE  H16Y11205   2.235   4.616   4.967 -2.0251  0.1496 -2.6123
  108SAPE  C31711206   2.203   4.690   5.170  0.0386  0.3644 -0.3404
  108SAPE  H17X11207   2.107   4.675   5.222 -0.0661  0.2162 -0.5759
  108SAPE  H17Y11208   2.263   4.769   5.220  1.9980 -0.4273 -1.3041
  108SAPE  C31811209   2.281   4.561   5.199 -0.1457 -0.5023  0.0142
  108SAPE  H18X11210   2.299   4.570   5.309 -0.3547  1.0207 -0.0426
  108SAPE  H18Y11211   2.371   4.533   5.141  0.5281  1.0503  0.2511
  108SAPE  H18Z11212   2.211   4.480   5.170 -2.2689  1.7579 -1.6915
  109SAPE     N11213   3.875   5.729   2.719  0.1694 -0.5245 -0.2507
  109SAPE   HN111214   3.895   5.819   2.769  0.2891 -0.2462 -0.7927
  109SAPE   HN211215   3.949   5.717   2.647  0.7493 -1.4306  0.4679
  109SAPE   HN311216   3.783   5.731   2.672  0.7842 -0.1467 -1.4883
  109SAPE   C1211217   3.906   5.628   2.826  0.0933 -0.2397  0.0951
  109SAPE  H12A11218   3.911   5.529   2.776 -0.0880  0.3091 -1.0329
  109SAPE  H12B11219   3.811   5.635   2.882 -0.3901 -0.0014 -0.7316
  109SAPE   C1111220   4.030   5.669   2.913 -0.2338  0.2985  0.7444
  109SAPE  H11A11221   4.050   5.587   2.985  2.0475  0.8413  0.8184
  109SAPE  H11B11222   3.999   5.756   2.974  0.8571  0.1074  1.6169
  109SAPE     P11223   4.295   5.676   2.877 -0.0381 -0.0854 -0.2939
  109SAPE   O1311224   4.369   5.607   2.773 -0.5639  0.2220  0.2552
  109SAPE   O1411225   4.349   5.812   2.915 -0.2348 -1.2254  0.1552
  109SAPE   O1211226   4.146   5.687   2.822  0.3504  0.3475 -0.0853
  109SAPE   O1111227   4.273   5.581   3.005  0.0520 -0.3897  0.0780
  109SAPE    C111228   4.300   5.622   3.139  0.4835 -0.2792  1.1950
  109SAPE    HA11229   4.292   5.733   3.141 -0.8542 -0.3609  1.6764
  109SAPE    HB11230   4.222   5.585   3.209 -0.1539  1.2012  1.3032
  109SAPE    C211231   4.442   5.595   3.180 -0.4329  0.5845 -0.0472
  109SAPE    HS11232   4.496   5.662   3.109  0.6077  0.7988  0.9242
  109SAPE   O2111233   4.477   5.458   3.163  0.7558 -0.1452  0.1234
  109SAPE   C2111234   4.604   5.426   3.128  0.0995  0.0055 -0.8778
  109SAPE   O2211235   4.691   5.507   3.103  0.4413 -0.2400 -0.6684
  109SAPE   C2211236   4.612   5.274   3.132 -0.0598  0.1140  0.1540
  109SAPE   H2R11237   4.585   5.240   3.235  3.6489  0.2102  1.3170
  109SAPE   H2S11238   4.536   5.233   3.062 -1.6283  1.8148  0.7900
  109SAPE    C311239   4.465   5.638   3.328 -0.6868  0.2107  0.2196
  109SAPE    HX11240   4.428   5.553   3.389  0.5603 -0.8678 -0.4505
  109SAPE    HY11241   4.415   5.731   3.361 -0.9730  0.5307 -1.0528
  109SAPE   O3111242   4.605   5.644   3.356  0.2087 -0.0878 -0.6058
  109SAPE   C3111243   4.685   5.724   3.290 -0.1535  0.2477 -0.0402
  109SAPE   O3211244   4.645   5.813   3.212  0.0942 -0.4849  0.3357
  109SAPE   C3211245   4.833   5.692   3.332  0.3046 -0.6148 -0.0452
  109SAPE   H2X11246   4.885   5.775   3.281 -2.1783  0.3653 -1.1365
  109SAPE   H2Y11247   4.855   5.595   3.283 -0.2398 -0.2757 -0.9901
  109SAPE   C2311248   4.757   5.226   3.104  0.2325  0.1662 -0.2428
  109SAPE   H3R11249   4.808   5.284   3.025 -0.9856  2.3375  0.4772
  109SAPE   H3S11250   4.744   5.120   3.071 -2.4437  0.0432  0.9159
  109SAPE   C2411251   4.860   5.241   3.222  0.3083 -0.9270  0.0601
  109SAPE   H4R11252   4.862   5.349   3.249 -0.8238 -0.9854  0.4437
  109SAPE   H4S11253   4.953   5.197   3.181 -0.0562 -1.9219  0.2714
  109SAPE   C2511254   4.804   5.156   3.331  0.3737 -0.1068 -0.5043
  109SAPE   H5R11255   4.812   5.047   3.319  2.1466 -0.1947  0.9723
  109SAPE   C2611256   4.767   5.196   3.457 -0.2520  0.8093 -0.3378
  109SAPE   H6R11257   4.743   5.121   3.533  1.1870  1.3860  0.7428
  109SAPE   C2711258   4.757   5.342   3.494 -0.4537 -0.2853 -1.6338
  109SAPE   H7R11259   4.669   5.391   3.448  0.3861  1.9992 -0.9304
  109SAPE   H7S11260   4.848   5.395   3.458  0.1261  0.0489  0.2302
  109SAPE   C2811261   4.769   5.353   3.648  0.1555 -0.2709  0.0119
  109SAPE   H8R11262   4.856   5.306   3.697 -0.1295 -2.3847 -1.3869
  109SAPE   C2911263   4.685   5.411   3.736  0.7939 -0.1181  0.0561
  109SAPE   H9R11264   4.700   5.388   3.843  0.2769 -0.4068  0.0718
  109SAPE  C21011265   4.560   5.480   3.695 -0.0943 -0.9494 -0.2723
  109SAPE  H10R11266   4.531   5.461   3.590 -1.3934  0.2923 -0.1735
  109SAPE  H10S11267   4.591   5.587   3.696 -0.8590 -0.6984 -1.2586
  109SAPE  C21111268   4.442   5.459   3.791 -0.0758 -0.2830  0.0635
  109SAPE  H11R11269   4.421   5.351   3.798 -0.3351 -0.3116 -1.0299
  109SAPE  C21211270   4.387   5.551   3.872  0.1989  0.2462  0.4270
  109SAPE  H12R11271   4.294   5.532   3.929 -0.8292  3.1599 -0.0881
  109SAPE  C21311272   4.425   5.698   3.886 -0.2102  0.0929  0.1635
  109SAPE  H13R11273   4.535   5.712   3.891  0.0837 -2.1258  0.9826
  109SAPE  H13S11274   4.381   5.723   3.985 -0.0975  0.5723  0.0977
  109SAPE  C21411275   4.373   5.785   3.776  0.2430  0.5711 -0.7350
  109SAPE  H14R11276   4.389   5.749   3.674 -2.2042  1.0352 -1.3352
  109SAPE  C21511277   4.316   5.909   3.802 -0.2043  0.7176  0.9894
  109SAPE  H15R11278   4.279   5.972   3.720 -0.4699 -0.2723  0.3314
  109SAPE  C21611279   4.309   5.986   3.928 -0.2519  0.0650 -0.5074
  109SAPE  H16R11280   4.292   5.922   4.017  1.1745 -0.5212 -0.6447
  109SAPE  H16S11281   4.215   6.046   3.929  0.2053  0.8000 -0.8506
  109SAPE  C21711282   4.421   6.081   3.948 -0.2363  0.0132  0.1035
  109SAPE  H17R11283   4.432   6.142   3.856 -0.4417 -0.2725 -0.1143
  109SAPE  H17S11284   4.513   6.021   3.962  1.0257  1.1028 -2.7061
  109SAPE  C21811285   4.390   6.178   4.064  0.3390 -0.1851  0.2445
  109SAPE  H18R11286   4.468   6.155   4.140  0.2326  0.5650  0.5832
  109SAPE  H18S11287   4.284   6.166   4.098 -0.0850 -0.1938 -1.0517
  109SAPE  C21911288   4.414   6.324   4.025 -0.5741 -0.2326 -0.5530
  109SAPE  H19R11289   4.350   6.359   3.941  0.0075  0.9501 -0.5090
  109SAPE  H19S11290   4.512   6.328   3.973 -0.7606 -0.6091 -0.9475
  109SAPE  C22011291   4.400   6.415   4.146 -0.4527  0.0362 -0.0852
  109SAPE  H20R11292   4.292   6.428   4.166 -0.3324 -0.4304  0.9073
  109SAPE  H20S11293   4.453   6.512   4.146  1.9903 -1.1698  2.6384
  109SAPE  H20T11294   4.430   6.359   4.237  2.1353  3.3197  1.2690
  109SAPE   C3311295   4.869   5.695   3.487  0.7137 -0.3818  0.2063
  109SAPE   H3X11296   4.931   5.608   3.517  0.4626 -0.2247  1.2223
  109SAPE   H3Y11297   4.775   5.682   3.545  0.1776  1.7581 -0.0877
  109SAPE   C3411298   4.922   5.828   3.534  0.6687  0.6320  0.3024
  109SAPE   H4X11299   4.855   5.910   3.501 -1.8258 -1.8910 -1.4483
  109SAPE   H4Y11300   5.019   5.854   3.487  0.3304  1.6020  0.1223
  109SAPE   C3511301   4.952   5.845   3.683  0.4560  0.2624 -0.2183
  109SAPE   H5X11302   5.017   5.763   3.721 -0.6274 -0.5541 -0.0862
  109SAPE   H5Y11303   4.853   5.837   3.733  0.5922  1.2138  0.2270
  109SAPE   C3611304   5.020   5.980   3.716  0.0139  0.3403 -0.9562
  109SAPE   H6X11305   4.953   6.068   3.713 -0.1970  0.2276  0.1393
  109SAPE   H6Y11306   5.099   6.013   3.645  1.3530  1.7430  1.0743
  109SAPE   C3711307   5.083   5.985   3.861 -0.4691 -0.3523  0.3704
  109SAPE   H7X11308   5.134   6.083   3.858 -0.0981 -0.5025  1.3294
  109SAPE   H7Y11309   5.154   5.899   3.862 -0.0684 -0.0459  2.0636
  109SAPE   C3811310   4.993   5.969   3.985  0.2546  0.5646 -0.1488
  109SAPE   H8X11311   5.053   5.967   4.079 -0.9679 -0.8754  0.6378
  109SAPE   H8Y11312   4.939   5.872   3.978  1.5939 -0.0919 -2.6641
  109SAPE   C3911313   4.893   6.088   3.995  0.5059  0.6197 -0.2661
  109SAPE   H9X11314   4.811   6.066   3.924 -0.3254  1.0929  0.5365
  109SAPE   H9Y11315   4.955   6.167   3.948 -1.9160  1.6840 -1.8695
  109SAPE  C31011316   4.835   6.129   4.135 -0.5151  0.7393  0.5651
  109SAPE  H10X11317   4.916   6.129   4.212 -1.1802 -0.9630  1.3094
  109SAPE  H10Y11318   4.761   6.050   4.160  0.9753 -0.6615  0.6937
  109SAPE  C31111319   4.770   6.266   4.138  0.6381  0.0864 -0.4907
  109SAPE  H11X11320   4.686   6.254   4.066 -0.4507  1.7343  0.4459
  109SAPE  H11Y11321   4.838   6.348   4.109  2.0491 -1.4944 -1.8808
  109SAPE  C31211322   4.711   6.306   4.269  0.0839 -0.4284  0.5149
  109SAPE  H12X11323   4.641   6.223   4.293 -0.1964 -1.1149 -2.3184
  109SAPE  H12Y11324   4.656   6.401   4.260  0.5198 -0.3418 -1.6618
  109SAPE  C31311325   4.809   6.308   4.395  0.2110 -1.1414  1.3171
  109SAPE  H13X11326   4.883   6.391   4.398 -1.6912  0.7936 -0.9838
  109SAPE  H13Y11327   4.871   6.216   4.391  0.5891 -0.8622 -0.6752
  109SAPE  C31411328   4.739   6.310   4.532  0.6925  0.1179 -0.7072
  109SAPE  H14X11329   4.811   6.280   4.610 -0.7528  0.0553  0.6539
  109SAPE  H14Y11330   4.660   6.232   4.540  0.6297  0.3343  1.2404
  109SAPE  C31511331   4.690   6.456   4.573 -0.0722  0.5224  0.2302
  109SAPE  H15X11332   4.607   6.486   4.506 -1.3426 -1.2679  0.8909
  109SAPE  H15Y11333   4.768   6.534   4.563 -0.9898  1.6980  1.7429
  109SAPE  C31611334   4.632   6.450   4.718 -0.5591  0.2636  0.8152
  109SAPE  H16X11335   4.721   6.434   4.782  1.0719 -0.5968 -1.5124
  109SAPE  H16Y11336   4.560   6.365   4.728  0.7829 -1.2376 -1.3568
  109SAPE  C31711337   4.560   6.579   4.759  0.4555 -0.1078 -0.4848
  109SAPE  H17X11338   4.508   6.569   4.857  1.5907 -0.1852  0.1266
  109SAPE  H17Y11339   4.480   6.614   4.690 -0.2133  0.3058  0.4852
  109SAPE  C31811340   4.664   6.694   4.774  0.0704  0.0583 -0.1924
  109SAPE  H18X11341   4.703   6.722   4.673 -1.3699 -0.7890 -1.0218
  109SAPE  H18Y11342   4.752   6.701   4.841 -0.3805  1.0561  0.3193
  109SAPE  H18Z11343   4.605   6.775   4.821 -2.1942 -1.4335 -0.3393
  110SAPE     N11344   5.636   3.925   2.674  0.4392  0.6770 -0.6845
  110SAPE   HN111345   5.613   3.871   2.760  0.4252  1.3511 -0.2535
  110SAPE   HN211346   5.714   3.897   2.611  0.9576  0.5639 -0.0074
  110SAPE   HN311347   5.660   4.020   2.708  0.1537 -0.0314  1.7439
  110SAPE   C1211348   5.517   3.940   2.590  0.0399 -0.1762 -0.5042
  110SAPE  H12A11349   5.448   3.856   2.616  1.4910 -1.4523 -0.6208
  110SAPE  H12B11350   5.538   3.930   2.481 -1.0279 -1.4822 -0.6179
  110SAPE   C1111351   5.455   4.077   2.628  0.2612  0.3425 -0.3175
  110SAPE  H11A11352   5.406   4.052   2.724 -3.5101  0.4553 -2.0440
  110SAPE  H11B11353   5.367   4.086   2.561 -0.2701 -0.6416  0.2325
  110SAPE     P11354   5.536   4.304   2.723  0.1119  0.2965  0.3142
  110SAPE   O1311355   5.645   4.403   2.694 -0.3656 -0.2129 -0.5149
  110SAPE   O1411356   5.393   4.337   2.719 -0.2716  0.1534  0.8730
  110SAPE   O1211357   5.551   4.183   2.609  0.1677 -0.2932 -0.1444
  110SAPE   O1111358   5.559   4.221   2.856  0.0459  0.0739 -0.4036
  110SAPE    C111359   5.501   4.268   2.980 -0.1469 -0.1064 -0.5865
  110SAPE    HA11360   5.563   4.349   3.024 -0.1214  0.3130 -1.3733
  110SAPE    HB11361   5.400   4.314   2.971  0.8829  2.1915 -1.0412
  110SAPE    C211362   5.479   4.150   3.078 -0.7532 -0.5420 -0.4028
  110SAPE    HS11363   5.414   4.188   3.159  1.2396 -1.9512  1.9879
  110SAPE   O2111364   5.607   4.105   3.136 -0.5835 -0.0559  0.1669
  110SAPE   C2111365   5.650   4.173   3.243  0.6590  0.9356  0.3831
  110SAPE   O2211366   5.595   4.273   3.288  0.4951 -0.2785 -0.3221
  110SAPE   C2211367   5.770   4.097   3.301 -0.4826  0.2649  0.1819
  110SAPE   H2R11368   5.809   4.025   3.225  0.7817 -0.7087  1.7007
  110SAPE   H2S11369   5.853   4.167   3.320  0.6219 -0.4833 -1.5524
  110SAPE    C311370   5.401   4.032   3.012  0.1324  1.0254 -0.1673
  110SAPE    HX11371   5.307   4.075   2.972  0.1684  0.0481 -1.3337
  110SAPE    HY11372   5.462   4.005   2.923  0.0509  1.7219 -0.4456
  110SAPE   O3111373   5.373   3.929   3.106 -0.2074  0.0800  0.5261
  110SAPE   C3111374   5.313   3.817   3.060 -0.4591  0.2111  0.0766
  110SAPE   O3211375   5.281   3.800   2.939 -0.1221  0.0956 -0.8167
  110SAPE   C3211376   5.277   3.719   3.172  0.2895  0.1869 -0.1361
  110SAPE   H2X11377   5.259   3.620   3.125  0.3641  0.3029 -0.4109
  110SAPE   H2Y11378   5.177   3.745   3.214 -1.1368 -0.1302 -3.0410
  110SAPE   C2311379   5.746   4.020   3.432  0.3799  0.0676  0.8400
  110SAPE   H3R11380   5.836   3.960   3.459  0.0300 -0.3078  1.1962
  110SAPE   H3S11381   5.666   3.944   3.415 -0.5365  1.3538 -0.7937
  110SAPE   C2411382   5.702   4.113   3.549  0.4014  0.4675  0.6510
  110SAPE   H4R11383   5.652   4.042   3.620 -1.2330  1.3859  0.4796
  110SAPE   H4S11384   5.632   4.194   3.520 -0.2756  0.3899  1.9469
  110SAPE   C2511385   5.832   4.174   3.605 -0.1404 -0.3424 -0.4188
  110SAPE   H5R11386   5.863   4.265   3.553  0.4513 -0.1750  0.2036
  110SAPE   C2611387   5.906   4.138   3.710  0.0982  0.6495  0.0561
  110SAPE   H6R11388   5.994   4.197   3.738 -0.1073  2.0402 -1.9372
  110SAPE   C2711389   5.890   3.999   3.779  0.1706  0.3680 -0.4575
  110SAPE   H7R11390   5.780   3.983   3.773 -0.0756  1.2046  1.3345
  110SAPE   H7S11391   5.908   4.005   3.888  0.8304 -1.8838 -0.3979
  110SAPE   C2811392   5.964   3.890   3.711 -0.1844 -0.2475 -0.1410
  110SAPE   H8R11393   5.933   3.863   3.609 -1.5220  1.6659 -0.2762
  110SAPE   C2911394   6.077   3.830   3.771  0.6311 -0.3079  0.0845
  110SAPE   H9R11395   6.125   3.747   3.717 -1.9636 -3.0230  1.6478
  110SAPE  C21011396   6.140   3.871   3.905 -0.1092  0.1772 -0.1144
  110SAPE  H10R11397   6.136   3.977   3.938  1.2093 -0.5758  2.8478
  110SAPE  H10S11398   6.248   3.845   3.895 -0.0265  0.7312 -0.7569
  110SAPE  C21111399   6.074   3.789   4.014  0.0544 -0.1071 -0.0669
  110SAPE  H11R11400   5.981   3.838   4.046 -0.4874  0.5340 -2.3877
  110SAPE  C21211401   6.104   3.666   4.065 -0.3481 -0.1078 -0.0430
  110SAPE  H12R11402   6.027   3.621   4.129  0.3777  1.2698  1.8840
  110SAPE  C21311403   6.224   3.575   4.032 -0.2148 -0.2737  0.0153
  110SAPE  H13R11404   6.260   3.613   3.934 -0.0917 -1.1250 -0.2711
  110SAPE  H13S11405   6.198   3.467   4.025  0.5266 -0.3329 -3.2439
  110SAPE  C21411406   6.336   3.603   4.130  0.0938 -0.3074  0.4914
  110SAPE  H14R11407   6.395   3.695   4.116  2.4925 -1.7354  0.5980
  110SAPE  C21511408   6.361   3.527   4.233  0.0473  0.6595  0.0486
  110SAPE  H15R11409   6.431   3.558   4.313  0.1150  2.4827 -0.6839
  110SAPE  C21611410   6.291   3.393   4.272 -0.3290 -0.9185 -0.2143
  110SAPE  H16R11411   6.352   3.334   4.344  0.9149 -0.7091 -1.0595
  110SAPE  H16S11412   6.264   3.331   4.184 -0.1288  1.5337 -2.1138
  110SAPE  C21711413   6.160   3.426   4.341  0.0614 -0.9613  0.3577
  110SAPE  H17R11414   6.103   3.490   4.271 -1.5864  0.4665  2.8826
  110SAPE  H17S11415   6.185   3.485   4.431  1.1288  1.1655 -1.2474
  110SAPE  C21811416   6.077   3.303   4.372  0.3721 -0.2660 -0.1954
  110SAPE  H18R11417   6.124   3.257   4.461 -1.1613  0.3391  0.9592
  110SAPE  H18S11418   6.079   3.222   4.296 -1.7938 -0.8013  0.2377
  110SAPE  C21911419   5.929   3.336   4.409 -0.6735 -0.5425 -0.3401
  110SAPE  H19R11420   5.880   3.244   4.445 -1.3413 -0.1747 -0.3000
  110SAPE  H19S11421   5.878   3.380   4.321 -1.2140 -0.2475  0.1170
  110SAPE  C22011422   5.928   3.445   4.522 -0.0400  0.0633  0.5947
  110SAPE  H20R11423   5.834   3.448   4.581 -1.6730 -0.7518 -1.8370
  110SAPE  H20S11424   5.958   3.545   4.484 -0.6846  0.4334  1.0371
  110SAPE  H20T11425   6.014   3.428   4.591  0.0547  1.6543  0.9189
  110SAPE   C3311426   5.383   3.686   3.283 -0.2030  0.7851 -0.0884
  110SAPE   H3X11427   5.445   3.777   3.296  1.6471 -0.2999 -1.0343
  110SAPE   H3Y11428   5.452   3.609   3.245 -0.7641  0.6158 -0.7834
  110SAPE   C3411429   5.324   3.641   3.421 -0.8186 -0.0684 -0.0058
  110SAPE   H4X11430   5.255   3.555   3.412  0.2923 -1.3926  2.8610
  110SAPE   H4Y11431   5.268   3.728   3.462 -0.5227 -0.1183  0.5208
  110SAPE   C3511432   5.440   3.609   3.523  0.0651 -0.3719  0.2039
  110SAPE   H5X11433   5.523   3.560   3.467 -1.2924 -1.5202 -0.8716
  110SAPE   H5Y11434   5.402   3.539   3.600  0.2613 -0.5243  0.1617
  110SAPE   C3611435   5.493   3.733   3.592 -0.5444 -0.5131 -0.8567
  110SAPE   H6X11436   5.412   3.775   3.656 -0.1275 -1.3385  0.2521
  110SAPE   H6Y11437   5.526   3.799   3.509  3.8932 -3.2965 -1.6448
  110SAPE   C3711438   5.623   3.706   3.671 -0.0887 -0.6437 -0.3194
  110SAPE   H7X11439   5.663   3.798   3.717  0.2982 -0.4239 -1.0726
  110SAPE   H7Y11440   5.697   3.648   3.611  1.8787  0.1306  1.2698
  110SAPE   C3811441   5.595   3.613   3.795  0.0088 -0.8872  0.2395
  110SAPE   H8X11442   5.577   3.513   3.752  1.4228 -1.6568  1.3674
  110SAPE   H8Y11443   5.509   3.657   3.852  0.0755 -0.8157  0.2866
  110SAPE   C3911444   5.718   3.601   3.891  0.0981  0.6116  0.3809
  110SAPE   H9X11445   5.749   3.701   3.929  1.3278 -0.0294  1.1209
  110SAPE   H9Y11446   5.799   3.568   3.822 -1.9586 -0.8967 -1.4889
  110SAPE  C31011447   5.714   3.490   3.995 -0.5823  0.1757 -0.1540
  110SAPE  H10X11448   5.812   3.496   4.048 -1.8460  0.4118  2.3013
  110SAPE  H10Y11449   5.700   3.387   3.956  2.4730  0.1938 -1.6288
  110SAPE  C31111450   5.623   3.514   4.114  0.5552  0.3003  0.8404
  110SAPE  H11X11451   5.527   3.542   4.064  1.8490 -1.4639 -3.0086
  110SAPE  H11Y11452   5.656   3.608   4.163 -0.1699  1.4791 -0.8153
  110SAPE  C31211453   5.591   3.389   4.203  0.4144 -0.0799  0.1547
  110SAPE  H12X11454   5.682   3.366   4.262  0.3421  1.2577  0.8492
  110SAPE  H12Y11455   5.576   3.305   4.133  0.2153 -0.0330  0.1404
  110SAPE  C31311456   5.462   3.422   4.273 -0.3556  0.6680 -0.6353
  110SAPE  H13X11457   5.382   3.419   4.197 -0.1121 -4.0774 -0.9990
  110SAPE  H13Y11458   5.468   3.523   4.318  0.1103  0.1886  0.4046
  110SAPE  C31411459   5.418   3.329   4.386 -0.2145 -0.3881 -0.1440
  110SAPE  H14X11460   5.394   3.228   4.346 -1.1701 -0.0480 -0.4578
  110SAPE  H14Y11461   5.327   3.377   4.429 -0.1085 -2.0217  2.0289
  110SAPE  C31511462   5.524   3.333   4.503  0.6624  0.2616  0.1053
  110SAPE  H15X11463   5.542   3.436   4.540 -0.4280  0.5486 -0.1182
  110SAPE  H15Y11464   5.615   3.284   4.463  2.6316  1.2886  2.9894
  110SAPE  C31611465   5.463   3.263   4.627 -0.3573 -0.3008  0.0297
  110SAPE  H16X11466   5.417   3.164   4.606 -0.5728 -0.3645  0.7745
  110SAPE  H16Y11467   5.378   3.328   4.657 -0.1587  0.4419 -0.9765
  110SAPE  C31711468   5.571   3.248   4.734 -0.7866  0.8110  1.0789
  110SAPE  H17X11469   5.539   3.180   4.816 -1.6631 -2.1648 -1.5501
  110SAPE  H17Y11470   5.583   3.348   4.782 -0.8784  1.7695 -0.7821
  110SAPE  C31811471   5.712   3.193   4.699 -0.2438 -0.1675  0.3850
  110SAPE  H18X11472   5.774   3.170   4.788 -1.0594 -3.3889  0.2535
  110SAPE  H18Y11473   5.768   3.274   4.648  2.4242 -2.8239 -1.2850
  110SAPE  H18Z11474   5.700   3.103   4.633  1.2331 -0.6955  0.8010
  111SAPE     N11475   3.853   0.008   2.293  0.3340  0.7114  0.0688
  111SAPE   HN111476   3.955   0.014   2.313  0.5959  0.1270 -1.0232
  111SAPE   HN211477   3.829   0.043   2.198  2.8441  0.7260 -0.6299
  111SAPE   HN311478   3.801   0.063   2.364  0.1504 -0.7715  1.1257
  111SAPE   C1211479   3.813  -0.138   2.304  0.0307 -0.5175  0.2948
  111SAPE  H12A11480   3.885  -0.184   2.375 -0.2830 -0.6636  0.5181
  111SAPE  H12B11481   3.821  -0.188   2.205 -2.6290 -2.3612  0.9067
  111SAPE   C1111482   3.669  -0.156   2.358 -0.2030 -0.5195  0.0922
  111SAPE  H11A11483   3.651  -0.265   2.357 -3.0578 -0.1244  0.3603
  111SAPE  H11B11484   3.599  -0.114   2.283  0.1549 -2.3793 -1.3472
  111SAPE     P11485   3.584   0.029   2.523  0.0638  0.1274 -0.0804
  111SAPE   O1311486   3.667   0.143   2.479 -0.0018 -0.8557  0.2280
  111SAPE   O1411487   3.451   0.019   2.463 -0.4545  0.2544  0.2991
  111SAPE   O1211488   3.667  -0.102   2.493  0.5971  0.1985  0.2501
  111SAPE   O1111489   3.577   0.032   2.681 -0.3479 -0.2764  0.3656
  111SAPE    C111490   3.539  -0.090   2.758  0.1608 -0.1397  0.7900
  111SAPE    HA11491   3.429  -0.094   2.769 -0.4256  1.5685 -2.9086
  111SAPE    HB11492   3.573  -0.176   2.697  0.0909  0.7678 -0.5728
  111SAPE    C211493   3.612  -0.098   2.891 -0.3820 -0.6008 -0.5249
  111SAPE    HS11494   3.601  -0.204   2.922 -0.8212 -0.2228  0.6429
  111SAPE   O2111495   3.543  -0.025   2.992 -0.2496 -0.0788 -0.2722
  111SAPE   C2111496   3.420  -0.065   3.028  0.3583  0.2062 -0.7376
  111SAPE   O2211497   3.352  -0.154   2.985 -0.8618  0.5872  0.3053
  111SAPE   C2211498   3.365   0.040   3.131  0.7928  0.4921  0.2974
  111SAPE   H2R11499   3.453   0.091   3.177  1.8783  0.9067 -2.0881
  111SAPE   H2S11500   3.319   0.118   3.066  0.2428  0.6051  0.8118
  111SAPE    C311501   3.759  -0.045   2.877 -0.7033 -0.7551  0.3330
  111SAPE    HX11502   3.762   0.064   2.859 -1.4993 -0.8820 -0.6383
  111SAPE    HY11503   3.805  -0.103   2.794 -0.7520  0.1740 -0.3562
  111SAPE   O3111504   3.822  -0.086   3.003  0.3162 -0.0958  0.3091
  111SAPE   C3111505   3.838   0.018   3.082  0.0839  0.5447 -0.0777
  111SAPE   O3211506   3.815   0.135   3.067 -0.0524 -0.5691 -0.2133
  111SAPE   C3211507   3.869  -0.027   3.220  0.3097 -0.6129 -0.0051
  111SAPE   H2X11508   3.855   0.066   3.280  2.0168  0.0295 -0.5476
  111SAPE   H2Y11509   3.978  -0.046   3.209  0.3179  0.2711 -1.7164
  111SAPE   C2311510   3.255  -0.015   3.232 -0.2996  0.0349  0.7570
  111SAPE   H3R11511   3.184  -0.087   3.185  1.1057  0.3022 -2.0124
  111SAPE   H3S11512   3.194   0.072   3.262  0.7048  1.4942 -1.1903
  111SAPE   C2411513   3.309  -0.098   3.347 -0.5147 -0.3067 -0.1612
  111SAPE   H4R11514   3.353  -0.188   3.299 -2.5686 -1.0973 -0.6724
  111SAPE   H4S11515   3.229  -0.141   3.411  0.3078 -1.2767  0.2556
  111SAPE   C2511516   3.419  -0.031   3.426 -0.5679 -0.3255  0.5665
  111SAPE   H5R11517   3.503   0.016   3.373 -1.6793 -0.6384 -1.5847
  111SAPE   C2611518   3.434  -0.013   3.556  0.3711 -0.2016 -0.4601
  111SAPE   H6R11519   3.521   0.039   3.599  1.1445 -0.6933 -1.3721
  111SAPE   C2711520   3.333  -0.060   3.664 -0.9011  0.4294  0.3778
  111SAPE   H7R11521   3.397  -0.102   3.744  2.1518  2.7541 -0.6237
  111SAPE   H7S11522   3.274  -0.140   3.613 -1.9005 -0.3589  2.6296
  111SAPE   C2811523   3.238   0.052   3.720 -0.2830  0.2960 -0.1206
  111SAPE   H8R11524   3.206   0.124   3.643  1.1345  0.5402 -0.5153
  111SAPE   C2911525   3.228   0.094   3.847  0.1996  0.0654  0.5708
  111SAPE   H9R11526   3.158   0.178   3.851 -0.4918  0.0055 -4.3034
  111SAPE  C21011527   3.292   0.048   3.977 -0.3098  0.7101  0.3008
  111SAPE  H10R11528   3.292   0.125   4.057  2.4086  0.3455  0.7539
  111SAPE  H10S11529   3.398   0.025   3.954 -0.4056 -0.7143  1.1636
  111SAPE  C21111530   3.242  -0.089   4.027 -0.6654 -0.3050  0.1750
  111SAPE  H11R11531   3.215  -0.166   3.953 -2.5577 -1.5032  2.0147
  111SAPE  C21211532   3.233  -0.117   4.160  0.2676 -0.0569 -0.6777
  111SAPE  H12R11533   3.197  -0.216   4.193  0.4156  0.6650  1.8307
  111SAPE  C21311534   3.254  -0.022   4.279  0.3590  0.6995 -0.4821
  111SAPE  H13R11535   3.156   0.026   4.298 -0.0546 -0.8379  1.6560
  111SAPE  H13S11536   3.318   0.067   4.262 -0.0839  1.1612  0.2584
  111SAPE  C21411537   3.313  -0.097   4.393  0.2847 -0.1638  0.2556
  111SAPE  H14R11538   3.423  -0.094   4.394  0.4045 -2.0046 -0.9040
  111SAPE  C21511539   3.248  -0.179   4.480  0.1448 -0.5885  0.1030
  111SAPE  H15R11540   3.309  -0.221   4.561  0.6331  0.4124  0.2699
  111SAPE  C21611541   3.104  -0.205   4.485 -0.1172 -0.4249  0.8632
  111SAPE  H16R11542   3.093  -0.301   4.429  0.1931 -0.5920  1.0831
  111SAPE  H16S11543   3.039  -0.127   4.440 -0.0204 -1.6978 -1.6806
  111SAPE  C21711544   3.054  -0.226   4.625  0.1802  0.2032  0.3980
  111SAPE  H17R11545   3.096  -0.321   4.664 -0.9193 -1.1403 -1.4982
  111SAPE  H17S11546   2.946  -0.252   4.612  0.1975  0.2842  0.0900
  111SAPE  C21811547   3.062  -0.099   4.715 -0.5333 -0.4961 -0.1054
  111SAPE  H18R11548   3.045  -0.006   4.657 -0.5105 -0.8899 -0.7464
  111SAPE  H18S11549   3.164  -0.096   4.760 -0.2984  2.8767 -0.6312
  111SAPE  C21911550   2.951  -0.107   4.818 -0.2747 -0.6250  0.1294
  111SAPE  H19R11551   2.964  -0.186   4.896 -0.0157  0.9245  1.7100
  111SAPE  H19S11552   2.855  -0.135   4.768 -0.0356 -0.7715 -0.2532
  111SAPE  C22011553   2.946   0.029   4.892 -0.4522  0.5352  0.6349
  111SAPE  H20R11554   2.868   0.030   4.971  0.9376  1.0686  2.0574
  111SAPE  H20S11555   2.950   0.120   4.828 -0.0880  0.1464  0.0985
  111SAPE  H20T11556   3.041   0.051   4.946  0.9899  0.9545 -1.8892
  111SAPE   C3311557   3.790  -0.153   3.257 -0.2200 -0.7030 -0.3337
  111SAPE   H3X11558   3.805  -0.235   3.183 -1.3554 -0.7664 -0.5089
  111SAPE   H3Y11559   3.681  -0.132   3.252  0.0662  0.5867 -2.4561
  111SAPE   C3411560   3.817  -0.217   3.386 -0.5799 -0.1905  1.0832
  111SAPE   H4X11561   3.925  -0.202   3.405 -0.2311  1.4463 -1.6617
  111SAPE   H4Y11562   3.789  -0.325   3.382  0.3575 -0.4237  0.2741
  111SAPE   C3511563   3.756  -0.154   3.515  0.0282  0.1752 -0.6404
  111SAPE   H5X11564   3.647  -0.165   3.495 -0.5602 -0.1190  2.3712
  111SAPE   H5Y11565   3.789  -0.049   3.524  0.5478  0.0221 -0.6954
  111SAPE   C3611566   3.796  -0.226   3.643 -0.3422 -0.4082  0.9666
  111SAPE   H6X11567   3.907  -0.223   3.649 -0.2759  1.7690 -0.0943
  111SAPE   H6Y11568   3.765  -0.332   3.637  0.2302 -0.5514  0.4992
  111SAPE   C3711569   3.737  -0.169   3.770 -0.1322  0.4409 -0.0408
  111SAPE   H7X11570   3.627  -0.160   3.756 -0.1773  1.2207  0.7077
  111SAPE   H7Y11571   3.782  -0.070   3.793 -0.1565  0.3329  0.4991
  111SAPE   C3811572   3.758  -0.258   3.886  0.4336 -0.1018  0.0447
  111SAPE   H8X11573   3.863  -0.291   3.903  0.5288 -0.3450 -0.9271
  111SAPE   H8Y11574   3.717  -0.359   3.861  0.0577 -0.3378  1.5350
  111SAPE   C3911575   3.686  -0.210   4.011 -0.8960 -0.4673  0.0446
  111SAPE   H9X11576   3.582  -0.178   3.993 -1.5337 -0.9965  2.4723
  111SAPE   H9Y11577   3.744  -0.123   4.049  0.3315 -0.6419 -1.2945
  111SAPE  C31011578   3.681  -0.318   4.121 -0.2337  0.0432 -0.2340
  111SAPE  H10X11579   3.782  -0.362   4.125 -0.3190 -0.1250  0.0804
  111SAPE  H10Y11580   3.605  -0.392   4.086  0.7900 -0.4114 -1.5716
  111SAPE  C31111581   3.642  -0.260   4.263 -0.0972  0.6849  0.6077
  111SAPE  H11X11582   3.539  -0.219   4.252  0.2018  1.1200 -0.7343
  111SAPE  H11Y11583   3.705  -0.175   4.298 -0.6136  1.3743 -0.0908
  111SAPE  C31211584   3.649  -0.371   4.365  0.5623  0.3796 -0.4478
  111SAPE  H12X11585   3.749  -0.373   4.412  1.2974 -0.1159 -1.9747
  111SAPE  H12Y11586   3.644  -0.470   4.315 -0.4125  0.3692 -0.3523
  111SAPE  C31311587   3.541  -0.354   4.477  0.3240  0.0171  0.2880
  111SAPE  H13X11588   3.440  -0.381   4.438  0.4866  1.9072 -1.6043
  111SAPE  H13Y11589   3.544  -0.251   4.518 -0.5727 -0.6638  2.1777
  111SAPE  C31411590   3.581  -0.439   4.599  1.2038  0.0873 -0.7946
  111SAPE  H14X11591   3.603  -0.544   4.570  4.5897  0.1703  1.0009
  111SAPE  H14Y11592   3.493  -0.438   4.666  1.4090  0.1299 -0.5273
  111SAPE  C31511593   3.702  -0.411   4.687  0.3514  0.1948  1.1587
  111SAPE  H15X11594   3.792  -0.402   4.623 -0.1860  1.5384  0.5407
  111SAPE  H15Y11595   3.713  -0.502   4.750 -0.8050 -1.3142 -0.7143
  111SAPE  C31611596   3.679  -0.295   4.775  0.1235 -0.0506 -0.0252
  111SAPE  H16X11597   3.587  -0.311   4.836 -0.5948  0.4348 -0.9589
  111SAPE  H16Y11598   3.648  -0.204   4.719 -0.8976 -0.4815 -0.1816
  111SAPE  C31711599   3.803  -0.266   4.853 -0.3841  1.1146 -0.4540
  111SAPE  H17X11600   3.778  -0.200   4.939 -0.7035 -1.3371  1.4549
  111SAPE  H17Y11601   3.881  -0.204   4.803  0.8737  1.7757  2.1659
  111SAPE  C31811602   3.865  -0.391   4.925 -0.3077  0.9398  0.4716
  111SAPE  H18X11603   3.944  -0.356   4.996 -0.2141  1.5580  0.0683
  111SAPE  H18Y11604   3.913  -0.462   4.854 -0.1768  0.3051  1.1768
  111SAPE  H18Z11605   3.788  -0.449   4.980 -0.0072  0.6382  0.5831
  112SAPE     N11606   0.720   3.398   3.116  0.3588 -0.1753  0.0611
  112SAPE   HN111607   0.693   3.368   3.212 -2.3241 -0.8028 -0.8101
  112SAPE   HN211608   0.648   3.360   3.050  1.5574 -0.6490 -1.0050
  112SAPE   HN311609   0.810   3.360   3.082  0.8488  0.7643  0.2587
  112SAPE   C1211610   0.726   3.546   3.102  0.7255 -0.7362 -0.2471
  112SAPE  H12A11611   0.797   3.580   3.179  1.6602 -0.0654 -1.3685
  112SAPE  H12B11612   0.626   3.582   3.134  0.2251 -2.4445  0.2190
  112SAPE   C1111613   0.769   3.580   2.958  0.5569 -0.3319 -0.6704
  112SAPE  H11A11614   0.788   3.689   2.966 -3.3524  0.4659 -0.2345
  112SAPE  H11B11615   0.678   3.582   2.894 -0.3792  1.6436  0.6092
  112SAPE     P11616   0.991   3.548   2.825  0.1964  0.0810 -0.3727
  112SAPE   O1311617   1.020   3.455   2.715  0.3771 -0.0299 -0.1435
  112SAPE   O1411618   0.968   3.688   2.789  0.1086 -0.3456  0.4825
  112SAPE   O1211619   0.871   3.494   2.906 -0.7109 -0.1858 -0.2656
  112SAPE   O1111620   1.101   3.535   2.938  0.4804 -0.1481 -0.1808
  112SAPE    C111621   1.160   3.655   2.996  0.3135 -0.6955 -1.1592
  112SAPE    HA11622   1.252   3.628   3.053  0.4668  2.3346  0.2133
  112SAPE    HB11623   1.207   3.718   2.918  1.6755  0.0539  0.2187
  112SAPE    C211624   1.079   3.728   3.106  0.1758 -0.3998 -0.3314
  112SAPE    HS11625   1.019   3.647   3.152 -0.1942 -0.2141 -0.4815
  112SAPE   O2111626   1.011   3.841   3.052  0.2386  0.5794  0.2052
  112SAPE   C2111627   0.893   3.876   3.112  0.3572  0.0877 -0.0462
  112SAPE   O2211628   0.854   3.822   3.212  0.1998  0.2417  0.5241
  112SAPE   C2211629   0.823   3.984   3.037  0.1066 -0.3477 -0.3541
  112SAPE   H2R11630   0.899   4.059   3.007 -1.3490  1.0667 -0.6652
  112SAPE   H2S11631   0.787   3.940   2.942  0.1826 -0.8603 -0.1482
  112SAPE    C311632   1.175   3.781   3.222  0.4350 -0.0902 -0.0567
  112SAPE    HX11633   1.253   3.831   3.161 -0.3612  1.7122  0.3333
  112SAPE    HY11634   1.225   3.699   3.278  2.4095  0.6595 -0.6329
  112SAPE   O3111635   1.114   3.871   3.313 -0.1236  0.3129  0.0666
  112SAPE   C3111636   1.054   3.813   3.421 -0.0057  0.4136  0.0401
  112SAPE   O3211637   1.070   3.697   3.453 -0.1346  0.2653 -0.4497
  112SAPE   C3211638   0.961   3.920   3.486  0.4227  0.1489 -0.3276
  112SAPE   H2X11639   0.867   3.934   3.429 -1.3076 -4.2297  1.0836
  112SAPE   H2Y11640   1.027   4.010   3.480  1.5218 -0.6657 -0.7391
  112SAPE   C2311641   0.705   4.049   3.118 -0.2712  1.0502 -0.0507
  112SAPE   H3R11642   0.748   4.098   3.208 -0.7044 -0.0639  0.7765
  112SAPE   H3S11643   0.639   3.968   3.154  1.2525 -0.0843  0.3268
  112SAPE   C2411644   0.622   4.139   3.023  0.9000 -0.5413 -0.3185
  112SAPE   H4R11645   0.523   4.161   3.068  0.1716  0.6587 -2.3517
  112SAPE   H4S11646   0.610   4.077   2.932  0.2662 -0.6965 -0.1277
  112SAPE   C2511647   0.685   4.268   2.978 -0.3509 -0.1037  0.3869
  112SAPE   H5R11648   0.771   4.252   2.911  0.2080  0.5036  0.9392
  112SAPE   C2611649   0.628   4.391   2.996 -0.0547  0.2381  0.2249
  112SAPE   H6R11650   0.686   4.480   2.968  1.0156 -0.0834  1.3352
  112SAPE   C2711651   0.512   4.409   3.085  0.1797 -0.2684  0.6220
  112SAPE   H7R11652   0.514   4.341   3.173  0.8085  0.1278  0.9257
  112SAPE   H7S11653   0.430   4.354   3.034 -1.2936 -0.1330  2.7083
  112SAPE   C2811654   0.476   4.555   3.113  0.3382  0.3520  0.1822
  112SAPE   H8R11655   0.489   4.625   3.030  3.4813  2.9329  2.5985
  112SAPE   C2911656   0.421   4.602   3.225  0.2456 -0.9547  0.2447
  112SAPE   H9R11657   0.390   4.707   3.237  1.1690 -0.3796 -1.8925
  112SAPE  C21011658   0.397   4.514   3.344 -0.0248 -0.8975  0.1578
  112SAPE  H10R11659   0.446   4.569   3.428  1.0393 -0.5238 -0.6812
  112SAPE  H10S11660   0.452   4.418   3.343  0.5887 -0.6527  2.7287
  112SAPE  C21111661   0.261   4.486   3.374 -0.3309  0.3925 -0.8291
  112SAPE  H11R11662   0.200   4.473   3.283 -2.9552  0.3446  0.8305
  112SAPE  C21211663   0.207   4.456   3.491 -0.0212 -0.5970 -0.6662
  112SAPE  H12R11664   0.099   4.436   3.488 -0.2246  0.4425 -0.6323
  112SAPE  C21311665   0.289   4.446   3.620 -0.1266  0.1972  0.5402
  112SAPE  H13R11666   0.317   4.548   3.655  2.9814 -0.5708  0.5896
  112SAPE  H13S11667   0.388   4.405   3.589  0.3750  1.1792  0.8042
  112SAPE  C21411668   0.218   4.371   3.737  0.2794  0.0493  1.1756
  112SAPE  H14R11669   0.185   4.269   3.714 -2.8581  0.7315  2.0813
  112SAPE  C21511670   0.199   4.407   3.862 -0.1002  0.0861  0.2596
  112SAPE  H15R11671   0.135   4.344   3.925 -1.0146  0.2848 -0.4408
  112SAPE  C21611672   0.241   4.538   3.927 -0.6380  0.3336 -0.3301
  112SAPE  H16R11673   0.147   4.595   3.940 -0.3953  0.8566 -0.8435
  112SAPE  H16S11674   0.312   4.597   3.864  0.2696 -0.2442  0.1216
  112SAPE  C21711675   0.312   4.520   4.059  0.1828  0.4547 -0.0021
  112SAPE  H17R11676   0.387   4.602   4.066  2.8195 -1.7339 -0.9757
  112SAPE  H17S11677   0.370   4.426   4.069 -0.6632 -0.1335 -0.5319
  112SAPE  C21811678   0.218   4.522   4.182  0.1757 -0.0599 -0.6713
  112SAPE  H18R11679   0.156   4.432   4.160 -1.0979 -0.3924  3.4028
  112SAPE  H18S11680   0.160   4.615   4.196  1.7265  0.6820  1.4359
  112SAPE  C21911681   0.294   4.497   4.309 -0.2653 -0.0850  0.1105
  112SAPE  H19R11682   0.356   4.588   4.320 -1.1100  0.2064  4.5965
  112SAPE  H19S11683   0.365   4.414   4.291 -0.7188  0.2562 -4.4526
  112SAPE  C22011684   0.208   4.475   4.436 -0.1700 -1.4528  0.2336
  112SAPE  H20R11685   0.116   4.537   4.444  2.2216  2.5109 -0.3675
  112SAPE  H20S11686   0.264   4.502   4.528  0.2924 -0.7661 -0.2396
  112SAPE  H20T11687   0.178   4.368   4.434  0.4263 -1.6361 -2.2224
  112SAPE   C3311688   0.916   3.884   3.626  0.0253 -0.1121  0.3537
  112SAPE   H3X11689   0.874   3.782   3.636  1.2968 -0.5248  2.0344
  112SAPE   H3Y11690   0.832   3.953   3.652  0.8744  1.3463 -0.6097
  112SAPE   C3411691   1.029   3.909   3.735  0.2094 -0.1886 -0.1509
  112SAPE   H4X11692   1.051   4.017   3.724  0.5729  0.0327  2.1767
  112SAPE   H4Y11693   1.117   3.845   3.714  0.0785 -0.0237 -1.2735
  112SAPE   C3511694   0.964   3.882   3.873  0.0832  0.5080  0.7922
  112SAPE   H5X11695   0.912   3.784   3.876 -0.4051  0.7456  0.1035
  112SAPE   H5Y11696   0.878   3.952   3.882 -0.5626 -0.5301  4.8182
  112SAPE   C3611697   1.062   3.906   3.993 -0.2412  0.3188  0.2666
  112SAPE   H6X11698   1.006   3.933   4.085 -1.8205  0.7350 -0.7744
  112SAPE   H6Y11699   1.107   4.006   3.976  1.4434 -0.3865  0.3788
  112SAPE   C3711700   1.167   3.794   4.002 -0.2929 -0.4132 -0.1089
  112SAPE   H7X11701   1.237   3.784   3.917 -0.4093  3.3848 -0.8238
  112SAPE   H7Y11702   1.112   3.701   4.025 -1.0577  0.1636  0.4611
  112SAPE   C3811703   1.254   3.806   4.123  0.0424 -0.0735  0.2051
  112SAPE   H8X11704   1.344   3.742   4.111  0.7724  1.0851 -0.7003
  112SAPE   H8Y11705   1.199   3.756   4.206 -1.8805 -1.0948 -1.5845
  112SAPE   C3911706   1.315   3.938   4.157 -0.1756  0.6667 -0.2657
  112SAPE   H9X11707   1.236   4.004   4.197 -0.1645  0.1661  0.6098
  112SAPE   H9Y11708   1.375   3.985   4.076 -1.9689  0.8484 -1.5415
  112SAPE  C31011709   1.426   3.915   4.259  0.4379 -0.0133 -0.4194
  112SAPE  H10X11710   1.504   3.862   4.201 -0.0457 -0.1027 -0.9912
  112SAPE  H10Y11711   1.392   3.853   4.344 -2.6361 -1.3679 -2.4709
  112SAPE  C31111712   1.473   4.050   4.295  0.4358 -0.4344  0.2342
  112SAPE  H11X11713   1.397   4.109   4.350  0.8422  0.4693 -0.1541
  112SAPE  H11Y11714   1.509   4.101   4.203 -0.7707 -2.4191 -1.4127
  112SAPE  C31211715   1.594   4.048   4.392 -0.3125  0.5076 -0.2442
  112SAPE  H12X11716   1.673   3.976   4.363  1.4120  2.8713 -1.7723
  112SAPE  H12Y11717   1.553   4.005   4.486 -1.3522 -0.7372 -1.2311
  112SAPE  C31311718   1.659   4.187   4.406 -0.2276 -0.3423  0.1053
  112SAPE  H13X11719   1.576   4.255   4.433  0.8691  1.7323 -1.5069
  112SAPE  H13Y11720   1.705   4.221   4.311  0.0599 -0.0018  0.3596
  112SAPE  C31411721   1.772   4.212   4.513  1.2714  0.3835 -0.5456
  112SAPE  H14X11722   1.763   4.131   4.589  1.5462  0.2602 -0.6463
  112SAPE  H14Y11723   1.748   4.307   4.567  0.9686 -0.8581  1.6261
  112SAPE  C31511724   1.910   4.213   4.453  1.0444 -0.7653  0.2748
  112SAPE  H15X11725   1.988   4.275   4.502  0.5845  1.4786 -1.6841
  112SAPE  H15Y11726   1.894   4.243   4.348 -3.1093  0.0723  0.9808
  112SAPE  C31611727   1.962   4.068   4.454  0.0521 -0.1885 -0.2924
  112SAPE  H16X11728   1.907   4.025   4.368 -0.5623  0.0469 -0.0200
  112SAPE  H16Y11729   1.931   4.008   4.542 -1.0926  1.5506  0.5564
  112SAPE  C31711730   2.117   4.072   4.440  0.2246  0.3176  0.1160
  112SAPE  H17X11731   2.157   4.124   4.530 -1.7374  1.9333  0.1135
  112SAPE  H17Y11732   2.149   4.134   4.354 -0.3224  0.2966 -0.1024
  112SAPE  C31811733   2.174   3.931   4.425 -0.0019  0.2250  0.5433
  112SAPE  H18X11734   2.163   3.863   4.513 -2.6521  0.9974  0.8888
  112SAPE  H18Y11735   2.278   3.938   4.385 -0.2395  2.2808  0.1842
  112SAPE  H18Z11736   2.112   3.876   4.351 -1.6428  0.7183  1.5066
  113SAPE     N11737   1.444   3.369   2.748  0.8483  0.6209  0.0426
  113SAPE   HN111738   1.514   3.338   2.677  1.3133  0.4192  0.5850
  113SAPE   HN211739   1.498   3.407   2.828  1.5026  0.5069 -0.3393
  113SAPE   HN311740   1.392   3.290   2.791  2.0444  0.6323  1.5568
  113SAPE   C1211741   1.349   3.460   2.670  0.0366 -0.3428 -0.5204
  113SAPE  H12A11742   1.288   3.512   2.746 -1.2427 -3.2191  0.5580
  113SAPE  H12B11743   1.272   3.398   2.619 -2.9410  1.7009  1.1404
  113SAPE   C1111744   1.421   3.559   2.577  0.4941  0.0389 -0.0275
  113SAPE  H11A11745   1.343   3.631   2.546  1.2299  0.2250 -1.5211
  113SAPE  H11B11746   1.458   3.506   2.486 -1.5720  1.2078 -1.6311
  113SAPE     P11747   1.628   3.705   2.561 -0.0323 -0.2839  0.0322
  113SAPE   O1311748   1.693   3.611   2.463 -0.5815 -0.3998  0.0281
  113SAPE   O1411749   1.570   3.823   2.500  0.2026 -0.3273 -0.4536
  113SAPE   O1211750   1.516   3.631   2.649 -0.0379 -0.1497  0.4528
  113SAPE   O1111751   1.735   3.758   2.667 -0.4960 -0.3280 -0.1757
  113SAPE    C111752   1.699   3.838   2.787 -0.0496 -0.1978 -0.5252
  113SAPE    HA11753   1.796   3.882   2.819 -0.4359 -0.4717  1.1218
  113SAPE    HB11754   1.609   3.902   2.771 -1.3352 -1.7447  0.1644
  113SAPE    C211755   1.672   3.751   2.915 -0.0565  0.3279 -0.7084
  113SAPE    HS11756   1.578   3.691   2.909 -0.0054  0.0275  1.1767
  113SAPE   O2111757   1.668   3.838   3.030 -0.0504  0.0283  0.0521
  113SAPE   C2111758   1.572   3.811   3.121 -0.5072  0.9820  0.0993
  113SAPE   O2211759   1.488   3.723   3.117  0.7713  0.4816 -0.2472
  113SAPE   C2211760   1.591   3.910   3.234  0.4600  0.5370 -0.2687
  113SAPE   H2R11761   1.698   3.937   3.253  0.3424  3.7458 -3.1645
  113SAPE   H2S11762   1.544   4.006   3.204 -0.5189  0.6613  1.5058
  113SAPE    C311763   1.788   3.643   2.937  1.3753 -0.4258  0.3158
  113SAPE    HX11764   1.886   3.695   2.941  1.8043 -1.1985  0.2179
  113SAPE    HY11765   1.779   3.580   2.846 -0.4913  0.0868  0.1093
  113SAPE   O3111766   1.769   3.569   3.057 -0.4893 -0.2576 -0.2060
  113SAPE   C3111767   1.673   3.470   3.053 -0.5716  0.6593 -0.3326
  113SAPE   O3211768   1.613   3.434   2.954 -0.1947  0.3972  0.0598
  113SAPE   C3211769   1.636   3.424   3.194 -0.4809 -0.1037  0.2526
  113SAPE   H2X11770   1.670   3.495   3.273  2.2807 -1.7890  0.6970
  113SAPE   H2Y11771   1.702   3.335   3.203  0.1519  0.5271  2.5382
  113SAPE   C2311772   1.534   3.847   3.369 -0.5244  0.2877  0.1395
  113SAPE   H3R11773   1.600   3.762   3.395  0.3488  0.1951 -2.1277
  113SAPE   H3S11774   1.433   3.806   3.347 -0.0505 -1.4590  0.9735
  113SAPE   C2411775   1.513   3.953   3.478  1.0432 -0.0573 -0.2968
  113SAPE   H4R11776   1.476   4.039   3.419  2.2404  0.2231 -0.6569
  113SAPE   H4S11777   1.610   3.983   3.523  0.5535  1.1331  0.0116
  113SAPE   C2511778   1.413   3.919   3.590 -0.2957 -0.1022  0.0993
  113SAPE   H5R11779   1.309   3.937   3.559 -0.3922 -0.3324  0.2889
  113SAPE   C2611780   1.441   3.879   3.714  0.0379 -0.1115 -0.4201
  113SAPE   H6R11781   1.361   3.855   3.784  0.7586 -1.5443 -0.0456
  113SAPE   C2711782   1.575   3.848   3.763  0.0612  0.5910  0.3396
  113SAPE   H7R11783   1.595   3.891   3.864 -1.8657  0.6026  0.7506
  113SAPE   H7S11784   1.654   3.897   3.702  0.1051  1.4181  1.0384
  113SAPE   C2811785   1.603   3.698   3.764 -0.4966  0.2861  0.0469
  113SAPE   H8R11786   1.602   3.649   3.665 -2.0550  1.6386 -0.6577
  113SAPE   C2911787   1.620   3.619   3.875 -0.3055  0.0964 -0.4644
  113SAPE   H9R11788   1.629   3.511   3.855 -0.5954  0.1723 -1.0199
  113SAPE  C21011789   1.629   3.657   4.025 -0.1246  0.9316  0.0957
  113SAPE  H10R11790   1.573   3.588   4.092  0.2282  2.2893  1.8623
  113SAPE  H10S11791   1.583   3.755   4.050 -0.2980  0.7546  0.4902
  113SAPE  C21111792   1.775   3.677   4.063 -0.0305 -0.8326 -0.1100
  113SAPE  H11R11793   1.843   3.712   3.984  1.3578 -0.0106  1.3943
  113SAPE  C21211794   1.821   3.657   4.188  0.0315  0.0754 -0.1995
  113SAPE  H12R11795   1.930   3.661   4.200 -0.2513  0.6238  2.7476
  113SAPE  C21311796   1.734   3.634   4.313 -0.4769 -0.2732  0.8659
  113SAPE  H13R11797   1.724   3.523   4.318  0.4576 -0.6609 -2.6265
  113SAPE  H13S11798   1.635   3.682   4.307 -0.2736  0.0330 -0.7091
  113SAPE  C21411799   1.807   3.701   4.431 -0.5799  0.3689 -0.0714
  113SAPE  H14R11800   1.767   3.799   4.462 -0.6232  1.0945 -2.2539
  113SAPE  C21511801   1.904   3.639   4.499  0.3182  0.1188 -0.6771
  113SAPE  H15R11802   1.940   3.679   4.595  1.2844 -0.4398 -0.7864
  113SAPE  C21611803   1.958   3.499   4.476  0.5341 -0.5118 -0.7558
  113SAPE  H16R11804   1.976   3.470   4.371 -1.8890 -0.6060 -1.2113
  113SAPE  H16S11805   1.911   3.418   4.536 -1.5465  0.9177 -0.3526
  113SAPE  C21711806   2.096   3.479   4.541 -0.6226 -0.5397  0.2053
  113SAPE  H17R11807   2.131   3.375   4.525  2.1090  0.4410 -0.8976
  113SAPE  H17S11808   2.092   3.494   4.651 -0.2963 -0.9386  0.2744
  113SAPE  C21811809   2.209   3.559   4.460  0.0269 -0.7574  0.0046
  113SAPE  H18R11810   2.184   3.666   4.476  1.2972 -0.5375  0.6242
  113SAPE  H18S11811   2.203   3.529   4.353  1.6989 -1.5298  0.1103
  113SAPE  C21911812   2.349   3.534   4.512 -0.0125  0.8871  0.2067
  113SAPE  H19R11813   2.378   3.427   4.517  0.4196  1.0609  2.4314
  113SAPE  H19S11814   2.357   3.546   4.622  3.1635 -0.4756  0.2145
  113SAPE  C22011815   2.457   3.615   4.445 -0.0977 -0.0207  0.7043
  113SAPE  H20R11816   2.463   3.593   4.336 -0.6371 -1.0859  0.8774
  113SAPE  H20S11817   2.554   3.576   4.482  0.5678  0.4450 -0.4608
  113SAPE  H20T11818   2.452   3.724   4.467 -0.7397  0.1227 -0.0994
  113SAPE   C3311819   1.486   3.384   3.212 -0.3232  0.1647 -0.0566
  113SAPE   H3X11820   1.477   3.276   3.189 -0.0632 -0.5434  2.7802
  113SAPE   H3Y11821   1.419   3.435   3.140 -0.7555  1.2826  1.1114
  113SAPE   C3411822   1.444   3.400   3.361 -0.6027 -0.6251  0.0764
  113SAPE   H4X11823   1.430   3.509   3.382 -1.2383 -0.2131 -2.2676
  113SAPE   H4Y11824   1.532   3.368   3.421 -2.4214 -0.3431  3.0941
  113SAPE   C3511825   1.316   3.324   3.388 -0.0519 -0.4046  0.1912
  113SAPE   H5X11826   1.314   3.228   3.333  1.3734 -1.0348  1.1702
  113SAPE   H5Y11827   1.231   3.388   3.356 -0.3422 -0.1277  1.4365
  113SAPE   C3611828   1.303   3.296   3.537 -0.5482  0.5487 -0.7963
  113SAPE   H6X11829   1.400   3.252   3.567 -1.3160  0.5983  1.9644
  113SAPE   H6Y11830   1.219   3.223   3.540 -0.5151  0.4331 -1.9145
  113SAPE   C3711831   1.273   3.424   3.629 -0.7524 -0.6809 -0.6080
  113SAPE   H7X11832   1.178   3.474   3.603 -1.7665 -2.8100 -1.2200
  113SAPE   H7Y11833   1.343   3.509   3.615 -1.2259 -0.4684 -1.7354
  113SAPE   C3811834   1.270   3.383   3.783  0.8886 -0.5198  0.0043
  113SAPE   H8X11835   1.254   3.469   3.852  0.3605 -1.2979  0.8809
  113SAPE   H8Y11836   1.175   3.326   3.787  0.0222  0.6410 -2.2603
  113SAPE   C3911837   1.389   3.304   3.836  0.3723 -0.8220 -0.0088
  113SAPE   H9X11838   1.484   3.360   3.821 -0.1372 -0.5205 -2.5340
  113SAPE   H9Y11839   1.396   3.206   3.783  0.8002 -0.3140 -0.9177
  113SAPE  C31011840   1.383   3.270   3.990  0.0778  0.0609 -0.3078
  113SAPE  H10X11841   1.477   3.217   4.018  0.7465  1.0890 -0.5285
  113SAPE  H10Y11842   1.303   3.195   4.006  0.3299 -0.2758 -0.5944
  113SAPE  C31111843   1.350   3.391   4.085 -0.2814  0.1548  0.0934
  113SAPE  H11X11844   1.247   3.424   4.061 -0.7641 -0.8510  0.6954
  113SAPE  H11Y11845   1.430   3.463   4.058  0.4661 -0.0716  1.5890
  113SAPE  C31211846   1.381   3.357   4.235 -0.1943 -0.2690  0.1935
  113SAPE  H12X11847   1.481   3.310   4.229 -0.1227 -0.1558  0.4790
  113SAPE  H12Y11848   1.306   3.286   4.277 -2.9634  2.3346 -0.0462
  113SAPE  C31311849   1.386   3.470   4.341 -0.6321 -0.2734 -0.1625
  113SAPE  H13X11850   1.282   3.493   4.371 -0.4034 -0.6662  0.9669
  113SAPE  H13Y11851   1.440   3.558   4.300  0.4484 -0.7541  0.1718
  113SAPE  C31411852   1.447   3.427   4.468 -0.1719 -0.1785 -0.2259
  113SAPE  H14X11853   1.556   3.419   4.449 -0.1721  0.1027 -0.3513
  113SAPE  H14Y11854   1.410   3.330   4.508  0.9373 -1.1587 -1.4996
  113SAPE  C31511855   1.436   3.541   4.576  0.1853  0.1069  0.1114
  113SAPE  H15X11856   1.330   3.543   4.608 -0.3209 -0.2840 -1.4402
  113SAPE  H15Y11857   1.454   3.636   4.521 -0.1323  0.6723  0.9637
  113SAPE  C31611858   1.520   3.521   4.700 -0.1356  0.3531  0.0704
  113SAPE  H16X11859   1.617   3.475   4.673 -0.7254 -0.5649 -0.5291
  113SAPE  H16Y11860   1.467   3.459   4.776  1.5326 -1.1806  0.0389
  113SAPE  C31711861   1.553   3.653   4.777  0.6708  0.0539  0.3228
  113SAPE  H17X11862   1.629   3.713   4.723  1.2268 -0.4511  0.5382
  113SAPE  H17Y11863   1.601   3.631   4.875 -1.6518  1.9838  2.0117
  113SAPE  C31811864   1.423   3.741   4.811 -1.0021 -0.3326  0.1869
  113SAPE  H18X11865   1.455   3.831   4.868  2.6452 -0.1060 -1.9170
  113SAPE  H18Y11866   1.366   3.665   4.869 -0.4735 -2.4044 -1.8488
  113SAPE  H18Z11867   1.375   3.772   4.715 -0.3193  0.6083  0.1400
  114SAPE     N11868   2.956   0.327   2.297 -0.0117  0.0375 -0.5054
  114SAPE   HN111869   3.003   0.380   2.221  0.6917 -1.3035 -1.0595
  114SAPE   HN211870   2.991   0.229   2.289  0.9650  0.4978 -2.5669
  114SAPE   HN311871   2.853   0.325   2.284  0.0643 -0.7248 -1.0927
  114SAPE   C1211872   2.983   0.392   2.427  0.5321  0.1490 -0.4758
  114SAPE  H12A11873   2.995   0.501   2.416  1.6704  0.4360  2.6155
  114SAPE  H12B11874   3.078   0.348   2.463 -0.5651 -1.1169  1.0497
  114SAPE   C1111875   2.870   0.343   2.515  0.8828 -0.2055 -0.6191
  114SAPE  H11A11876   2.884   0.377   2.620 -1.2352 -0.9943 -0.0318
  114SAPE  H11B11877   2.870   0.232   2.519 -0.0819 -0.2057 -0.5784
  114SAPE     P11878   2.668   0.510   2.513 -0.0603 -0.7314  0.0870
  114SAPE   O1311879   2.743   0.632   2.487 -0.4714  0.5664  0.0260
  114SAPE   O1411880   2.539   0.496   2.440 -0.3714  0.2834 -0.1955
  114SAPE   O1211881   2.746   0.378   2.466 -0.2180 -0.0381  0.3744
  114SAPE   O1111882   2.655   0.481   2.662 -0.1848 -0.0365 -0.1700
  114SAPE    C111883   2.636   0.357   2.728  0.4302 -0.3545  0.4253
  114SAPE    HA11884   2.596   0.282   2.656 -2.0477  0.8839  0.3875
  114SAPE    HB11885   2.734   0.317   2.762  1.1616  0.6438 -0.4183
  114SAPE    C211886   2.512   0.352   2.826  0.4009  0.0333 -0.7334
  114SAPE    HS11887   2.422   0.347   2.760 -0.6376 -2.9222  0.7000
  114SAPE   O2111888   2.510   0.466   2.921 -0.4497 -0.2331  0.4344
  114SAPE   C2111889   2.390   0.507   2.958 -0.3682  0.3994 -0.7679
  114SAPE   O2211890   2.285   0.460   2.922  0.2539  0.0198  0.6785
  114SAPE   C2211891   2.409   0.621   3.063  0.7387  0.3390  0.0093
  114SAPE   H2R11892   2.515   0.649   3.076  0.7987  0.1004  0.0482
  114SAPE   H2S11893   2.347   0.700   3.016 -0.3514  0.1378  1.0516
  114SAPE    C311894   2.495   0.219   2.899  0.5619 -0.2242  0.3752
  114SAPE    HX11895   2.489   0.139   2.823  0.6481 -0.3258  0.4741
  114SAPE    HY11896   2.401   0.213   2.958  1.5899 -0.2329  2.0847
  114SAPE   O3111897   2.604   0.207   2.995  0.2418  0.0867 -0.7205
  114SAPE   C3111898   2.700   0.121   2.973  0.1693  0.1151  0.1851
  114SAPE   O3211899   2.696   0.031   2.889 -0.1409  0.3033  0.3848
  114SAPE   C3211900   2.815   0.152   3.069  0.1071 -0.7247 -0.4588
  114SAPE   H2X11901   2.778   0.149   3.173 -1.6095  1.7095 -0.9105
  114SAPE   H2Y11902   2.857   0.253   3.050 -0.7685 -0.9273 -4.4468
  114SAPE   C2311903   2.345   0.591   3.202 -0.0698  1.0529  0.1712
  114SAPE   H3R11904   2.254   0.531   3.178  0.1550  0.9207 -0.3620
  114SAPE   H3S11905   2.320   0.691   3.244 -2.4800  1.3436 -1.7104
  114SAPE   C2411906   2.429   0.517   3.298  0.2379 -0.0585 -0.0620
  114SAPE   H4R11907   2.461   0.415   3.268  1.5485 -0.0592  1.2024
  114SAPE   H4S11908   2.355   0.490   3.376  0.2056 -1.6054 -0.5818
  114SAPE   C2511909   2.537   0.586   3.372 -0.5481  0.0646 -0.6566
  114SAPE   H5R11910   2.508   0.660   3.448 -3.7883  0.3042 -1.9488
  114SAPE   C2611911   2.669   0.564   3.349 -0.1845 -0.3032  0.2542
  114SAPE   H6R11912   2.740   0.608   3.420 -0.3239  0.4679 -0.0846
  114SAPE   C2711913   2.730   0.469   3.247 -0.5426 -0.1612 -0.3368
  114SAPE   H7R11914   2.666   0.474   3.155 -1.8003 -0.2246  0.5078
  114SAPE   H7S11915   2.724   0.365   3.287  0.5958  0.6154  1.9771
  114SAPE   C2811916   2.868   0.512   3.213  0.1117  0.2063 -0.5938
  114SAPE   H8R11917   2.870   0.607   3.157  0.5019  1.8880  2.1242
  114SAPE   C2911918   2.977   0.460   3.265  0.2213 -1.0780 -0.1070
  114SAPE   H9R11919   3.073   0.502   3.232 -1.0171  0.9384 -1.3276
  114SAPE  C21011920   2.974   0.363   3.382 -0.0669  0.1649 -0.9030
  114SAPE  H10R11921   2.905   0.280   3.358 -0.2774  0.3826 -1.0592
  114SAPE  H10S11922   2.912   0.414   3.459  1.1728  1.0162 -0.4299
  114SAPE  C21111923   3.104   0.319   3.439  0.1715 -0.5068 -0.0051
  114SAPE  H11R11924   3.137   0.226   3.391 -0.9895 -1.4458  0.9500
  114SAPE  C21211925   3.171   0.364   3.545 -0.2517 -0.8386 -0.4318
  114SAPE  H12R11926   3.263   0.306   3.559 -1.0353 -1.8906  0.4484
  114SAPE  C21311927   3.135   0.466   3.646 -0.9231 -0.2373 -0.5671
  114SAPE  H13R11928   3.089   0.409   3.730  0.4655 -1.7971 -0.8219
  114SAPE  H13S11929   3.070   0.550   3.613  0.7809  0.6536 -1.7961
  114SAPE  C21411930   3.259   0.529   3.701  0.5836 -0.6450  0.2305
  114SAPE  H14R11931   3.342   0.534   3.628  0.3518  0.8547  0.0264
  114SAPE  C21511932   3.289   0.554   3.827 -0.1729 -0.7412 -0.3363
  114SAPE  H15R11933   3.390   0.592   3.849 -0.5705 -0.5054  1.1775
  114SAPE  C21611934   3.201   0.546   3.949  0.1297 -0.5277  0.1930
  114SAPE  H16R11935   3.124   0.466   3.940 -1.1670  0.1646  3.6433
  114SAPE  H16S11936   3.146   0.642   3.952  3.2970  1.4000  1.5527
  114SAPE  C21711937   3.285   0.510   4.071  0.4234  0.2105  0.3319
  114SAPE  H17R11938   3.352   0.588   4.112  0.4603  1.0881 -1.3284
  114SAPE  H17S11939   3.339   0.417   4.042 -1.6548 -0.4461 -1.7232
  114SAPE  C21811940   3.190   0.468   4.179  0.2704  0.8861 -0.0425
  114SAPE  H18R11941   3.263   0.437   4.256 -0.8623 -2.2399 -0.0994
  114SAPE  H18S11942   3.130   0.381   4.144 -0.1528  0.5137  1.5237
  114SAPE  C21911943   3.098   0.577   4.238 -0.8898 -0.2418  0.3322
  114SAPE  H19R11944   3.025   0.622   4.168  1.4246  1.0666 -1.3870
  114SAPE  H19S11945   3.153   0.670   4.264  1.6405 -1.6447  0.2755
  114SAPE  C22011946   3.024   0.530   4.362  0.2115  0.4379  0.2113
  114SAPE  H20R11947   3.075   0.474   4.444 -0.2611  1.3588  1.1499
  114SAPE  H20S11948   2.933   0.472   4.332 -0.6771  1.0930  1.5531
  114SAPE  H20T11949   2.974   0.623   4.395 -0.1337  0.4473 -0.3210
  114SAPE   C3311950   2.932   0.060   3.057 -0.5027 -0.5720  0.2726
  114SAPE   H3X11951   3.005   0.117   3.118 -0.1230  0.3770 -1.0215
  114SAPE   H3Y11952   2.983   0.062   2.958 -3.1740  3.0866 -1.2274
  114SAPE   C3411953   2.913  -0.071   3.122 -0.4052 -0.0747 -0.3435
  114SAPE   H4X11954   2.998  -0.136   3.091  0.6946  0.5041  1.3280
  114SAPE   H4Y11955   2.821  -0.122   3.087 -0.8698  0.4989  0.0130
  114SAPE   C3511956   2.918  -0.073   3.286 -0.4354  0.0721  0.4400
  114SAPE   H5X11957   2.825  -0.021   3.318 -0.4245  0.1407  0.3598
  114SAPE   H5Y11958   3.006  -0.013   3.318 -1.7604  1.9907  0.6364
  114SAPE   C3611959   2.943  -0.215   3.344 -0.1473 -0.0060 -0.0725
  114SAPE   H6X11960   3.043  -0.251   3.311  0.4379  0.4065  1.2066
  114SAPE   H6Y11961   2.866  -0.290   3.314 -1.1003  0.2991  1.5067
  114SAPE   C3711962   2.939  -0.217   3.498 -0.1543  0.3056  0.6110
  114SAPE   H7X11963   2.835  -0.211   3.536  0.0115  2.9004  0.8141
  114SAPE   H7Y11964   2.997  -0.126   3.525  1.8977  0.0597 -2.4637
  114SAPE   C3811965   2.993  -0.349   3.553 -0.7052  0.0360 -0.1570
  114SAPE   H8X11966   3.103  -0.336   3.541 -0.7405  1.3130  0.6903
  114SAPE   H8Y11967   2.954  -0.436   3.496 -0.5076 -1.4469  1.8601
  114SAPE   C3911968   2.963  -0.370   3.699  0.1950 -0.1848 -0.4435
  114SAPE   H9X11969   2.856  -0.397   3.709  1.3209 -4.7143  1.5422
  114SAPE   H9Y11970   2.972  -0.272   3.751  0.6890 -0.2281 -0.4435
  114SAPE  C31011971   3.052  -0.483   3.757  0.1637 -0.7191  0.1349
  114SAPE  H10X11972   3.152  -0.436   3.769 -0.2455 -0.1453  1.4284
  114SAPE  H10Y11973   3.065  -0.568   3.687  0.2774 -1.4108  0.9756
  114SAPE  C31111974   2.998  -0.542   3.886 -0.5466 -0.2581 -0.6204
  114SAPE  H11X11975   3.049  -0.641   3.890 -0.9341 -0.4425 -0.1368
  114SAPE  H11Y11976   2.889  -0.561   3.882 -0.5950 -0.1392  0.0357
  114SAPE  C31211977   3.040  -0.462   4.016  0.3940 -0.7291  0.7336
  114SAPE  H12X11978   3.010  -0.356   3.998 -1.6527 -1.1326  1.4619
  114SAPE  H12Y11979   3.150  -0.463   4.006  0.2522 -2.3093 -1.4297
  114SAPE  C31311980   3.010  -0.513   4.149  0.9042 -0.3390  0.0647
  114SAPE  H13X11981   3.053  -0.443   4.224 -0.9276 -1.2046  2.0364
  114SAPE  H13Y11982   3.048  -0.614   4.172  0.6288 -0.9862 -2.0612
  114SAPE  C31411983   2.854  -0.511   4.173  0.1967 -0.4426 -0.0413
  114SAPE  H14X11984   2.799  -0.586   4.112  1.6530 -2.1259  0.6243
  114SAPE  H14Y11985   2.816  -0.410   4.145  1.1709  0.3329  1.3591
  114SAPE  C31511986   2.830  -0.537   4.319  0.1623 -0.6103 -0.2751
  114SAPE  H15X11987   2.897  -0.470   4.376 -0.4753 -0.0415 -0.1761
  114SAPE  H15Y11988   2.872  -0.635   4.351  0.4893 -0.3375  0.1399
  114SAPE  C31611989   2.691  -0.501   4.381 -0.3795 -0.2912 -0.5929
  114SAPE  H16X11990   2.661  -0.396   4.360  0.6922  0.1012 -0.2151
  114SAPE  H16Y11991   2.700  -0.501   4.492 -3.0406  2.3530 -0.2429
  114SAPE  C31711992   2.578  -0.597   4.378  0.2912  0.4202  0.2490
  114SAPE  H17X11993   2.609  -0.697   4.415  0.1631 -0.2270 -1.3117
  114SAPE  H17Y11994   2.542  -0.610   4.273 -0.2349 -1.2165  0.5969
  114SAPE  C31811995   2.457  -0.560   4.468  0.6530 -0.5832 -0.1380
  114SAPE  H18X11996   2.493  -0.568   4.573  0.8524  0.3415 -0.1291
  114SAPE  H18Y11997   2.363  -0.616   4.449  0.8035 -0.7275 -0.4523
  114SAPE  H18Z11998   2.427  -0.454   4.449 -2.0614 -0.5454  3.2628
  115SAPE     N11999   2.046   5.518   2.722  0.2249 -0.1109  0.2710
  115SAPE   HN112000   2.062   5.415   2.730  0.0017 -0.3484 -1.6542
  115SAPE   HN212001   1.990   5.534   2.635  1.3609 -0.9726 -0.6573
  115SAPE   HN312002   2.138   5.564   2.713 -0.2801  0.6299 -1.5907
  115SAPE   C1212003   1.982   5.570   2.846  0.1515 -0.0674  0.3786
  115SAPE  H12A12004   1.997   5.680   2.856 -1.0343  0.3356 -1.6338
  115SAPE  H12B12005   2.034   5.523   2.932 -2.2789 -1.1057  1.3704
  115SAPE   C1112006   1.839   5.535   2.845  0.3335 -0.3513  0.4055
  115SAPE  H11A12007   1.773   5.584   2.919 -0.4320 -0.4534 -0.1874
  115SAPE  H11B12008   1.833   5.424   2.858  1.9439 -0.3153  1.7421
  115SAPE     P12009   1.730   5.714   2.686  0.1188 -0.3159 -0.0176
  115SAPE   O1312010   1.847   5.802   2.662 -0.1262 -0.3852 -0.3218
  115SAPE   O1412011   1.635   5.719   2.570  0.3807  0.0255  0.0068
  115SAPE   O1212012   1.779   5.565   2.720 -0.2891  0.0562  0.9339
  115SAPE   O1112013   1.655   5.752   2.821  0.4400 -0.3208 -0.3123
  115SAPE    C112014   1.600   5.878   2.841 -0.0016 -0.1429 -0.0827
  115SAPE    HA12015   1.634   5.957   2.770 -2.8357 -0.2031 -1.6532
  115SAPE    HB12016   1.493   5.870   2.814  0.1069 -2.2037 -0.0596
  115SAPE    C212017   1.606   5.915   2.989 -0.3579 -0.8846 -0.1110
  115SAPE    HS12018   1.710   5.889   3.019  0.6068  0.0735 -2.3854
  115SAPE   O2112019   1.506   5.843   3.062  0.0696  0.1923 -0.4882
  115SAPE   C2112020   1.539   5.804   3.188  0.6170 -0.5079  0.9455
  115SAPE   O2212021   1.654   5.815   3.238  0.4895  0.4609 -0.6576
  115SAPE   C2212022   1.429   5.727   3.249 -0.1741 -0.0053  0.4871
  115SAPE   H2R12023   1.356   5.805   3.281 -0.4241 -0.1820  0.3457
  115SAPE   H2S12024   1.382   5.659   3.175  1.3127 -1.2228  0.6091
  115SAPE    C312025   1.598   6.077   3.024  0.5146 -0.3314  0.2113
  115SAPE    HX12026   1.504   6.110   2.974  1.2961 -2.6054 -3.1286
  115SAPE    HY12027   1.679   6.125   2.965 -0.1651  1.5764  0.7818
  115SAPE   O3112028   1.619   6.094   3.167 -0.0733 -0.2479 -0.0132
  115SAPE   C3112029   1.621   6.227   3.194  0.5339  0.0959  0.3950
  115SAPE   O3212030   1.560   6.309   3.121  0.0023 -0.1839 -0.0008
  115SAPE   C3212031   1.696   6.247   3.324 -0.0870 -0.1188 -0.9722
  115SAPE   H2X12032   1.619   6.241   3.404  3.8769 -1.9755  3.2113
  115SAPE   H2Y12033   1.750   6.344   3.316  0.8102 -0.3075  1.6148
  115SAPE   C2312034   1.477   5.637   3.364  0.2345 -0.6872 -0.3679
  115SAPE   H3R12035   1.539   5.704   3.427 -1.4433  0.7672 -0.1788
  115SAPE   H3S12036   1.544   5.563   3.315  0.8749  0.2670 -0.9805
  115SAPE   C2412037   1.369   5.588   3.460 -0.1139 -0.1806 -0.0845
  115SAPE   H4R12038   1.292   5.668   3.467 -0.5861 -0.7273  1.2913
  115SAPE   H4S12039   1.411   5.571   3.562 -2.3789 -0.5047  0.8562
  115SAPE   C2512040   1.309   5.456   3.410  0.2774 -0.5708 -0.0236
  115SAPE   H5R12041   1.299   5.448   3.301  0.7389 -1.6396  0.0087
  115SAPE   C2612042   1.249   5.367   3.490  0.4682 -0.0783 -0.5160
  115SAPE   H6R12043   1.218   5.272   3.444 -0.2085 -0.9027  1.5164
  115SAPE   C2712044   1.244   5.378   3.641 -0.3804  0.7332 -0.2444
  115SAPE   H7R12045   1.172   5.306   3.686  1.2556 -2.0529 -1.8125
  115SAPE   H7S12046   1.216   5.481   3.674 -0.4678  0.0273  2.0870
  115SAPE   C2812047   1.372   5.366   3.719 -1.1454 -1.3447  0.3518
  115SAPE   H8R12048   1.461   5.329   3.665 -0.5538 -0.3357  0.6113
  115SAPE   C2912049   1.390   5.410   3.849  0.1786  0.1869  0.2422
  115SAPE   H9R12050   1.489   5.397   3.895  0.1762 -0.7143  0.0175
  115SAPE  C21012051   1.279   5.460   3.938 -0.2964 -0.4786 -0.6167
  115SAPE  H10R12052   1.217   5.538   3.889 -1.8676 -0.8326  0.6969
  115SAPE  H10S12053   1.320   5.514   4.026 -1.5170 -0.4178 -0.0546
  115SAPE  C21112054   1.199   5.349   4.004 -0.1195 -0.2091 -0.2959
  115SAPE  H11R12055   1.225   5.245   3.978 -0.2228 -0.2849 -0.0945
  115SAPE  C21212056   1.132   5.372   4.119  0.3981 -0.0056  0.2474
  115SAPE  H12R12057   1.095   5.288   4.179  1.9039 -1.2042 -0.4251
  115SAPE  C21312058   1.109   5.509   4.170  0.2054 -0.0990 -0.5570
  115SAPE  H13R12059   1.076   5.573   4.086  1.8531 -0.1130 -1.2562
  115SAPE  H13S12060   1.207   5.543   4.209 -0.0247  0.9416 -0.8735
  115SAPE  C21412061   0.997   5.513   4.269  0.9467  0.1349  0.0144
  115SAPE  H14R12062   0.905   5.459   4.244 -0.1292  1.1971  1.5009
  115SAPE  C21512063   0.987   5.611   4.353  0.5080 -0.1269  0.6488
  115SAPE  H15R12064   0.904   5.617   4.424  0.0109 -0.1693  0.0809
  115SAPE  C21612065   1.078   5.732   4.363  0.4647 -0.3858  0.0637
  115SAPE  H16R12066   1.010   5.817   4.387  1.2269  0.1224  0.4805
  115SAPE  H16S12067   1.132   5.755   4.269  0.1975  0.8880  0.1970
  115SAPE  C21712068   1.181   5.721   4.484 -0.5017  0.2514  0.7088
  115SAPE  H17R12069   1.267   5.790   4.475 -1.8634  2.1717  1.6630
  115SAPE  H17S12070   1.232   5.622   4.482  2.2850  1.5819  0.9177
  115SAPE  C21812071   1.136   5.751   4.626  0.0611  0.2247 -0.4802
  115SAPE  H18R12072   1.052   5.685   4.657  0.2011  0.1089 -0.3463
  115SAPE  H18S12073   1.094   5.853   4.639 -0.5834  0.1912 -2.0243
  115SAPE  C21912074   1.250   5.729   4.725 -0.0725 -0.0459 -0.2633
  115SAPE  H19R12075   1.324   5.807   4.697 -0.4581  0.7543  0.8629
  115SAPE  H19S12076   1.289   5.627   4.704 -1.8045 -0.8839  0.3762
  115SAPE  C22012077   1.205   5.748   4.872 -0.3924 -0.1004 -0.6201
  115SAPE  H20R12078   1.294   5.728   4.935 -1.1186 -0.0880  0.4339
  115SAPE  H20S12079   1.137   5.665   4.902  0.7505 -0.0682  2.3301
  115SAPE  H20T12080   1.146   5.839   4.894 -2.2633 -1.7303  1.6590
  115SAPE   C3312081   1.806   6.133   3.357 -0.2837  0.5115  0.1167
  115SAPE   H3X12082   1.873   6.129   3.267 -1.8228 -0.9130 -1.0286
  115SAPE   H3Y12083   1.755   6.036   3.372  0.2024  0.3961  1.0585
  115SAPE   C3412084   1.896   6.144   3.482 -0.5704 -0.2475  0.2849
  115SAPE   H4X12085   1.979   6.072   3.469 -0.5713  0.2143 -3.3412
  115SAPE   H4Y12086   1.836   6.141   3.576 -3.1720 -0.6021 -1.3125
  115SAPE   C3512087   1.969   6.282   3.483 -0.9676 -0.3964 -0.3800
  115SAPE   H5X12088   1.888   6.358   3.481 -0.0298  0.6223 -0.0757
  115SAPE   H5Y12089   2.028   6.296   3.390 -0.9246  0.4072 -0.2375
  115SAPE   C3612090   2.051   6.297   3.613 -0.2205 -0.3899  0.4318
  115SAPE   H6X12091   2.129   6.218   3.616 -1.4073 -1.6397 -0.1613
  115SAPE   H6Y12092   1.977   6.266   3.690 -2.0788 -0.6933 -1.3834
  115SAPE   C3712093   2.097   6.439   3.622 -0.1678 -0.6194 -0.3959
  115SAPE   H7X12094   2.004   6.499   3.631  1.1457  2.0119 -2.5528
  115SAPE   H7Y12095   2.160   6.477   3.538 -0.1627  0.7561  0.1926
  115SAPE   C3812096   2.174   6.478   3.754  0.4764  0.0836  0.0566
  115SAPE   H8X12097   2.188   6.588   3.752  0.5814  0.2178  3.0202
  115SAPE   H8Y12098   2.274   6.433   3.740  0.1652 -1.0080  1.2162
  115SAPE   C3912099   2.113   6.433   3.888 -0.5016  1.2089  0.1231
  115SAPE   H9X12100   2.061   6.335   3.880  0.9974  0.4596 -1.0310
  115SAPE   H9Y12101   2.025   6.497   3.910 -1.2993  0.5427 -0.9995
  115SAPE  C31012102   2.213   6.452   4.001 -0.0006 -0.4156 -0.1877
  115SAPE  H10X12103   2.311   6.418   3.961 -1.1833 -0.9112 -2.8891
  115SAPE  H10Y12104   2.177   6.390   4.086 -1.6911  0.1947 -0.4120
  115SAPE  C31112105   2.217   6.604   4.041  0.1730  0.9004  0.3368
  115SAPE  H11X12106   2.113   6.644   4.043 -1.0981 -2.1287  1.1009
  115SAPE  H11Y12107   2.272   6.660   3.963  1.1403 -0.6137 -0.1109
  115SAPE  C31212108   2.282   6.629   4.181  0.9610 -0.1701 -0.6531
  115SAPE  H12X12109   2.390   6.602   4.186  1.1584  0.4799 -1.2396
  115SAPE  H12Y12110   2.239   6.564   4.260  2.2904 -1.8066 -1.2165
  115SAPE  C31312111   2.273   6.778   4.217 -0.0772 -0.5986 -0.1948
  115SAPE  H13X12112   2.171   6.822   4.221  0.2417  0.2730 -1.3534
  115SAPE  H13Y12113   2.337   6.850   4.164  1.1574 -0.3269  1.5833
  115SAPE  C31412114   2.311   6.808   4.362  0.2540 -0.1800 -0.5195
  115SAPE  H14X12115   2.417   6.786   4.385  0.9712  2.9375 -0.4359
  115SAPE  H14Y12116   2.255   6.741   4.432 -3.0501  2.1778 -0.6391
  115SAPE  C31512117   2.269   6.952   4.396  0.0230  0.2346 -0.1017
  115SAPE  H15X12118   2.169   6.988   4.365 -0.1735 -1.0815 -1.0676
  115SAPE  H15Y12119   2.333   7.024   4.340  0.5983 -0.0882  0.1308
  115SAPE  C31612120   2.282   6.984   4.547 -0.0942  0.1846 -0.0060
  115SAPE  H16X12121   2.267   7.093   4.564  1.6101  0.8085 -2.0402
  115SAPE  H16Y12122   2.385   6.953   4.575 -0.0087  0.3094 -0.1805
  115SAPE  C31712123   2.175   6.903   4.627  0.0713  0.0951  0.0641
  115SAPE  H17X12124   2.175   6.796   4.597  1.4169  0.2268 -0.5085
  115SAPE  H17Y12125   2.075   6.945   4.607  0.2616 -0.4710 -2.4179
  115SAPE  C31812126   2.202   6.905   4.779  0.1928  0.8716 -0.2201
  115SAPE  H18X12127   2.300   6.857   4.798  0.6474  2.1519  0.7760
  115SAPE  H18Y12128   2.124   6.850   4.836  1.0404  0.9646  1.0630
  115SAPE  H18Z12129   2.216   7.012   4.805  0.0146  0.7941  0.1970
  116SAPE     N12130   1.381   6.830   2.677 -0.2282  0.3072  0.3079
  116SAPE   HN112131   1.361   6.879   2.587 -1.6729  0.8549  0.8926
  116SAPE   HN212132   1.357   6.731   2.654 -1.1347 -0.1610  2.9140
  116SAPE   HN312133   1.306   6.848   2.747 -0.2066  0.7306  0.2244
  116SAPE   C1212134   1.515   6.844   2.736 -0.3636  0.2990 -1.0024
  116SAPE  H12A12135   1.520   6.772   2.821  1.5823  0.7769 -0.6533
  116SAPE  H12B12136   1.534   6.946   2.776 -0.3155 -0.0681 -0.0604
  116SAPE   C1112137   1.622   6.809   2.628  0.5604  0.1262 -0.2026
  116SAPE  H11A12138   1.722   6.826   2.673 -0.0742  0.0975  1.2825
  116SAPE  H11B12139   1.607   6.877   2.542  1.7238  2.6842  1.5142
  116SAPE     P12140   1.686   6.553   2.626  0.5248 -0.3297 -0.1117
  116SAPE   O1312141   1.604   6.461   2.699  0.4926 -0.0292  0.0416
  116SAPE   O1412142   1.756   6.500   2.505 -0.4356 -0.9377  0.5557
  116SAPE   O1212143   1.603   6.676   2.581 -0.2941 -0.2466 -0.3126
  116SAPE   O1112144   1.792   6.617   2.726 -0.0316  0.2915 -0.0980
  116SAPE    C112145   1.864   6.525   2.812  0.5259  0.3494 -0.2714
  116SAPE    HA12146   1.842   6.416   2.805  3.2023 -0.1928 -1.4538
  116SAPE    HB12147   1.974   6.527   2.794  0.7927 -0.3667  1.1124
  116SAPE    C212148   1.834   6.566   2.963  0.7033 -0.6338  0.2470
  116SAPE    HS12149   1.725   6.549   2.967  0.6879 -1.2496 -1.8743
  116SAPE   O2112150   1.865   6.704   2.980 -0.1119  0.0565  0.2509
  116SAPE   C2112151   1.794   6.778   3.063 -0.0976  0.8688 -0.4000
  116SAPE   O2212152   1.682   6.743   3.101 -0.1147 -0.2160  0.4257
  116SAPE   C2212153   1.881   6.905   3.084 -0.7639  0.4569 -0.3743
  116SAPE   H2R12154   1.986   6.881   3.115 -2.4078 -2.9855  3.5534
  116SAPE   H2S12155   1.885   6.943   2.980  0.2569 -2.0538 -1.3452
  116SAPE    C312156   1.907   6.481   3.063  0.1552 -0.2445  0.6786
  116SAPE    HX12157   2.010   6.453   3.031  0.3887  0.0919  1.1315
  116SAPE    HY12158   1.855   6.383   3.069 -2.8977  1.1202 -1.2383
  116SAPE   O3112159   1.906   6.532   3.201  0.1641  0.4143  0.3106
  116SAPE   C3112160   2.009   6.596   3.237  0.1805 -0.4164 -0.1663
  116SAPE   O3212161   2.111   6.611   3.173 -0.2101 -0.0096 -0.0151
  116SAPE   C3212162   1.978   6.658   3.368  0.0164 -0.3549 -0.8365
  116SAPE   H2X12163   1.957   6.575   3.438 -2.2553 -0.8306 -1.9820
  116SAPE   H2Y12164   1.884   6.717   3.368  1.1902  1.6332  1.0755
  116SAPE   C2312165   1.817   7.004   3.173 -0.4579  0.3701 -0.2379
  116SAPE   H3R12166   1.795   6.952   3.269 -2.0493  1.2378 -0.1035
  116SAPE   H3S12167   1.714   7.029   3.140 -1.9311 -0.6223  3.0886
  116SAPE   C2412168   1.901   7.132   3.198 -0.2725  0.6974 -0.6665
  116SAPE   H4R12169   1.825   7.209   3.224 -1.4808 -0.6953  0.0680
  116SAPE   H4S12170   1.960   7.167   3.111  0.2901  1.5917  0.0639
  116SAPE   C2512171   1.990   7.125   3.315 -0.4687 -0.0290  0.2513
  116SAPE   H5R12172   2.080   7.066   3.293  0.0618  1.1287 -0.8566
  116SAPE   C2612173   1.972   7.171   3.446 -0.3183  0.4715  0.2038
  116SAPE   H6R12174   2.057   7.156   3.514 -0.8617 -1.5570  0.5026
  116SAPE   C2712175   1.848   7.244   3.502  0.2616 -0.5028  0.1535
  116SAPE   H7R12176   1.852   7.354   3.483  2.6113 -0.3856  1.0900
  116SAPE   H7S12177   1.846   7.241   3.613 -0.9279  0.4161  0.1840
  116SAPE   C2812178   1.709   7.190   3.457  0.1632 -0.3519  0.1149
  116SAPE   H8R12179   1.702   7.089   3.414 -1.5163 -0.5414  0.7841
  116SAPE   C2912180   1.596   7.249   3.491  0.1433 -0.0922 -0.2021
  116SAPE   H9R12181   1.502   7.207   3.453  1.1366 -3.1274  0.3539
  116SAPE  C21012182   1.577   7.377   3.561  0.0041 -0.0916  0.1867
  116SAPE  H10R12183   1.579   7.465   3.492  0.4174 -0.8196 -0.7473
  116SAPE  H10S12184   1.663   7.398   3.627 -0.6519 -1.8872  1.6831
  116SAPE  C21112185   1.456   7.387   3.653 -0.3698  0.2264 -0.3166
  116SAPE  H11R12186   1.368   7.432   3.604 -0.0342  1.6276  0.3556
  116SAPE  C21212187   1.442   7.322   3.772  0.1309  0.6285  0.4083
  116SAPE  H12R12188   1.347   7.333   3.825 -0.5706 -0.0778 -0.6781
  116SAPE  C21312189   1.547   7.246   3.850 -1.0433  0.4418  0.0843
  116SAPE  H13R12190   1.535   7.264   3.959 -1.9318  3.2098 -0.3911
  116SAPE  H13S12191   1.647   7.272   3.809 -0.9304  3.5660  2.0320
  116SAPE  C21412192   1.534   7.100   3.813 -0.7832 -0.5401  0.8464
  116SAPE  H14R12193   1.541   7.084   3.704  0.1870  0.3017  0.7744
  116SAPE  C21512194   1.528   6.995   3.891 -0.4723  0.3727  0.2264
  116SAPE  H15R12195   1.526   6.897   3.842  1.4902  0.3055  0.1796
  116SAPE  C21612196   1.540   6.994   4.041 -0.0436  0.0001  0.3670
  116SAPE  H16R12197   1.598   7.085   4.067  0.3705  0.5693 -2.2302
  116SAPE  H16S12198   1.599   6.902   4.058 -0.7479 -0.4986  0.1332
  116SAPE  C21712199   1.414   6.970   4.125 -0.1687 -0.3736 -0.3523
  116SAPE  H17R12200   1.332   7.043   4.111 -0.9239 -0.6946  2.0483
  116SAPE  H17S12201   1.441   6.960   4.232 -2.2666 -2.4631  0.0651
  116SAPE  C21812202   1.363   6.823   4.095  0.7311 -0.1253 -0.1497
  116SAPE  H18R12203   1.444   6.748   4.105 -0.0216 -1.0567 -0.8173
  116SAPE  H18S12204   1.335   6.819   3.987  1.2533  0.9265 -0.3374
  116SAPE  C21912205   1.256   6.760   4.189  0.0450  0.6163 -0.0055
  116SAPE  H19R12206   1.165   6.825   4.189  0.0176  0.6368  1.8938
  116SAPE  H19S12207   1.310   6.754   4.285  0.7037 -3.1932 -0.4627
  116SAPE  C22012208   1.208   6.608   4.168  0.4240  0.0488 -0.0174
  116SAPE  H20R12209   1.287   6.532   4.153 -0.4977 -0.4923 -2.5023
  116SAPE  H20S12210   1.137   6.583   4.086  1.4564  0.1050 -0.9503
  116SAPE  H20T12211   1.157   6.591   4.266 -4.8190 -0.3030 -2.4560
  116SAPE   C3312212   2.093   6.739   3.431  0.3090 -0.4748  0.1294
  116SAPE   H3X12213   2.126   6.814   3.356  1.2498 -2.6394 -1.7496
  116SAPE   H3Y12214   2.176   6.669   3.454  0.9209 -0.7031 -2.4482
  116SAPE   C3412215   2.048   6.808   3.556  0.1189  0.0475  0.3013
  116SAPE   H4X12216   2.010   6.724   3.618 -1.7026 -0.7468 -1.7405
  116SAPE   H4Y12217   1.969   6.879   3.522 -0.0955  0.7118  2.0665
  116SAPE   C3512218   2.168   6.869   3.634  1.4140 -0.6431  0.0507
  116SAPE   H5X12219   2.207   6.956   3.578  1.6068 -2.7308 -3.3017
  116SAPE   H5Y12220   2.254   6.800   3.625  0.6787 -1.4812 -0.7488
  116SAPE   C3612221   2.135   6.899   3.788 -0.4029  0.8624 -0.4180
  116SAPE   H6X12222   2.213   6.966   3.829  0.5754  0.4915 -1.5983
  116SAPE   H6Y12223   2.117   6.813   3.856 -0.7147  1.3889  0.1775
  116SAPE   C3712224   2.005   6.976   3.784  0.2215  0.4133  0.3215
  116SAPE   H7X12225   1.928   6.899   3.762  0.2335  0.1138  1.2754
  116SAPE   H7Y12226   1.994   7.045   3.698  2.5502 -0.0566 -0.4361
  116SAPE   C3812227   1.966   7.045   3.917 -0.0586  0.0493  0.0836
  116SAPE   H8X12228   1.869   7.094   3.895 -2.1713 -3.9378 -0.3532
  116SAPE   H8Y12229   2.034   7.121   3.964  1.7622 -1.0117 -0.7255
  116SAPE   C3912230   1.938   6.939   4.029 -0.5816 -0.9910  0.4549
  116SAPE   H9X12231   2.027   6.876   4.048  0.9143  0.7196 -0.5179
  116SAPE   H9Y12232   1.853   6.880   3.988 -1.3240 -0.3176  0.9879
  116SAPE  C31012233   1.902   7.010   4.158 -0.8864 -0.4071  0.2599
  116SAPE  H10X12234   1.810   7.071   4.147 -1.1781 -0.4083  2.2447
  116SAPE  H10Y12235   1.986   7.081   4.172 -2.2616  2.1326 -2.9871
  116SAPE  C31112236   1.890   6.913   4.276  0.1382  0.1445  0.1566
  116SAPE  H11X12237   1.966   6.841   4.314 -0.7802  0.5951  3.0948
  116SAPE  H11Y12238   1.810   6.847   4.237  0.6971 -0.5103  0.0956
  116SAPE  C31212239   1.830   6.980   4.405  0.0781  1.0015  0.3656
  116SAPE  H12X12240   1.754   7.052   4.369  0.1121  1.4639  1.2022
  116SAPE  H12Y12241   1.915   7.025   4.461  0.2660 -0.9995  1.7944
  116SAPE  C31312242   1.741   6.884   4.491  0.2528  0.0984  0.2568
  116SAPE  H13X12243   1.742   6.940   4.587  0.7796 -2.4370  1.8237
  116SAPE  H13Y12244   1.793   6.788   4.512  0.8173  0.3814  0.1650
  116SAPE  C31412245   1.595   6.849   4.446  0.2347  0.0744 -0.7447
  116SAPE  H14X12246   1.604   6.768   4.371  2.7813 -1.5932  1.1776
  116SAPE  H14Y12247   1.546   6.933   4.393  0.4325 -0.2140 -1.3950
  116SAPE  C31512248   1.517   6.790   4.566  0.5287 -0.4529  0.5459
  116SAPE  H15X12249   1.577   6.706   4.606 -1.2298 -1.5773  0.9386
  116SAPE  H15Y12250   1.421   6.747   4.531 -0.0990  0.4839  1.0820
  116SAPE  C31612251   1.491   6.903   4.671  0.3047  0.2095  0.1392
  116SAPE  H16X12252   1.436   6.978   4.610 -1.5558 -1.7122 -0.6373
  116SAPE  H16Y12253   1.591   6.940   4.703  0.7238  0.0971 -1.0224
  116SAPE  C31712254   1.386   6.878   4.779  0.5061 -0.2640  0.6225
  116SAPE  H17X12255   1.404   6.772   4.808 -1.6640 -0.8777 -0.0286
  116SAPE  H17Y12256   1.287   6.874   4.728 -0.2155 -0.9180  2.0013
  116SAPE  C31812257   1.375   6.970   4.898 -0.0487  0.0135 -0.4470
  116SAPE  H18X12258   1.282   6.956   4.958  1.5563  0.5850  2.3967
  116SAPE  H18Y12259   1.373   7.074   4.859 -2.1644  0.4875  0.7650
  116SAPE  H18Z12260   1.464   6.933   4.954  0.9849 -0.5226 -2.3551
  117SOPE     N12261   6.617   4.272   7.245  0.3105  0.5073  0.2143
  117SOPE   HN112262   6.669   4.352   7.204  1.3268 -0.7241 -1.0281
  117SOPE   HN212263   6.517   4.300   7.242  0.0684 -0.2948  0.4863
  117SOPE   HN312264   6.630   4.274   7.348 -0.1274 -0.9745  0.3197
  117SOPE   C1212265   6.670   4.149   7.166  0.8319 -0.3732  0.0171
  117SOPE  H12A12266   6.623   4.061   7.217  2.2818  0.4376  2.9975
  117SOPE  H12B12267   6.781   4.141   7.168  0.8175 -0.5489  0.3602
  117SOPE   C1112268   6.637   4.163   7.017 -0.1646  0.7635 -0.2795
  117SOPE  H11A12269   6.689   4.249   6.970  0.6422 -0.3866 -1.5745
  117SOPE  H11B12270   6.530   4.177   6.993 -0.2808 -1.4305 -1.2869
  117SOPE     P12271   6.615   3.987   6.825 -0.2319  0.2268 -0.6196
  117SOPE   O1312272   6.509   3.891   6.853 -0.3975  0.1173 -0.5505
  117SOPE   O1412273   6.719   3.933   6.744 -0.3185 -1.1952  0.0692
  117SOPE   O1212274   6.685   4.044   6.951  0.0466  0.1885  0.6207
  117SOPE   O1112275   6.550   4.117   6.752 -0.0805  0.5158 -0.0082
  117SOPE    C112276   6.642   4.186   6.669 -0.1817  0.0857  0.0762
  117SOPE    HA12277   6.744   4.184   6.712 -0.3142  0.6546  0.4213
  117SOPE    HB12278   6.613   4.293   6.665 -1.2619 -0.1188  1.7302
  117SOPE    C212279   6.655   4.124   6.524 -0.3385  0.2006  0.4056
  117SOPE    HS12280   6.621   4.021   6.548 -0.8452  0.6200  1.5723
  117SOPE   O2112281   6.790   4.126   6.472  0.3265 -0.1666  0.2427
  117SOPE   C2112282   6.822   4.021   6.396  0.1661  0.7977  0.2349
  117SOPE   O2212283   6.743   3.933   6.364 -0.1801 -0.1096 -0.7661
  117SOPE   C2212284   6.972   4.020   6.364  0.5800  0.5327  0.1279
  117SOPE   H2R12285   7.018   3.919   6.369  0.2059  0.3139 -0.6281
  117SOPE   H2S12286   7.028   4.070   6.446  4.7743 -3.9591  0.4657
  117SOPE    C312287   6.556   4.192   6.429 -0.3987  0.3278 -0.4742
  117SOPE    HX12288   6.594   4.289   6.390 -3.9264  2.2354  0.3696
  117SOPE    HY12289   6.461   4.201   6.488 -1.4322 -0.8633 -1.8742
  117SOPE   O3112290   6.527   4.105   6.324  0.7702  0.7689  0.0739
  117SOPE   C3112291   6.451   3.996   6.330 -0.0009  0.2216  0.2414
  117SOPE   O3212292   6.388   3.956   6.428  0.7342 -0.1459 -0.6164
  117SOPE   C3212293   6.448   3.933   6.193 -0.3466 -0.0219 -0.5686
  117SOPE   H2X12294   6.544   3.882   6.168  0.8551  2.1705 -0.7260
  117SOPE   H2Y12295   6.428   4.012   6.117 -0.2261  0.4296 -0.1335
  117SOPE   C2312296   7.004   4.080   6.224  0.5439 -0.4477 -0.3883
  117SOPE   H3R12297   6.978   4.187   6.207 -0.1957 -0.5060  0.3065
  117SOPE   H3S12298   6.951   4.025   6.144 -0.0919  1.1896 -1.1329
  117SOPE   C2412299   7.155   4.076   6.198 -0.7326  0.6445  0.3146
  117SOPE   H4R12300   7.210   4.108   6.289 -0.3022 -0.1692  0.3467
  117SOPE   H4S12301   7.166   3.970   6.166 -1.5542  0.8424 -0.6855
  117SOPE   C2512302   7.184   4.158   6.067  0.1577 -0.2967  0.2717
  117SOPE   H5R12303   7.098   4.161   5.996  0.5002 -1.6054 -0.2250
  117SOPE   H5S12304   7.192   4.264   6.098 -1.4936 -0.0487 -0.0337
  117SOPE   C2612305   7.315   4.109   6.004 -0.1463  0.3649  0.5087
  117SOPE   H6R12306   7.385   4.106   6.091  0.2298  0.8406  0.2310
  117SOPE   H6S12307   7.303   4.003   5.976 -0.8963  0.9764 -1.6542
  117SOPE   C2712308   7.366   4.198   5.890 -0.7748  0.0488 -0.2599
  117SOPE   H7R12309   7.345   4.306   5.903  0.9609  0.3244  0.5631
  117SOPE   H7S12310   7.475   4.183   5.901 -0.9031 -1.6200 -0.9503
  117SOPE   C2812311   7.338   4.158   5.737 -0.6227 -0.1948 -0.1978
  117SOPE   H8R12312   7.392   4.227   5.669 -0.7804 -1.4755 -1.6701
  117SOPE   H8S12313   7.369   4.052   5.724  1.6325  0.5305 -1.0403
  117SOPE   C2912314   7.193   4.171   5.705  0.7675  0.5747  0.4400
  117SOPE   H9112315   7.144   4.091   5.762  2.0542 -1.0191 -0.6026
  117SOPE  C21012316   7.116   4.254   5.626  0.2994 -0.1030 -0.3333
  117SOPE  H10112317   7.010   4.224   5.622  0.2058 -0.1300  1.4189
  117SOPE  C21112318   7.151   4.377   5.546 -0.1896 -0.0365  0.2986
  117SOPE  H11R12319   7.258   4.404   5.559 -0.4087  1.9338 -1.4176
  117SOPE  H11S12320   7.101   4.463   5.596  2.4835  1.2199  0.9960
  117SOPE  C21212321   7.102   4.387   5.398 -0.5668 -0.3906 -0.1873
  117SOPE  H12R12322   7.121   4.496   5.382 -1.3370 -0.3042 -0.5522
  117SOPE  H12S12323   6.993   4.367   5.397 -0.5551 -0.4450 -0.3895
  117SOPE  C21312324   7.183   4.299   5.302  0.0429 -0.6169 -0.0062
  117SOPE  H13R12325   7.172   4.193   5.332  0.3945 -0.4395  0.7600
  117SOPE  H13S12326   7.289   4.332   5.309  0.0766 -0.0747 -2.3200
  117SOPE  C21412327   7.132   4.324   5.158 -0.5885 -0.0644 -0.6746
  117SOPE  H14R12328   7.160   4.427   5.130  3.7929 -1.2873 -1.5790
  117SOPE  H14S12329   7.022   4.311   5.165 -0.3391 -2.6990 -0.6202
  117SOPE  C21512330   7.193   4.228   5.048  0.1487  0.4656 -0.8240
  117SOPE  H15R12331   7.189   4.127   5.095 -1.1206  1.7982  2.1838
  117SOPE  H15S12332   7.301   4.252   5.055  0.7742 -2.2933  0.5101
  117SOPE  C21612333   7.126   4.232   4.913 -0.2206 -0.5749 -0.8099
  117SOPE  H16R12334   7.178   4.152   4.857  0.7346 -0.6944  0.2144
  117SOPE  H16S12335   7.134   4.331   4.864  1.6049  0.2255  0.9500
  117SOPE  C21712336   6.978   4.179   4.903  0.8522  0.5910  0.1901
  117SOPE  H17R12337   6.911   4.254   4.950 -0.0434  0.9516 -1.6071
  117SOPE  H17S12338   6.970   4.080   4.953 -0.2557  1.7021  2.3792
  117SOPE  C21812339   6.945   4.141   4.763 -0.1717 -0.4407  0.5821
  117SOPE  H18R12340   6.839   4.107   4.757 -1.0847  1.7719  2.7628
  117SOPE  H18S12341   7.012   4.059   4.727 -0.8769 -0.6106 -0.3852
  117SOPE  H18T12342   6.950   4.225   4.690 -0.7480 -0.3429  0.6522
  117SOPE   C3312343   6.350   3.809   6.181  0.2818 -0.6266 -0.3456
  117SOPE   H3X12344   6.253   3.844   6.222  0.9111 -0.5228  1.1472
  117SOPE   H3Y12345   6.399   3.722   6.231  1.0395 -1.1866 -2.0067
  117SOPE   C3412346   6.325   3.773   6.033 -0.0034 -0.5356  0.1075
  117SOPE   H4X12347   6.421   3.738   5.989 -0.2295  0.1889 -1.0005
  117SOPE   H4Y12348   6.307   3.870   5.984 -1.6780 -0.3800  0.9640
  117SOPE   C3512349   6.209   3.675   6.016  0.2050 -0.1227  0.2892
  117SOPE   H5X12350   6.163   3.685   5.916  1.3049  0.0085 -0.2220
  117SOPE   H5Y12351   6.136   3.697   6.097 -0.9670 -1.5877 -0.3077
  117SOPE   C3612352   6.263   3.532   6.032 -0.3225 -0.4902 -0.0270
  117SOPE   H6X12353   6.325   3.539   6.124 -1.7520  1.3827  0.8587
  117SOPE   H6Y12354   6.335   3.505   5.951  1.0077 -0.5791  1.1497
  117SOPE   C3712355   6.153   3.433   6.066  0.0345 -0.3720  0.4927
  117SOPE   H7X12356   6.109   3.480   6.157  0.1917 -1.3605  1.0880
  117SOPE   H7Y12357   6.199   3.334   6.085  2.4673  0.5331 -0.2791
  117SOPE   C3812358   6.051   3.409   5.955  1.5778  0.2105  0.2959
  117SOPE   H8X12359   6.000   3.502   5.923  1.1501 -0.3821 -0.8020
  117SOPE   H8Y12360   5.979   3.346   6.011 -0.6556  2.2533 -0.1266
  117SOPE   C3912361   6.110   3.331   5.840  0.2070  0.0127 -0.3254
  117SOPE   H9X12362   6.163   3.240   5.875 -0.2823 -0.0106  0.3827
  117SOPE   H9Y12363   6.191   3.397   5.804  0.3634 -0.3460 -0.6394
  117SOPE  C31012364   6.017   3.322   5.717 -0.4023 -0.7385 -0.3051
  117SOPE  H10X12365   5.997   3.419   5.667  0.7914 -0.6637 -0.6650
  117SOPE  H10Y12366   5.924   3.275   5.754 -0.0390  0.0095  1.6978
  117SOPE  C31112367   6.092   3.238   5.606 -0.1032 -0.2356  0.1976
  117SOPE  H11X12368   6.030   3.241   5.514 -2.3179  1.4175  1.6428
  117SOPE  H11Y12369   6.115   3.135   5.640  0.0716  0.8246  3.6741
  117SOPE  C31212370   6.231   3.300   5.567  0.1777 -0.4800  0.1730
  117SOPE  H12X12371   6.312   3.288   5.642  1.2802  1.2639 -0.6708
  117SOPE  H12Y12372   6.209   3.409   5.562  0.8783 -0.3855 -3.2906
  117SOPE  C31312373   6.268   3.249   5.428  0.3044 -0.0551 -0.2142
  117SOPE  H13X12374   6.188   3.263   5.352 -1.1287 -1.9037  0.8606
  117SOPE  H13Y12375   6.272   3.138   5.429 -1.1262 -0.1352 -0.8199
  117SOPE  C31412376   6.393   3.306   5.376  0.0491  0.2042  0.7698
  117SOPE  H14X12377   6.477   3.296   5.449  0.5876 -0.7807  0.0479
  117SOPE  H14Y12378   6.386   3.417   5.366 -0.9440  0.1373  0.6897
  117SOPE  C31512379   6.419   3.243   5.242  0.3070  0.2329  0.2059
  117SOPE  H15X12380   6.335   3.266   5.173  0.9190  0.3377 -0.5242
  117SOPE  H15Y12381   6.433   3.133   5.249 -1.4614 -0.0209  0.2910
  117SOPE  C31612382   6.560   3.291   5.187  0.1090  0.8347  0.3827
  117SOPE  H16X12383   6.636   3.273   5.267 -1.0499 -1.0648  1.1311
  117SOPE  H16Y12384   6.554   3.398   5.161 -1.8078  0.3929 -1.1308
  117SOPE  C31712385   6.602   3.202   5.064  0.8549 -0.2263 -1.1590
  117SOPE  H17X12386   6.524   3.213   4.985 -3.2234  1.0376  2.6609
  117SOPE  H17Y12387   6.594   3.096   5.098  0.8097 -0.0142 -0.5016
  117SOPE  C31812388   6.744   3.216   5.013  0.6364 -0.4190 -0.6467
  117SOPE  H18X12389   6.748   3.312   4.956 -2.5888 -0.9355 -1.9793
  117SOPE  H18Y12390   6.781   3.138   4.943  1.8788 -0.9501  0.5645
  117SOPE  H18Z12391   6.812   3.224   5.100 -1.5469  1.3941  1.0088
  118SOPE     N12392   5.782   3.931   6.954  0.3235 -0.4070  0.1911
  118SOPE   HN112393   5.839   3.858   6.907  1.0364  0.0889  0.2764
  118SOPE   HN212394   5.707   3.886   7.011  0.7789  0.2730  1.3694
  118SOPE   HN312395   5.720   3.979   6.885  1.2361  0.8808  0.2388
  118SOPE   C1212396   5.860   4.021   7.045  0.5298 -0.2027  0.2181
  118SOPE  H12A12397   5.958   4.036   6.995  0.7932  1.9202  1.3060
  118SOPE  H12B12398   5.882   3.973   7.142  1.7132 -0.4020 -0.1342
  118SOPE   C1112399   5.787   4.150   7.074 -0.2457  0.0899 -0.3408
  118SOPE  H11A12400   5.752   4.187   6.975 -2.8506  0.0062  0.4566
  118SOPE  H11B12401   5.853   4.235   7.101 -1.7740  1.1573  0.2044
  118SOPE     P12402   5.547   4.207   7.134 -0.2298 -0.1778  0.2754
  118SOPE   O1312403   5.573   4.351   7.106  0.7707  0.0542  0.6088
  118SOPE   O1412404   5.437   4.174   7.227  0.0187  0.0076 -0.0332
  118SOPE   O1212405   5.680   4.133   7.172  0.1553 -0.6868 -0.2376
  118SOPE   O1112406   5.528   4.132   6.998 -0.5362 -0.2826 -0.0556
  118SOPE    C112407   5.402   4.147   6.934  1.0120 -0.0437  0.0971
  118SOPE    HA12408   5.397   4.244   6.879 -2.4827 -0.2410 -0.1578
  118SOPE    HB12409   5.313   4.136   7.000  1.3368 -0.5921  0.4507
  118SOPE    C212410   5.376   4.045   6.820  0.0944  0.5853 -0.7765
  118SOPE    HS12411   5.414   3.947   6.855 -2.6263 -0.2398  0.1026
  118SOPE   O2112412   5.435   4.086   6.697  0.3675 -0.7202 -0.1276
  118SOPE   C2112413   5.566   4.065   6.677 -0.0093 -0.5692  0.2444
  118SOPE   O2212414   5.642   4.010   6.755 -0.1984 -0.0739  0.0206
  118SOPE   C2212415   5.606   4.112   6.538 -0.4192 -0.6330  0.3800
  118SOPE   H2R12416   5.714   4.093   6.520 -0.6222 -1.3224 -0.1574
  118SOPE   H2S12417   5.582   4.220   6.532 -1.9313 -0.9879 -0.4061
  118SOPE    C312418   5.222   4.039   6.786 -0.0882  1.2019  0.3943
  118SOPE    HX12419   5.184   4.140   6.757 -2.5375  0.9412  2.3969
  118SOPE    HY12420   5.166   4.011   6.877 -1.1952  3.3916  0.4447
  118SOPE   O3112421   5.201   3.937   6.683 -0.2042  0.3465 -0.3504
  118SOPE   C3112422   5.186   3.986   6.559  0.5561 -0.0076 -0.5963
  118SOPE   O3212423   5.186   4.105   6.537  0.4553 -0.5368 -0.0616
  118SOPE   C3212424   5.163   3.872   6.458  0.3140 -1.0703  0.3249
  118SOPE   H2X12425   5.105   3.795   6.512  1.7948 -3.7756 -1.6597
  118SOPE   H2Y12426   5.262   3.826   6.435  1.5729  0.8301  1.6064
  118SOPE   C2312427   5.529   4.035   6.424  0.0881  0.5633  0.3560
  118SOPE   H3R12428   5.419   4.042   6.412  0.0520 -0.2457  0.1755
  118SOPE   H3S12429   5.537   3.930   6.458  1.8933  0.1300 -1.2061
  118SOPE   C2412430   5.592   4.039   6.282  0.8773  0.3523 -0.2153
  118SOPE   H4R12431   5.613   4.144   6.250  0.3318  0.6897  0.4952
  118SOPE   H4S12432   5.690   3.987   6.290 -0.1789 -1.5739  0.7339
  118SOPE   C2512433   5.509   3.969   6.181 -0.8942 -0.1659  0.3878
  118SOPE   H5R12434   5.505   3.865   6.220 -1.4971 -0.1097  0.4826
  118SOPE   H5S12435   5.403   3.999   6.167 -0.5768  1.1035  0.6561
  118SOPE   C2612436   5.572   3.967   6.039 -0.5719 -0.6450 -0.3186
  118SOPE   H6R12437   5.597   4.073   6.014  0.2908 -0.7042  0.2577
  118SOPE   H6S12438   5.665   3.906   6.041  0.1465  0.4505  0.4858
  118SOPE   C2712439   5.481   3.936   5.919  0.6998  0.6467  0.2833
  118SOPE   H7R12440   5.437   3.836   5.937  1.2237 -0.4850 -3.7132
  118SOPE   H7S12441   5.393   4.002   5.902  0.0272  0.0685  1.3962
  118SOPE   C2812442   5.566   3.950   5.789 -0.5786 -0.5023  0.7661
  118SOPE   H8R12443   5.579   4.058   5.768 -1.3731 -0.1987  1.7731
  118SOPE   H8S12444   5.667   3.908   5.811 -0.7167  0.1853  2.9143
  118SOPE   C2912445   5.494   3.880   5.677  0.7401 -0.2816  0.3676
  118SOPE   H9112446   5.430   3.793   5.701  0.9080 -0.6051 -0.3209
  118SOPE  C21012447   5.494   3.906   5.544  0.2943 -0.0455  0.7317
  118SOPE  H10112448   5.434   3.838   5.483  0.2200 -0.1919  0.9646
  118SOPE  C21112449   5.572   4.003   5.460  0.0957 -0.9022 -0.4569
  118SOPE  H11R12450   5.645   4.064   5.517 -2.9847  0.7670  2.0336
  118SOPE  H11S12451   5.498   4.070   5.411 -0.7062 -1.4113  0.0315
  118SOPE  C21212452   5.662   3.941   5.350  0.9919  1.0261  0.3274
  118SOPE  H12R12453   5.600   3.872   5.290  1.3107 -0.0655  1.2306
  118SOPE  H12S12454   5.733   3.873   5.402 -1.3565 -2.4617 -0.7483
  118SOPE  C21312455   5.735   4.040   5.265  0.0436  0.0079 -0.4293
  118SOPE  H13R12456   5.794   4.095   5.341 -0.5040  1.3183 -0.9311
  118SOPE  H13S12457   5.667   4.117   5.222 -0.6879  0.8350  2.0291
  118SOPE  C21412458   5.829   3.979   5.158  0.3811 -0.3548 -0.0544
  118SOPE  H14R12459   5.776   3.894   5.111  0.5809 -1.5285  1.7172
  118SOPE  H14S12460   5.912   3.934   5.217 -0.8501 -3.3277 -0.4212
  118SOPE  C21512461   5.883   4.076   5.057 -0.1168 -0.1967  0.0265
  118SOPE  H15R12462   5.909   4.175   5.100  1.3537 -1.0480  1.2070
  118SOPE  H15S12463   5.807   4.097   4.979  0.4147  2.1888  0.0703
  118SOPE  C21612464   6.019   4.050   4.995 -0.7897 -0.1224 -0.0249
  118SOPE  H16R12465   6.003   3.963   4.928 -0.8169 -0.9735  1.0586
  118SOPE  H16S12466   6.087   4.018   5.077  0.9318  1.5889 -0.7011
  118SOPE  C21712467   6.067   4.172   4.916  0.0158 -0.6952 -0.1006
  118SOPE  H17R12468   6.050   4.255   4.988  1.3273 -1.2609  0.8847
  118SOPE  H17S12469   5.988   4.178   4.837 -1.7524 -1.8343  1.4996
  118SOPE  C21812470   6.202   4.168   4.850 -0.4029 -0.4562  0.0782
  118SOPE  H18R12471   6.209   4.089   4.771  0.3070  0.4312 -0.7658
  118SOPE  H18S12472   6.287   4.149   4.919  0.7053 -0.7647 -1.3236
  118SOPE  H18T12473   6.223   4.267   4.805  1.4650 -0.0415  1.7371
  118SOPE   C3312474   5.109   3.925   6.323 -0.0902  0.0180  0.6691
  118SOPE   H3X12475   5.176   4.011   6.299  0.1735 -0.5628 -0.7476
  118SOPE   H3Y12476   5.000   3.947   6.331  0.2234  1.8134  0.3461
  118SOPE   C3412477   5.135   3.817   6.209  0.8797 -0.1581  0.3090
  118SOPE   H4X12478   5.077   3.726   6.231  1.2068 -1.6337 -3.9951
  118SOPE   H4Y12479   5.240   3.781   6.211  0.3143 -1.8706  0.4145
  118SOPE   C3512480   5.100   3.873   6.069 -0.3399  0.6924 -0.0795
  118SOPE   H5X12481   5.175   3.947   6.034 -1.0853  0.2957 -2.7765
  118SOPE   H5Y12482   4.996   3.913   6.073  0.5916  3.2522  0.5449
  118SOPE   C3612483   5.095   3.750   5.974  0.1594 -0.1626 -0.6488
  118SOPE   H6X12484   5.001   3.694   5.995  0.3428 -0.5643 -0.8982
  118SOPE   H6Y12485   5.173   3.681   6.012  1.4022  1.5287 -0.0301
  118SOPE   C3712486   5.085   3.792   5.836  0.4108 -0.3652 -0.3330
  118SOPE   H7X12487   5.162   3.868   5.809  0.0697 -0.6139 -2.1330
  118SOPE   H7Y12488   4.996   3.857   5.825 -0.2697 -0.8040  2.0033
  118SOPE   C3812489   5.087   3.685   5.729 -0.7320  0.4111  0.5256
  118SOPE   H8X12490   5.005   3.610   5.733  0.0947 -0.6824 -1.8637
  118SOPE   H8Y12491   5.178   3.624   5.741 -0.4452  0.5172 -0.9133
  118SOPE   C3912492   5.083   3.733   5.585 -0.3295 -0.5646 -0.2118
  118SOPE   H9X12493   5.152   3.820   5.571 -1.5684  0.3007 -1.2131
  118SOPE   H9Y12494   4.982   3.779   5.579  0.2731  0.8549  0.1769
  118SOPE  C31012495   5.085   3.625   5.481 -0.1614  0.6516  0.1818
  118SOPE  H10X12496   5.013   3.548   5.515  0.6703  0.4068  1.4733
  118SOPE  H10Y12497   5.186   3.579   5.477 -0.6736 -0.4851  0.1602
  118SOPE  C31112498   5.038   3.678   5.348 -0.4804  0.0522 -0.0897
  118SOPE  H11X12499   5.097   3.768   5.319  0.5024 -0.4894  0.2016
  118SOPE  H11Y12500   4.929   3.698   5.352 -0.5223 -0.4441  2.6332
  118SOPE  C31212501   5.070   3.588   5.234  0.5054 -0.3182  1.0477
  118SOPE  H12X12502   5.006   3.497   5.237 -0.4258  0.0664 -2.5754
  118SOPE  H12Y12503   5.178   3.564   5.231  0.5115 -0.2692  0.7677
  118SOPE  C31312504   5.051   3.661   5.096  0.2340  0.0369 -0.2568
  118SOPE  H13X12505   5.103   3.759   5.085 -0.5499  0.2442 -2.6898
  118SOPE  H13Y12506   4.943   3.690   5.094 -0.0245 -0.9094 -2.0191
  118SOPE  C31412507   5.083   3.579   4.972 -0.3176 -0.3615  0.2893
  118SOPE  H14X12508   5.005   3.502   4.952 -0.8283  0.4290 -0.8903
  118SOPE  H14Y12509   5.177   3.524   4.990 -0.6943 -0.7345  1.1369
  118SOPE  C31512510   5.089   3.665   4.840 -0.1190 -0.4696  0.5886
  118SOPE  H15X12511   5.176   3.734   4.835 -1.5965  1.4936  0.6488
  118SOPE  H15Y12512   5.000   3.732   4.832  0.5006  0.4327  0.9975
  118SOPE  C31612513   5.091   3.581   4.712 -0.4707  0.2127  0.2635
  118SOPE  H16X12514   4.986   3.554   4.686 -0.4865  2.5474 -2.7283
  118SOPE  H16Y12515   5.157   3.496   4.738 -1.4351 -0.2227  1.3753
  118SOPE  C31712516   5.135   3.665   4.593 -0.2670  0.0154 -0.4728
  118SOPE  H17X12517   5.086   3.765   4.594 -0.3747 -0.0399  0.2092
  118SOPE  H17Y12518   5.093   3.616   4.503 -1.7467  0.7841 -0.2262
  118SOPE  C31812519   5.288   3.684   4.588  0.4951  0.6193  0.3231
  118SOPE  H18X12520   5.337   3.585   4.572 -0.6109 -0.0179  0.8055
  118SOPE  H18Y12521   5.326   3.721   4.686 -0.4630  1.1371  0.5029
  118SOPE  H18Z12522   5.314   3.753   4.505  0.6426 -0.4805 -0.5883
  119SOPE     N12523   2.193   0.209   6.760  0.5302  0.3327  0.4806
  119SOPE   HN112524   2.150   0.198   6.854 -1.2357  1.3381 -0.1715
  119SOPE   HN212525   2.151   0.144   6.691 -0.1249 -2.3440  3.2066
  119SOPE   HN312526   2.295   0.185   6.759  1.0220  2.2504  0.8461
  119SOPE   C1212527   2.190   0.350   6.709 -0.2345 -0.5766  0.0127
  119SOPE  H12A12528   2.256   0.351   6.620  0.4077  0.7307  0.4866
  119SOPE  H12B12529   2.245   0.410   6.784  0.0327 -0.6416 -0.1311
  119SOPE   C1112530   2.052   0.395   6.704  0.0237 -0.0872 -0.2952
  119SOPE  H11A12531   1.996   0.340   6.625 -0.0776  0.2209 -0.4426
  119SOPE  H11B12532   2.053   0.498   6.660 -0.5113  0.0605  0.0233
  119SOPE     P12533   1.864   0.476   6.866 -0.1959 -0.0139 -0.1494
  119SOPE   O1312534   1.871   0.605   6.790  0.1742 -0.0072  0.5711
  119SOPE   O1412535   1.868   0.487   7.011 -0.2907  0.4839 -0.3514
  119SOPE   O1212536   1.984   0.388   6.829 -0.2470  0.2117  0.1691
  119SOPE   O1112537   1.734   0.399   6.817 -0.3276 -0.2961  0.3889
  119SOPE    C112538   1.731   0.256   6.809 -0.2609 -0.3811 -0.4635
  119SOPE    HA12539   1.650   0.213   6.871 -0.7306  0.9747 -0.1065
  119SOPE    HB12540   1.820   0.204   6.851 -0.8896 -0.0185  1.4001
  119SOPE    C212541   1.720   0.213   6.665 -0.2996 -0.0873 -0.1045
  119SOPE    HS12542   1.806   0.244   6.604 -0.3838  0.2035 -0.0756
  119SOPE   O2112543   1.591   0.255   6.614  0.2038 -0.3623  0.0230
  119SOPE   C2112544   1.607   0.358   6.530  0.0562 -0.1156  0.3553
  119SOPE   O2212545   1.710   0.407   6.492 -0.1371  0.2859  0.3152
  119SOPE   C2212546   1.467   0.390   6.479 -0.2920 -0.7790  0.5289
  119SOPE   H2R12547   1.428   0.476   6.538  0.3781 -1.4156  1.9523
  119SOPE   H2S12548   1.390   0.313   6.498 -1.7725  0.1975 -1.2063
  119SOPE    C312549   1.711   0.059   6.650  0.9003 -0.6500  0.4497
  119SOPE    HX12550   1.625   0.037   6.717  0.0593  2.0882  0.3841
  119SOPE    HY12551   1.812   0.021   6.679  1.1334  0.6786  1.4796
  119SOPE   O3112552   1.692   0.019   6.502  0.3168  0.5041 -0.2202
  119SOPE   C3112553   1.581  -0.034   6.467  0.3631 -0.4044  0.0480
  119SOPE   O3212554   1.488  -0.070   6.536 -0.0931 -0.1341 -0.1829
  119SOPE   C3212555   1.558  -0.042   6.310 -0.0173  0.2774 -0.3470
  119SOPE   H2X12556   1.655  -0.073   6.266  1.6469  1.8939  1.9645
  119SOPE   H2Y12557   1.537   0.058   6.265  1.1692  0.9650  0.5923
  119SOPE   C2312558   1.457   0.435   6.333  0.4208  0.2994 -0.1670
  119SOPE   H3R12559   1.494   0.352   6.270  0.2117 -1.0759  1.4337
  119SOPE   H3S12560   1.511   0.530   6.316  1.2907  0.0805  1.1838
  119SOPE   C2412561   1.310   0.469   6.300 -0.1892 -0.5681 -0.1829
  119SOPE   H4R12562   1.256   0.374   6.317  1.0165 -1.0835  1.0525
  119SOPE   H4S12563   1.268   0.538   6.376  1.8918  0.8590 -0.2220
  119SOPE   C2512564   1.303   0.511   6.155  0.2777  0.5244 -0.0407
  119SOPE   H5R12565   1.364   0.603   6.142  1.4590  0.1323  2.1195
  119SOPE   H5S12566   1.353   0.432   6.096  0.6264  1.4275 -0.9774
  119SOPE   C2612567   1.160   0.520   6.100 -0.5150  0.1746  0.9902
  119SOPE   H6R12568   1.089   0.554   6.179 -0.9277 -0.6716  0.9921
  119SOPE   H6S12569   1.171   0.594   6.017 -1.9029 -0.4293  0.2413
  119SOPE   C2712570   1.113   0.383   6.038  0.3855 -0.3076  0.8458
  119SOPE   H7R12571   1.207   0.325   6.023  0.2193 -0.2738 -0.4199
  119SOPE   H7S12572   1.046   0.329   6.108  1.0015 -2.5366 -0.1935
  119SOPE   C2812573   1.044   0.398   5.902 -0.7368  0.5226  0.3612
  119SOPE   H8R12574   0.958   0.458   5.938 -1.9549 -1.0139  0.1345
  119SOPE   H8S12575   1.098   0.461   5.828  1.1925 -1.3364  0.0942
  119SOPE   C2912576   0.995   0.265   5.851 -0.7039  0.4351  0.0088
  119SOPE   H9112577   0.993   0.171   5.908  0.3841 -0.8490 -1.9465
  119SOPE  C21012578   0.947   0.252   5.729 -0.1894 -0.6874  0.0610
  119SOPE  H10112579   0.928   0.152   5.687  2.5878 -1.6462  0.8774
  119SOPE  C21112580   0.912   0.359   5.626  0.1437  0.0608 -0.7051
  119SOPE  H11R12581   0.944   0.460   5.659 -2.1035  0.3684  0.8117
  119SOPE  H11S12582   0.801   0.368   5.626  0.0732 -0.7132 -0.1961
  119SOPE  C21212583   0.942   0.334   5.475 -0.1146  0.3728  0.1285
  119SOPE  H12R12584   0.887   0.242   5.443 -1.6827  0.8338  1.3819
  119SOPE  H12S12585   1.051   0.328   5.459  0.0789  1.2489  1.0574
  119SOPE  C21312586   0.894   0.461   5.389  0.0060  0.9701  0.6540
  119SOPE  H13R12587   0.929   0.551   5.443 -1.3900  2.3814 -0.6752
  119SOPE  H13S12588   0.783   0.466   5.385 -0.1976  0.6897  3.5358
  119SOPE  C21412589   0.969   0.462   5.250  0.3306 -0.4885 -0.8101
  119SOPE  H14R12590   1.079   0.448   5.252  0.3260 -0.4884  0.9456
  119SOPE  H14S12591   0.945   0.560   5.204  0.4662 -0.3326 -0.5538
  119SOPE  C21512592   0.908   0.366   5.146  0.1324  0.3923  0.4430
  119SOPE  H15R12593   0.805   0.399   5.118  0.0206  0.3293  0.7782
  119SOPE  H15S12594   0.903   0.260   5.180  1.6091 -0.3443 -1.4850
  119SOPE  C21612595   0.990   0.356   5.015 -0.3924 -0.7117  0.0715
  119SOPE  H16R12596   1.088   0.309   5.035 -0.0702  0.0812  0.3711
  119SOPE  H16S12597   1.004   0.460   4.981  1.2600 -0.3247  1.8191
  119SOPE  C21712598   0.920   0.283   4.909  0.7432  0.1812  0.5713
  119SOPE  H17R12599   0.836   0.224   4.952 -0.0608  0.3926 -0.6503
  119SOPE  H17S12600   0.984   0.220   4.844 -0.5622 -0.2629 -0.3319
  119SOPE  C21812601   0.853   0.384   4.815  0.5000 -0.3897  0.4304
  119SOPE  H18R12602   0.793   0.330   4.739  1.0636 -0.1487 -0.1921
  119SOPE  H18S12603   0.928   0.447   4.761  0.2008 -0.1320  0.3107
  119SOPE  H18T12604   0.782   0.445   4.875 -1.2159 -0.8324 -1.0700
  119SOPE   C3312605   1.442  -0.143   6.282 -0.0339 -0.1301  0.7384
  119SOPE   H3X12606   1.347  -0.103   6.323  0.5754 -0.3839  2.5025
  119SOPE   H3Y12607   1.466  -0.238   6.333 -0.4275 -1.4915 -1.4833
  119SOPE   C3412608   1.426  -0.179   6.134  0.0705 -0.1225  1.0034
  119SOPE   H4X12609   1.416  -0.098   6.059  0.6208 -1.0390 -0.0710
  119SOPE   H4Y12610   1.328  -0.230   6.149  0.0925  0.1605  2.2158
  119SOPE   C3512611   1.515  -0.291   6.076 -0.9376  0.4690 -0.6636
  119SOPE   H5X12612   1.486  -0.381   6.134  0.9472 -0.3229 -0.8680
  119SOPE   H5Y12613   1.622  -0.284   6.104 -1.3255 -1.0103  1.3899
  119SOPE   C3612614   1.501  -0.329   5.930 -0.5188 -0.0026 -0.1222
  119SOPE   H6X12615   1.393  -0.324   5.905 -0.6987  1.7684  0.8339
  119SOPE   H6Y12616   1.544  -0.431   5.918  0.6938  0.4993 -0.1239
  119SOPE   C3712617   1.587  -0.246   5.828  0.0425  0.2151  0.2394
  119SOPE   H7X12618   1.691  -0.274   5.856 -0.9115 -0.9879  2.9847
  119SOPE   H7Y12619   1.569  -0.136   5.823  0.4496  0.2151 -1.9900
  119SOPE   C3812620   1.563  -0.296   5.686 -0.5187  0.4518 -0.3340
  119SOPE   H8X12621   1.453  -0.289   5.675 -0.5741  0.2236  0.0627
  119SOPE   H8Y12622   1.596  -0.401   5.672 -0.4274  0.4768 -0.3059
  119SOPE   C3912623   1.637  -0.199   5.586 -0.0954  0.1629 -0.0512
  119SOPE   H9X12624   1.746  -0.217   5.591  0.3580  2.1045 -1.6551
  119SOPE   H9Y12625   1.606  -0.093   5.601 -2.1508 -0.1490 -1.6956
  119SOPE  C31012626   1.597  -0.228   5.433  0.2361  1.0184 -0.3472
  119SOPE  H10X12627   1.488  -0.215   5.412 -0.0450 -1.1360 -0.4424
  119SOPE  H10Y12628   1.613  -0.336   5.412 -2.5095  0.3016  0.6662
  119SOPE  C31112629   1.679  -0.139   5.342 -0.6163  0.6823  0.3480
  119SOPE  H11X12630   1.783  -0.164   5.370 -0.6983 -1.4382 -1.0126
  119SOPE  H11Y12631   1.677  -0.035   5.379  0.1336  0.1960  1.8213
  119SOPE  C31212632   1.655  -0.162   5.194 -0.7408 -0.0667 -0.1790
  119SOPE  H12X12633   1.560  -0.116   5.158 -1.4174 -0.8492  0.5506
  119SOPE  H12Y12634   1.648  -0.272   5.180 -2.7597 -0.3649  2.3855
  119SOPE  C31312635   1.760  -0.106   5.097 -0.4334  0.2864  0.4990
  119SOPE  H13X12636   1.730  -0.140   4.996 -0.6993  0.0609  0.6498
  119SOPE  H13Y12637   1.857  -0.156   5.117  0.2659  1.3466 -0.1885
  119SOPE  C31412638   1.765   0.049   5.079  0.1725  0.0210  0.2461
  119SOPE  H14X12639   1.813   0.080   5.174  0.8309  1.7144 -0.5940
  119SOPE  H14Y12640   1.664   0.092   5.063 -0.4197 -1.1477  0.7698
  119SOPE  C31512641   1.859   0.091   4.962  0.0970 -0.2562  0.0648
  119SOPE  H15X12642   1.835   0.033   4.870  2.0561 -0.2149 -0.5190
  119SOPE  H15Y12643   1.962   0.073   5.000 -0.1771  2.0303  2.1219
  119SOPE  C31612644   1.847   0.235   4.915  0.1019  0.5916 -0.5051
  119SOPE  H16X12645   1.853   0.306   5.000 -1.9145 -1.2164  1.2955
  119SOPE  H16Y12646   1.753   0.267   4.865 -0.1596  2.2537  0.9320
  119SOPE  C31712647   1.948   0.272   4.810 -0.1447  0.3311  0.6759
  119SOPE  H17X12648   2.050   0.260   4.851  0.7327  3.1654 -0.4107
  119SOPE  H17Y12649   1.937   0.377   4.776  0.3943  1.3341  3.3677
  119SOPE  C31812650   1.938   0.173   4.695 -0.4066  0.5305  0.1729
  119SOPE  H18X12651   2.002   0.206   4.610 -1.5312  2.4037  0.0084
  119SOPE  H18Y12652   1.831   0.154   4.672 -0.1366 -0.9442 -0.0023
  119SOPE  H18Z12653   1.969   0.072   4.728 -0.0792  0.5791  0.0211
  120SOPE     N12654   2.033   3.706   6.976 -0.2668 -0.6354 -0.2980
  120SOPE   HN112655   2.005   3.806   6.976  1.8180  0.0050 -1.1898
  120SOPE   HN212656   1.989   3.660   7.059  1.3311 -0.9452  0.4302
  120SOPE   HN312657   2.136   3.719   6.982 -0.4972  2.2321 -1.1983
  120SOPE   C1212658   2.003   3.632   6.847  0.6327  1.2043  0.3586
  120SOPE  H12A12659   2.063   3.684   6.770  2.2011 -0.6647  0.2422
  120SOPE  H12B12660   1.896   3.652   6.821  0.7451  0.4035 -0.7645
  120SOPE   C1112661   2.022   3.481   6.868  0.1499 -0.0596  0.1224
  120SOPE  H11A12662   2.119   3.443   6.906 -0.0778 -0.5223  0.2402
  120SOPE  H11B12663   2.024   3.442   6.764  1.3595  1.0442 -0.2940
  120SOPE     P12664   1.921   3.339   7.056  0.5267  0.2522  0.1735
  120SOPE   O1312665   1.785   3.284   7.078 -0.6002 -0.2424 -0.0007
  120SOPE   O1412666   1.982   3.422   7.164  0.2200 -0.2932  0.0482
  120SOPE   O1212667   1.909   3.433   6.934 -0.3234 -0.1445 -0.2433
  120SOPE   O1112668   2.025   3.224   7.026 -0.1509  0.0544 -0.1370
  120SOPE    C112669   1.990   3.097   6.970 -0.3935 -0.0720  0.4529
  120SOPE    HA12670   1.902   3.044   7.011  0.3584 -0.2188  1.9260
  120SOPE    HB12671   2.081   3.035   6.988  0.5799  1.1407 -0.0840
  120SOPE    C212672   1.971   3.112   6.819 -0.3605  0.2496 -0.6114
  120SOPE    HS12673   2.046   3.179   6.772 -1.2633 -0.3067 -2.9817
  120SOPE   O2112674   1.839   3.150   6.797 -0.2465 -0.4309 -0.2510
  120SOPE   C2112675   1.815   3.211   6.688 -1.2594  0.6065  0.0574
  120SOPE   O2212676   1.900   3.260   6.614  0.1640 -0.2038 -0.6222
  120SOPE   C2212677   1.658   3.228   6.674  0.1663  0.2265  0.0100
  120SOPE   H2R12678   1.633   3.301   6.754 -1.5807  3.0680 -2.9110
  120SOPE   H2S12679   1.608   3.131   6.697 -0.0799  0.9181  2.7462
  120SOPE    C312680   2.010   2.982   6.742 -0.2515  0.2280 -0.2524
  120SOPE    HX12681   1.937   2.916   6.794  1.1999 -1.0907  0.1657
  120SOPE    HY12682   2.111   2.947   6.771 -1.4334 -1.4393  2.2486
  120SOPE   O3112683   1.972   2.984   6.604  0.2247 -0.2602 -0.7479
  120SOPE   C3112684   2.072   2.979   6.526  0.1258  0.3151 -0.1503
  120SOPE   O3212685   2.195   2.985   6.545 -0.4209 -0.2919  0.1622
  120SOPE   C3212686   2.007   2.978   6.395  0.6184 -0.0096 -0.1266
  120SOPE   H2X12687   1.945   3.070   6.382 -2.4951 -1.6719  1.7151
  120SOPE   H2Y12688   1.936   2.893   6.396  0.4559  0.1015  1.8494
  120SOPE   C2312689   1.610   3.281   6.540 -0.1974 -0.2732 -0.5641
  120SOPE   H3R12690   1.652   3.382   6.521  0.2474 -0.3773 -0.1721
  120SOPE   H3S12691   1.501   3.299   6.543 -0.1574 -0.1499  0.6098
  120SOPE   C2412692   1.609   3.184   6.427 -0.1345  0.3933  0.2432
  120SOPE   H4R12693   1.706   3.149   6.385  0.1880  1.6484 -0.1174
  120SOPE   H4S12694   1.560   3.092   6.466 -0.8992  0.1375 -1.2614
  120SOPE   C2512695   1.534   3.249   6.302  0.2715  0.3073  0.5858
  120SOPE   H5R12696   1.427   3.276   6.311  0.1785  0.1214  0.0764
  120SOPE   H5S12697   1.588   3.343   6.276  1.6696 -0.7022 -0.3504
  120SOPE   C2612698   1.541   3.157   6.180 -0.2397 -0.4114  0.1217
  120SOPE   H6R12699   1.637   3.101   6.188  1.2977  2.2150  1.7935
  120SOPE   H6S12700   1.458   3.084   6.170 -1.1863  0.6138  0.2138
  120SOPE   C2712701   1.535   3.246   6.054  0.4515 -0.0643  0.3099
  120SOPE   H7R12702   1.436   3.292   6.037  0.8873  0.2779 -1.5309
  120SOPE   H7S12703   1.600   3.335   6.068 -0.2930  0.4637  0.4180
  120SOPE   C2812704   1.568   3.173   5.916 -0.5792 -0.5014 -0.1690
  120SOPE   H8R12705   1.565   3.254   5.840  0.1779 -0.4007 -0.0992
  120SOPE   H8S12706   1.675   3.145   5.928  0.0519  2.2124  1.4305
  120SOPE   C2912707   1.470   3.057   5.889 -0.7598  0.1998 -0.2771
  120SOPE   H9112708   1.431   3.013   5.982  0.2777 -0.5268 -0.1716
  120SOPE  C21012709   1.439   3.011   5.770 -0.0054 -0.0343  0.1632
  120SOPE  H10112710   1.361   2.932   5.767 -1.5524  1.4805 -0.9759
  120SOPE  C21112711   1.494   3.060   5.639 -0.0175 -0.2318 -0.0089
  120SOPE  H11R12712   1.545   2.982   5.579  2.0633  1.9526 -1.2289
  120SOPE  H11S12713   1.579   3.129   5.656  0.1357 -0.2426 -0.7217
  120SOPE  C21212714   1.388   3.138   5.567  0.6122  0.0338  0.4306
  120SOPE  H12R12715   1.435   3.217   5.506 -2.3016  1.2566 -0.4088
  120SOPE  H12S12716   1.327   3.191   5.644  0.9983  3.3229 -1.3615
  120SOPE  C21312717   1.298   3.061   5.465 -0.2177  0.8641  0.4101
  120SOPE  H13R12718   1.236   2.982   5.512 -1.7533  0.6983 -1.7404
  120SOPE  H13S12719   1.375   3.010   5.403 -0.7026  0.7302 -0.0845
  120SOPE  C21412720   1.209   3.167   5.400  0.7118 -0.1839  0.0321
  120SOPE  H14R12721   1.266   3.245   5.346  0.6913  0.2803  0.6708
  120SOPE  H14S12722   1.154   3.208   5.487  1.0126 -1.7886  1.0336
  120SOPE  C21512723   1.119   3.093   5.300  0.2588  0.5864 -0.6101
  120SOPE  H15R12724   1.049   3.151   5.237 -0.5249 -0.3868 -0.6511
  120SOPE  H15S12725   1.073   3.006   5.352  0.8764  0.8671  0.4404
  120SOPE  C21612726   1.197   3.016   5.194 -0.2005 -0.1034  0.3907
  120SOPE  H16R12727   1.264   2.941   5.243  1.2736  1.6015  1.1022
  120SOPE  H16S12728   1.261   3.098   5.155  0.6498 -0.1596  1.5872
  120SOPE  C21712729   1.116   2.957   5.077  0.6041  0.2436 -0.2243
  120SOPE  H17R12730   1.190   2.912   5.007 -0.3688 -1.2319 -0.3412
  120SOPE  H17S12731   1.064   3.041   5.026  0.2741 -0.3011 -0.8018
  120SOPE  C21812732   1.002   2.865   5.104  0.3120 -0.0360  0.5683
  120SOPE  H18R12733   0.957   2.900   5.199  0.6366  0.6955  0.4628
  120SOPE  H18S12734   1.055   2.769   5.116 -0.6937 -0.6521  0.1745
  120SOPE  H18T12735   0.926   2.864   5.023 -0.8229  1.8979  1.5346
  120SOPE   C3312736   2.102   2.977   6.272  0.0482  0.6831  0.0286
  120SOPE   H3X12737   2.166   3.068   6.269  1.8236 -0.5126  0.1805
  120SOPE   H3Y12738   2.024   2.988   6.194 -1.1683 -1.5340  0.8491
  120SOPE   C3412739   2.184   2.847   6.260 -0.0198  0.0360 -0.1417
  120SOPE   H4X12740   2.250   2.844   6.350 -1.7316 -1.0896  1.1472
  120SOPE   H4Y12741   2.250   2.860   6.172  0.6998 -2.5480 -0.0606
  120SOPE   C3512742   2.118   2.711   6.235 -0.0558  0.8013 -0.2887
  120SOPE   H5X12743   2.017   2.715   6.190  0.3014  2.4155 -1.0199
  120SOPE   H5Y12744   2.107   2.656   6.331 -2.0329 -0.2686 -1.0667
  120SOPE   C3612745   2.203   2.619   6.136 -0.4866  0.0281  0.7564
  120SOPE   H6X12746   2.154   2.519   6.133  0.8538 -0.6514  0.7633
  120SOPE   H6Y12747   2.304   2.601   6.178 -0.8051 -3.2823  0.4042
  120SOPE   C3712748   2.204   2.671   5.994 -0.4127 -0.0956 -0.2643
  120SOPE   H7X12749   2.253   2.770   5.986  1.5909 -0.9984  0.3643
  120SOPE   H7Y12750   2.103   2.676   5.948 -0.3973  0.2391 -0.2643
  120SOPE   C3812751   2.270   2.567   5.897  0.2027  0.4912  0.4273
  120SOPE   H8X12752   2.216   2.471   5.914 -0.0260  1.1216  4.0109
  120SOPE   H8Y12753   2.380   2.558   5.911  0.5433  1.0793 -1.6645
  120SOPE   C3912754   2.245   2.604   5.753 -0.1061  0.3236 -0.4911
  120SOPE   H9X12755   2.299   2.695   5.720 -1.0596  0.9282 -0.4469
  120SOPE   H9Y12756   2.141   2.642   5.745 -0.0005  0.6177 -0.4977
  120SOPE  C31012757   2.253   2.485   5.656  0.5105 -0.3111  0.0489
  120SOPE  H10X12758   2.199   2.404   5.711  0.6038 -0.7134 -0.4480
  120SOPE  H10Y12759   2.358   2.452   5.639  1.0687  0.4011  1.8039
  120SOPE  C31112760   2.158   2.507   5.533 -0.2654  0.3752 -0.1100
  120SOPE  H11X12761   2.049   2.516   5.550 -0.1181  0.5110  0.7972
  120SOPE  H11Y12762   2.174   2.414   5.475 -0.6924 -1.8744  3.0921
  120SOPE  C31212763   2.209   2.628   5.454 -1.1546  0.1321  0.3494
  120SOPE  H12X12764   2.316   2.629   5.485 -0.7725 -0.8060 -0.8596
  120SOPE  H12Y12765   2.148   2.716   5.483 -0.5280  0.5900  0.2885
  120SOPE  C31312766   2.214   2.627   5.303  0.5018 -0.2412  0.0151
  120SOPE  H13X12767   2.283   2.551   5.261 -0.1934 -1.5559  1.2148
  120SOPE  H13Y12768   2.252   2.727   5.271  0.3326  0.7034  2.5412
  120SOPE  C31412769   2.073   2.619   5.237  0.3327 -0.3844 -0.7302
  120SOPE  H14X12770   2.010   2.707   5.261 -1.4816 -2.4177  2.7954
  120SOPE  H14Y12771   2.028   2.537   5.296 -0.9192  0.9831  0.2715
  120SOPE  C31512772   2.077   2.576   5.095 -0.2721  0.5399 -0.6897
  120SOPE  H15X12773   1.975   2.542   5.066  0.0251 -0.0235 -1.0969
  120SOPE  H15Y12774   2.158   2.503   5.077 -0.3889  0.1353  0.3724
  120SOPE  C31612775   2.086   2.690   4.984  0.2272  0.5155  0.0581
  120SOPE  H16X12776   2.024   2.780   5.004 -0.5079  0.2791 -1.0770
  120SOPE  H16Y12777   2.045   2.645   4.891 -2.5337 -0.9445  1.8326
  120SOPE  C31712778   2.228   2.751   4.963  0.0089 -0.1008 -0.7698
  120SOPE  H17X12779   2.301   2.668   4.954  1.9300  1.4295 -0.1829
  120SOPE  H17Y12780   2.248   2.819   5.049 -2.6439  0.9886 -0.8976
  120SOPE  C31812781   2.249   2.838   4.842 -0.2449 -0.1413 -0.0807
  120SOPE  H18X12782   2.340   2.902   4.844 -0.6048  0.3992 -0.5908
  120SOPE  H18Y12783   2.156   2.899   4.832 -1.0184 -1.3275 -0.3889
  120SOPE  H18Z12784   2.269   2.778   4.750  0.8169  0.2760 -0.1359
  121SOPE     N12785   1.608   1.273   6.633  0.1239  0.5412 -0.3149
  121SOPE   HN112786   1.682   1.224   6.687 -1.2926  0.1066  1.3491
  121SOPE   HN212787   1.599   1.370   6.669  0.9886 -0.4361  2.8656
  121SOPE   HN312788   1.519   1.224   6.657  0.2036  0.4668 -0.1674
  121SOPE   C1212789   1.635   1.251   6.488 -0.1413  0.2667 -0.3867
  121SOPE  H12A12790   1.701   1.329   6.444  0.2615 -0.3185 -0.8337
  121SOPE  H12B12791   1.545   1.259   6.423 -0.3254 -1.4433 -0.3796
  121SOPE   C1112792   1.706   1.114   6.462 -0.0006 -0.3811 -0.2317
  121SOPE  H11A12793   1.709   1.108   6.351 -2.6995 -1.5981 -0.3210
  121SOPE  H11B12794   1.642   1.027   6.489  0.3241 -0.7236 -0.5518
  121SOPE     P12795   1.967   1.062   6.471 -0.2839  0.4484 -0.0996
  121SOPE   O1312796   1.942   0.920   6.454 -0.5500  0.2462  0.3047
  121SOPE   O1412797   2.077   1.100   6.562 -1.0273  0.0096  0.1747
  121SOPE   O1212798   1.831   1.119   6.522  0.0258  0.0087 -0.2089
  121SOPE   O1112799   1.994   1.123   6.318 -0.0689 -0.0965 -0.5957
  121SOPE    C112800   2.084   1.046   6.240 -0.3212  0.2999  0.5548
  121SOPE    HA12801   2.135   0.962   6.292  0.1360  1.1285  1.4650
  121SOPE    HB12802   2.164   1.112   6.200 -0.7216  1.6423  1.8922
  121SOPE    C212803   2.021   0.986   6.112  0.4283 -0.8464  0.7113
  121SOPE    HS12804   2.105   0.939   6.056  0.5152  2.1021 -1.9124
  121SOPE   O2112805   1.948   1.094   6.047  0.0194  0.0533 -0.2770
  121SOPE   C2112806   2.012   1.154   5.950  0.1899 -0.2527  0.5110
  121SOPE   O2212807   2.128   1.135   5.918 -0.0258 -0.4389 -0.0300
  121SOPE   C2212808   1.915   1.254   5.890 -0.9931 -0.3988  0.3617
  121SOPE   H2R12809   1.879   1.325   5.967 -1.2091  1.1169 -1.0872
  121SOPE   H2S12810   1.831   1.195   5.848 -1.9411  1.3589 -0.3021
  121SOPE    C312811   1.913   0.879   6.141  0.4223  0.5562 -0.4158
  121SOPE    HX12812   1.818   0.926   6.175  1.3597  1.2478  1.3799
  121SOPE    HY12813   1.954   0.808   6.216 -0.1241  1.5311  0.8355
  121SOPE   O3112814   1.884   0.800   6.026  0.1525  0.1593  0.2334
  121SOPE   C3112815   1.786   0.713   6.041  0.3109 -0.9426 -0.5763
  121SOPE   O3212816   1.729   0.690   6.147 -0.2321 -0.0270 -0.2501
  121SOPE   C3212817   1.737   0.655   5.906  0.1882  0.1598  0.1626
  121SOPE   H2X12818   1.825   0.597   5.870 -0.0584 -0.6704  0.8751
  121SOPE   H2Y12819   1.710   0.743   5.844  1.9785  1.2356  0.8114
  121SOPE   C2312820   1.989   1.303   5.767 -0.4942 -1.0000  0.0631
  121SOPE   H3R12821   2.098   1.321   5.772 -0.8215  2.5302 -2.1381
  121SOPE   H3S12822   1.953   1.406   5.748  0.3093 -0.6791  0.2361
  121SOPE   C2412823   1.960   1.233   5.640 -0.7361  0.5825  0.2929
  121SOPE   H4R12824   1.988   1.129   5.670  0.0333  0.6141 -0.2848
  121SOPE   H4S12825   1.854   1.248   5.611 -0.1416  1.9227 -1.3797
  121SOPE   C2512826   2.046   1.276   5.524  0.2685 -0.0948 -0.0812
  121SOPE   H5R12827   2.033   1.386   5.510  2.6019  0.3060  0.4809
  121SOPE   H5S12828   2.154   1.272   5.550  0.5603 -1.7452 -1.3670
  121SOPE   C2612829   2.023   1.208   5.395  0.0338 -0.0932  0.2115
  121SOPE   H6R12830   2.069   1.107   5.393 -1.8882 -1.0238  0.6182
  121SOPE   H6S12831   1.916   1.178   5.390  0.2902 -1.0218  0.0523
  121SOPE   C2712832   2.083   1.284   5.275  0.1472  0.2578  0.5103
  121SOPE   H7R12833   2.068   1.392   5.300  0.4164  0.3484  0.2775
  121SOPE   H7S12834   2.193   1.277   5.275  0.0777 -1.0935  0.5029
  121SOPE   C2812835   2.012   1.243   5.143 -0.1310  0.5413 -0.0461
  121SOPE   H8R12836   1.902   1.239   5.156 -0.3944  1.5821 -1.6644
  121SOPE   H8S12837   2.023   1.332   5.078 -2.5256  0.4725 -0.6162
  121SOPE   C2912838   2.069   1.114   5.078  0.4427  0.5429  0.4529
  121SOPE   H9112839   2.065   1.026   5.143  1.3104 -0.0856 -0.3144
  121SOPE  C21012840   2.114   1.109   4.953 -0.0978 -0.0735 -0.5007
  121SOPE  H10112841   2.132   1.009   4.913  0.3705  0.0538 -0.6101
  121SOPE  C21112842   2.125   1.218   4.851  0.1011  0.5304 -0.2416
  121SOPE  H11R12843   2.231   1.226   4.820 -0.0069  0.0093 -0.7654
  121SOPE  H11S12844   2.095   1.314   4.898  0.2282  0.0602  0.8227
  121SOPE  C21212845   2.049   1.189   4.718  0.0132 -0.0548 -0.2553
  121SOPE  H12R12846   2.094   1.233   4.626  0.7579 -0.3446 -0.0414
  121SOPE  H12S12847   1.951   1.237   4.738  0.2508  0.6404 -0.7257
  121SOPE  C21312848   2.038   1.035   4.688  0.0377 -0.5849 -0.2581
  121SOPE  H13R12849   1.952   0.985   4.736 -1.2283  0.3305 -1.5078
  121SOPE  H13S12850   2.133   0.985   4.719  0.7796  1.4188  0.8933
  121SOPE  C21412851   2.017   1.016   4.536  0.4353 -0.9551 -0.6481
  121SOPE  H14R12852   2.102   1.067   4.486  0.3933  0.8554  1.0260
  121SOPE  H14S12853   1.927   1.071   4.501  0.5725 -0.3591 -0.0868
  121SOPE  C21512854   2.021   0.872   4.478  0.3477  0.2453 -0.3624
  121SOPE  H15R12855   2.122   0.827   4.490  0.9611  1.6720  0.1098
  121SOPE  H15S12856   2.006   0.891   4.369  1.4425 -1.5892 -0.8742
  121SOPE  C21612857   1.898   0.784   4.513  0.3612  0.2039 -0.1082
  121SOPE  H16R12858   1.891   0.708   4.432  1.8585 -0.2836  0.1913
  121SOPE  H16S12859   1.809   0.850   4.501  0.8402  0.7504 -0.8045
  121SOPE  C21712860   1.919   0.712   4.638  1.0608  0.5302  0.7050
  121SOPE  H17R12861   1.897   0.779   4.724  1.2985  1.7891 -0.1946
  121SOPE  H17S12862   2.019   0.667   4.655  0.5328 -1.1229 -0.3627
  121SOPE  C21812863   1.815   0.601   4.660 -0.4877 -0.6347 -0.1127
  121SOPE  H18R12864   1.832   0.537   4.571 -0.0429  2.3242 -2.3350
  121SOPE  H18S12865   1.713   0.643   4.657 -0.5615 -0.7567  0.5702
  121SOPE  H18T12866   1.834   0.542   4.752  1.0975 -2.0317 -1.2847
  121SOPE   C3312867   1.606   0.572   5.923 -1.3069 -0.1402 -0.0569
  121SOPE   H3X12868   1.542   0.610   6.005  2.1775  1.7098  2.0579
  121SOPE   H3Y12869   1.648   0.480   5.969  3.3011  1.9486  0.4040
  121SOPE   C3412870   1.538   0.557   5.792 -0.1731  0.2854  0.1955
  121SOPE   H4X12871   1.519   0.655   5.745 -0.7789 -1.1052 -2.7161
  121SOPE   H4Y12872   1.434   0.518   5.792 -0.7764  1.7630 -1.5737
  121SOPE   C3512873   1.611   0.475   5.689 -0.5123 -0.0867 -0.0393
  121SOPE   H5X12874   1.609   0.368   5.719 -1.5136 -0.3365 -0.9508
  121SOPE   H5Y12875   1.720   0.498   5.689 -0.3925 -0.4562  1.9779
  121SOPE   C3612876   1.555   0.490   5.549 -0.3206 -0.1683 -0.4359
  121SOPE   H6X12877   1.567   0.592   5.508  1.4365  0.0374  0.5194
  121SOPE   H6Y12878   1.447   0.470   5.565  0.5233 -2.3294  3.8622
  121SOPE   C3712879   1.597   0.381   5.444 -0.5049  0.2953  0.0333
  121SOPE   H7X12880   1.595   0.283   5.495 -2.6573  0.6755  0.8115
  121SOPE   H7Y12881   1.694   0.392   5.390 -2.1634  2.6585 -2.8103
  121SOPE   C3812882   1.497   0.383   5.329  0.0051  0.1021 -0.1908
  121SOPE   H8X12883   1.459   0.478   5.287  0.1593 -0.1063 -0.8096
  121SOPE   H8Y12884   1.408   0.331   5.371  0.4492  0.4108  1.1993
  121SOPE   C3912885   1.548   0.307   5.207  0.3296  0.1478  0.3159
  121SOPE   H9X12886   1.562   0.199   5.231 -0.9348 -0.3621 -1.0486
  121SOPE   H9Y12887   1.641   0.347   5.161 -0.8028  1.0456 -1.2674
  121SOPE  C31012888   1.459   0.312   5.087 -0.0017  0.2267  0.6997
  121SOPE  H10X12889   1.353   0.312   5.121 -1.2113 -2.1497 -2.5117
  121SOPE  H10Y12890   1.473   0.223   5.022 -0.9499  1.3400 -1.1295
  121SOPE  C31112891   1.478   0.438   5.008  0.5369  0.4664 -0.1374
  121SOPE  H11X12892   1.557   0.415   4.934 -1.9690 -2.4718 -2.2008
  121SOPE  H11Y12893   1.518   0.513   5.079  2.9128 -2.9698  2.4677
  121SOPE  C31212894   1.354   0.489   4.944 -0.0566 -0.2005 -0.3286
  121SOPE  H12X12895   1.268   0.487   5.014 -0.5756 -2.4845 -0.9759
  121SOPE  H12Y12896   1.328   0.419   4.862  0.2262 -1.3783  0.5600
  121SOPE  C31312897   1.375   0.628   4.890 -0.1091 -0.2986  0.1499
  121SOPE  H13X12898   1.448   0.636   4.807  0.4462 -0.6838  0.5925
  121SOPE  H13Y12899   1.424   0.695   4.964  2.6715 -3.6565  1.6299
  121SOPE  C31412900   1.250   0.686   4.828 -0.3093  0.3605  0.0456
  121SOPE  H14X12901   1.256   0.793   4.799  1.0899 -0.0761 -1.4160
  121SOPE  H14Y12902   1.172   0.679   4.907  0.0430  1.4782  0.5106
  121SOPE  C31512903   1.208   0.597   4.711 -0.5020 -0.0181 -0.2485
  121SOPE  H15X12904   1.168   0.503   4.755 -0.8147 -0.5771 -1.6818
  121SOPE  H15Y12905   1.297   0.572   4.650 -1.4138 -1.8788 -0.9069
  121SOPE  C31612906   1.111   0.656   4.612 -0.3775 -0.3877  0.1385
  121SOPE  H16X12907   1.136   0.760   4.581  1.7390 -0.5366  1.1674
  121SOPE  H16Y12908   1.012   0.655   4.663 -0.8381 -0.9409 -0.7432
  121SOPE  C31712909   1.083   0.584   4.484 -0.2250 -0.5627  0.3110
  121SOPE  H17X12910   0.983   0.613   4.445 -0.1627 -0.2747  0.3667
  121SOPE  H17Y12911   1.068   0.475   4.504 -0.1435 -0.4907  0.7764
  121SOPE  C31812912   1.185   0.607   4.373 -0.1711 -0.1203 -0.6301
  121SOPE  H18X12913   1.282   0.582   4.420  0.0369 -1.3551 -1.6700
  121SOPE  H18Y12914   1.183   0.713   4.339 -0.4525  0.6011  1.4840
  121SOPE  H18Z12915   1.175   0.538   4.287 -2.9605  0.4893 -0.8904
  122SOPE     N12916   1.473   1.725   7.158 -0.1991  0.2418  0.4239
  122SOPE   HN112917   1.538   1.805   7.171  1.9797 -1.4219  0.3170
  122SOPE   HN212918   1.411   1.704   7.239 -0.8507 -2.5610 -0.6986
  122SOPE   HN312919   1.523   1.636   7.138 -0.5415 -0.0950  1.0397
  122SOPE   C1212920   1.396   1.747   7.031  0.1038 -0.0219 -0.4234
  122SOPE  H12A12921   1.319   1.824   7.053 -0.0003 -0.5300  1.0790
  122SOPE  H12B12922   1.342   1.652   7.012 -2.0336  1.5356 -2.7543
  122SOPE   C1112923   1.491   1.801   6.921 -1.1860 -0.3057  0.1149
  122SOPE  H11A12924   1.546   1.879   6.977 -1.2523  0.1614 -0.4685
  122SOPE  H11B12925   1.446   1.845   6.830  0.8774  1.5421 -0.0969
  122SOPE     P12926   1.546   1.617   6.748  0.0313 -0.0232  0.2144
  122SOPE   O1312927   1.405   1.564   6.747  0.0599  0.1599 -0.0843
  122SOPE   O1412928   1.652   1.515   6.707  0.7850 -0.3389 -0.1155
  122SOPE   O1212929   1.579   1.688   6.893  0.0822 -0.1222  0.0886
  122SOPE   O1112930   1.557   1.745   6.656 -0.5435 -0.2922  0.1802
  122SOPE    C112931   1.680   1.820   6.629  0.2985 -0.4665 -0.3058
  122SOPE    HA12932   1.765   1.772   6.682  1.2552  0.5206 -0.8891
  122SOPE    HB12933   1.673   1.929   6.651 -0.0209 -0.7850  1.2653
  122SOPE    C212934   1.710   1.814   6.478  0.1468  0.5872 -0.3999
  122SOPE    HS12935   1.818   1.842   6.474  0.1760  0.4628 -0.4968
  122SOPE   O2112936   1.619   1.911   6.421 -0.3192  0.6023  0.1768
  122SOPE   C2112937   1.661   1.971   6.316  0.5561  0.1175  0.3598
  122SOPE   O2212938   1.774   1.968   6.270 -0.2721 -0.6590 -0.6852
  122SOPE   C2212939   1.561   2.075   6.274  0.4414  0.4001 -0.1049
  122SOPE   H2R12940   1.579   2.158   6.346  1.3812  0.0833  0.0343
  122SOPE   H2S12941   1.458   2.037   6.288  0.3551  1.5319  3.1277
  122SOPE    C312942   1.689   1.673   6.410  0.4885  0.5200  0.0094
  122SOPE    HX12943   1.581   1.652   6.424  0.3352  1.8280  1.0144
  122SOPE    HY12944   1.750   1.600   6.468  1.1968  1.5509  0.5911
  122SOPE   O3112945   1.727   1.671   6.264  0.0600  0.1894  0.2488
  122SOPE   C3112946   1.746   1.553   6.203 -0.1677 -0.6349  0.8236
  122SOPE   O3212947   1.727   1.447   6.253  0.4196  0.4818 -0.4053
  122SOPE   C3212948   1.789   1.578   6.061  0.2454  0.2458  0.2709
  122SOPE   H2X12949   1.745   1.490   6.009 -0.1793 -1.1072  2.7982
  122SOPE   H2Y12950   1.899   1.578   6.045  0.0336 -0.9881 -1.5351
  122SOPE   C2312951   1.564   2.115   6.122  0.0610 -0.6062 -0.1369
  122SOPE   H3R12952   1.671   2.134   6.098  0.4908 -1.6459  0.8521
  122SOPE   H3S12953   1.511   2.212   6.131  1.6180  0.0787  3.2254
  122SOPE   C2412954   1.503   2.018   6.024  0.2160 -0.9495 -0.0214
  122SOPE   H4R12955   1.563   1.925   6.029  0.6819 -0.7244 -1.1272
  122SOPE   H4S12956   1.403   1.992   6.065  0.0101 -2.1535 -1.2084
  122SOPE   C2512957   1.510   2.072   5.876 -0.8089 -0.5297  0.4214
  122SOPE   H5R12958   1.449   2.165   5.867  0.7304  0.4311 -0.5987
  122SOPE   H5S12959   1.614   2.102   5.851 -0.6707 -2.7561 -2.1045
  122SOPE   C2612960   1.460   1.975   5.765  0.0077 -0.2242 -0.2819
  122SOPE   H6R12961   1.533   1.891   5.761 -1.7216 -1.7763 -0.7003
  122SOPE   H6S12962   1.370   1.915   5.791 -1.4349  1.5533 -0.9781
  122SOPE   C2712963   1.451   2.036   5.625  0.2238  0.1471 -1.1692
  122SOPE   H7R12964   1.385   2.125   5.619 -0.9047 -0.6712 -1.1949
  122SOPE   H7S12965   1.553   2.077   5.610  0.4985 -0.1648 -0.2666
  122SOPE   C2812966   1.422   1.938   5.507  0.6806 -0.1211  0.3628
  122SOPE   H8R12967   1.521   1.893   5.484  0.6308 -0.3120  0.5193
  122SOPE   H8S12968   1.356   1.854   5.538  0.5540 -0.3550 -0.4969
  122SOPE   C2912969   1.364   2.006   5.382  0.1570  0.4532  0.3883
  122SOPE   H9112970   1.283   2.077   5.404 -0.1868  0.1727  0.0348
  122SOPE  C21012971   1.397   1.974   5.256  0.2651  0.5596  0.5106
  122SOPE  H10112972   1.358   2.035   5.173  1.5415  2.6624  1.3890
  122SOPE  C21112973   1.503   1.874   5.220  0.0398  0.4650 -0.1205
  122SOPE  H11R12974   1.543   1.828   5.313 -0.2197  0.6895  0.1051
  122SOPE  H11S12975   1.583   1.930   5.167  0.0359 -0.4368 -1.1058
  122SOPE  C21212976   1.446   1.776   5.116 -0.0986 -0.2177 -0.0946
  122SOPE  H12R12977   1.423   1.830   5.022 -0.9886  0.3145  0.4176
  122SOPE  H12S12978   1.351   1.734   5.155 -0.8069 -1.2839 -2.7362
  122SOPE  C21312979   1.542   1.665   5.075  0.5372  0.3924 -0.6279
  122SOPE  H13R12980   1.649   1.694   5.083  0.9048 -1.2063  0.7901
  122SOPE  H13S12981   1.523   1.637   4.969  0.7849  2.2100 -1.1850
  122SOPE  C21412982   1.522   1.542   5.163 -0.0086  0.7572  0.2837
  122SOPE  H14R12983   1.420   1.503   5.141  0.4557 -0.2505 -0.1714
  122SOPE  H14S12984   1.535   1.560   5.272 -2.0187 -0.0532  0.7054
  122SOPE  C21512985   1.620   1.437   5.101 -0.0334  0.9712  0.5656
  122SOPE  H15R12986   1.720   1.482   5.113  0.2853 -0.1294  2.4412
  122SOPE  H15S12987   1.606   1.427   4.991  1.1116 -2.4123  0.6180
  122SOPE  C21612988   1.599   1.290   5.158 -0.2831  0.0985 -0.1323
  122SOPE  H16R12989   1.650   1.233   5.077 -2.4262 -0.7360 -0.9760
  122SOPE  H16S12990   1.490   1.274   5.166 -0.2770  0.3806  0.5574
  122SOPE  C21712991   1.662   1.259   5.287 -0.6228 -0.3259 -0.6916
  122SOPE  H17R12992   1.747   1.329   5.296  0.5836 -1.6780 -1.1997
  122SOPE  H17S12993   1.707   1.157   5.295 -3.5235 -1.7779 -1.3787
  122SOPE  C21812994   1.577   1.266   5.415 -0.1693  0.1925  0.0006
  122SOPE  H18R12995   1.527   1.365   5.404 -2.9436 -1.1919 -1.0503
  122SOPE  H18S12996   1.637   1.267   5.508  1.0095 -2.1401 -0.6607
  122SOPE  H18T12997   1.509   1.179   5.423  0.8638 -0.7970 -1.4929
  122SOPE   C3312998   1.723   1.701   5.994 -0.3091  0.3340 -0.6386
  122SOPE   H3X12999   1.749   1.792   6.053 -0.4851 -0.7474  1.1626
  122SOPE   H3Y13000   1.613   1.691   6.007 -0.0563 -1.6697  0.2927
  122SOPE   C3413001   1.755   1.726   5.848 -0.3753 -0.0749 -0.0960
  122SOPE   H4X13002   1.863   1.700   5.842 -0.4607 -0.7691  1.0661
  122SOPE   H4Y13003   1.733   1.830   5.815 -0.7939 -0.5720 -1.4377
  122SOPE   C3513004   1.691   1.620   5.755 -0.1183 -0.5070 -0.3225
  122SOPE   H5X13005   1.585   1.652   5.751  0.6949  2.5824  0.1817
  122SOPE   H5Y13006   1.705   1.520   5.802  0.4422 -0.3655 -0.1699
  122SOPE   C3613007   1.758   1.613   5.611  0.3197 -0.1984 -0.6904
  122SOPE   H6X13008   1.713   1.533   5.550 -1.2538  0.0537  0.0953
  122SOPE   H6Y13009   1.865   1.598   5.636  0.5093  3.0568  0.9725
  122SOPE   C3713010   1.740   1.744   5.527  0.4539 -0.5733  0.2429
  122SOPE   H7X13011   1.720   1.827   5.599  1.7311  0.5671 -0.6619
  122SOPE   H7Y13012   1.652   1.729   5.461  0.2836 -0.2758  0.3972
  122SOPE   C3813013   1.868   1.787   5.444  0.1677  0.3719 -0.2401
  122SOPE   H8X13014   1.959   1.790   5.508 -0.1517  1.2484  0.1968
  122SOPE   H8Y13015   1.857   1.889   5.400  1.9211  1.8851  2.5516
  122SOPE   C3913016   1.891   1.688   5.324 -0.2642  0.3883 -0.0063
  122SOPE   H9X13017   1.802   1.665   5.261  0.2302 -0.6077 -0.3653
  122SOPE   H9Y13018   1.923   1.585   5.352 -0.5205  0.7850  1.8785
  122SOPE  C31013019   2.008   1.733   5.234 -0.1238 -0.0781 -0.0154
  122SOPE  H10X13020   2.103   1.695   5.278 -0.5997 -0.0027  1.1125
  122SOPE  H10Y13021   2.010   1.843   5.221 -0.3202  0.3921  3.1527
  122SOPE  C31113022   1.980   1.664   5.103 -0.5458 -0.3167 -0.5378
  122SOPE  H11X13023   1.893   1.718   5.059 -0.2563  0.0268 -0.6900
  122SOPE  H11Y13024   1.951   1.557   5.116  0.4443 -0.5000  0.2706
  122SOPE  C31213025   2.105   1.671   5.012 -0.2013 -0.3888 -0.1531
  122SOPE  H12X13026   2.191   1.626   5.066  1.0713  2.4615  0.3603
  122SOPE  H12Y13027   2.127   1.779   5.005  1.8870 -0.7065  0.9150
  122SOPE  C31313028   2.079   1.610   4.879  0.6245  0.1803  0.0006
  122SOPE  H13X13029   2.000   1.671   4.831 -1.0782 -0.0154  2.3685
  122SOPE  H13Y13030   2.039   1.507   4.890  0.0038  0.4055 -0.1009
  122SOPE  C31413031   2.205   1.608   4.798  0.3926  1.1614 -0.3179
  122SOPE  H14X13032   2.188   1.550   4.705  0.3692 -0.1226  0.4650
  122SOPE  H14Y13033   2.272   1.543   4.858  0.5422  0.2673 -1.4109
  122SOPE  C31513034   2.270   1.744   4.754  0.2440  0.2738 -0.4926
  122SOPE  H15X13035   2.305   1.797   4.845 -0.9773  1.3721 -0.6267
  122SOPE  H15Y13036   2.189   1.804   4.707 -0.6853 -2.0513 -2.0551
  122SOPE  C31613037   2.393   1.734   4.671  0.1947 -0.1394 -0.1427
  122SOPE  H16X13038   2.440   1.834   4.667 -1.9816  1.1119  2.2591
  122SOPE  H16Y13039   2.367   1.711   4.565 -0.6869 -0.9551  0.2352
  122SOPE  C31713040   2.492   1.630   4.719 -0.0601  0.7473 -0.4564
  122SOPE  H17X13041   2.454   1.529   4.695 -1.3326  0.9382  0.6054
  122SOPE  H17Y13042   2.503   1.625   4.830 -0.9978  1.0130 -0.3450
  122SOPE  C31813043   2.632   1.630   4.645  0.8654 -0.1007  0.1129
  122SOPE  H18X13044   2.700   1.545   4.668  1.1369 -0.2554 -1.1835
  122SOPE  H18Y13045   2.675   1.732   4.654 -0.6221  0.4692  0.9796
  122SOPE  H18Z13046   2.621   1.630   4.534  1.6114 -0.4514  0.0280
  123SOPE     N13047   5.397   0.853   2.273 -0.4461 -0.4732 -0.1799
  123SOPE   HN113048   5.377   0.952   2.298  0.8412  0.8056 -3.6635
  123SOPE   HN213049   5.326   0.838   2.199 -0.9791 -0.2065  0.2665
  123SOPE   HN313050   5.376   0.793   2.356 -0.0370 -1.0105 -0.4580
  123SOPE   C1213051   5.539   0.824   2.229  0.2137 -0.8093 -0.4886
  123SOPE  H12A13052   5.584   0.903   2.164 -1.4796 -1.5087 -2.6303
  123SOPE  H12B13053   5.542   0.730   2.169  0.0367 -2.0552  1.3974
  123SOPE   C1113054   5.625   0.797   2.358  0.4867  0.0909 -0.5759
  123SOPE  H11A13055   5.731   0.779   2.330  0.1214 -0.2409 -1.7954
  123SOPE  H11B13056   5.593   0.698   2.398  2.3472  0.5169  2.2803
  123SOPE     P13057   5.693   1.033   2.437 -0.1174 -0.5787  0.1990
  123SOPE   O1313058   5.622   1.143   2.505  0.6030 -0.0144 -0.3232
  123SOPE   O1413059   5.716   1.051   2.293 -0.7894 -0.0344  0.3068
  123SOPE   O1213060   5.610   0.900   2.457  0.3136 -0.4006 -1.0546
  123SOPE   O1113061   5.833   1.002   2.505  0.6059  0.0538  0.1221
  123SOPE    C113062   5.870   0.901   2.595 -0.6819 -0.1474  0.1648
  123SOPE    HA13063   5.944   0.836   2.543 -2.8633 -2.4665 -0.2032
  123SOPE    HB13064   5.784   0.834   2.614  1.3730 -3.4200 -1.3288
  123SOPE    C213065   5.919   0.960   2.732  0.3190  0.4679 -0.3081
  123SOPE    HS13066   5.939   0.872   2.798  0.5570 -0.9301 -2.1422
  123SOPE   O2113067   5.830   1.065   2.787 -0.6112 -0.3954  0.2705
  123SOPE   C2113068   5.719   1.019   2.836 -0.1106 -0.2583  0.5430
  123SOPE   O2213069   5.680   0.904   2.837  0.1548 -0.3854  0.0374
  123SOPE   C2213070   5.646   1.139   2.898  0.2017  0.4833 -0.0606
  123SOPE   H2R13071   5.536   1.129   2.886  0.0559 -0.2180  1.6624
  123SOPE   H2S13072   5.674   1.230   2.841  1.2215  0.0110 -0.3334
  123SOPE    C313073   6.054   1.016   2.712  0.1399 -0.3488  0.6605
  123SOPE    HX13074   6.050   1.104   2.645 -1.3504  1.2626  2.7391
  123SOPE    HY13075   6.120   0.946   2.657 -0.1172 -0.3521  0.3564
  123SOPE   O3113076   6.108   1.052   2.837 -0.3693 -0.1826  0.1680
  123SOPE   C3113077   6.090   1.183   2.867  0.4182 -0.1916  0.5716
  123SOPE   O3213078   6.056   1.269   2.787 -0.5203 -0.1885 -0.0977
  123SOPE   C3213079   6.122   1.205   3.014  0.1349  0.2858 -0.3499
  123SOPE   H2X13080   6.231   1.219   3.032  0.0643 -0.2791  0.5608
  123SOPE   H2Y13081   6.066   1.125   3.067 -1.9559  1.4028 -0.7729
  123SOPE   C2313082   5.688   1.145   3.045  0.0437  0.0635  0.1492
  123SOPE   H3R13083   5.635   1.231   3.091 -2.3092 -0.8224 -0.7328
  123SOPE   H3S13084   5.797   1.152   3.064 -0.3201  1.5262  1.9591
  123SOPE   C2413085   5.623   1.027   3.132 -0.0815  0.1702 -0.5925
  123SOPE   H4R13086   5.517   1.017   3.101 -0.4320  3.8578 -1.0484
  123SOPE   H4S13087   5.677   0.934   3.105  0.4232  0.6755 -1.3586
  123SOPE   C2513088   5.635   1.066   3.281 -0.0085 -0.1860  0.4445
  123SOPE   H5R13089   5.738   1.098   3.309  0.1697 -0.6312  0.3157
  123SOPE   H5S13090   5.562   1.146   3.304 -0.1341 -0.6472  1.7557
  123SOPE   C2613091   5.579   0.958   3.381 -0.0445  0.8223  0.3226
  123SOPE   H6R13092   5.614   0.854   3.362  0.6247  1.3354 -1.4495
  123SOPE   H6S13093   5.630   0.982   3.476  2.3396  0.7482 -0.8664
  123SOPE   C2713094   5.432   0.958   3.401 -0.5133 -0.1317  0.5055
  123SOPE   H7R13095   5.392   1.062   3.394 -1.8526 -0.7232 -1.1877
  123SOPE   H7S13096   5.375   0.907   3.320 -1.1125  2.0645 -0.5354
  123SOPE   C2813097   5.389   0.890   3.534 -0.0971 -0.1179 -0.1561
  123SOPE   H8R13098   5.278   0.892   3.537 -0.0913 -0.9374  1.4749
  123SOPE   H8S13099   5.426   0.785   3.538 -0.0383 -0.0756  0.5944
  123SOPE   C2913100   5.451   0.971   3.648 -0.5395 -1.0324  0.3151
  123SOPE   H9113101   5.476   1.074   3.618 -0.6745 -1.7055 -2.3399
  123SOPE  C21013102   5.487   0.927   3.769  0.2687 -0.0641  0.1653
  123SOPE  H10113103   5.540   0.988   3.844 -1.7610  1.4768  0.4271
  123SOPE  C21113104   5.468   0.782   3.818  0.4152  0.4472  0.3480
  123SOPE  H11R13105   5.555   0.719   3.847  0.2146 -0.7512 -1.5251
  123SOPE  H11S13106   5.407   0.720   3.748 -0.1252 -1.3223  2.2640
  123SOPE  C21213107   5.366   0.777   3.939  0.2261 -0.4303  0.3377
  123SOPE  H12R13108   5.347   0.671   3.964 -2.8086  0.0909  0.5793
  123SOPE  H12S13109   5.269   0.817   3.903  0.6054  0.6563  0.4810
  123SOPE  C21313110   5.424   0.839   4.069  0.7171  0.0798 -0.4525
  123SOPE  H13R13111   5.422   0.949   4.053 -0.4339 -0.0356 -1.1543
  123SOPE  H13S13112   5.523   0.791   4.086  0.2929 -0.3987  0.7803
  123SOPE  C21413113   5.344   0.790   4.193  0.3504 -0.6830  0.3510
  123SOPE  H14R13114   5.402   0.840   4.274 -0.0300 -1.4459  1.1077
  123SOPE  H14S13115   5.354   0.681   4.210 -1.8254 -1.0615 -0.4295
  123SOPE  C21513116   5.196   0.832   4.202  0.6305  0.1406  0.5288
  123SOPE  H15R13117   5.153   0.770   4.284 -0.6969  3.1829  2.3048
  123SOPE  H15S13118   5.148   0.785   4.114  0.3001  0.3925  0.5713
  123SOPE  C21613119   5.163   0.976   4.226  0.4499 -0.1390 -0.2742
  123SOPE  H16R13120   5.154   1.041   4.136  0.7047 -0.5820 -0.6230
  123SOPE  H16S13121   5.244   1.019   4.289 -0.0070  2.7807 -1.5074
  123SOPE  C21713122   5.031   0.994   4.301  0.5913 -0.0474 -0.2861
  123SOPE  H17R13123   5.033   0.917   4.381  0.0376 -0.4966 -0.6908
  123SOPE  H17S13124   4.935   0.977   4.247  0.6447  0.0109 -0.3994
  123SOPE  C21813125   5.000   1.132   4.358 -0.3938  0.7566 -0.0916
  123SOPE  H18R13126   4.903   1.125   4.413 -0.1090 -3.2607  0.2393
  123SOPE  H18S13127   4.993   1.207   4.277  0.5832 -1.1991 -2.1138
  123SOPE  H18T13128   5.081   1.161   4.428  2.8773 -0.6989 -2.9364
  123SOPE   C3313129   6.042   1.324   3.065  0.0406 -0.2286 -0.1101
  123SOPE   H3X13130   5.946   1.341   3.011 -0.8277 -3.6609  0.1363
  123SOPE   H3Y13131   6.096   1.420   3.052  1.6028 -1.2483 -1.6218
  123SOPE   C3413132   6.008   1.307   3.216  1.0493 -0.0655  0.4736
  123SOPE   H4X13133   6.108   1.309   3.264  1.3914 -0.3132 -0.2054
  123SOPE   H4Y13134   5.962   1.209   3.239  0.0647  0.5184  1.0803
  123SOPE   C3513135   5.919   1.423   3.266  0.4408  0.0379 -0.0623
  123SOPE   H5X13136   5.821   1.423   3.214 -0.1136 -1.4883  0.9018
  123SOPE   H5Y13137   5.960   1.524   3.244 -1.6359  0.6689 -1.3762
  123SOPE   C3613138   5.896   1.440   3.416 -0.7551  0.0527 -0.0365
  123SOPE   H6X13139   5.842   1.537   3.427 -0.6006  0.1285  0.0433
  123SOPE   H6Y13140   5.994   1.456   3.465 -0.2961  0.6628 -1.1018
  123SOPE   C3713141   5.834   1.323   3.497 -0.3654  0.0312 -0.3550
  123SOPE   H7X13142   5.906   1.239   3.498 -1.4499 -1.0210 -2.4976
  123SOPE   H7Y13143   5.744   1.290   3.441 -1.5509  0.1787  1.3818
  123SOPE   C3813144   5.804   1.359   3.639 -1.0146 -0.0448  0.0531
  123SOPE   H8X13145   5.729   1.441   3.634 -0.3381  0.5210 -1.3941
  123SOPE   H8Y13146   5.896   1.401   3.686 -0.7313  1.0828 -1.4423
  123SOPE   C3913147   5.752   1.246   3.727 -0.1313  0.9987 -0.3334
  123SOPE   H9X13148   5.838   1.182   3.753 -0.7356  0.2984 -0.0105
  123SOPE   H9Y13149   5.678   1.180   3.677 -0.1349 -0.5237  1.5649
  123SOPE  C31013150   5.698   1.288   3.864  0.0493 -0.2307  0.5337
  123SOPE  H10X13151   5.746   1.379   3.906 -0.6410  0.2692  0.2509
  123SOPE  H10Y13152   5.719   1.208   3.938  0.6863 -1.0376 -0.4845
  123SOPE  C31113153   5.550   1.329   3.851  0.3307 -0.7455  0.4505
  123SOPE  H11X13154   5.489   1.267   3.782  0.2543 -3.4441  2.7792
  123SOPE  H11Y13155   5.541   1.435   3.817 -1.6356 -0.6532  1.1697
  123SOPE  C31213156   5.493   1.327   3.988  0.3634 -0.1846 -0.0015
  123SOPE  H12X13157   5.563   1.376   4.059  1.3897 -0.1879 -0.9974
  123SOPE  H12Y13158   5.489   1.224   4.029 -2.4442 -0.3077 -0.4019
  123SOPE  C31313159   5.358   1.389   3.992 -0.2508 -0.4451 -0.3397
  123SOPE  H13X13160   5.283   1.320   3.948 -2.4114  0.6456  1.4197
  123SOPE  H13Y13161   5.371   1.482   3.932  0.5900 -0.6565 -0.4918
  123SOPE  C31413162   5.311   1.411   4.137  0.5371  0.3385 -0.5683
  123SOPE  H14X13163   5.395   1.461   4.189  1.7609 -1.2601 -0.9149
  123SOPE  H14Y13164   5.306   1.306   4.172 -1.0452  0.1768 -1.1757
  123SOPE  C31513165   5.172   1.466   4.161 -0.7512  0.2984 -0.0461
  123SOPE  H15X13166   5.151   1.455   4.269 -0.8126  0.4379 -0.0426
  123SOPE  H15Y13167   5.092   1.410   4.107 -0.0626  1.1805 -2.0846
  123SOPE  C31613168   5.164   1.614   4.115 -0.2818  0.2141  0.2672
  123SOPE  H16X13169   5.225   1.629   4.023 -0.8597  3.5895  0.3125
  123SOPE  H16Y13170   5.214   1.673   4.195 -0.9418  2.0621 -0.6438
  123SOPE  C31713171   5.026   1.683   4.101 -0.5150  0.2923 -0.5602
  123SOPE  H17X13172   4.980   1.636   4.011  1.7398 -0.5034 -1.3848
  123SOPE  H17Y13173   5.039   1.792   4.090  1.8220  0.2762  1.2537
  123SOPE  C31813174   4.930   1.660   4.224  0.7305  0.2447  0.5754
  123SOPE  H18X13175   4.973   1.694   4.321 -1.1561 -1.7567  2.2332
  123SOPE  H18Y13176   4.904   1.552   4.224 -0.1144  0.4368  0.6938
  123SOPE  H18Z13177   4.842   1.726   4.207  1.7884  1.9733  1.5285
  124SOPE     N13178   0.888   3.466   2.487 -0.3535  0.4195  0.1788
  124SOPE   HN113179   0.919   3.525   2.407 -1.6802  1.7791  0.6140
  124SOPE   HN213180   0.943   3.477   2.574 -1.1907  1.2680  0.6309
  124SOPE   HN313181   0.894   3.366   2.460  0.6750  0.4636  0.2216
  124SOPE   C1213182   0.737   3.495   2.506 -0.8530 -0.3029  0.2444
  124SOPE  H12A13183   0.699   3.530   2.407 -1.0104 -2.1797 -0.3866
  124SOPE  H12B13184   0.740   3.581   2.577  0.2813 -0.4688  0.4211
  124SOPE   C1113185   0.667   3.366   2.557 -0.7190  0.2271 -0.1341
  124SOPE  H11A13186   0.708   3.277   2.505 -0.9592  0.4903 -0.7764
  124SOPE  H11B13187   0.558   3.369   2.536 -0.7779 -2.5114 -0.4541
  124SOPE     P13188   0.597   3.235   2.776  0.3823 -0.1058 -0.3648
  124SOPE   O1313189   0.609   3.251   2.918 -0.1125  0.2024  0.1021
  124SOPE   O1413190   0.617   3.102   2.723 -0.0910 -0.1117 -0.2108
  124SOPE   O1213191   0.687   3.346   2.701  0.0193  0.0824  0.1568
  124SOPE   O1113192   0.444   3.273   2.749  0.4053 -0.3084  0.4384
  124SOPE    C113193   0.378   3.395   2.773  0.3009  0.0453 -0.1080
  124SOPE    HA13194   0.275   3.396   2.733  0.0133 -1.9949  0.4807
  124SOPE    HB13195   0.428   3.476   2.715 -1.4351  1.7252  0.6381
  124SOPE    C213196   0.359   3.445   2.914  0.5430 -0.8747  0.1554
  124SOPE    HS13197   0.456   3.470   2.962  0.1032  0.0563  0.5854
  124SOPE   O2113198   0.288   3.343   2.982 -0.0146  0.1787  0.6952
  124SOPE   C2113199   0.316   3.339   3.113  0.1841  0.0564 -0.2243
  124SOPE   O2213200   0.403   3.400   3.167  0.0278 -0.6959 -0.8444
  124SOPE   C2213201   0.234   3.229   3.180 -0.4314 -0.0449 -0.5118
  124SOPE   H2R13202   0.261   3.129   3.140 -0.5373 -0.6041  0.7696
  124SOPE   H2S13203   0.131   3.238   3.140 -0.7088  0.0392  0.2054
  124SOPE    C313204   0.278   3.582   2.911  0.2989  0.1170 -0.2151
  124SOPE    HX13205   0.174   3.555   2.886  1.1272 -3.4761 -0.3388
  124SOPE    HY13206   0.309   3.646   2.826 -2.6029  0.0072 -1.4551
  124SOPE   O3113207   0.297   3.659   3.032 -0.4146  0.0783 -0.5989
  124SOPE   C3113208   0.387   3.761   3.046 -0.3001  0.0833  0.1141
  124SOPE   O3213209   0.483   3.787   2.972  0.1598 -0.1792 -0.2881
  124SOPE   C3213210   0.364   3.825   3.185  0.1823  0.0174  0.6955
  124SOPE   H2X13211   0.255   3.828   3.207 -0.1067  0.5862 -0.7138
  124SOPE   H2Y13212   0.399   3.930   3.186 -2.2484  0.9199  2.3005
  124SOPE   C2313213   0.242   3.236   3.334 -0.9801 -0.2174  0.4536
  124SOPE   H3R13214   0.231   3.340   3.372 -2.4855  0.1252 -0.7860
  124SOPE   H3S13215   0.341   3.192   3.356 -1.7691 -2.5500 -0.3091
  124SOPE   C2413216   0.136   3.146   3.401  0.1692 -0.2055 -0.3338
  124SOPE   H4R13217   0.052   3.215   3.423  0.4084  0.2803 -0.9197
  124SOPE   H4S13218   0.103   3.061   3.337 -1.9525  0.9800 -0.9184
  124SOPE   C2513219   0.187   3.073   3.530  0.2840 -0.0071 -0.6155
  124SOPE   H5R13220   0.101   3.013   3.566  0.4390  0.4604  0.5969
  124SOPE   H5S13221   0.277   3.016   3.500  1.4567  0.9715  0.8654
  124SOPE   C2613222   0.210   3.165   3.651  0.4375 -0.2185  0.5001
  124SOPE   H6R13223   0.290   3.235   3.618  2.4476 -1.7222  1.9218
  124SOPE   H6S13224   0.116   3.221   3.668  0.5150 -0.2523  1.0819
  124SOPE   C2713225   0.254   3.098   3.786 -0.1920 -0.3797 -0.1681
  124SOPE   H7R13226   0.170   3.041   3.831 -1.4229  0.2853 -1.5217
  124SOPE   H7S13227   0.335   3.028   3.758  0.3779  0.4205 -0.5500
  124SOPE   C2813228   0.300   3.207   3.879 -0.0790  0.0950 -0.5313
  124SOPE   H8R13229   0.365   3.289   3.844  1.8350 -1.4488 -0.7204
  124SOPE   H8S13230   0.213   3.265   3.917  0.5923  0.9979 -0.3473
  124SOPE   C2913231   0.383   3.150   3.998  0.3617 -0.1168 -0.1484
  124SOPE   H9113232   0.482   3.121   3.962 -0.1844 -1.2514 -0.7945
  124SOPE  C21013233   0.358   3.133   4.131  0.2113  0.0907  0.2283
  124SOPE  H10113234   0.435   3.080   4.189  0.9210  1.3031  0.4150
  124SOPE  C21113235   0.215   3.139   4.192 -0.3895 -0.9833  0.5685
  124SOPE  H11R13236   0.172   3.038   4.208 -0.2946 -0.7670  2.4834
  124SOPE  H11S13237   0.147   3.195   4.123 -0.9093  0.0637  1.8786
  124SOPE  C21213238   0.195   3.215   4.325  0.2356  0.1205 -0.5025
  124SOPE  H12R13239   0.092   3.202   4.363 -1.0257  1.5401 -3.1932
  124SOPE  H12S13240   0.218   3.324   4.326  1.8247 -0.1065 -2.7883
  124SOPE  C21313241   0.289   3.148   4.428 -0.6444  0.0208  0.0334
  124SOPE  H13R13242   0.384   3.206   4.430 -0.2439 -0.5904 -0.8179
  124SOPE  H13S13243   0.313   3.041   4.408 -3.3282 -0.4451 -1.0530
  124SOPE  C21413244   0.246   3.173   4.573 -0.0006  0.2069  0.6677
  124SOPE  H14R13245   0.135   3.160   4.577  0.0078  0.2078  0.9721
  124SOPE  H14S13246   0.259   3.279   4.604 -1.2487 -0.2204  2.9069
  124SOPE  C21513247   0.320   3.089   4.682  0.0164 -0.0454 -0.2388
  124SOPE  H15R13248   0.273   3.107   4.781  1.0337  0.5221  0.1541
  124SOPE  H15S13249   0.426   3.122   4.688  0.1308 -0.1742 -1.4236
  124SOPE  C21613250   0.317   2.935   4.650 -0.4750 -0.2003 -0.0588
  124SOPE  H16R13251   0.367   2.926   4.551  0.0912 -1.0357  0.2918
  124SOPE  H16S13252   0.216   2.892   4.637 -0.2768 -0.2192 -1.6842
  124SOPE  C21713253   0.395   2.854   4.752  0.0937  0.8992 -0.9589
  124SOPE  H17R13254   0.493   2.894   4.785 -0.0894  2.0433 -1.7672
  124SOPE  H17S13255   0.416   2.752   4.712  1.3233  0.5579  0.4758
  124SOPE  C21813256   0.311   2.821   4.883  0.2861 -0.4840 -0.3509
  124SOPE  H18R13257   0.284   2.922   4.920 -0.1399  0.4509 -3.0027
  124SOPE  H18S13258   0.370   2.769   4.961  2.5205 -0.0440 -1.6698
  124SOPE  H18T13259   0.220   2.770   4.845  0.9310 -0.4607 -2.0290
  124SOPE   C3313260   0.437   3.755   3.301  0.2847  0.6937  0.8108
  124SOPE   H3X13261   0.544   3.749   3.272  0.2212  3.6110 -0.3127
  124SOPE   H3Y13262   0.399   3.654   3.328  2.7720 -0.7960 -0.8869
  124SOPE   C3413263   0.439   3.839   3.431 -0.2916 -0.4605  0.3915
  124SOPE   H4X13264   0.456   3.764   3.511 -0.5790 -1.2094 -0.2364
  124SOPE   H4Y13265   0.340   3.886   3.449  0.6574  1.3241  1.2374
  124SOPE   C3513266   0.547   3.956   3.444  0.2178  0.2583  0.2126
  124SOPE   H5X13267   0.534   4.018   3.353 -1.5367 -1.6860 -0.9492
  124SOPE   H5Y13268   0.650   3.913   3.439  0.6368  1.1688  0.6699
  124SOPE   C3613269   0.512   4.040   3.568  0.6203 -0.0072 -0.1604
  124SOPE   H6X13270   0.516   3.972   3.655 -0.2944 -0.1413 -0.2155
  124SOPE   H6Y13271   0.406   4.069   3.548  0.3431  0.1583  1.4154
  124SOPE   C3713272   0.598   4.165   3.589  0.3765 -0.5940 -1.2218
  124SOPE   H7X13273   0.568   4.235   3.508 -1.9774 -0.8853 -0.6817
  124SOPE   H7Y13274   0.706   4.143   3.582  0.3528 -0.5703 -1.7144
  124SOPE   C3813275   0.555   4.231   3.718 -0.2254  0.2997  0.3955
  124SOPE   H8X13276   0.449   4.213   3.746 -0.4670 -0.0212 -0.6682
  124SOPE   H8Y13277   0.557   4.342   3.709  0.6828  0.1697 -1.8902
  124SOPE   C3913278   0.641   4.168   3.831  0.1369 -0.1294 -0.1996
  124SOPE   H9X13279   0.739   4.213   3.805  0.0454  0.1055 -0.1467
  124SOPE   H9Y13280   0.641   4.057   3.830 -0.9557 -0.1307 -1.2168
  124SOPE  C31013281   0.587   4.217   3.966 -0.0682  0.8101 -0.0652
  124SOPE  H10X13282   0.480   4.190   3.959 -0.0922  0.6809  0.6932
  124SOPE  H10Y13283   0.596   4.326   3.986 -1.9336  0.9021  0.4214
  124SOPE  C31113284   0.635   4.137   4.083  0.1732 -0.2843  0.4483
  124SOPE  H11X13285   0.616   4.030   4.063 -0.9615  0.0736 -0.4833
  124SOPE  H11Y13286   0.577   4.168   4.172 -2.4771 -1.2078 -0.8533
  124SOPE  C31213287   0.784   4.163   4.119  0.7001 -0.6547 -0.4290
  124SOPE  H12X13288   0.791   4.272   4.136  2.0163 -0.7345 -0.3803
  124SOPE  H12Y13289   0.849   4.125   4.037  0.5476 -1.4431 -0.1924
  124SOPE  C31313290   0.826   4.089   4.245  0.0059  0.4101 -0.0967
  124SOPE  H13X13291   0.829   3.981   4.219  0.6902  0.5140 -0.4605
  124SOPE  H13Y13292   0.762   4.097   4.336  0.3587 -1.4551  0.3594
  124SOPE  C31413293   0.963   4.142   4.293  0.8758  0.1987  0.3900
  124SOPE  H14X13294   0.975   4.246   4.330  4.0691  0.8050 -1.8107
  124SOPE  H14Y13295   1.031   4.129   4.205  0.9679 -1.8377  0.7245
  124SOPE  C31513296   1.035   4.053   4.397  0.5322 -0.5507 -0.2218
  124SOPE  H15X13297   1.121   4.106   4.443  1.3557 -1.8111 -0.2623
  124SOPE  H15Y13298   1.070   3.958   4.352 -0.1586 -0.5086 -0.8707
  124SOPE  C31613299   0.944   4.010   4.524 -0.1917 -0.3730 -0.2112
  124SOPE  H16X13300   0.847   3.971   4.485  0.2393 -1.8057  0.0748
  124SOPE  H16Y13301   0.915   4.103   4.577 -0.5560 -0.5352 -0.1248
  124SOPE  C31713302   1.000   3.902   4.615  0.3464  0.3201  0.5409
  124SOPE  H17X13303   0.918   3.871   4.683 -0.5735  1.4366 -0.0115
  124SOPE  H17Y13304   1.074   3.945   4.686  1.6781  2.1496 -1.8175
  124SOPE  C31813305   1.058   3.773   4.555  0.8679 -0.1376 -0.4631
  124SOPE  H18X13306   0.978   3.709   4.513  0.0983  0.6966 -0.3150
  124SOPE  H18Y13307   1.123   3.722   4.629  1.1081  1.6679  0.6324
  124SOPE  H18Z13308   1.129   3.806   4.476  1.8502  1.5334  1.0412
  125SOPE     N13309   3.346   4.102   2.718 -0.0144  0.4086  0.2231
  125SOPE   HN113310   3.342   4.007   2.676 -0.7046  1.1262 -1.4065
  125SOPE   HN213311   3.253   4.148   2.723  0.6240  1.6989  0.6829
  125SOPE   HN313312   3.401   4.167   2.659 -0.8968  1.7043  0.7946
  125SOPE   C1213313   3.407   4.096   2.853 -0.0172  0.0715  0.5092
  125SOPE  H12A13314   3.368   4.012   2.914 -0.4069  2.3910  3.7167
  125SOPE  H12B13315   3.375   4.187   2.906 -0.1842  1.5039 -1.9101
  125SOPE   C1113316   3.556   4.096   2.840  0.1411  0.0721 -0.1009
  125SOPE  H11A13317   3.594   4.006   2.787 -1.3396 -0.2271 -0.7168
  125SOPE  H11B13318   3.591   4.100   2.945  0.1882 -0.7020 -0.0841
  125SOPE     P13319   3.671   4.330   2.841 -0.1198  0.0309  0.0269
  125SOPE   O1313320   3.582   4.388   2.946  0.3726 -0.2675  0.1136
  125SOPE   O1413321   3.731   4.419   2.738 -0.0516  0.5411 -0.3160
  125SOPE   O1213322   3.590   4.215   2.762  0.6772 -0.0721 -0.2276
  125SOPE   O1113323   3.778   4.249   2.920 -0.2767 -0.3193  0.4396
  125SOPE    C113324   3.894   4.318   2.972  0.0236 -0.4648  0.0684
  125SOPE    HA13325   3.880   4.425   2.999 -0.9269 -0.7300  0.7179
  125SOPE    HB13326   3.960   4.313   2.884 -2.1805 -3.0569 -1.6147
  125SOPE    C213327   3.960   4.237   3.081  0.6341  0.5873  0.2400
  125SOPE    HS13328   3.963   4.140   3.027 -1.4795  0.3388  0.4786
  125SOPE   O2113329   3.888   4.229   3.206 -0.3678 -0.4571  0.7426
  125SOPE   C2113330   3.913   4.120   3.276 -0.2724 -0.0011  0.1664
  125SOPE   O2213331   3.982   4.023   3.237 -0.2123 -1.2367 -0.3525
  125SOPE   C2213332   3.860   4.140   3.418 -0.3772 -0.0648 -0.4205
  125SOPE   H2R13333   3.754   4.168   3.403  0.0539  3.6527  2.1109
  125SOPE   H2S13334   3.910   4.229   3.463  1.6287 -1.1545 -0.3461
  125SOPE    C313335   4.110   4.280   3.105  0.0286 -0.1892 -0.5841
  125SOPE    HX13336   4.123   4.390   3.109 -2.1474  0.1347 -1.1373
  125SOPE    HY13337   4.154   4.266   3.004  0.0507 -0.6970 -0.5066
  125SOPE   O3113338   4.181   4.217   3.219  0.3830  0.1873  0.1047
  125SOPE   C3113339   4.277   4.129   3.185  0.5352 -0.0590  0.5923
  125SOPE   O3213340   4.285   4.079   3.075  0.2661  0.2516 -0.7504
  125SOPE   C3213341   4.380   4.111   3.303  0.3492 -0.1578 -0.3704
  125SOPE   H2X13342   4.423   4.210   3.326  1.2490 -0.8411  1.0203
  125SOPE   H2Y13343   4.461   4.049   3.258  0.0930  0.1635 -1.2895
  125SOPE   C2313344   3.877   4.010   3.504 -0.1497 -0.4632 -0.3179
  125SOPE   H3R13345   3.976   3.963   3.492 -0.7036 -1.7790  0.1033
  125SOPE   H3S13346   3.809   3.934   3.459  0.4314  0.2963 -2.6221
  125SOPE   C2413347   3.836   4.025   3.651  1.0470  0.6619  0.2285
  125SOPE   H4R13348   3.730   4.057   3.664  0.5380 -1.3115  1.3684
  125SOPE   H4S13349   3.832   3.928   3.704 -0.8449  1.5276  1.8080
  125SOPE   C2513350   3.947   4.106   3.728  0.8585  0.2662 -0.7142
  125SOPE   H5R13351   4.041   4.046   3.727 -1.0580 -3.0995  1.6093
  125SOPE   H5S13352   3.964   4.204   3.678 -0.0434  1.5437  1.3774
  125SOPE   C2613353   3.900   4.132   3.867  1.0902 -0.4821 -0.2681
  125SOPE   H6R13354   3.965   4.201   3.926 -0.5133 -1.1114  2.3794
  125SOPE   H6S13355   3.806   4.190   3.855 -0.2047 -2.2406  1.1230
  125SOPE   C2713356   3.882   4.006   3.958  0.7012  0.0179  0.5204
  125SOPE   H7R13357   3.817   3.928   3.914 -0.4824  0.2663  1.7351
  125SOPE   H7S13358   3.980   3.955   3.951  0.5732 -0.2444  0.6521
  125SOPE   C2813359   3.838   4.023   4.106  0.4573 -0.5164 -0.4531
  125SOPE   H8R13360   3.739   4.073   4.096 -0.8971 -3.2626 -1.4890
  125SOPE   H8S13361   3.821   3.923   4.151 -2.2567  0.2323  0.3389
  125SOPE   C2913362   3.930   4.121   4.182  0.5474 -0.5102  0.3893
  125SOPE   H9113363   3.966   4.203   4.118  1.3678 -1.7502 -0.8281
  125SOPE  C21013364   3.999   4.088   4.289 -0.3587  0.2344 -1.0717
  125SOPE  H10113365   4.061   4.162   4.341 -3.5018  1.4857  1.1831
  125SOPE  C21113366   3.992   3.962   4.379  0.6787 -0.7763  0.1344
  125SOPE  H11R13367   4.087   3.905   4.391  0.9762 -0.2767  0.1622
  125SOPE  H11S13368   3.935   3.882   4.327  0.8479 -1.0460  0.3575
  125SOPE  C21213369   3.929   3.984   4.514  0.3330 -0.0863 -0.0270
  125SOPE  H12R13370   3.826   4.023   4.494  1.0961  0.9330 -2.1919
  125SOPE  H12S13371   3.992   4.060   4.565  1.2198 -1.0388  0.3282
  125SOPE  C21313372   3.910   3.867   4.599  0.1625 -0.5543  0.1400
  125SOPE  H13R13373   3.873   3.890   4.701  0.4831 -2.9807  0.8613
  125SOPE  H13S13374   4.006   3.818   4.626  1.4817  1.9417  0.2992
  125SOPE  C21413375   3.806   3.777   4.538  0.9952  0.8052 -0.6792
  125SOPE  H14R13376   3.822   3.737   4.435  2.1181  0.1546 -0.2823
  125SOPE  H14S13377   3.717   3.842   4.528 -0.1144 -0.7021 -1.0753
  125SOPE  C21513378   3.775   3.652   4.625 -0.3028 -0.0398 -0.6048
  125SOPE  H15R13379   3.729   3.700   4.714 -0.1896  0.4043 -0.7816
  125SOPE  H15S13380   3.865   3.592   4.650 -1.0369 -1.0392 -0.3323
  125SOPE  C21613381   3.667   3.562   4.563  0.4365  0.8485 -0.4351
  125SOPE  H16R13382   3.708   3.517   4.471 -0.9850  0.1223 -0.7492
  125SOPE  H16S13383   3.582   3.628   4.533  0.7958  3.6332  3.7644
  125SOPE  C21713384   3.611   3.462   4.659 -0.4600  0.4183 -0.2631
  125SOPE  H17R13385   3.635   3.484   4.765  0.1822 -2.2882  0.2350
  125SOPE  H17S13386   3.662   3.365   4.639  0.3109  0.8902 -0.6555
  125SOPE  C21813387   3.464   3.434   4.645  0.8334  0.1902 -0.1664
  125SOPE  H18R13388   3.438   3.361   4.725 -0.4297  0.8389  0.0454
  125SOPE  H18S13389   3.430   3.381   4.554 -1.2162  0.0873  0.6084
  125SOPE  H18T13390   3.409   3.529   4.661  1.4501  0.4822  0.3069
  125SOPE   C3313391   4.321   4.047   3.427 -0.0080  0.4138 -0.1904
  125SOPE   H3X13392   4.281   3.946   3.405 -1.3756  1.0996 -1.0091
  125SOPE   H3Y13393   4.235   4.110   3.459  0.7781  1.2053  0.4266
  125SOPE   C3413394   4.409   4.057   3.551  0.1406 -0.1877 -0.7135
  125SOPE   H4X13395   4.415   4.164   3.581  0.5461  0.1718 -1.9890
  125SOPE   H4Y13396   4.509   4.022   3.517  1.0967 -0.3600  2.0840
  125SOPE   C3513397   4.360   3.970   3.673 -0.1372 -0.1724  0.3825
  125SOPE   H5X13398   4.331   3.868   3.639  1.0876 -0.1206 -0.8994
  125SOPE   H5Y13399   4.265   4.011   3.715  0.2939 -0.0780  1.2791
  125SOPE   C3613400   4.468   3.950   3.775  0.2368  1.1325  0.5326
  125SOPE   H6X13401   4.525   4.044   3.793  2.1377  0.2611 -0.4943
  125SOPE   H6Y13402   4.547   3.890   3.725 -0.5404  2.8073 -3.0405
  125SOPE   C3713403   4.427   3.882   3.905  0.7508 -0.1929 -0.3254
  125SOPE   H7X13404   4.519   3.863   3.964  0.7742  0.9098  0.0086
  125SOPE   H7Y13405   4.378   3.785   3.881  1.0320 -0.3999 -0.0764
  125SOPE   C3813406   4.344   3.970   3.981  0.1450 -0.5759 -1.0431
  125SOPE   H8X13407   4.243   4.001   3.947  0.7682  1.6184 -1.0178
  125SOPE   H8Y13408   4.408   4.060   3.983  3.5550 -2.8072 -1.1119
  125SOPE   C3913409   4.312   3.927   4.129  0.3453  0.1815 -0.1672
  125SOPE   H9X13410   4.249   3.836   4.121  0.0104  0.4986 -1.2986
  125SOPE   H9Y13411   4.243   3.999   4.178 -0.7189 -0.2113 -1.0629
  125SOPE  C31013412   4.436   3.906   4.210 -0.3056  0.9872 -0.9917
  125SOPE  H10X13413   4.502   3.995   4.214  0.2066  0.5847  0.1253
  125SOPE  H10Y13414   4.505   3.824   4.181  0.1916  1.3424 -0.8360
  125SOPE  C31113415   4.404   3.881   4.357 -0.2486 -0.2970 -0.1570
  125SOPE  H11X13416   4.341   3.966   4.392  2.7145  2.2721 -0.5385
  125SOPE  H11Y13417   4.501   3.886   4.411 -0.4406 -1.0041  0.2624
  125SOPE  C31213418   4.340   3.748   4.382  0.1434  0.2800  0.6140
  125SOPE  H12X13419   4.405   3.666   4.344 -0.0906  0.5203 -0.3495
  125SOPE  H12Y13420   4.241   3.750   4.330  0.7359 -0.8142 -0.6265
  125SOPE  C31313421   4.322   3.716   4.526  0.0490  0.2462 -0.2125
  125SOPE  H13X13422   4.288   3.809   4.576 -0.2664 -0.5349  1.0634
  125SOPE  H13Y13423   4.419   3.686   4.570 -0.1642 -1.7596 -0.9821
  125SOPE  C31413424   4.221   3.599   4.551  0.5608 -0.1167 -0.2306
  125SOPE  H14X13425   4.261   3.515   4.491  0.8414  0.1579 -0.4253
  125SOPE  H14Y13426   4.127   3.640   4.507 -0.2202 -1.8080 -0.2053
  125SOPE  C31513427   4.226   3.564   4.705 -1.0969  1.0209  0.1304
  125SOPE  H15X13428   4.330   3.530   4.720 -0.2416  2.2191 -2.4650
  125SOPE  H15Y13429   4.151   3.482   4.706 -0.6240  0.5886  0.3546
  125SOPE  C31613430   4.179   3.669   4.805  0.0918  0.2937  0.0171
  125SOPE  H16X13431   4.074   3.696   4.780 -0.2691 -1.0995 -0.0430
  125SOPE  H16Y13432   4.242   3.760   4.804  0.0569  0.3482  1.3047
  125SOPE  C31713433   4.181   3.613   4.945  0.3671 -0.0524  0.2760
  125SOPE  H17X13434   4.099   3.539   4.960 -0.1398  0.5363  0.4558
  125SOPE  H17Y13435   4.154   3.696   5.013  0.6086 -1.0254  1.6046
  125SOPE  C31813436   4.306   3.546   4.977 -0.1480 -0.3941 -0.0176
  125SOPE  H18X13437   4.342   3.466   4.910 -0.2394 -0.4052 -0.0533
  125SOPE  H18Y13438   4.288   3.493   5.073 -2.7874 -1.6026 -1.0816
  125SOPE  H18Z13439   4.391   3.615   4.995 -2.6930  2.9424  0.3151
  126SOPE     N13440   0.230   0.878   2.412  0.1365 -0.6444  0.7211
  126SOPE   HN113441   0.323   0.914   2.440 -0.8689  3.6055 -0.6057
  126SOPE   HN213442   0.251   0.825   2.325 -0.2362 -0.2723  0.3916
  126SOPE   HN313443   0.158   0.950   2.391  0.4399 -0.2296  1.0782
  126SOPE   C1213444   0.184   0.772   2.506  0.1042  0.1383  0.5167
  126SOPE  H12A13445   0.259   0.690   2.494  0.4148  0.6819 -1.5435
  126SOPE  H12B13446   0.079   0.745   2.482  0.8214 -0.1766 -2.7782
  126SOPE   C1113447   0.203   0.814   2.648 -0.4800 -0.5866 -0.3931
  126SOPE  H11A13448   0.311   0.826   2.670 -0.9292  0.7006  1.2514
  126SOPE  H11B13449   0.184   0.733   2.722 -1.3255 -1.2753 -1.3385
  126SOPE     P13450  -0.011   0.928   2.746 -0.2209  0.0593 -0.1901
  126SOPE   O1313451  -0.097   0.819   2.697 -0.3473 -0.0476 -0.1421
  126SOPE   O1413452  -0.073   1.063   2.742  0.1003  0.3401  0.5106
  126SOPE   O1213453   0.132   0.932   2.680  0.0172 -0.2837  0.9428
  126SOPE   O1113454   0.025   0.890   2.889  0.1386 -0.1315 -0.3721
  126SOPE    C113455   0.072   0.993   2.979 -0.2480 -0.3205  0.1102
  126SOPE    HA13456  -0.009   1.058   3.018  0.6844  1.4700 -0.8452
  126SOPE    HB13457   0.145   1.064   2.935  0.1160 -1.1943 -0.7439
  126SOPE    C213458   0.143   0.925   3.097  0.1411  0.3293 -0.5958
  126SOPE    HS13459   0.209   0.845   3.058  0.3392  1.3037 -2.3623
  126SOPE   O2113460   0.035   0.873   3.193 -0.5147  0.3363  0.1352
  126SOPE   C2113461   0.033   0.745   3.203 -0.7742  0.7121  0.0591
  126SOPE   O2213462   0.109   0.668   3.140  0.2007 -0.2588 -0.3356
  126SOPE   C2213463  -0.060   0.702   3.314 -0.2016 -0.0847 -0.4820
  126SOPE   H2R13464  -0.164   0.727   3.282  0.0835  1.1979 -0.4492
  126SOPE   H2S13465  -0.050   0.755   3.411 -0.1416  0.5148 -0.8119
  126SOPE    C313466   0.238   1.016   3.167  0.2108  0.0667 -0.2033
  126SOPE    HX13467   0.195   1.118   3.159  0.0004  0.0094  0.1748
  126SOPE    HY13468   0.332   1.016   3.108  0.5727  0.2835  0.3603
  126SOPE   O3113469   0.259   0.993   3.306  0.1128  0.1545 -0.5366
  126SOPE   C3113470   0.325   0.894   3.343 -0.5900 -0.0216 -0.2036
  126SOPE   O3213471   0.378   0.809   3.272  0.1341  0.0327  0.3634
  126SOPE   C3213472   0.337   0.894   3.495 -0.0952  0.4842  0.4077
  126SOPE   H2X13473   0.258   0.962   3.535 -0.6696  1.0563 -1.5775
  126SOPE   H2Y13474   0.437   0.929   3.528  1.2640 -0.9124 -1.8770
  126SOPE   C2313475  -0.057   0.549   3.343 -0.0902 -0.4170  0.4763
  126SOPE   H3R13476   0.043   0.507   3.363  1.0171  2.7396  2.1638
  126SOPE   H3S13477  -0.098   0.504   3.249 -0.1517  0.6345 -0.0109
  126SOPE   C2413478  -0.136   0.512   3.473  0.2451 -0.5753  0.2092
  126SOPE   H4R13479  -0.228   0.574   3.469  0.6825  0.1510  1.0835
  126SOPE   H4S13480  -0.179   0.409   3.469  0.4964 -0.6334 -1.5172
  126SOPE   C2513481  -0.057   0.541   3.603 -0.9441  0.1366  0.6001
  126SOPE   H5R13482   0.020   0.463   3.624 -1.9787 -1.1971 -0.3719
  126SOPE   H5S13483  -0.004   0.638   3.602 -1.0119  0.1889  1.2731
  126SOPE   C2613484  -0.156   0.545   3.715 -0.9096 -0.1760 -0.8832
  126SOPE   H6R13485  -0.249   0.596   3.683 -1.1841  0.5713  0.9652
  126SOPE   H6S13486  -0.182   0.440   3.737 -1.2135  0.0257 -0.2521
  126SOPE   C2713487  -0.094   0.613   3.838  0.2687 -0.1563 -0.0749
  126SOPE   H7R13488   0.010   0.574   3.845 -0.3070 -2.3806 -2.4186
  126SOPE   H7S13489  -0.088   0.723   3.830 -2.7096  0.1228  0.3893
  126SOPE   C2813490  -0.169   0.574   3.964  0.3430 -0.3701 -0.0452
  126SOPE   H8R13491  -0.157   0.651   4.042  0.4590  0.1588 -0.5776
  126SOPE   H8S13492  -0.278   0.563   3.943 -0.1668  1.7480  1.1860
  126SOPE   C2913493  -0.118   0.440   4.008  0.6467 -0.4940  0.8633
  126SOPE   H9113494  -0.116   0.369   3.924 -2.0071  2.9745 -2.4839
  126SOPE  C21013495  -0.077   0.405   4.128  0.4263  0.5821 -0.1906
  126SOPE  H10113496  -0.034   0.304   4.127  0.3994  0.5625 -1.9811
  126SOPE  C21113497  -0.079   0.486   4.252 -0.4297 -0.2202  0.2623
  126SOPE  H11R13498  -0.135   0.582   4.239 -0.8012 -0.6725 -1.8763
  126SOPE  H11S13499   0.024   0.511   4.286  0.7686 -2.6137 -1.3023
  126SOPE  C21213500  -0.139   0.408   4.364 -0.2379  0.4357  0.4135
  126SOPE  H12R13501  -0.071   0.324   4.389  0.9167  0.9454 -0.8756
  126SOPE  H12S13502  -0.243   0.377   4.338  1.3533 -2.2131 -3.8808
  126SOPE  C21313503  -0.133   0.482   4.499  0.0455  0.4915 -0.1504
  126SOPE  H13R13504  -0.032   0.528   4.511  0.7791 -1.0249 -0.2880
  126SOPE  H13S13505  -0.147   0.406   4.579 -1.0701  0.1037 -0.7014
  126SOPE  C21413506  -0.232   0.606   4.519 -0.4069  0.3979 -0.0149
  126SOPE  H14R13507  -0.316   0.599   4.447 -1.7133  0.9838  1.3975
  126SOPE  H14S13508  -0.178   0.697   4.485  1.5286 -1.3334 -1.8665
  126SOPE  C21513509  -0.300   0.598   4.661 -0.7916 -0.3152 -0.4814
  126SOPE  H15R13510  -0.225   0.580   4.741 -0.7577 -0.0067 -0.4431
  126SOPE  H15S13511  -0.363   0.507   4.657  1.0702 -1.9090  2.5819
  126SOPE  C21613512  -0.367   0.733   4.684  0.0439  0.1436 -0.2284
  126SOPE  H16R13513  -0.455   0.735   4.616 -2.6634  1.2738  2.9966
  126SOPE  H16S13514  -0.295   0.816   4.672  0.8873 -0.3715  1.0674
  126SOPE  C21713515  -0.440   0.734   4.821 -0.3790  0.0322 -0.2126
  126SOPE  H17R13516  -0.490   0.833   4.819  1.5910  1.1230  1.1312
  126SOPE  H17S13517  -0.364   0.746   4.901 -0.3655 -0.9380 -0.0608
  126SOPE  C21813518  -0.544   0.629   4.853  0.5735  0.4469 -0.6994
  126SOPE  H18R13519  -0.622   0.630   4.774 -2.2386  1.1701  1.8921
  126SOPE  H18S13520  -0.597   0.653   4.948 -1.0964 -0.3634 -1.3919
  126SOPE  H18T13521  -0.497   0.529   4.862 -3.6835 -1.7446 -0.3248
  126SOPE   C3313522   0.330   0.751   3.549  0.6121 -0.4733 -0.1842
  126SOPE   H3X13523   0.424   0.699   3.521  0.5746 -0.9698  0.5696
  126SOPE   H3Y13524   0.246   0.699   3.498 -0.5509  0.9529  0.1784
  126SOPE   C3413525   0.298   0.763   3.699 -0.0457  0.3947 -0.4263
  126SOPE   H4X13526   0.205   0.823   3.710  0.7380  1.9835 -1.8533
  126SOPE   H4Y13527   0.373   0.832   3.743 -0.8103  0.5549  0.6615
  126SOPE   C3513528   0.291   0.636   3.790  0.3496 -0.2829 -0.0444
  126SOPE   H5X13529   0.389   0.583   3.787  0.8182  0.6296 -1.6508
  126SOPE   H5Y13530   0.214   0.564   3.755  0.4786 -0.0653 -0.7951
  126SOPE   C3613531   0.273   0.675   3.933  0.2908  0.2703  0.1576
  126SOPE   H6X13532   0.176   0.726   3.953  0.4093  0.9176 -0.8497
  126SOPE   H6Y13533   0.350   0.745   3.973 -1.1614 -0.2481  4.3689
  126SOPE   C3713534   0.277   0.561   4.032 -1.0133 -0.1766  0.6122
  126SOPE   H7X13535   0.324   0.476   3.979 -1.6710  0.5254 -1.2130
  126SOPE   H7Y13536   0.170   0.533   4.047 -0.8929 -0.7425  0.4282
  126SOPE   C3813537   0.362   0.588   4.157  0.4622 -0.2989  0.2892
  126SOPE   H8X13538   0.311   0.671   4.210  0.2549 -0.6049  0.5766
  126SOPE   H8Y13539   0.461   0.626   4.122  1.2273 -0.9011  1.6965
  126SOPE   C3913540   0.389   0.471   4.249 -0.1013  0.1897  0.6693
  126SOPE   H9X13541   0.293   0.417   4.261 -1.8152  2.0243 -3.1129
  126SOPE   H9Y13542   0.419   0.511   4.349  2.4936 -1.9540  0.8553
  126SOPE  C31013543   0.503   0.379   4.203  0.0981  0.2526 -0.1142
  126SOPE  H10X13544   0.599   0.430   4.186 -0.9424  3.3666  2.4288
  126SOPE  H10Y13545   0.463   0.337   4.108 -1.0246  2.0272 -0.4765
  126SOPE  C31113546   0.525   0.275   4.311  0.0857 -0.2282 -0.2824
  126SOPE  H11X13547   0.434   0.212   4.318 -0.0886 -0.0337 -0.7768
  126SOPE  H11Y13548   0.526   0.323   4.412  0.7039 -0.3936 -0.2014
  126SOPE  C31213549   0.639   0.188   4.280 -0.2233  0.4814 -0.7567
  126SOPE  H12X13550   0.733   0.247   4.269 -0.4780  1.0506 -0.0218
  126SOPE  H12Y13551   0.624   0.124   4.191 -0.6944 -0.8498  0.2462
  126SOPE  C31313552   0.661   0.078   4.391  0.4304 -0.4033 -0.2830
  126SOPE  H13X13553   0.752   0.018   4.370  0.8369  0.2041 -0.2735
  126SOPE  H13Y13554   0.577   0.005   4.384  0.4523 -0.4412 -0.1530
  126SOPE  C31413555   0.649   0.133   4.535  0.3768  0.1439  0.1292
  126SOPE  H14X13556   0.541   0.153   4.548 -0.1515 -1.5369 -1.2741
  126SOPE  H14Y13557   0.710   0.225   4.546  1.9839 -0.5071 -2.3622
  126SOPE  C31513558   0.691   0.039   4.642  0.0362  0.2789 -0.4136
  126SOPE  H15X13559   0.698   0.100   4.734  0.7035 -0.7569  0.2390
  126SOPE  H15Y13560   0.794  -0.002   4.629  0.5179 -0.5247  4.2251
  126SOPE  C31613561   0.608  -0.089   4.662 -0.2313 -0.3295  0.1563
  126SOPE  H16X13562   0.668  -0.162   4.721  0.0785 -0.9441 -0.8965
  126SOPE  H16Y13563   0.589  -0.137   4.564  1.3100 -0.3313 -0.1743
  126SOPE  C31713564   0.477  -0.061   4.737 -1.4965  0.5216 -0.4263
  126SOPE  H17X13565   0.433  -0.158   4.767 -0.0498  0.5731  2.1244
  126SOPE  H17Y13566   0.402  -0.017   4.668 -2.0055  1.7546  0.8390
  126SOPE  C31813567   0.478   0.041   4.858 -1.2414  0.9202  0.2786
  126SOPE  H18X13568   0.380   0.059   4.907 -1.6032  1.7129 -0.6985
  126SOPE  H18Y13569   0.497   0.143   4.819  1.4331  0.7537  0.9584
  126SOPE  H18Z13570   0.553   0.018   4.936 -1.4841  2.0834  0.8729
  127SOPE     N13571   0.225   2.270   2.378  0.2765  0.6182 -0.5286
  127SOPE   HN113572   0.275   2.311   2.296 -0.1807  0.1611 -1.0415
  127SOPE   HN213573   0.274   2.179   2.391  0.3412  0.8059  0.6409
  127SOPE   HN313574   0.127   2.246   2.354 -0.4876  1.6058  1.4039
  127SOPE   C1213575   0.240   2.350   2.508  0.5201 -0.2861 -0.1513
  127SOPE  H12A13576   0.347   2.354   2.541 -0.1794  0.1206  2.2492
  127SOPE  H12B13577   0.174   2.302   2.584 -0.0907 -0.0684 -0.5427
  127SOPE   C1113578   0.182   2.501   2.488 -0.1263  0.4209 -0.1471
  127SOPE  H11A13579   0.249   2.557   2.419 -1.6087  0.6939 -1.4399
  127SOPE  H11B13580   0.172   2.547   2.588  1.1931 -1.4396  0.8983
  127SOPE     P13581  -0.032   2.627   2.405 -0.1713  0.2855 -0.4869
  127SOPE   O1313582  -0.167   2.584   2.371  0.1310 -0.0091  0.7564
  127SOPE   O1413583   0.042   2.707   2.306  0.6224  0.4178  0.5536
  127SOPE   O1213584   0.050   2.489   2.431 -0.5445  0.0222 -0.1141
  127SOPE   O1113585  -0.041   2.705   2.535  0.2555 -0.1369 -0.8167
  127SOPE    C113586  -0.109   2.641   2.646 -0.2036  0.1297 -0.3214
  127SOPE    HA13587  -0.063   2.542   2.668  0.4851  0.8612  1.7709
  127SOPE    HB13588  -0.218   2.632   2.625 -0.1065 -0.2803 -0.6717
  127SOPE    C213589  -0.110   2.723   2.773  0.2603  0.1704  0.3437
  127SOPE    HS13590  -0.137   2.823   2.734  1.2808 -0.4888 -2.3291
  127SOPE   O2113591   0.024   2.738   2.826  0.4480 -0.3003  0.9783
  127SOPE   C2113592   0.080   2.634   2.875 -0.0352 -0.6702 -0.1913
  127SOPE   O2213593   0.045   2.517   2.879  0.1474  0.0762 -0.4981
  127SOPE   C2213594   0.212   2.691   2.934  0.0638 -0.0105  0.2153
  127SOPE   H2R13595   0.280   2.715   2.849  0.6798  1.5220  1.1019
  127SOPE   H2S13596   0.262   2.608   2.988 -1.9112 -1.6565 -0.3335
  127SOPE    C313597  -0.209   2.671   2.893 -0.0763  0.2673  0.4863
  127SOPE    HX13598  -0.184   2.569   2.929 -1.3366  0.0533  0.7954
  127SOPE    HY13599  -0.310   2.674   2.848 -0.0405 -1.6711  0.2003
  127SOPE   O3113600  -0.215   2.765   2.998 -0.6668 -0.2859 -0.3779
  127SOPE   C3113601  -0.281   2.882   2.979  0.2296 -0.2326  1.1027
  127SOPE   O3213602  -0.353   2.904   2.887 -0.2220  0.1714  0.6174
  127SOPE   C3213603  -0.269   2.976   3.100 -0.1297  0.3617  0.1143
  127SOPE   H2X13604  -0.181   2.946   3.159  0.0678  0.6387 -0.0336
  127SOPE   H2Y13605  -0.361   2.955   3.159 -0.0998  3.2098  1.3422
  127SOPE   C2313606   0.196   2.819   3.023 -0.1143  0.9431 -0.2568
  127SOPE   H3R13607   0.155   2.905   2.966  0.8622  0.9186 -1.0378
  127SOPE   H3S13608   0.298   2.843   3.059 -0.7716  2.4087  0.7136
  127SOPE   C2413609   0.109   2.787   3.151 -0.6469  0.3176  0.0013
  127SOPE   H4R13610   0.112   2.878   3.214  1.4174 -1.1682  2.2190
  127SOPE   H4S13611   0.002   2.764   3.135 -0.4759 -0.4008 -0.1829
  127SOPE   C2513612   0.170   2.671   3.238 -0.5913 -0.4436  0.2138
  127SOPE   H5R13613   0.161   2.568   3.196  0.0660 -0.4408  0.0553
  127SOPE   H5S13614   0.274   2.707   3.253 -0.4157 -1.3295  1.2180
  127SOPE   C2613615   0.108   2.665   3.381 -0.4348  0.5049  0.8318
  127SOPE   H6R13616   0.172   2.599   3.444  1.1844 -0.2046 -1.4135
  127SOPE   H6S13617   0.108   2.761   3.436 -0.9793 -0.1326  2.0005
  127SOPE   C2713618  -0.032   2.617   3.395 -0.4272 -0.5962  0.1198
  127SOPE   H7R13619  -0.086   2.689   3.330 -2.0880 -1.3222  0.6379
  127SOPE   H7S13620  -0.038   2.519   3.342  1.1640 -0.2087 -0.8327
  127SOPE   C2813621  -0.081   2.604   3.538 -0.6245 -0.0081 -0.8066
  127SOPE   H8R13622  -0.017   2.525   3.581 -0.3248  0.5233 -0.2677
  127SOPE   H8S13623  -0.061   2.695   3.599 -0.1851 -0.8941  0.3999
  127SOPE   C2913624  -0.224   2.566   3.555  0.1515  0.3185 -0.6191
  127SOPE   H9113625  -0.285   2.592   3.467 -0.8048  2.4694  0.6047
  127SOPE  C21013626  -0.281   2.541   3.673 -0.1475 -0.2908  0.3823
  127SOPE  H10113627  -0.389   2.527   3.690 -0.0725 -0.5530  0.6677
  127SOPE  C21113628  -0.204   2.531   3.810  0.5096  0.8819 -0.0793
  127SOPE  H11R13629  -0.241   2.617   3.869 -0.6112  0.1997  0.2411
  127SOPE  H11S13630  -0.093   2.536   3.811  0.6092 -0.7105  0.2021
  127SOPE  C21213631  -0.237   2.414   3.901  0.2978 -0.7219  0.2185
  127SOPE  H12R13632  -0.168   2.426   3.987  0.4041  2.5854 -0.1876
  127SOPE  H12S13633  -0.218   2.315   3.855 -1.6024 -0.7767 -0.5426
  127SOPE  C21313634  -0.381   2.417   3.959 -0.1978 -0.0966 -0.5486
  127SOPE  H13R13635  -0.402   2.320   4.008 -0.0483 -0.5410 -1.3425
  127SOPE  H13S13636  -0.451   2.419   3.873 -1.1204 -0.0865  0.1884
  127SOPE  C21413637  -0.407   2.533   4.060 -0.1558 -0.5975  0.7433
  127SOPE  H14R13638  -0.419   2.617   3.989 -1.4477  0.4215  2.0967
  127SOPE  H14S13639  -0.319   2.556   4.124 -0.1036  3.1525 -0.4274
  127SOPE  C21513640  -0.541   2.516   4.116 -0.0774 -0.1499  0.1775
  127SOPE  H15R13641  -0.531   2.427   4.182  0.9910 -0.7501 -0.7626
  127SOPE  H15S13642  -0.607   2.484   4.032 -0.9281  1.6458  0.0919
  127SOPE  C21613643  -0.616   2.623   4.201 -0.8677  0.2809  0.0554
  127SOPE  H16R13644  -0.719   2.590   4.228 -1.1504  0.9457 -0.1824
  127SOPE  H16S13645  -0.642   2.698   4.123 -0.6428  0.2715 -0.0313
  127SOPE  C21713646  -0.543   2.674   4.326  0.1325 -1.1427 -0.4252
  127SOPE  H17R13647  -0.439   2.696   4.293  0.0038 -3.0898 -2.3572
  127SOPE  H17S13648  -0.530   2.592   4.400  1.4009 -1.3995 -0.9138
  127SOPE  C21813649  -0.605   2.806   4.379  0.0724 -0.4191 -1.1729
  127SOPE  H18R13650  -0.541   2.846   4.462  0.1396 -1.3233 -0.7751
  127SOPE  H18S13651  -0.707   2.814   4.423  0.7539  3.2532  0.0989
  127SOPE  H18T13652  -0.602   2.879   4.296  0.3181  1.2022  0.1920
  127SOPE   C3313653  -0.277   3.124   3.066  0.3944 -0.4634  0.6612
  127SOPE   H3X13654  -0.362   3.141   2.996  1.0902 -1.6483 -0.5198
  127SOPE   H3Y13655  -0.187   3.161   3.014 -0.2902  1.0696  0.4945
  127SOPE   C3413656  -0.309   3.215   3.189  0.1194  0.7519 -0.6259
  127SOPE   H4X13657  -0.419   3.219   3.204  0.0634  0.7792 -1.0186
  127SOPE   H4Y13658  -0.284   3.318   3.156 -2.2541  0.9379 -2.0801
  127SOPE   C3513659  -0.221   3.190   3.315 -0.0180 -0.1512  0.1908
  127SOPE   H5X13660  -0.203   3.282   3.374 -0.2578 -0.7365  1.2019
  127SOPE   H5Y13661  -0.126   3.151   3.273 -0.6919 -0.1363 -1.4056
  127SOPE   C3613662  -0.286   3.094   3.412 -0.0179  0.1378  0.0120
  127SOPE   H6X13663  -0.263   2.995   3.369  1.0711  0.1935  0.4332
  127SOPE   H6Y13664  -0.396   3.100   3.422  0.0331 -0.8463  1.3499
  127SOPE   C3713665  -0.227   3.112   3.552  0.3905 -0.2448  0.4330
  127SOPE   H7X13666  -0.276   3.202   3.595 -1.8771 -1.4839  0.5969
  127SOPE   H7Y13667  -0.118   3.132   3.539  0.4740 -0.9963 -0.1159
  127SOPE   C3813668  -0.254   2.993   3.646 -0.3075 -0.2528  0.4906
  127SOPE   H8X13669  -0.204   2.904   3.602  4.0808  1.8189  0.7501
  127SOPE   H8Y13670  -0.363   2.972   3.637 -0.2317 -0.1006 -0.9959
  127SOPE   C3913671  -0.204   3.020   3.788 -0.1806  0.1229 -0.1277
  127SOPE   H9X13672  -0.293   3.013   3.855  0.5464 -0.6382  0.7858
  127SOPE   H9Y13673  -0.164   3.123   3.788  2.9285 -0.9815 -0.0538
  127SOPE  C31013674  -0.092   2.922   3.830 -0.0348  0.5633  0.1927
  127SOPE  H10X13675  -0.010   2.928   3.756 -0.2725 -1.4245 -0.2846
  127SOPE  H10Y13676  -0.128   2.818   3.816  2.6706 -0.3718 -0.4403
  127SOPE  C31113677  -0.053   2.946   3.975  0.2395  0.3844  0.2868
  127SOPE  H11X13678  -0.028   3.052   3.997  3.9146 -0.1657 -0.5757
  127SOPE  H11Y13679   0.043   2.890   3.980 -0.6159 -1.2809 -0.8994
  127SOPE  C31213680  -0.145   2.885   4.081 -0.0732  0.3610  0.4923
  127SOPE  H12X13681  -0.144   2.777   4.055  1.2179  0.9675 -2.4071
  127SOPE  H12Y13682  -0.252   2.910   4.065 -0.4174 -1.7357 -0.9734
  127SOPE  C31313683  -0.096   2.926   4.225  0.1144 -0.4112  0.5174
  127SOPE  H13X13684  -0.094   3.037   4.226  2.9594 -0.3783  0.8985
  127SOPE  H13Y13685   0.007   2.885   4.233  0.3642  0.1812  0.4008
  127SOPE  C31413686  -0.183   2.871   4.339 -0.4465  0.3310  0.9576
  127SOPE  H14X13687  -0.188   2.760   4.335 -0.1375  0.3452 -0.0550
  127SOPE  H14Y13688  -0.285   2.914   4.327 -0.5142 -0.1548 -0.3034
  127SOPE  C31513689  -0.120   2.910   4.473 -0.0654  0.5245  0.0189
  127SOPE  H15X13690  -0.059   3.001   4.456  1.7784 -0.3251  1.7835
  127SOPE  H15Y13691  -0.031   2.846   4.489  0.0917  0.8228  0.3486
  127SOPE  C31613692  -0.220   2.920   4.594  0.4935 -0.6250  0.2537
  127SOPE  H16X13693  -0.284   2.832   4.616 -2.6856  2.0265  2.7156
  127SOPE  H16Y13694  -0.293   2.997   4.563 -0.2021 -2.1016 -2.0804
  127SOPE  C31713695  -0.141   2.955   4.726 -0.9286  0.5731  0.2383
  127SOPE  H17X13696  -0.226   2.987   4.790 -0.9851 -1.0621  1.0466
  127SOPE  H17Y13697  -0.082   3.044   4.697  1.9348 -1.1498  0.3828
  127SOPE  C31813698  -0.051   2.847   4.788 -0.4721  0.6387 -0.1568
  127SOPE  H18X13699   0.024   2.807   4.717 -1.4099 -2.4560  0.4566
  127SOPE  H18Y13700  -0.113   2.758   4.812 -0.6939  1.0117  0.7109
  127SOPE  H18Z13701   0.004   2.881   4.878 -0.5574  0.6944 -0.1250
  128SOPE     N13702   2.681   1.106   2.466  0.0541  0.5739  0.1790
  128SOPE   HN113703   2.733   1.099   2.376  1.5705 -6.3121  0.9609
  128SOPE   HN213704   2.728   1.188   2.510  0.3976  0.7430 -0.4895
  128SOPE   HN313705   2.707   1.028   2.531 -1.3868  0.9806  1.2890
  128SOPE   C1213706   2.536   1.111   2.450  1.1025 -0.1077  0.2442
  128SOPE  H12A13707   2.488   1.091   2.548 -2.5988 -1.1191 -1.5694
  128SOPE  H12B13708   2.514   1.035   2.372 -1.4551 -0.2132  0.9752
  128SOPE   C1113709   2.488   1.250   2.405  0.1952  0.5546  0.2353
  128SOPE  H11A13710   2.386   1.231   2.365  0.3748 -2.1587  0.9120
  128SOPE  H11B13711   2.546   1.277   2.314 -1.6386 -1.0680 -1.5034
  128SOPE     P13712   2.349   1.397   2.555 -0.4296  0.1570 -0.2948
  128SOPE   O1313713   2.266   1.271   2.590  0.1105  0.2348  0.0576
  128SOPE   O1413714   2.296   1.494   2.461 -0.6836  0.3910  0.4000
  128SOPE   O1213715   2.495   1.350   2.509  0.2536  0.8108  0.1647
  128SOPE   O1113716   2.392   1.473   2.691 -0.2212  0.2270  0.7498
  128SOPE    C113717   2.424   1.610   2.703  0.4108 -0.2561  0.4278
  128SOPE    HA13718   2.380   1.680   2.628 -0.5631 -0.9995  0.2782
  128SOPE    HB13719   2.534   1.620   2.691  0.1168  0.4672 -2.2523
  128SOPE    C213720   2.397   1.663   2.853 -0.8294  0.4629  0.7132
  128SOPE    HS13721   2.424   1.771   2.860  0.5342  0.0322  2.7597
  128SOPE   O2113722   2.470   1.577   2.946  0.1209  0.0530 -0.4450
  128SOPE   C2113723   2.602   1.593   2.951 -0.5916 -0.4735  0.1741
  128SOPE   O2213724   2.659   1.691   2.892 -0.6957  0.4013 -0.2576
  128SOPE   C2213725   2.676   1.479   3.023  0.1896  0.9306 -0.1262
  128SOPE   H2R13726   2.689   1.404   2.942 -2.8886  0.1374 -0.0113
  128SOPE   H2S13727   2.605   1.426   3.090  1.9202 -1.3325  0.0363
  128SOPE    C313728   2.240   1.653   2.888 -0.3534 -0.2841 -0.0334
  128SOPE    HX13729   2.199   1.566   2.832  1.9767 -0.7700 -1.0619
  128SOPE    HY13730   2.187   1.741   2.845 -1.2762  0.6396  2.7216
  128SOPE   O3113731   2.214   1.648   3.035  0.0352  0.2479 -0.1986
  128SOPE   C3113732   2.208   1.527   3.084  0.1112 -0.2596  0.4006
  128SOPE   O3213733   2.221   1.419   3.027 -0.7266 -0.5273 -0.3414
  128SOPE   C3213734   2.180   1.531   3.234  0.6901  0.8921  0.3067
  128SOPE   H2X13735   2.073   1.533   3.263  0.6614 -1.0666  0.4627
  128SOPE   H2Y13736   2.223   1.628   3.269 -0.8923  2.2086 -1.1916
  128SOPE   C2313737   2.795   1.517   3.107 -0.1935 -0.5741 -0.0150
  128SOPE   H3R13738   2.845   1.604   3.058 -1.4517 -0.8438 -1.8823
  128SOPE   H3S13739   2.864   1.431   3.105  0.4369 -0.0755 -0.1119
  128SOPE   C2413740   2.756   1.565   3.249  0.2746 -0.0253 -0.1511
  128SOPE   H4R13741   2.857   1.577   3.295  0.3466 -2.3704  0.4307
  128SOPE   H4S13742   2.704   1.663   3.248  0.0118 -0.1519 -1.5549
  128SOPE   C2513743   2.697   1.458   3.339 -0.4313  0.1344  0.3162
  128SOPE   H5R13744   2.596   1.436   3.299 -0.4498  0.6489  0.0687
  128SOPE   H5S13745   2.756   1.365   3.328  1.7194  1.6222 -2.1133
  128SOPE   C2613746   2.695   1.508   3.485  0.0562 -0.2259  0.5582
  128SOPE   H6R13747   2.801   1.523   3.515  0.1721  2.1594 -0.8807
  128SOPE   H6S13748   2.630   1.597   3.495 -0.0754 -0.5199  3.3479
  128SOPE   C2713749   2.616   1.407   3.564 -0.7739  0.5650  0.3423
  128SOPE   H7R13750   2.510   1.404   3.531 -1.5197  0.9009  2.5359
  128SOPE   H7S13751   2.646   1.300   3.553  0.0679  0.8815 -0.5133
  128SOPE   C2813752   2.613   1.436   3.711  0.2245 -0.3652 -0.5013
  128SOPE   H8R13753   2.570   1.535   3.739 -0.0534 -1.0694  1.7754
  128SOPE   H8S13754   2.541   1.363   3.754  0.2937 -2.0552 -3.0456
  128SOPE   C2913755   2.752   1.419   3.777 -0.1654  0.2819 -1.2921
  128SOPE   H9113756   2.821   1.500   3.748 -0.0960  0.2231 -1.2938
  128SOPE  C21013757   2.786   1.334   3.880 -0.4026 -0.3053  0.6245
  128SOPE  H10113758   2.887   1.333   3.924 -0.0308  0.9450 -0.1261
  128SOPE  C21113759   2.696   1.239   3.955  0.1674  0.0258 -0.5245
  128SOPE  H11R13760   2.590   1.261   3.932  0.5542  0.7018 -1.7991
  128SOPE  H11S13761   2.716   1.253   4.063  2.1079  0.3538 -0.8793
  128SOPE  C21213762   2.703   1.087   3.919  0.4349  0.1540 -0.0978
  128SOPE  H12R13763   2.619   1.025   3.957 -1.0886  2.7630  1.0839
  128SOPE  H12S13764   2.796   1.052   3.969 -1.1854 -3.5321  0.6615
  128SOPE  C21313765   2.709   1.066   3.770  0.1063  0.8363 -0.4284
  128SOPE  H13R13766   2.812   1.101   3.746  1.1162 -1.8053 -0.3330
  128SOPE  H13S13767   2.634   1.125   3.714  0.2489 -1.1961 -2.9635
  128SOPE  C21413768   2.700   0.924   3.718  1.0231  0.3217 -0.8040
  128SOPE  H14R13769   2.597   0.885   3.729  1.6173 -1.3362 -0.7982
  128SOPE  H14S13770   2.768   0.854   3.771 -1.1899 -0.1017  1.6720
  128SOPE  C21513771   2.730   0.911   3.574  0.4765  0.0405  0.6182
  128SOPE  H15R13772   2.744   0.805   3.542  1.6319  0.7136 -1.2775
  128SOPE  H15S13773   2.825   0.958   3.542 -0.0234  0.1040 -0.8330
  128SOPE  C21613774   2.613   0.959   3.487 -0.2191 -0.5630  0.5148
  128SOPE  H16R13775   2.585   1.057   3.530 -0.4924 -1.2887  2.0459
  128SOPE  H16S13776   2.519   0.902   3.502  0.0639 -1.3580 -0.5727
  128SOPE  C21713777   2.655   0.978   3.342 -0.9642 -0.0763 -0.6599
  128SOPE  H17R13778   2.641   0.879   3.293  0.0984 -0.3565 -0.4297
  128SOPE  H17S13779   2.760   1.014   3.334 -1.0790  0.8284  1.3585
  128SOPE  C21813780   2.579   1.080   3.263  0.2800  0.5948  0.3177
  128SOPE  H18R13781   2.617   1.088   3.159 -0.0778 -0.0684  0.1286
  128SOPE  H18S13782   2.596   1.179   3.310  3.8396 -0.0803  0.7746
  128SOPE  H18T13783   2.472   1.054   3.255 -0.7068  4.4034 -1.3893
  128SOPE   C3313784   2.244   1.410   3.314  0.0705 -0.6733 -0.2615
  128SOPE   H3X13785   2.347   1.395   3.275  0.0491 -1.4204 -0.0456
  128SOPE   H3Y13786   2.183   1.319   3.294 -0.9167 -0.2224  0.5875
  128SOPE   C3413787   2.248   1.436   3.462  0.0793 -0.4057 -0.4354
  128SOPE   H4X13788   2.313   1.520   3.494 -2.1240  0.9979  0.6983
  128SOPE   H4Y13789   2.295   1.347   3.508  1.1254 -0.3918 -1.4361
  128SOPE   C3513790   2.110   1.460   3.535 -0.0898 -0.4269 -0.1092
  128SOPE   H5X13791   2.028   1.451   3.460  0.0628  2.5544 -0.7931
  128SOPE   H5Y13792   2.106   1.568   3.561  3.0812 -0.1595 -0.3540
  128SOPE   C3613793   2.085   1.380   3.666 -0.1979 -0.1751  0.5993
  128SOPE   H6X13794   2.183   1.375   3.717 -0.1799 -2.6741  0.4492
  128SOPE   H6Y13795   2.058   1.279   3.627  0.4435 -0.0176 -0.2903
  128SOPE   C3713796   1.961   1.438   3.747 -0.2410  0.6677 -0.2848
  128SOPE   H7X13797   1.880   1.458   3.674 -0.2819  1.6701  0.0229
  128SOPE   H7Y13798   1.997   1.538   3.780 -0.9918  1.0825 -0.6912
  128SOPE   C3813799   1.921   1.353   3.867  0.3036 -0.0870  0.1714
  128SOPE   H8X13800   2.005   1.343   3.939  0.8923  2.7272  0.0003
  128SOPE   H8Y13801   1.909   1.252   3.823  0.1770  0.7336 -1.7675
  128SOPE   C3913802   1.807   1.407   3.948  0.3485  1.0734  0.4887
  128SOPE   H9X13803   1.717   1.384   3.888 -0.5341  2.6695  1.1499
  128SOPE   H9Y13804   1.820   1.514   3.974 -0.9510  1.2319  0.5201
  128SOPE  C31013805   1.787   1.334   4.086  0.8241 -0.4208  0.1179
  128SOPE  H10X13806   1.795   1.230   4.048 -0.9291 -0.0603 -1.3908
  128SOPE  H10Y13807   1.686   1.342   4.132  1.0520 -1.6259  0.8996
  128SOPE  C31113808   1.889   1.367   4.195 -0.2217 -0.3225 -0.4578
  128SOPE  H11X13809   1.896   1.478   4.196  0.9542 -0.2785  3.5503
  128SOPE  H11Y13810   1.984   1.318   4.165 -1.8102 -2.5630 -2.1443
  128SOPE  C31213811   1.847   1.315   4.331 -0.3072  0.7329  1.0453
  128SOPE  H12X13812   1.937   1.322   4.396  0.6754 -0.1007 -0.1761
  128SOPE  H12Y13813   1.815   1.209   4.317 -0.2125  0.8114  0.1780
  128SOPE  C31313814   1.732   1.390   4.397 -0.0516 -0.2705  0.1751
  128SOPE  H13X13815   1.645   1.344   4.345  0.8280  0.1905 -1.8114
  128SOPE  H13Y13816   1.747   1.494   4.361 -2.2903  0.3091  0.8033
  128SOPE  C31413817   1.711   1.374   4.543 -0.1352 -0.0678 -0.7412
  128SOPE  H14X13818   1.634   1.447   4.579 -0.5854 -0.4798 -0.8613
  128SOPE  H14Y13819   1.798   1.385   4.610 -0.6762 -1.3126  0.2027
  128SOPE  C31513820   1.655   1.241   4.595  0.3567 -0.8409  0.3272
  128SOPE  H15X13821   1.708   1.147   4.568 -0.5706 -1.1527 -0.4975
  128SOPE  H15Y13822   1.559   1.227   4.540  1.7900 -0.2359 -2.4885
  128SOPE  C31613823   1.630   1.242   4.745 -0.3548 -0.4711  0.8088
  128SOPE  H16X13824   1.531   1.285   4.775 -1.5850 -1.8843 -1.0715
  128SOPE  H16Y13825   1.707   1.312   4.785  0.8082  0.3183 -2.5559
  128SOPE  C31713826   1.656   1.110   4.817 -0.3280  0.4779 -0.2153
  128SOPE  H17X13827   1.662   1.130   4.926 -3.0416  1.7228 -0.2024
  128SOPE  H17Y13828   1.755   1.074   4.781  0.0583  1.8673 -0.6230
  128SOPE  C31813829   1.554   0.996   4.793 -0.5404 -0.4799  0.3008
  128SOPE  H18X13830   1.543   0.981   4.683 -2.8200  2.4781  0.0016
  128SOPE  H18Y13831   1.454   1.030   4.827 -0.0553  0.9674  0.3390
  128SOPE  H18Z13832   1.583   0.900   4.841 -0.0405 -0.5114 -0.0586
  129OSM      N13833   0.871   4.543   6.998 -0.0543 -0.1168  0.6678
  129OSM    C1513834   0.942   4.675   7.016 -0.0193 -0.7146 -0.1683
  129OSM   H15A13835   0.903   4.723   7.104  0.5408 -1.7768  0.6816
  129OSM   H15B13836   0.927   4.741   6.931  0.4914 -0.1547  0.1659
  129OSM   H15C13837   1.050   4.674   7.027 -0.1772  0.5931  2.1307
  129OSM    C1413838   0.914   4.476   6.865  0.4394 -0.0753 -0.0386
  129OSM   H14A13839   0.902   4.551   6.788 -0.8847 -1.0296 -0.8041
  129OSM   H14B13840   0.849   4.392   6.844  1.6451 -0.8170 -0.9420
  129OSM   H14C13841   1.018   4.449   6.856  0.3082 -0.0024 -2.6491
  129OSM    C1313842   0.914   4.446   7.106  0.4439 -0.8194 -0.1003
  129OSM   H13A13843   1.019   4.429   7.090  0.4643  0.5816 -1.7208
  129OSM   H13B13844   0.861   4.351   7.104 -0.5085 -0.2949 -0.2394
  129OSM   H13C13845   0.905   4.485   7.206  2.4659 -0.2774 -0.0942
  129OSM    C1213846   0.716   4.562   7.004 -0.9462 -0.1129  0.1633
  129OSM   H12A13847   0.672   4.463   7.003 -3.4573  0.9411 -0.9549
  129OSM   H12B13848   0.684   4.602   6.909  0.7971 -1.3190 -0.9915
  129OSM    C1113849   0.648   4.638   7.118  0.6542  0.2835 -0.9241
  129OSM   H11A13850   0.541   4.663   7.098  0.1814 -2.1519 -1.7957
  129OSM   H11B13851   0.704   4.734   7.117  1.5290 -0.2160 -1.3064
  129OSM      P13852   0.600   4.437   7.282 -0.1784  0.0716  0.0967
  129OSM    O1313853   0.682   4.370   7.379  0.2983 -0.2421 -1.2389
  129OSM    O1413854   0.457   4.462   7.304  0.1182 -0.0115  0.2912
  129OSM    O1113855   0.605   4.341   7.148 -0.4238  0.3902  0.8589
  129OSM    O1213856   0.670   4.572   7.245 -0.3650 -0.8015  0.3610
  129OSM    C1S13857   0.501   4.338   7.052 -0.1186  0.0807  1.0716
  129OSM    H1S13858   0.493   4.438   7.004 -0.7735  0.3639  1.7439
  129OSM    H1T13859   0.405   4.299   7.092 -1.0020  0.2213 -0.8279
  129OSM     NF13860   0.485   4.250   6.810 -0.6304  0.0416  0.2681
  129OSM    HNF13861   0.420   4.179   6.787  0.6436 -1.0969  0.0505
  129OSM    C2S13862   0.547   4.227   6.940  0.2645 -0.2477  0.3485
  129OSM    H2S13863   0.656   4.240   6.927  0.0935 -0.3040 -1.4680
  129OSM    C3S13864   0.510   4.091   7.009  0.2582 -0.0200  0.3818
  129OSM    H3S13865   0.400   4.085   7.024  0.2459 -2.6009 -0.2749
  129OSM     O313866   0.580   4.067   7.129  0.0665 -0.0448 -0.3325
  129OSM    HO313867   0.632   4.147   7.134  1.1761 -0.6271 -1.7250
  129OSM    C4S13868   0.557   3.976   6.923  0.1562 -0.3361 -0.1338
  129OSM    H4S13869   0.657   3.993   6.880  0.3589 -1.7760 -0.2838
  129OSM    C5S13870   0.468   3.878   6.880 -0.1122  0.1866 -0.4394
  129OSM    H5S13871   0.364   3.884   6.914  0.5353  3.3696  1.4165
  129OSM    C6S13872   0.495   3.784   6.769 -0.3001  0.3845 -0.5655
  129OSM    H6S13873   0.468   3.681   6.803 -2.2951  0.9593 -0.3020
  129OSM    H6T13874   0.598   3.770   6.729 -0.9987 -3.2852 -1.5001
  129OSM    C7S13875   0.404   3.825   6.644 -0.4050 -0.3001  0.2973
  129OSM    H7S13876   0.438   3.917   6.592 -0.0794 -0.1400  0.7915
  129OSM    H7T13877   0.296   3.840   6.665 -0.0159  0.5751  1.8365
  129OSM    C8S13878   0.414   3.720   6.533  0.5294  0.7029 -0.9444
  129OSM    H8S13879   0.380   3.621   6.571  0.3374  0.2766 -2.1839
  129OSM    H8T13880   0.519   3.705   6.500 -0.3638 -1.9347 -2.9617
  129OSM    C9S13881   0.322   3.750   6.411  0.0830  0.2813  0.7314
  129OSM    H9S13882   0.374   3.824   6.347 -2.6817  1.4325 -0.3360
  129OSM    H9T13883   0.228   3.803   6.439  1.0501  1.2899  2.2330
  129OSM   C10S13884   0.307   3.623   6.314  0.5901 -0.4307 -0.3418
  129OSM   H10S13885   0.231   3.559   6.364  0.5551 -0.0806  0.0586
  129OSM   H10T13886   0.408   3.576   6.319 -0.7726 -3.7240 -1.0492
  129OSM   C11S13887   0.262   3.657   6.175 -0.4074 -0.3137  1.1131
  129OSM   H11S13888   0.309   3.746   6.130  0.9088 -1.9009 -0.7999
  129OSM   H11T13889   0.152   3.668   6.179 -0.3208  0.4548  1.4889
  129OSM   C12S13890   0.285   3.548   6.079  0.8718 -1.1931  0.3608
  129OSM   H12S13891   0.219   3.460   6.095  0.0070 -0.9651 -1.6227
  129OSM   H12T13892   0.386   3.511   6.104  0.9344 -0.6125  0.9946
  129OSM   C13S13893   0.289   3.603   5.937 -0.0512 -0.4334 -0.3863
  129OSM   H13S13894   0.307   3.519   5.867 -0.1291 -1.6725  1.0339
  129OSM   H13T13895   0.364   3.685   5.937  2.4058 -2.5828 -0.2452
  129OSM   C14S13896   0.163   3.669   5.888  0.3557 -0.2179 -0.5320
  129OSM   H14S13897   0.151   3.756   5.955  2.9961 -0.8674  0.9397
  129OSM   H14T13898   0.082   3.595   5.905  0.3460 -0.4061 -1.3255
  129OSM   C15S13899   0.154   3.703   5.739  0.6647 -0.6211 -0.0949
  129OSM   H15S13900   0.071   3.776   5.732  1.5486  0.3420 -0.8508
  129OSM   H15T13901   0.149   3.614   5.673 -0.2688  0.4411 -1.4861
  129OSM   C16S13902   0.275   3.782   5.690 -0.3392 -0.0898  0.3399
  129OSM   H16S13903   0.365   3.722   5.716  0.3763  0.0025 -1.6712
  129OSM   H16T13904   0.277   3.883   5.737 -2.8085  2.4785 -4.2501
  129OSM   C17S13905   0.282   3.801   5.534 -0.1663 -0.9861 -0.6157
  129OSM   H17S13906   0.206   3.878   5.512  0.4555 -0.1666  0.0357
  129OSM   H17T13907   0.247   3.703   5.496  1.2431 -1.4602 -0.7487
  129OSM   C18S13908   0.427   3.813   5.492 -0.9602 -0.1236  0.4194
  129OSM   H18S13909   0.461   3.916   5.512  2.4205 -1.0573  0.0480
  129OSM   H18T13910   0.429   3.808   5.381 -1.6076 -0.8215  0.4303
  129OSM   H18U13911   0.487   3.732   5.540  0.1364  1.5622  2.0046
  129OSM    C1F13912   0.511   4.352   6.729  0.0491  0.2948  0.0710
  129OSM     OF13913   0.589   4.438   6.757  0.5092  0.3385  0.5140
  129OSM    C2F13914   0.431   4.356   6.600  0.3955  0.6525  0.7014
  129OSM    H2F13915   0.332   4.406   6.609 -1.1946 -1.0638 -3.8557
  129OSM    H2G13916   0.412   4.252   6.567  1.0500  0.6508  0.3208
  129OSM    C3F13917   0.508   4.425   6.486  0.5370  0.1119  0.4719
  129OSM    H3F13918   0.600   4.365   6.470  0.5077 -0.3150  1.7699
  129OSM    H3G13919   0.527   4.528   6.521  0.1113  0.7996 -1.2160
  129OSM    C4F13920   0.431   4.435   6.352 -0.2351 -0.4829 -0.5083
  129OSM    H4F13921   0.320   4.438   6.365 -0.5682  0.8474 -2.9773
  129OSM    H4G13922   0.456   4.337   6.304  1.0280  0.0518 -0.9619
  129OSM    C5F13923   0.457   4.549   6.245  0.1507  0.7401 -0.3393
  129OSM    H5F13924   0.392   4.542   6.155 -0.9513  1.5212  0.3735
  129OSM    H5G13925   0.563   4.539   6.213  0.4453 -2.1987  1.1783
  129OSM    C6F13926   0.456   4.685   6.311 -0.4208 -0.1472  0.2843
  129OSM    H6F13927   0.532   4.689   6.391  0.5515  2.6155 -0.6668
  129OSM    H6G13928   0.356   4.704   6.357 -0.7296 -0.8285 -0.0796
  129OSM    C7F13929   0.485   4.786   6.202 -0.4372 -0.2319 -0.7424
  129OSM    H7F13930   0.395   4.767   6.140 -2.0336  0.7349  1.1620
  129OSM    H7G13931   0.579   4.767   6.146  0.1566  2.6735 -0.9088
  129OSM    C8F13932   0.486   4.935   6.251  0.1223 -0.3369  0.2100
  129OSM    H8F13933   0.396   4.952   6.314  0.3341 -1.2844  0.7765
  129OSM    H8G13934   0.463   5.002   6.165 -0.9952 -1.6734 -0.5810
  129OSM    C9F13935   0.616   4.979   6.317  0.9183  0.1158  0.4791
  129OSM    H9F13936   0.626   4.938   6.418  0.3799 -1.1695  0.0257
  129OSM   C10F13937   0.706   5.061   6.275 -0.1535  0.8669 -0.9708
  129OSM   H10F13938   0.794   5.065   6.341 -1.0046  0.6380  0.2205
  129OSM   C11F13939   0.719   5.127   6.143 -0.4485 -0.2781 -0.3392
  129OSM   H11F13940   0.621   5.147   6.095 -2.2580 -1.4052  2.6107
  129OSM   H11G13941   0.774   5.060   6.074  1.7689  0.9084  0.1743
  129OSM   C12F13942   0.795   5.262   6.147 -0.0436 -0.0899 -0.9278
  129OSM   H12F13943   0.747   5.323   6.068  1.5565  1.3253 -0.8506
  129OSM   H12G13944   0.904   5.245   6.135  0.1611  1.1064 -0.8627
  129OSM   C13F13945   0.781   5.337   6.287  0.8531  0.7507  0.2775
  129OSM   H13F13946   0.836   5.283   6.368  0.4272 -2.6374 -1.5060
  129OSM   H13G13947   0.673   5.335   6.312  0.8031  0.7804  0.0617
  129OSM   C14F13948   0.839   5.481   6.282  0.5848 -0.4084 -0.7041
  129OSM   H14F13949   0.838   5.523   6.385  1.8454 -0.3957 -0.6787
  129OSM   H14G13950   0.768   5.542   6.223 -0.9388 -0.5123  0.9208
  129OSM   C15F13951   0.979   5.491   6.217 -0.4922  0.2518 -0.1923
  129OSM   H15F13952   0.982   5.451   6.113  3.4582 -0.4474  0.0325
  129OSM   H15G13953   1.048   5.427   6.276  0.1676  0.4366 -0.7637
  129OSM   C16F13954   1.026   5.634   6.217 -0.3006  0.2433 -0.1983
  129OSM   H16F13955   1.036   5.670   6.322  0.9508 -0.7713  0.0533
  129OSM   H16G13956   0.954   5.693   6.157  0.2559  1.1895  0.0383
  129OSM   C17F13957   1.150   5.668   6.144 -0.5681  0.1154  0.2129
  129OSM   H17F13958   1.180   5.774   6.157 -1.1476  0.1573  1.3232
  129OSM   H17G13959   1.126   5.668   6.036  0.6293 -0.1329 -0.0671
  129OSM   C18F13960   1.268   5.581   6.175 -0.0165 -0.0664 -0.2272
  129OSM   H18F13961   1.267   5.486   6.117  0.4288  0.8663 -1.8183
  129OSM   H18G13962   1.270   5.555   6.283 -4.0247 -2.4589 -0.5420
  129OSM   H18H13963   1.363   5.628   6.140 -1.0062  0.2694 -2.6574
  130OSM      N13964   5.082   5.133   7.124 -0.0948 -0.4152 -0.5951
  130OSM    C1513965   4.956   5.054   7.145 -0.5286 -0.1521 -0.5769
  130OSM   H15A13966   4.890   5.111   7.209  0.5054  0.3186  0.1010
  130OSM   H15B13967   4.987   4.966   7.199  0.7235  0.4249 -0.3254
  130OSM   H15C13968   4.921   5.030   7.046  1.3302  0.3874 -1.4195
  130OSM    C1413969   5.052   5.263   7.063  0.4822 -0.1691 -0.0501
  130OSM   H14A13970   4.967   5.308   7.113  1.0127  0.9753 -0.1413
  130OSM   H14B13971   5.022   5.250   6.960  3.0185  0.6290 -0.9750
  130OSM   H14C13972   5.125   5.342   7.074 -0.1738  0.4644 -0.1192
  130OSM    C1313973   5.133   5.161   7.260 -0.1442 -0.0556  0.5277
  130OSM   H13A13974   5.066   5.225   7.317  0.4872 -0.9089  2.2886
  130OSM   H13B13975   5.225   5.216   7.271  0.0723 -0.7268  2.3556
  130OSM   H13C13976   5.132   5.065   7.310 -0.4930 -0.1475  0.3490
  130OSM    C1213977   5.177   5.059   7.030  0.2058 -0.0986 -0.7978
  130OSM   H12A13978   5.140   5.068   6.929 -0.0605  3.7123 -0.5007
  130OSM   H12B13979   5.182   4.956   7.063  1.8921  0.1101 -0.3094
  130OSM    C1113980   5.329   5.094   7.035  0.1922  0.1958  0.0990
  130OSM   H11A13981   5.347   5.204   7.033  2.1613 -0.1195 -1.0934
  130OSM   H11B13982   5.371   5.060   6.939  3.1327  0.7054  1.1100
  130OSM      P13983   5.526   4.969   7.140  0.2985  0.4547 -0.0738
  130OSM    O1313984   5.595   4.980   7.271  0.1107 -0.0417 -0.5263
  130OSM    O1413985   5.516   4.832   7.077  0.0006 -0.5329  0.5374
  130OSM    O1113986   5.596   5.055   7.035 -0.8067  0.2144 -0.0544
  130OSM    O1213987   5.382   5.029   7.154 -0.8037  0.2244  0.4704
  130OSM    C1S13988   5.724   5.026   6.971  0.5161  0.5293 -0.1705
  130OSM    H1S13989   5.724   4.923   6.930  1.1689  0.5593 -0.2435
  130OSM    H1T13990   5.812   5.048   7.035 -1.1343  1.5974  1.8680
  130OSM     NF13991   5.852   5.079   6.762  0.2273  0.2812 -0.2913
  130OSM    HNF13992   5.932   5.137   6.776 -0.2922  0.6246  1.4685
  130OSM    C2S13993   5.738   5.122   6.842  0.1149 -0.1001 -0.9372
  130OSM    H2S13994   5.641   5.103   6.791  0.6173  0.7659 -2.2748
  130OSM    C3S13995   5.739   5.274   6.889  0.9360 -0.7231  0.0107
  130OSM    H3S13996   5.835   5.303   6.936 -0.7602  3.1104  1.5712
  130OSM     O313997   5.647   5.312   6.994 -0.2775  0.1893  0.0080
  130OSM    HO313998   5.605   5.228   7.014  0.5070 -0.0866  0.5428
  130OSM    C4S13999   5.730   5.358   6.768 -0.3753  0.0444  0.4126
  130OSM    H4S14000   5.821   5.382   6.711 -1.4891  2.5048 -0.4794
  130OSM    C5S14001   5.619   5.409   6.705  0.2838 -0.1097 -0.3886
  130OSM    H5S14002   5.520   5.419   6.752 -0.0573  0.5437 -1.2290
  130OSM    C6S14003   5.626   5.466   6.567  0.8215  0.3812 -0.2754
  130OSM    H6S14004   5.732   5.489   6.545  0.7554  1.6295  0.6345
  130OSM    H6T14005   5.566   5.559   6.551 -0.9758 -0.7098 -0.1907
  130OSM    C7S14006   5.584   5.371   6.457 -0.4646  0.4074  0.0966
  130OSM    H7S14007   5.483   5.333   6.485 -0.1860  0.4487  1.1959
  130OSM    H7T14008   5.652   5.283   6.448 -1.9337 -0.7778  0.1020
  130OSM    C8S14009   5.587   5.423   6.315 -0.1700 -0.2181  0.3944
  130OSM    H8S14010   5.504   5.492   6.292 -1.7181 -2.8115 -2.6176
  130OSM    H8T14011   5.555   5.342   6.246  0.6214 -0.4514  0.2804
  130OSM    C9S14012   5.720   5.492   6.272  0.1370 -0.1023  0.0257
  130OSM    H9S14013   5.813   5.434   6.287 -0.6073 -1.4445 -0.3573
  130OSM    H9T14014   5.742   5.580   6.337  2.6489 -0.1103 -0.7230
  130OSM   C10S14015   5.707   5.543   6.131 -0.3927  0.4483 -0.0904
  130OSM   H10S14016   5.800   5.601   6.115 -0.8005  0.8933 -0.9619
  130OSM   H10T14017   5.626   5.620   6.126  0.3754  1.4834  2.2349
  130OSM   C11S14018   5.691   5.436   6.025 -0.0268  0.3611 -0.1947
  130OSM   H11S14019   5.585   5.403   6.025 -0.2398  0.9972  0.4920
  130OSM   H11T14020   5.752   5.348   6.051 -1.4877 -0.5887  0.1447
  130OSM   C12S14021   5.723   5.484   5.879 -0.3951 -0.4478 -0.7169
  130OSM   H12S14022   5.829   5.517   5.887  0.0652 -1.3422 -2.6402
  130OSM   H12T14023   5.662   5.574   5.854  0.1874 -0.1442 -1.0766
  130OSM   C13S14024   5.725   5.372   5.782  0.5953 -0.1660 -0.2363
  130OSM   H13S14025   5.617   5.353   5.763  0.6445 -0.3892 -0.3033
  130OSM   H13T14026   5.766   5.284   5.836 -0.0739 -1.4413 -1.7200
  130OSM   C14S14027   5.799   5.392   5.651 -0.0888 -0.0165 -0.1671
  130OSM   H14S14028   5.904   5.423   5.669 -0.9897  2.2885  1.7346
  130OSM   H14T14029   5.754   5.477   5.596  2.8521  0.4396 -2.0345
  130OSM   C15S14030   5.786   5.269   5.559 -0.3871 -0.1542 -0.3726
  130OSM   H15S14031   5.682   5.243   5.528 -1.1115 -0.5315  2.1427
  130OSM   H15T14032   5.834   5.187   5.616  1.9961  1.1978 -0.2847
  130OSM   C16S14033   5.848   5.289   5.427 -0.2204 -0.1234 -0.0396
  130OSM   H16S14034   5.949   5.332   5.441 -0.0727 -0.7703  0.9993
  130OSM   H16T14035   5.793   5.370   5.375 -0.4444 -0.6785 -0.6813
  130OSM   C17S14036   5.862   5.156   5.354  0.1019 -0.2313  0.7501
  130OSM   H17S14037   5.760   5.114   5.338  0.3360 -0.1360 -1.2219
  130OSM   H17T14038   5.919   5.083   5.415  1.4370 -0.4884 -0.7537
  130OSM   C18S14039   5.919   5.178   5.211  0.2145 -0.0211 -0.9087
  130OSM   H18S14040   5.854   5.246   5.151 -0.7128  0.8250  0.9713
  130OSM   H18T14041   5.945   5.083   5.160  2.4849  0.3427 -0.5063
  130OSM   H18U14042   6.018   5.223   5.232  1.2005 -1.8112 -1.4967
  130OSM    C1F14043   5.856   4.962   6.695 -0.3535  0.1408  0.0480
  130OSM     OF14044   5.755   4.890   6.690 -0.9678  0.3175 -0.1124
  130OSM    C2F14045   5.984   4.914   6.640  0.3591  0.5284  0.4373
  130OSM    H2F14046   6.028   4.834   6.702  0.7862  0.3046 -0.1482
  130OSM    H2G14047   6.051   5.001   6.656 -1.1449  1.4341  2.0427
  130OSM    C3F14048   5.968   4.864   6.494 -0.4909  1.1131  0.3170
  130OSM    H3F14049   5.931   4.943   6.427 -0.7455  0.6284 -0.1190
  130OSM    H3G14050   5.892   4.783   6.497  0.5034  0.1051 -0.6645
  130OSM    C4F14051   6.100   4.803   6.437 -0.0771  0.6511  0.5481
  130OSM    H4F14052   6.170   4.767   6.515  3.3598  1.7051 -1.8171
  130OSM    H4G14053   6.156   4.886   6.388 -1.9590  0.8369 -1.4745
  130OSM    C5F14054   6.078   4.689   6.335 -0.2332  0.1924  0.0427
  130OSM    H5F14055   6.044   4.594   6.381 -0.8945 -0.6807 -2.0821
  130OSM    H5G14056   6.174   4.664   6.286 -0.1856  0.4699 -0.0099
  130OSM    C6F14057   5.969   4.717   6.224  0.5703  0.6561 -0.4477
  130OSM    H6F14058   5.997   4.814   6.177  0.7203  0.8592  0.0551
  130OSM    H6G14059   5.869   4.712   6.273  1.9503  1.4724  2.6689
  130OSM    C7F14060   5.959   4.617   6.101  0.4266 -0.7311 -0.3787
  130OSM    H7F14061   5.871   4.640   6.038  0.6309 -0.0764 -0.4283
  130OSM    H7G14062   5.944   4.517   6.147  1.1359 -1.1466 -1.0304
  130OSM    C8F14063   6.073   4.630   5.998  0.2059  0.1261 -0.0567
  130OSM    H8F14064   6.172   4.607   6.042  0.2731 -3.2245 -1.5807
  130OSM    H8G14065   6.080   4.735   5.962  0.8201  0.8436  2.0193
  130OSM    C9F14066   6.050   4.527   5.889  0.7905  0.3568 -0.4630
  130OSM    H9F14067   6.086   4.426   5.913 -0.4516  0.3631  1.7230
  130OSM   C10F14068   5.989   4.554   5.772 -0.2126  0.7032  0.7198
  130OSM   H10F14069   5.969   4.470   5.704  0.8257  0.2063  1.0028
  130OSM   C11F14070   5.946   4.688   5.717 -0.4802  0.3039 -0.2531
  130OSM   H11F14071   5.933   4.751   5.807 -1.2916  0.8353 -0.7414
  130OSM   H11G14072   5.850   4.680   5.661 -0.2608  2.1340 -0.9648
  130OSM   C12F14073   6.045   4.752   5.619  0.6848 -0.0790 -0.1320
  130OSM   H12F14074   6.147   4.714   5.641  0.7180  0.8011  1.3658
  130OSM   H12G14075   6.042   4.861   5.642 -0.7727 -0.2205  0.4218
  130OSM   C13F14076   6.012   4.739   5.471 -0.2395 -1.0706 -0.7961
  130OSM   H13F14077   6.081   4.812   5.422  0.1018 -1.5540 -1.0501
  130OSM   H13G14078   5.909   4.776   5.454 -0.0631 -1.3621 -2.7900
  130OSM   C14F14079   6.034   4.599   5.415 -0.5775  0.2526  0.2639
  130OSM   H14F14080   5.955   4.535   5.460  0.0259 -0.5201  0.2469
  130OSM   H14G14081   6.130   4.565   5.459 -0.6444  3.0465  2.9336
  130OSM   C15F14082   6.029   4.585   5.265 -0.1277  0.6791 -0.4393
  130OSM   H15F14083   6.081   4.667   5.211  0.6172  0.4147 -0.1378
  130OSM   H15G14084   5.924   4.583   5.230  0.2606  0.5191 -1.6749
  130OSM   C16F14085   6.086   4.450   5.216 -0.0927  0.4931 -0.2426
  130OSM   H16F14086   6.044   4.440   5.114 -0.2388 -0.3916 -0.1043
  130OSM   H16G14087   6.044   4.360   5.267  1.9036 -1.2692 -1.5272
  130OSM   C17F14088   6.241   4.450   5.206  0.2889  0.2809 -0.8734
  130OSM   H17F14089   6.280   4.487   5.303 -0.1026 -1.3206 -0.0627
  130OSM   H17G14090   6.280   4.514   5.124  1.6102  2.3566  1.2497
  130OSM   C18F14091   6.290   4.309   5.189  0.0341 -0.2293  0.9003
  130OSM   H18F14092   6.209   4.242   5.153 -1.3065  0.5411  2.3679
  130OSM   H18G14093   6.326   4.270   5.286  0.6866 -0.5530  0.5328
  130OSM   H18H14094   6.382   4.301   5.127  0.1808 -1.9351  1.2875
  131OSM      N14095   0.615   3.212   7.319 -0.4932  0.4852  0.8992
  131OSM    C1514096   0.717   3.232   7.423  0.4223  0.3148 -0.0987
  131OSM   H15A14097   0.803   3.172   7.394 -0.9015 -1.2992 -0.8872
  131OSM   H15B14098   0.693   3.219   7.527  1.6804 -0.0074  0.1753
  131OSM   H15C14099   0.746   3.335   7.409  1.5594  0.0024 -0.1820
  131OSM    C1414100   0.598   3.065   7.314  0.2535  0.3892  0.7619
  131OSM   H14A14101   0.530   3.021   7.385 -0.1550  3.3135  2.3362
  131OSM   H14B14102   0.687   3.004   7.309  0.6167  1.0038 -1.3936
  131OSM   H14C14103   0.542   3.046   7.224  0.7706  2.3790 -0.0388
  131OSM    C1314104   0.492   3.287   7.350  0.4207  0.1316  0.0633
  131OSM   H13A14105   0.439   3.254   7.438  0.5373  0.8621  0.4175
  131OSM   H13B14106   0.425   3.276   7.267  2.5667 -0.5621 -1.6573
  131OSM   H13C14107   0.515   3.392   7.365  1.2061 -0.0963  0.5320
  131OSM    C1214108   0.663   3.271   7.183  0.0392 -0.3206 -0.3218
  131OSM   H12A14109   0.768   3.247   7.175  0.2634  0.6220 -0.2841
  131OSM   H12B14110   0.673   3.378   7.188 -0.2040 -0.2881 -0.4987
  131OSM    C1114111   0.598   3.236   7.049 -0.0279  0.2165 -0.3648
  131OSM   H11A14112   0.605   3.127   7.029  0.5945  0.7303 -3.3767
  131OSM   H11B14113   0.672   3.281   6.979  0.4110  1.5341  0.9025
  131OSM      P14114   0.442   3.431   6.985  0.0602 -0.4704  0.0446
  131OSM    O1314115   0.300   3.443   6.956 -0.3103  0.0302 -0.4963
  131OSM    O1414116   0.503   3.530   7.077  0.1925 -0.0057  0.4283
  131OSM    O1114117   0.519   3.428   6.849 -0.3958 -0.0903  0.0444
  131OSM    O1214118   0.467   3.288   7.034  0.1513  0.7412 -0.4140
  131OSM    C1S14119   0.476   3.323   6.757 -0.4585 -0.3762  0.4675
  131OSM    H1S14120   0.365   3.315   6.757 -0.3336 -2.6288  0.2719
  131OSM    H1T14121   0.499   3.221   6.793  0.1459  0.3056  2.1433
  131OSM     NF14122   0.440   3.252   6.523  0.1069 -0.1853 -0.3620
  131OSM    HNF14123   0.493   3.188   6.468  0.5413  0.1639 -0.3503
  131OSM    C2S14124   0.508   3.347   6.607 -0.2154  0.3902 -0.7331
  131OSM    H2S14125   0.481   3.451   6.579  1.4296  1.6781  2.0932
  131OSM    C3S14126   0.666   3.353   6.589 -0.0291 -0.3223  0.2467
  131OSM    H3S14127   0.712   3.255   6.611 -0.0654 -0.4493 -0.2164
  131OSM     O314128   0.721   3.445   6.683 -0.3333 -0.3950 -0.1478
  131OSM    HO314129   0.664   3.441   6.760  1.8665 -0.8589  1.5888
  131OSM    C4S14130   0.696   3.388   6.441  0.9109  0.1496  0.0641
  131OSM    H4S14131   0.670   3.301   6.378 -1.1016  0.5780  0.2439
  131OSM    C5S14132   0.738   3.498   6.381  0.1868  0.0413 -0.4938
  131OSM    H5S14133   0.775   3.581   6.443  1.0209 -0.6499 -0.0413
  131OSM    C6S14134   0.756   3.517   6.234 -0.3514 -0.3153 -0.3960
  131OSM    H6S14135   0.865   3.535   6.225  0.0160 -1.4072  1.3632
  131OSM    H6T14136   0.695   3.604   6.203  0.0258  0.1711  0.2077
  131OSM    C7S14137   0.720   3.406   6.139 -0.5992 -0.6463 -0.6537
  131OSM    H7S14138   0.612   3.382   6.153 -1.2494  0.6313 -2.8116
  131OSM    H7T14139   0.783   3.316   6.153 -1.5863 -1.3483 -0.5960
  131OSM    C8S14140   0.715   3.445   5.990  0.0444 -0.1244  0.3076
  131OSM    H8S14141   0.822   3.458   5.964  0.3948 -0.7797  1.3711
  131OSM    H8T14142   0.674   3.548   5.983  1.3149  0.5034  1.6221
  131OSM    C9S14143   0.660   3.335   5.892  0.0071 -0.3610 -0.6972
  131OSM    H9S14144   0.553   3.327   5.919  0.3588 -0.9288  0.5995
  131OSM    H9T14145   0.713   3.237   5.899 -2.2076 -1.6991 -1.5425
  131OSM   C10S14146   0.659   3.382   5.747 -0.5554 -0.8206  0.1803
  131OSM   H10S14147   0.588   3.467   5.741  0.6006  0.1786  0.1700
  131OSM   H10T14148   0.607   3.300   5.694  0.6776 -2.6499  1.6884
  131OSM   C11S14149   0.786   3.417   5.671  0.1706 -0.2058  0.2714
  131OSM   H11S14150   0.860   3.337   5.694  0.0566 -0.8350 -1.4058
  131OSM   H11T14151   0.820   3.516   5.709  1.0575  0.0228 -1.0465
  131OSM   C12S14152   0.767   3.427   5.520 -0.5674  0.5822 -0.3986
  131OSM   H12S14153   0.690   3.500   5.489 -1.6766 -1.1771 -1.9579
  131OSM   H12T14154   0.730   3.326   5.494 -1.5194  1.1320 -1.2295
  131OSM   C13S14155   0.894   3.451   5.445 -0.2628 -0.2120  0.4861
  131OSM   H13S14156   0.977   3.393   5.491 -0.0389 -1.2436 -1.1037
  131OSM   H13T14157   0.919   3.558   5.460  1.6239 -0.2731 -1.5704
  131OSM   C14S14158   0.881   3.417   5.301 -0.0644  0.6707 -0.6872
  131OSM   H14S14159   0.806   3.488   5.259 -1.4557 -0.2350  0.1930
  131OSM   H14T14160   0.853   3.315   5.269 -2.5372  0.8308  0.7309
  131OSM   C15S14161   1.009   3.440   5.230 -0.0872 -0.0107  0.5252
  131OSM   H15S14162   1.082   3.371   5.277 -1.0983 -1.5208 -0.0377
  131OSM   H15T14163   1.052   3.538   5.257 -1.8810  0.6231  1.2440
  131OSM   C16S14164   1.000   3.421   5.081  0.9011  0.4068  0.6239
  131OSM   H16S14165   0.939   3.486   5.014 -0.6902 -1.1201  0.5203
  131OSM   H16T14166   0.946   3.326   5.063  1.0883  0.3364  0.4361
  131OSM   C17S14167   1.134   3.406   5.006 -0.9705 -0.6226  0.2421
  131OSM   H17S14168   1.188   3.330   5.066  1.2409 -1.0765 -2.1701
  131OSM   H17T14169   1.194   3.499   4.995 -1.9165  0.0683  0.7177
  131OSM   C18S14170   1.124   3.350   4.860 -0.0054 -0.3419  0.0756
  131OSM   H18S14171   1.225   3.334   4.816 -0.5266 -1.4201 -0.7850
  131OSM   H18T14172   1.081   3.425   4.791  0.5756 -1.2521 -1.3189
  131OSM   H18U14173   1.066   3.256   4.847  1.5003 -1.1423 -1.2591
  131OSM    C1F14174   0.306   3.250   6.513 -0.3056  0.3278 -0.3434
  131OSM     OF14175   0.225   3.322   6.571 -0.5023 -0.2046 -0.2807
  131OSM    C2F14176   0.246   3.142   6.425  0.2953  1.0055 -0.1057
  131OSM    H2F14177   0.138   3.135   6.449 -0.0772 -0.1039 -1.8818
  131OSM    H2G14178   0.266   3.038   6.458 -3.2652 -0.2702 -1.4479
  131OSM    C3F14179   0.281   3.162   6.273 -0.2934  0.0339  0.0703
  131OSM    H3F14180   0.385   3.131   6.253 -0.7205 -2.5442  1.4323
  131OSM    H3G14181   0.265   3.272   6.262 -2.7847 -0.4626 -2.1845
  131OSM    C4F14182   0.191   3.091   6.175  0.7711  0.3056  0.1617
  131OSM    H4F14183   0.089   3.110   6.216  0.8647 -0.2982  0.6945
  131OSM    H4G14184   0.203   2.981   6.170  0.9217  0.3100  0.4027
  131OSM    C5F14185   0.199   3.140   6.029 -0.6452 -0.2382 -1.0878
  131OSM    H5F14186   0.303   3.119   5.996 -0.9419  1.2460 -3.1968
  131OSM    H5G14187   0.187   3.251   6.032 -0.9005 -0.2652  2.6571
  131OSM    C6F14188   0.090   3.080   5.946 -0.3017  0.0590  0.3896
  131OSM    H6F14189  -0.001   3.123   5.993  0.8489  0.1186  2.7003
  131OSM    H6G14190   0.082   2.969   5.958  1.2532 -0.1095  0.0451
  131OSM    C7F14191   0.100   3.102   5.792  0.6971  0.5511  0.7156
  131OSM    H7F14192   0.038   3.028   5.737 -0.2644  0.3507  2.0150
  131OSM    H7G14193   0.204   3.068   5.775  0.7076  0.8103  0.2561
  131OSM    C8F14194   0.065   3.250   5.751 -0.6855  0.4291  0.4055
  131OSM    H8F14195   0.093   3.265   5.645  1.0514 -1.3977  0.5621
  131OSM    H8G14196   0.138   3.317   5.803  0.7308  0.2422 -1.2369
  131OSM    C9F14197  -0.072   3.291   5.783  0.4761 -0.3303  0.5350
  131OSM    H9F14198  -0.094   3.303   5.890 -0.3757  1.1211  0.2295
  131OSM   C10F14199  -0.167   3.327   5.701  0.3437  0.2024  0.2884
  131OSM   H10F14200  -0.259   3.373   5.740  0.9402 -0.1132  2.1482
  131OSM   C11F14201  -0.157   3.338   5.546 -0.7507 -0.2237 -0.0447
  131OSM   H11F14202  -0.207   3.252   5.498 -0.3622 -0.5135  0.0688
  131OSM   H11G14203  -0.054   3.321   5.508 -0.3027 -0.5081  1.2297
  131OSM   C12F14204  -0.188   3.475   5.475  0.3710 -1.1589  0.7734
  131OSM   H12F14205  -0.119   3.548   5.522  0.7688 -0.0745 -1.3903
  131OSM   H12G14206  -0.292   3.514   5.482 -0.0598 -1.2948 -2.9248
  131OSM   C13F14207  -0.157   3.469   5.324  0.5070  0.8185  0.0979
  131OSM   H13F14208  -0.241   3.434   5.261 -0.2704  0.2950  1.3886
  131OSM   H13G14209  -0.078   3.393   5.309  0.6068  1.0368 -0.4851
  131OSM   C14F14210  -0.102   3.608   5.273 -0.2107  0.8027 -0.6032
  131OSM   H14F14211  -0.011   3.649   5.323  1.4221 -1.7816 -1.2520
  131OSM   H14G14212  -0.180   3.686   5.264  0.0674  1.2878  0.9422
  131OSM   C15F14213  -0.047   3.591   5.126  0.0061  1.0367 -0.3143
  131OSM   H15F14214  -0.126   3.541   5.067 -0.2025  0.0356  0.7618
  131OSM   H15G14215   0.034   3.515   5.136 -0.6631  0.2804 -0.5192
  131OSM   C16F14216   0.001   3.719   5.056  0.7075  0.1581 -0.5796
  131OSM   H16F14217   0.072   3.770   5.124 -1.3948  2.4571  0.0278
  131OSM   H16G14218  -0.082   3.791   5.042  0.1185 -0.5012 -0.5580
  131OSM   C17F14219   0.070   3.702   4.922 -0.3890  0.4605  0.0171
  131OSM   H17F14220  -0.001   3.681   4.839  1.1077  1.5304 -1.5997
  131OSM   H17G14221   0.134   3.612   4.913  0.2420  1.0449 -1.7976
  131OSM   C18F14222   0.162   3.820   4.881  0.1247 -0.5504 -0.3535
  131OSM   H18F14223   0.234   3.846   4.961 -0.8308  1.2406 -0.0086
  131OSM   H18G14224   0.100   3.911   4.863  0.7579 -0.3360 -1.6221
  131OSM   H18H14225   0.213   3.798   4.784  0.2896  0.3713 -0.4876
  132OSM      N14226   5.232   3.945   7.693  0.1518 -0.4208 -0.7234
  132OSM    C1514227   5.245   3.832   7.794  0.3519 -0.0763 -0.1611
  132OSM   H15A14228   5.267   3.739   7.743 -3.0042 -1.3583  0.4467
  132OSM   H15B14229   5.156   3.814   7.852 -0.5865  1.5082 -1.0447
  132OSM   H15C14230   5.329   3.838   7.861  0.8649 -0.1484 -0.7897
  132OSM    C1414231   5.124   3.928   7.597  0.2371  0.0182 -0.3890
  132OSM   H14A14232   5.146   3.857   7.518 -0.9294 -1.4955  0.5845
  132OSM   H14B14233   5.094   4.018   7.547  2.1006  0.2210 -1.1987
  132OSM   H14C14234   5.033   3.897   7.648  0.3801  0.8227  0.3826
  132OSM    C1314235   5.215   4.075   7.773 -0.0870  0.2722  1.0629
  132OSM   H13A14236   5.205   4.160   7.707 -0.0073 -0.4812  0.0519
  132OSM   H13B14237   5.297   4.085   7.842 -0.1472  0.3561  1.1224
  132OSM   H13C14238   5.136   4.066   7.846  1.1658 -0.0944  2.4197
  132OSM    C1214239   5.360   3.953   7.612 -0.8019  0.7855  0.0092
  132OSM   H12A14240   5.452   3.973   7.666  0.2002 -0.7834 -1.0256
  132OSM   H12B14241   5.350   4.040   7.549  2.4816  0.5835 -0.9771
  132OSM    C1114242   5.407   3.830   7.532  0.3708 -0.0872  0.3300
  132OSM   H11A14243   5.424   3.754   7.612  0.5063  0.5365  0.8998
  132OSM   H11B14244   5.501   3.846   7.475  0.6691 -1.3542  0.4212
  132OSM      P14245   5.338   3.628   7.392 -0.0632  0.0898 -0.2500
  132OSM    O1314246   5.482   3.606   7.372 -0.6835 -1.0292 -0.4355
  132OSM    O1414247   5.275   3.533   7.492 -0.1349  0.0257 -0.0597
  132OSM    O1114248   5.272   3.601   7.258 -0.3260 -0.1905 -0.2108
  132OSM    O1214249   5.312   3.781   7.434 -0.1708 -0.4323  0.1163
  132OSM    C1S14250   5.147   3.652   7.207  0.0244 -0.1522 -0.3247
  132OSM    H1S14251   5.120   3.741   7.268  1.4450  1.4214 -1.8936
  132OSM    H1T14252   5.071   3.574   7.229  0.5943 -0.3997  0.8297
  132OSM     NF14253   5.025   3.724   7.006  0.1608 -0.3492  0.4802
  132OSM    HNF14254   4.985   3.652   6.950  3.1319 -1.9889  0.2742
  132OSM    C2S14255   5.155   3.689   7.060 -0.9187 -0.5593  0.6599
  132OSM    H2S14256   5.207   3.787   7.052 -0.4664 -0.9521 -2.2780
  132OSM    C3S14257   5.237   3.591   6.977  0.8945  0.3456  0.1067
  132OSM    H3S14258   5.193   3.491   6.991  1.2771 -0.7933 -5.0118
  132OSM     O314259   5.374   3.589   7.016  0.0607  0.0497  0.3017
  132OSM    HO314260   5.365   3.591   7.112  0.2850  0.9926  0.3127
  132OSM    C4S14261   5.231   3.613   6.830  0.2604  0.3072 -0.4165
  132OSM    H4S14262   5.299   3.696   6.810  1.1844 -0.2523  0.3380
  132OSM    C5S14263   5.179   3.536   6.739  0.0050  0.0715  0.0129
  132OSM    H5S14264   5.134   3.441   6.769 -2.0572  0.8480 -0.4814
  132OSM    C6S14265   5.190   3.552   6.594 -0.0692  0.8715  0.1663
  132OSM    H6S14266   5.239   3.649   6.568 -1.6521  2.1228  1.5754
  132OSM    H6T14267   5.085   3.560   6.560  0.0560 -1.8344 -1.1346
  132OSM    C7S14268   5.260   3.453   6.503  0.8060  1.5001 -0.8431
  132OSM    H7S14269   5.194   3.363   6.505  0.7908  1.4354 -2.6205
  132OSM    H7T14270   5.358   3.425   6.546 -0.3839 -0.8039  0.6535
  132OSM    C8S14271   5.268   3.490   6.357  0.0786  0.2943 -0.3863
  132OSM    H8S14272   5.355   3.558   6.342  0.6636 -0.7958 -2.3659
  132OSM    H8T14273   5.179   3.541   6.314 -0.7175 -1.9457 -1.6233
  132OSM    C9S14274   5.279   3.364   6.274 -0.2418 -0.0851  0.3849
  132OSM    H9S14275   5.203   3.285   6.290  0.0242 -0.4505 -0.1451
  132OSM    H9T14276   5.375   3.315   6.302  0.2970  0.1985 -0.8739
  132OSM   C10S14277   5.268   3.399   6.128  0.1068  0.6715  0.8053
  132OSM   H10S14278   5.351   3.467   6.096  0.2210  0.5146  0.7687
  132OSM   H10T14279   5.177   3.463   6.122  0.5443  1.2491  0.2052
  132OSM   C11S14280   5.245   3.285   6.037 -0.1215 -0.3112 -1.0301
  132OSM   H11S14281   5.144   3.243   6.059 -0.0357  0.5385  1.2102
  132OSM   H11T14282   5.310   3.200   6.063  0.9231  0.9697  0.7310
  132OSM   C12S14283   5.263   3.324   5.893 -0.4044  0.3220  0.2356
  132OSM   H12S14284   5.372   3.321   5.871  0.0946 -0.8231  2.6233
  132OSM   H12T14285   5.216   3.423   5.872 -3.7141 -1.2365 -0.1571
  132OSM   C13S14286   5.195   3.227   5.793 -0.3610 -0.4810 -0.5264
  132OSM   H13S14287   5.099   3.200   5.843  0.3901  0.5521  1.6057
  132OSM   H13T14288   5.252   3.134   5.771  2.2201  1.2528 -1.6440
  132OSM   C14S14289   5.168   3.297   5.665 -0.4486  0.0144  0.2678
  132OSM   H14S14290   5.264   3.346   5.636  0.6285 -2.3707 -0.4809
  132OSM   H14T14291   5.095   3.380   5.677 -1.1826 -0.5617 -0.1835
  132OSM   C15S14292   5.135   3.203   5.547  0.1264  0.7785 -0.6283
  132OSM   H15S14293   5.047   3.143   5.579  0.7798  0.0852 -0.0863
  132OSM   H15T14294   5.216   3.129   5.531 -0.2636  0.5840 -1.7741
  132OSM   C16S14295   5.117   3.264   5.407  0.0780 -0.1102  0.4807
  132OSM   H16S14296   5.209   3.320   5.381  0.0866 -0.2913  0.1246
  132OSM   H16T14297   5.033   3.337   5.416 -1.6222 -1.9506  0.1999
  132OSM   C17S14298   5.079   3.161   5.304  0.2118  0.1101  0.8359
  132OSM   H17S14299   5.019   3.085   5.358  0.2576 -0.3692  0.2193
  132OSM   H17T14300   5.173   3.111   5.272  0.0306  0.1144  0.2864
  132OSM   C18S14301   5.020   3.221   5.179  0.1595  1.0427 -0.0458
  132OSM   H18S14302   5.098   3.286   5.135  0.7934 -0.0667 -0.6169
  132OSM   H18T14303   4.923   3.275   5.182 -1.4166 -1.3517 -2.8206
  132OSM   H18U14304   5.002   3.137   5.108  1.0450  0.2391  0.6490
  132OSM    C1F14305   4.944   3.819   7.043  0.2967  0.2606 -0.2488
  132OSM     OF14306   4.985   3.906   7.115 -0.4911  0.3377  0.1740
  132OSM    C2F14307   4.805   3.818   6.996  0.3066 -0.6902  0.2629
  132OSM    H2F14308   4.765   3.919   7.016 -0.7558 -1.3922  1.9388
  132OSM    H2G14309   4.747   3.757   7.069  1.1816 -0.9403  0.7719
  132OSM    C3F14310   4.771   3.762   6.855 -0.0650  0.2635 -0.3042
  132OSM    H3F14311   4.661   3.747   6.841  0.4122 -2.2060 -2.3677
  132OSM    H3G14312   4.818   3.662   6.841  1.5307  0.5861  2.2301
  132OSM    C4F14313   4.818   3.845   6.737 -0.4365 -0.2935  0.1633
  132OSM    H4F14314   4.926   3.872   6.732  0.2225 -2.3156  2.0276
  132OSM    H4G14315   4.758   3.939   6.729 -0.3683 -0.4210 -2.5022
  132OSM    C5F14316   4.792   3.769   6.607  0.4973 -0.2548 -0.2494
  132OSM    H5F14317   4.720   3.688   6.631 -3.1373  2.6319 -0.5159
  132OSM    H5G14318   4.889   3.726   6.575 -0.8194 -1.9805 -2.1898
  132OSM    C6F14319   4.748   3.866   6.490 -0.2967  0.6314 -0.1224
  132OSM    H6F14320   4.847   3.884   6.441  0.9751  1.6323  2.5836
  132OSM    H6G14321   4.708   3.959   6.535  2.6207  0.8387  2.3311
  132OSM    C7F14322   4.641   3.810   6.392 -0.6424 -0.4882 -0.0183
  132OSM    H7F14323   4.548   3.791   6.450 -0.7517 -1.1234 -0.3964
  132OSM    H7G14324   4.680   3.711   6.362  2.6891  1.2048 -1.7831
  132OSM    C8F14325   4.609   3.890   6.268 -0.4589  0.5176 -0.1822
  132OSM    H8F14326   4.707   3.930   6.233 -0.1494  0.2880  0.4195
  132OSM    H8G14327   4.552   3.983   6.290 -0.6656  0.4403 -0.3861
  132OSM    C9F14328   4.540   3.812   6.159  0.2453 -0.5428 -0.4339
  132OSM    H9F14329   4.448   3.769   6.202  1.0698 -1.1808  0.7306
  132OSM   C10F14330   4.570   3.804   6.025 -0.2163 -1.2346  0.4895
  132OSM   H10F14331   4.508   3.733   5.969 -0.7697  0.0251 -0.5303
  132OSM   C11F14332   4.696   3.858   5.953  1.1431  0.4212 -0.3563
  132OSM   H11F14333   4.787   3.816   6.002 -0.8080 -1.5313  1.8232
  132OSM   H11G14334   4.706   3.966   5.975 -0.4017  0.4534  0.2814
  132OSM   C12F14335   4.699   3.843   5.798  0.7385 -1.0852 -0.2909
  132OSM   H12F14336   4.677   3.736   5.775  1.2439 -1.4182  0.7413
  132OSM   H12G14337   4.799   3.868   5.756  0.9630 -1.2130  0.1556
  132OSM   C13F14338   4.583   3.923   5.737 -0.7645  0.1168  0.7583
  132OSM   H13F14339   4.599   4.033   5.747  0.2676  0.0763 -0.1995
  132OSM   H13G14340   4.490   3.888   5.786 -0.3203 -1.6875  0.3633
  132OSM   C14F14341   4.570   3.903   5.584  0.6864  0.2454 -0.3233
  132OSM   H14F14342   4.555   3.795   5.563  0.6090  0.2954 -0.5346
  132OSM   H14G14343   4.663   3.940   5.535  2.0076 -0.3297  1.6439
  132OSM   C15F14344   4.450   3.972   5.525  0.5449  0.0678  0.5975
  132OSM   H15F14345   4.457   4.083   5.534 -1.8047  0.1051  2.8803
  132OSM   H15G14346   4.357   3.954   5.582 -0.2188  1.4288 -0.1591
  132OSM   C16F14347   4.418   3.935   5.376  0.3033 -0.0236 -0.2775
  132OSM   H16F14348   4.393   3.826   5.379  0.1903  0.0117  0.1104
  132OSM   H16G14349   4.514   3.951   5.323 -0.7624  2.8439 -1.5067
  132OSM   C17F14350   4.315   4.026   5.312  0.3135  0.4352 -0.0593
  132OSM   H17F14351   4.354   4.127   5.333  0.1321  0.1960  1.5709
  132OSM   H17G14352   4.219   4.004   5.363 -0.0466 -0.4566 -1.0653
  132OSM   C18F14353   4.302   4.006   5.165 -0.2490  1.1859  0.3173
  132OSM   H18F14354   4.259   3.904   5.157 -1.6242  1.6543  1.4011
  132OSM   H18G14355   4.390   4.017   5.098  0.4710  2.1596  1.4039
  132OSM   H18H14356   4.220   4.069   5.125 -0.6842 -0.3957 -1.4115
  133OSM      N14357   4.379   5.387   6.617  0.0070  0.1826 -0.4122
  133OSM    C1514358   4.382   5.298   6.738 -0.1321  0.6162  0.1837
  133OSM   H15A14359   4.428   5.351   6.820 -1.7221 -0.3348  1.7791
  133OSM   H15B14360   4.420   5.199   6.717 -1.2843 -0.2045  1.7061
  133OSM   H15C14361   4.281   5.283   6.775 -0.6969  1.1097 -1.0992
  133OSM    C1414362   4.323   5.314   6.502 -0.0112 -0.0079 -0.1149
  133OSM   H14A14363   4.375   5.223   6.477  0.2070  0.3461 -0.9726
  133OSM   H14B14364   4.319   5.375   6.413 -0.0448 -1.5243 -1.1851
  133OSM   H14C14365   4.226   5.279   6.532 -1.1495  3.1702  0.3555
  133OSM    C1314366   4.294   5.503   6.644  0.1462 -0.3368 -0.1025
  133OSM   H13A14367   4.294   5.573   6.562  0.7915  0.0716  0.2405
  133OSM   H13B14368   4.336   5.556   6.728  0.1063  0.1387 -0.3806
  133OSM   H13C14369   4.191   5.482   6.667 -0.6878  0.7487 -2.5465
  133OSM    C1214370   4.522   5.438   6.589 -0.0737 -0.1833  0.2169
  133OSM   H12A14371   4.516   5.501   6.501  0.9390  2.0394  1.6693
  133OSM   H12B14372   4.583   5.350   6.575 -2.1392 -1.5240 -0.9526
  133OSM    C1114373   4.584   5.537   6.694 -0.2889  0.3879 -0.0792
  133OSM   H11A14374   4.516   5.624   6.709  0.8053  1.2460  0.0686
  133OSM   H11B14375   4.675   5.579   6.645  0.4732 -2.7587 -1.6243
  133OSM      P14376   4.746   5.407   6.844 -0.0572 -0.5046  0.1059
  133OSM    O1314377   4.854   5.513   6.852  0.5791  0.1575  0.1838
  133OSM    O1414378   4.736   5.314   6.957  0.5736  0.2648 -0.5222
  133OSM    O1114379   4.768   5.335   6.711  0.3432  0.4553  0.1948
  133OSM    O1214380   4.606   5.477   6.818 -0.1538 -0.0519  0.1489
  133OSM    C1S14381   4.765   5.193   6.697 -0.1829 -0.3418  0.8913
  133OSM    H1S14382   4.662   5.163   6.669 -1.0821  1.3395  2.2139
  133OSM    H1T14383   4.783   5.134   6.789  3.5315  0.2410  0.6910
  133OSM     NF14384   4.822   4.993   6.556 -0.1850  0.1247 -0.5003
  133OSM    HNF14385   4.879   4.921   6.594  2.4205  0.7586 -2.8823
  133OSM    C2S14386   4.862   5.132   6.592  0.1328  0.4354 -0.4495
  133OSM    H2S14387   4.839   5.200   6.508 -0.3072  1.8332  0.7566
  133OSM    C3S14388   5.008   5.137   6.633 -0.0026 -1.1477 -0.3233
  133OSM    H3S14389   5.012   5.062   6.715 -1.5174  1.1715  2.0431
  133OSM     O314390   5.044   5.254   6.703 -0.1045  0.1085 -0.6159
  133OSM    HO314391   4.961   5.297   6.725 -0.3511 -0.9899  0.7715
  133OSM    C4S14392   5.102   5.098   6.519  0.8857  0.1295 -0.4724
  133OSM    H4S14393   5.119   4.990   6.502  0.4087 -0.4725  2.3032
  133OSM    C5S14394   5.150   5.189   6.441  0.5376 -0.0935 -0.2128
  133OSM    H5S14395   5.131   5.294   6.468 -0.9607 -0.4897  0.3707
  133OSM    C6S14396   5.246   5.174   6.330  0.2781  0.0159  0.5114
  133OSM    H6S14397   5.261   5.070   6.295 -1.7097  0.2837 -1.4232
  133OSM    H6T14398   5.347   5.214   6.351  0.3890 -0.0709  0.1517
  133OSM    C7S14399   5.197   5.248   6.212 -0.2055  0.0664  0.4132
  133OSM    H7S14400   5.180   5.355   6.238 -1.6786  0.4713 -1.9101
  133OSM    H7T14401   5.097   5.212   6.179 -0.2200  0.5371 -0.0564
  133OSM    C8S14402   5.299   5.253   6.094  0.1462  0.1278 -0.6466
  133OSM    H8S14403   5.340   5.152   6.071 -0.6116 -0.0524 -1.2486
  133OSM    H8T14404   5.377   5.328   6.120  1.0932 -0.9996 -0.1135
  133OSM    C9S14405   5.240   5.289   5.953  0.4133  0.2518 -0.5620
  133OSM    H9S14406   5.197   5.391   5.962  0.3669  0.2779 -1.0603
  133OSM    H9T14407   5.156   5.226   5.918  1.2888  0.6403 -3.6818
  133OSM   C10S14408   5.342   5.292   5.843 -0.9401 -0.5151 -0.3795
  133OSM   H10S14409   5.393   5.194   5.853  0.5887  0.4096  1.7515
  133OSM   H10T14410   5.415   5.372   5.866 -1.6462  0.2873 -0.8696
  133OSM   C11S14411   5.280   5.297   5.709  0.3339 -0.4712  0.2319
  133OSM   H11S14412   5.219   5.389   5.695 -0.5890 -1.1262 -0.1799
  133OSM   H11T14413   5.220   5.204   5.700 -2.0622  0.9154  0.6547
  133OSM   C12S14414   5.385   5.294   5.592 -0.0617 -0.0074  0.2627
  133OSM   H12S14415   5.418   5.191   5.567  1.3696  1.1736 -3.4803
  133OSM   H12T14416   5.487   5.335   5.608 -0.7134  1.2584  1.3637
  133OSM   C13S14417   5.324   5.348   5.461  0.0957  0.1150  0.0082
  133OSM   H13S14418   5.320   5.459   5.466  2.3023  0.1808  2.6484
  133OSM   H13T14419   5.221   5.307   5.450 -0.4108  1.6419 -1.4422
  133OSM   C14S14420   5.406   5.302   5.339  0.7317 -0.2364 -0.2970
  133OSM   H14S14421   5.483   5.231   5.376  1.2847 -0.1686 -1.2812
  133OSM   H14T14422   5.462   5.387   5.294  0.9739  0.9689  2.1459
  133OSM   C15S14423   5.315   5.238   5.229 -0.2596 -0.1233 -0.9871
  133OSM   H15S14424   5.380   5.231   5.139  1.9991 -0.0429  0.5661
  133OSM   H15T14425   5.230   5.307   5.206 -1.9588 -2.1196 -0.9772
  133OSM   C16S14426   5.257   5.099   5.269 -0.3247 -0.0686 -0.4668
  133OSM   H16S14427   5.204   5.116   5.365  0.6983  1.9857 -0.2195
  133OSM   H16T14428   5.349   5.041   5.293  0.3334  0.9499 -0.5010
  133OSM   C17S14429   5.167   5.020   5.165  0.1437  0.4465 -0.2604
  133OSM   H17S14430   5.169   4.916   5.203  0.0688  1.2421  2.1032
  133OSM   H17T14431   5.215   5.026   5.065 -2.2911 -0.9319 -1.6191
  133OSM   C18S14432   5.029   5.077   5.156  0.6259  0.0203 -0.0535
  133OSM   H18S14433   5.029   5.185   5.132 -1.0893 -0.3105 -1.8620
  133OSM   H18T14434   4.975   5.082   5.253 -2.3568  1.3492 -1.6286
  133OSM   H18U14435   4.960   5.028   5.085 -0.2415  0.0797  0.7262
  133OSM    C1F14436   4.707   4.970   6.490 -0.2800 -0.1185  0.9450
  133OSM     OF14437   4.627   5.054   6.453  0.0418 -0.1652 -0.7408
  133OSM    C2F14438   4.675   4.828   6.458 -0.2188 -0.1505  0.3976
  133OSM    H2F14439   4.630   4.776   6.545  1.1035 -1.0141  0.5865
  133OSM    H2G14440   4.764   4.762   6.454 -0.6907 -0.8206  0.7695
  133OSM    C3F14441   4.590   4.807   6.329 -0.0834 -0.0605  0.0904
  133OSM    H3F14442   4.653   4.857   6.251 -3.2545  2.4476 -1.0879
  133OSM    H3G14443   4.496   4.866   6.337  1.3440  2.3269  0.4485
  133OSM    C4F14444   4.555   4.665   6.288  0.6514  0.7914 -0.6969
  133OSM    H4F14445   4.477   4.636   6.363 -0.0878  2.1508 -0.9013
  133OSM    H4G14446   4.648   4.605   6.294  0.7386  1.0627  1.4964
  133OSM    C5F14447   4.487   4.659   6.151  0.5488  0.1470 -0.0592
  133OSM    H5F14448   4.407   4.737   6.148  0.1109 -0.1149  2.4727
  133OSM    H5G14449   4.455   4.553   6.153  4.7996 -1.4280 -2.4139
  133OSM    C6F14450   4.581   4.667   6.037  0.8599 -0.1053  0.5773
  133OSM    H6F14451   4.634   4.572   6.011 -0.0507 -0.5071  0.1306
  133OSM    H6G14452   4.663   4.738   6.062  0.1851  1.1650 -0.6437
  133OSM    C7F14453   4.510   4.722   5.906 -0.8417  0.6769  0.3191
  133OSM    H7F14454   4.457   4.815   5.936 -3.2708 -0.4981 -0.1031
  133OSM    H7G14455   4.430   4.650   5.879 -1.0403  0.1642  2.1499
  133OSM    C8F14456   4.616   4.744   5.794 -0.1999 -0.4324  0.2122
  133OSM    H8F14457   4.679   4.653   5.803 -1.3504 -1.2031  0.5903
  133OSM    H8G14458   4.687   4.816   5.841 -0.8382  0.8832 -0.7838
  133OSM    C9F14459   4.560   4.788   5.660  0.2753  0.1427 -0.4517
  133OSM    H9F14460   4.459   4.746   5.662 -0.0394  0.8738 -0.6042
  133OSM   C10F14461   4.611   4.857   5.560 -0.0588  0.3745 -0.6012
  133OSM   H10F14462   4.548   4.874   5.472 -1.1074  1.0281  0.2559
  133OSM   C11F14463   4.747   4.920   5.549 -0.1855  0.1179  0.1225
  133OSM   H11F14464   4.801   4.932   5.646  1.1155  1.1788 -0.6982
  133OSM   H11G14465   4.744   5.024   5.511  2.7450  0.6108  0.9894
  133OSM   C12F14466   4.842   4.845   5.459  0.4508  0.2186  0.1743
  133OSM   H12F14467   4.854   4.737   5.482  3.0995  0.3291 -0.4088
  133OSM   H12G14468   4.945   4.886   5.465  0.8114 -0.7264  0.7176
  133OSM   C13F14469   4.808   4.846   5.309  1.0038 -0.3918 -0.2084
  133OSM   H13F14470   4.804   4.945   5.259 -2.3642 -1.1694 -1.7198
  133OSM   H13G14471   4.710   4.798   5.287  1.1813  0.0163 -2.0995
  133OSM   C14F14472   4.907   4.752   5.241 -0.6677  0.0859  0.5086
  133OSM   H14F14473   4.894   4.653   5.290  3.0877 -1.0841 -0.4413
  133OSM   H14G14474   5.011   4.777   5.272 -0.9206  0.6506  0.9123
  133OSM   C15F14475   4.885   4.738   5.091  0.7969  0.5184 -0.1523
  133OSM   H15F14476   4.883   4.838   5.043 -1.9539  0.5190 -0.1957
  133OSM   H15G14477   4.781   4.702   5.072  0.4126  1.5164 -0.0069
  133OSM   C16F14478   4.998   4.667   5.001  0.2768  0.0920 -0.2592
  133OSM   H16F14479   4.944   4.615   4.918  1.0570 -3.5002  1.2713
  133OSM   H16G14480   5.027   4.572   5.052 -0.8967  0.5349  1.3113
  133OSM   C17F14481   5.120   4.742   4.970 -0.4028 -0.6474  0.0517
  133OSM   H17F14482   5.174   4.768   5.064  0.0073 -0.6968 -0.1686
  133OSM   H17G14483   5.095   4.840   4.925 -1.1853  0.5064  2.7655
  133OSM   C18F14484   5.219   4.662   4.881 -0.8935  0.2142  1.0830
  133OSM   H18F14485   5.156   4.598   4.815  1.4457 -1.3921  0.2923
  133OSM   H18G14486   5.289   4.607   4.947  0.6352  0.3093 -0.3994
  133OSM   H18H14487   5.281   4.732   4.820 -1.5487 -1.1051 -1.2297
  134OSM      N14488   5.042   3.216   7.339  0.4333 -0.0654 -0.3661
  134OSM    C1514489   5.133   3.173   7.227  0.3190 -0.6339  0.3039
  134OSM   H15A14490   5.236   3.143   7.241  0.8507  0.3419 -1.2787
  134OSM   H15B14491   5.141   3.266   7.172 -2.7242  0.9278  2.1894
  134OSM   H15C14492   5.086   3.097   7.167  0.6833  0.0056 -0.8233
  134OSM    C1414493   5.117   3.277   7.449  0.0273  0.2555 -0.2916
  134OSM   H14A14494   5.183   3.201   7.488  0.6846  1.1685  0.3839
  134OSM   H14B14495   5.048   3.307   7.527 -1.0421  2.8106 -2.0604
  134OSM   H14C14496   5.171   3.366   7.423 -2.7228  1.8350 -0.9908
  134OSM    C1314497   4.944   3.321   7.274  0.0447  0.2215  0.3764
  134OSM   H13A14498   4.860   3.344   7.339 -0.1068  0.3462  0.1361
  134OSM   H13B14499   4.902   3.274   7.187  1.0688  2.0778 -1.1771
  134OSM   H13C14500   5.004   3.410   7.263 -0.0997  0.4336  1.1890
  134OSM    C1214501   4.962   3.101   7.400  0.1127  0.5513  0.5155
  134OSM   H12A14502   4.898   3.143   7.476  0.2977  2.3966 -0.2977
  134OSM   H12B14503   5.029   3.027   7.441  1.3265  1.3318 -0.0198
  134OSM    C1114504   4.862   3.016   7.310 -0.6106 -0.1003  1.5452
  134OSM   H11A14505   4.819   2.935   7.373 -0.2762 -1.8308 -0.3465
  134OSM   H11B14506   4.923   2.958   7.237 -2.5146 -0.8080  0.4123
  134OSM      P14507   4.709   3.049   7.099 -0.2202 -0.1265 -0.0084
  134OSM    O1314508   4.639   2.919   7.118 -0.8371 -0.3274  0.4170
  134OSM    O1414509   4.635   3.159   7.040  0.3760 -0.3076  0.2080
  134OSM    O1114510   4.833   3.015   7.003  0.2709  0.2273  0.1325
  134OSM    O1214511   4.766   3.095   7.246  0.5027  0.4582  0.2847
  134OSM    C1S14512   4.821   2.950   6.874 -0.0877  0.5199 -0.2194
  134OSM    H1S14513   4.756   2.860   6.877  0.7392 -0.0713  0.5927
  134OSM    H1T14514   4.922   2.905   6.864 -0.6603 -0.9914  0.5731
  134OSM     NF14515   4.746   2.991   6.638  0.4568  0.2144 -0.3060
  134OSM    HNF14516   4.807   3.005   6.561  1.3738  2.5991  0.7737
  134OSM    C2S14517   4.786   3.054   6.759 -0.3263 -0.0072  0.1679
  134OSM    H2S14518   4.706   3.124   6.790  1.2435  1.6486  0.6777
  134OSM    C3S14519   4.907   3.147   6.743  0.1514 -0.0291 -0.7300
  134OSM    H3S14520   4.991   3.076   6.726  0.6603  0.4086 -0.0630
  134OSM     O314521   4.943   3.218   6.862  0.2663 -0.2021  0.3921
  134OSM    HO314522   4.896   3.170   6.931 -0.3836  1.2871  1.0189
  134OSM    C4S14523   4.900   3.237   6.625 -0.0140  0.6680  0.0117
  134OSM    H4S14524   4.938   3.184   6.536 -1.4693  1.1613 -0.9441
  134OSM    C5S14525   4.847   3.360   6.608 -0.0454 -0.1892 -0.0631
  134OSM    H5S14526   4.802   3.405   6.698  0.3485 -0.1047  0.0932
  134OSM    C6S14527   4.830   3.435   6.478 -0.2669  0.1101 -0.1086
  134OSM    H6S14528   4.903   3.518   6.472  0.6112 -0.7348 -3.3774
  134OSM    H6T14529   4.727   3.475   6.480 -0.4347 -0.3183  0.1504
  134OSM    C7S14530   4.837   3.351   6.354  0.1063 -0.1179 -0.4366
  134OSM    H7S14531   4.772   3.261   6.358 -1.4346  0.9509 -0.4500
  134OSM    H7T14532   4.940   3.313   6.337 -0.4001 -0.5063 -2.9797
  134OSM    C8S14533   4.791   3.440   6.236 -0.7621  0.5319 -0.4123
  134OSM    H8S14534   4.873   3.515   6.237 -0.4100  0.1517  0.2872
  134OSM    H8T14535   4.693   3.487   6.254 -1.2181 -0.8999  1.0959
  134OSM    C9S14536   4.782   3.369   6.106 -0.7243 -0.0812  0.6833
  134OSM    H9S14537   4.704   3.290   6.109 -0.4378 -0.4714 -1.0944
  134OSM    H9T14538   4.875   3.313   6.085 -0.3518  1.0889 -0.8916
  134OSM   C10S14539   4.780   3.462   5.987 -0.7153  0.3092  0.8286
  134OSM   H10S14540   4.867   3.531   5.980  1.0304 -1.7804  1.2195
  134OSM   H10T14541   4.687   3.522   6.004 -1.4512 -0.1277 -1.3547
  134OSM   C11S14542   4.754   3.381   5.857  0.0706 -0.6663 -0.4887
  134OSM   H11S14543   4.674   3.305   5.870  0.8450 -1.2778  0.8163
  134OSM   H11T14544   4.848   3.329   5.827  0.4732  0.9882 -2.3031
  134OSM   C12S14545   4.722   3.468   5.728  0.5075  0.3687 -0.2737
  134OSM   H12S14546   4.798   3.549   5.719  0.8091 -0.0984 -2.9015
  134OSM   H12T14547   4.618   3.507   5.728  0.3965  0.1121  0.8660
  134OSM   C13S14548   4.734   3.383   5.600 -0.2376 -1.4686  0.3762
  134OSM   H13S14549   4.666   3.295   5.601 -1.0676 -0.8472 -0.3083
  134OSM   H13T14550   4.838   3.346   5.592 -0.3198 -1.5844 -0.2236
  134OSM   C14S14551   4.714   3.470   5.474  0.5268  0.5708 -0.5394
  134OSM   H14S14552   4.763   3.414   5.391  1.5928 -1.3039  1.2736
  134OSM   H14T14553   4.772   3.562   5.496  0.6150  0.9840 -2.3526
  134OSM   C15S14554   4.571   3.490   5.432  0.3056 -0.0031  0.1452
  134OSM   H15S14555   4.514   3.553   5.504  2.2736  0.5979  1.2437
  134OSM   H15T14556   4.520   3.391   5.433  0.3968 -0.0612  1.6679
  134OSM   C16S14557   4.553   3.546   5.292  0.0093  0.0314 -0.3061
  134OSM   H16S14558   4.445   3.551   5.267 -0.4437  0.9399  1.5897
  134OSM   H16T14559   4.601   3.469   5.228  0.1282 -0.3234  0.2057
  134OSM   C17S14560   4.631   3.674   5.273  0.2969 -0.2772 -0.1830
  134OSM   H17S14561   4.735   3.658   5.309  0.7544  1.8190 -0.4328
  134OSM   H17T14562   4.599   3.750   5.347 -0.6367  0.8091 -1.6342
  134OSM   C18S14563   4.646   3.731   5.132  0.4036 -0.3813 -0.1642
  134OSM   H18S14564   4.684   3.654   5.062 -1.8459  0.7434 -2.8337
  134OSM   H18T14565   4.722   3.813   5.129 -0.2377  0.2357  0.1520
  134OSM   H18U14566   4.552   3.779   5.096 -0.5502 -0.3160  2.2183
  134OSM    C1F14567   4.624   2.946   6.623 -0.0874  0.0548  0.4902
  134OSM     OF14568   4.552   2.917   6.715 -0.0016 -0.1174 -0.2333
  134OSM    C2F14569   4.576   2.926   6.485  0.6472 -0.6337 -0.0323
  134OSM    H2F14570   4.495   2.998   6.457  0.7814  0.1388  1.4974
  134OSM    H2G14571   4.532   2.825   6.467  0.9253 -0.4965 -1.6816
  134OSM    C3F14572   4.691   2.953   6.373 -0.3695 -0.0185  0.9300
  134OSM    H3F14573   4.772   2.883   6.402 -0.1233 -0.6005 -1.0276
  134OSM    H3G14574   4.723   3.059   6.378  2.0410 -0.5752 -0.8846
  134OSM    C4F14575   4.647   2.935   6.228 -0.1338  0.3639 -0.7393
  134OSM    H4F14576   4.550   2.989   6.233 -0.1565  0.2481  0.3144
  134OSM    H4G14577   4.631   2.825   6.238  0.3947  0.4555  1.6390
  134OSM    C5F14578   4.736   2.979   6.109  0.0086 -0.1921  0.6041
  134OSM    H5F14579   4.816   2.907   6.082 -0.4165 -1.1214  1.7180
  134OSM    H5G14580   4.787   3.076   6.122 -1.3954  0.7764 -0.6377
  134OSM    C6F14581   4.655   3.004   5.977  0.2195  0.3028 -0.2311
  134OSM    H6F14582   4.714   3.064   5.904 -0.4425 -1.7464 -2.6208
  134OSM    H6G14583   4.561   3.058   6.001  0.5827  0.4121  1.0191
  134OSM    C7F14584   4.622   2.874   5.908  0.4032  0.7842 -0.0572
  134OSM    H7F14585   4.541   2.832   5.971  1.2388 -0.3039  0.3228
  134OSM    H7G14586   4.712   2.810   5.914  0.8661  1.4890  0.7364
  134OSM    C8F14587   4.575   2.884   5.762 -0.1894 -0.5238  0.2086
  134OSM    H8F14588   4.475   2.931   5.771  0.8820  1.9057  0.1993
  134OSM    H8G14589   4.564   2.779   5.724  0.1804 -1.0358  1.4786
  134OSM    C9F14590   4.661   2.969   5.673  0.4790  0.0157 -0.0223
  134OSM    H9F14591   4.658   3.077   5.691  0.9294 -0.0101  0.2228
  134OSM   C10F14592   4.740   2.928   5.568  0.0973 -0.2526  0.1754
  134OSM   H10F14593   4.798   2.999   5.507 -0.8191  0.3297 -0.0351
  134OSM   C11F14594   4.748   2.783   5.517  0.5584 -0.4726  0.0826
  134OSM   H11F14595   4.686   2.711   5.573 -1.1897 -1.0840 -2.4289
  134OSM   H11G14596   4.855   2.757   5.528  1.3131  2.6839  1.4955
  134OSM   C12F14597   4.715   2.771   5.364 -0.1324 -0.0428  0.1046
  134OSM   H12F14598   4.748   2.668   5.339 -0.1044  0.3592 -1.5779
  134OSM   H12G14599   4.770   2.846   5.304 -0.3805 -0.6118 -0.8520
  134OSM   C13F14600   4.566   2.767   5.327  0.3491  0.0044 -0.0979
  134OSM   H13F14601   4.523   2.852   5.383  2.5065 -0.8071  3.1357
  134OSM   H13G14602   4.520   2.675   5.370 -0.4629 -0.5247 -1.9902
  134OSM   C14F14603   4.542   2.769   5.174 -0.6796 -0.3129  0.5713
  134OSM   H14F14604   4.596   2.854   5.127 -2.4075  1.2815  1.3131
  134OSM   H14G14605   4.432   2.786   5.166 -0.9027 -1.4369  1.0420
  134OSM   C15F14606   4.581   2.635   5.112  0.3701  0.5239  0.7050
  134OSM   H15F14607   4.564   2.552   5.184  1.5252  1.0018  1.5636
  134OSM   H15G14608   4.692   2.634   5.097  0.4393 -0.8051  1.1581
  134OSM   C16F14609   4.512   2.616   4.976  0.3628  0.3398 -0.5863
  134OSM   H16F14610   4.528   2.704   4.909 -0.7261  1.4720  0.5984
  134OSM   H16G14611   4.403   2.616   4.996  0.3058  0.9210 -0.8774
  134OSM   C17F14612   4.557   2.487   4.907 -0.0421 -0.2504  0.3356
  134OSM   H17F14613   4.666   2.469   4.920 -0.0560 -0.2849  0.4002
  134OSM   H17G14614   4.551   2.509   4.798 -3.2196 -1.7626  0.0986
  134OSM   C18F14615   4.483   2.358   4.935  0.3474  0.0204  0.0840
  134OSM   H18F14616   4.374   2.375   4.933  0.8041  3.8400 -0.0013
  134OSM   H18G14617   4.498   2.317   5.037  1.5951  2.1261  0.8125
  134OSM   H18H14618   4.514   2.279   4.864  0.9470 -0.1488  0.5232
  135OSM      N14619   5.935   6.914   6.731 -0.4029 -0.4970  0.6974
  135OSM    C1514620   5.843   6.843   6.637  0.4280 -0.0567 -0.0677
  135OSM   H15A14621   5.784   6.776   6.697 -0.3363  2.2174  1.8844
  135OSM   H15B14622   5.906   6.789   6.568  4.6146  0.3896  3.0200
  135OSM   H15C14623   5.774   6.907   6.583 -1.4261 -1.7683  0.1584
  135OSM    C1414624   6.024   6.818   6.806 -0.0843  0.1571 -0.2176
  135OSM   H14A14625   5.974   6.724   6.828 -1.7348  0.9841 -0.2448
  135OSM   H14B14626   6.077   6.853   6.893 -0.9738  0.4480  0.2261
  135OSM   H14C14627   6.112   6.798   6.747  0.5599 -0.4678  0.9239
  135OSM    C1314628   6.022   7.005   6.646 -0.1580  0.2102  0.3432
  135OSM   H13A14629   5.960   7.079   6.599 -1.7702 -1.4296 -0.2305
  135OSM   H13B14630   6.070   6.945   6.570  1.0341  0.3766  0.9469
  135OSM   H13C14631   6.098   7.040   6.715 -0.2743 -1.0316  1.1343
  135OSM    C1214632   5.847   6.991   6.828 -0.0196 -0.2620 -1.0740
  135OSM   H12A14633   5.765   6.930   6.864 -0.0272 -1.1995 -2.6069
  135OSM   H12B14634   5.798   7.077   6.784 -0.1056 -0.7643 -1.9846
  135OSM    C1114635   5.922   7.049   6.952  0.3830  0.0139 -0.6516
  135OSM   H11A14636   5.962   6.960   7.005 -1.1375 -2.2105 -3.0196
  135OSM   H11B14637   5.837   7.093   7.009  1.3299  1.6150 -0.4101
  135OSM      P14638   5.983   7.295   6.910 -0.0236 -0.0154 -0.3264
  135OSM    O1314639   5.875   7.332   7.008 -0.5817  0.3146 -0.3101
  135OSM    O1414640   6.112   7.367   6.902 -0.0255  0.4112  0.0562
  135OSM    O1114641   5.917   7.294   6.767 -0.8666 -0.5777  0.4072
  135OSM    O1214642   6.024   7.143   6.923 -0.0078  0.1115  0.3113
  135OSM    C1S14643   5.951   7.390   6.665 -0.4711 -0.0180 -0.3213
  135OSM    H1S14644   6.048   7.362   6.618 -0.2013 -0.1348  0.2942
  135OSM    H1T14645   5.967   7.493   6.702  0.5519  0.1797 -1.2556
  135OSM     NF14646   5.911   7.478   6.447 -0.3012 -0.3998  0.0749
  135OSM    HNF14647   5.926   7.576   6.454  0.5874 -0.4614 -0.7082
  135OSM    C2S14648   5.841   7.405   6.554 -0.4262 -0.0182 -0.8606
  135OSM    H2S14649   5.823   7.300   6.525 -0.7829 -0.3626  0.5099
  135OSM    C3S14650   5.711   7.471   6.613 -0.3392  0.6173  0.1593
  135OSM    H3S14651   5.732   7.567   6.665 -2.5087  1.3737 -0.2630
  135OSM     O314652   5.649   7.402   6.722  0.2447 -0.3598  0.7969
  135OSM    HO314653   5.715   7.351   6.768  1.3545  1.7582  1.7144
  135OSM    C4S14654   5.624   7.512   6.502  0.4031 -0.0957 -0.2437
  135OSM    H4S14655   5.652   7.609   6.458 -3.2790  1.9954  1.4686
  135OSM    C5S14656   5.510   7.451   6.454 -0.1554  0.3360 -0.0336
  135OSM    H5S14657   5.486   7.355   6.501 -0.3181  0.6140  0.4640
  135OSM    C6S14658   5.413   7.514   6.356 -0.1551  0.2251  0.0810
  135OSM    H6S14659   5.314   7.533   6.403 -0.1427  0.6971 -0.0782
  135OSM    H6T14660   5.411   7.437   6.276  0.6885 -0.2176  0.4777
  135OSM    C7S14661   5.448   7.655   6.303 -0.7923 -0.5008 -0.8026
  135OSM    H7S14662   5.550   7.652   6.259 -0.3900  1.9959 -0.2125
  135OSM    H7T14663   5.467   7.724   6.388 -1.1303 -0.7407 -0.5283
  135OSM    C8S14664   5.360   7.734   6.204  0.4325  0.9570 -0.9184
  135OSM    H8S14665   5.419   7.824   6.178  1.1920  0.0593 -2.4603
  135OSM    H8T14666   5.270   7.772   6.258 -0.6688 -0.0561 -1.9910
  135OSM    C9S14667   5.314   7.662   6.084  0.2230 -0.2263  0.6500
  135OSM    H9S14668   5.404   7.605   6.056 -0.3054 -1.1490  0.7909
  135OSM    H9T14669   5.293   7.729   5.998 -0.2790 -2.2263 -0.8746
  135OSM   C10S14670   5.190   7.581   6.092  0.0470  0.2601  0.6456
  135OSM   H10S14671   5.110   7.636   6.146  1.0706  0.9718  1.4848
  135OSM   H10T14672   5.213   7.495   6.159 -0.1381  0.1553  0.5750
  135OSM   C11S14673   5.142   7.524   5.956  0.2585 -0.1238  0.4040
  135OSM   H11S14674   5.141   7.415   5.976  1.2259 -0.2605 -0.2351
  135OSM   H11T14675   5.220   7.550   5.882  1.6356  2.1735  2.4925
  135OSM   C12S14676   5.012   7.584   5.908  0.7543 -0.3010  0.8588
  135OSM   H12S14677   5.030   7.693   5.903 -1.0918  0.1564  2.7358
  135OSM   H12T14678   4.936   7.578   5.989 -1.0590  0.2394 -0.7170
  135OSM   C13S14679   4.947   7.524   5.778  0.2046  0.0851 -0.5612
  135OSM   H13S14680   4.840   7.553   5.766 -0.3821 -1.6070  0.1638
  135OSM   H13T14681   4.947   7.414   5.796  1.0924  0.0185 -0.9670
  135OSM   C14S14682   5.026   7.561   5.653  0.0907 -0.4242 -0.1344
  135OSM   H14S14683   5.124   7.509   5.652 -0.2356 -1.0390 -1.0855
  135OSM   H14T14684   5.042   7.670   5.644  2.4347 -0.6989  0.0215
  135OSM   C15S14685   4.962   7.520   5.521 -0.3168  0.8159 -0.1916
  135OSM   H15S14686   4.864   7.571   5.511 -0.5495  0.2066 -1.1916
  135OSM   H15T14687   4.944   7.410   5.520  0.7587  0.6250 -1.1128
  135OSM   C16S14688   5.038   7.568   5.396 -0.6419  0.4870  0.1261
  135OSM   H16S14689   5.139   7.523   5.401 -0.4865  0.5118 -2.1152
  135OSM   H16T14690   5.046   7.679   5.391 -0.0761  0.4026 -1.4466
  135OSM   C17S14691   4.978   7.519   5.258  0.7388 -0.4260  0.1265
  135OSM   H17S14692   5.028   7.579   5.178 -1.0890 -0.5207 -1.1403
  135OSM   H17T14693   4.869   7.541   5.258  0.6354 -0.8957  0.8412
  135OSM   C18S14694   5.000   7.365   5.230 -0.3909 -0.4139  0.4502
  135OSM   H18S14695   5.095   7.325   5.272 -0.7178 -1.3321  0.3386
  135OSM   H18T14696   5.019   7.354   5.121  1.1504  0.9676  0.5330
  135OSM   H18U14697   4.917   7.302   5.267 -0.6624 -0.6121 -0.4759
  135OSM    C1F14698   5.979   7.422   6.347  0.1237  0.3199 -0.1781
  135OSM     OF14699   6.008   7.305   6.355  0.2849 -0.3427  0.7585
  135OSM    C2F14700   6.018   7.505   6.230 -0.2694 -0.0066  0.1057
  135OSM    H2F14701   6.126   7.533   6.240  0.5058 -1.9554 -1.9382
  135OSM    H2G14702   5.970   7.605   6.227  0.1033  0.1920 -3.6406
  135OSM    C3F14703   6.016   7.427   6.101  0.1769  1.0740  0.5837
  135OSM    H3F14704   6.088   7.343   6.095  1.9910  2.6065 -0.3827
  135OSM    H3G14705   6.058   7.491   6.021  0.6090 -0.8328 -0.7699
  135OSM    C4F14706   5.872   7.386   6.058 -0.0537 -0.5754 -0.2143
  135OSM    H4F14707   5.877   7.324   5.966 -0.2517  2.9581 -2.8511
  135OSM    H4G14708   5.827   7.337   6.146  0.0524 -1.7338 -0.7896
  135OSM    C5F14709   5.769   7.499   6.035 -0.5917  0.1933 -0.1157
  135OSM    H5F14710   5.767   7.564   6.125 -1.4908  0.2332 -0.1559
  135OSM    H5G14711   5.667   7.455   6.025 -0.3470 -0.1923 -1.0358
  135OSM    C6F14712   5.790   7.588   5.914 -0.3999  0.2849  0.5426
  135OSM    H6F14713   5.775   7.522   5.827 -0.6127  1.9893 -0.7811
  135OSM    H6G14714   5.889   7.638   5.902 -1.2590  1.6761 -1.3470
  135OSM    C7F14715   5.689   7.703   5.915  0.0196 -0.1695  0.1492
  135OSM    H7F14716   5.705   7.763   6.007  1.1385  1.2116 -0.9003
  135OSM    H7G14717   5.590   7.657   5.937  1.1304 -1.7941  2.0435
  135OSM    C8F14718   5.696   7.768   5.775 -0.0696  0.0150 -0.4211
  135OSM    H8F14719   5.692   7.690   5.696 -0.0727 -1.0006  0.5560
  135OSM    H8G14720   5.797   7.813   5.764 -0.2788  0.3574 -0.9271
  135OSM    C9F14721   5.592   7.875   5.748  0.0444 -0.5062  0.4067
  135OSM    H9F14722   5.643   7.971   5.738 -0.2262 -0.5557 -1.8799
  135OSM   C10F14723   5.468   7.859   5.697 -0.0356 -0.2126 -0.2592
  135OSM   H10F14724   5.407   7.948   5.678 -0.6291 -1.5033 -6.0167
  135OSM   C11F14725   5.403   7.722   5.681  0.1675  0.3356 -0.2002
  135OSM   H11F14726   5.311   7.733   5.742  0.1969  1.1321 -0.2849
  135OSM   H11G14727   5.469   7.646   5.729 -1.4123 -0.8460  0.1923
  135OSM   C12F14728   5.365   7.684   5.537  0.9421 -0.2486  0.3818
  135OSM   H12F14729   5.299   7.762   5.493  1.1522 -0.2576  0.0463
  135OSM   H12G14730   5.311   7.587   5.546 -2.0221  0.9610 -2.5368
  135OSM   C13F14731   5.485   7.666   5.444  0.3525 -0.2097 -0.4141
  135OSM   H13F14732   5.553   7.602   5.505 -0.6981  0.2081  1.2506
  135OSM   H13G14733   5.536   7.762   5.422 -0.0672 -0.1952 -1.3416
  135OSM   C14F14734   5.443   7.597   5.317 -0.9071 -0.2919  0.5091
  135OSM   H14F14735   5.369   7.667   5.271 -0.5761  1.2138  2.1403
  135OSM   H14G14736   5.391   7.500   5.332  0.9546 -1.4616 -0.3058
  135OSM   C15F14737   5.554   7.559   5.212 -0.0325 -0.2159  0.9319
  135OSM   H15F14738   5.627   7.487   5.255  0.6439  0.4551  0.9178
  135OSM   H15G14739   5.613   7.650   5.186 -1.0636  0.0132 -0.7620
  135OSM   C16F14740   5.488   7.514   5.081  0.1249 -0.5943  0.6501
  135OSM   H16F14741   5.421   7.594   5.046 -0.3082 -1.4570 -0.5361
  135OSM   H16G14742   5.424   7.425   5.101 -0.4319 -0.3602 -0.0895
  135OSM   C17F14743   5.595   7.481   4.974  0.1167  0.1477 -0.4830
  135OSM   H17F14744   5.666   7.402   5.008  1.7957  0.9191 -2.0487
  135OSM   H17G14745   5.649   7.577   4.962 -0.0054  0.2678 -0.0972
  135OSM   C18F14746   5.541   7.432   4.837  0.4961  0.0212 -0.7857
  135OSM   H18F14747   5.488   7.336   4.853 -0.2697  0.4212 -0.8497
  135OSM   H18G14748   5.627   7.425   4.767  1.4932 -2.8512  0.5851
  135OSM   H18H14749   5.457   7.498   4.806  0.4212 -0.1470 -0.9403
  136OSM      N14750   2.205   5.398   7.187 -0.2320  0.5586 -0.2414
  136OSM    C1514751   2.096   5.387   7.285  0.2076  0.1228  0.2984
  136OSM   H15A14752   2.004   5.425   7.244 -0.3257  0.1794  1.4969
  136OSM   H15B14753   2.111   5.458   7.365  1.0440 -2.4527  2.6032
  136OSM   H15C14754   2.074   5.287   7.321 -0.8849  0.2420 -0.0099
  136OSM    C1414755   2.254   5.534   7.177  0.2528 -0.1970  0.1069
  136OSM   H14A14756   2.311   5.563   7.264 -0.7628  2.6570 -0.0740
  136OSM   H14B14757   2.178   5.611   7.175  2.5906  2.2810 -0.2329
  136OSM   H14C14758   2.306   5.553   7.083 -2.6453 -0.1321 -1.5955
  136OSM    C1314759   2.323   5.315   7.226 -0.4057 -0.5552  0.4875
  136OSM   H13A14760   2.355   5.322   7.328  0.7508 -1.0778  0.1736
  136OSM   H13B14761   2.412   5.348   7.175 -0.8870 -1.7195 -1.2235
  136OSM   H13C14762   2.304   5.212   7.202  2.9152 -1.4771  1.4179
  136OSM    C1214763   2.150   5.356   7.054 -0.1356  0.2991  0.5603
  136OSM   H12A14764   2.131   5.250   7.049 -1.1712  0.5354 -1.6893
  136OSM   H12B14765   2.228   5.363   6.979 -0.9363  1.5309 -0.2160
  136OSM    C1114766   2.024   5.424   6.992 -0.4711 -0.7226 -0.5453
  136OSM   H11A14767   2.024   5.410   6.882  1.5041 -1.5815 -0.4685
  136OSM   H11B14768   2.041   5.532   7.012  2.1996 -0.9569 -1.1834
  136OSM      P14769   1.842   5.248   7.028  0.2793 -0.3928  0.3328
  136OSM    O1314770   1.948   5.144   7.036 -0.1710  0.0726  0.0716
  136OSM    O1414771   1.722   5.236   7.114  0.0381  0.5967 -0.2659
  136OSM    O1114772   1.790   5.269   6.875 -0.4778 -0.1166 -0.1851
  136OSM    O1214773   1.905   5.392   7.065 -0.1303  0.4498 -0.6812
  136OSM    C1S14774   1.718   5.393   6.835 -0.6277 -0.4849  0.0409
  136OSM    H1S14775   1.785   5.481   6.843 -0.5075 -0.2818 -2.5450
  136OSM    H1T14776   1.627   5.408   6.897  1.0644  1.1193  2.3053
  136OSM     NF14777   1.608   5.520   6.641 -0.3646 -0.1936  0.6027
  136OSM    HNF14778   1.508   5.512   6.639 -0.6038  1.7503  1.8230
  136OSM    C2S14779   1.683   5.396   6.678 -0.2412  0.6230 -0.3693
  136OSM    H2S14780   1.781   5.401   6.627 -0.3695  1.6531 -0.5382
  136OSM    C3S14781   1.611   5.264   6.634 -0.0065 -0.8468 -1.1589
  136OSM    H3S14782   1.505   5.263   6.668  0.4061  2.6661  0.6459
  136OSM     O314783   1.674   5.141   6.674  0.2890 -0.3514 -0.2625
  136OSM    HO314784   1.699   5.173   6.762 -2.0595  2.7446 -0.5672
  136OSM    C4S14785   1.607   5.276   6.489  0.4291 -0.4456 -0.0638
  136OSM    H4S14786   1.505   5.297   6.455  0.7102  2.5831  0.7136
  136OSM    C5S14787   1.704   5.242   6.406  0.0108 -0.0951 -0.4908
  136OSM    H5S14788   1.800   5.200   6.441 -0.0244 -0.7191 -1.1194
  136OSM    C6S14789   1.696   5.240   6.257  0.4829 -0.3347 -0.2667
  136OSM    H6S14790   1.617   5.167   6.227 -0.1157 -0.1823  0.8615
  136OSM    H6T14791   1.798   5.220   6.218  0.6087 -0.2602  0.0242
  136OSM    C7S14792   1.661   5.378   6.200  0.0089 -0.3202 -0.1781
  136OSM    H7S14793   1.726   5.462   6.232 -0.5941 -0.0353  0.2961
  136OSM    H7T14794   1.556   5.403   6.226  0.0638 -0.9935  0.7294
  136OSM    C8S14795   1.662   5.374   6.044 -0.8314  0.5909 -0.1373
  136OSM    H8S14796   1.602   5.283   6.020  0.3251 -0.6745  1.4815
  136OSM    H8T14797   1.760   5.336   6.009  0.0657  2.3799  0.3575
  136OSM    C9S14798   1.630   5.500   5.970  0.5999 -0.4181  0.1881
  136OSM    H9S14799   1.700   5.577   6.007 -0.2991  0.6113 -0.2061
  136OSM    H9T14800   1.529   5.532   6.004  0.6947  0.5662 -0.4190
  136OSM   C10S14801   1.646   5.496   5.818 -0.1641  0.1286 -0.2898
  136OSM   H10S14802   1.587   5.414   5.773  0.6384  0.0256 -1.2107
  136OSM   H10T14803   1.752   5.467   5.799  0.7064  2.1623  1.0820
  136OSM   C11S14804   1.618   5.620   5.739  0.2706 -0.2301 -0.3202
  136OSM   H11S14805   1.664   5.708   5.789 -0.1897 -0.6847  0.9420
  136OSM   H11T14806   1.508   5.633   5.748  0.2945 -0.7430  0.7951
  136OSM   C12S14807   1.670   5.616   5.598 -0.1698  0.1551  0.7922
  136OSM   H12S14808   1.624   5.531   5.543 -0.3296 -0.2670  1.5790
  136OSM   H12T14809   1.779   5.595   5.595 -0.0370  0.8807 -1.1750
  136OSM   C13S14810   1.637   5.743   5.530 -0.5567 -0.2605  0.1626
  136OSM   H13S14811   1.685   5.831   5.579 -0.8288 -0.0265  0.0104
  136OSM   H13T14812   1.527   5.755   5.522 -0.7663 -0.9687  1.6943
  136OSM   C14S14813   1.690   5.736   5.381  0.2763 -0.0249 -0.0676
  136OSM   H14S14814   1.667   5.636   5.336  2.1671 -0.0259 -1.1288
  136OSM   H14T14815   1.800   5.751   5.388  0.1262  1.5563 -0.6945
  136OSM   C15S14816   1.629   5.853   5.307  0.8530  0.6474  0.5975
  136OSM   H15S14817   1.643   5.948   5.364 -0.7465  1.0536  0.3571
  136OSM   H15T14818   1.519   5.838   5.315  1.0939 -0.7863  1.5766
  136OSM   C16S14819   1.677   5.883   5.165 -0.5759  0.0959  0.5032
  136OSM   H16S14820   1.651   5.797   5.100  1.4049  0.3716 -0.7477
  136OSM   H16T14821   1.788   5.886   5.172 -0.6019 -0.3165  1.1117
  136OSM   C17S14822   1.622   6.005   5.102  0.0162  0.0367  0.7856
  136OSM   H17S14823   1.664   6.092   5.156  1.6777  0.8924 -1.7283
  136OSM   H17T14824   1.513   6.002   5.123 -0.8724 -1.3244 -3.0870
  136OSM   C18S14825   1.651   6.009   4.956  0.8856  0.3653  0.1923
  136OSM   H18S14826   1.599   6.099   4.915 -1.0303  0.0766  1.8117
  136OSM   H18T14827   1.621   5.921   4.895  3.4851 -0.1162 -0.5101
  136OSM   H18U14828   1.756   6.044   4.945 -0.4161  5.4838  1.1393
  136OSM    C1F14829   1.671   5.636   6.649  0.6166 -0.2593  0.3362
  136OSM     OF14830   1.790   5.633   6.671  0.2026 -0.2548 -0.3441
  136OSM    C2F14831   1.595   5.766   6.628 -0.2115  0.4939 -0.0535
  136OSM    H2F14832   1.577   5.810   6.728 -0.4397 -0.6430  0.4185
  136OSM    H2G14833   1.504   5.726   6.579  0.0683  0.9086 -0.9419
  136OSM    C3F14834   1.677   5.870   6.545 -0.6681 -0.4857 -0.9138
  136OSM    H3F14835   1.779   5.876   6.588 -1.4857 -1.4857  1.3426
  136OSM    H3G14836   1.639   5.974   6.552 -1.5084 -0.9011  1.6260
  136OSM    C4F14837   1.695   5.828   6.401 -0.3810 -0.2923  0.2692
  136OSM    H4F14838   1.719   5.720   6.385 -0.8165 -0.1449 -1.6310
  136OSM    H4G14839   1.772   5.898   6.361 -1.1213  0.2159 -0.2879
  136OSM    C5F14840   1.569   5.868   6.318 -0.0330  0.0246  0.7297
  136OSM    H5F14841   1.525   5.959   6.364 -0.9710  0.2262 -0.5007
  136OSM    H5G14842   1.491   5.789   6.326 -1.9649  1.7551 -0.1044
  136OSM    C6F14843   1.603   5.932   6.176 -0.5803  0.6558 -0.0685
  136OSM    H6F14844   1.679   5.868   6.126  0.8800  0.1950  2.5474
  136OSM    H6G14845   1.661   6.027   6.185  1.4603 -0.4271 -1.1613
  136OSM    C7F14846   1.472   5.945   6.094  0.4527  1.0388  0.8140
  136OSM    H7F14847   1.401   6.021   6.133 -1.0356  0.6195 -0.9334
  136OSM    H7G14848   1.425   5.845   6.104 -2.0769  2.2731  1.9620
  136OSM    C8F14849   1.495   5.964   5.945 -1.0112 -0.1496 -0.8187
  136OSM    H8F14850   1.573   5.896   5.904  0.0616  1.2694 -1.2172
  136OSM    H8G14851   1.534   6.064   5.917 -2.3379  0.2104 -1.4461
  136OSM    C9F14852   1.371   5.924   5.865 -0.6960  0.5428  0.8288
  136OSM    H9F14853   1.294   5.858   5.908 -1.6373 -0.8666 -2.6002
  136OSM   C10F14854   1.354   5.940   5.729  0.4474 -0.0441  0.2001
  136OSM   H10F14855   1.256   5.912   5.689 -0.4006  0.8830  1.5200
  136OSM   C11F14856   1.440   6.028   5.637 -1.0469  0.6906  0.5539
  136OSM   H11F14857   1.462   5.972   5.543 -0.9743  0.5339  0.6642
  136OSM   H11G14858   1.532   6.052   5.694 -0.8362 -2.5486  1.7885
  136OSM   C12F14859   1.368   6.158   5.599  0.6707 -0.0362  0.0481
  136OSM   H12F14860   1.358   6.230   5.683  3.3689  0.9006 -0.3368
  136OSM   H12G14861   1.265   6.125   5.572  0.2965  0.1498  1.1919
  136OSM   C13F14862   1.435   6.228   5.477  0.7980 -0.0861 -0.7101
  136OSM   H13F14863   1.450   6.147   5.402  0.4593  0.4031 -1.3165
  136OSM   H13G14864   1.530   6.257   5.526  1.2067 -3.4860  0.8256
  136OSM   C14F14865   1.366   6.354   5.422  0.4072  0.0966  0.0828
  136OSM   H14F14866   1.377   6.437   5.495  0.7289 -0.0469  0.1996
  136OSM   H14G14867   1.261   6.325   5.400 -0.4772  1.5070  2.1496
  136OSM   C15F14868   1.434   6.387   5.284  0.2211  0.1977 -0.1094
  136OSM   H15F14869   1.422   6.303   5.212  0.9031  2.3044 -2.8796
  136OSM   H15G14870   1.544   6.398   5.299  0.2960  0.1505 -0.6156
  136OSM   C16F14871   1.379   6.521   5.228  0.0500  0.2068 -0.5218
  136OSM   H16F14872   1.419   6.606   5.287 -0.2946  0.0989 -0.1297
  136OSM   H16G14873   1.271   6.533   5.253  0.3850  1.6472  0.2897
  136OSM   C17F14874   1.379   6.528   5.073  0.2044 -0.1810 -0.3923
  136OSM   H17F14875   1.382   6.425   5.032  0.9844 -0.5709  0.5873
  136OSM   H17G14876   1.466   6.584   5.033 -0.1865  1.3577  0.7915
  136OSM   C18F14877   1.254   6.596   5.017 -0.0923 -0.1859  0.2753
  136OSM   H18F14878   1.252   6.699   5.058 -0.0991  1.1949 -2.8944
  136OSM   H18G14879   1.160   6.540   5.032 -1.7666  2.1964 -0.7611
  136OSM   H18H14880   1.255   6.607   4.906 -0.2455  0.1459  0.3060
  137OSM      N14881   3.301   1.964   6.917 -0.4196 -0.6708 -0.3739
  137OSM    C1514882   3.239   2.087   6.969 -0.5840 -0.4532 -0.2646
  137OSM   H15A14883   3.132   2.080   6.952 -0.7807  0.1153  0.6881
  137OSM   H15B14884   3.268   2.181   6.924 -2.9421  0.8706  0.7762
  137OSM   H15C14885   3.242   2.099   7.076  1.1202  0.6309 -0.4094
  137OSM    C1414886   3.249   1.844   6.990  0.6420 -0.0867 -0.0656
  137OSM   H14A14887   3.142   1.836   6.978  0.0671  4.0877  0.6786
  137OSM   H14B14888   3.266   1.854   7.097 -2.6073 -1.7161  0.7225
  137OSM   H14C14889   3.287   1.750   6.955 -1.5556 -1.0958  0.1197
  137OSM    C1314890   3.270   1.951   6.766 -0.3148  0.3882  0.3090
  137OSM   H13A14891   3.163   1.939   6.755 -0.2821 -2.8090  2.1265
  137OSM   H13B14892   3.316   1.860   6.730  1.2952  0.6784  1.5150
  137OSM   H13C14893   3.308   2.036   6.712  3.1603 -1.3756 -0.2809
  137OSM    C1214894   3.450   1.975   6.942 -0.2711  0.2635 -0.8381
  137OSM   H12A14895   3.475   2.066   6.890 -0.2823  2.0178  2.0244
  137OSM   H12B14896   3.494   1.893   6.887 -1.8231 -1.0158 -0.2587
  137OSM    C1114897   3.504   1.985   7.090  0.5380 -0.2887 -0.9353
  137OSM   H11A14898   3.443   2.062   7.142  1.7728 -0.4587  0.8741
  137OSM   H11B14899   3.611   2.010   7.109  0.6144  0.4229 -2.2335
  137OSM      P14900   3.567   1.733   7.146 -0.4043 -0.2586  0.1486
  137OSM    O1314901   3.689   1.739   7.234  0.4023 -0.1797 -0.6467
  137OSM    O1414902   3.484   1.614   7.161  0.2482 -0.6494  0.2001
  137OSM    O1114903   3.618   1.739   6.995 -0.4656  0.0229 -0.5799
  137OSM    O1214904   3.474   1.863   7.161  0.1212  0.1738 -0.6837
  137OSM    C1S14905   3.664   1.611   6.948 -0.4046  0.3220  0.3732
  137OSM    H1S14906   3.572   1.548   6.951 -1.2280  1.4351 -0.4548
  137OSM    H1T14907   3.751   1.574   7.005  2.7172  2.2075 -2.7947
  137OSM     NF14908   3.699   1.472   6.753 -0.2363 -0.4076 -0.7469
  137OSM    HNF14909   3.786   1.441   6.715  0.6236  1.9134 -0.8705
  137OSM    C2S14910   3.699   1.615   6.798 -0.0229  1.0182  0.8477
  137OSM    H2S14911   3.618   1.669   6.745 -0.4157 -1.4172 -1.2011
  137OSM    C3S14912   3.833   1.682   6.774 -0.8835  0.1885 -0.0319
  137OSM    H3S14913   3.910   1.629   6.834  0.2012  0.0361 -1.5339
  137OSM     O314914   3.829   1.811   6.835  0.1888 -0.5173  0.2023
  137OSM    HO314915   3.757   1.801   6.897 -1.1588  1.2323 -0.9783
  137OSM    C4S14916   3.868   1.698   6.627 -0.1847 -0.2720 -0.1722
  137OSM    H4S14917   3.929   1.623   6.574 -0.6791  1.2409 -3.0766
  137OSM    C5S14918   3.815   1.800   6.548 -0.6488  0.8337 -0.1306
  137OSM    H5S14919   3.743   1.875   6.584  1.0908  1.6784  1.7977
  137OSM    C6S14920   3.836   1.824   6.402 -0.0526  0.0378 -0.4285
  137OSM    H6S14921   3.882   1.924   6.384  0.2665  0.2951  1.5491
  137OSM    H6T14922   3.741   1.822   6.345  0.4331 -3.9151 -1.3520
  137OSM    C7S14923   3.919   1.720   6.324 -0.4892 -0.8062 -0.2423
  137OSM    H7S14924   3.882   1.615   6.331  0.8618 -1.1976  1.5212
  137OSM    H7T14925   4.026   1.726   6.352 -0.5507  0.5384 -0.2235
  137OSM    C8S14926   3.925   1.753   6.174  0.4908 -0.4992  0.2420
  137OSM    H8S14927   3.994   1.839   6.163 -0.6241  0.4048  0.0996
  137OSM    H8T14928   3.820   1.779   6.148  0.4037  0.1952  1.2314
  137OSM    C9S14929   3.976   1.635   6.091 -0.5201 -0.0814  0.3558
  137OSM    H9S14930   3.923   1.539   6.111 -2.4820  0.0783 -3.1316
  137OSM    H9T14931   4.081   1.611   6.119 -1.4890 -1.0104  3.5980
  137OSM   C10S14932   3.960   1.669   5.939  0.0622  0.0578 -0.1630
  137OSM   H10S14933   4.034   1.746   5.908 -0.4729  0.8439  0.4527
  137OSM   H10T14934   3.857   1.712   5.940 -0.0215 -0.1415 -0.0184
  137OSM   C11S14935   3.976   1.552   5.836  0.0919 -0.1336 -0.2775
  137OSM   H11S14936   3.906   1.467   5.850  0.5377 -0.4191  0.2756
  137OSM   H11T14937   4.072   1.496   5.849 -1.0417 -1.6982  1.9784
  137OSM   C12S14938   3.966   1.601   5.699 -0.3013  0.3734 -0.1729
  137OSM   H12S14939   4.044   1.679   5.685  0.9965 -0.6997  0.8665
  137OSM   H12T14940   3.866   1.647   5.684 -1.0675 -0.3122  2.3960
  137OSM   C13S14941   3.981   1.484   5.600 -0.3699  0.0008 -0.3605
  137OSM   H13S14942   3.910   1.400   5.615  1.1182 -1.4831 -1.2994
  137OSM   H13T14943   4.082   1.436   5.600 -0.1050  0.5442  0.0028
  137OSM   C14S14944   3.973   1.538   5.458  0.1787 -0.6555  0.1782
  137OSM   H14S14945   4.051   1.484   5.401  0.9928 -0.6632  1.2768
  137OSM   H14T14946   3.976   1.648   5.449 -1.4531 -0.7126 -1.9097
  137OSM   C15S14947   3.844   1.492   5.390 -0.2392  0.0841  0.1274
  137OSM   H15S14948   3.758   1.546   5.434  1.0313  0.0537  2.8265
  137OSM   H15T14949   3.825   1.383   5.401 -0.8844  0.4366  3.1901
  137OSM   C16S14950   3.848   1.546   5.248 -0.3728  0.0540 -0.4151
  137OSM   H16S14951   3.931   1.509   5.185  0.5366  1.8936 -0.3732
  137OSM   H16T14952   3.848   1.657   5.258 -1.5038 -0.0901  1.9026
  137OSM   C17S14953   3.726   1.509   5.167  0.0873  0.6290 -0.6698
  137OSM   H17S14954   3.635   1.525   5.227 -0.2154 -4.3458  0.6502
  137OSM   H17T14955   3.732   1.401   5.142  0.7278  0.8910 -1.7258
  137OSM   C18S14956   3.723   1.591   5.037  0.2106 -0.0730 -0.9061
  137OSM   H18S14957   3.637   1.559   4.975 -2.5447  0.8129  2.1384
  137OSM   H18T14958   3.821   1.587   4.985  0.3355  0.9437 -0.7790
  137OSM   H18U14959   3.700   1.696   5.066  1.4345 -0.3604  1.3776
  137OSM    C1F14960   3.589   1.400   6.747 -0.3707 -0.2208 -0.0813
  137OSM     OF14961   3.481   1.439   6.778 -0.1902 -0.1093  0.3609
  137OSM    C2F14962   3.601   1.250   6.722  0.4649  0.1471 -0.1799
  137OSM    H2F14963   3.570   1.199   6.816  1.5433 -1.9824 -0.9207
  137OSM    H2G14964   3.704   1.216   6.697  0.4220  1.4853 -2.4858
  137OSM    C3F14965   3.499   1.203   6.604 -0.0667 -0.2447  0.0125
  137OSM    H3F14966   3.401   1.253   6.621 -0.2042 -0.5785  0.2015
  137OSM    H3G14967   3.477   1.095   6.605 -0.8800 -0.0935  1.1313
  137OSM    C4F14968   3.565   1.230   6.459  0.7425  0.2683 -0.2885
  137OSM    H4F14969   3.658   1.173   6.436  1.0269  0.1630  1.0510
  137OSM    H4G14970   3.600   1.335   6.468  1.1545  0.2467 -1.4704
  137OSM    C5F14971   3.468   1.201   6.341 -0.3230 -0.6837  0.0979
  137OSM    H5F14972   3.480   1.283   6.268 -0.8770 -0.8243 -0.1507
  137OSM    H5G14973   3.366   1.215   6.382 -0.1641  0.9953 -0.0119
  137OSM    C6F14974   3.490   1.067   6.271 -1.1557 -0.2529 -0.2097
  137OSM    H6F14975   3.478   0.992   6.353 -4.7342  0.7921  0.3878
  137OSM    H6G14976   3.598   1.060   6.243 -0.5672 -0.6629  1.9726
  137OSM    C7F14977   3.397   1.043   6.157  0.1112 -0.4175 -0.3949
  137OSM    H7F14978   3.421   1.121   6.082  1.7656 -0.3229  0.1874
  137OSM    H7G14979   3.294   1.073   6.184  1.6508  3.1912  2.3298
  137OSM    C8F14980   3.413   0.901   6.099 -0.3641  0.2408  0.0411
  137OSM    H8F14981   3.405   0.823   6.177  0.8403 -0.3181 -0.3770
  137OSM    H8G14982   3.513   0.875   6.058 -0.2590 -1.7249  1.4034
  137OSM    C9F14983   3.305   0.871   5.999  0.1690 -0.7889 -0.4118
  137OSM    H9F14984   3.246   0.784   6.030 -2.2844  0.9560  0.0831
  137OSM   C10F14985   3.272   0.934   5.889  0.3526  0.2606 -0.3383
  137OSM   H10F14986   3.200   0.884   5.823  1.7647  0.4998 -2.1454
  137OSM   C11F14987   3.323   1.064   5.834 -1.0122 -0.2815  0.3399
  137OSM   H11F14988   3.327   1.142   5.913 -3.8217  2.1992 -1.7441
  137OSM   H11G14989   3.241   1.098   5.767 -0.3746 -0.4747 -0.5560
  137OSM   C12F14990   3.451   1.067   5.746 -1.0903  0.4141  0.6870
  137OSM   H12F14991   3.546   1.061   5.804 -0.7836  2.8384  0.5392
  137OSM   H12G14992   3.449   1.162   5.688 -2.2647 -0.9929 -1.7514
  137OSM   C13F14993   3.455   0.958   5.634  0.2693  0.6075  0.0441
  137OSM   H13F14994   3.356   0.980   5.587  1.5886  0.7570 -2.9302
  137OSM   H13G14995   3.439   0.853   5.666 -0.1094 -0.4619 -3.1920
  137OSM   C14F14996   3.564   0.975   5.531 -0.3272  0.5709  1.2044
  137OSM   H14F14997   3.661   0.930   5.561  1.1370  1.0161 -2.2832
  137OSM   H14G14998   3.590   1.080   5.508  2.1022 -0.4077 -1.0968
  137OSM   C15F14999   3.523   0.917   5.391 -0.5550 -0.9130 -0.2458
  137OSM   H15F15000   3.429   0.969   5.362 -0.1835 -1.2682 -2.2649
  137OSM   H15G15001   3.509   0.808   5.406 -1.1665 -0.5807  1.9734
  137OSM   C16F15002   3.626   0.938   5.279  0.3583 -0.2936 -0.0306
  137OSM   H16F15003   3.723   0.894   5.309 -0.0203 -0.3280  1.2058
  137OSM   H16G15004   3.648   1.046   5.264 -1.6786  0.0441 -0.9522
  137OSM   C17F15005   3.588   0.879   5.144  0.0352  0.6904 -0.1681
  137OSM   H17F15006   3.498   0.929   5.104 -0.6008  0.4248  0.8791
  137OSM   H17G15007   3.563   0.772   5.158 -0.9135  0.8222 -0.8174
  137OSM   C18F15008   3.696   0.895   5.038 -0.2560  0.1497  0.0960
  137OSM   H18F15009   3.670   0.854   4.938  1.1783 -2.0116  0.5499
  137OSM   H18G15010   3.791   0.849   5.074  0.7114  1.6572 -0.4087
  137OSM   H18H15011   3.707   1.005   5.021 -1.8559  0.6208  1.7993
  138OSM      N15012   1.882   2.199   7.186 -0.9134  0.6780 -0.3125
  138OSM    C1515013   1.912   2.340   7.232  0.3715  0.0144 -0.1668
  138OSM   H15A15014   1.943   2.328   7.335 -2.0215 -1.2578  0.4756
  138OSM   H15B15015   1.823   2.401   7.241  0.2967 -0.1466  0.1940
  138OSM   H15C15016   1.982   2.398   7.173 -0.3892  1.5031  0.3406
  138OSM    C1415017   2.011   2.134   7.222 -0.0286 -0.6766  0.2042
  138OSM   H14A15018   2.008   2.027   7.208  0.1082 -0.6469 -0.0633
  138OSM   H14B15019   2.044   2.142   7.324  1.8709 -0.3113 -0.3948
  138OSM   H14C15020   2.085   2.177   7.156  0.5098  0.1073  1.2770
  138OSM    C1315021   1.770   2.149   7.271  0.2626  0.1340  0.2201
  138OSM   H13A15022   1.776   2.168   7.377 -2.9315  0.1748  0.5032
  138OSM   H13B15023   1.759   2.042   7.257  0.2718  0.4696 -3.0490
  138OSM   H13C15024   1.677   2.194   7.240 -1.0477 -3.4914 -1.7383
  138OSM    C1215025   1.856   2.184   7.040 -0.4598 -0.3793 -0.1077
  138OSM   H12A15026   1.946   2.207   6.985 -0.7252 -0.5683 -0.6220
  138OSM   H12B15027   1.782   2.257   7.013  1.1225  1.6107  0.6563
  138OSM    C1115028   1.805   2.051   6.993 -0.5073 -0.0251  0.0975
  138OSM   H11A15029   1.764   2.056   6.889 -0.4039  0.5052  0.0765
  138OSM   H11B15030   1.717   2.016   7.050 -0.6805 -0.1314 -0.2324
  138OSM      P15031   2.040   1.940   6.922  0.4403  0.6132  0.2838
  138OSM    O1315032   2.155   1.987   6.998  0.1967 -0.2378  0.5839
  138OSM    O1415033   2.049   1.796   6.879 -0.3481  0.7500  0.7700
  138OSM    O1115034   2.018   2.049   6.803 -0.2901  0.4059  0.6527
  138OSM    O1215035   1.911   1.951   6.999  0.6029 -0.0203  0.4836
  138OSM    C1S15036   2.125   2.060   6.709 -0.2288  0.4774  1.1363
  138OSM    H1S15037   2.180   1.964   6.704 -3.8187 -1.6823 -0.9310
  138OSM    H1T15038   2.205   2.131   6.738 -0.3891  1.8628 -1.4481
  138OSM     NF15039   2.183   2.084   6.467 -0.4327 -0.1503 -0.1212
  138OSM    HNF15040   2.217   2.158   6.409 -2.0902  0.6489 -0.1287
  138OSM    C2S15041   2.076   2.097   6.563  0.3437  0.3235  0.1232
  138OSM    H2S15042   1.996   2.025   6.535 -0.2646  0.5701  1.1949
  138OSM    C3S15043   2.006   2.236   6.567 -0.0767 -0.4302  0.1604
  138OSM    H3S15044   2.088   2.312   6.570  0.6072 -1.1675  2.1444
  138OSM     O315045   1.938   2.272   6.685 -0.0553  0.6354 -0.3082
  138OSM    HO315046   1.963   2.197   6.740 -0.7936 -0.4640 -1.4220
  138OSM    C4S15047   1.926   2.272   6.447  0.2841  0.2503 -0.1871
  138OSM    H4S15048   1.826   2.227   6.455 -0.1210  0.9053 -1.2923
  138OSM    C5S15049   1.950   2.367   6.349 -0.0177 -0.0126 -0.6065
  138OSM    H5S15050   2.033   2.437   6.364 -0.7312  0.5740  0.8065
  138OSM    C6S15051   1.859   2.404   6.238  0.2924  0.2133 -0.0162
  138OSM    H6S15052   1.856   2.515   6.229  1.6003  0.2421 -0.2918
  138OSM    H6T15053   1.756   2.373   6.266  0.9408  1.8610  5.1827
  138OSM    C7S15054   1.919   2.339   6.111 -0.1163  0.0269 -0.0979
  138OSM    H7S15055   1.897   2.230   6.112  0.2292 -0.1094 -2.3245
  138OSM    H7T15056   2.029   2.329   6.106 -0.1448  0.2610 -1.8042
  138OSM    C8S15057   1.855   2.411   5.990 -0.1453  0.0929  0.3011
  138OSM    H8S15058   1.915   2.503   5.975 -1.1828  0.9036  0.9420
  138OSM    H8T15059   1.746   2.430   6.006 -0.9063 -3.9166  1.0743
  138OSM    C9S15060   1.877   2.323   5.866 -0.1401 -0.0233  0.4594
  138OSM    H9S15061   1.845   2.219   5.887 -2.5585  0.9714  2.1904
  138OSM    H9T15062   1.982   2.337   5.833 -0.1048  2.6935  1.4954
  138OSM   C10S15063   1.785   2.364   5.745 -0.3823 -0.5987 -0.6762
  138OSM   H10S15064   1.800   2.472   5.723 -1.9998 -0.3684 -0.7717
  138OSM   H10T15065   1.678   2.345   5.768  0.2223 -0.5619  2.5913
  138OSM   C11S15066   1.818   2.283   5.620 -0.2030  0.9449 -0.4906
  138OSM   H11S15067   1.797   2.175   5.636 -0.2693  0.8006 -1.4550
  138OSM   H11T15068   1.925   2.294   5.595 -0.4401  1.0398 -1.5040
  138OSM   C12S15069   1.731   2.327   5.505 -0.1403  0.0695  0.5347
  138OSM   H12S15070   1.779   2.419   5.465  0.6918  0.8629  3.1408
  138OSM   H12T15071   1.636   2.365   5.549 -0.8019 -0.6124 -0.2707
  138OSM   C13S15072   1.712   2.232   5.393 -0.9018  0.6418  0.9824
  138OSM   H13S15073   1.650   2.284   5.316  0.9549 -0.7744 -1.6457
  138OSM   H13T15074   1.674   2.133   5.426  0.8532 -0.4276 -0.0403
  138OSM   C14S15075   1.846   2.194   5.322  0.4389  0.3774  0.3686
  138OSM   H14S15076   1.908   2.125   5.383  0.1666 -1.3684 -1.2220
  138OSM   H14T15077   1.894   2.292   5.302  1.2679 -0.3253 -1.2246
  138OSM   C15S15078   1.825   2.110   5.190  0.6609  1.0318  0.0142
  138OSM   H15S15079   1.736   2.149   5.137  0.4298  0.2109 -0.2081
  138OSM   H15T15080   1.796   2.007   5.220  0.4858  1.1038  0.0934
  138OSM   C16S15081   1.948   2.099   5.096 -0.5939  0.3341 -0.2020
  138OSM   H16S15082   1.946   2.003   5.040 -1.2170  0.1851  0.0628
  138OSM   H16T15083   2.036   2.077   5.161 -1.6927  1.0219  1.6048
  138OSM   C17S15084   1.975   2.223   5.017  0.7898  0.2443 -0.3101
  138OSM   H17S15085   2.065   2.200   4.956  1.7367  0.0161  1.1212
  138OSM   H17T15086   1.994   2.308   5.086 -0.5063 -1.3369  2.1517
  138OSM   C18S15087   1.861   2.267   4.927 -0.5615 -0.0740  0.0776
  138OSM   H18S15088   1.772   2.306   4.981 -1.0581 -0.5293 -0.3903
  138OSM   H18T15089   1.837   2.194   4.846  1.1615  0.3305 -0.8596
  138OSM   H18U15090   1.884   2.362   4.875 -5.1712  0.3804 -1.6450
  138OSM    C1F15091   2.215   1.962   6.430  0.2443  0.2461 -0.2803
  138OSM     OF15092   2.160   1.870   6.486  0.1491 -0.6876  0.3504
  138OSM    C2F15093   2.321   1.942   6.315  0.9784  0.3446 -0.5582
  138OSM    H2F15094   2.403   1.877   6.351  1.5609  1.7793  0.8358
  138OSM    H2G15095   2.376   2.038   6.305  3.6104 -0.9398  0.6387
  138OSM    C3F15096   2.234   1.905   6.200  0.3259  0.0710  0.1662
  138OSM    H3F15097   2.200   1.801   6.216  2.1884 -0.9272 -1.9380
  138OSM    H3G15098   2.300   1.889   6.112  0.7863 -0.4101  0.5975
  138OSM    C4F15099   2.125   2.003   6.152 -0.3409  0.4686  0.7516
  138OSM    H4F15100   2.169   2.105   6.162 -0.0435  0.5507 -1.1651
  138OSM    H4G15101   2.032   1.981   6.208 -2.2912 -1.7336 -2.9820
  138OSM    C5F15102   2.097   1.975   6.001 -0.4450  0.0503 -0.7755
  138OSM    H5F15103   2.008   2.039   5.986  0.7206  1.9259 -0.1409
  138OSM    H5G15104   2.067   1.869   5.991  1.8093 -0.7858  0.5162
  138OSM    C6F15105   2.216   2.014   5.912 -0.1967  0.0891 -0.1940
  138OSM    H6F15106   2.289   1.929   5.909 -1.9549 -1.4512 -2.0122
  138OSM    H6G15107   2.271   2.103   5.949  0.1210 -0.1048 -0.1927
  138OSM    C7F15108   2.161   2.044   5.770 -0.0783  0.1383 -0.2508
  138OSM    H7F15109   2.082   2.122   5.780 -0.8343  0.3558 -5.3467
  138OSM    H7G15110   2.120   1.954   5.721 -0.1072  1.5133 -2.9650
  138OSM    C8F15111   2.270   2.097   5.681  0.0174  0.5726  0.5316
  138OSM    H8F15112   2.331   2.005   5.665  0.6074  0.9421  0.6128
  138OSM    H8G15113   2.336   2.178   5.720  0.3947 -1.1147  3.6866
  138OSM    C9F15114   2.207   2.149   5.556 -0.0195  0.1413  0.7221
  138OSM    H9F15115   2.124   2.221   5.555  1.4113  1.9372 -1.4920
  138OSM   C10F15116   2.243   2.101   5.437 -0.2425 -0.0127  0.4704
  138OSM   H10F15117   2.188   2.141   5.351  0.7597  0.7750  0.1886
  138OSM   C11F15118   2.355   2.011   5.408 -0.0606  0.1581 -0.0427
  138OSM   H11F15119   2.310   1.909   5.419 -2.8547  1.1933 -0.9434
  138OSM   H11G15120   2.429   2.013   5.491 -1.7799 -0.4397  1.5966
  138OSM   C12F15121   2.413   2.035   5.270 -0.1630  0.3680  0.1104
  138OSM   H12F15122   2.522   2.022   5.287 -0.5566 -1.4314  1.5800
  138OSM   H12G15123   2.408   2.143   5.247 -0.3346  0.8147  2.0830
  138OSM   C13F15124   2.371   1.949   5.150 -0.2747  0.2199  0.3466
  138OSM   H13F15125   2.277   1.984   5.103 -0.2888  0.4800  0.5679
  138OSM   H13G15126   2.371   1.845   5.189  0.1453  0.5036  1.1404
  138OSM   C14F15127   2.481   1.949   5.046  0.0243  0.0744  0.0327
  138OSM   H14F15128   2.462   1.875   4.965 -0.6868  1.7516 -1.3910
  138OSM   H14G15129   2.570   1.920   5.106  0.1163 -0.2532 -0.2573
  138OSM   C15F15130   2.515   2.083   4.981  0.1525 -0.1586 -0.1053
  138OSM   H15F15131   2.620   2.081   4.946 -0.5101  0.4933 -2.2684
  138OSM   H15G15132   2.496   2.177   5.038  0.6373 -0.5675  0.7514
  138OSM   C16F15133   2.439   2.109   4.847  0.5489  0.5773 -0.5407
  138OSM   H16F15134   2.332   2.086   4.864  1.0860 -1.0963  0.8709
  138OSM   H16G15135   2.471   2.029   4.778 -0.6176 -2.2224  1.9469
  138OSM   C17F15136   2.455   2.252   4.794 -1.2742 -0.3732  0.1520
  138OSM   H17F15137   2.551   2.296   4.830 -1.5615  1.4917 -1.1911
  138OSM   H17G15138   2.384   2.323   4.841  0.3926  1.5384 -0.0550
  138OSM   C18F15139   2.449   2.275   4.643  0.2546  0.2860 -0.0603
  138OSM   H18F15140   2.374   2.210   4.593 -0.5478  1.2385 -0.1288
  138OSM   H18G15141   2.548   2.254   4.598  0.6663 -0.0275  0.9629
  138OSM   H18H15142   2.432   2.379   4.608  0.7365  0.8133  1.2295
  139OSM      N15143   3.319   6.063   7.017  0.4251  0.5063  0.9252
  139OSM    C1515144   3.447   6.113   7.054  0.3411  0.0203  0.7953
  139OSM   H15A15145   3.462   6.144   7.156  1.1995  1.3420  0.3006
  139OSM   H15B15146   3.488   6.198   7.001  1.8228  1.1852  3.5999
  139OSM   H15C15147   3.523   6.037   7.043 -0.4067 -1.0292  2.4958
  139OSM    C1415148   3.324   6.049   6.864  0.5900 -0.3490 -1.2075
  139OSM   H14A15149   3.356   6.142   6.819 -2.4944  0.4971 -1.8712
  139OSM   H14B15150   3.228   6.029   6.818  0.1324 -0.7303 -0.1300
  139OSM   H14C15151   3.393   5.970   6.838  1.0698 -0.5281  0.4969
  139OSM    C1315152   3.307   5.935   7.087 -0.6373  0.6049 -0.0847
  139OSM   H13A15153   3.320   5.939   7.194  1.4617  0.3938 -0.3058
  139OSM   H13B15154   3.386   5.868   7.058 -0.0141  0.5329  1.6817
  139OSM   H13C15155   3.214   5.885   7.064  0.6473 -2.8494  1.5352
  139OSM    C1215156   3.215   6.161   7.065 -0.3400 -0.0858 -0.2475
  139OSM   H12A15157   3.250   6.262   7.050 -0.7806 -0.2797 -3.0924
  139OSM   H12B15158   3.210   6.129   7.168 -1.7561 -2.0948 -0.8965
  139OSM    C1115159   3.083   6.150   7.001  0.5663  0.3973 -0.2535
  139OSM   H11A15160   3.072   6.163   6.891 -1.0348  0.5611 -0.1035
  139OSM   H11B15161   3.020   6.233   7.041  1.6156  0.7026  0.8136
  139OSM      P15162   2.985   5.914   6.926  0.1304 -0.2714  0.4744
  139OSM    O1315163   3.042   5.782   6.965 -0.0892 -0.0503  0.3334
  139OSM    O1415164   2.835   5.929   6.915 -0.3498  0.5036 -0.1267
  139OSM    O1115165   3.045   5.948   6.778 -0.4947 -0.6802 -0.4815
  139OSM    O1215166   3.033   6.025   7.031  0.2609 -1.2445 -0.2589
  139OSM    C1S15167   3.085   5.845   6.684 -0.2713  0.0398 -0.0598
  139OSM    H1S15168   3.036   5.750   6.711 -0.5011  0.7612  2.2449
  139OSM    H1T15169   3.196   5.834   6.689 -0.0574  0.1750 -2.8626
  139OSM     NF15170   3.027   5.763   6.450  0.3092 -0.4524  0.7519
  139OSM    HNF15171   3.089   5.751   6.373 -0.9975 -0.4439 -0.3219
  139OSM    C2S15172   3.040   5.879   6.539  0.9493  0.0119  0.2439
  139OSM    H2S15173   2.936   5.914   6.549  1.0671  0.0804  1.3246
  139OSM    C3S15174   3.137   5.993   6.482 -0.5413 -0.4270  0.0786
  139OSM    H3S15175   3.228   5.950   6.435 -0.7039  1.1372 -1.8073
  139OSM     O315176   3.187   6.081   6.584  0.3680  0.0862 -0.3262
  139OSM    HO315177   3.149   6.037   6.661  0.5018 -2.1423 -1.4647
  139OSM    C4S15178   3.079   6.078   6.370 -0.3304 -0.0356  0.0307
  139OSM    H4S15179   2.977   6.110   6.394 -0.2769  1.7716 -1.8830
  139OSM    C5S15180   3.146   6.117   6.257 -0.3237  0.0625 -0.3797
  139OSM    H5S15181   3.253   6.095   6.248 -0.0190  1.6858 -1.1232
  139OSM    C6S15182   3.091   6.204   6.147 -0.5442  0.2564  0.7514
  139OSM    H6S15183   3.136   6.164   6.053  3.7585  0.3296  2.5581
  139OSM    H6T15184   3.135   6.307   6.146  1.0396 -0.3869 -0.1142
  139OSM    C7S15185   2.936   6.210   6.129  0.4645  0.4314  0.5398
  139OSM    H7S15186   2.886   6.268   6.209  0.5453 -0.6715  1.4044
  139OSM    H7T15187   2.894   6.108   6.122  1.3525 -0.0800  2.1927
  139OSM    C8S15188   2.889   6.284   6.000 -0.0988  0.6362 -0.3156
  139OSM    H8S15189   2.921   6.391   6.001  1.3746  0.2235  0.4590
  139OSM    H8T15190   2.778   6.289   6.004 -0.1271  0.9860 -1.3185
  139OSM    C9S15191   2.949   6.223   5.872  0.4542  0.0706  0.7570
  139OSM    H9S15192   2.962   6.113   5.881 -1.9091 -0.3613 -0.1571
  139OSM    H9T15193   3.055   6.253   5.865  0.5792 -0.4619  0.3522
  139OSM   C10S15194   2.873   6.261   5.744  0.3989 -0.3645  0.1764
  139OSM   H10S15195   2.793   6.187   5.721  1.8451 -1.8218 -0.4314
  139OSM   H10T15196   2.949   6.231   5.668  0.1201 -0.6119 -0.0125
  139OSM   C11S15197   2.822   6.409   5.742  0.7782 -0.9798 -0.0851
  139OSM   H11S15198   2.905   6.479   5.766 -0.1986 -0.2105  1.1931
  139OSM   H11T15199   2.741   6.410   5.819 -2.2959  3.1006 -2.9291
  139OSM   C12S15200   2.756   6.440   5.608  0.1772  0.6895  0.3391
  139OSM   H12S15201   2.678   6.361   5.596  0.6491  0.1864  0.5191
  139OSM   H12T15202   2.832   6.424   5.529  0.2858 -1.1959  0.7614
  139OSM   C13S15203   2.686   6.578   5.590  0.0219 -0.0458 -0.4195
  139OSM   H13S15204   2.618   6.593   5.676  1.0831 -0.1289  0.4714
  139OSM   H13T15205   2.620   6.574   5.501 -1.0862  3.4150  0.0955
  139OSM   C14S15206   2.789   6.698   5.578  0.4297  0.2873 -0.9589
  139OSM   H14S15207   2.859   6.684   5.493 -0.6567  0.3630 -1.8957
  139OSM   H14T15208   2.846   6.703   5.673 -0.3754 -0.2349 -0.4358
  139OSM   C15S15209   2.718   6.836   5.558  0.8637  0.4188  0.4239
  139OSM   H15S15210   2.789   6.914   5.592  1.0138 -0.1882  1.5298
  139OSM   H15T15211   2.623   6.836   5.615  0.0431 -1.1097 -0.8528
  139OSM   C16S15212   2.667   6.868   5.411  0.0600 -0.3258 -0.1154
  139OSM   H16S15213   2.588   6.796   5.382 -1.9772  1.5965  0.4567
  139OSM   H16T15214   2.747   6.855   5.335 -1.3370 -3.2901 -1.2401
  139OSM   C17S15215   2.602   7.005   5.383  0.1138 -0.6868  0.0651
  139OSM   H17S15216   2.681   7.078   5.411  1.4285 -1.1583 -2.1728
  139OSM   H17T15217   2.517   7.039   5.445 -0.7725 -1.0094 -0.9542
  139OSM   C18S15218   2.569   7.025   5.237 -0.2755  0.3377 -0.5848
  139OSM   H18S15219   2.660   6.990   5.183  0.4189  2.3523 -0.7795
  139OSM   H18T15220   2.549   7.132   5.218 -0.3287  0.0463 -2.3136
  139OSM   H18U15221   2.483   6.962   5.205 -0.0675 -0.5349  0.5162
  139OSM    C1F15222   2.936   5.668   6.467  0.0395  0.5602 -0.4751
  139OSM     OF15223   2.850   5.665   6.563  0.0614 -0.2422  0.4346
  139OSM    C2F15224   2.945   5.552   6.374 -0.0408  0.2022 -0.7650
  139OSM    H2F15225   2.918   5.459   6.427 -1.4679  1.0115 -0.0175
  139OSM    H2G15226   3.049   5.525   6.344  0.2327 -2.2304  1.9480
  139OSM    C3F15227   2.851   5.574   6.255  0.2035  0.3102  0.2903
  139OSM    H3F15228   2.746   5.589   6.289  0.4230  0.6109  0.8648
  139OSM    H3G15229   2.852   5.480   6.196  1.5005  0.1767  0.4903
  139OSM    C4F15230   2.897   5.682   6.153 -0.3922 -0.4364 -0.3934
  139OSM    H4F15231   3.008   5.673   6.148 -0.3541 -1.3711  1.2465
  139OSM    H4G15232   2.867   5.784   6.186 -0.4954 -1.1273  1.8543
  139OSM    C5F15233   2.839   5.645   6.016  0.1723 -0.2821  0.6004
  139OSM    H5F15234   2.729   5.654   6.009  0.2249 -0.8585 -2.2955
  139OSM    H5G15235   2.862   5.541   5.986 -0.1964 -0.9382  2.4715
  139OSM    C6F15236   2.904   5.736   5.908 -0.0695 -0.0568 -0.4658
  139OSM    H6F15237   3.011   5.709   5.893  0.0961  1.2013 -1.7694
  139OSM    H6G15238   2.900   5.843   5.938 -0.4924 -0.0043 -0.7102
  139OSM    C7F15239   2.833   5.715   5.776 -0.2875  0.3407 -0.5507
  139OSM    H7F15240   2.725   5.698   5.797 -0.1593 -2.8442 -1.9579
  139OSM    H7G15241   2.875   5.616   5.748 -3.0320 -1.3537  0.8462
  139OSM    C8F15242   2.848   5.820   5.665 -0.0716  0.6547 -0.1140
  139OSM    H8F15243   2.954   5.846   5.644 -0.5449  0.5481 -3.1472
  139OSM    H8G15244   2.795   5.914   5.689  2.1104  2.1896 -0.9150
  139OSM    C9F15245   2.790   5.761   5.540  0.5436  0.4002 -0.2578
  139OSM    H9F15246   2.847   5.679   5.493 -1.6790 -2.2579  1.3840
  139OSM   C10F15247   2.676   5.797   5.482 -0.6616 -0.5072  0.5536
  139OSM   H10F15248   2.660   5.758   5.380  0.9063 -1.8396  0.7902
  139OSM   C11F15249   2.568   5.893   5.528  0.3301 -0.4606 -0.1316
  139OSM   H11F15250   2.563   5.892   5.639  1.1639 -0.6590 -0.0874
  139OSM   H11G15251   2.474   5.853   5.484 -0.6926  0.8339  0.7885
  139OSM   C12F15252   2.580   6.042   5.467 -0.2603 -0.0508 -0.2148
  139OSM   H12F15253   2.679   6.082   5.499  1.7543 -4.6336  0.1804
  139OSM   H12G15254   2.495   6.091   5.519 -2.3625 -1.6726 -1.9181
  139OSM   C13F15255   2.561   6.053   5.316 -0.2068  0.0462  0.5481
  139OSM   H13F15256   2.466   5.998   5.299 -0.2267  0.3892 -0.5114
  139OSM   H13G15257   2.636   5.992   5.262 -0.8585 -0.5868  0.3489
  139OSM   C14F15258   2.539   6.199   5.267 -0.0716 -0.2786 -0.2372
  139OSM   H14F15259   2.472   6.259   5.334 -0.5695 -0.3188 -0.6956
  139OSM   H14G15260   2.508   6.190   5.161 -2.0184 -1.1599  0.3576
  139OSM   C15F15261   2.668   6.275   5.241 -0.3045  0.7142 -0.2001
  139OSM   H15F15262   2.737   6.220   5.173  0.2483 -1.4789  1.9819
  139OSM   H15G15263   2.723   6.287   5.338  1.6502 -0.7068 -1.0619
  139OSM   C16F15264   2.641   6.414   5.190  0.2596  0.5233  0.0837
  139OSM   H16F15265   2.561   6.468   5.244  1.9095  0.7028  2.5051
  139OSM   H16G15266   2.618   6.407   5.081  1.8587 -1.4756 -0.1858
  139OSM   C17F15267   2.758   6.512   5.196 -0.3567  0.4077 -0.0757
  139OSM   H17F15268   2.844   6.449   5.166 -2.2035 -2.8217  0.9926
  139OSM   H17G15269   2.782   6.551   5.298 -0.5578  0.8091 -0.1808
  139OSM   C18F15270   2.737   6.635   5.109  0.5516  0.2597  0.1811
  139OSM   H18F15271   2.643   6.688   5.138  0.5724  2.1909 -2.8488
  139OSM   H18G15272   2.706   6.601   5.008  0.1009  2.0750 -0.3397
  139OSM   H18H15273   2.834   6.689   5.106  3.2745 -3.9245  2.7045
  140OSM      N15274   3.895   1.097   7.485  0.6519 -0.4528 -0.2433
  140OSM    C1515275   4.001   1.017   7.543 -0.3178  0.3943 -0.4288
  140OSM   H15A15276   3.964   0.920   7.575 -0.3919  0.3505 -0.6511
  140OSM   H15B15277   4.055   1.067   7.622 -0.2878 -1.1075  0.5518
  140OSM   H15C15278   4.078   0.992   7.472 -0.4455 -0.2129 -0.3628
  140OSM    C1415279   3.844   1.031   7.365 -0.6134  0.4750  0.5509
  140OSM   H14A15280   3.859   0.924   7.369 -0.4410  0.5387  2.1083
  140OSM   H14B15281   3.891   1.076   7.279  0.3336  0.5386  1.0937
  140OSM   H14C15282   3.740   1.053   7.342 -0.0620  1.7731 -0.8809
  140OSM    C1315283   3.784   1.096   7.584  0.3048 -0.1107  0.2460
  140OSM   H13A15284   3.809   1.137   7.681 -3.0917  1.1624  0.7392
  140OSM   H13B15285   3.751   0.996   7.606  0.0474  0.1859  1.2769
  140OSM   H13C15286   3.696   1.146   7.546 -0.1172 -1.9051 -1.2431
  140OSM    C1215287   3.942   1.235   7.446  0.5305 -0.3721 -0.5231
  140OSM   H12A15288   3.977   1.293   7.530 -1.1886  0.1361 -0.1356
  140OSM   H12B15289   3.851   1.283   7.413 -0.5064 -0.8019  1.5277
  140OSM    C1115290   4.043   1.246   7.327  0.2349 -0.8006 -0.3941
  140OSM   H11A15291   4.135   1.187   7.346  1.3350  0.4802 -1.5641
  140OSM   H11B15292   4.069   1.353   7.339  0.2515 -0.6021 -1.9614
  140OSM      P15293   3.868   1.327   7.142  0.1806 -0.0440 -0.3062
  140OSM    O1315294   3.756   1.238   7.107 -0.0851  0.1439 -1.0753
  140OSM    O1415295   3.844   1.431   7.245 -0.1059 -0.4902  0.2644
  140OSM    O1115296   3.931   1.388   7.004 -0.4355  0.3969 -0.0220
  140OSM    O1215297   3.985   1.227   7.196  1.0409 -0.4897 -0.7802
  140OSM    C1S15298   3.992   1.296   6.916 -0.8030  0.1477  0.4104
  140OSM    H1S15299   3.911   1.230   6.880 -1.9033  1.3462  0.5741
  140OSM    H1T15300   4.068   1.233   6.965  0.7293  1.6967  0.1310
  140OSM     NF15301   4.083   1.280   6.693 -0.4549 -0.9264  0.1812
  140OSM    HNF15302   4.159   1.216   6.682 -0.6806 -0.9710 -1.3263
  140OSM    C2S15303   4.074   1.368   6.807  0.4619 -0.1052 -0.0139
  140OSM    H2S15304   4.019   1.457   6.769  2.8092  1.2787 -0.4304
  140OSM    C3S15305   4.211   1.423   6.862  0.1495 -0.3748  0.2419
  140OSM    H3S15306   4.284   1.339   6.869  0.6780  0.0914  0.3978
  140OSM     O315307   4.218   1.473   6.992 -0.2061  0.0978 -0.0520
  140OSM    HO315308   4.142   1.439   7.039 -0.2720 -0.1833 -0.3618
  140OSM    C4S15309   4.267   1.527   6.762 -0.0159  0.1346 -0.1844
  140OSM    H4S15310   4.322   1.486   6.676  0.3739  1.9619 -0.8506
  140OSM    C5S15311   4.250   1.661   6.768  0.2421 -0.4487 -0.3783
  140OSM    H5S15312   4.177   1.696   6.843  0.0418 -0.3157 -0.6331
  140OSM    C6S15313   4.285   1.763   6.670 -0.2412  0.0047  0.2702
  140OSM    H6S15314   4.346   1.849   6.704 -1.1862  0.6697  0.3471
  140OSM    H6T15315   4.190   1.815   6.644 -0.8968 -0.1488  2.2128
  140OSM    C7S15316   4.349   1.713   6.534  0.0531 -0.3721 -0.2616
  140OSM    H7S15317   4.293   1.623   6.500  0.2672 -1.0427  1.0772
  140OSM    H7T15318   4.455   1.685   6.552  0.7080  1.1665 -1.4737
  140OSM    C8S15319   4.321   1.806   6.414  0.0333  0.0462 -0.2852
  140OSM    H8S15320   4.338   1.907   6.459 -0.7391  0.0677 -0.0382
  140OSM    H8T15321   4.213   1.796   6.394 -0.5963  0.2450  2.5978
  140OSM    C9S15322   4.414   1.802   6.289  0.0991 -0.7168  0.8375
  140OSM    H9S15323   4.402   1.697   6.256 -2.5156 -0.6848  1.4625
  140OSM    H9T15324   4.516   1.826   6.326  0.6155 -0.8484 -0.4448
  140OSM   C10S15325   4.361   1.902   6.181 -0.4304 -0.3970  0.1677
  140OSM   H10S15326   4.403   1.999   6.215  2.1059 -0.8803 -1.3551
  140OSM   H10T15327   4.251   1.896   6.168 -0.3338 -0.1169 -0.9081
  140OSM   C11S15328   4.426   1.876   6.046  0.5125  0.9045 -0.2489
  140OSM   H11S15329   4.374   1.932   5.965 -1.0033  3.3432  2.1835
  140OSM   H11T15330   4.419   1.767   6.030 -0.3196  0.9218 -0.0520
  140OSM   C12S15331   4.573   1.910   6.050  0.5798  0.0504 -0.7410
  140OSM   H12S15332   4.615   1.853   6.137  0.6633 -0.6575 -1.2385
  140OSM   H12T15333   4.587   2.019   6.067 -0.5933  0.1006 -0.0235
  140OSM   C13S15334   4.655   1.865   5.931 -0.0702  0.1601  0.2119
  140OSM   H13S15335   4.605   1.903   5.839  0.5207 -0.9588 -0.5962
  140OSM   H13T15336   4.641   1.755   5.924 -1.3245  0.3108  0.1868
  140OSM   C14S15337   4.807   1.912   5.923  0.1435 -0.2923 -0.9379
  140OSM   H14S15338   4.854   1.882   6.020  0.5884 -0.2784 -1.1475
  140OSM   H14T15339   4.816   2.023   5.928  1.9451 -0.4341  0.1223
  140OSM   C15S15340   4.879   1.848   5.805  0.5299  0.0230  0.3238
  140OSM   H15S15341   4.835   1.746   5.800 -0.3721  0.3935  0.5608
  140OSM   H15T15342   4.984   1.831   5.835  0.2579  0.4964  1.5995
  140OSM   C16S15343   4.875   1.929   5.677 -0.2281 -0.2572  0.5107
  140OSM   H16S15344   4.901   2.034   5.704  0.3503  0.1465 -1.4595
  140OSM   H16T15345   4.773   1.925   5.636  0.6638 -0.2329 -1.8512
  140OSM   C17S15346   4.975   1.894   5.568 -0.1656  0.2216 -0.2155
  140OSM   H17S15347   4.960   1.968   5.487  0.2106 -1.6933 -2.1156
  140OSM   H17T15348   4.966   1.788   5.536  0.0382 -0.3755  1.5554
  140OSM   C18S15349   5.123   1.908   5.616  0.3934 -0.1426  0.2790
  140OSM   H18S15350   5.152   1.829   5.689  1.0304  0.3992  0.6297
  140OSM   H18T15351   5.147   2.007   5.661  0.0580  0.3007 -0.4987
  140OSM   H18U15352   5.196   1.910   5.532  1.1938 -1.6636  0.9026
  140OSM    C1F15353   3.974   1.259   6.608 -0.6459 -0.0298  0.6417
  140OSM     OF15354   3.882   1.337   6.600  0.5411  0.2530  0.1148
  140OSM    C2F15355   3.981   1.135   6.511  0.7340 -0.3033 -0.9327
  140OSM    H2F15356   3.892   1.074   6.534 -0.3429  1.3150 -0.6335
  140OSM    H2G15357   4.078   1.083   6.520 -0.0422 -1.4386  1.7703
  140OSM    C3F15358   3.946   1.190   6.371  0.3475  0.4292  0.4353
  140OSM    H3F15359   4.031   1.256   6.341  1.6374 -1.1450  0.4848
  140OSM    H3G15360   3.851   1.247   6.367 -0.7721 -1.4051 -1.6091
  140OSM    C4F15361   3.926   1.084   6.264  0.6579  0.0658 -0.2335
  140OSM    H4F15362   3.847   1.020   6.307  1.2501  0.5233  1.6584
  140OSM    H4G15363   4.011   1.012   6.271 -0.4685 -1.1506  2.1529
  140OSM    C5F15364   3.907   1.139   6.131 -0.2310  0.2136  0.6700
  140OSM    H5F15365   3.994   1.207   6.111  1.3452 -1.6760  0.8390
  140OSM    H5G15366   3.818   1.206   6.126  0.9291  1.8594  1.0523
  140OSM    C6F15367   3.900   1.031   6.016 -0.4043 -0.5527  0.0522
  140OSM    H6F15368   3.809   0.969   6.032  0.8625 -2.0264  2.0691
  140OSM    H6G15369   3.980   0.954   6.014 -0.0456 -0.2688  1.7454
  140OSM    C7F15370   3.889   1.104   5.878  1.0245  0.1463 -0.1667
  140OSM    H7F15371   3.975   1.171   5.854 -0.5109  1.3874 -2.7031
  140OSM    H7G15372   3.800   1.171   5.875 -0.6577 -1.9874 -3.0460
  140OSM    C8F15373   3.859   1.009   5.760 -0.0321  0.5416  0.3596
  140OSM    H8F15374   3.854   1.078   5.674  0.4773  1.3379  0.9487
  140OSM    H8G15375   3.756   0.972   5.776 -0.5875  2.1053  0.5790
  140OSM    C9F15376   3.964   0.907   5.727  0.4743 -0.1672 -0.3770
  140OSM    H9F15377   4.052   0.962   5.692 -0.5015  3.1014  1.8197
  140OSM   C10F15378   3.963   0.773   5.732  0.9186 -0.6230  0.7201
  140OSM   H10F15379   4.062   0.725   5.724  1.3539  0.3256  0.1645
  140OSM   C11F15380   3.839   0.683   5.749 -0.0630  0.1007  0.4340
  140OSM   H11F15381   3.771   0.695   5.662  0.2576 -4.2513 -0.6402
  140OSM   H11G15382   3.791   0.696   5.848 -0.8385  0.2104  0.0475
  140OSM   C12F15383   3.865   0.536   5.743 -0.0014  0.2669  0.3804
  140OSM   H12F15384   3.774   0.476   5.762  0.2322 -1.0974 -2.3275
  140OSM   H12G15385   3.939   0.509   5.822 -0.7130 -0.3777  0.8429
  140OSM   C13F15386   3.908   0.489   5.604 -0.4235 -1.2783  1.2849
  140OSM   H13F15387   3.978   0.559   5.554  0.4580 -0.0988  3.9857
  140OSM   H13G15388   3.817   0.483   5.540  1.1821 -1.5589 -1.0919
  140OSM   C14F15389   3.986   0.352   5.608  0.0691 -0.0336  0.6908
  140OSM   H14F15390   3.915   0.300   5.677  0.2964 -0.8493  0.3240
  140OSM   H14G15391   4.077   0.368   5.669  0.2670 -1.0918  0.6964
  140OSM   C15F15392   3.997   0.276   5.479 -0.1976 -0.1754  0.1506
  140OSM   H15F15393   3.901   0.255   5.427 -0.6255  0.5963  0.6208
  140OSM   H15G15394   4.027   0.170   5.492 -0.9326 -0.2942  0.9676
  140OSM   C16F15395   4.084   0.357   5.382  0.2716  0.3612 -0.3825
  140OSM   H16F15396   4.148   0.284   5.328 -0.8635 -0.4953 -0.5984
  140OSM   H16G15397   4.152   0.429   5.433  0.3749  0.2786 -0.4028
  140OSM   C17F15398   3.998   0.435   5.282 -0.6741  0.1495  0.2340
  140OSM   H17F15399   3.926   0.501   5.333 -1.5750  0.8107 -1.7871
  140OSM   H17G15400   3.940   0.357   5.228 -2.0707  0.2556  1.5134
  140OSM   C18F15401   4.080   0.512   5.173 -0.1163 -0.0947  0.3032
  140OSM   H18F15402   4.153   0.446   5.122  0.8051  1.2238 -0.1330
  140OSM   H18G15403   4.132   0.601   5.214 -0.9170 -0.4321  2.1445
  140OSM   H18H15404   4.004   0.537   5.095 -1.5093 -1.7432  1.0645
  141OSM      N15405   2.814   3.082   7.304 -0.1515 -0.0316 -1.0195
  141OSM    C1515406   2.794   3.227   7.264  0.2449  0.3452 -0.3164
  141OSM   H15A15407   2.830   3.292   7.342  0.4594  0.0158 -0.1412
  141OSM   H15B15408   2.690   3.256   7.262 -0.4473 -1.9805 -2.6520
  141OSM   H15C15409   2.839   3.262   7.172  0.1155 -0.1364 -0.5639
  141OSM    C1415410   2.957   3.073   7.345  0.3130  0.3007  0.5278
  141OSM   H14A15411   2.998   2.973   7.353 -1.5170 -0.4239  1.4600
  141OSM   H14B15412   2.986   3.121   7.438  2.6177  0.6329 -0.2788
  141OSM   H14C15413   3.015   3.127   7.272 -0.5340  1.6762  0.8420
  141OSM    C1315414   2.721   3.056   7.420 -0.7282  0.0006 -0.0812
  141OSM   H13A15415   2.726   2.951   7.442 -2.3833 -0.2118 -0.5563
  141OSM   H13B15416   2.621   3.089   7.397 -0.6772  1.0039  1.0267
  141OSM   H13C15417   2.743   3.115   7.507 -1.9214 -1.4834  1.2759
  141OSM    C1215418   2.787   2.990   7.191 -0.7907  0.2091 -0.1384
  141OSM   H12A15419   2.780   2.891   7.233  2.3409  0.5161  1.3569
  141OSM   H12B15420   2.869   2.974   7.122 -0.4995 -2.9192  0.7560
  141OSM    C1115421   2.658   3.007   7.111 -0.5713 -0.7825  0.1189
  141OSM   H11A15422   2.664   2.942   7.021 -1.0916  2.7160 -2.6357
  141OSM   H11B15423   2.660   3.106   7.060  0.9588  0.8821  3.1397
  141OSM      P15424   2.474   2.846   7.183 -0.0080  0.0963 -0.3352
  141OSM    O1315425   2.572   2.735   7.217 -0.5237 -0.9081 -0.2822
  141OSM    O1415426   2.342   2.849   7.257 -0.0951  0.2273  0.4021
  141OSM    O1115427   2.435   2.836   7.034  0.0373  0.5447  0.6228
  141OSM    O1215428   2.542   2.991   7.193 -0.2173  0.1375 -0.0096
  141OSM    C1S15429   2.382   2.944   6.955  0.4519  0.2527  0.3882
  141OSM    H1S15430   2.371   3.040   7.010  2.6764  1.2448 -0.7419
  141OSM    H1T15431   2.276   2.910   6.952  0.4405  0.2970  0.2692
  141OSM     NF15432   2.396   3.056   6.731  0.3828 -0.2781 -0.3146
  141OSM    HNF15433   2.324   3.041   6.663 -0.9496 -0.0937  1.0081
  141OSM    C2S15434   2.440   2.946   6.811  0.8355 -0.0856  0.4651
  141OSM    H2S15435   2.551   2.948   6.819  0.7167 -1.7307  4.8357
  141OSM    C3S15436   2.414   2.816   6.729 -0.1406 -0.5253 -0.0272
  141OSM    H3S15437   2.313   2.827   6.685 -0.4167 -1.8221  0.2294
  141OSM     O315438   2.418   2.698   6.811  0.0235 -0.1095 -0.0745
  141OSM    HO315439   2.426   2.739   6.897  0.1274  0.7682 -0.4869
  141OSM    C4S15440   2.501   2.806   6.607 -0.7413  0.3694 -0.3794
  141OSM    H4S15441   2.490   2.878   6.524 -0.3589 -0.8701 -1.5390
  141OSM    C5S15442   2.578   2.706   6.570 -0.6852 -0.2180  0.1383
  141OSM    H5S15443   2.587   2.622   6.640  0.1930 -0.4607 -0.2495
  141OSM    C6S15444   2.678   2.712   6.457 -0.5318 -1.1099  0.2820
  141OSM    H6S15445   2.774   2.670   6.493 -1.0794 -2.7388 -0.1095
  141OSM    H6T15446   2.694   2.816   6.422 -1.4808 -0.6894  1.0344
  141OSM    C7S15447   2.651   2.617   6.341  1.0347  0.3975 -0.0614
  141OSM    H7S15448   2.550   2.631   6.297  0.9234  0.3435  0.1745
  141OSM    H7T15449   2.655   2.511   6.374 -0.8867  0.7311  1.4376
  141OSM    C8S15450   2.760   2.633   6.231  0.3703  0.2530  0.0446
  141OSM    H8S15451   2.728   2.560   6.153  2.3107  0.2110 -0.7748
  141OSM    H8T15452   2.861   2.598   6.264 -0.1678 -1.5275 -0.0734
  141OSM    C9S15453   2.766   2.770   6.163  0.1794 -0.1858 -0.3165
  141OSM    H9S15454   2.829   2.821   6.239  0.1974 -0.9429  0.1918
  141OSM    H9T15455   2.664   2.814   6.171 -0.3845 -1.5858  0.5928
  141OSM   C10S15456   2.799   2.770   6.014  1.0969  0.3047 -0.0327
  141OSM   H10S15457   2.894   2.714   6.006  2.3237  2.0701  1.5242
  141OSM   H10T15458   2.811   2.875   5.978 -0.0234  0.2932 -0.4842
  141OSM   C11S15459   2.683   2.720   5.919 -0.3196  0.0411 -0.0999
  141OSM   H11S15460   2.610   2.803   5.931  0.8608  0.8628  1.8706
  141OSM   H11T15461   2.636   2.634   5.971 -1.1783  0.4317 -0.2147
  141OSM   C12S15462   2.723   2.697   5.775  0.2248  0.1536  0.6820
  141OSM   H12S15463   2.624   2.660   5.741  1.1278 -3.0915  1.2978
  141OSM   H12T15464   2.790   2.610   5.762 -0.6249 -0.1555 -2.2576
  141OSM   C13S15465   2.781   2.805   5.695  0.2308  0.1367 -0.7440
  141OSM   H13S15466   2.873   2.839   5.749 -1.1832 -0.1449  2.0411
  141OSM   H13T15467   2.714   2.893   5.700  0.7696  0.4920  1.0746
  141OSM   C14S15468   2.810   2.758   5.554  0.1264 -0.0791 -0.7705
  141OSM   H14S15469   2.832   2.650   5.561 -0.8373 -0.3416 -1.5824
  141OSM   H14T15470   2.897   2.814   5.514  0.8913 -0.3619  0.4301
  141OSM   C15S15471   2.690   2.789   5.460 -0.0999 -0.0020  0.6930
  141OSM   H15S15472   2.666   2.897   5.475 -2.3715 -0.1302 -1.4855
  141OSM   H15T15473   2.590   2.747   5.484 -0.6239  0.5951 -0.3720
  141OSM   C16S15474   2.726   2.749   5.321  0.2295 -0.7185  0.6650
  141OSM   H16S15475   2.774   2.649   5.328  2.6894  0.0642 -2.5835
  141OSM   H16T15476   2.812   2.811   5.284  0.7409 -1.2701  0.9118
  141OSM   C17S15477   2.610   2.726   5.223  0.2996  0.2145 -0.2627
  141OSM   H17S15478   2.533   2.658   5.265 -1.4081  0.0147 -3.4003
  141OSM   H17T15479   2.644   2.678   5.128 -0.3957  0.2880 -0.5490
  141OSM   C18S15480   2.532   2.852   5.194  0.1435 -0.6266 -0.2345
  141OSM   H18S15481   2.459   2.823   5.116 -0.4234  0.1457 -0.0031
  141OSM   H18T15482   2.590   2.942   5.165 -0.0582 -0.6652 -0.7790
  141OSM   H18U15483   2.480   2.877   5.290  1.1313  2.7364 -0.4344
  141OSM    C1F15484   2.432   3.185   6.769  0.1589  0.3069 -0.2013
  141OSM     OF15485   2.515   3.197   6.856 -0.2359 -0.2171 -0.5098
  141OSM    C2F15486   2.351   3.296   6.714 -0.3083 -0.6291 -0.6816
  141OSM    H2F15487   2.256   3.301   6.772  1.4158  1.5494  2.2989
  141OSM    H2G15488   2.337   3.287   6.605  1.9195 -0.6819 -1.0165
  141OSM    C3F15489   2.434   3.429   6.733 -0.4446 -0.2854 -0.4794
  141OSM    H3F15490   2.537   3.413   6.693 -0.0536 -1.4506  0.9234
  141OSM    H3G15491   2.439   3.451   6.842  0.8324 -0.8585 -0.4015
  141OSM    C4F15492   2.368   3.546   6.657  0.5805 -1.4452 -0.0277
  141OSM    H4F15493   2.364   3.638   6.720  2.2678 -0.2104 -1.6130
  141OSM    H4G15494   2.259   3.531   6.643  0.3814  0.9200 -1.4923
  141OSM    C5F15495   2.424   3.586   6.518  0.0418  0.1134 -0.4829
  141OSM    H5F15496   2.438   3.499   6.450  0.6915 -1.9413  2.0917
  141OSM    H5G15497   2.526   3.623   6.542 -0.3985  0.5438  0.8750
  141OSM    C6F15498   2.339   3.693   6.453  0.5443  0.1838 -0.3147
  141OSM    H6F15499   2.334   3.781   6.520 -2.3307 -0.4311  0.4017
  141OSM    H6G15500   2.233   3.661   6.441  0.7906 -0.4149 -0.9611
  141OSM    C7F15501   2.406   3.739   6.327 -0.2519  0.3649  0.4552
  141OSM    H7F15502   2.461   3.652   6.284  0.0319  0.3890  0.7665
  141OSM    H7G15503   2.478   3.820   6.350  1.4793 -1.3483  1.4547
  141OSM    C8F15504   2.299   3.781   6.229  0.2788 -0.4244 -0.2596
  141OSM    H8F15505   2.227   3.847   6.282  1.9009  1.8154 -0.6884
  141OSM    H8G15506   2.249   3.685   6.203 -1.0536  0.3409 -0.5978
  141OSM    C9F15507   2.346   3.845   6.101  0.9658 -0.3715 -0.7893
  141OSM    H9F15508   2.389   3.943   6.124 -1.2604 -0.1337  3.4680
  141OSM   C10F15509   2.324   3.801   5.980  0.3081 -0.0685  0.3192
  141OSM   H10F15510   2.355   3.859   5.892 -2.2426 -0.9441 -1.3036
  141OSM   C11F15511   2.246   3.677   5.935 -1.0072  0.0273 -0.0587
  141OSM   H11F15512   2.191   3.701   5.842 -1.2150  0.4340  0.1658
  141OSM   H11G15513   2.169   3.632   6.001 -0.2979 -0.8558  0.2010
  141OSM   C12F15514   2.342   3.563   5.887 -0.0850  0.3502  0.1001
  141OSM   H12F15515   2.295   3.466   5.858  1.2241 -0.7559  1.4788
  141OSM   H12G15516   2.416   3.545   5.968 -0.2116  0.2372  0.1909
  141OSM   C13F15517   2.435   3.597   5.775 -0.1786 -0.1173 -0.3437
  141OSM   H13F15518   2.525   3.531   5.767 -0.0061 -0.2898  2.1628
  141OSM   H13G15519   2.496   3.687   5.797  0.9902 -1.1812  1.0071
  141OSM   C14F15520   2.377   3.589   5.633 -0.2411 -0.0263  0.2865
  141OSM   H14F15521   2.277   3.637   5.638 -1.1942 -1.8059 -0.7911
  141OSM   H14G15522   2.359   3.484   5.605 -0.8195 -0.2445  1.4254
  141OSM   C15F15523   2.473   3.636   5.528 -0.7304  0.5507  0.0751
  141OSM   H15F15524   2.574   3.592   5.540 -0.4990  1.5023  1.9858
  141OSM   H15G15525   2.485   3.744   5.548  1.2501  0.2187  0.9601
  141OSM   C16F15526   2.415   3.623   5.386 -0.7984  0.0607  0.1160
  141OSM   H16F15527   2.373   3.520   5.383  0.9062 -0.7420  1.8015
  141OSM   H16G15528   2.495   3.631   5.310  1.3451 -2.4253  1.9470
  141OSM   C17F15529   2.303   3.719   5.361 -0.0667 -0.2264 -0.5217
  141OSM   H17F15530   2.335   3.816   5.404 -2.5511  0.3127  0.2807
  141OSM   H17G15531   2.208   3.685   5.407  0.2096  0.1274  0.3333
  141OSM   C18F15532   2.274   3.731   5.204  0.9302 -0.1198 -0.7904
  141OSM   H18F15533   2.172   3.771   5.186  0.5598 -2.0208 -3.3798
  141OSM   H18G15534   2.285   3.635   5.151  2.4660 -0.5587  0.2553
  141OSM   H18H15535   2.350   3.798   5.157  0.3917  0.9027 -0.2525
  142OSM      N15536   2.346   1.586   6.685 -0.1572  0.2615 -0.4992
  142OSM    C1515537   2.488   1.539   6.692 -0.7487 -0.1371  0.6980
  142OSM   H15A15538   2.511   1.489   6.599 -1.4701  1.6521 -0.4935
  142OSM   H15B15539   2.515   1.483   6.780  1.9746 -2.4860 -1.4271
  142OSM   H15C15540   2.549   1.627   6.704 -0.9328  0.2768 -1.0984
  142OSM    C1415541   2.334   1.664   6.558 -0.1091 -0.2264 -0.0255
  142OSM   H14A15542   2.239   1.715   6.553  0.1595  0.3007  0.1821
  142OSM   H14B15543   2.339   1.592   6.477  1.3132 -0.4073  0.1910
  142OSM   H14C15544   2.413   1.737   6.552  1.4068 -1.8761 -1.3592
  142OSM    C1315545   2.256   1.472   6.679  0.3855 -0.2995  0.1782
  142OSM   H13A15546   2.155   1.501   6.657  0.8492  1.0771 -0.2152
  142OSM   H13B15547   2.261   1.398   6.758  0.2422  1.1235  1.5868
  142OSM   H13C15548   2.285   1.410   6.595  0.6480  1.9229 -1.4459
  142OSM    C1215549   2.304   1.662   6.805 -0.1113  0.3587  0.8978
  142OSM   H12A15550   2.299   1.597   6.891 -1.0606 -0.5282  0.1892
  142OSM   H12B15551   2.200   1.687   6.786  0.0272  1.0256  0.9720
  142OSM    C1115552   2.386   1.789   6.849  0.1250  0.6432  0.0120
  142OSM   H11A15553   2.326   1.839   6.928 -0.8242 -0.0512 -0.2462
  142OSM   H11B15554   2.389   1.863   6.767 -1.4469 -0.4764 -1.1400
  142OSM      P15555   2.621   1.852   6.954 -0.2260  0.3305 -0.0190
  142OSM    O1315556   2.578   1.909   7.081  0.0020  0.1544  0.7853
  142OSM    O1415557   2.746   1.785   6.958 -0.3928  0.5003 -0.0931
  142OSM    O1115558   2.629   1.963   6.842 -0.3861  0.2322 -0.1751
  142OSM    O1215559   2.514   1.746   6.904  0.3594  0.6625  0.0441
  142OSM    C1S15560   2.692   1.924   6.715  0.7024  0.5379  0.0508
  142OSM    H1S15561   2.678   1.817   6.688  0.0400  0.8826 -1.0094
  142OSM    H1T15562   2.799   1.950   6.727  1.0994 -1.8111  2.6660
  142OSM     NF15563   2.708   1.955   6.473  0.4371  0.1532 -0.2676
  142OSM    HNF15564   2.775   2.020   6.438  0.7514  1.0830  1.9232
  142OSM    C2S15565   2.635   2.000   6.588 -0.5942 -0.5718  0.3168
  142OSM    H2S15566   2.529   1.970   6.570 -0.1315 -0.5634 -3.1944
  142OSM    C3S15567   2.633   2.152   6.613 -0.2257 -0.2980 -0.1955
  142OSM    H3S15568   2.735   2.186   6.640 -0.2970  0.1761 -0.5067
  142OSM     O315569   2.555   2.186   6.724 -0.1044 -0.1474 -0.2145
  142OSM    HO315570   2.553   2.103   6.773  0.8369 -0.1862 -0.2178
  142OSM    C4S15571   2.598   2.225   6.487  0.3034  0.3069 -0.2420
  142OSM    H4S15572   2.683   2.243   6.420  0.5289  0.4523  0.0779
  142OSM    C5S15573   2.478   2.266   6.447  0.5879  1.0985 -0.2546
  142OSM    H5S15574   2.396   2.250   6.519 -0.1178 -1.2058 -1.4793
  142OSM    C6S15575   2.439   2.329   6.312  0.2252 -0.8810  0.6432
  142OSM    H6S15576   2.425   2.438   6.324  0.3676 -1.0859  3.0565
  142OSM    H6T15577   2.337   2.301   6.279  1.0189  0.5593 -3.6486
  142OSM    C7S15578   2.532   2.303   6.192  0.5262  0.5666 -0.2978
  142OSM    H7S15579   2.548   2.194   6.183  1.5794  0.7604 -0.9891
  142OSM    H7T15580   2.628   2.355   6.212 -1.0945  2.9491  2.1371
  142OSM    C8S15581   2.482   2.355   6.056 -0.4215 -0.3600  0.1868
  142OSM    H8S15582   2.447   2.458   6.079  2.2048  0.4290  1.0143
  142OSM    H8T15583   2.389   2.299   6.035 -1.3380  0.2533  2.3735
  142OSM    C9S15584   2.587   2.347   5.946  0.3474  0.1849  0.0274
  142OSM    H9S15585   2.680   2.402   5.971  0.0377  0.1840  1.2463
  142OSM    H9T15586   2.543   2.398   5.858  1.4137  1.3347  0.1212
  142OSM   C10S15587   2.614   2.199   5.903  0.1641  0.3593 -0.0148
  142OSM   H10S15588   2.516   2.148   5.904  0.5003 -0.3358 -1.0132
  142OSM   H10T15589   2.686   2.162   5.979 -0.8652 -3.6798 -0.8099
  142OSM   C11S15590   2.675   2.166   5.765 -0.1624 -0.1425 -0.5707
  142OSM   H11S15591   2.632   2.075   5.718  0.2780  0.0078 -1.2839
  142OSM   H11T15592   2.786   2.155   5.769  0.2398  0.8285 -4.6854
  142OSM   C12S15593   2.653   2.278   5.657 -0.1797 -0.0340  0.2580
  142OSM   H12S15594   2.705   2.369   5.695  2.5720 -1.9233  1.3301
  142OSM   H12T15595   2.544   2.297   5.656  0.0818  1.7796 -1.3814
  142OSM   C13S15596   2.700   2.225   5.524  0.3303  0.1274  0.2792
  142OSM   H13S15597   2.644   2.136   5.487  1.3296 -0.3986 -0.0082
  142OSM   H13T15598   2.806   2.195   5.538  0.2135  0.8206  3.0743
  142OSM   C14S15599   2.702   2.333   5.406 -0.5184 -0.5984 -0.3142
  142OSM   H14S15600   2.755   2.424   5.439 -1.1791  0.9743 -3.2605
  142OSM   H14T15601   2.595   2.361   5.396 -1.3006 -1.7720  3.2497
  142OSM   C15S15602   2.761   2.275   5.271  0.4131 -0.5287  0.0469
  142OSM   H15S15603   2.720   2.173   5.255  3.0833 -2.0196  1.9822
  142OSM   H15T15604   2.872   2.272   5.274  0.4021 -0.8603  0.1294
  142OSM   C16S15605   2.720   2.374   5.154  0.2064 -0.3602  0.4366
  142OSM   H16S15606   2.738   2.476   5.195  0.7020  0.1871 -1.0425
  142OSM   H16T15607   2.611   2.364   5.136  0.3139 -0.8673  0.0455
  142OSM   C17S15608   2.795   2.355   5.019  0.3367 -0.5637 -0.2989
  142OSM   H17S15609   2.754   2.278   4.949 -0.6765  1.1651 -1.7068
  142OSM   H17T15610   2.900   2.325   5.034  0.6387  1.0143  1.0431
  142OSM   C18S15611   2.782   2.474   4.920 -0.2318 -0.6675 -0.0363
  142OSM   H18S15612   2.828   2.567   4.960  0.0757 -0.5740 -0.6010
  142OSM   H18T15613   2.674   2.489   4.898 -0.4750 -1.9599  0.1776
  142OSM   H18U15614   2.829   2.456   4.821  0.7459 -0.5666  0.3951
  142OSM    C1F15615   2.707   1.830   6.428  0.4788 -0.1383  0.0015
  142OSM     OF15616   2.632   1.741   6.472  0.3370  0.0144 -0.1621
  142OSM    C2F15617   2.815   1.806   6.327 -0.3519 -0.0789 -0.4219
  142OSM    H2F15618   2.845   1.699   6.324 -0.4377 -0.1429  0.7558
  142OSM    H2G15619   2.897   1.880   6.339 -0.6298  0.6499 -2.4615
  142OSM    C3F15620   2.766   1.831   6.182 -0.6198 -0.3451 -0.4867
  142OSM    H3F15621   2.727   1.934   6.167  1.1162  0.3480 -0.4398
  142OSM    H3G15622   2.670   1.776   6.171 -0.9352  0.3517 -1.3337
  142OSM    C4F15623   2.872   1.803   6.077 -0.3081  0.2943  0.0215
  142OSM    H4F15624   2.899   1.695   6.074  3.8562  1.1600 -0.9992
  142OSM    H4G15625   2.969   1.851   6.101  1.2222 -2.7159  0.4024
  142OSM    C5F15626   2.814   1.839   5.947 -0.0255 -0.4935 -0.0254
  142OSM    H5F15627   2.786   1.947   5.950 -0.1618 -0.5128 -0.6004
  142OSM    H5G15628   2.724   1.774   5.941 -0.9060  0.7805 -1.3784
  142OSM    C6F15629   2.893   1.822   5.815 -0.0111  0.4653 -0.9255
  142OSM    H6F15630   2.951   1.727   5.821  2.8717  2.1004 -0.7306
  142OSM    H6G15631   2.964   1.907   5.806 -0.1823  0.4325 -3.0938
  142OSM    C7F15632   2.800   1.817   5.687  0.0799 -0.2912 -0.0385
  142OSM    H7F15633   2.729   1.902   5.697 -0.1585 -0.6222  1.2793
  142OSM    H7G15634   2.728   1.732   5.697 -1.3247  0.7995 -0.4894
  142OSM    C8F15635   2.881   1.831   5.557  0.2180 -0.4114  0.5482
  142OSM    H8F15636   2.946   1.747   5.524  1.4055  1.6291 -2.8603
  142OSM    H8G15637   2.948   1.916   5.578  0.7894 -0.7675  0.1997
  142OSM    C9F15638   2.796   1.867   5.436 -0.1868 -0.4107  0.6918
  142OSM    H9F15639   2.687   1.870   5.448 -0.4884 -3.2455 -0.4485
  142OSM   C10F15640   2.850   1.885   5.308  0.0974 -0.1160  0.2469
  142OSM   H10F15641   2.785   1.919   5.226 -0.5977  1.4647  1.3992
  142OSM   C11F15642   2.998   1.876   5.270 -0.4849 -0.3236  0.1361
  142OSM   H11F15643   3.051   1.843   5.362 -0.8297 -0.5108  0.2720
  142OSM   H11G15644   3.041   1.974   5.242 -1.9723  0.6585  1.1482
  142OSM   C12F15645   3.024   1.779   5.158 -0.5326  0.6087  0.0588
  142OSM   H12F15646   2.966   1.685   5.172 -0.5000  0.1435 -2.5131
  142OSM   H12G15647   3.130   1.749   5.170 -0.9109 -0.0797  2.2846
  142OSM   C13F15648   2.989   1.826   5.009  0.6832  0.4671  0.3014
  142OSM   H13F15649   3.051   1.918   5.005 -0.3145  1.4247  3.5483
  142OSM   H13G15650   2.880   1.841   4.998  0.4382 -2.1917 -2.1863
  142OSM   C14F15651   3.045   1.730   4.897  0.4773 -0.3012  0.3850
  142OSM   H14F15652   3.152   1.702   4.914  1.3015  2.7711  1.0154
  142OSM   H14G15653   3.056   1.780   4.799  0.2821  0.4031  0.7127
  142OSM   C15F15654   2.971   1.596   4.888 -0.3208  0.2592 -0.5237
  142OSM   H15F15655   2.862   1.612   4.904 -0.2833  0.3936 -0.4064
  142OSM   H15G15656   3.001   1.524   4.967 -4.3332 -2.0182 -0.7641
  142OSM   C16F15657   2.988   1.536   4.745 -0.0439  0.2803 -0.3006
  142OSM   H16F15658   2.981   1.626   4.681  1.1881  2.0962  1.9946
  142OSM   H16G15659   2.896   1.474   4.736 -1.9084  2.7834  0.3740
  142OSM   C17F15660   3.121   1.473   4.727 -0.9497  0.3264  0.7302
  142OSM   H17F15661   3.137   1.388   4.797 -3.9981 -1.4219 -0.4659
  142OSM   H17G15662   3.208   1.541   4.726 -2.1563  2.0004 -1.4945
  142OSM   C18F15663   3.140   1.414   4.592  1.2689 -0.1854  0.1526
  142OSM   H18F15664   3.245   1.399   4.558  1.3875  1.5137 -0.3097
  142OSM   H18G15665   3.104   1.490   4.519  0.5940  1.0013  1.6665
  142OSM   H18H15666   3.078   1.324   4.572 -0.5597  1.3002 -1.2821
  143OSM      N15667   3.712   5.489   7.122  0.2904 -0.4056 -0.1095
  143OSM    C1515668   3.626   5.368   7.092  0.4877  0.1269 -0.2267
  143OSM   H15A15669   3.522   5.390   7.106  0.0421 -2.3658  0.9182
  143OSM   H15B15670   3.648   5.280   7.150 -0.2469  1.3885  2.0635
  143OSM   H15C15671   3.646   5.328   6.994 -0.9920 -0.1699 -0.4269
  143OSM    C1415672   3.688   5.522   7.264  0.5979  0.2155  0.8175
  143OSM   H14A15673   3.602   5.587   7.274 -0.8872 -1.5898  0.3396
  143OSM   H14B15674   3.767   5.587   7.299  0.6152  1.5132 -1.4298
  143OSM   H14C15675   3.669   5.432   7.319 -1.8171  0.8485  1.1515
  143OSM    C1315676   3.861   5.460   7.113 -0.1720  0.2877 -0.3101
  143OSM   H13A15677   3.889   5.392   7.192  0.5173 -0.2115 -0.9649
  143OSM   H13B15678   3.911   5.556   7.123  2.5169 -0.9167 -1.2547
  143OSM   H13C15679   3.882   5.418   7.016  1.8561  1.1597 -0.3178
  143OSM    C1215680   3.670   5.602   7.025 -1.3792 -0.1430 -0.3954
  143OSM   H12A15681   3.744   5.680   7.036 -2.6510  1.5321 -2.7076
  143OSM   H12B15682   3.577   5.646   7.056 -1.5568  0.0436 -1.1556
  143OSM    C1115683   3.665   5.566   6.874 -0.1241  0.0265 -0.1396
  143OSM   H11A15684   3.742   5.487   6.863 -1.5993 -1.3962 -0.8014
  143OSM   H11B15685   3.698   5.654   6.814  0.5330 -1.0351 -1.4092
  143OSM      P15686   3.421   5.617   6.823  0.0244  0.4217 -0.0416
  143OSM    O1315687   3.301   5.546   6.779 -0.8105  0.3901  0.3918
  143OSM    O1415688   3.420   5.692   6.948 -0.0933  0.1245  0.3671
  143OSM    O1115689   3.472   5.714   6.713  0.3276  0.1605  0.0497
  143OSM    O1215690   3.540   5.515   6.833 -0.2967 -0.1259  0.2925
  143OSM    C1S15691   3.514   5.661   6.584  0.9964  0.1737  1.0175
  143OSM    H1S15692   3.463   5.570   6.548 -2.9769  2.9642 -1.1876
  143OSM    H1T15693   3.623   5.639   6.584  1.3629  1.7757 -0.5570
  143OSM     NF15694   3.497   5.720   6.342  0.2181  0.2100  0.7516
  143OSM    HNF15695   3.579   5.734   6.286 -0.3376  0.4609 -0.0075
  143OSM    C2S15696   3.494   5.771   6.480  0.3011 -0.0749 -0.8769
  143OSM    H2S15697   3.390   5.805   6.501  0.6787  1.6179 -1.5841
  143OSM    C3S15698   3.589   5.891   6.506  0.4222  1.3025 -0.2661
  143OSM    H3S15699   3.688   5.844   6.493  0.0302  0.3311  0.1473
  143OSM     O315700   3.588   5.940   6.640  0.3481  0.1640  0.1580
  143OSM    HO315701   3.531   5.874   6.681  2.0253 -0.2336  1.9774
  143OSM    C4S15702   3.554   6.005   6.413  0.3990  0.6812 -0.1172
  143OSM    H4S15703   3.454   6.048   6.433  0.7123  0.4114  2.4545
  143OSM    C5S15704   3.632   6.037   6.306  0.5656  0.2366  0.0198
  143OSM    H5S15705   3.726   5.981   6.291 -0.5838 -1.5109 -1.0875
  143OSM    C6S15706   3.611   6.159   6.227 -0.5126 -0.0590  0.0939
  143OSM    H6S15707   3.701   6.223   6.237 -0.1193 -0.4479 -0.8735
  143OSM    H6T15708   3.521   6.214   6.264  0.1514 -0.0246  1.7358
  143OSM    C7S15709   3.609   6.113   6.081 -0.4786 -0.3253  0.0549
  143OSM    H7S15710   3.680   6.031   6.056  0.5551  0.3571  0.7149
  143OSM    H7T15711   3.624   6.202   6.017  2.4572 -1.6253 -1.2228
  143OSM    C8S15712   3.473   6.045   6.047  0.2240 -0.8878 -0.3298
  143OSM    H8S15713   3.393   6.113   6.083 -0.7559 -1.5415 -1.2152
  143OSM    H8T15714   3.471   5.955   6.112  3.2004 -1.0593 -0.3517
  143OSM    C9S15715   3.453   6.009   5.898  0.4933  0.0914 -0.1836
  143OSM    H9S15716   3.523   5.929   5.866 -0.0171 -1.4806  2.3398
  143OSM    H9T15717   3.471   6.103   5.841  0.2500  0.6864  0.6985
  143OSM   C10S15718   3.318   5.955   5.873  0.1818  0.3384 -0.1417
  143OSM   H10S15719   3.237   6.014   5.919  0.6030  0.9479 -0.1673
  143OSM   H10T15720   3.300   5.857   5.922 -0.5953 -0.1659 -1.3816
  143OSM   C11S15721   3.280   5.942   5.719  0.3152  0.1653 -0.5256
  143OSM   H11S15722   3.188   5.880   5.713  0.4685 -0.0389 -0.8157
  143OSM   H11T15723   3.359   5.885   5.665 -0.3103 -0.7254 -0.5113
  143OSM   C12S15724   3.237   6.079   5.669  1.0670  0.0805 -0.0285
  143OSM   H12S15725   3.323   6.149   5.674  0.0759  1.2781  1.0913
  143OSM   H12T15726   3.179   6.132   5.747  1.3810  1.3417 -0.6228
  143OSM   C13S15727   3.170   6.071   5.536  0.3468 -0.1467 -0.6013
  143OSM   H13S15728   3.067   6.038   5.563  0.2855 -0.0891 -0.7632
  143OSM   H13T15729   3.228   6.003   5.471  1.0442  0.2490 -0.4045
  143OSM   C14S15730   3.158   6.206   5.462  0.3273 -0.7638 -0.3354
  143OSM   H14S15731   3.258   6.255   5.459 -0.0938  0.1290 -0.1702
  143OSM   H14T15732   3.103   6.279   5.526  1.3475 -0.7994  0.6278
  143OSM   C15S15733   3.092   6.201   5.322 -0.4920 -0.0401 -0.2832
  143OSM   H15S15734   3.078   6.309   5.300  1.6406  0.7073  1.5842
  143OSM   H15T15735   3.002   6.136   5.330 -1.8646  1.8951  0.9814
  143OSM   C16S15736   3.203   6.153   5.221  0.4298 -0.0212  0.3017
  143OSM   H16S15737   3.253   6.063   5.264  1.7177 -0.0139 -1.0847
  143OSM   H16T15738   3.282   6.231   5.228 -0.0669  0.5427 -0.3410
  143OSM   C17S15739   3.157   6.111   5.087 -0.5773 -0.2072 -0.1215
  143OSM   H17S15740   3.108   6.197   5.036  0.8354  0.6010 -0.1700
  143OSM   H17T15741   3.095   6.018   5.086 -1.6931  0.4768  1.7039
  143OSM   C18S15742   3.284   6.061   5.006 -0.4552  0.4100  0.6042
  143OSM   H18S15743   3.324   5.964   5.042  1.2736  0.7967 -0.1536
  143OSM   H18T15744   3.369   6.130   5.021 -0.4866  0.2126  1.7212
  143OSM   H18U15745   3.264   6.045   4.898  0.0156  2.7270  0.1243
  143OSM    C1F15746   3.406   5.634   6.299  0.7493 -0.1947  0.8380
  143OSM     OF15747   3.302   5.629   6.362  0.5032  0.3457 -0.1777
  143OSM    C2F15748   3.416   5.566   6.167 -0.1605  0.1020 -0.4489
  143OSM    H2F15749   3.498   5.492   6.178  0.5834  1.1425  1.5103
  143OSM    H2G15750   3.446   5.641   6.091  0.2739 -0.6038 -0.9946
  143OSM    C3F15751   3.273   5.513   6.126 -0.7957 -0.1087  0.1266
  143OSM    H3F15752   3.195   5.591   6.130 -1.6576 -0.9226 -0.3975
  143OSM    H3G15753   3.232   5.438   6.197 -0.4608 -1.0793 -0.6694
  143OSM    C4F15754   3.269   5.457   5.989 -0.0021  0.1832  0.3326
  143OSM    H4F15755   3.180   5.395   5.964  0.1788 -0.5527  1.4363
  143OSM    H4G15756   3.356   5.390   5.973  0.3298  0.6650  0.1072
  143OSM    C5F15757   3.276   5.556   5.876 -0.1026 -0.7617 -0.2387
  143OSM    H5F15758   3.375   5.605   5.872 -0.9440  0.9859 -0.5267
  143OSM    H5G15759   3.200   5.637   5.872  1.1014  0.3397 -1.6150
  143OSM    C6F15760   3.273   5.493   5.734  0.3169  0.6884 -0.9122
  143OSM    H6F15761   3.168   5.459   5.721 -0.0063  0.3530  1.8547
  143OSM    H6G15762   3.341   5.406   5.740 -0.5612 -0.0991 -1.9323
  143OSM    C7F15763   3.306   5.584   5.619 -0.0620 -0.2233 -0.5018
  143OSM    H7F15764   3.399   5.638   5.644  0.8825 -0.6162 -2.8757
  143OSM    H7G15765   3.224   5.659   5.617  0.1455 -0.0056 -2.5092
  143OSM    C8F15766   3.338   5.523   5.486  0.0413 -0.4927 -0.1370
  143OSM    H8F15767   3.267   5.443   5.454  0.2912 -1.4987  1.6630
  143OSM    H8G15768   3.439   5.477   5.495  0.0537 -0.9931 -2.2454
  143OSM    C9F15769   3.351   5.627   5.379  0.0625  1.1536  0.5765
  143OSM    H9F15770   3.455   5.655   5.360  0.2319 -0.7287 -1.6529
  143OSM   C10F15771   3.252   5.688   5.314 -0.1207  0.3703  0.5622
  143OSM   H10F15772   3.276   5.753   5.228 -1.1902  0.0681  0.0115
  143OSM   C11F15773   3.101   5.673   5.337  0.3348 -0.1704 -0.2425
  143OSM   H11F15774   3.087   5.766   5.397  1.0504 -0.2907  0.1278
  143OSM   H11G15775   3.076   5.589   5.405 -2.2073  0.6532 -0.0439
  143OSM   C12F15776   2.996   5.687   5.217 -0.0696 -0.1268 -0.8959
  143OSM   H12F15777   3.001   5.783   5.160 -0.7730 -0.1087 -0.9380
  143OSM   H12G15778   2.900   5.683   5.272  0.9148  0.0682  0.9011
  143OSM   C13F15779   3.012   5.566   5.121 -0.2144 -0.6244  0.2713
  143OSM   H13F15780   3.032   5.470   5.175 -0.3574 -1.1622 -0.6169
  143OSM   H13G15781   3.103   5.583   5.060 -1.3832 -0.2025 -1.3989
  143OSM   C14F15782   2.895   5.552   5.021  0.5237 -0.8510  0.1900
  143OSM   H14F15783   2.893   5.642   4.956  0.5246 -1.8361 -1.2294
  143OSM   H14G15784   2.799   5.548   5.076  0.3792 -1.2060 -0.0780
  143OSM   C15F15785   2.908   5.424   4.944 -0.1695 -0.8239 -0.2888
  143OSM   H15F15786   2.921   5.340   5.015  0.3858  0.0795  0.6996
  143OSM   H15G15787   3.003   5.409   4.888 -0.0832 -0.3309 -0.2792
  143OSM   C16F15788   2.795   5.397   4.846 -0.1850 -0.1586 -0.2958
  143OSM   H16F15789   2.795   5.480   4.772 -2.9179  2.6450  2.5403
  143OSM   H16G15790   2.700   5.416   4.901 -0.1965  0.8684 -0.6585
  143OSM   C17F15791   2.782   5.254   4.783 -0.1094  0.0462 -0.0219
  143OSM   H17F15792   2.765   5.184   4.867 -3.8214 -0.6981 -1.2002
  143OSM   H17G15793   2.871   5.237   4.719 -1.0720  0.0522 -1.4255
  143OSM   C18F15794   2.655   5.247   4.692 -0.5296  0.0371 -0.3358
  143OSM   H18F15795   2.568   5.261   4.760  0.2693  0.7611  0.5702
  143OSM   H18G15796   2.658   5.156   4.629  1.9217 -0.3583  0.2510
  143OSM   H18H15797   2.650   5.337   4.627 -1.0565  0.2412 -0.0232
  144OSM      N15798   1.502   6.824   7.427 -0.4506  0.2867 -0.7747
  144OSM    C1515799   1.610   6.714   7.404  0.5733 -0.0829  0.1554
  144OSM   H15A15800   1.645   6.711   7.302  1.0875 -1.0088  0.3429
  144OSM   H15B15801   1.559   6.620   7.419 -2.2054  0.9308 -2.2639
  144OSM   H15C15802   1.684   6.727   7.482 -0.7330  1.2597  1.2267
  144OSM    C1415803   1.466   6.811   7.574 -0.6960  0.1489 -0.6626
  144OSM   H14A15804   1.546   6.806   7.646 -0.1137  1.9852 -1.1225
  144OSM   H14B15805   1.403   6.725   7.591  0.5501 -0.7660 -0.5759
  144OSM   H14C15806   1.403   6.895   7.600  3.4127  2.3759  3.6378
  144OSM    C1315807   1.567   6.956   7.400 -0.1449 -0.1566 -0.1267
  144OSM   H13A15808   1.667   6.963   7.440  1.0260  0.6118 -2.8997
  144OSM   H13B15809   1.519   7.045   7.439  0.3711 -0.1793  0.5796
  144OSM   H13C15810   1.581   6.957   7.293  0.8172  2.6546 -0.0521
  144OSM    C1215811   1.382   6.797   7.342  0.2490  0.1651 -0.7261
  144OSM   H12A15812   1.293   6.827   7.394  0.1516 -1.1064 -0.1365
  144OSM   H12B15813   1.375   6.691   7.327 -1.3114 -0.2521  2.2632
  144OSM    C1115814   1.381   6.864   7.202  0.1211 -0.1740  0.1404
  144OSM   H11A15815   1.296   6.821   7.144  0.0273 -0.1372  0.2485
  144OSM   H11B15816   1.474   6.835   7.150 -0.3763 -1.3896 -0.1228
  144OSM      P15817   1.432   7.109   7.124  0.1625 -0.2448 -0.1780
  144OSM    O1315818   1.443   7.237   7.201 -0.3657  0.0018 -0.2691
  144OSM    O1415819   1.566   7.051   7.086  0.3947  0.1588 -0.1291
  144OSM    O1115820   1.351   7.129   6.997 -0.1118 -0.3112  0.3058
  144OSM    O1215821   1.347   7.006   7.205  0.0421 -0.0008  0.0479
  144OSM    C1S15822   1.340   7.022   6.904 -0.9264 -0.8654  0.4693
  144OSM    H1S15823   1.329   6.921   6.949  2.7635 -1.4162  0.4311
  144OSM    H1T15824   1.431   7.032   6.841 -0.7116  3.3880  1.1335
  144OSM     NF15825   1.215   6.919   6.727 -0.2746 -0.6302  0.4751
  144OSM    HNF15826   1.288   6.914   6.659 -0.9613  2.8200 -0.7759
  144OSM    C2S15827   1.230   7.045   6.800  0.4186  0.0585 -0.6129
  144OSM    H2S15828   1.129   7.056   6.845  1.3299 -0.2019  1.6069
  144OSM    C3S15829   1.265   7.168   6.709  0.3017 -0.3373 -0.4336
  144OSM    H3S15830   1.363   7.137   6.668  2.3896  1.0824  3.0399
  144OSM     O315831   1.281   7.291   6.779 -0.0369 -0.0097  0.8060
  144OSM    HO315832   1.254   7.266   6.868 -0.7032 -1.0622  0.3164
  144OSM    C4S15833   1.164   7.192   6.602  0.6348  0.3436  0.1708
  144OSM    H4S15834   1.072   7.241   6.638 -0.8654 -0.7602 -1.9462
  144OSM    C5S15835   1.154   7.156   6.476  0.0790 -0.0212  0.4764
  144OSM    H5S15836   1.244   7.104   6.439 -1.2130 -2.1130  0.0936
  144OSM    C6S15837   1.028   7.184   6.394  0.0253  0.2703 -0.1458
  144OSM    H6S15838   1.056   7.262   6.321  2.4471  0.5705  0.9950
  144OSM    H6T15839   0.943   7.221   6.456 -1.4286 -2.6838 -0.1618
  144OSM    C7S15840   0.979   7.059   6.316  0.0075 -0.0384  0.2538
  144OSM    H7S15841   0.879   7.086   6.274  0.4831 -0.7442 -1.3805
  144OSM    H7T15842   0.972   6.964   6.373  3.0374 -2.8908 -3.5827
  144OSM    C8S15843   1.063   7.036   6.190 -0.6112 -0.0872  0.0177
  144OSM    H8S15844   1.160   7.000   6.231 -0.5211 -0.0687 -0.1802
  144OSM    H8T15845   1.083   7.130   6.133 -1.1866 -1.1417 -2.0078
  144OSM    C9S15846   1.022   6.916   6.108 -0.0192 -0.0398 -0.3065
  144OSM    H9S15847   0.916   6.933   6.081  0.0739  0.5399 -0.3231
  144OSM    H9T15848   1.028   6.818   6.160  0.4301 -0.2139 -0.6722
  144OSM   C10S15849   1.106   6.905   5.977 -0.6296  0.0560 -0.0414
  144OSM   H10S15850   1.216   6.907   5.990 -0.6908 -1.2735  0.8692
  144OSM   H10T15851   1.087   7.004   5.930 -2.5580 -0.7193 -1.0300
  144OSM   C11S15852   1.057   6.788   5.894 -0.0255 -0.8008 -0.1122
  144OSM   H11S15853   0.952   6.813   5.865  0.3614  1.1953  0.1025
  144OSM   H11T15854   1.051   6.689   5.944  1.4655 -0.3332  1.0590
  144OSM   C12S15855   1.134   6.767   5.769 -0.0040  0.1472  0.0349
  144OSM   H12S15856   1.237   6.740   5.801 -0.1241  0.9137  1.1225
  144OSM   H12T15857   1.148   6.860   5.710 -2.3026  0.1709 -0.5477
  144OSM   C13S15858   1.077   6.665   5.673 -0.0203  0.7057  0.5710
  144OSM   H13S15859   1.071   6.571   5.731  0.3777 -0.0951 -0.6506
  144OSM   H13T15860   1.150   6.652   5.591  0.7648 -1.4559  1.5383
  144OSM   C14S15861   0.943   6.700   5.608  0.9439 -0.1044  0.0625
  144OSM   H14S15862   0.946   6.793   5.547  0.1004 -0.1064 -0.0026
  144OSM   H14T15863   0.867   6.730   5.684  1.5598 -2.1215  1.5552
  144OSM   C15S15864   0.885   6.591   5.523  0.0402 -0.0771 -1.3428
  144OSM   H15S15865   0.877   6.497   5.581 -1.3491  0.9478  0.2208
  144OSM   H15T15866   0.956   6.581   5.438  2.6886  0.8281  0.6060
  144OSM   C16S15867   0.753   6.633   5.459 -0.5845  0.1681 -0.4009
  144OSM   H16S15868   0.758   6.601   5.353  0.9616  1.6285 -0.8211
  144OSM   H16T15869   0.740   6.743   5.449  1.5680  0.3365 -2.0098
  144OSM   C17S15870   0.640   6.574   5.536 -0.1854  0.0087 -0.6936
  144OSM   H17S15871   0.663   6.596   5.643 -3.8393  2.0167 -0.1681
  144OSM   H17T15872   0.650   6.465   5.520 -1.8758 -0.7205  2.4952
  144OSM   C18S15873   0.503   6.623   5.509  0.3780  0.4433  0.6802
  144OSM   H18S15874   0.508   6.733   5.521  1.2828  0.6941 -1.5567
  144OSM   H18T15875   0.438   6.568   5.581  0.1963  0.9645  0.9144
  144OSM   H18U15876   0.461   6.605   5.407 -0.2908  2.4191  0.5716
  144OSM    C1F15877   1.133   6.819   6.758  1.2579 -0.5291 -0.2416
  144OSM     OF15878   1.055   6.825   6.854 -0.6220  0.7631  0.4021
  144OSM    C2F15879   1.154   6.698   6.674 -0.5969  0.5300  0.1854
  144OSM    H2F15880   1.158   6.609   6.740  0.4783  0.9270  0.6661
  144OSM    H2G15881   1.252   6.700   6.622 -0.7915 -0.9012 -0.2921
  144OSM    C3F15882   1.041   6.669   6.576  0.3239  0.3482  0.0133
  144OSM    H3F15883   1.071   6.571   6.533  0.8743  0.0639  1.0159
  144OSM    H3G15884   1.040   6.747   6.497  2.2879  1.1330  0.7093
  144OSM    C4F15885   0.901   6.648   6.628 -0.2300 -0.3139 -0.0909
  144OSM    H4F15886   0.868   6.752   6.645  0.4457 -0.2578  1.0272
  144OSM    H4G15887   0.897   6.597   6.727 -0.2796  1.3267  0.7757
  144OSM    C5F15888   0.799   6.578   6.538 -0.5143 -0.6965 -0.1465
  144OSM    H5F15889   0.701   6.580   6.590  0.2539  2.4942  1.4475
  144OSM    H5G15890   0.843   6.477   6.524  0.8395 -0.0685 -0.6219
  144OSM    C6F15891   0.768   6.639   6.398 -0.2214 -0.3172 -0.1441
  144OSM    H6F15892   0.686   6.576   6.359 -0.2159 -0.8184  0.6304
  144OSM    H6G15893   0.854   6.632   6.328 -0.0009 -2.7134  0.2610
  144OSM    C7F15894   0.705   6.779   6.409 -0.1006 -0.2730 -0.4156
  144OSM    H7F15895   0.776   6.840   6.468  0.1467 -1.9584  1.1195
  144OSM    H7G15896   0.615   6.777   6.474  0.5897  1.2333  0.6570
  144OSM    C8F15897   0.677   6.837   6.274  0.3338 -0.0978 -0.9240
  144OSM    H8F15898   0.640   6.756   6.208 -1.1890 -1.6925  1.6900
  144OSM    H8G15899   0.778   6.869   6.241  1.2298 -1.1712  0.6361
  144OSM    C9F15900   0.582   6.951   6.274  0.0889 -0.2023 -0.1114
  144OSM    H9F15901   0.544   7.000   6.365 -2.3653 -1.5591 -0.2923
  144OSM   C10F15902   0.519   7.003   6.165 -0.1733  0.9164 -0.1492
  144OSM   H10F15903   0.449   7.088   6.171 -0.3974  0.7689 -0.6460
  144OSM   C11F15904   0.562   6.975   6.022 -0.5334 -0.0410 -0.3970
  144OSM   H11F15905   0.555   6.871   5.983  0.8754 -0.7717  1.2108
  144OSM   H11G15906   0.668   7.008   6.014 -0.4739  0.4921  1.8572
  144OSM   C12F15907   0.496   7.066   5.918 -0.6224  0.1073  0.3446
  144OSM   H12F15908   0.516   7.172   5.945 -0.8040  0.3121 -0.3094
  144OSM   H12G15909   0.387   7.048   5.933 -0.3167 -0.3170  2.4134
  144OSM   C13F15910   0.537   7.023   5.775 -0.0002 -0.8156 -0.9710
  144OSM   H13F15911   0.473   6.938   5.743  1.1450 -2.0982 -0.0227
  144OSM   H13G15912   0.629   6.964   5.799 -1.1397 -1.8906  1.0118
  144OSM   C14F15913   0.569   7.126   5.667 -0.0576 -0.0297  0.1089
  144OSM   H14F15914   0.635   7.200   5.718  0.0441 -0.9191  1.3273
  144OSM   H14G15915   0.479   7.187   5.648  0.3890  0.9379  1.0179
  144OSM   C15F15916   0.624   7.059   5.535  0.3151  0.0861  0.2569
  144OSM   H15F15917   0.559   6.972   5.510 -1.2612  1.2658  0.0814
  144OSM   H15G15918   0.727   7.032   5.568  0.8716  1.2788 -0.4395
  144OSM   C16F15919   0.636   7.160   5.417 -0.0467 -0.3781  0.6172
  144OSM   H16F15920   0.727   7.136   5.357  0.8534 -0.7793  2.0913
  144OSM   H16G15921   0.648   7.259   5.467 -1.7560  1.6031 -2.5781
  144OSM   C17F15922   0.520   7.166   5.314  0.0141  0.6274  0.0297
  144OSM   H17F15923   0.428   7.219   5.347  0.4035  3.0586 -2.4188
  144OSM   H17G15924   0.493   7.059   5.299  1.0417  0.0472  2.0351
  144OSM   C18F15925   0.563   7.228   5.180 -0.3716  0.3044  0.0778
  144OSM   H18F15926   0.647   7.174   5.131  0.8035  1.5287  0.6801
  144OSM   H18G15927   0.592   7.334   5.188  0.0503  0.2578 -0.7036
  144OSM   H18H15928   0.479   7.218   5.107 -1.4033 -0.2880  1.2943
  145OSM      N15929   4.026   0.604   7.087 -0.3497 -0.0649  0.5014
  145OSM    C1515930   4.134   0.704   7.124 -0.2607  0.3497 -0.5691
  145OSM   H15A15931   4.147   0.704   7.231 -0.2859  0.5430 -0.5659
  145OSM   H15B15932   4.111   0.807   7.103 -2.0485  0.1092  0.0777
  145OSM   H15C15933   4.230   0.683   7.078 -0.5912  0.0651 -1.1518
  145OSM    C1415934   4.045   0.482   7.171  0.3036 -0.0340  0.4429
  145OSM   H14A15935   4.133   0.426   7.144  0.1670  0.8832 -2.2314
  145OSM   H14B15936   3.954   0.425   7.158  0.3329  0.2868 -1.3646
  145OSM   H14C15937   4.058   0.512   7.274  1.0743 -0.2219  0.4054
  145OSM    C1315938   3.892   0.663   7.113  0.0587  0.1720  0.1860
  145OSM   H13A15939   3.890   0.752   7.052  1.2846  0.4140  0.4698
  145OSM   H13B15940   3.872   0.697   7.213  0.8968  0.3142  0.3102
  145OSM   H13C15941   3.809   0.598   7.088  1.0032 -0.5737 -1.2151
  145OSM    C1215942   4.025   0.569   6.938  0.0918  0.6866  0.4041
  145OSM   H12A15943   4.121   0.527   6.911  0.0972  0.0423  1.3710
  145OSM   H12B15944   4.014   0.663   6.885 -1.5860 -0.5935 -1.6405
  145OSM    C1115945   3.904   0.485   6.892  0.6354  0.4546  0.1035
  145OSM   H11A15946   3.920   0.482   6.782 -0.2545  2.8195 -0.1647
  145OSM   H11B15947   3.803   0.532   6.900  1.0059  1.1985  0.5450
  145OSM      P15948   3.956   0.220   6.921 -0.1878 -0.4753 -0.1649
  145OSM    O1315949   4.089   0.235   6.862  0.0219  0.4359 -0.2189
  145OSM    O1415950   3.945   0.128   7.036 -0.4650 -0.2675 -0.4336
  145OSM    O1115951   3.870   0.153   6.805 -0.6652 -0.1648  0.4336
  145OSM    O1215952   3.893   0.358   6.963 -0.4549  0.4135 -0.0899
  145OSM    C1S15953   3.771   0.220   6.729 -0.0390  0.0670 -0.2501
  145OSM    H1S15954   3.768   0.328   6.756  1.8046  0.4099 -1.2293
  145OSM    H1T15955   3.672   0.169   6.739  0.4766 -1.1391 -1.0661
  145OSM     NF15956   3.690   0.301   6.507 -0.1456 -0.1379 -0.2813
  145OSM    HNF15957   3.604   0.261   6.478 -0.9128  0.9795  0.3322
  145OSM    C2S15958   3.790   0.217   6.572  0.1889 -0.0065  0.0511
  145OSM    H2S15959   3.894   0.255   6.560  0.4011 -0.2478  1.0124
  145OSM    C3S15960   3.789   0.075   6.521 -0.2201  0.1878  0.7765
  145OSM    H3S15961   3.691   0.026   6.539 -1.1844  2.0159  0.8206
  145OSM     O315962   3.900   0.008   6.575 -0.2374  0.2508 -0.0126
  145OSM    HO315963   3.933   0.061   6.648 -0.5700  0.1685  0.1989
  145OSM    C4S15964   3.804   0.069   6.377 -0.6395  0.0772  1.1319
  145OSM    H4S15965   3.757  -0.021   6.336 -0.4578 -0.4118  1.9744
  145OSM    C5S15966   3.887   0.135   6.294 -0.8517  0.1927 -0.8761
  145OSM    H5S15967   3.962   0.201   6.339 -0.7527 -0.8646  0.5704
  145OSM    C6S15968   3.899   0.132   6.144 -0.2708  0.3140  0.7817
  145OSM    H6S15969   3.992   0.178   6.103 -1.8447  1.0259 -2.3528
  145OSM    H6T15970   3.824   0.197   6.095 -0.4542  1.1025  2.0644
  145OSM    C7S15971   3.899  -0.017   6.097  0.3753 -0.1774 -0.2096
  145OSM    H7S15972   3.808  -0.077   6.119 -0.2240  0.5117 -0.7809
  145OSM    H7T15973   3.984  -0.066   6.149  0.2445 -1.4298 -1.1359
  145OSM    C8S15974   3.933  -0.024   5.946 -0.2496 -0.2268 -0.0476
  145OSM    H8S15975   4.037   0.013   5.934 -0.1255 -1.0142 -1.5904
  145OSM    H8T15976   3.864   0.043   5.889 -2.2968 -1.5697  0.7180
  145OSM    C9S15977   3.921  -0.167   5.878 -0.8392  1.1917  0.6043
  145OSM    H9S15978   3.819  -0.200   5.902  0.0606 -0.9477  1.6929
  145OSM    H9T15979   3.994  -0.239   5.919 -2.2778 -1.6795 -1.5504
  145OSM   C10S15980   3.940  -0.161   5.723 -0.1338 -0.5081 -0.0352
  145OSM   H10S15981   4.045  -0.139   5.692 -0.7745  1.1898 -1.1815
  145OSM   H10T15982   3.893  -0.065   5.694  3.5862  1.1619 -1.2211
  145OSM   C11S15983   3.879  -0.268   5.636 -0.4402 -0.1564  0.4295
  145OSM   H11S15984   3.770  -0.248   5.623 -1.2487 -1.3199  4.2056
  145OSM   H11T15985   3.895  -0.369   5.679 -0.5626 -1.5071 -2.4502
  145OSM   C12S15986   3.940  -0.274   5.495  0.6497 -1.0626  0.4082
  145OSM   H12S15987   3.883  -0.347   5.433 -1.6774 -1.1165  2.4728
  145OSM   H12T15988   4.043  -0.315   5.500  2.3818  2.5264 -1.7626
  145OSM   C13S15989   3.951  -0.135   5.416  0.3068  0.4632 -1.0990
  145OSM   H13S15990   4.016  -0.073   5.481  0.9528 -2.6675  1.5602
  145OSM   H13T15991   3.851  -0.087   5.420  0.2252  0.3382 -1.5897
  145OSM   C14S15992   4.009  -0.145   5.275  0.0916  0.5038 -0.6887
  145OSM   H14S15993   3.938  -0.203   5.212 -0.1992  0.0701  0.0235
  145OSM   H14T15994   4.101  -0.207   5.274  1.6661  2.7271 -1.7040
  145OSM   C15S15995   4.048  -0.018   5.219  0.0648 -0.2661  0.6430
  145OSM   H15S15996   4.132   0.028   5.276  0.8002 -1.2229  0.3494
  145OSM   H15T15997   3.962   0.052   5.213  0.1428 -0.3125 -1.6296
  145OSM   C16S15998   4.090  -0.019   5.070 -0.5342  0.0487 -0.0064
  145OSM   H16S15999   4.128   0.084   5.055  0.4017 -0.0092  1.7603
  145OSM   H16T16000   3.993  -0.041   5.019 -1.9090 -0.2746  2.5903
  145OSM   C17S16001   4.194  -0.128   5.022  0.3567 -0.2560 -0.3096
  145OSM   H17S16002   4.153  -0.229   5.048 -0.7396  0.4189  0.7101
  145OSM   H17T16003   4.284  -0.115   5.086  0.4036  0.7736 -0.5687
  145OSM   C18S16004   4.221  -0.132   4.873 -0.4158  0.3443  0.4434
  145OSM   H18S16005   4.297  -0.205   4.836  0.0946  1.3676 -0.5966
  145OSM   H18T16006   4.255  -0.035   4.829 -1.8572  0.1892 -1.1381
  145OSM   H18U16007   4.133  -0.160   4.811  1.1059 -3.1801 -0.3647
  145OSM    C1F16008   3.680   0.433   6.520 -0.0136 -0.2365 -0.6764
  145OSM     OF16009   3.763   0.493   6.581  0.4725 -0.2836 -0.2880
  145OSM    C2F16010   3.560   0.516   6.470 -0.1781 -0.1494 -0.0607
  145OSM    H2F16011   3.519   0.575   6.554 -0.8388 -0.7531  0.0490
  145OSM    H2G16012   3.477   0.448   6.442 -0.4712  0.9724 -2.2015
  145OSM    C3F16013   3.605   0.605   6.349 -0.5858 -0.2014  0.0640
  145OSM    H3F16014   3.689   0.671   6.379 -1.5755  0.0302  2.5452
  145OSM    H3G16015   3.523   0.679   6.331 -1.9464 -1.9187 -1.1042
  145OSM    C4F16016   3.645   0.524   6.228  0.0677  0.0964  0.3321
  145OSM    H4F16017   3.562   0.464   6.185 -1.7392  3.5432 -1.4856
  145OSM    H4G16018   3.728   0.461   6.265  1.9965 -0.1382 -3.7903
  145OSM    C5F16019   3.707   0.604   6.114  0.2421 -0.1022 -0.4266
  145OSM    H5F16020   3.630   0.674   6.075  0.5727  1.8749  2.2506
  145OSM    H5G16021   3.737   0.540   6.028 -0.0881 -0.0114 -0.6139
  145OSM    C6F16022   3.825   0.695   6.150  0.0976 -0.4266  0.7909
  145OSM    H6F16023   3.793   0.790   6.198  0.2925  0.1025 -0.1032
  145OSM    H6G16024   3.865   0.721   6.050  0.1240  0.3228  0.9945
  145OSM    C7F16025   3.933   0.631   6.232 -0.2663 -0.0533  0.3467
  145OSM    H7F16026   3.892   0.585   6.324 -0.2562  1.6005  1.1994
  145OSM    H7G16027   4.005   0.712   6.258  0.1779 -0.5682  0.7689
  145OSM    C8F16028   4.011   0.528   6.151  0.5125  0.4423 -0.5156
  145OSM    H8F16029   4.090   0.581   6.093  1.0221 -1.9313 -2.1195
  145OSM    H8G16030   3.951   0.466   6.081  0.8091  1.4954 -1.7301
  145OSM    C9F16031   4.082   0.425   6.236  0.7376  0.5115  0.1361
  145OSM    H9F16032   4.044   0.413   6.338  1.2431 -0.6341  0.2044
  145OSM   C10F16033   4.204   0.381   6.207 -0.1792  0.3013  0.2597
  145OSM   H10F16034   4.266   0.320   6.274  0.1394 -2.1046 -2.0265
  145OSM   C11F16035   4.272   0.393   6.071 -0.3420 -0.2728  0.9052
  145OSM   H11F16036   4.379   0.366   6.075  0.0801  0.8934 -1.1734
  145OSM   H11G16037   4.264   0.495   6.027  0.7490  0.9669  3.3886
  145OSM   C12F16038   4.212   0.299   5.969 -0.2058 -0.2054 -0.3978
  145OSM   H12F16039   4.107   0.324   5.944 -0.7147 -1.4995  0.3413
  145OSM   H12G16040   4.217   0.197   6.013  0.4814  1.2399  3.2793
  145OSM   C13F16041   4.292   0.314   5.833 -0.4136 -0.1299 -0.0740
  145OSM   H13F16042   4.282   0.420   5.799  0.1318 -0.2997 -0.7638
  145OSM   H13G16043   4.233   0.259   5.757 -1.0113  1.5209 -0.8634
  145OSM   C14F16044   4.431   0.238   5.828  0.7305  0.3105 -0.0863
  145OSM   H14F16045   4.414   0.139   5.874  1.7109  0.4204  0.5631
  145OSM   H14G16046   4.497   0.282   5.907  0.0142  0.3600  0.4886
  145OSM   C15F16047   4.499   0.229   5.687  0.1857 -0.0397  0.4588
  145OSM   H15F16048   4.450   0.157   5.619 -1.4193 -1.6629  3.1675
  145OSM   H15G16049   4.605   0.197   5.691  0.7238  1.6989  0.9110
  145OSM   C16F16050   4.519   0.361   5.609  0.7802  0.2751 -0.0822
  145OSM   H16F16051   4.573   0.436   5.671  1.4928  0.3637 -0.7890
  145OSM   H16G16052   4.420   0.399   5.577 -0.3579 -2.4276 -0.0290
  145OSM   C17F16053   4.594   0.322   5.480  0.0459  0.2278 -0.2757
  145OSM   H17F16054   4.530   0.244   5.432 -1.0974  1.6251 -1.1000
  145OSM   H17G16055   4.696   0.289   5.507 -0.7004 -0.3258  2.0967
  145OSM   C18F16056   4.590   0.443   5.393  0.1892  0.0781  0.2190
  145OSM   H18F16057   4.648   0.424   5.300  0.1532 -0.8622  0.3801
  145OSM   H18G16058   4.630   0.533   5.445  1.8232 -0.6126  0.2472
  145OSM   H18H16059   4.495   0.461   5.339 -0.4504  0.9272  1.5981
  146OSM      N16060   2.679   2.464   7.029 -0.4400  0.0032 -0.1846
  146OSM    C1516061   2.697   2.331   6.967  0.0026 -0.3030  0.2887
  146OSM   H15A16062   2.662   2.257   7.038  1.9440  0.3570  2.0351
  146OSM   H15B16063   2.802   2.314   6.951  0.4697  0.0652  2.5217
  146OSM   H15C16064   2.635   2.334   6.879 -0.0483 -0.2050  0.3274
  146OSM    C1416065   2.733   2.569   6.938 -0.2727  0.0947 -0.8416
  146OSM   H14A16066   2.677   2.581   6.847 -0.7512 -0.6429 -0.6488
  146OSM   H14B16067   2.836   2.549   6.912  0.4990  0.7935  1.3823
  146OSM   H14C16068   2.740   2.656   7.002 -0.2536 -0.8586  0.4885
  146OSM    C1316069   2.539   2.500   7.054 -0.7086 -0.7609  0.1911
  146OSM   H13A16070   2.475   2.466   6.974  0.3202  0.4321 -1.1843
  146OSM   H13B16071   2.528   2.607   7.055 -0.1356 -0.6694 -1.1852
  146OSM   H13C16072   2.508   2.452   7.146  2.0258 -1.9004  0.6071
  146OSM    C1216073   2.753   2.474   7.157  1.0644 -0.0170 -0.0230
  146OSM   H12A16074   2.730   2.386   7.215 -2.6308  0.8374  0.0328
  146OSM   H12B16075   2.699   2.549   7.212 -2.8740 -2.0244 -0.7689
  146OSM    C1116076   2.905   2.490   7.153 -0.4652 -0.4227 -0.6721
  146OSM   H11A16077   2.938   2.463   7.255 -3.9483 -2.8317  0.0163
  146OSM   H11B16078   2.936   2.595   7.140 -0.0458  0.0039  2.8156
  146OSM      P16079   3.079   2.454   6.958  0.4369  0.0410  0.0975
  146OSM    O1316080   3.196   2.467   7.046  0.5037  1.5547  0.0902
  146OSM    O1416081   3.082   2.364   6.840 -0.1420 -0.3126  0.2704
  146OSM    O1116082   3.041   2.594   6.898  0.4933  0.0440  0.2081
  146OSM    O1216083   2.956   2.410   7.049  0.1540  0.1303  0.6297
  146OSM    C1S16084   3.117   2.659   6.791  0.0367 -0.1551 -0.7621
  146OSM    H1S16085   3.166   2.579   6.732  1.5594 -0.5798  0.9871
  146OSM    H1T16086   3.197   2.722   6.836 -2.0142  1.0404  1.4152
  146OSM     NF16087   3.106   2.786   6.580  0.3042  0.1812  0.3925
  146OSM    HNF16088   3.172   2.860   6.587 -1.3702  1.6570  1.4602
  146OSM    C2S16089   3.026   2.753   6.700 -0.4651 -0.0885  0.3907
  146OSM    H2S16090   2.931   2.699   6.679 -1.1302  1.6652 -1.4767
  146OSM    C3S16091   2.994   2.878   6.783 -0.1925  0.4308 -0.0841
  146OSM    H3S16092   3.093   2.923   6.807  0.6003 -2.3517  2.3321
  146OSM     O316093   2.947   2.849   6.914 -0.2143  0.0924 -0.4579
  146OSM    HO316094   2.973   2.758   6.925  1.3743  0.6581  0.9697
  146OSM    C4S16095   2.895   2.970   6.717  0.3558 -0.2303  0.1473
  146OSM    H4S16096   2.795   2.925   6.702  0.0175  0.9022 -1.2773
  146OSM    C5S16097   2.934   3.092   6.677  0.2375 -0.5908  0.1496
  146OSM    H5S16098   3.034   3.134   6.696 -0.5598  1.8639 -0.5997
  146OSM    C6S16099   2.833   3.187   6.609 -0.0526  0.5999 -0.0825
  146OSM    H6S16100   2.884   3.264   6.549  0.6517  0.6086  0.5203
  146OSM    H6T16101   2.761   3.231   6.681 -1.7706  0.0530 -1.3926
  146OSM    C7S16102   2.752   3.114   6.501  0.4696  0.6396  0.1337
  146OSM    H7S16103   2.693   3.027   6.537 -0.2686  0.6056 -1.1331
  146OSM    H7T16104   2.815   3.075   6.419 -0.3958 -1.7359  0.5217
  146OSM    C8S16105   2.651   3.212   6.445 -0.8068 -0.0059  0.0621
  146OSM    H8S16106   2.700   3.310   6.429  0.4319 -0.5553  0.3505
  146OSM    H8T16107   2.576   3.244   6.520 -1.1777 -2.5050  0.8473
  146OSM    C9S16108   2.578   3.167   6.311 -0.2396 -0.2536 -0.3675
  146OSM    H9S16109   2.510   3.083   6.335  0.4535 -0.6815  0.1360
  146OSM    H9T16110   2.655   3.127   6.242 -0.3161 -0.8669 -0.0990
  146OSM   C10S16111   2.499   3.290   6.245 -0.1272 -1.3555 -0.4172
  146OSM   H10S16112   2.573   3.371   6.228 -0.4914 -0.8630  0.2759
  146OSM   H10T16113   2.422   3.330   6.314 -0.2943 -2.5104  0.0800
  146OSM   C11S16114   2.431   3.253   6.108 -0.2597 -0.0203 -0.2878
  146OSM   H11S16115   2.378   3.343   6.070 -2.7236 -1.5974 -0.8687
  146OSM   H11T16116   2.365   3.163   6.114 -1.5511  0.9519  1.0668
  146OSM   C12S16117   2.536   3.225   5.993  0.2903 -0.7272  0.3462
  146OSM   H12S16118   2.623   3.159   6.015  1.6163  0.4413 -1.1476
  146OSM   H12T16119   2.586   3.323   5.981 -0.3653  0.1167  3.4930
  146OSM   C13S16120   2.460   3.176   5.870  0.2259 -0.2756 -0.0721
  146OSM   H13S16121   2.372   3.242   5.869 -2.1393 -3.0804  2.6319
  146OSM   H13T16122   2.416   3.075   5.887  0.6117 -0.2564  1.1429
  146OSM   C14S16123   2.538   3.174   5.745 -0.1617 -0.3475 -0.1744
  146OSM   H14S16124   2.602   3.083   5.751 -0.6790 -0.7316 -0.4093
  146OSM   H14T16125   2.593   3.270   5.734  0.9309 -0.7885  1.1188
  146OSM   C15S16126   2.454   3.161   5.611  0.2819 -0.3613 -0.2973
  146OSM   H15S16127   2.365   3.225   5.624  1.1686  0.8204  0.1557
  146OSM   H15T16128   2.415   3.058   5.592 -1.1989  0.1487 -0.1348
  146OSM   C16S16129   2.531   3.207   5.487  0.1916  0.0051 -0.0780
  146OSM   H16S16130   2.611   3.131   5.473  0.8075  0.5788  0.2032
  146OSM   H16T16131   2.568   3.311   5.500  1.6160 -0.5701  0.8480
  146OSM   C17S16132   2.446   3.202   5.351 -0.3738  0.7276  0.0492
  146OSM   H17S16133   2.369   3.282   5.355 -0.9999  0.2668 -1.9564
  146OSM   H17T16134   2.405   3.098   5.350  1.1007  0.0792 -2.5514
  146OSM   C18S16135   2.517   3.229   5.211  0.7105 -0.1389  0.1888
  146OSM   H18S16136   2.568   3.328   5.204  0.9333 -0.2847 -0.3682
  146OSM   H18T16137   2.441   3.223   5.130  0.7598 -1.4063  0.2130
  146OSM   H18U16138   2.588   3.144   5.202 -0.1482 -0.9730  1.0251
  146OSM    C1F16139   3.110   2.706   6.481 -0.1945  0.0302  0.1024
  146OSM     OF16140   3.054   2.597   6.483  0.1622  0.6944 -0.4095
  146OSM    C2F16141   3.215   2.739   6.379  0.5641 -0.6750 -0.2719
  146OSM    H2F16142   3.248   2.648   6.325  1.9370 -0.3674  0.0259
  146OSM    H2G16143   3.305   2.787   6.423 -0.2119 -0.5282  1.2188
  146OSM    C3F16144   3.151   2.822   6.269 -0.0593 -0.4142 -0.3445
  146OSM    H3F16145   3.115   2.914   6.319  0.6802  0.1165 -0.7658
  146OSM    H3G16146   3.070   2.768   6.216  1.0282 -0.2728 -2.2666
  146OSM    C4F16147   3.250   2.859   6.155  0.3675 -0.5608  0.1314
  146OSM    H4F16148   3.295   2.761   6.127  1.1664  0.3445 -2.0035
  146OSM    H4G16149   3.335   2.923   6.186 -0.3625 -0.3686  1.8378
  146OSM    C5F16150   3.178   2.918   6.023  0.4308 -0.4304 -0.5433
  146OSM    H5F16151   3.221   3.018   5.998 -0.1276  0.6377  2.3791
  146OSM    H5G16152   3.075   2.954   6.048  1.3608  2.4615 -0.4834
  146OSM    C6F16153   3.160   2.824   5.906  0.5399 -0.2881  0.9158
  146OSM    H6F16154   3.069   2.764   5.928 -0.7046  1.3763  0.5132
  146OSM    H6G16155   3.250   2.761   5.896  1.8307  1.7658 -1.8478
  146OSM    C7F16156   3.136   2.903   5.773 -0.4528 -0.0865 -0.5925
  146OSM    H7F16157   3.051   2.972   5.789 -0.1358  0.0217  0.7099
  146OSM    H7G16158   3.114   2.827   5.695  0.4691 -0.9449 -0.0441
  146OSM    C8F16159   3.257   2.987   5.724 -0.1543 -0.1115 -0.2874
  146OSM    H8F16160   3.288   3.054   5.807 -0.3180 -1.1116  0.5841
  146OSM    H8G16161   3.223   3.060   5.646  1.8765  0.2668 -0.8807
  146OSM    C9F16162   3.375   2.894   5.685 -0.2150 -0.3475  0.2680
  146OSM    H9F16163   3.432   2.838   5.760  0.0620  0.4192  0.6414
  146OSM   C10F16164   3.416   2.873   5.557  0.7512 -0.6076  0.4098
  146OSM   H10F16165   3.512   2.823   5.537  0.1070 -1.3689 -0.9384
  146OSM   C11F16166   3.348   2.940   5.439  0.0462 -0.6743 -0.2450
  146OSM   H11F16167   3.342   3.050   5.450  2.6272 -0.4981  0.1702
  146OSM   H11G16168   3.245   2.908   5.413 -0.3292  0.4124 -0.1541
  146OSM   C12F16169   3.435   2.911   5.315  0.2862  0.8309 -0.1709
  146OSM   H12F16170   3.426   2.805   5.282  1.0537  0.8615 -0.4927
  146OSM   H12G16171   3.536   2.944   5.345 -0.4180  2.4586  0.5065
  146OSM   C13F16172   3.399   2.998   5.191 -0.2009  0.3422 -0.1179
  146OSM   H13F16173   3.327   3.078   5.219 -0.1428  0.5718 -0.6028
  146OSM   H13G16174   3.331   2.937   5.127  1.1582 -1.0325 -0.2999
  146OSM   C14F16175   3.508   3.062   5.106  0.5726 -0.3153  0.6321
  146OSM   H14F16176   3.589   2.997   5.067 -0.9886 -0.4879 -2.6922
  146OSM   H14G16177   3.460   3.099   5.013 -1.7468  2.3418  2.7265
  146OSM   C15F16178   3.575   3.183   5.172 -0.3899  0.1325 -0.2260
  146OSM   H15F16179   3.647   3.156   5.251  0.7294  0.6642 -1.0291
  146OSM   H15G16180   3.487   3.234   5.217 -0.8364  0.6912 -1.6524
  146OSM   C16F16181   3.643   3.283   5.079  0.5678  0.3883 -0.0361
  146OSM   H16F16182   3.649   3.374   5.143  0.8829 -0.1262  0.6777
  146OSM   H16G16183   3.572   3.307   4.997  0.9887 -0.9193 -0.7980
  146OSM   C17F16184   3.781   3.238   5.029  0.1230 -0.7115  0.2609
  146OSM   H17F16185   3.775   3.138   4.982  1.4508 -0.0420 -1.4575
  146OSM   H17G16186   3.857   3.232   5.110  0.7962 -1.6427 -0.4067
  146OSM   C18F16187   3.831   3.333   4.918  0.0458 -0.5083 -0.1695
  146OSM   H18F16188   3.838   3.440   4.946 -1.2966 -0.7326  1.1583
  146OSM   H18G16189   3.772   3.313   4.826 -0.6945  0.2506  0.1261
  146OSM   H18H16190   3.936   3.308   4.893  0.3766  0.1586  0.5228
  147OSM      N16191   6.867   3.794   2.301  0.7823  0.0184  0.3808
  147OSM    C1516192   6.883   3.648   2.310 -0.3631 -0.4137  0.4620
  147OSM   H15A16193   6.892   3.613   2.411 -0.0185 -0.4615  0.4154
  147OSM   H15B16194   6.953   3.598   2.244 -0.3582  0.0769  0.0860
  147OSM   H15C16195   6.789   3.607   2.277 -1.5282  3.5368 -1.8083
  147OSM    C1416196   6.994   3.852   2.354  0.2014  0.1962  0.5742
  147OSM   H14A16197   7.008   3.958   2.339  0.2410  0.0483 -0.5488
  147OSM   H14B16198   7.083   3.804   2.315  0.8532  0.0307  2.2052
  147OSM   H14C16199   6.996   3.840   2.461  0.8281 -0.4800  0.4966
  147OSM    C1316200   6.834   3.835   2.153  0.3261  0.2383  0.4011
  147OSM   H13A16201   6.732   3.806   2.131  1.2275 -1.0761 -2.6346
  147OSM   H13B16202   6.904   3.786   2.087  0.0979  1.4223 -0.7779
  147OSM   H13C16203   6.832   3.940   2.129 -2.0778 -0.1935 -1.6498
  147OSM    C1216204   6.751   3.832   2.394 -0.0242  0.1612  0.3737
  147OSM   H12A16205   6.661   3.792   2.352 -0.5899  1.6565  0.1161
  147OSM   H12B16206   6.732   3.938   2.384 -3.0304 -0.0969  2.0984
  147OSM    C1116207   6.748   3.791   2.542 -0.7985  0.7093 -0.4283
  147OSM   H11A16208   6.673   3.852   2.596  0.7106  1.0635  1.3714
  147OSM   H11B16209   6.839   3.813   2.601  0.1869  0.3739 -1.7569
  147OSM      P16210   6.578   3.597   2.559 -0.2584 -0.6200 -0.0189
  147OSM    O1316211   6.522   3.630   2.429  0.1957 -0.2058  0.3635
  147OSM    O1416212   6.592   3.458   2.601  0.5447  0.1762  0.1168
  147OSM    O1116213   6.516   3.685   2.674  0.1940  0.3884 -0.2050
  147OSM    O1216214   6.729   3.653   2.556  0.0831  0.2609 -0.9904
  147OSM    C1S16215   6.403   3.633   2.737  0.0223 -0.2546  0.0169
  147OSM    H1S16216   6.396   3.522   2.742  0.8774 -0.3343 -0.3815
  147OSM    H1T16217   6.311   3.671   2.687  0.9309 -0.0193 -1.5312
  147OSM     NF16218   6.317   3.577   2.965  0.5368  0.1375 -0.7241
  147OSM    HNF16219   6.220   3.590   2.986  0.7593  2.1092 -0.7861
  147OSM    C2S16220   6.393   3.671   2.892 -0.4745  1.2364  0.2376
  147OSM    H2S16221   6.499   3.657   2.925 -0.5389  1.3633  0.5025
  147OSM    C3S16222   6.357   3.825   2.909  0.0002 -0.6389 -0.0321
  147OSM    H3S16223   6.256   3.849   2.871  0.2214 -1.5887 -1.3135
  147OSM     O316224   6.440   3.910   2.829  0.4586  0.0951 -0.0660
  147OSM    HO316225   6.470   3.837   2.774 -1.1165 -2.1047  1.7583
  147OSM    C4S16226   6.374   3.854   3.059 -0.2629 -0.9011  0.5883
  147OSM    H4S16227   6.280   3.829   3.112 -0.0389 -0.5306  1.1714
  147OSM    C5S16228   6.477   3.907   3.121 -0.0703  0.2015  0.4553
  147OSM    H5S16229   6.564   3.935   3.061  0.1542  2.2675  1.6547
  147OSM    C6S16230   6.490   3.930   3.263 -0.2116 -0.2858 -0.9441
  147OSM    H6S16231   6.406   3.890   3.324 -1.2702  0.9713 -1.5243
  147OSM    H6T16232   6.500   4.039   3.284 -2.5282 -0.6814  3.4421
  147OSM    C7S16233   6.613   3.866   3.327  0.7849  0.3444  0.0502
  147OSM    H7S16234   6.708   3.916   3.298  0.5799  1.8508  1.7653
  147OSM    H7T16235   6.607   3.761   3.291 -0.0362  0.7968 -1.1964
  147OSM    C8S16236   6.596   3.875   3.473  0.4340  0.1546 -0.5181
  147OSM    H8S16237   6.491   3.863   3.508  1.2424 -1.0567  1.7945
  147OSM    H8T16238   6.634   3.973   3.508  0.7485  0.0724 -0.6268
  147OSM    C9S16239   6.675   3.780   3.571  0.9244  0.4776  0.4863
  147OSM    H9S16240   6.778   3.772   3.530  0.8513  1.3701  0.1032
  147OSM    H9T16241   6.624   3.682   3.562 -0.5085  1.1250  1.1347
  147OSM   C10S16242   6.673   3.839   3.715  0.3796  0.0237  0.4190
  147OSM   H10S16243   6.570   3.839   3.758  0.0069 -0.0365 -0.4414
  147OSM   H10T16244   6.712   3.943   3.715 -2.5804  1.3113 -2.4671
  147OSM   C11S16245   6.753   3.752   3.807  0.1852  0.2644 -0.1790
  147OSM   H11S16246   6.861   3.746   3.783  0.3556  0.3542  0.5195
  147OSM   H11T16247   6.723   3.645   3.802  1.8545 -0.1656 -1.6133
  147OSM   C12S16248   6.738   3.799   3.954 -0.1106  0.1111  0.4806
  147OSM   H12S16249   6.633   3.782   3.986  0.0004 -0.5278  0.5258
  147OSM   H12T16250   6.764   3.906   3.956 -0.1357  0.1341 -0.1551
  147OSM   C13S16251   6.833   3.738   4.065  0.7541 -0.5940  0.4880
  147OSM   H13S16252   6.930   3.789   4.047 -0.2828  1.7611  1.2064
  147OSM   H13T16253   6.845   3.629   4.044  0.2292 -0.2700 -1.6787
  147OSM   C14S16254   6.786   3.753   4.209 -0.2196  0.0091 -0.3641
  147OSM   H14S16255   6.879   3.721   4.262  1.5749 -0.8865 -3.7677
  147OSM   H14T16256   6.711   3.675   4.232  0.3754 -0.1512  1.1332
  147OSM   C15S16257   6.728   3.891   4.245 -0.2357  0.1060 -0.4731
  147OSM   H15S16258   6.634   3.907   4.188 -1.4417 -0.8003  1.2050
  147OSM   H15T16259   6.806   3.969   4.231  0.1270 -0.1957 -0.1437
  147OSM   C16S16260   6.675   3.899   4.390 -0.1233  0.6203  0.8741
  147OSM   H16S16261   6.593   3.826   4.408  0.8770 -0.2836  1.8554
  147OSM   H16T16262   6.629   4.000   4.394 -1.1620  0.2370 -0.5305
  147OSM   C17S16263   6.782   3.880   4.491  0.3510  0.2088  0.0083
  147OSM   H17S16264   6.874   3.941   4.477  0.1468  1.0443  1.8945
  147OSM   H17T16265   6.811   3.773   4.495  2.4472  0.7575  1.4229
  147OSM   C18S16266   6.748   3.907   4.640  0.1672 -0.1722 -0.5337
  147OSM   H18S16267   6.679   3.835   4.689 -1.6537  1.9960  0.2491
  147OSM   H18T16268   6.699   4.006   4.648  2.3008  1.0725 -1.8869
  147OSM   H18U16269   6.841   3.893   4.699 -1.3963 -1.8494  1.7311
  147OSM    C1F16270   6.358   3.454   2.987 -0.4308  0.2999  0.7202
  147OSM     OF16271   6.477   3.418   2.970 -0.1800 -0.5559  0.0827
  147OSM    C2F16272   6.254   3.355   3.016  0.0059 -0.5352 -0.4477
  147OSM    H2F16273   6.200   3.320   2.925 -1.4843  2.4078 -0.8382
  147OSM    H2G16274   6.188   3.406   3.089 -1.1539  0.1902 -1.9311
  147OSM    C3F16275   6.316   3.227   3.081 -0.2879 -0.4583 -0.0795
  147OSM    H3F16276   6.361   3.264   3.175 -0.1609 -2.3557  0.6521
  147OSM    H3G16277   6.405   3.196   3.021  3.1727  2.0982  3.2763
  147OSM    C4F16278   6.219   3.118   3.107 -0.1907 -0.1097 -0.6599
  147OSM    H4F16279   6.173   3.081   3.013 -0.5676 -2.0682  0.2402
  147OSM    H4G16280   6.134   3.154   3.170 -0.6206  2.6320 -2.6706
  147OSM    C5F16281   6.280   2.994   3.172  0.2456 -0.2270  0.1885
  147OSM    H5F16282   6.379   2.976   3.123  1.4713  0.6256  2.2007
  147OSM    H5G16283   6.218   2.904   3.152  1.1190 -0.9527  0.6083
  147OSM    C6F16284   6.297   3.008   3.324 -0.3885 -0.5811  0.1492
  147OSM    H6F16285   6.203   3.050   3.365  0.5289  0.6929  1.0516
  147OSM    H6G16286   6.382   3.079   3.333  0.4487 -1.5141 -0.2314
  147OSM    C7F16287   6.324   2.877   3.396 -0.2660 -0.1152  0.4643
  147OSM    H7F16288   6.422   2.843   3.358  1.2205  2.8967  1.2465
  147OSM    H7G16289   6.239   2.806   3.397 -2.7944  2.7018  1.1427
  147OSM    C8F16290   6.338   2.901   3.550 -0.0239  0.7072  0.5634
  147OSM    H8F16291   6.240   2.931   3.591  0.5384  1.6740  1.2384
  147OSM    H8G16292   6.415   2.979   3.568  2.1372 -1.5380  1.6225
  147OSM    C9F16293   6.370   2.768   3.619  0.0334  0.5857  0.9117
  147OSM    H9F16294   6.363   2.681   3.553 -1.7265  0.0040  1.7976
  147OSM   C10F16295   6.402   2.748   3.748 -0.0232  0.1896 -0.3122
  147OSM   H10F16296   6.415   2.647   3.788 -0.8615 -0.4884 -1.6926
  147OSM   C11F16297   6.409   2.849   3.866 -0.8661  0.4404 -0.3402
  147OSM   H11F16298   6.450   2.947   3.833 -0.7018  0.2269 -0.7640
  147OSM   H11G16299   6.466   2.803   3.949 -2.8424 -1.5251  0.0235
  147OSM   C12F16300   6.258   2.867   3.910  0.7326  0.5449 -0.2317
  147OSM   H12F16301   6.235   2.785   3.982  2.8414 -0.1993 -0.3520
  147OSM   H12G16302   6.194   2.850   3.820 -1.1161  1.4007  0.8624
  147OSM   C13F16303   6.218   2.999   3.972  0.4593  0.4564 -0.6364
  147OSM   H13F16304   6.261   3.079   3.907  0.8712  1.0232  0.3128
  147OSM   H13G16305   6.257   3.026   4.072 -1.3975 -0.8024  0.4761
  147OSM   C14F16306   6.072   3.029   3.970  1.0184 -0.0555 -0.3085
  147OSM   H14F16307   6.041   3.021   4.076  1.9962  0.0332 -0.0041
  147OSM   H14G16308   6.012   2.948   3.923  0.5322 -0.1881  0.5258
  147OSM   C15F16309   6.037   3.161   3.913 -0.0362  0.4772 -0.3490
  147OSM   H15F16310   6.119   3.231   3.938 -0.5889  0.7522  0.7257
  147OSM   H15G16311   5.952   3.203   3.970 -0.6385 -0.9246 -0.1702
  147OSM   C16F16312   6.002   3.161   3.760 -0.5300  0.0196  0.6422
  147OSM   H16F16313   5.931   3.078   3.740  0.2993 -0.2973 -1.2965
  147OSM   H16G16314   6.094   3.135   3.702  0.9666  0.7568  2.5784
  147OSM   C17F16315   5.954   3.301   3.719  0.3407 -0.2046  0.6189
  147OSM   H17F16316   6.039   3.372   3.710 -0.0067  0.1670  0.2291
  147OSM   H17G16317   5.884   3.337   3.797 -0.1380  1.0273 -0.3453
  147OSM   C18F16318   5.880   3.308   3.587 -0.2004  0.2042  0.7473
  147OSM   H18F16319   5.829   3.406   3.574 -1.5425 -0.6230 -0.6599
  147OSM   H18G16320   5.802   3.229   3.582 -0.5698  0.6198 -0.5183
  147OSM   H18H16321   5.956   3.295   3.507 -0.2370 -0.4974  0.8159
  148OSM      N16322   6.416   3.138   2.596 -0.3757  0.2946  0.3931
  148OSM    C1516323   6.340   3.263   2.631 -0.0407  0.1889  0.5124
  148OSM   H15A16324   6.278   3.247   2.718  1.0278  2.4115  1.7714
  148OSM   H15B16325   6.282   3.294   2.546  3.5331  0.5824 -2.0342
  148OSM   H15C16326   6.411   3.340   2.657  1.5372  0.9844 -4.9335
  148OSM    C1416327   6.497   3.155   2.470 -0.2965 -0.2030 -0.3534
  148OSM   H14A16328   6.563   3.077   2.435  0.0593 -0.5280  0.9863
  148OSM   H14B16329   6.556   3.244   2.480 -2.2268  1.4226 -2.3823
  148OSM   H14C16330   6.436   3.180   2.385 -1.3139 -0.1012  0.3881
  148OSM    C1316331   6.517   3.121   2.708  0.2093  0.6593 -1.0207
  148OSM   H13A16332   6.572   3.210   2.734  2.0783 -1.1495  1.7078
  148OSM   H13B16333   6.591   3.047   2.684  1.3478  1.3933  0.1233
  148OSM   H13C16334   6.460   3.098   2.797 -0.0954  0.3803 -1.2857
  148OSM    C1216335   6.327   3.013   2.594 -0.3769  0.4393  0.5192
  148OSM   H12A16336   6.393   2.929   2.576 -0.9869 -0.4349  2.1150
  148OSM   H12B16337   6.269   3.023   2.504 -0.3976  1.5530  0.6469
  148OSM    C1116338   6.232   2.980   2.707 -0.5437 -0.3317  0.5214
  148OSM   H11A16339   6.296   2.979   2.798  0.2768  2.5338  0.0918
  148OSM   H11B16340   6.190   2.880   2.685 -1.4841  0.3397 -0.8390
  148OSM      P16341   6.011   3.099   2.630  0.1765 -0.0818  0.1153
  148OSM    O1316342   6.013   3.242   2.589  0.4198 -0.0206  0.3819
  148OSM    O1416343   6.038   3.007   2.523  0.1605  0.7937 -0.3801
  148OSM    O1116344   5.878   3.044   2.706 -0.0229 -0.0185  0.0682
  148OSM    O1216345   6.133   3.084   2.730 -0.6014  0.4194 -0.5093
  148OSM    C1S16346   5.901   2.990   2.839 -0.2490  0.3386  0.0643
  148OSM    H1S16347   5.951   3.057   2.912  0.7072 -0.9062  0.5871
  148OSM    H1T16348   5.978   2.911   2.828 -1.0690 -0.3360 -0.9331
  148OSM     NF16349   5.808   2.874   3.037  0.3260  0.1207 -0.3948
  148OSM    HNF16350   5.828   2.777   3.048 -1.1081  0.0128  2.1285
  148OSM    C2S16351   5.777   2.926   2.904 -0.0383 -0.3130 -0.6261
  148OSM    H2S16352   5.712   3.014   2.921  0.9752  0.0291  1.8879
  148OSM    C3S16353   5.706   2.822   2.806  0.0381  0.5464 -0.5476
  148OSM    H3S16354   5.772   2.734   2.788 -0.4633  0.1626 -0.5145
  148OSM     O316355   5.686   2.879   2.673 -0.5761  0.0431  0.8971
  148OSM    HO316356   5.728   2.966   2.670  0.5595 -0.4721  1.0859
  148OSM    C4S16357   5.575   2.776   2.864 -0.8418 -0.3074 -0.1818
  148OSM    H4S16358   5.574   2.671   2.895  0.6410 -0.5036 -0.7002
  148OSM    C5S16359   5.459   2.846   2.861  0.1350 -0.2228 -0.3387
  148OSM    H5S16360   5.461   2.948   2.819 -1.3414 -0.7183 -1.7288
  148OSM    C6S16361   5.325   2.793   2.897  0.2019  0.0607 -0.3449
  148OSM    H6S16362   5.304   2.724   2.812  0.8788 -0.2373 -0.2761
  148OSM    H6T16363   5.254   2.878   2.907 -1.7094 -1.7138  2.2554
  148OSM    C7S16364   5.301   2.702   3.012 -0.1779 -0.0516 -1.1696
  148OSM    H7S16365   5.367   2.613   3.013 -1.1716 -0.8053 -1.1247
  148OSM    H7T16366   5.197   2.663   3.009  0.9318 -3.2288 -1.1438
  148OSM    C8S16367   5.312   2.773   3.155  0.9432 -0.0962 -0.2110
  148OSM    H8S16368   5.239   2.856   3.167  1.0347 -0.3541  3.0398
  148OSM    H8T16369   5.414   2.817   3.152  0.6761  0.7134  1.4270
  148OSM    C9S16370   5.295   2.663   3.258 -0.2862 -0.3434  0.4482
  148OSM    H9S16371   5.350   2.570   3.235  0.5073  0.3544 -0.6031
  148OSM    H9T16372   5.190   2.628   3.272 -0.8086  1.4622  1.3261
  148OSM   C10S16373   5.338   2.713   3.391  0.2041  0.3564 -0.5904
  148OSM   H10S16374   5.328   2.823   3.395 -1.7955  0.3331 -2.8030
  148OSM   H10T16375   5.445   2.689   3.407  0.1024 -0.2767 -0.8207
  148OSM   C11S16376   5.263   2.640   3.509 -0.0277 -0.2215  0.5085
  148OSM   H11S16377   5.256   2.529   3.502  0.0465 -0.3066  1.5925
  148OSM   H11T16378   5.160   2.679   3.524 -1.0554 -2.7970  0.6649
  148OSM   C12S16379   5.336   2.674   3.640  0.3964 -0.2896  0.3998
  148OSM   H12S16380   5.349   2.784   3.645 -0.9182  0.0528 -2.1353
  148OSM   H12T16381   5.429   2.612   3.643  1.4116  1.1776  0.1159
  148OSM   C13S16382   5.252   2.632   3.762  0.3278 -0.1038 -0.1568
  148OSM   H13S16383   5.229   2.523   3.761 -0.1676 -0.0269 -1.8777
  148OSM   H13T16384   5.163   2.695   3.742  0.5410  0.7531  1.4845
  148OSM   C14S16385   5.314   2.671   3.898  0.2117  0.1286  0.1616
  148OSM   H14S16386   5.322   2.782   3.908 -1.0004  0.4883 -2.1547
  148OSM   H14T16387   5.416   2.627   3.903  0.9533  1.8607  1.8713
  148OSM   C15S16388   5.225   2.625   4.018 -0.3508  0.1196  0.0937
  148OSM   H15S16389   5.213   2.516   4.031 -1.9033  0.5275  2.7891
  148OSM   H15T16390   5.118   2.651   4.006 -0.1400  1.0563  0.1350
  148OSM   C16S16391   5.289   2.668   4.150 -0.2357 -0.8630  0.4575
  148OSM   H16S16392   5.295   2.779   4.146 -0.6123 -0.7400  2.2846
  148OSM   H16T16393   5.394   2.633   4.159  0.2429  1.0181  3.4077
  148OSM   C17S16394   5.229   2.608   4.275  0.2468 -1.1722  0.7095
  148OSM   H17S16395   5.207   2.502   4.254 -2.6634 -0.7235  1.0343
  148OSM   H17T16396   5.130   2.655   4.297  1.0582  0.8035  0.3462
  148OSM   C18S16397   5.318   2.635   4.392 -0.5679 -0.1759  0.0396
  148OSM   H18S16398   5.337   2.741   4.417 -1.6180 -0.2274  1.1746
  148OSM   H18T16399   5.411   2.574   4.383 -0.6958 -0.0612 -3.0368
  148OSM   H18U16400   5.269   2.585   4.479 -2.7047  1.8012  0.0721
  148OSM    C1F16401   5.837   2.950   3.138 -0.0663 -0.1512 -0.0403
  148OSM     OF16402   5.851   3.071   3.133  0.1189  0.2858  0.1450
  148OSM    C2F16403   5.850   2.876   3.269 -0.3521 -0.4837  0.2554
  148OSM    H2F16404   5.953   2.901   3.300 -1.3723  2.8518  1.3506
  148OSM    H2G16405   5.848   2.765   3.256  0.4148 -0.4077 -0.6116
  148OSM    C3F16406   5.755   2.923   3.381 -0.2230  0.1885 -0.3801
  148OSM    H3F16407   5.648   2.913   3.351 -0.5721  0.3155  0.7784
  148OSM    H3G16408   5.757   3.033   3.390 -1.8026  0.3612 -1.6633
  148OSM    C4F16409   5.775   2.870   3.523 -0.1458 -0.6226  0.1247
  148OSM    H4F16410   5.884   2.884   3.540 -0.2980 -1.5605  2.0861
  148OSM    H4G16411   5.754   2.761   3.522 -2.3210 -0.2643  1.3285
  148OSM    C5F16412   5.696   2.929   3.635 -0.3661 -0.3133 -0.6570
  148OSM    H5F16413   5.586   2.920   3.621 -0.3971  0.3956 -0.8943
  148OSM    H5G16414   5.711   3.039   3.637 -1.3139 -0.1548 -1.4673
  148OSM    C6F16415   5.744   2.862   3.769  0.2264  0.0028  0.8893
  148OSM    H6F16416   5.850   2.882   3.796  0.2283 -1.2258  1.8633
  148OSM    H6G16417   5.735   2.751   3.772 -0.1523 -0.0419 -0.8144
  148OSM    C7F16418   5.662   2.911   3.893 -0.5733 -0.7740 -0.2833
  148OSM    H7F16419   5.554   2.917   3.871 -0.7714 -0.3253  0.7737
  148OSM    H7G16420   5.706   3.013   3.903  0.7193 -1.3825  0.5257
  148OSM    C8F16421   5.689   2.835   4.029 -0.3954 -0.2813 -0.1223
  148OSM    H8F16422   5.796   2.841   4.061  0.7212 -1.0364 -3.3807
  148OSM    H8G16423   5.661   2.728   4.024 -1.5946 -0.1870  2.5981
  148OSM    C9F16424   5.600   2.903   4.140 -0.2710  0.4236  0.1876
  148OSM    H9F16425   5.498   2.861   4.142 -0.8698  1.6034 -1.8655
  148OSM   C10F16426   5.643   2.978   4.243  0.3081 -0.2920  0.1442
  148OSM   H10F16427   5.572   2.994   4.326  0.6602 -1.9542  0.7998
  148OSM   C11F16428   5.783   3.041   4.249  0.1752 -0.3288  0.3048
  148OSM   H11F16429   5.774   3.140   4.298 -0.0379  0.5203 -1.3895
  148OSM   H11G16430   5.821   3.055   4.146  0.3890 -0.5991  0.3456
  148OSM   C12F16431   5.889   2.957   4.323 -0.0220 -0.3627  0.8646
  148OSM   H12F16432   5.989   3.005   4.330 -0.4629  0.4382  2.0695
  148OSM   H12G16433   5.892   2.862   4.266 -1.3240  0.2071 -0.2037
  148OSM   C13F16434   5.858   2.927   4.472  0.7649  0.7707  0.4195
  148OSM   H13F16435   5.748   2.914   4.473  0.9327 -2.2582 -2.4698
  148OSM   H13G16436   5.896   3.012   4.533  0.7177  1.5376 -0.5952
  148OSM   C14F16437   5.912   2.794   4.525 -0.1568 -0.1655 -0.4383
  148OSM   H14F16438   6.017   2.788   4.488  0.9593  1.4837  2.1938
  148OSM   H14G16439   5.856   2.704   4.489  0.4259 -0.9853  0.6537
  148OSM   C15F16440   5.914   2.796   4.679 -0.8899 -0.4835  0.0998
  148OSM   H15F16441   5.815   2.829   4.717  0.3509  0.2107  3.0070
  148OSM   H15G16442   5.981   2.879   4.712  0.5329 -1.4106 -0.3385
  148OSM   C16F16443   5.950   2.664   4.750  0.1987  0.2316  0.0725
  148OSM   H16F16444   6.050   2.624   4.720 -0.3195 -1.1964  0.1998
  148OSM   H16G16445   5.870   2.594   4.720  0.0769  0.1415  0.5979
  148OSM   C17F16446   5.956   2.673   4.901  0.3394 -0.3036  0.4316
  148OSM   H17F16447   5.856   2.703   4.937  0.1007 -0.5692  0.0011
  148OSM   H17G16448   6.029   2.753   4.926 -0.3959  0.8951 -1.1340
  148OSM   C18F16449   5.990   2.545   4.972 -0.2997 -0.4118  0.2999
  148OSM   H18F16450   6.099   2.528   4.965  0.0981  1.7418  0.4020
  148OSM   H18G16451   5.942   2.455   4.928 -1.2263  0.6466 -0.9343
  148OSM   H18H16452   5.973   2.560   5.081  0.6196 -0.2275  0.4314
  149OSM      N16453   0.921   1.615   2.749 -0.0302  0.1598  0.4450
  149OSM    C1516454   0.821   1.690   2.823 -0.5479 -0.1301 -0.0370
  149OSM   H15A16455   0.758   1.628   2.885 -0.6461 -0.4351 -0.4455
  149OSM   H15B16456   0.753   1.738   2.753  1.5385  2.5565 -0.3988
  149OSM   H15C16457   0.875   1.769   2.873 -0.0238 -0.3144 -0.3153
  149OSM    C1416458   1.003   1.714   2.666  1.0327  1.0845  0.3095
  149OSM   H14A16459   1.063   1.779   2.728  3.4209 -1.3864  0.8211
  149OSM   H14B16460   0.938   1.763   2.595  2.3695  1.6384 -0.5714
  149OSM   H14C16461   1.085   1.660   2.620  1.4314  1.4498  0.5874
  149OSM    C1316462   1.012   1.549   2.852  0.7457 -0.6210 -0.2149
  149OSM   H13A16463   1.084   1.487   2.800  1.4853  0.3050 -0.3103
  149OSM   H13B16464   0.958   1.471   2.905  1.5029 -0.8285  0.2693
  149OSM   H13C16465   1.051   1.625   2.918 -1.8161  0.8180 -0.2272
  149OSM    C1216466   0.846   1.525   2.658  0.7230 -0.8359  1.0381
  149OSM   H12A16467   0.913   1.474   2.591 -0.0290  1.6289 -1.7753
  149OSM   H12B16468   0.790   1.587   2.590  1.5698 -2.2981 -1.0923
  149OSM    C1116469   0.748   1.421   2.713 -0.4819  0.1778 -0.2085
  149OSM   H11A16470   0.811   1.370   2.789  2.1984  1.3545 -1.4918
  149OSM   H11B16471   0.720   1.332   2.653  1.9712  0.5811 -2.1453
  149OSM      P16472   0.521   1.525   2.676 -0.4840 -0.0612  0.2336
  149OSM    O1316473   0.578   1.539   2.537 -0.7707 -0.4355 -0.1933
  149OSM    O1416474   0.396   1.445   2.693 -0.0184 -0.5891  0.4118
  149OSM    O1116475   0.502   1.673   2.737  0.1466  0.6254 -0.0787
  149OSM    O1216476   0.634   1.473   2.777 -0.4733  0.2839  0.4322
  149OSM    C1S16477   0.482   1.683   2.883 -0.2668 -0.1450  0.1169
  149OSM    H1S16478   0.578   1.664   2.936  0.5494  0.3564 -1.1334
  149OSM    H1T16479   0.401   1.614   2.916  0.3541 -1.4231 -0.9460
  149OSM     NF16480   0.431   1.843   3.076  0.2792  0.2688  0.4324
  149OSM    HNF16481   0.341   1.836   3.119 -0.9611 -0.9926 -2.1528
  149OSM    C2S16482   0.435   1.824   2.929 -0.4687 -0.6708  0.7258
  149OSM    H2S16483   0.515   1.895   2.900 -1.0482 -0.1630  0.3451
  149OSM    C3S16484   0.296   1.854   2.846 -0.3916 -1.0525 -0.8413
  149OSM    H3S16485   0.220   1.777   2.871 -1.4246  0.5736  1.2581
  149OSM     O316486   0.306   1.852   2.703 -0.3528 -0.1343 -0.2010
  149OSM    HO316487   0.398   1.829   2.687  0.4628  0.9511  2.3979
  149OSM    C4S16488   0.223   1.974   2.893 -1.1402 -0.4991 -0.0007
  149OSM    H4S16489   0.132   1.955   2.953  0.7348 -1.1886  2.8031
  149OSM    C5S16490   0.265   2.099   2.872  0.1052 -0.4727 -0.1787
  149OSM    H5S16491   0.360   2.128   2.825  0.7829 -0.2316  1.3127
  149OSM    C6S16492   0.196   2.225   2.927 -0.6553 -0.4537  0.0259
  149OSM    H6S16493   0.172   2.286   2.837 -1.5732 -0.2962  0.3741
  149OSM    H6T16494   0.271   2.284   2.984  2.1468  0.0737 -3.7514
  149OSM    C7S16495   0.065   2.200   3.012 -0.0304  0.1708  0.5099
  149OSM    H7S16496  -0.003   2.129   2.961 -0.4985  0.8923  0.1182
  149OSM    H7T16497   0.010   2.296   3.020 -0.1882  0.2891 -1.4473
  149OSM    C8S16498   0.069   2.145   3.150 -0.6858  0.1896 -0.1563
  149OSM    H8S16499   0.106   2.231   3.210 -0.7887  1.4488 -1.8350
  149OSM    H8T16500   0.136   2.057   3.159 -2.0639 -1.0227 -1.3751
  149OSM    C9S16501  -0.076   2.108   3.206  0.1813  0.3856 -0.6472
  149OSM    H9S16502  -0.107   2.017   3.152 -3.2761  0.7447  0.5019
  149OSM    H9T16503  -0.150   2.190   3.196 -0.3220  0.0227  0.0503
  149OSM   C10S16504  -0.074   2.068   3.354  0.1271 -0.3392 -0.0079
  149OSM   H10S16505  -0.064   2.161   3.414 -0.7574 -1.3041  1.7139
  149OSM   H10T16506   0.018   2.017   3.390 -1.2315 -2.2562  0.9133
  149OSM   C11S16507  -0.200   1.990   3.391  0.1743  0.1063  0.6654
  149OSM   H11S16508  -0.200   1.898   3.328 -2.8636 -0.0176  0.7001
  149OSM   H11T16509  -0.283   2.056   3.355  1.0042  1.8021  1.7312
  149OSM   C12S16510  -0.209   1.981   3.544 -0.3667  0.2051 -0.5948
  149OSM   H12S16511  -0.210   2.085   3.581 -1.3699 -0.4063  1.2063
  149OSM   H12T16512  -0.115   1.937   3.584 -0.1317  2.6212  1.8268
  149OSM   C13S16513  -0.330   1.904   3.589  1.0945  0.8380  0.0961
  149OSM   H13S16514  -0.307   1.799   3.561  0.8536  0.1552  2.2833
  149OSM   H13T16515  -0.425   1.948   3.550  0.1896  0.1385  1.4325
  149OSM   C14S16516  -0.327   1.899   3.738  0.2449  0.3743  0.0567
  149OSM   H14S16517  -0.356   1.997   3.781 -1.0637 -0.1926  0.5122
  149OSM   H14T16518  -0.223   1.881   3.772  0.9623 -0.8408 -2.5167
  149OSM   C15S16519  -0.414   1.793   3.804  0.4376 -0.4260 -0.3032
  149OSM   H15S16520  -0.373   1.693   3.777  1.5650  0.0411 -0.3863
  149OSM   H15T16521  -0.514   1.806   3.758  0.4337  3.4091  0.4477
  149OSM   C16S16522  -0.436   1.811   3.957 -0.4524  0.0276  0.6293
  149OSM   H16S16523  -0.480   1.912   3.965 -0.0211  0.1820  1.1207
  149OSM   H16T16524  -0.337   1.811   4.008 -0.5835 -1.1765  0.9169
  149OSM   C17S16525  -0.518   1.696   4.013  0.3668 -0.4187 -0.6377
  149OSM   H17S16526  -0.501   1.595   3.971 -2.4033 -1.0321 -0.4823
  149OSM   H17T16527  -0.620   1.718   3.974 -0.3961  1.2171  1.9943
  149OSM   C18S16528  -0.549   1.701   4.163 -0.4847 -0.0795 -0.6576
  149OSM   H18S16529  -0.638   1.643   4.194  0.5423 -0.4404  1.8279
  149OSM   H18T16530  -0.561   1.810   4.176 -1.8838 -0.2046 -0.7212
  149OSM   H18U16531  -0.475   1.659   4.234 -3.4243 -2.3577  1.3215
  149OSM    C1F16532   0.536   1.861   3.149  0.0949 -0.5228 -0.8609
  149OSM     OF16533   0.646   1.871   3.092 -0.0453  0.0217  0.2464
  149OSM    C2F16534   0.508   1.869   3.302  0.3548  0.1801 -0.3011
  149OSM    H2F16535   0.488   1.764   3.333 -2.1337  1.1585  1.6990
  149OSM    H2G16536   0.423   1.939   3.316 -0.9217 -1.7001  2.0414
  149OSM    C3F16537   0.625   1.945   3.381 -0.1815  0.5205 -0.0981
  149OSM    H3F16538   0.649   2.036   3.322 -2.6765  0.1441 -1.8614
  149OSM    H3G16539   0.713   1.877   3.384 -2.3250 -2.4625  3.6576
  149OSM    C4F16540   0.594   1.980   3.522 -0.4225  0.0093 -0.5177
  149OSM    H4F16541   0.515   2.058   3.521 -3.1991 -2.5725  0.5287
  149OSM    H4G16542   0.691   2.007   3.569 -0.2263  0.7396 -1.3148
  149OSM    C5F16543   0.531   1.877   3.613 -0.0556 -0.1547 -0.4224
  149OSM    H5F16544   0.563   1.770   3.611  0.7618 -0.0735  2.9376
  149OSM    H5G16545   0.425   1.873   3.580  0.3208  0.8045 -1.8488
  149OSM    C6F16546   0.537   1.917   3.761  0.3363  0.3695 -0.3540
  149OSM    H6F16547   0.459   1.996   3.766 -0.7638 -0.7468  0.7242
  149OSM    H6G16548   0.643   1.943   3.783  0.7747 -0.9532 -0.7558
  149OSM    C7F16549   0.506   1.792   3.849 -0.2776  0.1262 -0.4350
  149OSM    H7F16550   0.480   1.706   3.784 -1.4751 -0.0408  0.2486
  149OSM    H7G16551   0.417   1.809   3.914 -2.8801 -4.4655 -2.3137
  149OSM    C8F16552   0.620   1.750   3.944  0.1948  0.2472  0.5948
  149OSM    H8F16553   0.641   1.832   4.016 -1.5492 -0.2395  1.7146
  149OSM    H8G16554   0.709   1.737   3.879 -0.2815 -2.1150  0.3490
  149OSM    C9F16555   0.589   1.617   4.023  0.2658  0.7989  0.5622
  149OSM    H9F16556   0.637   1.523   3.992 -1.5040 -0.8343  2.4729
  149OSM   C10F16557   0.519   1.608   4.140 -0.2802 -0.4220  0.2954
  149OSM   H10F16558   0.501   1.511   4.188  0.4094  0.5647  2.6921
  149OSM   C11F16559   0.454   1.723   4.220 -0.5519  1.0041  0.0442
  149OSM   H11F16560   0.346   1.721   4.195 -0.3823  0.3288 -0.6632
  149OSM   H11G16561   0.489   1.825   4.192  1.7062 -0.0189 -1.1042
  149OSM   C12F16562   0.460   1.704   4.372  0.3936  0.4263 -0.5776
  149OSM   H12F16563   0.564   1.679   4.400  0.1861 -0.5064 -0.5975
  149OSM   H12G16564   0.384   1.627   4.397 -1.5757  3.0577  2.3218
  149OSM   C13F16565   0.394   1.828   4.447  0.1916 -0.0388  0.6853
  149OSM   H13F16566   0.291   1.830   4.407  1.3826  0.4551 -2.7098
  149OSM   H13G16567   0.446   1.921   4.414  1.3636 -0.4808  1.2085
  149OSM   C14F16568   0.402   1.811   4.599 -0.2895  0.0690 -0.0916
  149OSM   H14F16569   0.507   1.816   4.635 -0.5219  0.3015  0.5779
  149OSM   H14G16570   0.358   1.711   4.618  0.5004 -0.4047 -0.7012
  149OSM   C15F16571   0.319   1.906   4.687  0.3072 -0.1118  0.2820
  149OSM   H15F16572   0.220   1.856   4.695  0.8450 -1.1407  0.6327
  149OSM   H15G16573   0.306   1.994   4.621  1.8624 -1.4963 -2.0379
  149OSM   C16F16574   0.366   1.927   4.830 -0.2698  0.4556 -0.2243
  149OSM   H16F16575   0.472   1.958   4.831 -0.5984  1.5841  0.4793
  149OSM   H16G16576   0.368   1.825   4.875  1.2077  0.9271  0.8557
  149OSM   C17F16577   0.277   2.019   4.915 -0.4057 -0.1685  0.1243
  149OSM   H17F16578   0.176   1.989   4.879  0.0995 -1.3954 -0.3363
  149OSM   H17G16579   0.287   2.126   4.885  1.5727 -0.3302  0.1030
  149OSM   C18F16580   0.289   1.987   5.070 -0.1203  0.2102  0.3901
  149OSM   H18F16581   0.282   1.879   5.096 -0.4023 -0.1024 -0.9163
  149OSM   H18G16582   0.215   2.047   5.127  0.7332  1.0535  0.6365
  149OSM   H18H16583   0.393   2.016   5.098  1.1072 -1.9517 -1.5364
  150OSM      N16584   4.306   3.691   2.404 -0.5637  0.1534  0.3693
  150OSM    C1516585   4.194   3.631   2.327 -0.8612 -0.3994 -0.1507
  150OSM   H15A16586   4.147   3.701   2.259 -1.1303  0.2303  0.6679
  150OSM   H15B16587   4.119   3.608   2.401 -0.5635  0.7061  0.5199
  150OSM   H15C16588   4.210   3.535   2.280 -0.2803 -0.0753 -0.6181
  150OSM    C1416589   4.424   3.694   2.304 -0.0279 -0.5118 -0.1028
  150OSM   H14A16590   4.503   3.755   2.346  1.2032 -0.7304 -1.9795
  150OSM   H14B16591   4.396   3.717   2.203  1.9920 -0.4638 -0.6845
  150OSM   H14C16592   4.465   3.594   2.307  1.3271 -0.0202 -1.2427
  150OSM    C1316593   4.255   3.821   2.450 -0.6488  0.2952 -0.7180
  150OSM   H13A16594   4.235   3.888   2.367 -1.7853 -1.1484 -1.6643
  150OSM   H13B16595   4.328   3.873   2.510 -1.0040  1.7148 -1.4640
  150OSM   H13C16596   4.163   3.807   2.505 -0.0955 -1.0363 -0.0905
  150OSM    C1216597   4.336   3.594   2.529 -0.1904  0.4069 -0.3112
  150OSM   H12A16598   4.418   3.639   2.583 -0.3252  0.2235  0.0485
  150OSM   H12B16599   4.382   3.506   2.488  0.9560  0.7642  0.1734
  150OSM    C1116600   4.227   3.578   2.630  0.7866  0.2724  0.1092
  150OSM   H11A16601   4.176   3.669   2.667  0.2761 -0.2780  0.7950
  150OSM   H11B16602   4.272   3.532   2.720  1.1681 -2.0506 -1.1871
  150OSM      P16603   3.976   3.510   2.586 -0.5860 -0.3410 -0.0794
  150OSM    O1316604   3.948   3.652   2.553 -0.7285 -0.3634  0.7543
  150OSM    O1416605   3.908   3.395   2.517  0.0386 -0.3994  0.1641
  150OSM    O1116606   3.954   3.501   2.741  0.0071  0.0663 -0.5649
  150OSM    O1216607   4.134   3.485   2.577  0.7346  0.3040  0.2989
  150OSM    C1S16608   3.992   3.384   2.815  0.0569 -0.6754 -1.1367
  150OSM    H1S16609   4.053   3.311   2.756  1.0795 -0.5430 -0.2902
  150OSM    H1T16610   3.894   3.341   2.842 -0.3655  1.0428  0.2368
  150OSM     NF16611   4.119   3.310   3.012  0.1655  1.2075 -0.7560
  150OSM    HNF16612   4.074   3.286   3.098  0.9534  1.2185 -0.3313
  150OSM    C2S16613   4.064   3.423   2.949  0.2546  0.5252  0.0479
  150OSM    H2S16614   4.151   3.488   2.927  1.9081 -1.6136 -0.1243
  150OSM    C3S16615   3.970   3.506   3.043 -0.0583  0.2841  0.1698
  150OSM    H3S16616   3.871   3.459   3.056  0.8667 -1.6829  0.4447
  150OSM     O316617   3.932   3.631   2.975  0.0927 -0.7453 -0.3239
  150OSM    HO316618   3.969   3.619   2.887  0.3514 -3.0799  0.0514
  150OSM    C4S16619   4.032   3.532   3.177  0.6312  0.2233  0.3141
  150OSM    H4S16620   4.116   3.603   3.173 -0.3738  1.5993  2.0052
  150OSM    C5S16621   3.988   3.485   3.299  0.3297 -0.2274  0.9611
  150OSM    H5S16622   3.899   3.421   3.296 -0.4872  0.9115 -0.8483
  150OSM    C6S16623   4.044   3.514   3.433 -0.2690  0.3759 -0.1981
  150OSM    H6S16624   4.140   3.569   3.431 -0.9444  1.7227  1.6258
  150OSM    H6T16625   4.066   3.417   3.482  0.2325  0.1461 -0.8621
  150OSM    C7S16626   3.948   3.605   3.516 -0.2013  0.3089 -0.2003
  150OSM    H7S16627   3.861   3.547   3.554 -0.5746  1.7291  1.2672
  150OSM    H7T16628   3.905   3.694   3.464 -0.9892  0.5067  0.7567
  150OSM    C8S16629   4.011   3.654   3.646 -0.4112 -0.9255 -0.5141
  150OSM    H8S16630   3.944   3.724   3.701  1.8610  0.8585  0.1303
  150OSM    H8T16631   4.105   3.711   3.635 -2.0310  2.2825  0.9606
  150OSM    C9S16632   4.032   3.543   3.747 -0.8880  0.0265 -0.4014
  150OSM    H9S16633   4.132   3.496   3.732 -1.2276 -1.4189  1.4665
  150OSM    H9T16634   3.959   3.463   3.723 -2.0244  0.5309  1.2579
  150OSM   C10S16635   4.022   3.589   3.892  0.8366 -0.2938  0.0990
  150OSM   H10S16636   4.090   3.672   3.920  1.1233 -0.8906  1.2109
  150OSM   H10T16637   4.056   3.496   3.941  1.7597  0.5367  1.0655
  150OSM   C11S16638   3.875   3.589   3.941  1.0860  0.6363 -0.5685
  150OSM   H11S16639   3.812   3.519   3.882  1.4972  1.5942 -2.2370
  150OSM   H11T16640   3.820   3.684   3.918  0.8811  1.0980  1.6251
  150OSM   C12S16641   3.861   3.577   4.091  0.1598  0.0348 -1.2175
  150OSM   H12S16642   3.911   3.666   4.136  2.3509 -1.9706  0.5608
  150OSM   H12T16643   3.916   3.497   4.145  1.0800  1.8797  0.7440
  150OSM   C13S16644   3.715   3.604   4.136  0.3610  0.3544 -0.0187
  150OSM   H13S16645   3.658   3.661   4.059 -1.2238 -0.7932  0.2575
  150OSM   H13T16646   3.695   3.652   4.234  0.5989  2.6386 -1.0279
  150OSM   C14S16647   3.639   3.469   4.125 -0.8858  0.6680  0.0496
  150OSM   H14S16648   3.658   3.439   4.020  0.6267  2.4683 -0.2534
  150OSM   H14T16649   3.529   3.486   4.133 -1.0168  0.7849 -1.5931
  150OSM   C15S16650   3.686   3.359   4.226  0.6070 -0.3263  0.0896
  150OSM   H15S16651   3.751   3.405   4.303  1.7458 -2.1054  0.2440
  150OSM   H15T16652   3.752   3.285   4.177  0.5393 -0.3431  0.0241
  150OSM   C16S16653   3.561   3.293   4.292 -0.7094 -0.8282 -0.3804
  150OSM   H16S16654   3.509   3.251   4.203  1.3516 -0.6996 -1.7126
  150OSM   H16T16655   3.499   3.372   4.338 -0.8284 -0.3586 -1.3143
  150OSM   C17S16656   3.600   3.183   4.390  0.3447  0.1966  0.6190
  150OSM   H17S16657   3.581   3.203   4.498  0.1223 -0.5787  0.7263
  150OSM   H17T16658   3.710   3.178   4.405  0.6290  1.2721 -0.8905
  150OSM   C18S16659   3.555   3.043   4.345 -1.4681 -0.5507  0.4077
  150OSM   H18S16660   3.445   3.055   4.352 -1.4627  1.6819 -1.8213
  150OSM   H18T16661   3.583   2.970   4.423  0.4950  0.4472  0.6895
  150OSM   H18U16662   3.585   3.007   4.244 -0.8683  0.2668  0.2828
  150OSM    C1F16663   4.212   3.229   2.957  0.1993  0.2955 -0.2497
  150OSM     OF16664   4.293   3.272   2.875 -0.2741  0.6038 -0.3165
  150OSM    C2F16665   4.213   3.086   3.001  0.3693 -0.3086  0.4000
  150OSM    H2F16666   4.302   3.039   2.954  1.8884  1.4654  1.3711
  150OSM    H2G16667   4.125   3.032   2.961  0.8799 -1.3572  0.6451
  150OSM    C3F16668   4.216   3.080   3.151  0.0393  0.1264  1.2490
  150OSM    H3F16669   4.225   2.972   3.176 -0.8243 -0.7564 -1.8364
  150OSM    H3G16670   4.129   3.123   3.205  0.1858 -1.1413  2.5384
  150OSM    C4F16671   4.349   3.148   3.213  0.7622 -0.0070  0.3684
  150OSM    H4F16672   4.334   3.257   3.194  0.6010 -0.2926 -1.2976
  150OSM    H4G16673   4.436   3.123   3.150  0.3843 -0.4052 -0.0018
  150OSM    C5F16674   4.380   3.111   3.359  0.9948  0.1894  0.1220
  150OSM    H5F16675   4.466   3.175   3.386  0.1861  1.3694  0.0064
  150OSM    H5G16676   4.416   3.006   3.363  0.1745 -0.0593  1.8427
  150OSM    C6F16677   4.262   3.147   3.450  0.2142  0.2039 -0.4880
  150OSM    H6F16678   4.172   3.092   3.417  1.5031 -3.1161  1.1602
  150OSM    H6G16679   4.223   3.251   3.453  0.5705  0.3227  0.1625
  150OSM    C7F16680   4.293   3.115   3.592  0.0235  0.1575  0.2499
  150OSM    H7F16681   4.384   3.175   3.617  0.1287  0.8281 -1.6095
  150OSM    H7G16682   4.314   3.007   3.605 -0.0564  0.1427  0.2545
  150OSM    C8F16683   4.170   3.148   3.678 -0.2989  0.6286 -0.0328
  150OSM    H8F16684   4.082   3.085   3.651 -0.3152 -0.1952  1.8112
  150OSM    H8G16685   4.145   3.251   3.644  2.0411  0.4785 -2.5482
  150OSM    C9F16686   4.211   3.133   3.818  0.1815  0.7748 -0.3003
  150OSM    H9F16687   4.301   3.186   3.852  0.4658  0.1582 -0.0768
  150OSM   C10F16688   4.134   3.070   3.915 -0.6939 -0.2529  0.6663
  150OSM   H10F16689   4.184   3.068   4.013  1.0449  3.5823  0.0120
  150OSM   C11F16690   4.009   2.988   3.901 -0.2780  0.4563 -0.4845
  150OSM   H11F16691   4.032   2.881   3.916 -1.8948  0.4239  2.6402
  150OSM   H11G16692   3.965   3.005   3.800  0.6845 -2.8228 -1.5586
  150OSM   C12F16693   3.901   3.032   4.001  0.2014  0.2005 -0.1513
  150OSM   H12F16694   3.857   3.125   3.958 -0.8484 -0.4345 -0.5106
  150OSM   H12G16695   3.941   3.051   4.102  2.1474 -0.3170 -0.7891
  150OSM   C13F16696   3.783   2.927   4.001  0.2779 -1.2929 -0.1631
  150OSM   H13F16697   3.735   2.911   3.901  1.2286 -1.1565 -0.6522
  150OSM   H13G16698   3.715   2.978   4.072 -1.4247 -1.1010 -1.8348
  150OSM   C14F16699   3.807   2.793   4.068 -0.0395  0.3499  0.1393
  150OSM   H14F16700   3.885   2.738   4.011  0.0023  0.7011 -0.1469
  150OSM   H14G16701   3.708   2.745   4.079 -1.1343  1.8976 -2.1451
  150OSM   C15F16702   3.872   2.803   4.209 -0.0884  0.1580 -0.1061
  150OSM   H15F16703   3.845   2.903   4.248  1.4803  0.8748 -0.7930
  150OSM   H15G16704   3.981   2.813   4.191 -0.1644  0.2476 -0.5459
  150OSM   C16F16705   3.820   2.700   4.311  0.0514 -0.4000  0.1446
  150OSM   H16F16706   3.855   2.604   4.268  0.5622  0.2790 -1.0026
  150OSM   H16G16707   3.709   2.711   4.308  0.2083  1.2328 -0.4000
  150OSM   C17F16708   3.890   2.720   4.441 -0.5592  0.1343 -0.3885
  150OSM   H17F16709   3.904   2.824   4.477 -0.4041 -0.4241  1.2546
  150OSM   H17G16710   3.992   2.676   4.435 -0.9586 -0.6321 -1.8302
  150OSM   C18F16711   3.826   2.645   4.561  0.1866  0.1928  0.5579
  150OSM   H18F16712   3.888   2.612   4.646 -0.1377 -1.0970  0.3101
  150OSM   H18G16713   3.772   2.559   4.516 -1.0943  1.2047  0.0969
  150OSM   H18H16714   3.756   2.720   4.604 -1.6445 -0.1399 -1.6083
  151OSM      N16715   4.753   3.303   2.105 -0.0197 -0.1399 -0.0780
  151OSM    C1516716   4.647   3.272   2.008  0.4073 -0.6245  0.1611
  151OSM   H15A16717   4.678   3.309   1.912  1.6261 -0.8259  0.4661
  151OSM   H15B16718   4.549   3.308   2.035  0.0264 -0.0107 -1.8762
  151OSM   H15C16719   4.648   3.164   1.997  1.1884 -0.5556 -0.5087
  151OSM    C1416720   4.878   3.243   2.056  0.1002 -0.5399  0.8550
  151OSM   H14A16721   4.879   3.135   2.049  0.8237 -0.5050  0.3176
  151OSM   H14B16722   4.959   3.271   2.122 -1.3402 -0.8323  2.8332
  151OSM   H14C16723   4.894   3.283   1.957 -1.7645  1.8427  1.4376
  151OSM    C1316724   4.770   3.445   2.106 -0.3417  0.3575  0.1277
  151OSM   H13A16725   4.817   3.477   2.198  1.8338 -0.9264 -0.4725
  151OSM   H13B16726   4.679   3.502   2.120  0.4819  1.1406  3.0332
  151OSM   H13C16727   4.814   3.484   2.015  1.3718  2.3521  1.6993
  151OSM    C1216728   4.717   3.252   2.243  0.1048  0.2094 -0.4228
  151OSM   H12A16729   4.807   3.249   2.302 -0.4204 -0.7321  0.3591
  151OSM   H12B16730   4.689   3.147   2.241 -1.2100  0.2738  4.2485
  151OSM    C1116731   4.599   3.319   2.313  0.6924  0.1642 -0.4825
  151OSM   H11A16732   4.570   3.257   2.401  1.3024  1.4598  0.6615
  151OSM   H11B16733   4.511   3.307   2.245 -2.4970  0.0014  3.2955
  151OSM      P16734   4.709   3.480   2.485  0.3974 -0.1322 -0.3213
  151OSM    O1316735   4.819   3.380   2.500 -0.2640 -0.0302 -0.5010
  151OSM    O1416736   4.746   3.621   2.485 -0.0584  0.3600 -0.3155
  151OSM    O1116737   4.591   3.458   2.588  0.0317 -0.5964 -0.4693
  151OSM    O1216738   4.622   3.449   2.348 -0.3929 -0.1353 -0.3146
  151OSM    C1S16739   4.579   3.345   2.671 -0.0226 -0.1197 -0.2534
  151OSM    H1S16740   4.635   3.255   2.637  0.1449  0.0637 -0.4649
  151OSM    H1T16741   4.474   3.309   2.667  0.5111 -1.6107 -2.5891
  151OSM     NF16742   4.598   3.262   2.902 -0.0971  0.4254 -0.1002
  151OSM    HNF16743   4.510   3.250   2.947 -0.0169 -0.7872 -0.2308
  151OSM    C2S16744   4.618   3.385   2.824  0.1934 -0.7351 -0.2554
  151OSM    H2S16745   4.728   3.402   2.817 -0.0903  1.2863 -0.5307
  151OSM    C3S16746   4.541   3.512   2.864  0.2967 -0.6722 -0.2304
  151OSM    H3S16747   4.438   3.497   2.824 -1.3227  0.4731  3.1162
  151OSM     O316748   4.591   3.631   2.807  0.6543  0.2285  0.1799
  151OSM    HO316749   4.634   3.601   2.727 -0.4480  0.5927 -0.5836
  151OSM    C4S16750   4.531   3.528   3.014 -0.3478 -0.0849  0.2121
  151OSM    H4S16751   4.629   3.524   3.064  0.3256  0.7496 -1.0050
  151OSM    C5S16752   4.418   3.553   3.084 -0.2298  0.4254  0.2934
  151OSM    H5S16753   4.327   3.570   3.025  0.4606  2.7863 -0.1594
  151OSM    C6S16754   4.417   3.578   3.236 -0.0309 -0.2501  0.5400
  151OSM    H6S16755   4.347   3.513   3.292  0.0277 -0.4367  0.3987
  151OSM    H6T16756   4.376   3.680   3.253 -0.7273 -0.5002  0.3811
  151OSM    C7S16757   4.549   3.574   3.310  0.2549 -0.7622 -1.1310
  151OSM    H7S16758   4.609   3.652   3.258 -0.0183 -0.4610 -0.9994
  151OSM    H7T16759   4.588   3.471   3.293  0.0234 -0.8210 -1.3282
  151OSM    C8S16760   4.534   3.625   3.453 -0.0441 -0.0591 -0.6495
  151OSM    H8S16761   4.460   3.708   3.456 -0.8013 -0.6542 -2.3313
  151OSM    H8T16762   4.633   3.665   3.487 -1.0003  2.3995 -0.5791
  151OSM    C9S16763   4.484   3.524   3.556 -0.5361 -0.1928  0.2700
  151OSM    H9S16764   4.507   3.419   3.528 -1.0325 -0.3240  0.3341
  151OSM    H9T16765   4.373   3.516   3.561 -0.5158  0.1862  1.7862
  151OSM   C10S16766   4.548   3.561   3.697  0.7773  0.6467 -0.1864
  151OSM   H10S16767   4.529   3.668   3.718 -2.5146 -0.0949  1.2570
  151OSM   H10T16768   4.657   3.542   3.695  0.4456 -1.4859 -0.8727
  151OSM   C11S16769   4.472   3.498   3.818  0.3218  0.3760 -0.2427
  151OSM   H11S16770   4.489   3.388   3.810 -0.2061  0.3419 -1.0062
  151OSM   H11T16771   4.365   3.527   3.822  0.1127 -0.4519  0.7425
  151OSM   C12S16772   4.522   3.544   3.951  0.9401  0.3091 -0.8191
  151OSM   H12S16773   4.553   3.650   3.936  0.1411  0.7107  0.2941
  151OSM   H12T16774   4.603   3.476   3.985  0.5854 -1.6830 -3.5552
  151OSM   C13S16775   4.414   3.553   4.058  0.2488  0.4402 -0.5030
  151OSM   H13S16776   4.328   3.622   4.049  0.9308  1.8092  2.3024
  151OSM   H13T16777   4.472   3.590   4.145 -1.5557 -0.3491  1.1230
  151OSM   C14S16778   4.373   3.409   4.094  0.0436  0.3546 -0.4791
  151OSM   H14S16779   4.461   3.349   4.124 -0.6388 -0.1004  0.6563
  151OSM   H14T16780   4.319   3.365   4.008 -1.2679 -0.3881  0.6955
  151OSM   C15S16781   4.280   3.403   4.208  0.6450  0.3442 -0.1852
  151OSM   H15S16782   4.204   3.482   4.191  0.9281  0.4907 -0.7784
  151OSM   H15T16783   4.335   3.423   4.302 -2.1071  2.3857  1.1418
  151OSM   C16S16784   4.214   3.269   4.213  0.0018 -0.5224  0.0436
  151OSM   H16S16785   4.288   3.193   4.180  2.2125  2.3539 -2.2209
  151OSM   H16T16786   4.133   3.277   4.137 -1.1285 -1.7126  1.0743
  151OSM   C17S16787   4.162   3.237   4.352 -0.3885 -0.3468 -0.1282
  151OSM   H17S16788   4.116   3.331   4.389 -1.2374 -0.3284 -1.1753
  151OSM   H17T16789   4.244   3.222   4.425 -1.3618  0.7539  1.2367
  151OSM   C18S16790   4.058   3.122   4.363 -0.0783 -0.3747 -0.1360
  151OSM   H18S16791   3.968   3.140   4.301 -1.8169 -0.4727  2.2462
  151OSM   H18T16792   4.009   3.112   4.462  0.2606 -3.7396 -0.1837
  151OSM   H18U16793   4.102   3.021   4.348 -0.3678 -0.5135 -0.0466
  151OSM    C1F16794   4.678   3.159   2.877 -0.1231 -0.3475 -0.2328
  151OSM     OF16795   4.795   3.175   2.851 -0.4397 -0.2820 -0.0690
  151OSM    C2F16796   4.633   3.019   2.901  0.4691  0.5791 -0.2894
  151OSM    H2F16797   4.661   2.952   2.816  1.1156 -0.5483  0.7813
  151OSM    H2G16798   4.527   3.004   2.932 -0.3833  0.9555 -2.7279
  151OSM    C3F16799   4.722   2.959   3.015 -0.2027  0.0603 -0.0289
  151OSM    H3F16800   4.706   3.017   3.108  0.8153  0.3759 -0.0434
  151OSM    H3G16801   4.830   2.962   2.989  0.3068 -3.2485  1.1339
  151OSM    C4F16802   4.683   2.820   3.053  0.7251  0.9748  0.1603
  151OSM    H4F16803   4.757   2.792   3.131  0.2578 -2.0936 -0.3766
  151OSM    H4G16804   4.684   2.748   2.968  0.5850  2.6930 -1.3608
  151OSM    C5F16805   4.545   2.792   3.124 -0.7426 -0.4478  0.1834
  151OSM    H5F16806   4.465   2.804   3.048  0.2231  1.5078 -0.5769
  151OSM    H5G16807   4.523   2.883   3.184  0.6098 -0.8337  1.3329
  151OSM    C6F16808   4.536   2.662   3.207  0.2077 -0.4543 -0.2341
  151OSM    H6F16809   4.617   2.658   3.282 -0.9460  1.0382  1.1648
  151OSM    H6G16810   4.552   2.580   3.134 -2.8784  0.5665 -2.2355
  151OSM    C7F16811   4.410   2.631   3.288  0.2796 -0.4899  0.4190
  151OSM    H7F16812   4.381   2.705   3.365  0.4811  0.2348 -0.1813
  151OSM    H7G16813   4.428   2.536   3.343  0.9533 -0.5073  0.1863
  151OSM    C8F16814   4.285   2.617   3.193  0.1541  0.3357  0.5514
  151OSM    H8F16815   4.317   2.571   3.097 -0.7953  1.3040 -0.2614
  151OSM    H8G16816   4.256   2.721   3.166 -0.3813 -0.3692 -1.9098
  151OSM    C9F16817   4.162   2.549   3.251 -0.7199 -0.3904 -0.0782
  151OSM    H9F16818   4.149   2.450   3.203  1.3866 -0.3493 -0.8562
  151OSM   C10F16819   4.075   2.603   3.344 -0.0692  0.0685  0.4739
  151OSM   H10F16820   3.997   2.543   3.393  0.1369 -2.2239 -1.7838
  151OSM   C11F16821   4.081   2.741   3.415 -0.3499 -0.4162  0.0285
  151OSM   H11F16822   3.974   2.769   3.426 -0.0268  0.4132  1.2144
  151OSM   H11G16823   4.119   2.821   3.349  0.5314  0.2097  1.2655
  151OSM   C12F16824   4.159   2.745   3.553 -0.1245  0.3245 -0.1229
  151OSM   H12F16825   4.157   2.846   3.599  2.5091  0.2600  0.3136
  151OSM   H12G16826   4.261   2.713   3.523 -1.0317 -2.0955 -0.8407
  151OSM   C13F16827   4.106   2.640   3.659 -0.2340 -0.0577  0.5582
  151OSM   H13F16828   4.079   2.545   3.609 -1.9246 -0.2533  1.7331
  151OSM   H13G16829   4.006   2.667   3.699 -0.6375  2.6173 -1.9025
  151OSM   C14F16830   4.207   2.612   3.774  0.0883 -0.3924  0.0285
  151OSM   H14F16831   4.238   2.708   3.821 -0.3776  1.0270 -2.3959
  151OSM   H14G16832   4.307   2.576   3.741  0.1754  1.8195 -2.4619
  151OSM   C15F16833   4.148   2.530   3.886  0.2705  0.7080  0.5982
  151OSM   H15F16834   4.122   2.430   3.844 -0.9935  1.7631 -1.2988
  151OSM   H15G16835   4.058   2.589   3.911 -0.3210  1.1312 -2.2205
  151OSM   C16F16836   4.241   2.508   4.016 -0.2498  0.4497 -0.2740
  151OSM   H16F16837   4.333   2.448   4.004  0.3617  1.3009  0.1146
  151OSM   H16G16838   4.169   2.458   4.085  0.8993  1.6956  1.9200
  151OSM   C17F16839   4.277   2.642   4.085 -0.0459 -0.5667  0.0434
  151OSM   H17F16840   4.213   2.721   4.042 -0.8994 -1.5099 -0.4618
  151OSM   H17G16841   4.382   2.676   4.070  0.1652  0.6200  3.4188
  151OSM   C18F16842   4.246   2.650   4.235 -0.4801  0.4229  0.2563
  151OSM   H18F16843   4.295   2.740   4.276  0.1720  0.5960 -0.8504
  151OSM   H18G16844   4.306   2.567   4.279 -0.4242  0.5669  0.4514
  151OSM   H18H16845   4.140   2.641   4.267 -0.3072  1.1062  1.0542
  152OSM      N16846   5.725   3.187   2.295  0.1800 -0.7151 -0.8276
  152OSM    C1516847   5.797   3.080   2.231 -0.4565 -0.0708  0.3591
  152OSM   H15A16848   5.726   3.000   2.217 -0.4344  0.0792 -0.7360
  152OSM   H15B16849   5.889   3.062   2.284  0.0406 -0.7734 -0.7148
  152OSM   H15C16850   5.823   3.095   2.127 -1.4007 -0.9522 -0.0284
  152OSM    C1416851   5.612   3.232   2.215 -0.4526  0.4282 -0.1202
  152OSM   H14A16852   5.526   3.166   2.212 -2.3567  2.7184  0.6507
  152OSM   H14B16853   5.640   3.268   2.117  1.0403 -0.2704  0.0255
  152OSM   H14C16854   5.564   3.320   2.257 -0.6229 -0.4894  1.7477
  152OSM    C1316855   5.663   3.130   2.423 -0.3193 -0.0045  0.4564
  152OSM   H13A16856   5.578   3.064   2.409 -0.5844  0.7070 -1.7164
  152OSM   H13B16857   5.610   3.211   2.470  0.3769 -0.4633  2.1100
  152OSM   H13C16858   5.741   3.100   2.491  2.5453  2.5279 -1.4485
  152OSM    C1216859   5.826   3.303   2.321  0.3194 -0.1155 -0.3846
  152OSM   H12A16860   5.846   3.347   2.225  0.5612 -1.7434 -1.1182
  152OSM   H12B16861   5.919   3.276   2.368  0.9645 -0.8419 -2.0080
  152OSM    C1116862   5.775   3.413   2.416 -0.1999  0.4080  0.1501
  152OSM   H11A16863   5.864   3.478   2.425  0.9763 -1.0908 -0.2206
  152OSM   H11B16864   5.761   3.362   2.514 -1.3735  2.0871  0.9035
  152OSM      P16865   5.551   3.559   2.439 -0.5117 -0.1823 -0.0361
  152OSM    O1316866   5.594   3.701   2.442  0.0934  0.6061 -1.1406
  152OSM    O1416867   5.423   3.540   2.372 -0.0586 -0.2103 -0.4347
  152OSM    O1116868   5.551   3.508   2.587 -0.7438 -0.3427  0.6209
  152OSM    O1216869   5.658   3.475   2.367  0.1637 -0.2326 -0.7450
  152OSM    C1S16870   5.642   3.547   2.688 -0.0159  0.0584  0.4089
  152OSM    H1S16871   5.637   3.658   2.697 -1.8541 -0.0053  0.4827
  152OSM    H1T16872   5.745   3.524   2.652 -0.2977  0.0849 -0.4507
  152OSM     NF16873   5.680   3.505   2.921 -0.4633 -0.0823  0.2292
  152OSM    HNF16874   5.745   3.441   2.962  1.0820  0.3901 -1.3511
  152OSM    C2S16875   5.597   3.462   2.809 -0.5074  0.8474  0.4309
  152OSM    H2S16876   5.489   3.484   2.823 -1.3672 -0.3270 -3.3137
  152OSM    C3S16877   5.611   3.311   2.786  0.1344 -0.6787 -0.2140
  152OSM    H3S16878   5.714   3.299   2.747  1.2835  0.6065  2.2259
  152OSM     O316879   5.526   3.259   2.687 -0.3949  0.1187 -0.0269
  152OSM    HO316880   5.490   3.338   2.646 -2.0054  0.5288  2.0559
  152OSM    C4S16881   5.590   3.233   2.913 -0.1885  0.1537 -0.0367
  152OSM    H4S16882   5.683   3.214   2.968 -0.3933 -1.1297 -0.1057
  152OSM    C5S16883   5.479   3.191   2.974 -0.0131  0.4795  0.4686
  152OSM    H5S16884   5.379   3.220   2.937 -0.1526 -0.6808 -0.1026
  152OSM    C6S16885   5.467   3.113   3.101 -0.4652 -0.0675  0.5148
  152OSM    H6S16886   5.563   3.057   3.114  1.1443  2.9398  3.0279
  152OSM    H6T16887   5.389   3.034   3.105  2.7334 -3.6460 -0.3844
  152OSM    C7S16888   5.438   3.206   3.219 -0.1396  0.4104  0.3158
  152OSM    H7S16889   5.330   3.229   3.225 -0.7401 -2.2704  2.2797
  152OSM    H7T16890   5.489   3.304   3.214 -0.6964  0.6460 -0.8376
  152OSM    C8S16891   5.454   3.134   3.352 -0.9423  0.5296 -0.0566
  152OSM    H8S16892   5.557   3.158   3.384 -0.1608 -3.1800  0.6631
  152OSM    H8T16893   5.429   3.026   3.363  0.9727  0.1819  1.2758
  152OSM    C9S16894   5.358   3.198   3.458 -0.0734 -0.4260 -0.1806
  152OSM    H9S16895   5.253   3.180   3.424 -0.3303 -0.0733  0.4015
  152OSM    H9T16896   5.384   3.306   3.466  1.4718 -0.9309  2.4190
  152OSM   C10S16897   5.385   3.142   3.603  0.4742 -0.1436 -0.1780
  152OSM   H10S16898   5.494   3.146   3.624  0.6751  0.1677 -1.1983
  152OSM   H10T16899   5.364   3.035   3.580  1.7642 -0.2757 -0.8254
  152OSM   C11S16900   5.308   3.188   3.719  0.9413 -0.5897 -0.1723
  152OSM   H11S16901   5.201   3.201   3.694  0.9077  1.6679  0.9645
  152OSM   H11T16902   5.354   3.281   3.757 -0.4924  0.1888 -0.2706
  152OSM   C12S16903   5.311   3.086   3.837 -0.2028  0.4143  0.3096
  152OSM   H12S16904   5.417   3.076   3.870  0.1392  1.6345 -0.3677
  152OSM   H12T16905   5.291   2.989   3.788  4.2796 -0.2498 -0.6406
  152OSM   C13S16906   5.214   3.126   3.948 -0.2112 -0.2394 -0.3694
  152OSM   H13S16907   5.108   3.134   3.915 -0.6943 -1.2702  0.8702
  152OSM   H13T16908   5.236   3.229   3.984  1.3377 -0.1514 -1.4731
  152OSM   C14S16909   5.218   3.025   4.063 -0.4222  0.1619  0.2475
  152OSM   H14S16910   5.323   3.008   4.095 -0.2851 -1.2788 -0.9111
  152OSM   H14T16911   5.176   2.930   4.025 -1.4306  1.3956 -1.9753
  152OSM   C15S16912   5.149   3.090   4.183  0.1545 -0.3193  0.1468
  152OSM   H15S16913   5.045   3.120   4.158 -0.5559 -1.1618  1.8915
  152OSM   H15T16914   5.204   3.181   4.216 -0.3194 -0.8719  2.6770
  152OSM   C16S16915   5.140   3.003   4.308 -0.7278 -0.6670 -1.1001
  152OSM   H16S16916   5.240   2.973   4.347 -0.2926  1.8578 -0.0579
  152OSM   H16T16917   5.073   2.916   4.294 -1.9656 -0.3117  1.8015
  152OSM   C17S16918   5.082   3.091   4.420  0.0590  0.2415  0.7443
  152OSM   H17S16919   4.988   3.141   4.389 -1.5206 -1.0337  3.1322
  152OSM   H17T16920   5.158   3.168   4.442  0.8136 -0.0590 -0.7109
  152OSM   C18S16921   5.046   3.007   4.544 -0.5434 -0.3682 -0.0190
  152OSM   H18S16922   5.059   3.068   4.636 -2.9676 -2.2198  1.6836
  152OSM   H18T16923   5.114   2.919   4.547  0.8478  0.7143  0.9016
  152OSM   H18U16924   4.942   2.975   4.521 -0.4457  0.0949 -1.1835
  152OSM    C1F16925   5.677   3.625   2.984 -0.0454 -0.5975  0.4050
  152OSM     OF16926   5.589   3.708   2.963  0.4989  0.0776  0.2691
  152OSM    C2F16927   5.795   3.656   3.077  0.4235  1.3367  0.6268
  152OSM    H2F16928   5.818   3.765   3.071 -0.6207  1.4733 -2.1852
  152OSM    H2G16929   5.888   3.600   3.052 -2.3105 -3.9380  0.9789
  152OSM    C3F16930   5.762   3.625   3.230 -0.5070 -0.3221 -0.4782
  152OSM    H3F16931   5.687   3.545   3.241  0.6855 -1.2778  1.2080
  152OSM    H3G16932   5.722   3.723   3.267 -0.2286  0.0192 -1.0697
  152OSM    C4F16933   5.891   3.595   3.319 -0.0968 -0.3103  0.3475
  152OSM    H4F16934   5.940   3.497   3.304  3.1746  1.3069 -0.5814
  152OSM    H4G16935   5.849   3.596   3.422  1.9937  2.1384  1.2929
  152OSM    C5F16936   6.003   3.704   3.309 -0.0998 -0.4012 -0.0511
  152OSM    H5F16937   5.961   3.806   3.298  1.7247  0.7741  2.6749
  152OSM    H5G16938   6.049   3.683   3.210 -0.9051 -1.4967 -0.2138
  152OSM    C6F16939   6.117   3.685   3.415  0.2961 -0.3772 -0.5440
  152OSM    H6F16940   6.068   3.663   3.512  0.0293 -0.6268 -0.7340
  152OSM    H6G16941   6.167   3.783   3.430 -1.4602  0.5231 -0.1852
  152OSM    C7F16942   6.217   3.583   3.381  0.0287  0.3227 -0.7487
  152OSM    H7F16943   6.269   3.617   3.289 -1.2990 -0.6853 -1.9273
  152OSM    H7G16944   6.178   3.479   3.369  0.6811 -0.5154  3.0963
  152OSM    C8F16945   6.319   3.569   3.502  0.2420  0.6718  0.0856
  152OSM    H8F16946   6.255   3.528   3.583  0.4681 -0.8541 -0.4826
  152OSM    H8G16947   6.346   3.671   3.536 -0.6665  0.2196  2.4101
  152OSM    C9F16948   6.425   3.478   3.456 -0.3329  0.6202 -0.4043
  152OSM    H9F16949   6.480   3.506   3.364 -0.5514  0.3754 -0.6093
  152OSM   C10F16950   6.448   3.350   3.500 -0.8711 -0.8766 -0.4084
  152OSM   H10F16951   6.530   3.303   3.444  0.8921  0.5538  0.8717
  152OSM   C11F16952   6.379   3.289   3.616  0.7597  0.1305  0.3718
  152OSM   H11F16953   6.396   3.179   3.609  0.4628  0.1215 -0.2975
  152OSM   H11G16954   6.270   3.296   3.597  0.8181  1.7838  0.5206
  152OSM   C12F16955   6.400   3.328   3.763  0.2734  0.3957  0.4431
  152OSM   H12F16956   6.341   3.257   3.825 -2.1705 -1.7859 -3.9156
  152OSM   H12G16957   6.354   3.428   3.773 -2.1024 -0.7568  1.5990
  152OSM   C13F16958   6.544   3.338   3.815 -0.0119 -0.6694  0.1409
  152OSM   H13F16959   6.604   3.412   3.757 -1.5884  0.1099 -0.5535
  152OSM   H13G16960   6.581   3.234   3.802  0.8689 -0.2474 -0.8725
  152OSM   C14F16961   6.567   3.358   3.969 -0.1689  0.6597  0.2906
  152OSM   H14F16962   6.514   3.270   4.013 -0.6458 -0.1962 -1.8612
  152OSM   H14G16963   6.529   3.459   3.995  0.1614  1.1065 -0.9052
  152OSM   C15F16964   6.716   3.354   4.010 -0.6373  0.3160 -0.3351
  152OSM   H15F16965   6.773   3.442   3.973  1.9425 -0.3572  1.7417
  152OSM   H15G16966   6.757   3.257   3.972 -0.2492  0.4712 -0.3155
  152OSM   C16F16967   6.741   3.355   4.164 -0.5831  0.3811 -0.0001
  152OSM   H16F16968   6.702   3.445   4.216 -3.1051 -1.0735  0.8185
  152OSM   H16G16969   6.849   3.342   4.190 -1.1678 -0.3558  2.3257
  152OSM   C17F16970   6.658   3.242   4.238  0.1764  0.1251 -0.3785
  152OSM   H17F16971   6.681   3.139   4.201 -0.0125 -0.0914  0.1011
  152OSM   H17G16972   6.550   3.258   4.219  0.4010  1.8975 -0.2685
  152OSM   C18F16973   6.675   3.239   4.387 -0.0059  0.0945 -0.4718
  152OSM   H18F16974   6.783   3.242   4.414 -0.2767 -0.7987  0.8287
  152OSM   H18G16975   6.642   3.144   4.434  2.8326 -0.9381 -0.3640
  152OSM   H18H16976   6.614   3.313   4.443 -1.2762  0.6075 -2.4247
  153OSM      N16977   3.441   5.165   2.472  0.2097  0.7823 -0.2372
  153OSM    C1516978   3.353   5.053   2.430  0.3670  0.5688  0.0766
  153OSM   H15A16979   3.308   5.014   2.520  1.9920 -0.2059  0.6055
  153OSM   H15B16980   3.420   4.982   2.384  1.1026  1.1799  0.1919
  153OSM   H15C16981   3.273   5.090   2.367  0.1461  0.4619  0.2932
  153OSM    C1416982   3.438   5.269   2.368 -0.5072  0.0652  0.7766
  153OSM   H14A16983   3.503   5.354   2.382 -1.4313  0.5940  2.0582
  153OSM   H14B16984   3.338   5.297   2.341 -0.1108  0.2637 -0.5694
  153OSM   H14C16985   3.475   5.225   2.276  0.6322  0.0803  1.2057
  153OSM    C1316986   3.391   5.211   2.606 -0.2125 -0.0322 -0.0159
  153OSM   H13A16987   3.394   5.132   2.680 -2.2985 -1.9783 -1.8649
  153OSM   H13B16988   3.287   5.239   2.601 -0.3226  0.7089  3.6449
  153OSM   H13C16989   3.449   5.296   2.639 -1.7962  1.8260 -1.7326
  153OSM    C1216990   3.582   5.106   2.481  0.5677 -0.3470  0.4038
  153OSM   H12A16991   3.592   5.029   2.556  2.6766  0.0490  0.5986
  153OSM   H12B16992   3.651   5.183   2.513 -0.5567  0.9271 -0.1402
  153OSM    C1116993   3.653   5.022   2.371 -0.4892 -0.4593 -0.6600
  153OSM   H11A16994   3.758   5.012   2.404  0.5660 -0.1686 -3.6642
  153OSM   H11B16995   3.639   5.098   2.291 -0.6335 -0.8452 -1.0041
  153OSM      P16996   3.637   4.779   2.460  0.0159 -0.2941  0.2559
  153OSM    O1316997   3.558   4.660   2.425 -0.2799  0.1629 -0.5265
  153OSM    O1416998   3.780   4.764   2.451 -0.0204  0.3158  0.2469
  153OSM    O1116999   3.596   4.840   2.599 -0.2710  0.6067 -0.0892
  153OSM    O1217000   3.594   4.893   2.347 -0.1174 -0.3578  0.3133
  153OSM    C1S17001   3.670   4.796   2.715 -0.2491  0.1510  0.1316
  153OSM    H1S17002   3.773   4.838   2.713 -0.1600  0.0767 -3.8987
  153OSM    H1T17003   3.679   4.685   2.716 -0.0954  0.1244 -1.5167
  153OSM     NF17004   3.670   4.834   2.960  0.2837 -0.2139 -0.0023
  153OSM    HNF17005   3.692   4.754   3.015  0.0530  0.0022  0.4059
  153OSM    C2S17006   3.585   4.832   2.844  0.3615 -0.0227  0.1610
  153OSM    H2S17007   3.537   4.932   2.834 -0.3403 -0.0921  2.3620
  153OSM    C3S17008   3.468   4.734   2.854  0.2597 -0.4295  0.0070
  153OSM    H3S17009   3.513   4.632   2.859  1.9653  0.3513  1.7581
  153OSM     O317010   3.388   4.725   2.737  0.4230  0.1150  0.7515
  153OSM    HO317011   3.452   4.747   2.668 -0.1253  0.2427  0.2717
  153OSM    C4S17012   3.388   4.746   2.979 -0.0584  0.2710 -1.2684
  153OSM    H4S17013   3.422   4.678   3.058  2.7229 -0.4178 -2.9226
  153OSM    C5S17014   3.278   4.829   2.989  0.3023  0.3527 -0.0120
  153OSM    H5S17015   3.247   4.880   2.896  0.9131 -1.7941 -1.4757
  153OSM    C6S17016   3.191   4.839   3.113  0.3000  0.0182  0.3601
  153OSM    H6S17017   3.093   4.792   3.093  0.6986 -0.6551 -0.0667
  153OSM    H6T17018   3.183   4.950   3.123  0.6245  0.5977 -3.9596
  153OSM    C7S17019   3.251   4.783   3.248 -0.6258 -0.1057 -0.4348
  153OSM    H7S17020   3.354   4.826   3.256 -0.4877 -0.7158  1.6187
  153OSM    H7T17021   3.258   4.672   3.252  1.4848  0.0131  0.3622
  153OSM    C8S17022   3.191   4.819   3.385  0.7970 -0.3501 -0.5856
  153OSM    H8S17023   3.096   4.765   3.405 -0.3696  1.0349 -2.1430
  153OSM    H8T17024   3.166   4.927   3.386  1.8254 -0.1058 -0.1721
  153OSM    C9S17025   3.282   4.783   3.499  0.6149  0.0430  0.0955
  153OSM    H9S17026   3.382   4.826   3.477  0.8016 -0.0070  0.8410
  153OSM    H9T17027   3.278   4.674   3.522  1.2416 -0.5414 -2.2919
  153OSM   C10S17028   3.262   4.866   3.624  0.4433  0.2105 -0.0253
  153OSM   H10S17029   3.253   4.974   3.599  1.3063  0.3117  0.0830
  153OSM   H10T17030   3.345   4.859   3.698  0.7254  2.0941 -0.1136
  153OSM   C11S17031   3.128   4.820   3.700  0.4065  0.1085 -0.0694
  153OSM   H11S17032   3.143   4.713   3.725  0.9120  1.0431  4.6641
  153OSM   H11T17033   3.035   4.833   3.639  0.3579 -0.3953 -0.1087
  153OSM   C12S17034   3.095   4.883   3.838  0.0323  0.0068  1.0720
  153OSM   H12S17035   2.990   4.856   3.863 -0.1524  0.6081  0.9494
  153OSM   H12T17036   3.107   4.993   3.842 -1.5646  0.4407 -2.8115
  153OSM   C13S17037   3.196   4.828   3.944  0.0867  0.0680  0.1767
  153OSM   H13S17038   3.286   4.882   3.907  1.2025 -1.2119  0.9292
  153OSM   H13T17039   3.207   4.718   3.936 -2.4912 -0.1343 -1.8412
  153OSM   C14S17040   3.160   4.874   4.083  0.2607  0.2265  0.7346
  153OSM   H14S17041   3.056   4.842   4.107 -0.1965  0.4451 -0.8594
  153OSM   H14T17042   3.158   4.985   4.091  2.8582  0.1906  4.1234
  153OSM   C15S17043   3.258   4.823   4.185 -0.3409 -0.3208 -0.3142
  153OSM   H15S17044   3.358   4.862   4.156  0.4558 -2.2420 -0.3602
  153OSM   H15T17045   3.256   4.712   4.178 -2.1935 -0.2658 -1.1265
  153OSM   C16S17046   3.218   4.859   4.325 -0.2618  0.0306 -0.4398
  153OSM   H16S17047   3.282   4.792   4.386 -0.6472  1.2024  1.3299
  153OSM   H16T17048   3.114   4.842   4.360  0.5715  1.9439  3.5832
  153OSM   C17S17049   3.256   5.000   4.358  0.1106 -0.3345 -0.1786
  153OSM   H17S17050   3.217   5.086   4.299  1.4014 -0.2453 -0.9174
  153OSM   H17T17051   3.367   5.000   4.357  0.1085 -0.6817 -0.8850
  153OSM   C18S17052   3.216   5.041   4.505 -0.1778  0.4569 -0.0402
  153OSM   H18S17053   3.151   4.967   4.557 -0.4463  2.0148  1.9725
  153OSM   H18T17054   3.170   5.142   4.511 -0.7981  0.1313  0.9242
  153OSM   H18U17055   3.308   5.064   4.564  1.3217  2.2575 -2.8636
  153OSM    C1F17056   3.750   4.941   2.986 -0.3310 -0.0399  1.0913
  153OSM     OF17057   3.741   5.043   2.919  0.0354 -0.2851 -0.9502
  153OSM    C2F17058   3.850   4.923   3.099 -0.1127  0.3188  0.0586
  153OSM    H2F17059   3.927   4.847   3.073  0.4572  1.1400 -0.7160
  153OSM    H2G17060   3.794   4.883   3.186  0.6471 -1.8473 -0.3977
  153OSM    C3F17061   3.926   5.059   3.134 -0.2150 -0.3955  0.1510
  153OSM    H3F17062   3.857   5.140   3.166 -0.2395 -0.2190 -0.3458
  153OSM    H3G17063   3.975   5.105   3.046 -1.8164  1.6295  0.2480
  153OSM    C4F17064   4.029   5.044   3.246  0.3747 -0.3931 -0.4197
  153OSM    H4F17065   4.080   5.143   3.249  2.1718 -1.3127  0.7732
  153OSM    H4G17066   4.088   4.954   3.220 -1.1197 -1.2059 -1.0862
  153OSM    C5F17067   3.960   5.028   3.381 -0.5812 -0.2530 -0.2360
  153OSM    H5F17068   3.897   4.937   3.383 -0.8220 -0.0819  0.9845
  153OSM    H5G17069   3.900   5.121   3.391 -3.1515 -1.6412 -1.7471
  153OSM    C6F17070   4.048   5.025   3.503  0.1180  0.1433  0.0942
  153OSM    H6F17071   4.121   5.106   3.481 -0.2665  0.1282 -1.3394
  153OSM    H6G17072   4.113   4.935   3.512 -0.4000 -0.3199 -0.7341
  153OSM    C7F17073   3.981   5.040   3.637  0.4104 -1.1233 -0.2374
  153OSM    H7F17074   3.972   4.944   3.693 -1.5120  0.0027  1.5293
  153OSM    H7G17075   3.878   5.081   3.629 -0.2408 -2.3866  1.1675
  153OSM    C8F17076   4.054   5.138   3.731  0.4401 -0.9610 -0.0604
  153OSM    H8F17077   4.065   5.226   3.664  1.5464 -2.1888 -1.5815
  153OSM    H8G17078   4.159   5.100   3.728  0.8186 -0.1383  1.5715
  153OSM    C9F17079   3.997   5.180   3.867  0.0988  0.3619  0.7365
  153OSM    H9F17080   3.891   5.204   3.854 -0.7000 -2.4405  1.3858
  153OSM   C10F17081   4.050   5.200   3.988 -0.4001 -0.0639  0.0164
  153OSM   H10F17082   3.996   5.254   4.067  0.5985 -0.1501  0.7752
  153OSM   C11F17083   4.200   5.182   4.015  0.1477  0.1051 -0.8413
  153OSM   H11F17084   4.234   5.286   4.035 -2.3531  0.7351  0.5995
  153OSM   H11G17085   4.259   5.133   3.935  1.0349 -1.2351  0.5736
  153OSM   C12F17086   4.216   5.095   4.147 -0.1221  0.0587  0.3613
  153OSM   H12F17087   4.309   5.035   4.136 -0.3601 -0.0911 -1.1091
  153OSM   H12G17088   4.130   5.026   4.157  0.0468 -0.4092 -1.1891
  153OSM   C13F17089   4.221   5.170   4.280  0.2818  0.0240 -0.1714
  153OSM   H13F17090   4.188   5.093   4.352  1.2192  0.3810  0.6616
  153OSM   H13G17091   4.147   5.253   4.270  0.3344  0.1525  0.5035
  153OSM   C14F17092   4.356   5.219   4.315  0.0596 -0.7990  0.2666
  153OSM   H14F17093   4.383   5.305   4.249 -0.8575  0.2276  1.1807
  153OSM   H14G17094   4.434   5.145   4.289  1.5086  0.9754 -0.7104
  153OSM   C15F17095   4.376   5.288   4.450 -0.2451 -0.5948  0.2490
  153OSM   H15F17096   4.486   5.277   4.464 -0.3820 -1.5976  0.6703
  153OSM   H15G17097   4.322   5.218   4.518 -2.6361 -0.6739 -1.5984
  153OSM   C16F17098   4.319   5.430   4.454 -0.4405  0.2978 -0.0362
  153OSM   H16F17099   4.211   5.419   4.478  0.0986  0.6619  2.8595
  153OSM   H16G17100   4.323   5.476   4.353 -0.1837 -0.2707 -0.2881
  153OSM   C17F17101   4.376   5.502   4.575 -0.2307  0.0879  0.2233
  153OSM   H17F17102   4.485   5.521   4.568  0.0732 -0.7793  1.9695
  153OSM   H17G17103   4.356   5.432   4.659 -3.2070  0.6518  0.0731
  153OSM   C18F17104   4.309   5.639   4.607  0.2314  0.0666  0.1506
  153OSM   H18F17105   4.210   5.602   4.642 -0.0645 -0.4162 -1.1465
  153OSM   H18G17106   4.309   5.704   4.517 -1.0158  1.3211  1.0164
  153OSM   H18H17107   4.347   5.688   4.699 -0.6079 -1.5860  1.4375
  154OSM      N17108   1.917   1.429   2.430 -0.2917  0.0786 -0.0377
  154OSM    C1517109   1.870   1.529   2.324  0.0864 -0.4299  0.3091
  154OSM   H15A17110   1.806   1.606   2.366 -0.8338 -1.3147  0.5433
  154OSM   H15B17111   1.803   1.482   2.254  1.3915 -1.1489 -0.4916
  154OSM   H15C17112   1.950   1.575   2.268 -0.8363 -0.1030 -0.7677
  154OSM    C1417113   1.794   1.380   2.499  0.0427 -0.2083 -0.0059
  154OSM   H14A17114   1.825   1.338   2.593 -2.5751  1.2216  1.5967
  154OSM   H14B17115   1.725   1.315   2.447  0.2852  0.7451 -1.6166
  154OSM   H14C17116   1.739   1.467   2.530  0.4846 -0.1852  0.7192
  154OSM    C1317117   1.985   1.320   2.370  0.0300  0.2319  0.6204
  154OSM   H13A17118   2.015   1.244   2.441  0.5354  1.0769  1.3447
  154OSM   H13B17119   2.077   1.355   2.325 -0.7994 -1.3394 -2.5787
  154OSM   H13C17120   1.924   1.279   2.291 -0.4440 -2.1570  2.1261
  154OSM    C1217121   2.014   1.497   2.529  0.0525 -0.3260  0.0086
  154OSM   H12A17122   2.102   1.526   2.472 -0.9804 -0.4744 -1.7212
  154OSM   H12B17123   2.047   1.426   2.603 -0.0942 -0.4283 -0.0263
  154OSM    C1117124   1.974   1.622   2.606 -0.1027 -0.3204 -0.8025
  154OSM   H11A17125   1.969   1.704   2.531 -2.8038  0.3568  0.0117
  154OSM   H11B17126   2.058   1.646   2.675  0.9796  0.8142 -2.4483
  154OSM      P17127   1.748   1.705   2.686  0.0253 -0.4040  0.0349
  154OSM    O1317128   1.794   1.833   2.629 -0.1739  0.3194  0.7456
  154OSM    O1417129   1.619   1.658   2.638  0.8137  0.0770 -0.2743
  154OSM    O1117130   1.742   1.721   2.833 -0.0739 -0.3992  0.0678
  154OSM    O1217131   1.854   1.594   2.672  0.6739 -0.2123 -0.4026
  154OSM    C1S17132   1.728   1.619   2.935 -0.2176  0.2347  0.5250
  154OSM    H1S17133   1.743   1.514   2.903 -1.0434 -0.3108  1.8525
  154OSM    H1T17134   1.621   1.630   2.963 -0.3426  1.0534 -0.2109
  154OSM     NF17135   1.785   1.553   3.164  0.3603  0.4364 -0.4646
  154OSM    HNF17136   1.731   1.573   3.245 -0.0195  0.7618 -0.7942
  154OSM    C2S17137   1.817   1.649   3.058  0.2915  0.7028  0.1181
  154OSM    H2S17138   1.923   1.625   3.033  0.9377  1.9580  1.4791
  154OSM    C3S17139   1.807   1.804   3.096 -0.5799  0.2449  0.7766
  154OSM    H3S17140   1.699   1.827   3.111 -0.2069  1.6217  1.5706
  154OSM     O317141   1.847   1.898   3.000 -0.0058  0.0629  0.4380
  154OSM    HO317142   1.823   1.852   2.919 -2.8078 -0.7402  1.6256
  154OSM    C4S17143   1.883   1.820   3.224  0.3024  0.1138  0.5256
  154OSM    H4S17144   1.820   1.821   3.314  1.7753 -0.1032  1.6072
  154OSM    C5S17145   2.008   1.850   3.248 -0.7860 -0.4097  0.4935
  154OSM    H5S17146   2.071   1.866   3.160 -1.0260 -5.4598 -0.9101
  154OSM    C6S17147   2.075   1.877   3.382  0.3744 -0.0034  0.2651
  154OSM    H6S17148   2.096   1.984   3.398 -1.9502  0.3566  1.4424
  154OSM    H6T17149   2.165   1.815   3.399 -0.5973 -0.8953  2.7049
  154OSM    C7S17150   1.978   1.857   3.500 -0.1084  0.6500 -0.1413
  154OSM    H7S17151   1.953   1.749   3.490  0.6623  0.4308  0.2294
  154OSM    H7T17152   1.887   1.918   3.479 -0.1284  0.7218  0.1501
  154OSM    C8S17153   2.030   1.875   3.644  0.1869  0.1794  0.1763
  154OSM    H8S17154   2.078   1.974   3.663 -1.2409  2.0646 -4.4461
  154OSM    H8T17155   2.119   1.809   3.649 -0.5551 -0.9983 -1.3599
  154OSM    C9S17156   1.924   1.838   3.751 -0.1029  0.3758  0.1820
  154OSM    H9S17157   1.899   1.730   3.738  1.8743 -0.1092  0.1297
  154OSM    H9T17158   1.827   1.889   3.733  0.2505  1.1053  0.3364
  154OSM   C10S17159   1.984   1.857   3.888  0.0115  0.9909  0.2114
  154OSM   H10S17160   2.027   1.959   3.904  0.3955  0.6742  1.3605
  154OSM   H10T17161   2.067   1.784   3.896 -0.3281  0.6697  0.8514
  154OSM   C11S17162   1.886   1.827   4.001  0.3468 -0.3141 -0.0479
  154OSM   H11S17163   1.855   1.721   3.990  1.0785 -0.4662 -0.6866
  154OSM   H11T17164   1.796   1.889   3.980  0.8320  0.6174  0.5626
  154OSM   C12S17165   1.943   1.845   4.138 -0.7220  0.1872 -0.5841
  154OSM   H12S17166   1.990   1.946   4.143  2.5108 -1.0271 -3.1390
  154OSM   H12T17167   2.026   1.771   4.141 -0.8462  0.0521  1.5771
  154OSM   C13S17168   1.844   1.812   4.254 -0.0626  0.8390 -0.4897
  154OSM   H13S17169   1.818   1.705   4.271  1.5918  0.4861  0.0617
  154OSM   H13T17170   1.744   1.858   4.241 -1.8290 -1.5512  3.0018
  154OSM   C14S17171   1.908   1.863   4.381 -0.2668 -0.3356  0.0767
  154OSM   H14S17172   1.923   1.971   4.364  3.1295 -1.0071 -2.0833
  154OSM   H14T17173   2.009   1.823   4.400  0.3606  0.9654 -0.4070
  154OSM   C15S17174   1.823   1.834   4.499  0.5552 -0.1765 -0.3670
  154OSM   H15S17175   1.813   1.723   4.504  2.2226 -0.3397  0.0768
  154OSM   H15T17176   1.722   1.876   4.480  0.7660  0.4267 -0.1842
  154OSM   C16S17177   1.876   1.871   4.639  0.4490 -0.0895  0.7362
  154OSM   H16S17178   1.876   1.982   4.634  1.5209 -0.1168 -0.2866
  154OSM   H16T17179   1.978   1.833   4.662  0.0640 -3.1505 -1.8674
  154OSM   C17S17180   1.787   1.833   4.755  0.1354  0.1920  0.2605
  154OSM   H17S17181   1.835   1.876   4.845 -3.4791  0.3590  2.2756
  154OSM   H17T17182   1.785   1.723   4.766 -1.0185  0.0341 -1.1808
  154OSM   C18S17183   1.641   1.888   4.738  0.0835 -0.3561  0.6370
  154OSM   H18S17184   1.614   1.848   4.637  1.2831  0.7821 -0.1610
  154OSM   H18T17185   1.645   1.998   4.721 -0.9705 -0.5145 -0.8216
  154OSM   H18U17186   1.566   1.838   4.803  0.4650 -1.7253  0.0702
  154OSM    C1F17187   1.810   1.423   3.155 -0.1652 -0.3475 -0.2606
  154OSM     OF17188   1.877   1.386   3.058  0.4284  0.8259 -0.1135
  154OSM    C2F17189   1.759   1.326   3.254  0.1297  0.2359  0.4953
  154OSM    H2F17190   1.660   1.301   3.210 -0.6492  0.5019  2.0185
  154OSM    H2G17191   1.745   1.386   3.347 -1.5112 -1.0510  1.1277
  154OSM    C3F17192   1.839   1.195   3.289  0.1411  0.2848  0.6859
  154OSM    H3F17193   1.948   1.206   3.302  0.0933  1.5130  0.1060
  154OSM    H3G17194   1.837   1.121   3.206 -0.7674  0.2087  0.7628
  154OSM    C4F17195   1.772   1.119   3.406 -0.0415  0.3917  0.1606
  154OSM    H4F17196   1.810   1.161   3.502  0.0145 -0.0609  0.3397
  154OSM    H4G17197   1.797   1.011   3.416  1.0616  0.7287  1.2413
  154OSM    C5F17198   1.616   1.123   3.406 -0.8488 -0.2456  0.0953
  154OSM    H5F17199   1.580   1.096   3.305  1.8018 -1.7391 -0.5455
  154OSM    H5G17200   1.585   1.223   3.443  0.5248 -0.4075  1.8566
  154OSM    C6F17201   1.541   1.027   3.499 -0.1010 -0.1136  0.2121
  154OSM    H6F17202   1.558   0.923   3.464  1.5892  1.1937 -3.2348
  154OSM    H6G17203   1.433   1.055   3.498 -0.4015 -1.2375 -0.9005
  154OSM    C7F17204   1.591   1.023   3.646 -0.9098  0.0044 -0.4711
  154OSM    H7F17205   1.583   1.120   3.699  0.2220 -0.8682  1.4087
  154OSM    H7G17206   1.699   0.999   3.658 -0.9706 -0.2839 -0.4826
  154OSM    C8F17207   1.521   0.918   3.738 -0.7529 -0.2788 -0.7467
  154OSM    H8F17208   1.415   0.950   3.746 -0.7663 -0.4801 -0.0645
  154OSM    H8G17209   1.555   0.948   3.840  1.1124 -1.3094 -1.0118
  154OSM    C9F17210   1.541   0.769   3.714 -0.1799 -0.6110 -0.7958
  154OSM    H9F17211   1.488   0.734   3.624 -1.3844  0.1618 -0.4234
  154OSM   C10F17212   1.603   0.683   3.794 -0.3268  0.6078 -1.0309
  154OSM   H10F17213   1.587   0.575   3.779 -2.6267  0.5343  1.2110
  154OSM   C11F17214   1.692   0.715   3.913  0.6178  0.0991 -0.1268
  154OSM   H11F17215   1.727   0.820   3.904  0.0875  0.4038  1.1964
  154OSM   H11G17216   1.786   0.660   3.891  0.3729  0.8273 -3.6778
  154OSM   C12F17217   1.625   0.687   4.056  0.3697  0.0934 -0.6655
  154OSM   H12F17218   1.533   0.748   4.068 -1.1784 -2.1886 -0.0689
  154OSM   H12G17219   1.694   0.708   4.141 -1.1249 -2.2076  1.2560
  154OSM   C13F17220   1.584   0.537   4.076 -0.6406 -0.2064 -0.5281
  154OSM   H13F17221   1.680   0.482   4.062  1.3462  3.1568 -1.2189
  154OSM   H13G17222   1.508   0.509   4.000 -0.1073 -2.2893 -0.3751
  154OSM   C14F17223   1.527   0.505   4.217 -0.0302 -0.1562  0.5190
  154OSM   H14F17224   1.433   0.560   4.239 -0.2433 -0.2263 -0.1840
  154OSM   H14G17225   1.604   0.547   4.285 -0.6441  1.7069  0.1163
  154OSM   C15F17226   1.501   0.355   4.242  0.1209 -1.0035 -0.0726
  154OSM   H15F17227   1.597   0.304   4.216  0.4825 -1.1135  1.3862
  154OSM   H15G17228   1.423   0.310   4.178 -0.1875 -1.7353  0.8022
  154OSM   C16F17229   1.472   0.333   4.395  0.0135  0.6766 -0.1025
  154OSM   H16F17230   1.450   0.226   4.412 -0.7088  0.9500  0.7396
  154OSM   H16G17231   1.380   0.393   4.415  0.4633  1.9876 -1.7068
  154OSM   C17F17232   1.588   0.376   4.483 -1.1246 -0.4491  0.1130
  154OSM   H17F17233   1.606   0.485   4.477  1.9624 -0.8050  1.1677
  154OSM   H17G17234   1.676   0.326   4.437 -1.9016 -3.0551  1.2488
  154OSM   C18F17235   1.592   0.341   4.635 -0.6278 -0.5579 -0.6099
  154OSM   H18F17236   1.698   0.347   4.665  0.1035  3.3489 -3.2922
  154OSM   H18G17237   1.550   0.241   4.661  1.4053 -1.2634  0.1203
  154OSM   H18H17238   1.544   0.424   4.692  1.8286  1.1993 -0.9812
  155OSM      N17239   4.431   0.923   2.846  0.8701 -0.3161 -0.3559
  155OSM    C1517240   4.294   0.977   2.856 -0.7284 -0.2571 -0.1697
  155OSM   H15A17241   4.249   0.972   2.757 -3.3883 -2.1998  1.0092
  155OSM   H15B17242   4.312   1.076   2.897  0.3550 -0.8645  0.8648
  155OSM   H15C17243   4.228   0.917   2.916 -0.9475 -0.8252 -0.9599
  155OSM    C1417244   4.518   0.987   2.736  0.7372 -0.4450 -0.3039
  155OSM   H14A17245   4.611   0.933   2.739 -0.4233 -2.5711 -0.4410
  155OSM   H14B17246   4.532   1.092   2.759 -0.0812 -0.4528  0.3028
  155OSM   H14C17247   4.471   0.979   2.639 -0.0987  2.0317 -0.1799
  155OSM    C1317248   4.500   0.961   2.973  0.0845 -0.0024 -0.3888
  155OSM   H13A17249   4.425   0.948   3.049 -1.3666  0.9447 -1.5924
  155OSM   H13B17250   4.530   1.065   2.976  1.1468 -0.2544 -1.5246
  155OSM   H13C17251   4.584   0.902   3.003  1.0753  1.5460 -0.0010
  155OSM    C1217252   4.435   0.771   2.846  0.3669  0.4804 -0.3016
  155OSM   H12A17253   4.388   0.751   2.751 -0.1798  1.2505 -0.2069
  155OSM   H12B17254   4.363   0.733   2.917  0.0885 -0.9697 -1.3242
  155OSM    C1117255   4.566   0.700   2.853  0.1021  0.1667 -0.8069
  155OSM   H11A17256   4.543   0.592   2.840 -2.7606  0.2846  2.1600
  155OSM   H11B17257   4.602   0.715   2.957  0.0282 -0.8728 -0.6277
  155OSM      P17258   4.656   0.690   2.609  0.1044  0.5582 -0.1551
  155OSM    O1317259   4.519   0.661   2.561  0.4801 -0.3796  0.3687
  155OSM    O1417260   4.732   0.791   2.531  0.0812 -0.2428  0.2765
  155OSM    O1117261   4.739   0.557   2.617  0.1213 -0.1004 -0.9192
  155OSM    O1217262   4.668   0.738   2.759  0.1519  0.0342  0.0248
  155OSM    C1S17263   4.865   0.533   2.683 -0.3639  0.0864  0.1132
  155OSM    H1S17264   4.928   0.625   2.684 -2.3898  1.5471  0.1176
  155OSM    H1T17265   4.929   0.460   2.629  0.4113  1.9089 -1.5747
  155OSM     NF17266   4.974   0.473   2.893 -0.8486 -0.5610 -0.7899
  155OSM    HNF17267   5.024   0.391   2.867 -1.5895 -0.9422 -1.0425
  155OSM    C2S17268   4.845   0.485   2.831 -0.1094 -0.2826  0.1683
  155OSM    H2S17269   4.795   0.571   2.881 -3.5040 -0.8677 -1.9153
  155OSM    C3S17270   4.758   0.355   2.851 -0.7873  0.0562 -0.6036
  155OSM    H3S17271   4.816   0.272   2.806  0.1458 -0.0129  0.6818
  155OSM     O317272   4.635   0.366   2.775 -0.0296  0.4224 -0.3427
  155OSM    HO317273   4.662   0.430   2.709  0.4861 -0.5292 -1.0859
  155OSM    C4S17274   4.731   0.316   3.003 -0.4754 -0.3862  0.5900
  155OSM    H4S17275   4.806   0.249   3.045  1.8755  0.8172 -1.4271
  155OSM    C5S17276   4.628   0.368   3.077  0.3497  0.0915  0.4441
  155OSM    H5S17277   4.560   0.440   3.029 -0.1346  0.6484  1.9179
  155OSM    C6S17278   4.611   0.345   3.224  0.3628  0.4575 -0.3025
  155OSM    H6S17279   4.647   0.246   3.259  2.4194  0.8726 -1.1038
  155OSM    H6T17280   4.503   0.345   3.252  0.1725  0.1956 -1.0086
  155OSM    C7S17281   4.696   0.444   3.317 -0.1267  0.1645 -0.6444
  155OSM    H7S17282   4.633   0.535   3.327 -2.9670 -1.7071 -0.1483
  155OSM    H7T17283   4.798   0.464   3.280 -0.3171  2.8231  0.1129
  155OSM    C8S17284   4.715   0.387   3.463  0.0465 -0.2414 -0.4258
  155OSM    H8S17285   4.621   0.342   3.501  0.4801 -0.9269 -0.1515
  155OSM    H8T17286   4.738   0.473   3.528  1.3687  0.4384 -1.7283
  155OSM    C9S17287   4.840   0.299   3.481  0.8420  1.3385 -0.0579
  155OSM    H9S17288   4.913   0.356   3.419 -1.2039  2.3676 -1.6530
  155OSM    H9T17289   4.830   0.195   3.443  0.8314  0.9964  0.8399
  155OSM   C10S17290   4.904   0.286   3.625 -0.2822  0.0812 -0.0868
  155OSM   H10S17291   4.925   0.388   3.664 -0.1019 -0.0566  0.1844
  155OSM   H10T17292   4.995   0.223   3.629  0.5870  1.3444  1.2795
  155OSM   C11S17293   4.809   0.223   3.733  0.8951 -0.2938  0.1131
  155OSM   H11S17294   4.765   0.127   3.697 -1.8689  1.2186 -0.7743
  155OSM   H11T17295   4.729   0.300   3.736 -1.2105 -2.3479 -0.3399
  155OSM   C12S17296   4.874   0.210   3.870  0.1249 -0.6076  0.4264
  155OSM   H12S17297   4.900   0.316   3.892 -0.4702 -0.4964  0.5953
  155OSM   H12T17298   4.973   0.160   3.878  1.2595  1.7770  3.2317
  155OSM   C13S17299   4.779   0.155   3.986  0.9021  0.5369 -0.2604
  155OSM   H13S17300   4.753   0.047   3.980 -0.5074  0.6186  2.4750
  155OSM   H13T17301   4.679   0.203   3.973  0.5967  0.4334  1.4853
  155OSM   C14S17302   4.833   0.173   4.124 -1.1437 -0.4178  0.4094
  155OSM   H14S17303   4.881   0.273   4.119  0.2636 -0.9950  1.5178
  155OSM   H14T17304   4.909   0.094   4.140 -1.8767 -0.5959  3.7634
  155OSM   C15S17305   4.726   0.160   4.235 -0.4222  0.7051 -0.2561
  155OSM   H15S17306   4.661   0.070   4.232 -1.3016  1.3051  0.4464
  155OSM   H15T17307   4.656   0.245   4.221 -1.6600 -0.5173 -1.9044
  155OSM   C16S17308   4.791   0.166   4.377  0.1795  0.0121  0.5454
  155OSM   H16S17309   4.870   0.242   4.358 -0.4944 -0.0542 -3.1407
  155OSM   H16T17310   4.841   0.073   4.411  0.8637  1.1829  3.0461
  155OSM   C17S17311   4.706   0.228   4.496  0.4667  0.0751  0.9807
  155OSM   H17S17312   4.671   0.329   4.467 -1.3118 -0.0497  2.4890
  155OSM   H17T17313   4.770   0.230   4.587 -1.6558 -1.1126  2.5762
  155OSM   C18S17314   4.585   0.137   4.527  0.1067  0.1495 -0.1469
  155OSM   H18S17315   4.512   0.129   4.444  0.3026 -3.5411 -0.1188
  155OSM   H18T17316   4.533   0.167   4.620 -2.6366 -0.7452 -1.2910
  155OSM   H18U17317   4.622   0.033   4.537 -1.1651 -0.3244 -0.1300
  155OSM    C1F17318   5.059   0.579   2.922  0.2179 -0.6762  0.1350
  155OSM     OF17319   5.024   0.695   2.905 -0.0094  0.2491 -0.0078
  155OSM    C2F17320   5.201   0.553   2.971 -0.2213  0.1346  0.1524
  155OSM    H2F17321   5.272   0.605   2.902  0.1661  0.1162  0.5294
  155OSM    H2G17322   5.223   0.445   2.975 -2.1661 -0.3525 -1.0731
  155OSM    C3F17323   5.233   0.619   3.103  0.0409 -0.1608 -0.3129
  155OSM    H3F17324   5.226   0.728   3.083  1.0811  0.0870  0.5773
  155OSM    H3G17325   5.337   0.598   3.136  0.3807 -0.2618 -1.4038
  155OSM    C4F17326   5.141   0.574   3.218  0.8030 -0.2349 -1.1761
  155OSM    H4F17327   5.161   0.474   3.262 -2.7579  0.0758  1.7056
  155OSM    H4G17328   5.032   0.573   3.198 -0.2638 -0.2206  3.4883
  155OSM    C5F17329   5.148   0.671   3.341 -0.6587  0.2485  0.4940
  155OSM    H5F17330   5.118   0.776   3.321 -0.6161  0.2864  0.6279
  155OSM    H5G17331   5.242   0.672   3.400 -0.2875 -0.1744 -0.0788
  155OSM    C6F17332   5.039   0.613   3.444 -0.1524 -0.2595  0.1024
  155OSM    H6F17333   5.057   0.505   3.458  1.3998 -0.2740 -1.6136
  155OSM    H6G17334   4.934   0.625   3.409  0.5162 -2.6588 -3.2228
  155OSM    C7F17335   5.051   0.669   3.591  0.7521  0.7191  0.3425
  155OSM    H7F17336   5.157   0.676   3.624  0.2602 -0.7025  2.4013
  155OSM    H7G17337   4.999   0.591   3.651 -1.3255  1.0460 -0.9176
  155OSM    C8F17338   4.987   0.801   3.619 -0.5327  0.0897  1.2323
  155OSM    H8F17339   4.877   0.801   3.603 -0.8210  3.9915  2.2027
  155OSM    H8G17340   5.019   0.883   3.553 -3.3629 -0.5433 -1.1628
  155OSM    C9F17341   5.014   0.841   3.768  0.0275 -0.3095  0.5930
  155OSM    H9F17342   5.112   0.890   3.785 -0.5664  1.4398 -0.6847
  155OSM   C10F17343   4.939   0.802   3.872  0.0815  0.2528  0.1650
  155OSM   H10F17344   4.975   0.832   3.972  0.3681  1.0578 -0.1716
  155OSM   C11F17345   4.808   0.725   3.862 -0.6422 -0.5416 -0.0895
  155OSM   H11F17346   4.815   0.639   3.792  1.6690  0.9546 -1.8784
  155OSM   H11G17347   4.735   0.795   3.818  0.3329  1.9321  1.9955
  155OSM   C12F17348   4.752   0.694   3.998  0.1622  0.2716  0.7496
  155OSM   H12F17349   4.642   0.688   3.983  0.0250 -0.1754  1.8367
  155OSM   H12G17350   4.786   0.773   4.069  1.9290 -0.6953  1.0446
  155OSM   C13F17351   4.792   0.557   4.057  0.2173 -0.4227  0.2276
  155OSM   H13F17352   4.903   0.557   4.056  0.2160 -0.7610 -0.5975
  155OSM   H13G17353   4.758   0.470   3.997 -0.5625  1.3061 -1.9492
  155OSM   C14F17354   4.736   0.537   4.191  0.1019 -0.0045 -0.7144
  155OSM   H14F17355   4.789   0.448   4.230  0.0552  0.5576  0.6939
  155OSM   H14G17356   4.625   0.532   4.181  0.2446 -0.2160 -2.4528
  155OSM   C15F17357   4.778   0.655   4.290  0.5023  0.2243 -0.3047
  155OSM   H15F17358   4.714   0.745   4.274  0.2728  0.1933  0.4173
  155OSM   H15G17359   4.883   0.682   4.265 -0.0301  1.0684 -1.7511
  155OSM   C16F17360   4.769   0.608   4.433  0.7193  0.5434 -1.1771
  155OSM   H16F17361   4.849   0.531   4.442  0.0226 -0.2783 -1.7578
  155OSM   H16G17362   4.669   0.562   4.449  0.8319  0.3536 -1.0240
  155OSM   C17F17363   4.801   0.711   4.537  0.1369 -0.6912 -0.5984
  155OSM   H17F17364   4.740   0.800   4.511  0.3376 -0.0963  0.8907
  155OSM   H17G17365   4.907   0.740   4.517  0.1415 -1.2556 -1.4863
  155OSM   C18F17366   4.751   0.689   4.682  0.1412  0.3446  0.3418
  155OSM   H18F17367   4.641   0.676   4.673  0.2710  0.6362 -2.7462
  155OSM   H18G17368   4.759   0.777   4.748  0.0237  0.4841  0.1702
  155OSM   H18H17369   4.774   0.586   4.718 -2.7140 -0.7453 -0.5889
  156OSM      N17370   6.763   6.971   2.465 -0.2042  0.2551 -0.4474
  156OSM    C1517371   6.628   7.040   2.453 -0.1341  0.0781 -0.5275
  156OSM   H15A17372   6.638   7.135   2.403  1.6025  0.2521  0.0877
  156OSM   H15B17373   6.591   7.070   2.550 -4.1303 -0.9953 -1.5336
  156OSM   H15C17374   6.550   6.981   2.408  0.6898 -2.0978  0.7805
  156OSM    C1417375   6.829   6.959   2.335  0.3335 -0.8143 -0.4910
  156OSM   H14A17376   6.761   6.930   2.257 -0.1688 -0.3410 -0.2315
  156OSM   H14B17377   6.903   6.880   2.339  1.0926 -0.1509 -0.8770
  156OSM   H14C17378   6.876   7.053   2.307  0.6350 -0.9512 -0.4489
  156OSM    C1317379   6.853   7.043   2.565 -0.1825 -0.3479 -0.3583
  156OSM   H13A17380   6.948   6.990   2.565  0.9541  1.6006 -0.0483
  156OSM   H13B17381   6.810   7.034   2.663 -0.3900  0.1067 -0.4073
  156OSM   H13C17382   6.863   7.146   2.536 -3.6259  0.2334  0.1062
  156OSM    C1217383   6.736   6.831   2.521  0.1859  0.3580  0.4285
  156OSM   H12A17384   6.830   6.780   2.530 -0.7228 -1.0237  2.9925
  156OSM   H12B17385   6.677   6.777   2.448  1.9114  0.5708 -1.1867
  156OSM    C1117386   6.665   6.821   2.659  0.3642 -0.4960  0.5035
  156OSM   H11A17387   6.572   6.882   2.665  0.3916 -0.1588 -1.7197
  156OSM   H11B17388   6.739   6.865   2.729 -0.2966  1.3369  0.1256
  156OSM      P17389   6.719   6.586   2.762 -0.2304  0.4369 -0.0813
  156OSM    O1317390   6.634   6.471   2.798  0.0535  0.2913  0.0173
  156OSM    O1417391   6.848   6.563   2.688 -0.6737 -0.5402 -0.4898
  156OSM    O1117392   6.760   6.667   2.897  0.8168 -0.5975  0.2057
  156OSM    O1217393   6.634   6.686   2.675  0.5017 -0.4227 -0.1074
  156OSM    C1S17394   6.666   6.722   2.981  0.2185  0.0894 -0.2375
  156OSM    H1S17395   6.596   6.645   3.021 -0.3336  1.0101  0.6290
  156OSM    H1T17396   6.591   6.786   2.929 -2.1811 -2.1430  0.2455
  156OSM     NF17397   6.624   6.864   3.180  0.6811 -0.1485  0.3097
  156OSM    HNF17398   6.606   6.960   3.163  1.4134  0.2267  1.4967
  156OSM    C2S17399   6.728   6.799   3.098  0.1003  0.1779  0.3852
  156OSM    H2S17400   6.776   6.723   3.163  0.2494 -1.8197 -1.9422
  156OSM    C3S17401   6.824   6.909   3.044  0.6324 -0.2066 -0.1393
  156OSM    H3S17402   6.748   6.976   2.997  0.4449 -0.8236 -0.7180
  156OSM     O317403   6.917   6.873   2.940 -0.2656  0.6169  0.0063
  156OSM    HO317404   6.877   6.793   2.906  1.3679 -0.2705  0.0871
  156OSM    C4S17405   6.886   6.984   3.158 -0.1282 -0.4025  0.2077
  156OSM    H4S17406   6.817   7.058   3.200  1.6361  1.0310  0.7227
  156OSM    C5S17407   7.006   6.962   3.207  0.2432  0.1241 -0.0489
  156OSM    H5S17408   7.080   6.892   3.166  0.0151 -1.2478  1.7781
  156OSM    C6S17409   7.060   7.043   3.323 -0.5299 -0.1653  0.2321
  156OSM    H6S17410   7.121   7.118   3.268 -0.8614  0.0376  0.1388
  156OSM    H6T17411   7.131   6.985   3.386 -1.3605 -2.1561 -0.5798
  156OSM    C7S17412   6.967   7.121   3.418 -1.0469  0.8250  0.0330
  156OSM    H7S17413   6.877   7.157   3.364 -1.8916 -3.8178 -2.2255
  156OSM    H7T17414   7.026   7.196   3.474  2.3450 -0.8487 -0.9996
  156OSM    C8S17415   6.910   7.036   3.529  0.5807  0.2814 -0.1978
  156OSM    H8S17416   6.994   6.983   3.579  0.6689 -0.9077 -1.5438
  156OSM    H8T17417   6.829   6.964   3.506  0.0966 -0.4982  3.4385
  156OSM    C9S17418   6.831   7.117   3.639  0.3353  0.2184 -0.3229
  156OSM    H9S17419   6.735   7.157   3.599 -0.5529 -0.2906  1.2438
  156OSM    H9T17420   6.893   7.203   3.672  0.4292 -0.2707  0.7991
  156OSM   C10S17421   6.809   7.020   3.755  0.3622 -0.2569 -0.6726
  156OSM   H10S17422   6.910   6.985   3.788  1.0259 -0.3644 -2.7032
  156OSM   H10T17423   6.770   6.920   3.726  0.0524 -0.0822 -0.8581
  156OSM   C11S17424   6.729   7.072   3.877  0.4047  0.3574 -0.2359
  156OSM   H11S17425   6.623   7.074   3.843  1.0948 -0.4780 -2.6366
  156OSM   H11T17426   6.763   7.177   3.886 -2.2022  1.3574 -1.2690
  156OSM   C12S17427   6.750   7.009   4.018  0.4922  0.5259 -0.0805
  156OSM   H12S17428   6.855   7.013   4.056  0.0566 -0.5004  1.2730
  156OSM   H12T17429   6.709   6.907   4.024 -0.7637  1.0843  1.8032
  156OSM   C13S17430   6.669   7.081   4.130  0.7448  0.2704  0.1944
  156OSM   H13S17431   6.565   7.096   4.094  0.4050 -4.1484 -1.2976
  156OSM   H13T17432   6.713   7.181   4.149  1.0882 -0.0758  1.3366
  156OSM   C14S17433   6.658   7.008   4.264 -0.6091  0.0016 -0.1124
  156OSM   H14S17434   6.615   6.909   4.236  0.9887 -1.2179  1.5110
  156OSM   H14T17435   6.593   7.052   4.342  0.3972  3.4172 -1.0346
  156OSM   C15S17436   6.794   6.991   4.342 -0.0393  0.6678  0.4629
  156OSM   H15S17437   6.845   7.089   4.342  0.3847  0.5108 -2.0199
  156OSM   H15T17438   6.855   6.923   4.279 -1.0944  0.2300 -0.1153
  156OSM   C16S17439   6.782   6.945   4.484 -0.5089  0.0699 -0.5903
  156OSM   H16S17440   6.888   6.933   4.515 -1.0661 -1.6927  0.7910
  156OSM   H16T17441   6.745   6.840   4.481 -1.5271  0.4078 -0.1400
  156OSM   C17S17442   6.703   7.026   4.587  0.4277 -0.0854  0.4704
  156OSM   H17S17443   6.601   7.057   4.555  0.5529  1.2045  1.2327
  156OSM   H17T17444   6.763   7.115   4.618  0.1392  0.3004 -0.0523
  156OSM   C18S17445   6.696   6.932   4.707 -0.3672 -0.3089  0.1829
  156OSM   H18S17446   6.792   6.924   4.763  0.2394  1.0129 -0.6273
  156OSM   H18T17447   6.661   6.832   4.672 -0.4266 -1.7231  3.8401
  156OSM   H18U17448   6.613   6.973   4.769 -1.1360 -0.9611 -0.3980
  156OSM    C1F17449   6.534   6.801   3.259 -0.1070 -0.7774  0.1729
  156OSM     OF17450   6.533   6.680   3.262 -0.7262 -0.5976  0.1221
  156OSM    C2F17451   6.439   6.899   3.338  0.1473 -0.3754  0.8606
  156OSM    H2F17452   6.360   6.936   3.270 -0.5663  0.9150  2.3159
  156OSM    H2G17453   6.495   6.990   3.368  0.4510  0.0720 -0.9580
  156OSM    C3F17454   6.363   6.843   3.465  0.2535 -1.0340  0.1095
  156OSM    H3F17455   6.317   6.747   3.434 -3.3407  0.6566 -0.3312
  156OSM    H3G17456   6.273   6.905   3.484  2.7167  2.2365  2.2587
  156OSM    C4F17457   6.443   6.833   3.594  0.4996  1.0985  0.1108
  156OSM    H4F17458   6.471   6.937   3.620  0.2922  0.9554  0.9268
  156OSM    H4G17459   6.530   6.770   3.562 -0.4636  0.1759 -0.7683
  156OSM    C5F17460   6.368   6.769   3.710  0.4921 -0.4800  0.5281
  156OSM    H5F17461   6.345   6.663   3.690 -1.2415 -0.1378  0.5520
  156OSM    H5G17462   6.266   6.815   3.713  0.3666 -0.7004 -0.2999
  156OSM    C6F17463   6.430   6.781   3.852 -0.1307  0.1186  0.0261
  156OSM    H6F17464   6.454   6.888   3.869  1.6150 -0.4242  1.3076
  156OSM    H6G17465   6.533   6.739   3.842  0.3049  1.5686 -3.0400
  156OSM    C7F17466   6.349   6.713   3.961 -0.0044 -0.3589 -0.3135
  156OSM    H7F17467   6.348   6.605   3.938  1.9860 -1.0507  2.3654
  156OSM    H7G17468   6.247   6.758   3.955  0.3765  0.4737 -0.8587
  156OSM    C8F17469   6.398   6.744   4.107 -0.6081 -0.0144 -0.1614
  156OSM    H8F17470   6.404   6.855   4.115 -0.4908 -0.0954  1.0118
  156OSM    H8G17471   6.504   6.712   4.107 -0.3455  0.8257 -0.8630
  156OSM    C9F17472   6.324   6.683   4.223 -0.2236  0.1326  0.4812
  156OSM    H9F17473   6.345   6.575   4.220 -0.2414  0.1063 -2.8241
  156OSM   C10F17474   6.259   6.744   4.328  0.1284 -0.1577 -1.0111
  156OSM   H10F17475   6.206   6.681   4.402 -0.4982  0.1014 -1.2279
  156OSM   C11F17476   6.218   6.890   4.322 -0.0944 -0.5295  0.2206
  156OSM   H11F17477   6.110   6.897   4.300 -0.1572 -1.4665  0.1956
  156OSM   H11G17478   6.266   6.948   4.241 -0.5172 -1.7400 -0.9190
  156OSM   C12F17479   6.256   6.960   4.460  0.3392  0.4285  0.4962
  156OSM   H12F17480   6.245   7.070   4.451 -0.1609  0.7032  3.6172
  156OSM   H12G17481   6.364   6.938   4.476  0.3814 -2.9889 -2.9078
  156OSM   C13F17482   6.171   6.902   4.577 -0.6871 -0.4398 -1.1144
  156OSM   H13F17483   6.175   6.792   4.587 -1.6874 -0.3270  0.8739
  156OSM   H13G17484   6.064   6.927   4.559 -0.8644 -0.6364 -0.3429
  156OSM   C14F17485   6.217   6.967   4.705 -0.3557  0.9482 -0.1837
  156OSM   H14F17486   6.317   6.927   4.731 -0.0141  2.4270  0.9193
  156OSM   H14G17487   6.143   6.925   4.777 -1.7681  0.4500 -1.8668
  156OSM   C15F17488   6.224   7.126   4.713 -0.1745  0.5595  0.0184
  156OSM   H15F17489   6.120   7.159   4.692 -0.1156  2.1844  1.9158
  156OSM   H15G17490   6.299   7.172   4.645  1.0299  0.8780  1.4928
  156OSM   C16F17491   6.255   7.165   4.857  0.3547  0.1371  0.2452
  156OSM   H16F17492   6.364   7.151   4.872  0.5349  1.1371 -0.0942
  156OSM   H16G17493   6.199   7.100   4.928  0.7393  1.6993  2.0469
  156OSM   C17F17494   6.221   7.311   4.880 -0.3977 -0.0175 -0.4936
  156OSM   H17F17495   6.133   7.353   4.828 -2.3809 -1.5186  1.4408
  156OSM   H17G17496   6.308   7.366   4.838  1.1925 -1.1078  1.1953
  156OSM   C18F17497   6.216   7.340   5.025 -0.8316 -0.4218 -0.7030
  156OSM   H18F17498   6.232   7.444   5.061 -1.3073 -0.4988 -0.2578
  156OSM   H18G17499   6.297   7.277   5.070 -1.9730 -3.6745 -2.8372
  156OSM   H18H17500   6.117   7.305   5.060 -0.6051 -0.7223 -0.3566
  157OSM      N17501   0.870   2.010   2.165 -0.0808  0.4879  0.5813
  157OSM    C1517502   0.729   1.967   2.161  0.4177  0.3776  0.2800
  157OSM   H15A17503   0.697   1.967   2.264  2.2918  2.7626  0.9566
  157OSM   H15B17504   0.723   1.868   2.118  1.9508  0.0111  0.8374
  157OSM   H15C17505   0.669   2.036   2.102  0.7595  0.3119 -0.1540
  157OSM    C1417506   0.948   1.903   2.227 -0.4292 -0.3356 -0.0337
  157OSM   H14A17507   0.915   1.807   2.191 -1.7587 -0.6477  1.9168
  157OSM   H14B17508   0.927   1.901   2.333 -0.3089 -1.3580 -0.0211
  157OSM   H14C17509   1.055   1.916   2.214 -0.4747  0.7840  0.5270
  157OSM    C1317510   0.913   2.033   2.027  0.2007 -0.1447  0.0477
  157OSM   H13A17511   0.893   2.135   1.999  0.9113  0.2149  0.8096
  157OSM   H13B17512   0.877   1.963   1.952  1.0543  0.7207 -1.2198
  157OSM   H13C17513   1.021   2.035   2.023  0.3111 -1.1433  1.8252
  157OSM    C1217514   0.901   2.134   2.246  0.3052 -0.3233  0.5154
  157OSM   H12A17515   1.009   2.145   2.252  0.4235  0.0913 -1.6173
  157OSM   H12B17516   0.875   2.119   2.350  1.3460  1.7120  1.1248
  157OSM    C1117517   0.829   2.273   2.207 -0.1179  0.3512  0.5144
  157OSM   H11A17518   0.854   2.306   2.104 -1.5288 -0.3161 -0.0701
  157OSM   H11B17519   0.883   2.351   2.266  2.2967 -1.0974  0.3522
  157OSM      P17520   0.616   2.272   2.354  0.2839 -0.5137  0.6938
  157OSM    O1317521   0.492   2.352   2.337  0.3146 -0.2641 -0.1592
  157OSM    O1417522   0.601   2.129   2.395 -0.0122 -0.7267  0.2477
  157OSM    O1117523   0.708   2.352   2.444 -0.0099  0.3211 -0.6257
  157OSM    O1217524   0.690   2.273   2.216  0.0738  0.4797 -0.3937
  157OSM    C1S17525   0.662   2.415   2.566 -0.5829  0.0006  0.4274
  157OSM    H1S17526   0.562   2.380   2.599 -0.0954 -2.3575 -0.3403
  157OSM    H1T17527   0.657   2.525   2.552 -3.8736 -0.1879 -0.8369
  157OSM     NF17528   0.707   2.425   2.817 -0.7090 -0.0666  0.4970
  157OSM    HNF17529   0.725   2.519   2.845  1.4927  0.1366 -1.3122
  157OSM    C2S17530   0.763   2.384   2.689 -0.1984 -0.0288 -0.0581
  157OSM    H2S17531   0.771   2.274   2.681  0.9764  0.1465 -2.5778
  157OSM    C3S17532   0.906   2.438   2.655  0.3113 -0.0640  0.3126
  157OSM    H3S17533   0.891   2.547   2.639  1.1199  0.0421  0.2162
  157OSM     O317534   0.960   2.386   2.538 -0.0234 -0.4233 -0.2414
  157OSM    HO317535   0.876   2.353   2.507 -1.2457  0.0536  2.2778
  157OSM    C4S17536   1.006   2.404   2.757 -0.2527 -0.5784 -0.6304
  157OSM    H4S17537   1.036   2.299   2.751 -2.3725 -1.2793  0.2035
  157OSM    C5S17538   1.049   2.488   2.859  0.6208 -0.3943 -0.2736
  157OSM    H5S17539   1.005   2.586   2.880 -2.3675 -1.5637 -0.5834
  157OSM    C6S17540   1.140   2.446   2.970 -0.0168  0.5388 -0.5967
  157OSM    H6S17541   1.217   2.526   2.977  1.7653 -1.1422  0.2984
  157OSM    H6T17542   1.192   2.348   2.960 -0.5294  0.3405 -1.3872
  157OSM    C7S17543   1.069   2.442   3.114 -0.1138 -0.2783 -0.1657
  157OSM    H7S17544   1.051   2.549   3.141 -1.1931 -0.7677  1.1876
  157OSM    H7T17545   1.144   2.403   3.186  0.9078 -1.9133 -2.0041
  157OSM    C8S17546   0.939   2.367   3.135 -0.0797  0.2586  0.3337
  157OSM    H8S17547   0.957   2.266   3.093 -1.6267 -0.0765  0.4274
  157OSM    H8T17548   0.859   2.406   3.069  0.7591  0.8392 -0.3667
  157OSM    C9S17549   0.889   2.359   3.278 -0.1168 -0.6309  0.5336
  157OSM    H9S17550   0.981   2.353   3.339 -0.5869 -0.0300  1.3093
  157OSM    H9T17551   0.828   2.266   3.285 -0.8051 -0.3315 -0.9483
  157OSM   C10S17552   0.802   2.476   3.310 -0.7725 -0.0135  0.0212
  157OSM   H10S17553   0.708   2.457   3.255 -1.3658 -0.3180  1.1032
  157OSM   H10T17554   0.847   2.576   3.290  0.3854 -0.7794 -1.3874
  157OSM   C11S17555   0.754   2.467   3.455  0.6696  0.3498 -0.0749
  157OSM   H11S17556   0.721   2.363   3.480 -1.2458  1.0224  0.3619
  157OSM   H11T17557   0.664   2.532   3.462  0.7333  0.5934 -1.3232
  157OSM   C12S17558   0.854   2.514   3.562  0.1425  0.7553 -0.1059
  157OSM   H12S17559   0.890   2.617   3.541 -1.1789  1.8619  2.5641
  157OSM   H12T17560   0.939   2.446   3.541  0.4852  0.3321  2.3702
  157OSM   C13S17561   0.793   2.481   3.697 -0.5182 -0.1385  0.8390
  157OSM   H13S17562   0.688   2.516   3.704 -0.5414  0.7919 -2.4183
  157OSM   H13T17563   0.860   2.543   3.761  0.7634 -1.6839  1.0535
  157OSM   C14S17564   0.803   2.336   3.732 -0.1035 -0.6481  0.1947
  157OSM   H14S17565   0.911   2.310   3.723  0.0636 -0.2478  0.9773
  157OSM   H14T17566   0.753   2.271   3.657 -0.4100  1.2040 -1.2984
  157OSM   C15S17567   0.762   2.298   3.873  0.2186  0.2413  0.2055
  157OSM   H15S17568   0.818   2.342   3.959 -1.3654  0.2844  1.2564
  157OSM   H15T17569   0.784   2.190   3.871 -1.1131 -0.0803  1.3962
  157OSM   C16S17570   0.611   2.306   3.906 -0.7245  0.6930  0.2521
  157OSM   H16S17571   0.546   2.288   3.818 -0.2906 -0.4182  0.1429
  157OSM   H16T17572   0.588   2.404   3.953  3.7331  1.6141  0.9805
  157OSM   C17S17573   0.576   2.193   4.012 -0.0241 -0.6954 -0.4162
  157OSM   H17S17574   0.628   2.222   4.106 -1.2399 -2.1654  0.7515
  157OSM   H17T17575   0.615   2.097   3.971  0.3293  0.0650 -1.9382
  157OSM   C18S17576   0.431   2.182   4.039 -0.0141 -0.1590  0.0498
  157OSM   H18S17577   0.396   2.094   4.097  1.7637 -0.3111  0.9366
  157OSM   H18T17578   0.372   2.177   3.944 -0.7387 -5.1595  0.5058
  157OSM   H18U17579   0.401   2.272   4.097 -0.0869 -0.6252  0.7420
  157OSM    C1F17580   0.601   2.359   2.862 -0.1971  0.2207  0.5455
  157OSM     OF17581   0.565   2.256   2.811 -0.3789  0.1543  0.1154
  157OSM    C2F17582   0.529   2.418   2.977  0.5836 -0.9106  0.5338
  157OSM    H2F17583   0.442   2.477   2.940 -0.0015 -1.5400  0.8789
  157OSM    H2G17584   0.603   2.488   3.022  1.8820 -2.6185  1.1516
  157OSM    C3F17585   0.499   2.328   3.095  0.8279 -0.7709  0.4134
  157OSM    H3F17586   0.589   2.274   3.132  0.1329 -1.4379  1.1731
  157OSM    H3G17587   0.431   2.243   3.073  1.9493 -2.0339  1.6327
  157OSM    C4F17588   0.428   2.404   3.219  0.0137  0.8618 -0.3687
  157OSM    H4F17589   0.324   2.438   3.201 -0.7296  0.7572  3.0266
  157OSM    H4G17590   0.490   2.494   3.241  1.0683  0.0176  0.1968
  157OSM    C5F17591   0.432   2.324   3.348 -0.0754 -0.6069  0.3169
  157OSM    H5F17592   0.537   2.315   3.383 -0.0426  0.7943  0.6175
  157OSM    H5G17593   0.393   2.221   3.330  0.0029 -0.9015  1.6958
  157OSM    C6F17594   0.362   2.396   3.455  0.3338 -0.3125  0.2564
  157OSM    H6F17595   0.253   2.404   3.433  0.2324 -0.5213  0.6686
  157OSM    H6G17596   0.409   2.494   3.477  0.3352 -0.5180  1.2260
  157OSM    C7F17597   0.375   2.328   3.596  0.3194  0.5011 -0.0267
  157OSM    H7F17598   0.338   2.399   3.673 -0.9176  0.9512 -0.9970
  157OSM    H7G17599   0.480   2.306   3.622 -0.4605 -1.6142  1.6151
  157OSM    C8F17600   0.291   2.195   3.618 -0.1940 -0.1117  0.4314
  157OSM    H8F17601   0.326   2.155   3.716  0.1495  1.5765  1.0354
  157OSM    H8G17602   0.328   2.125   3.541  1.5355 -0.1944  1.2849
  157OSM    C9F17603   0.148   2.227   3.609  0.1773  0.1176 -0.7154
  157OSM    H9F17604   0.126   2.304   3.533  0.4612  1.3960  0.4588
  157OSM   C10F17605   0.054   2.203   3.699  1.5962  0.2341 -0.3598
  157OSM   H10F17606  -0.045   2.249   3.687  1.9601  0.7966 -1.2592
  157OSM   C11F17607   0.053   2.105   3.819 -0.6130  0.3951  0.0864
  157OSM   H11F17608   0.144   2.041   3.821  1.6536  3.4321  1.3932
  157OSM   H11G17609  -0.023   2.024   3.816  1.4078 -1.5646 -2.0343
  157OSM   C12F17610   0.052   2.197   3.943  0.2269 -0.1870  0.4243
  157OSM   H12F17611  -0.041   2.253   3.965  0.4941  0.9429 -1.2008
  157OSM   H12G17612   0.130   2.275   3.931  2.2883 -1.8289  2.0678
  157OSM   C13F17613   0.093   2.116   4.065  0.1824  0.0940  0.8294
  157OSM   H13F17614   0.161   2.185   4.120 -0.7475  1.8727 -0.2066
  157OSM   H13G17615   0.161   2.031   4.040  1.4042  1.3569 -0.2976
  157OSM   C14F17616  -0.018   2.079   4.161 -0.0154  0.1857  0.3042
  157OSM   H14F17617  -0.104   2.034   4.106  0.8545  0.9320 -1.7668
  157OSM   H14G17618  -0.045   2.173   4.214 -1.8525  0.3174 -0.7810
  157OSM   C15F17619   0.020   1.966   4.248 -0.2405  0.1465 -0.6270
  157OSM   H15F17620   0.121   1.987   4.288  0.3647 -1.8605 -1.0369
  157OSM   H15G17621   0.022   1.870   4.193 -1.3653 -1.1786  1.5012
  157OSM   C16F17622  -0.071   1.946   4.367  0.4095  1.1588  0.1293
  157OSM   H16F17623  -0.093   2.048   4.404  0.9443  1.1785  0.3982
  157OSM   H16G17624  -0.015   1.890   4.445 -0.2220  0.3563  0.0206
  157OSM   C17F17625  -0.204   1.888   4.323  0.5938 -0.2576 -0.2699
  157OSM   H17F17626  -0.202   1.791   4.270 -2.2225 -0.0995 -0.8155
  157OSM   H17G17627  -0.266   1.951   4.256 -0.6833 -0.4992  0.6434
  157OSM   C18F17628  -0.299   1.876   4.446 -0.5013  0.7386  0.0797
  157OSM   H18F17629  -0.256   1.801   4.516 -0.3448  0.7105 -0.0437
  157OSM   H18G17630  -0.398   1.843   4.409  0.2384 -0.5509 -0.8533
  157OSM   H18H17631  -0.315   1.977   4.489  2.1552  1.5527 -0.6420
  158OSM      N17632   2.406   5.293   2.581  0.1501 -0.5808  0.0665
  158OSM    C1517633   2.498   5.353   2.483 -0.3619  0.0419  0.1908
  158OSM   H15A17634   2.479   5.314   2.384 -0.9206 -0.8516  0.6304
  158OSM   H15B17635   2.595   5.328   2.523 -0.2229  1.7934  1.0232
  158OSM   H15C17636   2.496   5.461   2.477 -0.3947 -0.0405 -3.0138
  158OSM    C1417637   2.275   5.344   2.546  0.2794 -0.9440 -0.5202
  158OSM   H14A17638   2.269   5.451   2.537  2.5107 -0.7277 -0.0628
  158OSM   H14B17639   2.198   5.311   2.614  1.0179  0.8675  1.3090
  158OSM   H14C17640   2.239   5.305   2.452  0.8872 -1.7750 -0.4210
  158OSM    C1317641   2.412   5.143   2.562 -0.0006 -0.0058 -0.2821
  158OSM   H13A17642   2.329   5.096   2.612  0.8355 -0.7671  0.4255
  158OSM   H13B17643   2.506   5.109   2.604 -0.4172 -2.9496 -1.4949
  158OSM   H13C17644   2.417   5.106   2.460  0.6766 -1.3290  0.2081
  158OSM    C1217645   2.441   5.334   2.719 -0.0433  0.4403  1.0610
  158OSM   H12A17646   2.371   5.288   2.787 -1.0745 -1.6607 -1.2534
  158OSM   H12B17647   2.430   5.440   2.733 -3.9061  0.2224  0.7715
  158OSM    C1117648   2.585   5.301   2.766 -0.7567  0.0322 -0.4438
  158OSM   H11A17649   2.572   5.329   2.872  1.2816  1.1691 -0.4570
  158OSM   H11B17650   2.651   5.377   2.719 -1.6240  1.6201  0.8175
  158OSM      P17651   2.764   5.131   2.676 -0.3164 -0.0879 -0.6433
  158OSM    O1317652   2.779   4.985   2.650  0.4099 -0.2209 -0.0506
  158OSM    O1417653   2.787   5.224   2.563 -0.3272 -0.4363  0.0529
  158OSM    O1117654   2.870   5.163   2.791 -0.9075  0.7997 -0.0671
  158OSM    O1217655   2.628   5.165   2.750  0.2593 -0.0115 -0.0173
  158OSM    C1S17656   2.842   5.134   2.926 -0.3016  0.4507 -0.4440
  158OSM    H1S17657   2.781   5.042   2.935  1.0061 -0.7220 -2.6902
  158OSM    H1T17658   2.788   5.226   2.958  0.6959  1.2799 -1.0811
  158OSM     NF17659   2.929   5.057   3.142  0.2439  0.2362 -0.2625
  158OSM    HNF17660   2.944   5.117   3.220  0.2577  1.8836 -1.5038
  158OSM    C2S17661   2.969   5.112   3.014  0.3578 -0.0554  0.0551
  158OSM    H2S17662   3.040   5.049   2.958  1.1796  0.1707  0.8232
  158OSM    C3S17663   3.052   5.241   3.035  0.8284  0.0631  0.1207
  158OSM    H3S17664   3.002   5.304   3.111 -1.5321 -0.2687 -1.0682
  158OSM     O317665   3.065   5.317   2.917  0.0714 -0.5997 -0.1706
  158OSM    HO317666   2.987   5.291   2.867 -0.2777 -0.5234  0.3299
  158OSM    C4S17667   3.183   5.225   3.108 -0.0645 -1.0586 -0.5868
  158OSM    H4S17668   3.185   5.266   3.210  2.5422  0.8592 -1.3036
  158OSM    C5S17669   3.301   5.200   3.047  0.0189 -0.1797 -0.1278
  158OSM    H5S17670   3.290   5.167   2.943 -1.4331 -2.8813  0.7746
  158OSM    C6S17671   3.434   5.177   3.109 -0.6940 -0.1333  0.3875
  158OSM    H6S17672   3.489   5.269   3.080 -3.7621  1.7714  0.1101
  158OSM    H6T17673   3.492   5.090   3.071  0.2462  0.1534  1.1378
  158OSM    C7S17674   3.427   5.139   3.258  0.3402  0.0009  0.5900
  158OSM    H7S17675   3.377   5.042   3.278  0.5123 -0.6790 -2.0152
  158OSM    H7T17676   3.374   5.213   3.323  1.4194 -0.0031  1.5082
  158OSM    C8S17677   3.575   5.138   3.309 -0.3744  0.3127 -0.1809
  158OSM    H8S17678   3.613   5.236   3.272 -2.3366  1.5342  0.8964
  158OSM    H8T17679   3.635   5.063   3.252  1.0904  0.3996  1.1776
  158OSM    C9S17680   3.588   5.103   3.453  0.2364 -0.1063 -0.0247
  158OSM    H9S17681   3.680   5.044   3.474  0.7962 -1.5153 -5.0672
  158OSM    H9T17682   3.499   5.039   3.469 -0.2445 -0.0655 -2.1825
  158OSM   C10S17683   3.574   5.223   3.553 -0.6428 -0.1113 -0.0807
  158OSM   H10S17684   3.500   5.289   3.503 -0.5566  0.6045  0.7357
  158OSM   H10T17685   3.668   5.276   3.575 -0.9182  0.5286 -0.4367
  158OSM   C11S17686   3.509   5.175   3.684  0.6384  0.0468  0.3971
  158OSM   H11S17687   3.404   5.141   3.669  1.0703 -0.7973 -0.9338
  158OSM   H11T17688   3.518   5.263   3.750  1.4318  0.2847 -0.0091
  158OSM   C12S17689   3.582   5.060   3.748  0.3653 -0.4197  1.1817
  158OSM   H12S17690   3.690   5.081   3.761  0.0466  3.0725 -0.6267
  158OSM   H12T17691   3.571   4.973   3.679  1.0065  1.0916 -0.9295
  158OSM   C13S17692   3.524   5.033   3.880 -0.1408  0.5349 -0.2546
  158OSM   H13S17693   3.556   4.932   3.911  0.8352  1.2109  1.0480
  158OSM   H13T17694   3.413   5.027   3.885 -0.0756 -0.0728  0.7123
  158OSM   C14S17695   3.557   5.130   3.999 -0.0196  0.1834 -0.4843
  158OSM   H14S17696   3.488   5.217   4.009 -0.1842  0.2265 -1.9106
  158OSM   H14T17697   3.655   5.177   3.976  1.0299 -1.2638  0.8060
  158OSM   C15S17698   3.583   5.069   4.130 -0.1172  0.4626  0.3412
  158OSM   H15S17699   3.670   5.001   4.143 -0.5472  0.3556  3.4725
  158OSM   H15T17700   3.491   5.015   4.164 -0.9692  1.9882  0.5354
  158OSM   C16S17701   3.591   5.179   4.237  0.2249 -0.0246 -0.1875
  158OSM   H16S17702   3.547   5.140   4.331 -0.2579 -1.6582 -1.0539
  158OSM   H16T17703   3.543   5.277   4.215  2.4057  1.5069  1.4729
  158OSM   C17S17704   3.735   5.209   4.266  0.0068  0.4041 -0.1201
  158OSM   H17S17705   3.755   5.317   4.283 -1.2643  0.5368  0.6965
  158OSM   H17T17706   3.795   5.187   4.175 -0.8168 -0.9951 -0.3586
  158OSM   C18S17707   3.785   5.139   4.389  0.2361 -0.6987  0.6371
  158OSM   H18S17708   3.722   5.165   4.477 -0.0097 -1.0281  0.5556
  158OSM   H18T17709   3.892   5.168   4.404  1.1673 -3.2589 -0.4860
  158OSM   H18U17710   3.778   5.029   4.379 -2.7058 -0.5729  0.6279
  158OSM    C1F17711   2.877   4.937   3.168 -0.0747 -0.0126  0.7878
  158OSM     OF17712   2.831   4.873   3.074  0.0276  0.0336 -0.2031
  158OSM    C2F17713   2.855   4.885   3.310  0.6250 -0.3259  0.0407
  158OSM    H2F17714   2.947   4.892   3.371  2.1827 -4.5071 -1.5018
  158OSM    H2G17715   2.828   4.778   3.306  3.2556 -1.0768  0.1669
  158OSM    C3F17716   2.736   4.966   3.378 -0.7033 -0.8086  0.2883
  158OSM    H3F17717   2.643   4.963   3.318 -0.6074 -1.0997  0.1558
  158OSM    H3G17718   2.770   5.072   3.381  0.6916 -1.0979 -2.6482
  158OSM    C4F17719   2.703   4.912   3.516 -0.4968 -0.3433  0.8221
  158OSM    H4F17720   2.802   4.911   3.565 -0.3841  0.0128  0.6016
  158OSM    H4G17721   2.667   4.807   3.506 -1.0092 -0.2696  1.7804
  158OSM    C5F17722   2.616   5.009   3.588 -0.4244  0.3062 -0.3179
  158OSM    H5F17723   2.517   5.026   3.540 -0.2077 -2.1418 -1.8190
  158OSM    H5G17724   2.670   5.105   3.601 -1.1250  1.0466 -2.3689
  158OSM    C6F17725   2.594   4.955   3.726 -0.0392 -0.3276 -0.3115
  158OSM    H6F17726   2.691   4.940   3.777 -0.7011  1.4045  1.5813
  158OSM    H6G17727   2.541   4.858   3.720  1.0731 -1.0352  0.8530
  158OSM    C7F17728   2.506   5.040   3.815 -1.1974 -0.5030 -0.3547
  158OSM    H7F17729   2.416   5.072   3.760  0.2900  3.2649 -0.9502
  158OSM    H7G17730   2.556   5.134   3.848 -0.7295 -1.1062  0.7105
  158OSM    C8F17731   2.457   4.981   3.946 -0.1467 -0.5301  1.0967
  158OSM    H8F17732   2.544   4.974   4.014  1.8355  0.3985 -1.2077
  158OSM    H8G17733   2.438   4.874   3.921  2.0380 -0.3299 -2.0097
  158OSM    C9F17734   2.346   5.055   4.012  0.8768  0.8945 -0.0287
  158OSM    H9F17735   2.274   5.101   3.944 -1.0872 -1.1074  0.5796
  158OSM   C10F17736   2.335   5.075   4.146 -0.3921 -0.4290  0.2926
  158OSM   H10F17737   2.262   5.151   4.177 -1.3374 -0.5201 -1.5508
  158OSM   C11F17738   2.435   5.028   4.252 -0.1782  0.3581  0.4161
  158OSM   H11F17739   2.519   5.100   4.250 -0.1195  0.3106  1.0614
  158OSM   H11G17740   2.475   4.929   4.221  0.4783  1.0562 -1.0887
  158OSM   C12F17741   2.380   5.034   4.397 -0.6325  0.3449 -0.6540
  158OSM   H12F17742   2.350   5.140   4.413 -2.7500 -0.4235  0.9054
  158OSM   H12G17743   2.464   5.021   4.468 -1.5673 -0.3121  0.3587
  158OSM   C13F17744   2.273   4.929   4.422 -0.0082 -0.0160 -0.5576
  158OSM   H13F17745   2.179   4.945   4.365  0.3838  1.7315 -0.7570
  158OSM   H13G17746   2.252   4.940   4.531  1.4404 -1.3597 -0.1060
  158OSM   C14F17747   2.337   4.783   4.406  1.1107  0.0320 -0.2615
  158OSM   H14F17748   2.442   4.791   4.439  0.2077 -0.5071  3.2249
  158OSM   H14G17749   2.328   4.747   4.302 -1.3089 -2.3151  0.6335
  158OSM   C15F17750   2.272   4.680   4.493 -0.0864  0.3151  0.8319
  158OSM   H15F17751   2.165   4.666   4.465  0.0531 -0.4043  0.6249
  158OSM   H15G17752   2.270   4.715   4.598  0.6243 -0.4277  1.1039
  158OSM   C16F17753   2.334   4.540   4.492 -0.3492  1.2730 -0.5461
  158OSM   H16F17754   2.287   4.473   4.568  1.7580 -0.0033 -0.2795
  158OSM   H16G17755   2.443   4.538   4.512 -0.3913  1.8922 -0.2246
  158OSM   C17F17756   2.323   4.468   4.356  0.6609  0.4173  0.7088
  158OSM   H17F17757   2.376   4.528   4.279  1.5169  1.5977  2.1604
  158OSM   H17G17758   2.215   4.457   4.331  1.3513  0.9090 -3.1244
  158OSM   C18F17759   2.374   4.322   4.349 -0.3644  0.0576  0.2532
  158OSM   H18F17760   2.374   4.285   4.244 -0.9412 -2.2461  1.0116
  158OSM   H18G17761   2.323   4.264   4.429  0.7391 -0.0940  0.8656
  158OSM   H18H17762   2.478   4.335   4.385 -0.4422  1.9001 -0.0865
  159OSM      N17763   0.945   0.210   2.646 -0.3990  0.7551  0.3271
  159OSM    C1517764   1.032   0.258   2.530  0.4976 -0.0589  0.0402
  159OSM   H15A17765   1.122   0.309   2.562 -0.0254  0.3763  0.8713
  159OSM   H15B17766   0.980   0.332   2.471  1.5396 -1.8947 -3.3787
  159OSM   H15C17767   1.066   0.181   2.463  0.3514 -1.4521  1.4926
  159OSM    C1417768   0.824   0.157   2.575 -0.1848  0.5438 -0.2801
  159OSM   H14A17769   0.762   0.093   2.637 -0.4634  0.1950 -0.9051
  159OSM   H14B17770   0.846   0.105   2.483  1.2497  2.2034 -0.9257
  159OSM   H14C17771   0.764   0.246   2.562  0.6601  1.1632 -0.0586
  159OSM    C1317772   1.015   0.099   2.721  0.2338  0.2634 -0.0438
  159OSM   H13A17773   1.048   0.031   2.644  1.9178  0.9087  0.0587
  159OSM   H13B17774   0.941   0.060   2.789  0.2748 -0.2826 -0.3048
  159OSM   H13C17775   1.092   0.141   2.785 -0.7778  1.4662  0.4212
  159OSM    C1217776   0.908   0.315   2.742 -0.3868 -0.1588 -0.4805
  159OSM   H12A17777   0.993   0.356   2.795 -1.2981  0.5336  0.4815
  159OSM   H12B17778   0.848   0.275   2.822 -1.0167  0.9947 -0.3555
  159OSM    C1117779   0.832   0.439   2.683  0.3981 -0.3586 -0.6260
  159OSM   H11A17780   0.889   0.474   2.595 -0.0579  2.6051  0.1607
  159OSM   H11B17781   0.829   0.523   2.755 -1.5623  0.4513 -1.5745
  159OSM      P17782   0.590   0.516   2.605  0.3648 -0.4694  0.1532
  159OSM    O1317783   0.647   0.593   2.492  0.5437 -0.4162  0.0372
  159OSM    O1417784   0.460   0.451   2.582  0.0617  0.2367 -0.4788
  159OSM    O1117785   0.584   0.602   2.733  0.1093 -0.2403  0.1940
  159OSM    O1217786   0.700   0.403   2.637  0.0877  0.0648  0.1492
  159OSM    C1S17787   0.511   0.560   2.851 -0.8181 -0.3505  0.3747
  159OSM    H1S17788   0.501   0.449   2.853  0.4466 -0.4927 -0.2306
  159OSM    H1T17789   0.408   0.600   2.841  0.1588  2.7993  1.6199
  159OSM     NF17790   0.497   0.601   3.107  0.0616  0.2293  0.0588
  159OSM    HNF17791   0.479   0.679   3.167 -0.5964 -1.5438  2.3540
  159OSM    C2S17792   0.570   0.621   2.983 -0.1768 -0.3849 -0.9144
  159OSM    H2S17793   0.667   0.568   2.990  0.0957 -0.0786 -2.1290
  159OSM    C3S17794   0.598   0.778   2.965  0.5679 -0.1422 -0.3728
  159OSM    H3S17795   0.497   0.825   2.970  0.5852  0.0797 -1.7894
  159OSM     O317796   0.631   0.819   2.838 -0.2675 -0.0396 -0.1981
  159OSM    HO317797   0.629   0.745   2.777 -0.2408  0.7825 -1.2153
  159OSM    C4S17798   0.695   0.838   3.073  0.3590  0.9970 -0.1209
  159OSM    H4S17799   0.782   0.776   3.098 -0.9694 -1.1784 -0.6842
  159OSM    C5S17800   0.680   0.949   3.143  0.3266  0.3762  0.2898
  159OSM    H5S17801   0.599   1.018   3.114  0.2966  0.8431  1.4538
  159OSM    C6S17802   0.765   0.976   3.261  0.0217 -0.3605  0.1179
  159OSM    H6S17803   0.788   1.083   3.279  2.0645 -0.8656  0.9175
  159OSM    H6T17804   0.854   0.910   3.254 -0.0664 -0.3748 -1.0706
  159OSM    C7S17805   0.684   0.937   3.391 -0.3698  0.1603  0.0400
  159OSM    H7S17806   0.649   0.831   3.385 -2.5204  0.8875 -1.4399
  159OSM    H7T17807   0.599   1.008   3.402 -0.1143  0.4632  0.0810
  159OSM    C8S17808   0.766   0.966   3.523 -0.1173 -0.3886 -0.2736
  159OSM    H8S17809   0.794   1.073   3.523  1.0777 -0.6247  2.2671
  159OSM    H8T17810   0.861   0.910   3.510 -0.9905 -1.5047 -2.2666
  159OSM    C9S17811   0.685   0.933   3.654 -0.3450 -0.5497 -0.3006
  159OSM    H9S17812   0.631   0.837   3.633 -0.6516 -0.9182  1.8940
  159OSM    H9T17813   0.610   1.012   3.673  0.3300 -0.3732  1.9550
  159OSM   C10S17814   0.778   0.904   3.774  0.5711  0.3286  0.0150
  159OSM   H10S17815   0.842   0.994   3.783 -1.4157  2.0570 -1.8228
  159OSM   H10T17816   0.849   0.820   3.759  0.8622  0.3596  1.1576
  159OSM   C11S17817   0.703   0.896   3.907  0.3743 -0.2062 -0.3033
  159OSM   H11S17818   0.623   0.818   3.907 -0.7640  0.9196  0.7244
  159OSM   H11T17819   0.646   0.990   3.920 -0.4247 -0.7587  0.2913
  159OSM   C12S17820   0.789   0.875   4.021 -0.2017  0.4243 -0.5999
  159OSM   H12S17821   0.881   0.937   4.030  1.1258 -1.7023  2.2785
  159OSM   H12T17822   0.829   0.772   4.004 -0.6358 -0.1640  1.6153
  159OSM   C13S17823   0.717   0.865   4.157  0.2938 -0.3625  0.3730
  159OSM   H13S17824   0.623   0.811   4.133 -0.6396  1.0347  0.7722
  159OSM   H13T17825   0.691   0.962   4.203 -0.1238 -1.1297  1.8216
  159OSM   C14S17826   0.808   0.790   4.251  0.0076  0.3791  0.1370
  159OSM   H14S17827   0.901   0.850   4.249  0.3809 -0.2011 -0.2391
  159OSM   H14T17828   0.830   0.687   4.216  1.1789  0.8811 -0.6382
  159OSM   C15S17829   0.761   0.789   4.397 -0.5558  0.0411 -0.4831
  159OSM   H15S17830   0.728   0.889   4.431 -1.5159 -0.4082 -0.0607
  159OSM   H15T17831   0.850   0.764   4.459 -0.7081 -1.7625 -0.9214
  159OSM   C16S17832   0.657   0.689   4.429 -0.9137  0.3645  0.8166
  159OSM   H16S17833   0.688   0.597   4.374  0.3824  0.7939  0.7796
  159OSM   H16T17834   0.568   0.735   4.382 -0.0748  0.3402 -0.8618
  159OSM   C17S17835   0.647   0.659   4.580 -0.3049  0.1368  0.5425
  159OSM   H17S17836   0.613   0.752   4.632  1.2546  0.4909  0.9847
  159OSM   H17T17837   0.746   0.630   4.622 -0.9195 -2.1551  0.5371
  159OSM   C18S17838   0.554   0.543   4.612 -0.3492 -0.5329 -0.6513
  159OSM   H18S17839   0.552   0.517   4.720  0.8462 -1.4682 -0.8400
  159OSM   H18T17840   0.591   0.452   4.562  1.2463  1.0487 -2.5029
  159OSM   H18U17841   0.451   0.563   4.576 -0.2939 -0.0322 -0.5422
  159OSM    C1F17842   0.455   0.486   3.152  0.3648  0.7349 -0.3018
  159OSM     OF17843   0.482   0.388   3.082  0.5823  0.3108  0.2350
  159OSM    C2F17844   0.373   0.482   3.284 -0.1561  0.5102 -0.4619
  159OSM    H2F17845   0.270   0.497   3.247 -1.1367  0.0794  1.9272
  159OSM    H2G17846   0.404   0.564   3.351  2.2571 -1.5757  1.1719
  159OSM    C3F17847   0.377   0.347   3.365 -0.4774  0.2055 -0.1668
  159OSM    H3F17848   0.484   0.325   3.387 -0.2712 -0.2129 -1.5007
  159OSM    H3G17849   0.330   0.274   3.296 -1.2831  0.2466  0.3236
  159OSM    C4F17850   0.296   0.344   3.490  0.4056  0.2735 -0.4627
  159OSM    H4F17851   0.193   0.384   3.476  0.1811 -0.7079 -1.7371
  159OSM    H4G17852   0.346   0.406   3.568  4.0133 -3.0563  0.2167
  159OSM    C5F17853   0.290   0.204   3.568 -0.5068  0.4733 -0.7187
  159OSM    H5F17854   0.386   0.156   3.597 -1.3877 -0.5293  0.7041
  159OSM    H5G17855   0.241   0.120   3.514  0.3406 -1.7551  1.7345
  159OSM    C6F17856   0.197   0.222   3.696  1.0325 -0.4061  0.4322
  159OSM    H6F17857   0.112   0.151   3.685 -2.0461  3.1394 -0.8990
  159OSM    H6G17858   0.134   0.313   3.686  0.2942 -1.2007 -3.9527
  159OSM    C7F17859   0.276   0.217   3.827  0.0999 -0.4776 -0.6794
  159OSM    H7F17860   0.352   0.298   3.822 -0.7855  0.4508  0.3921
  159OSM    H7G17861   0.337   0.124   3.820 -1.0619 -1.2690 -0.5351
  159OSM    C8F17862   0.201   0.225   3.964 -0.0857 -0.1281 -1.1133
  159OSM    H8F17863   0.126   0.307   3.960 -1.4638 -1.2039  0.8643
  159OSM    H8G17864   0.278   0.260   4.036 -0.0043  1.8568 -2.1102
  159OSM    C9F17865   0.138   0.088   3.992 -0.4780  0.4860 -0.1199
  159OSM    H9F17866   0.102   0.047   3.897  0.7690  0.2085 -0.4929
  159OSM   C10F17867   0.136   0.021   4.118 -0.3647  0.3380  0.7769
  159OSM   H10F17868   0.077  -0.071   4.134  0.3077 -0.0631  0.9844
  159OSM   C11F17869   0.204   0.065   4.247  0.1052  0.8185  0.7665
  159OSM   H11F17870   0.130   0.112   4.316  0.6322  1.5708  0.8345
  159OSM   H11G17871   0.287   0.128   4.208  0.3419 -0.6356 -1.2502
  159OSM   C12F17872   0.285  -0.053   4.304 -0.4805  0.2727  0.3833
  159OSM   H12F17873   0.356  -0.015   4.380  0.4314 -1.9706  0.7450
  159OSM   H12G17874   0.337  -0.108   4.222 -0.0582 -1.3164  1.6621
  159OSM   C13F17875   0.197  -0.157   4.370  0.1206 -0.3295  0.9533
  159OSM   H13F17876   0.166  -0.228   4.291 -0.7945  0.3648  0.6649
  159OSM   H13G17877   0.119  -0.094   4.419  0.0315  0.1351  0.2297
  159OSM   C14F17878   0.272  -0.230   4.484  0.2952  0.3238 -0.5117
  159OSM   H14F17879   0.304  -0.171   4.572 -1.1437 -0.1656  0.3701
  159OSM   H14G17880   0.353  -0.286   4.432  0.3060  0.5721 -0.7598
  159OSM   C15F17881   0.189  -0.344   4.551  0.1190  0.1208 -0.2559
  159OSM   H15F17882   0.263  -0.408   4.603 -0.0221  0.9584  1.0394
  159OSM   H15G17883   0.152  -0.411   4.470  3.6651  0.1753 -2.0928
  159OSM   C16F17884   0.071  -0.292   4.625  0.3230  0.2172  0.1576
  159OSM   H16F17885   0.003  -0.380   4.629  4.4406 -3.3062  0.1283
  159OSM   H16G17886   0.014  -0.204   4.588  0.9449  0.6137  0.1229
  159OSM   C17F17887   0.101  -0.263   4.772 -1.0001  0.5892  0.0225
  159OSM   H17F17888   0.010  -0.234   4.828 -1.2564 -0.0900 -0.0324
  159OSM   H17G17889   0.169  -0.175   4.766  1.9881 -1.6185 -1.3880
  159OSM   C18F17890   0.168  -0.371   4.862  0.3108 -0.2416 -0.6613
  159OSM   H18F17891   0.107  -0.463   4.853  0.9559 -0.6893 -0.5513
  159OSM   H18G17892   0.170  -0.345   4.970  1.2964  0.0751 -0.7387
  159OSM   H18H17893   0.273  -0.400   4.840  0.2470 -2.0289  1.0959
  160OSM      N17894   3.542   0.837   2.206  0.4658  0.2028 -0.2118
  160OSM    C1517895   3.670   0.908   2.181 -0.3289  0.3264  0.5152
  160OSM   H15A17896   3.719   0.863   2.095 -0.3782 -1.9782  1.6459
  160OSM   H15B17897   3.740   0.897   2.262 -0.0660 -1.8175  0.0567
  160OSM   H15C17898   3.649   1.010   2.150 -1.8668  0.2268  1.1851
  160OSM    C1417899   3.451   0.823   2.085 -1.0752 -0.1449 -0.1756
  160OSM   H14A17900   3.353   0.792   2.119 -1.0620 -1.3998 -1.2070
  160OSM   H14B17901   3.489   0.742   2.024  1.9066  0.0546  1.2323
  160OSM   H14C17902   3.460   0.914   2.029  2.4712 -0.3846 -0.2441
  160OSM    C1317903   3.581   0.697   2.249  0.5972  0.8541  0.0494
  160OSM   H13A17904   3.670   0.708   2.309  0.9868 -0.4628 -0.2538
  160OSM   H13B17905   3.595   0.628   2.167 -0.4319 -0.1775  0.7182
  160OSM   H13C17906   3.508   0.640   2.304  1.6074 -0.0809  0.4704
  160OSM    C1217907   3.474   0.915   2.311 -0.5455  0.0745 -0.5176
  160OSM   H12A17908   3.438   1.005   2.263  0.6273  2.1266  2.1650
  160OSM   H12B17909   3.543   0.963   2.380  0.8538  0.5623 -2.1883
  160OSM    C1117910   3.361   0.852   2.396  0.2574  0.6901  0.5511
  160OSM   H11A17911   3.315   0.914   2.476 -1.5697  0.3798 -0.1932
  160OSM   H11B17912   3.416   0.772   2.450  0.7385 -0.9195 -2.1061
  160OSM      P17913   3.133   0.876   2.277 -0.0628 -0.4496 -0.1795
  160OSM    O1317914   3.194   0.998   2.216 -0.1492  0.2670  0.4260
  160OSM    O1417915   3.033   0.808   2.193 -0.1718 -0.4482 -0.0784
  160OSM    O1117916   3.075   0.905   2.416  0.1331 -0.1360 -0.5858
  160OSM    O1217917   3.250   0.784   2.318  0.3904 -0.1525  0.0443
  160OSM    C1S17918   3.029   0.799   2.507  0.0774 -0.0528 -0.0091
  160OSM    H1S17919   3.064   0.697   2.481  1.3970  0.5850 -0.8187
  160OSM    H1T17920   2.918   0.790   2.501 -0.3691  2.9356  1.6086
  160OSM     NF17921   3.037   0.702   2.732  0.3636 -0.7668 -0.1793
  160OSM    HNF17922   2.954   0.712   2.786  0.6644  1.6888 -0.0335
  160OSM    C2S17923   3.061   0.821   2.656 -0.3370 -0.5851 -0.3207
  160OSM    H2S17924   3.171   0.826   2.671 -0.2860  0.2190 -0.9256
  160OSM    C3S17925   3.004   0.957   2.714  0.0081 -0.2906  0.2822
  160OSM    H3S17926   2.895   0.944   2.700  0.0843  0.6004 -1.4211
  160OSM     O317927   3.055   1.063   2.630  0.7818  0.0680  0.4187
  160OSM    HO317928   3.100   1.023   2.556  0.3560  0.3830 -0.0146
  160OSM    C4S17929   3.025   0.982   2.863 -0.2119 -0.0630  0.2501
  160OSM    H4S17930   3.129   0.969   2.897 -0.1392 -1.1445 -0.3278
  160OSM    C5S17931   2.929   1.012   2.960  0.4430  0.4808 -0.2361
  160OSM    H5S17932   2.820   1.023   2.946 -0.0632 -2.2644  0.7873
  160OSM    C6S17933   2.970   1.017   3.103 -0.2951  0.3099 -0.8431
  160OSM    H6S17934   2.895   1.064   3.170  1.2579  0.4937  0.8458
  160OSM    H6T17935   3.057   1.084   3.118 -0.9845  0.9495  0.5684
  160OSM    C7S17936   3.002   0.880   3.167 -0.1642  0.6287  0.7909
  160OSM    H7S17937   3.061   0.821   3.093 -2.1593 -0.7417  0.2366
  160OSM    H7T17938   2.911   0.821   3.187  1.4066 -1.6536  1.6331
  160OSM    C8S17939   3.080   0.894   3.299 -0.4104  0.6747 -0.4939
  160OSM    H8S17940   3.008   0.927   3.377 -1.2465  2.1949 -1.8343
  160OSM    H8T17941   3.148   0.981   3.287  0.2366  0.7899  2.9137
  160OSM    C9S17942   3.158   0.769   3.348  0.4685 -0.2596  1.1413
  160OSM    H9S17943   3.231   0.728   3.274 -0.0570 -0.6462  0.8304
  160OSM    H9T17944   3.088   0.686   3.372  0.4287 -1.1997 -1.7760
  160OSM   C10S17945   3.248   0.808   3.464 -0.7756 -0.6453  0.4572
  160OSM   H10S17946   3.319   0.883   3.422  2.2561 -2.7206  1.5584
  160OSM   H10T17947   3.310   0.720   3.488  0.5658  0.2446  0.3439
  160OSM   C11S17948   3.178   0.876   3.584  0.2320  0.7069  0.3883
  160OSM   H11S17949   3.088   0.815   3.608 -0.7723  0.3623 -3.5749
  160OSM   H11T17950   3.142   0.976   3.551 -1.1400 -0.1365 -0.7621
  160OSM   C12S17951   3.269   0.896   3.702  0.3433 -1.2475 -0.7682
  160OSM   H12S17952   3.348   0.969   3.673 -0.3946  0.2168  0.7035
  160OSM   H12T17953   3.322   0.804   3.735 -1.6666 -2.0584  0.3729
  160OSM   C13S17954   3.189   0.952   3.825 -0.1073  0.3486 -0.1190
  160OSM   H13S17955   3.094   0.896   3.839  1.7385 -2.3998  2.8372
  160OSM   H13T17956   3.156   1.058   3.814 -1.6333  0.1062  1.6024
  160OSM   C14S17957   3.284   0.933   3.952 -0.6226  0.8013  0.1940
  160OSM   H14S17958   3.380   0.988   3.937 -0.2038  0.2880  0.9415
  160OSM   H14T17959   3.301   0.824   3.945  1.1891  1.1624 -3.1580
  160OSM   C15S17960   3.189   0.980   4.062 -0.0221  0.1102  0.6320
  160OSM   H15S17961   3.089   0.933   4.052 -1.1296  2.1821  1.5526
  160OSM   H15T17962   3.162   1.083   4.032 -1.1023  0.0079  1.2065
  160OSM   C16S17963   3.241   0.984   4.204 -0.3506  0.0582  0.0381
  160OSM   H16S17964   3.248   0.878   4.237  1.1614 -0.3087 -1.3305
  160OSM   H16T17965   3.171   1.040   4.271  1.1739  0.2227  1.5646
  160OSM   C17S17966   3.387   1.040   4.210  0.0181 -0.0934 -0.2386
  160OSM   H17S17967   3.388   1.133   4.150 -1.5236 -0.1776 -0.4475
  160OSM   H17T17968   3.452   0.962   4.164 -2.2548 -3.4637  1.7335
  160OSM   C18S17969   3.429   1.066   4.352  0.4336 -0.0263  0.3928
  160OSM   H18S17970   3.354   1.131   4.401 -0.5413 -0.9811  0.2056
  160OSM   H18T17971   3.529   1.115   4.354  1.4911 -2.0992  1.5813
  160OSM   H18U17972   3.445   0.972   4.410 -0.2953 -0.2043  0.3148
  160OSM    C1F17973   3.091   0.588   2.733 -0.0986  0.5927 -0.6595
  160OSM     OF17974   3.158   0.545   2.639 -0.1809  0.4708 -0.4061
  160OSM    C2F17975   3.049   0.492   2.846 -0.6530  0.1183 -0.0615
  160OSM    H2F17976   2.961   0.435   2.810 -1.1537  1.0645 -0.3658
  160OSM    H2G17977   3.015   0.552   2.934  1.0112 -0.6015  1.1228
  160OSM    C3F17978   3.166   0.420   2.909 -0.0747  0.5512 -0.3825
  160OSM    H3F17979   3.227   0.377   2.827 -0.6939 -0.7144 -0.1972
  160OSM    H3G17980   3.123   0.336   2.967 -0.2969  0.9515  0.0363
  160OSM    C4F17981   3.256   0.508   2.992 -0.2680  0.2182 -0.2299
  160OSM    H4F17982   3.189   0.572   3.052  0.1936 -0.1429  0.6874
  160OSM    H4G17983   3.320   0.578   2.934  0.3197  0.4586  0.6975
  160OSM    C5F17984   3.329   0.411   3.090  0.0395  0.3346  0.3294
  160OSM    H5F17985   3.396   0.344   3.032 -1.6437  0.2361 -1.5966
  160OSM    H5G17986   3.243   0.351   3.126 -0.0053 -2.2092 -3.4246
  160OSM    C6F17987   3.421   0.470   3.195  0.9503 -0.4860 -0.2987
  160OSM    H6F17988   3.364   0.533   3.267 -0.2780  1.6094 -2.9019
  160OSM    H6G17989   3.509   0.515   3.145  1.4118 -1.8562 -0.7721
  160OSM    C7F17990   3.473   0.356   3.286 -0.0001 -0.1194  0.8560
  160OSM    H7F17991   3.539   0.302   3.214  0.4590  1.3514  0.1042
  160OSM    H7G17992   3.395   0.289   3.326  0.9661 -0.6588  1.9000
  160OSM    C8F17993   3.547   0.404   3.410  0.3387 -0.7281 -0.1937
  160OSM    H8F17994   3.469   0.414   3.488 -1.6791 -2.3817 -1.9010
  160OSM    H8G17995   3.580   0.508   3.388 -2.0731  0.1092 -0.1112
  160OSM    C9F17996   3.660   0.316   3.459 -0.0148 -0.0818  0.2321
  160OSM    H9F17997   3.704   0.263   3.374 -0.5150 -2.2785  1.2386
  160OSM   C10F17998   3.691   0.283   3.588  0.2654 -0.0305  0.2661
  160OSM   H10F17999   3.776   0.216   3.607  0.8179 -0.1043 -2.1868
  160OSM   C11F18000   3.627   0.346   3.713 -0.1438  0.4300 -0.3214
  160OSM   H11F18001   3.540   0.286   3.749  1.0579 -1.2679 -0.1198
  160OSM   H11G18002   3.579   0.439   3.677 -1.8337  0.0714  0.8661
  160OSM   C12F18003   3.707   0.379   3.836  0.5044 -0.4330 -0.3329
  160OSM   H12F18004   3.635   0.404   3.917 -0.8722  1.3900 -2.0222
  160OSM   H12G18005   3.771   0.470   3.834 -0.2616  0.1346  0.5048
  160OSM   C13F18006   3.798   0.275   3.893 -0.0856  0.2900 -0.1190
  160OSM   H13F18007   3.858   0.320   3.974 -0.0165  0.2750 -0.1624
  160OSM   H13G18008   3.872   0.253   3.814 -0.8675  1.8786 -1.3563
  160OSM   C14F18009   3.742   0.139   3.925  0.7991  0.3040 -0.0243
  160OSM   H14F18010   3.818   0.061   3.947 -1.4555 -1.5090  2.0224
  160OSM   H14G18011   3.686   0.094   3.840 -1.6707 -0.5046  1.8940
  160OSM   C15F18012   3.646   0.146   4.051  1.1734  0.8098  0.1050
  160OSM   H15F18013   3.591   0.049   4.051  1.2411  0.6313 -3.5308
  160OSM   H15G18014   3.568   0.222   4.030 -0.8242 -0.7195  1.5412
  160OSM   C16F18015   3.713   0.170   4.185 -0.6833  0.4959 -0.4011
  160OSM   H16F18016   3.803   0.234   4.173 -1.7100  2.1828  0.5657
  160OSM   H16G18017   3.736   0.068   4.223 -0.6707  0.8468  0.5668
  160OSM   C17F18018   3.623   0.240   4.280 -0.4759 -0.5496  0.0438
  160OSM   H17F18019   3.527   0.185   4.281 -0.5222 -0.4951 -0.9497
  160OSM   H17G18020   3.604   0.343   4.243  1.6471  0.0181  0.3969
  160OSM   C18F18021   3.666   0.246   4.429 -0.0176 -0.5868  0.0629
  160OSM   H18F18022   3.768   0.290   4.432 -0.0636 -0.5092  0.4832
  160OSM   H18G18023   3.679   0.147   4.477  0.1722 -0.8789 -0.5776
  160OSM   H18H18024   3.589   0.308   4.480  0.5536  1.0014 -0.9273
  161OSM      N18025   0.242   5.462   2.796  0.4155 -0.3128  0.6476
  161OSM    C1518026   0.244   5.482   2.646  0.5239  0.2683 -0.3431
  161OSM   H15A18027   0.167   5.419   2.604  2.3840 -1.3890 -1.3729
  161OSM   H15B18028   0.342   5.470   2.603  0.0989  1.4655 -1.7179
  161OSM   H15C18029   0.222   5.587   2.633 -1.0504  0.1306  0.8516
  161OSM    C1418030   0.292   5.333   2.838 -0.2578  0.0238 -0.2394
  161OSM   H14A18031   0.385   5.297   2.797 -1.6272 -2.3668 -1.5115
  161OSM   H14B18032   0.235   5.250   2.799  2.3513 -0.2962 -3.8340
  161OSM   H14C18033   0.301   5.323   2.945  1.3441  2.7614 -0.0321
  161OSM    C1318034   0.327   5.573   2.854  0.3283  0.3290  0.1954
  161OSM   H13A18035   0.335   5.559   2.960  0.9088  1.0555  0.2506
  161OSM   H13B18036   0.287   5.671   2.834  0.1575 -0.1016 -1.8806
  161OSM   H13C18037   0.424   5.564   2.805  0.2539  0.9444 -0.0676
  161OSM    C1218038   0.104   5.481   2.857 -0.0050  0.1010  0.0359
  161OSM   H12A18039   0.101   5.448   2.960  1.7141 -2.5474 -0.6721
  161OSM   H12B18040   0.036   5.417   2.803 -0.8418 -0.8336  2.0975
  161OSM    C1118041   0.047   5.626   2.862  0.1858 -0.3073  0.5183
  161OSM   H11A18042   0.107   5.675   2.942 -0.3478 -2.0312  2.0466
  161OSM   H11B18043  -0.058   5.629   2.897 -0.1420  0.1445 -0.4737
  161OSM      P18044   0.091   5.853   2.745 -0.3864  0.0326 -0.0289
  161OSM    O1318045   0.209   5.870   2.833  0.0189 -0.5250 -0.5629
  161OSM    O1418046   0.098   5.911   2.613  0.1932  0.3789 -0.3556
  161OSM    O1118047  -0.032   5.916   2.815  0.2403  0.4747  0.3590
  161OSM    O1218048   0.059   5.695   2.740 -0.3612 -0.1562 -0.7328
  161OSM    C1S18049  -0.030   5.944   2.954  0.3486 -0.3653 -0.3397
  161OSM    H1S18050   0.037   5.879   3.014 -2.2582 -1.0146  2.0657
  161OSM    H1T18051  -0.131   5.913   2.988  0.0928 -0.9838 -1.5712
  161OSM     NF18052  -0.020   6.103   3.127  0.1025  0.3670  0.7794
  161OSM    HNF18053  -0.113   6.124   3.158 -1.2340 -1.7626 -1.4916
  161OSM    C2S18054  -0.007   6.093   2.983 -0.6616  0.3138  0.5662
  161OSM    H2S18055   0.099   6.115   2.958 -1.0055 -0.6139 -2.0494
  161OSM    C3S18056  -0.099   6.181   2.896 -0.8326 -0.4079  0.5170
  161OSM    H3S18057  -0.202   6.139   2.897 -0.7265 -0.6658  0.5118
  161OSM     O318058  -0.051   6.183   2.757  0.7575  0.1631 -0.7671
  161OSM    HO318059  -0.022   6.092   2.748 -0.8810 -0.6096  1.0221
  161OSM    C4S18060  -0.092   6.321   2.944  0.2096  0.1090  0.7106
  161OSM    H4S18061  -0.189   6.350   2.986 -0.8477 -0.1901 -1.4157
  161OSM    C5S18062   0.019   6.403   2.948  0.6666  0.2308 -0.3295
  161OSM    H5S18063   0.114   6.369   2.904  0.1988  0.8459 -1.9106
  161OSM    C6S18064   0.025   6.545   3.010 -0.0426  0.1210  0.4046
  161OSM    H6S18065  -0.078   6.575   3.038  0.6697  3.0440  0.3136
  161OSM    H6T18066   0.044   6.622   2.932  3.2931 -0.3847  0.5779
  161OSM    C7S18067   0.116   6.551   3.132 -0.3088  0.4405  0.6804
  161OSM    H7S18068   0.127   6.655   3.169 -1.8002  0.8556  0.0582
  161OSM    H7T18069   0.213   6.521   3.087 -0.9560  0.2523 -0.6368
  161OSM    C8S18070   0.070   6.460   3.256  0.2318 -0.4544  0.6894
  161OSM    H8S18071   0.152   6.462   3.331  1.1567 -0.7514 -0.2816
  161OSM    H8T18072   0.057   6.354   3.223  0.7767 -1.1208  2.4989
  161OSM    C9S18073  -0.062   6.501   3.334 -0.3051 -0.7566  0.0634
  161OSM    H9S18074  -0.080   6.421   3.409 -0.5724  0.6055  1.5029
  161OSM    H9T18075  -0.150   6.486   3.267  0.5054  1.2143 -1.5367
  161OSM   C10S18076  -0.068   6.634   3.404 -0.8576  0.9086  0.3977
  161OSM   H10S18077  -0.094   6.709   3.326 -1.5582 -0.0111 -0.2685
  161OSM   H10T18078   0.033   6.662   3.442 -0.2871  1.3174 -1.3034
  161OSM   C11S18079  -0.172   6.653   3.512  0.5830  0.0368  0.1994
  161OSM   H11S18080  -0.267   6.607   3.476  0.2676 -0.4210  1.5665
  161OSM   H11T18081  -0.192   6.759   3.540  2.2625  0.3827  0.2084
  161OSM   C12S18082  -0.137   6.586   3.644 -0.3254 -0.6446  1.0708
  161OSM   H12S18083  -0.032   6.616   3.663  0.3634 -0.9782 -1.6983
  161OSM   H12T18084  -0.125   6.478   3.623 -1.6699 -0.6505  0.1763
  161OSM   C13S18085  -0.239   6.626   3.748 -0.4914  0.4873 -1.1138
  161OSM   H13S18086  -0.336   6.586   3.710  0.4757 -1.6668 -1.4525
  161OSM   H13T18087  -0.241   6.737   3.748 -0.5773  0.4956  0.2789
  161OSM   C14S18088  -0.209   6.575   3.892 -0.5979 -0.3209  0.6901
  161OSM   H14S18089  -0.196   6.465   3.892 -0.8264 -0.3795  2.2533
  161OSM   H14T18090  -0.297   6.606   3.953  0.7314  1.1222  1.9861
  161OSM   C15S18091  -0.087   6.649   3.954  0.1305  0.5889  0.7491
  161OSM   H15S18092  -0.114   6.756   3.956  0.7037  1.0731 -4.4295
  161OSM   H15T18093  -0.008   6.632   3.878 -0.4794 -0.3024  0.3008
  161OSM   C16S18094  -0.054   6.590   4.097  0.5483  0.8266  0.4700
  161OSM   H16S18095   0.035   6.647   4.132  1.2914 -0.8461  1.4237
  161OSM   H16T18096  -0.026   6.483   4.087  0.7892  0.9104  0.2297
  161OSM   C17S18097  -0.162   6.609   4.193  0.1908 -0.4984 -0.1488
  161OSM   H17S18098  -0.254   6.565   4.147  0.1989 -0.3943 -0.2657
  161OSM   H17T18099  -0.184   6.718   4.201 -0.9148 -0.5964 -1.3912
  161OSM   C18S18100  -0.147   6.549   4.332 -0.0366 -0.1942 -0.3042
  161OSM   H18S18101  -0.134   6.439   4.325 -1.2534 -0.6189  2.7113
  161OSM   H18T18102  -0.228   6.571   4.405  1.8995  1.4990  1.4709
  161OSM   H18U18103  -0.061   6.598   4.384 -1.1005  1.4244 -0.0171
  161OSM    C1F18104   0.080   6.069   3.216  0.4139 -0.1745 -0.5283
  161OSM     OF18105   0.186   6.020   3.183 -0.0047 -0.2703  0.3526
  161OSM    C2F18106   0.052   6.090   3.358 -0.3663 -0.0202 -1.0250
  161OSM    H2F18107   0.015   6.000   3.412  0.3829  0.3010  0.0622
  161OSM    H2G18108  -0.035   6.158   3.369  0.9958  1.3627  2.8781
  161OSM    C3F18109   0.180   6.156   3.430  0.6577 -0.7257  0.4689
  161OSM    H3F18110   0.223   6.242   3.376  0.5773 -0.9802 -0.0050
  161OSM    H3G18111   0.261   6.080   3.431  3.8720  2.4163 -1.2329
  161OSM    C4F18112   0.151   6.206   3.569  0.1553  0.1892  0.0676
  161OSM    H4F18113   0.100   6.303   3.558  0.2010  0.2439  0.3401
  161OSM    H4G18114   0.249   6.232   3.613  0.1888 -0.6157  0.4950
  161OSM    C5F18115   0.079   6.095   3.654 -0.2327 -0.1668  0.3327
  161OSM    H5F18116   0.116   5.995   3.624  1.9257 -0.0102  2.1719
  161OSM    H5G18117  -0.028   6.091   3.625  0.7415 -0.4975 -3.9167
  161OSM    C6F18118   0.098   6.116   3.802 -0.0979 -0.7009 -0.6327
  161OSM    H6F18119   0.070   6.220   3.829  2.1904  0.2899 -1.7478
  161OSM    H6G18120   0.203   6.107   3.837 -0.0238  0.0943 -0.6447
  161OSM    C7F18121   0.008   6.024   3.892 -0.8006 -0.6826  1.1976
  161OSM    H7F18122   0.050   5.921   3.882 -0.6331 -0.5560  0.5308
  161OSM    H7G18123  -0.084   6.015   3.830  1.7858  3.2751 -3.9695
  161OSM    C8F18124  -0.013   6.082   4.029  0.5809  0.3318  0.0098
  161OSM    H8F18125  -0.095   6.019   4.071 -1.2701  2.4513 -0.2130
  161OSM    H8G18126  -0.056   6.184   4.017  2.4291  0.9448 -2.1580
  161OSM    C9F18127   0.105   6.084   4.126  0.2526  0.5079  0.6974
  161OSM    H9F18128   0.202   6.090   4.075 -0.3096 -0.7667 -0.5912
  161OSM   C10F18129   0.107   6.056   4.254  0.2384 -0.7890  0.4449
  161OSM   H10F18130   0.203   6.047   4.307  1.3052  1.5174 -0.9573
  161OSM   C11F18131  -0.025   6.042   4.336 -0.0666  0.1928 -0.5232
  161OSM   H11F18132  -0.059   5.938   4.315  1.6657 -0.6345  0.5294
  161OSM   H11G18133  -0.111   6.101   4.297 -1.6878 -1.0681  0.9931
  161OSM   C12F18134  -0.017   6.057   4.483 -0.5425 -0.6440  0.3375
  161OSM   H12F18135   0.010   6.162   4.506 -2.8276  0.5736 -2.0249
  161OSM   H12G18136   0.067   5.994   4.521  0.8992  2.5545  2.8474
  161OSM   C13F18137  -0.142   6.004   4.561 -0.2853 -0.4385 -0.3676
  161OSM   H13F18138  -0.176   5.908   4.518  1.2118 -0.2502 -2.0791
  161OSM   H13G18139  -0.231   6.070   4.551 -0.4584 -0.5526  0.3759
  161OSM   C14F18140  -0.117   5.989   4.711 -0.4979  0.3545  0.0882
  161OSM   H14F18141  -0.014   5.949   4.726 -0.6316  0.4446  1.3394
  161OSM   H14G18142  -0.188   5.913   4.749 -1.4547  0.8173 -0.7048
  161OSM   C15F18143  -0.124   6.124   4.783  0.4298 -0.1927  0.2953
  161OSM   H15F18144  -0.208   6.187   4.746  2.1260  2.0748  0.0684
  161OSM   H15G18145  -0.048   6.191   4.738 -1.0946  0.4376 -1.5164
  161OSM   C16F18146  -0.114   6.117   4.931 -0.3628 -0.5612 -0.1719
  161OSM   H16F18147  -0.026   6.059   4.965  1.3256  3.1725  2.4904
  161OSM   H16G18148  -0.202   6.058   4.966 -2.0437  0.6246 -2.1178
  161OSM   C17F18149  -0.103   6.263   4.981 -0.3487  0.1552  0.3375
  161OSM   H17F18150  -0.043   6.331   4.916 -0.1317  0.6219  1.0053
  161OSM   H17G18151  -0.051   6.258   5.080  0.7654 -0.2665 -0.2534
  161OSM   C18F18152  -0.233   6.337   5.016  0.2398 -0.1556  0.3795
  161OSM   H18F18153  -0.286   6.373   4.925  0.4326 -2.4905 -0.7359
  161OSM   H18G18154  -0.213   6.422   5.084 -1.0284  0.1077  0.4462
  161OSM   H18H18155  -0.301   6.267   5.070  2.4914 -1.3071  1.8452
  162OSM      N18156   0.721   4.996   2.285  0.3423 -0.3485 -0.1579
  162OSM    C1518157   0.787   5.106   2.365 -0.4503 -0.6878  0.2032
  162OSM   H15A18158   0.893   5.088   2.375 -0.1589 -0.3509 -1.8583
  162OSM   H15B18159   0.736   5.123   2.459 -1.8598 -1.7521 -0.3356
  162OSM   H15C18160   0.780   5.198   2.309  2.9914 -0.3747  0.0785
  162OSM    C1418161   0.582   5.029   2.247 -0.1699 -0.5491 -0.0977
  162OSM   H14A18162   0.518   5.029   2.333  1.0562 -1.2331  0.8505
  162OSM   H14B18163   0.537   4.952   2.186 -0.8515 -2.4066  2.5884
  162OSM   H14C18164   0.574   5.118   2.187 -2.0179 -0.8952 -0.4220
  162OSM    C1318165   0.808   4.985   2.163 -0.1387 -0.1766  0.0363
  162OSM   H13A18166   0.906   4.945   2.185 -0.6727 -1.2714  0.5227
  162OSM   H13B18167   0.815   5.077   2.108 -0.4900  0.6547  1.3217
  162OSM   H13C18168   0.760   4.920   2.092  1.0573 -2.1551  0.9494
  162OSM    C1218169   0.728   4.872   2.368  0.0217 -0.1550  0.1845
  162OSM   H12A18170   0.831   4.863   2.396  0.4686  0.2905 -1.2098
  162OSM   H12B18171   0.711   4.795   2.294  1.8239  2.1625 -2.9004
  162OSM    C1118172   0.645   4.856   2.486  0.5213  0.0618 -0.6111
  162OSM   H11A18173   0.657   4.757   2.535  2.1311  0.8267  0.6320
  162OSM   H11B18174   0.537   4.855   2.459  0.3829  2.8536 -0.4800
  162OSM      P18175   0.799   4.968   2.676 -0.0468  0.1463  0.2183
  162OSM    O1318176   0.882   4.849   2.638 -0.4040 -0.4537 -0.0309
  162OSM    O1418177   0.863   5.102   2.664 -0.0152  0.3339  0.7118
  162OSM    O1118178   0.738   4.953   2.823 -0.4291 -0.4313  0.6058
  162OSM    O1218179   0.666   4.962   2.582  0.1249  0.6417 -0.4858
  162OSM    C1S18180   0.818   4.981   2.936 -0.3046 -0.4531 -0.7242
  162OSM    H1S18181   0.907   5.043   2.915 -1.4938  1.2719 -0.9186
  162OSM    H1T18182   0.845   4.887   2.989  1.5659 -0.0597 -0.9335
  162OSM     NF18183   0.805   5.086   3.174 -0.2714  0.0856 -0.7291
  162OSM    HNF18184   0.791   5.033   3.257 -0.7754 -1.6113 -1.8288
  162OSM    C2S18185   0.732   5.062   3.045 -0.3380  0.1971  0.1532
  162OSM    H2S18186   0.715   5.159   2.995 -0.5397 -0.0888 -0.3385
  162OSM    C3S18187   0.587   4.999   3.070  0.2768 -1.2046  0.2053
  162OSM    H3S18188   0.597   4.898   3.115  0.0071 -0.2388  2.5725
  162OSM     O318189   0.513   4.990   2.950  0.6105  0.2290  0.4702
  162OSM    HO318190   0.575   4.994   2.876 -1.0904  2.6948 -0.9759
  162OSM    C4S18191   0.514   5.079   3.168 -0.1053 -0.4747 -0.2845
  162OSM    H4S18192   0.506   5.188   3.156 -4.3454 -0.4198  1.3340
  162OSM    C5S18193   0.444   5.036   3.275  0.4323  0.3328  0.0328
  162OSM    H5S18194   0.437   4.928   3.293 -2.3467  0.3222 -0.6746
  162OSM    C6S18195   0.368   5.131   3.365  0.4982 -0.3803 -0.3702
  162OSM    H6S18196   0.259   5.112   3.356 -0.5295  3.8122  1.1287
  162OSM    H6T18197   0.377   5.238   3.336 -0.8261 -0.2565 -0.4113
  162OSM    C7S18198   0.394   5.110   3.517  0.6206  0.5279  0.4649
  162OSM    H7S18199   0.435   5.007   3.531  0.4819  0.4427  0.2439
  162OSM    H7T18200   0.302   5.115   3.578  0.4856 -2.8314  0.7162
  162OSM    C8S18201   0.498   5.206   3.570 -0.5030  0.1746  0.0801
  162OSM    H8S18202   0.448   5.306   3.576 -0.4838  0.2445 -0.8253
  162OSM    H8T18203   0.580   5.206   3.495 -1.9653  1.1858 -1.5851
  162OSM    C9S18204   0.559   5.161   3.703 -0.7286 -0.2977 -0.5148
  162OSM    H9S18205   0.628   5.240   3.740  0.6035 -2.1761  1.2184
  162OSM    H9T18206   0.619   5.072   3.675  1.2218  0.7648  0.1116
  162OSM   C10S18207   0.467   5.104   3.808 -0.4194  0.8569  0.1853
  162OSM   H10S18208   0.437   5.002   3.776 -0.4256  1.3423 -1.4347
  162OSM   H10T18209   0.373   5.160   3.827 -0.4212  0.5643  1.0928
  162OSM   C11S18210   0.542   5.102   3.952  1.0488 -0.4637  0.4332
  162OSM   H11S18211   0.566   5.208   3.976 -1.0584  0.1446  0.0576
  162OSM   H11T18212   0.642   5.054   3.941  1.2591  0.4930 -2.9334
  162OSM   C12S18213   0.467   5.022   4.061  1.6046 -0.3652 -0.2977
  162OSM   H12S18214   0.536   4.961   4.124  0.1660 -2.0494 -0.2874
  162OSM   H12T18215   0.414   4.945   4.000 -2.1361  0.1723  1.9813
  162OSM   C13S18216   0.377   5.098   4.150  0.5753  0.4661  0.1008
  162OSM   H13S18217   0.294   5.139   4.089 -0.1276 -0.5813  0.3333
  162OSM   H13T18218   0.429   5.183   4.199  0.7451  1.4869 -1.7666
  162OSM   C14S18219   0.317   5.017   4.267 -0.0400 -0.1735 -0.5016
  162OSM   H14S18220   0.277   4.924   4.222  0.2816 -0.5101 -0.1040
  162OSM   H14T18221   0.240   5.072   4.324  1.2520  0.8016  0.3743
  162OSM   C15S18222   0.427   4.968   4.363 -0.7201 -0.5256 -0.0617
  162OSM   H15S18223   0.497   5.053   4.372  0.7254 -1.7995  1.4434
  162OSM   H15T18224   0.490   4.889   4.316  0.1966  0.6847 -0.9129
  162OSM   C16S18225   0.381   4.934   4.498  0.1719 -0.5693 -0.0432
  162OSM   H16S18226   0.351   4.828   4.511  2.2169 -1.2805 -0.7341
  162OSM   H16T18227   0.305   5.007   4.534  4.0950  2.8165  2.4228
  162OSM   C17S18228   0.491   4.947   4.606  0.2663 -0.6140  0.0598
  162OSM   H17S18229   0.525   5.053   4.599 -1.2767 -0.1874 -1.8203
  162OSM   H17T18230   0.583   4.886   4.588  0.8202  0.0275  0.6560
  162OSM   C18S18231   0.429   4.934   4.752 -1.1799  0.3730  0.5882
  162OSM   H18S18232   0.382   4.835   4.774 -1.9094  0.8927  1.3896
  162OSM   H18T18233   0.360   5.018   4.774  1.2080  2.1000  1.8473
  162OSM   H18U18234   0.516   4.942   4.820 -0.8590 -0.7132  0.3383
  162OSM    C1F18235   0.898   5.176   3.181 -0.6737 -0.4479 -0.7344
  162OSM     OF18236   0.917   5.244   3.081  0.5570  0.2229 -0.2839
  162OSM    C2F18237   0.968   5.203   3.305  0.1015  0.5499 -0.1792
  162OSM    H2F18238   0.952   5.308   3.339  0.1095  0.2394  0.8282
  162OSM    H2G18239   1.075   5.181   3.285  0.3554  0.8910  0.7274
  162OSM    C3F18240   0.919   5.101   3.414  0.2889 -0.2816  0.3434
  162OSM    H3F18241   0.926   4.995   3.381 -2.0543 -1.0369  1.9966
  162OSM    H3G18242   0.811   5.125   3.422  0.2901 -0.2538  0.2810
  162OSM    C4F18243   0.989   5.122   3.549 -0.7946 -0.0817 -0.1379
  162OSM    H4F18244   0.967   5.222   3.592 -1.3264  0.0593 -0.7405
  162OSM    H4G18245   1.100   5.111   3.545 -0.3562  1.6204  3.5426
  162OSM    C5F18246   0.943   5.018   3.652  0.7475 -0.0336 -0.0161
  162OSM    H5F18247   0.982   4.916   3.627 -1.9085 -1.8633  2.6071
  162OSM    H5G18248   0.834   5.001   3.663  0.9752 -2.1667 -0.5862
  162OSM    C6F18249   1.001   5.065   3.788 -0.0106 -0.5400 -0.3009
  162OSM    H6F18250   0.939   5.151   3.821  1.2882  0.0114  0.7765
  162OSM    H6G18251   1.108   5.095   3.784 -0.7511  2.2318 -2.6433
  162OSM    C7F18252   0.990   4.959   3.901 -0.2898 -0.0655 -0.2193
  162OSM    H7F18253   1.060   4.874   3.883 -0.4458 -0.5198  1.1695
  162OSM    H7G18254   0.887   4.918   3.907 -0.0401 -0.6972 -0.0880
  162OSM    C8F18255   1.006   5.014   4.045  0.7496 -1.7877  0.1819
  162OSM    H8F18256   1.101   5.071   4.049 -0.2426 -0.1261  3.1678
  162OSM    H8G18257   1.027   4.923   4.105  2.2686 -0.6888  1.3970
  162OSM    C9F18258   0.883   5.087   4.098  0.3849 -0.8003 -0.0862
  162OSM    H9F18259   0.815   5.134   4.025  1.1120  2.0247  0.9168
  162OSM   C10F18260   0.837   5.080   4.227 -0.7203 -0.1534 -0.2979
  162OSM   H10F18261   0.749   5.139   4.255 -0.5476  0.5725 -1.2339
  162OSM   C11F18262   0.909   5.009   4.342  0.2728  0.3842  1.0602
  162OSM   H11F18263   0.996   5.072   4.372  0.8188  2.6117 -4.2602
  162OSM   H11G18264   0.963   4.916   4.316  1.9916  1.8701 -1.0387
  162OSM   C12F18265   0.824   4.981   4.466 -0.7035  0.4777 -0.3758
  162OSM   H12F18266   0.748   4.900   4.454  0.2492 -0.4428 -0.3764
  162OSM   H12G18267   0.775   5.073   4.502  0.3914  0.2247  1.9652
  162OSM   C13F18268   0.917   4.943   4.575  0.1342 -0.0382  0.3811
  162OSM   H13F18269   1.024   4.968   4.556 -0.1557  0.6730 -0.3446
  162OSM   H13G18270   0.923   4.833   4.588  1.9928 -0.2108 -1.4008
  162OSM   C14F18271   0.868   4.999   4.708 -0.4095  0.3954  0.4484
  162OSM   H14F18272   0.764   4.961   4.719  0.1204 -0.7492  1.8001
  162OSM   H14G18273   0.868   5.110   4.711  0.9278  0.5467 -2.0903
  162OSM   C15F18274   0.926   4.922   4.829  0.2695  0.0664  0.5243
  162OSM   H15F18275   1.036   4.925   4.823  0.3839 -1.6660  1.1837
  162OSM   H15G18276   0.908   4.813   4.820  1.3978 -0.0492 -0.7006
  162OSM   C16F18277   0.886   4.974   4.970 -0.2997  0.3730  0.8899
  162OSM   H16F18278   0.785   4.934   4.992 -0.9976 -0.2526 -2.8954
  162OSM   H16G18279   0.874   5.084   4.976 -0.2699  0.4552 -0.3645
  162OSM   C17F18280   0.980   4.933   5.081 -0.2369  0.5131 -0.0913
  162OSM   H17F18281   1.023   4.832   5.063  0.7586  0.8675  0.1912
  162OSM   H17G18282   0.926   4.923   5.177  1.6311 -1.0404  0.8734
  162OSM   C18F18283   1.093   5.033   5.109 -0.6481 -0.0211  0.4311
  162OSM   H18F18284   1.051   5.130   5.142 -0.4711  0.5880 -1.0557
  162OSM   H18G18285   1.151   5.049   5.016 -2.2754 -0.3366 -0.6870
  162OSM   H18H18286   1.154   4.986   5.188  0.9340  0.8234 -0.2459
  163OSM      N18287   1.632   0.656   2.610 -0.2646 -0.3352  0.1236
  163OSM    C1518288   1.669   0.682   2.473 -0.3324  0.3345  0.5567
  163OSM   H15A18289   1.633   0.774   2.429 -1.6845 -1.1433 -1.5831
  163OSM   H15B18290   1.610   0.609   2.420  0.4095 -0.0125  0.1953
  163OSM   H15C18291   1.771   0.663   2.445 -0.6529  1.4878 -1.5406
  163OSM    C1418292   1.674   0.521   2.653 -0.8532  0.1005  0.3460
  163OSM   H14A18293   1.625   0.456   2.583 -0.1577  0.4313 -0.4617
  163OSM   H14B18294   1.650   0.492   2.755 -0.4783 -0.1074  0.3773
  163OSM   H14C18295   1.781   0.510   2.651 -0.5147  2.7662  0.1501
  163OSM    C1318296   1.691   0.765   2.697 -0.2995  0.7339  0.3658
  163OSM   H13A18297   1.650   0.863   2.674 -2.9262 -0.6447 -1.4235
  163OSM   H13B18298   1.797   0.770   2.676 -0.2204 -1.5226 -0.0766
  163OSM   H13C18299   1.680   0.743   2.802 -0.8056  0.2623  0.2238
  163OSM    C1218300   1.482   0.673   2.616  0.2246 -0.7191  0.1573
  163OSM   H12A18301   1.439   0.609   2.541  0.4757 -1.2349  0.4440
  163OSM   H12B18302   1.455   0.775   2.592  0.7933 -0.5086  0.3691
  163OSM    C1118303   1.406   0.651   2.753 -0.0140 -0.3468 -0.2903
  163OSM   H11A18304   1.300   0.683   2.756  0.3193  0.7230  0.7645
  163OSM   H11B18305   1.456   0.713   2.831 -1.6863 -0.5893  1.0388
  163OSM      P18306   1.311   0.410   2.767 -0.1220  0.1565  0.4990
  163OSM    O1318307   1.245   0.448   2.642  0.0675  0.1627  0.4817
  163OSM    O1418308   1.374   0.273   2.774  0.2352  0.2586  0.2740
  163OSM    O1118309   1.205   0.417   2.882  0.3538 -1.0766 -0.6755
  163OSM    O1218310   1.425   0.519   2.796 -0.4737 -0.0728 -0.6245
  163OSM    C1S18311   1.222   0.340   3.006 -0.3398  0.3241  0.8304
  163OSM    H1S18312   1.327   0.337   3.041 -0.4653  0.7009  1.2549
  163OSM    H1T18313   1.176   0.239   3.000  0.7366 -0.2853  2.3758
  163OSM     NF18314   1.119   0.319   3.218  0.1515  0.9203 -0.1629
  163OSM    HNF18315   1.033   0.269   3.216 -0.7322  2.2880  1.1574
  163OSM    C2S18316   1.141   0.415   3.116  0.4558 -0.2919 -0.0275
  163OSM    H2S18317   1.210   0.486   3.166  0.5709 -1.3654  1.4144
  163OSM    C3S18318   1.013   0.490   3.073 -0.4836  0.3050  0.0949
  163OSM    H3S18319   0.946   0.411   3.035  2.2747 -1.0881 -2.1764
  163OSM     O318320   1.041   0.588   2.978  0.1295  0.3271  0.7928
  163OSM    HO318321   1.124   0.557   2.941 -1.8569 -1.8688 -2.3920
  163OSM    C4S18322   0.961   0.557   3.201 -1.1030 -0.6438  0.7802
  163OSM    H4S18323   0.992   0.662   3.216 -1.8495 -0.2201 -0.4912
  163OSM    C5S18324   0.854   0.509   3.268 -0.0434  0.1619  0.5993
  163OSM    H5S18325   0.795   0.426   3.227 -1.2999  1.0802  0.4956
  163OSM    C6S18326   0.779   0.571   3.387 -0.3541 -0.2255 -0.1829
  163OSM    H6S18327   0.681   0.605   3.348 -0.5680 -1.1757 -0.4932
  163OSM    H6T18328   0.838   0.663   3.408  0.8417 -0.5920 -1.7053
  163OSM    C7S18329   0.766   0.476   3.502  0.0891 -0.6370 -0.6788
  163OSM    H7S18330   0.866   0.441   3.535  0.6001 -0.3110 -1.8530
  163OSM    H7T18331   0.699   0.395   3.463  2.7597 -1.9215 -2.9524
  163OSM    C8S18332   0.709   0.537   3.629  0.1213  0.0103 -0.5213
  163OSM    H8S18333   0.611   0.583   3.605  0.5093  0.2876 -1.6347
  163OSM    H8T18334   0.773   0.612   3.681 -1.6246  0.0479  1.7403
  163OSM    C9S18335   0.675   0.429   3.739 -0.3010  0.1070 -0.1528
  163OSM    H9S18336   0.604   0.357   3.693 -0.0539 -0.2915  0.0844
  163OSM    H9T18337   0.629   0.476   3.829  0.7618  1.2152 -0.1516
  163OSM   C10S18338   0.792   0.343   3.789  0.7292 -0.3304 -0.7201
  163OSM   H10S18339   0.862   0.328   3.704  1.3010  2.2779 -0.7963
  163OSM   H10T18340   0.753   0.243   3.817 -0.2079 -0.0001 -0.8047
  163OSM   C11S18341   0.861   0.410   3.904 -0.0435  0.4214  0.6809
  163OSM   H11S18342   0.799   0.374   3.989  0.0101  0.2943  0.6657
  163OSM   H11T18343   0.842   0.520   3.903 -0.9398  0.2849 -0.7151
  163OSM   C12S18344   1.009   0.374   3.915  0.0317  0.0875 -0.6667
  163OSM   H12S18345   1.065   0.423   3.833  2.4528 -2.1006 -0.4490
  163OSM   H12T18346   1.029   0.267   3.891 -1.5603 -0.3394 -0.2049
  163OSM   C13S18347   1.064   0.410   4.052  0.6551 -0.6283  0.4443
  163OSM   H13S18348   1.035   0.515   4.076  1.7471 -0.4027  0.8796
  163OSM   H13T18349   1.175   0.408   4.058  0.5834 -2.3986  2.4215
  163OSM   C14S18350   1.003   0.320   4.160 -0.0916  0.3674  0.3279
  163OSM   H14S18351   0.898   0.290   4.137 -0.3132 -0.5236  2.3180
  163OSM   H14T18352   1.009   0.377   4.255 -1.3652  2.2247 -0.6625
  163OSM   C15S18353   1.078   0.181   4.171  0.2348 -0.0192 -0.7842
  163OSM   H15S18354   1.150   0.172   4.087  0.8979 -0.9281 -0.1376
  163OSM   H15T18355   1.006   0.098   4.161 -0.7376  0.5831  0.8758
  163OSM   C16S18356   1.156   0.165   4.299 -0.4975  0.0594  0.2552
  163OSM   H16S18357   1.217   0.258   4.298 -1.3282  0.6564  1.5478
  163OSM   H16T18358   1.224   0.077   4.309  0.6202  0.8864  0.2126
  163OSM   C17S18359   1.069   0.172   4.434 -0.3897  0.3302  0.4941
  163OSM   H17S18360   1.000   0.087   4.452 -1.0709  1.0981  1.7007
  163OSM   H17T18361   1.013   0.266   4.454 -0.8054  0.0456  0.6778
  163OSM   C18S18362   1.167   0.167   4.555  1.2445 -0.2836  0.3634
  163OSM   H18S18363   1.257   0.105   4.533  1.4996  0.0363  0.4970
  163OSM   H18T18364   1.120   0.124   4.645  1.6800  0.8634  1.1620
  163OSM   H18U18365   1.197   0.272   4.576  0.9169 -0.2185  0.4999
  163OSM    C1F18366   1.206   0.264   3.299 -0.3073 -0.2655  0.0240
  163OSM     OF18367   1.315   0.320   3.310  0.4621  0.2393 -0.5187
  163OSM    C2F18368   1.172   0.131   3.359 -0.1634 -0.3469  0.5111
  163OSM    H2F18369   1.237   0.061   3.304  0.4556 -0.1373  0.9632
  163OSM    H2G18370   1.066   0.103   3.338 -0.3416 -0.5801  1.6221
  163OSM    C3F18371   1.218   0.114   3.507 -0.3905  0.0356 -0.3190
  163OSM    H3F18372   1.173   0.188   3.576  0.9867  0.3013  0.3223
  163OSM    H3G18373   1.327   0.135   3.519 -0.8474  1.8359  1.2940
  163OSM    C4F18374   1.193  -0.029   3.562  0.0393 -0.1643  0.5619
  163OSM    H4F18375   1.250  -0.042   3.657 -0.3753 -0.3176  0.7919
  163OSM    H4G18376   1.228  -0.087   3.474 -0.1555  1.1783 -0.4205
  163OSM    C5F18377   1.047  -0.051   3.586  0.7719  0.0142  0.0546
  163OSM    H5F18378   1.017  -0.151   3.550  1.0746  0.1379 -0.5479
  163OSM    H5G18379   0.989   0.023   3.527  1.9853  1.9652  1.1968
  163OSM    C6F18380   1.004  -0.039   3.731 -0.3879  0.4061  0.3905
  163OSM    H6F18381   0.906   0.012   3.730 -0.7173 -0.2117  0.4657
  163OSM    H6G18382   1.071   0.020   3.797 -1.4021  1.1089  0.8125
  163OSM    C7F18383   0.976  -0.174   3.797 -0.8005 -0.5102  0.0628
  163OSM    H7F18384   1.063  -0.239   3.772 -0.9681 -0.0439 -1.9179
  163OSM    H7G18385   0.890  -0.224   3.747 -0.4050  0.3795 -1.5831
  163OSM    C8F18386   0.961  -0.176   3.949  0.5960 -0.3243  0.3497
  163OSM    H8F18387   1.047  -0.117   3.986  0.2683 -0.6443  1.6757
  163OSM    H8G18388   0.968  -0.281   3.985 -1.0337 -0.3756  0.5809
  163OSM    C9F18389   0.826  -0.117   3.985  0.3418  0.2794 -0.2481
  163OSM    H9F18390   0.811  -0.013   3.951  0.1545  0.6670  0.9441
  163OSM   C10F18391   0.733  -0.166   4.070  0.3381 -0.2221 -0.6833
  163OSM   H10F18392   0.636  -0.115   4.078 -0.1667 -1.1682 -0.5551
  163OSM   C11F18393   0.736  -0.308   4.136 -0.7051 -0.6365 -0.1162
  163OSM   H11F18394   0.822  -0.360   4.088  0.7052  0.5496  0.9835
  163OSM   H11G18395   0.644  -0.360   4.104 -0.9608 -0.0073 -0.4169
  163OSM   C12F18396   0.743  -0.315   4.288 -0.2681 -0.2694 -0.7610
  163OSM   H12F18397   0.736  -0.419   4.326  2.1702  0.4939  2.1377
  163OSM   H12G18398   0.657  -0.257   4.326  0.6126 -0.0773  1.0284
  163OSM   C13F18399   0.869  -0.249   4.339 -0.1794  0.1048  0.3624
  163OSM   H13F18400   0.851  -0.139   4.337 -2.8041 -0.2551  0.9622
  163OSM   H13G18401   0.956  -0.274   4.275 -0.4309 -0.8493  0.3847
  163OSM   C14F18402   0.908  -0.293   4.486  0.0401 -0.6996  0.1206
  163OSM   H14F18403   0.811  -0.275   4.537 -1.2598 -1.6563 -1.8900
  163OSM   H14G18404   0.987  -0.220   4.517 -1.8969  1.6692 -0.1739
  163OSM   C15F18405   0.959  -0.433   4.516  0.5083 -0.5586 -0.4592
  163OSM   H15F18406   1.059  -0.453   4.471  0.4480 -2.6280  0.2070
  163OSM   H15G18407   0.887  -0.497   4.463 -0.6083 -0.6764  1.1203
  163OSM   C16F18408   0.960  -0.467   4.669  0.6599 -0.4464 -0.0618
  163OSM   H16F18409   1.004  -0.379   4.721 -1.9551  0.6288  0.5079
  163OSM   H16G18410   1.018  -0.560   4.680 -0.6109 -1.3515 -0.7120
  163OSM   C17F18411   0.824  -0.472   4.738 -0.0352  0.1226  0.3312
  163OSM   H17F18412   0.793  -0.365   4.743  0.6041  0.3035  0.4591
  163OSM   H17G18413   0.821  -0.498   4.846  0.9447  1.0820  0.6079
  163OSM   C18F18414   0.707  -0.555   4.674  0.0150  0.2081 -0.1951
  163OSM   H18F18415   0.614  -0.528   4.729  1.2625  1.6059  1.3202
  163OSM   H18G18416   0.720  -0.665   4.682 -1.5214  0.0751  1.0131
  163OSM   H18H18417   0.695  -0.527   4.567 -1.1049  0.5579  0.0018
  164OSM      N18418   2.227   6.992   2.310 -0.1058  0.1822 -0.3242
  164OSM    C1518419   2.275   7.080   2.196  0.0781  0.4526  0.1484
  164OSM   H15A18420   2.215   7.073   2.106 -2.4306 -1.8182  1.8334
  164OSM   H15B18421   2.380   7.060   2.181  0.5030  2.2135  0.5315
  164OSM   H15C18422   2.270   7.182   2.232 -0.9163 -0.3368  2.3668
  164OSM    C1418423   2.077   7.018   2.332 -0.3443 -0.2230  0.5841
  164OSM   H14A18424   2.030   6.927   2.365  1.4254 -1.5195 -0.3259
  164OSM   H14B18425   2.038   7.062   2.241  0.4953  3.2723  1.7410
  164OSM   H14C18426   2.064   7.105   2.395  0.3448  0.7296 -0.5454
  164OSM    C1318427   2.252   6.850   2.269  0.0299 -0.3364  1.4088
  164OSM   H13A18428   2.221   6.845   2.166  0.2122  2.0386  1.1847
  164OSM   H13B18429   2.184   6.785   2.322 -0.4210  0.3956  1.7433
  164OSM   H13C18430   2.351   6.810   2.291 -0.6062 -1.8130  1.7366
  164OSM    C1218431   2.310   7.021   2.439  0.9856 -0.1270 -0.0719
  164OSM   H12A18432   2.280   7.115   2.481 -0.2153  0.0543 -1.2732
  164OSM   H12B18433   2.412   7.039   2.409  0.9702  0.6284  0.3173
  164OSM    C1118434   2.319   6.908   2.546  0.0589  0.4682 -0.1482
  164OSM   H11A18435   2.219   6.886   2.591  0.2354  0.8304  0.4390
  164OSM   H11B18436   2.380   6.963   2.622  1.0963  1.2692 -1.5241
  164OSM      P18437   2.356   6.657   2.582  0.2974 -0.1115  0.6207
  164OSM    O1318438   2.214   6.623   2.566 -0.5204 -0.1417 -0.4192
  164OSM    O1418439   2.454   6.554   2.547  0.1946  0.2147 -0.2461
  164OSM    O1118440   2.385   6.700   2.734 -0.2159  0.0789 -0.4644
  164OSM    O1218441   2.386   6.791   2.497  0.0252 -0.0203  0.0196
  164OSM    C1S18442   2.355   6.622   2.848  0.2702  1.2334  0.0801
  164OSM    H1S18443   2.424   6.535   2.841 -1.6635 -0.2453 -1.7791
  164OSM    H1T18444   2.250   6.591   2.833 -0.0465  2.9001 -1.4503
  164OSM     NF18445   2.355   6.590   3.097  0.6026  0.0485 -0.4119
  164OSM    HNF18446   2.263   6.603   3.133  1.5766  2.2442  1.5679
  164OSM    C2S18447   2.384   6.688   2.989 -0.5120  0.0284 -0.6068
  164OSM    H2S18448   2.489   6.723   2.999 -0.7401  0.1044  3.8390
  164OSM    C3S18449   2.298   6.817   2.989  0.8603  0.4981  0.0902
  164OSM    H3S18450   2.192   6.784   2.980  0.8448  0.7556 -0.7361
  164OSM     O318451   2.321   6.912   2.882  0.1249  0.2263  0.0526
  164OSM    HO318452   2.365   6.858   2.816 -1.4867 -1.2608  0.1309
  164OSM    C4S18453   2.299   6.878   3.132  0.0806 -0.4411  0.5095
  164OSM    H4S18454   2.207   6.859   3.190 -1.3973  2.1097 -0.8170
  164OSM    C5S18455   2.384   6.969   3.175 -0.2642  0.0695  0.3022
  164OSM    H5S18456   2.465   7.008   3.112 -0.9868  0.9837 -0.1002
  164OSM    C6S18457   2.377   7.043   3.309  0.2230  0.4985 -1.2828
  164OSM    H6S18458   2.329   6.987   3.393  1.4823 -0.2962 -1.0709
  164OSM    H6T18459   2.311   7.133   3.308 -1.5050 -0.1979  5.1167
  164OSM    C7S18460   2.512   7.093   3.361  0.2059  1.6550  0.5874
  164OSM    H7S18461   2.557   7.159   3.284  1.4887  0.5845  0.3844
  164OSM    H7T18462   2.575   7.002   3.372 -1.4708  0.2121 -0.8178
  164OSM    C8S18463   2.506   7.171   3.491  0.1928  0.1069  0.7853
  164OSM    H8S18464   2.466   7.102   3.569  1.0878 -0.6206  0.6223
  164OSM    H8T18465   2.438   7.258   3.477 -1.1540 -1.0161  0.0861
  164OSM    C9S18466   2.641   7.226   3.534 -0.1214 -0.1523 -0.0733
  164OSM    H9S18467   2.661   7.310   3.465 -0.0367 -0.7047 -0.7313
  164OSM    H9T18468   2.723   7.152   3.532 -1.9938 -2.3825  0.6609
  164OSM   C10S18469   2.623   7.306   3.673  0.2846  0.4049  0.5248
  164OSM   H10S18470   2.612   7.224   3.747  0.1445 -2.8340 -2.7962
  164OSM   H10T18471   2.536   7.376   3.677 -0.8811 -0.8733 -1.0487
  164OSM   C11S18472   2.751   7.389   3.697  0.1764  0.1313 -0.2011
  164OSM   H11S18473   2.761   7.474   3.627 -2.8206  2.2696  1.7394
  164OSM   H11T18474   2.831   7.316   3.671 -1.1235 -1.2726 -0.4363
  164OSM   C12S18475   2.789   7.447   3.838 -0.1613 -0.1657  0.1583
  164OSM   H12S18476   2.889   7.492   3.855 -1.4094  2.0088  2.5246
  164OSM   H12T18477   2.791   7.351   3.894 -0.5649 -0.5566 -0.4827
  164OSM   C13S18478   2.679   7.548   3.886  0.3080 -0.2832  0.0354
  164OSM   H13S18479   2.590   7.488   3.912  0.5666 -1.3439 -1.3659
  164OSM   H13T18480   2.655   7.618   3.803 -1.9262 -0.9930  0.0304
  164OSM   C14S18481   2.728   7.618   4.009  0.2283  0.8013  0.2289
  164OSM   H14S18482   2.805   7.689   3.972  0.8407 -0.9501 -2.0187
  164OSM   H14T18483   2.788   7.549   4.072 -1.6969  0.5773  1.9443
  164OSM   C15S18484   2.628   7.684   4.104 -0.3521  0.0491  1.2403
  164OSM   H15S18485   2.579   7.764   4.044 -0.1046 -0.2332  0.6669
  164OSM   H15T18486   2.679   7.742   4.184  2.1174 -1.9253  1.2128
  164OSM   C16S18487   2.524   7.590   4.165 -0.1134 -0.3956 -0.0572
  164OSM   H16S18488   2.464   7.535   4.088 -0.9718 -2.2685  1.8499
  164OSM   H16T18489   2.448   7.637   4.230 -1.2154 -1.7152 -0.3419
  164OSM   C17S18490   2.573   7.490   4.271 -0.0751 -0.0541 -0.0210
  164OSM   H17S18491   2.647   7.424   4.221  2.4434  1.6918  1.2226
  164OSM   H17T18492   2.487   7.437   4.318 -1.9045  2.4397 -0.3621
  164OSM   C18S18493   2.649   7.553   4.391  0.4376 -0.4903  0.6719
  164OSM   H18S18494   2.668   7.488   4.480 -2.0668 -0.2949  1.4213
  164OSM   H18T18495   2.576   7.621   4.440  0.7918  1.1411 -0.9959
  164OSM   H18U18496   2.741   7.605   4.360  0.3960 -0.4609  0.5995
  164OSM    C1F18497   2.436   6.494   3.135  0.3774 -0.4863  0.6497
  164OSM     OF18498   2.539   6.468   3.077 -0.0111 -0.0169 -0.1750
  164OSM    C2F18499   2.385   6.410   3.249 -0.6290 -0.3528  0.6142
  164OSM    H2F18500   2.381   6.308   3.205 -1.3221 -0.2314  0.3772
  164OSM    H2G18501   2.283   6.438   3.282 -0.5425  2.4354 -1.1761
  164OSM    C3F18502   2.475   6.436   3.374 -0.3885  0.4541  0.2686
  164OSM    H3F18503   2.572   6.384   3.356 -0.8217  0.0134 -0.8541
  164OSM    H3G18504   2.425   6.373   3.451  1.9766 -2.4106 -0.3156
  164OSM    C4F18505   2.487   6.581   3.434  0.3514 -0.3071 -0.1902
  164OSM    H4F18506   2.380   6.611   3.440  0.2839 -0.8341  2.6923
  164OSM    H4G18507   2.530   6.650   3.359 -0.4874  2.9579  2.1127
  164OSM    C5F18508   2.557   6.593   3.568  0.1782  0.3396 -0.6765
  164OSM    H5F18509   2.660   6.551   3.563  0.3357  0.4580  1.0532
  164OSM    H5G18510   2.496   6.534   3.640 -0.3999 -1.1872 -2.3245
  164OSM    C6F18511   2.564   6.740   3.618 -0.1857  0.7702 -0.8192
  164OSM    H6F18512   2.475   6.802   3.592 -0.7126 -0.0017 -0.9144
  164OSM    H6G18513   2.648   6.785   3.561  1.3246 -0.3005  0.4976
  164OSM    C7F18514   2.579   6.744   3.773 -0.0282 -1.0848  0.1620
  164OSM    H7F18515   2.661   6.676   3.802  1.1832  0.4581  0.4710
  164OSM    H7G18516   2.484   6.714   3.823  0.4451 -0.4527  1.4812
  164OSM    C8F18517   2.608   6.890   3.822  0.0528 -0.1964  0.1525
  164OSM    H8F18518   2.587   6.889   3.931 -1.7182 -1.6840 -0.1581
  164OSM    H8G18519   2.537   6.958   3.770  1.4780  0.9166 -0.4085
  164OSM    C9F18520   2.756   6.931   3.803  0.6115 -0.1927 -0.4132
  164OSM    H9F18521   2.791   6.935   3.699 -0.5192 -1.3310 -0.8579
  164OSM   C10F18522   2.853   6.961   3.894  0.5619  0.3011  1.0940
  164OSM   H10F18523   2.954   6.973   3.851 -0.6236 -1.2337 -2.4826
  164OSM   C11F18524   2.829   6.951   4.042 -0.8251 -0.5853 -0.0888
  164OSM   H11F18525   2.916   6.913   4.100 -0.1449  0.2835 -0.5165
  164OSM   H11G18526   2.741   6.897   4.083  0.2544 -0.9943  1.8108
  164OSM   C12F18527   2.832   7.095   4.095  0.0047  0.1804  1.0748
  164OSM   H12F18528   2.741   7.142   4.052  0.4163  0.2329  0.2362
  164OSM   H12G18529   2.926   7.140   4.056 -0.0844 -1.4994 -1.3496
  164OSM   C13F18530   2.841   7.104   4.248 -0.1939  0.4022 -0.4276
  164OSM   H13F18531   2.872   7.207   4.273  3.5127 -0.3548 -1.3366
  164OSM   H13G18532   2.925   7.044   4.289  1.2978  2.8282  0.2368
  164OSM   C14F18533   2.710   7.068   4.325  0.2274 -0.1528  0.4317
  164OSM   H14F18534   2.677   6.963   4.307 -2.0269  0.9377 -2.7463
  164OSM   H14G18535   2.637   7.136   4.277  0.6654 -1.2931 -2.0158
  164OSM   C15F18536   2.724   7.090   4.473 -0.1742  0.8356 -0.2859
  164OSM   H15F18537   2.816   7.149   4.494 -0.6956  1.5532  0.0280
  164OSM   H15G18538   2.725   6.991   4.525 -1.9024  1.0308  0.1633
  164OSM   C16F18539   2.609   7.160   4.547  0.3230 -0.4724 -0.2039
  164OSM   H16F18540   2.508   7.137   4.507 -0.4906  0.5006  1.1934
  164OSM   H16G18541   2.622   7.271   4.551  0.1189 -0.4636  0.2668
  164OSM   C17F18542   2.607   7.124   4.698 -0.1847  0.0998 -0.2509
  164OSM   H17F18543   2.713   7.118   4.732 -0.3612  2.4017  0.9186
  164OSM   H17G18544   2.567   7.022   4.715  1.2498 -0.3762  0.4413
  164OSM   C18F18545   2.522   7.224   4.785 -0.3941  0.2786  0.2585
  164OSM   H18F18546   2.470   7.174   4.869 -3.0254  0.7327 -1.0057
  164OSM   H18G18547   2.435   7.256   4.724 -2.5823 -2.6656  1.5878
  164OSM   H18H18548   2.571   7.321   4.808  0.5635  0.3083 -1.7094
  165SAPS     N18549   6.900   5.091   7.337  0.1102  0.4045 -0.0545
  165SAPS   HN118550   6.820   5.055   7.281 -1.4217  2.1406  0.8969
  165SAPS   HN218551   6.965   5.012   7.356 -0.6863 -0.6610 -1.6107
  165SAPS   HN318552   6.853   5.135   7.419  1.2392 -0.5435  1.1398
  165SAPS   C1218553   6.973   5.189   7.250 -0.3879 -0.1691 -0.2670
  165SAPS  H12A18554   7.040   5.241   7.316 -1.0771  1.5531 -0.8643
  165SAPS   C1318555   7.059   5.129   7.142 -0.2416  0.1485  0.2709
  165SAPS  O13A18556   7.074   5.001   7.137 -0.1111  0.3201  0.3796
  165SAPS  O13B18557   7.148   5.207   7.089  0.2440  0.0211 -0.5161
  165SAPS   C1118558   6.872   5.282   7.171 -0.0409  0.0236  0.9528
  165SAPS  H11A18559   6.842   5.221   7.083  0.7878 -2.8271  2.4846
  165SAPS  H11B18560   6.925   5.375   7.142 -0.2302  0.8382  3.0604
  165SAPS     P18561   6.640   5.374   7.153 -0.3624 -0.0113 -0.2233
  165SAPS   O1318562   6.585   5.266   7.068 -0.0167  0.1291 -0.2694
  165SAPS   O1418563   6.550   5.448   7.239 -0.0045 -0.1998  0.2417
  165SAPS   O1218564   6.755   5.312   7.242 -0.6924 -0.0547  0.4055
  165SAPS   O1118565   6.710   5.474   7.057 -0.6106 -0.2697  0.7570
  165SAPS    C118566   6.655   5.499   6.923  0.3497  0.2077 -0.1395
  165SAPS    HA18567   6.552   5.458   6.914  1.4135 -2.4963 -1.1974
  165SAPS    HB18568   6.646   5.609   6.905  0.7861  0.2602 -0.0382
  165SAPS    C218569   6.735   5.420   6.821 -0.6116 -0.3741 -0.0902
  165SAPS    HS18570   6.738   5.314   6.854 -1.7979 -0.7393 -1.0704
  165SAPS   O2118571   6.866   5.472   6.802  0.0787 -0.2840  0.2975
  165SAPS   C2118572   6.958   5.371   6.797  0.1571  0.0725  0.4849
  165SAPS   O2218573   6.950   5.255   6.821  0.0008 -0.0740  0.1509
  165SAPS   C2218574   7.082   5.454   6.752 -0.6537  0.3688  0.4839
  165SAPS   H2R18575   7.076   5.554   6.800  1.4001  1.4963 -1.4127
  165SAPS   H2S18576   7.165   5.398   6.800  0.5566  1.5782 -0.1456
  165SAPS    C318577   6.667   5.413   6.684  0.3530 -0.3189  0.3933
  165SAPS    HX18578   6.687   5.506   6.626  0.8137 -0.6806 -0.0404
  165SAPS    HY18579   6.559   5.397   6.700  0.2263  1.2039  1.1549
  165SAPS   O3118580   6.718   5.300   6.606 -0.3130  0.1818  0.5340
  165SAPS   C3118581   6.635   5.212   6.565 -0.0481 -0.1848 -0.1149
  165SAPS   O3218582   6.515   5.217   6.590  0.0017  0.4484 -0.4508
  165SAPS   C3218583   6.689   5.100   6.477 -1.1738 -0.5657  0.0527
  165SAPS   H2X18584   6.649   5.114   6.375  1.0354 -0.0086 -0.8049
  165SAPS   H2Y18585   6.659   5.003   6.522 -0.6265  0.1781  2.1638
  165SAPS   C2318586   7.093   5.467   6.599 -0.3551  0.4069  0.7074
  165SAPS   H3R18587   7.047   5.379   6.550  0.1088 -0.2340  1.4005
  165SAPS   H3S18588   7.198   5.465   6.564 -0.5245  1.5121  0.0702
  165SAPS   C2418589   7.023   5.587   6.533 -0.1847 -0.2456  0.5336
  165SAPS   H4R18590   6.915   5.593   6.559  0.0715  4.3060  1.5303
  165SAPS   H4S18591   7.011   5.579   6.423  0.0996  1.6203  0.3250
  165SAPS   C2518592   7.091   5.717   6.581 -0.3327  0.2256 -0.6384
  165SAPS   H5R18593   7.092   5.742   6.688  2.1446  0.3320 -0.6389
  165SAPS   C2618594   7.170   5.793   6.504 -0.0137 -0.8001  0.1570
  165SAPS   H6R18595   7.185   5.895   6.541 -0.3192 -0.9665  0.7516
  165SAPS   C2718596   7.198   5.772   6.356  0.1121  0.0397 -0.4189
  165SAPS   H7R18597   7.219   5.665   6.339 -0.3931 -0.1392  0.0492
  165SAPS   H7S18598   7.298   5.818   6.338  0.6148 -0.3628  1.1375
  165SAPS   C2818599   7.095   5.815   6.256  0.0156 -0.5476 -0.2022
  165SAPS   H8R18600   6.993   5.837   6.291  0.4308 -1.1842  1.5148
  165SAPS   C2918601   7.134   5.843   6.124 -0.4378 -0.3768 -0.3201
  165SAPS   H9R18602   7.056   5.862   6.048 -0.1138 -1.1832 -0.8580
  165SAPS  C21018603   7.269   5.831   6.057 -0.8922 -0.1627 -0.3628
  165SAPS  H10R18604   7.345   5.875   6.124 -2.2139  0.8219  0.5517
  165SAPS  H10S18605   7.265   5.899   5.970  1.2127  0.7697  0.2018
  165SAPS  C21118606   7.317   5.693   6.024 -0.2159 -0.3118 -0.1919
  165SAPS  H11R18607   7.305   5.615   6.101  0.4275  0.1348  0.3741
  165SAPS  C21218608   7.355   5.655   5.901 -1.0494  0.0346  0.6147
  165SAPS  H12R18609   7.382   5.549   5.892  1.2044  0.4743  1.5588
  165SAPS  C21318610   7.364   5.740   5.776  0.4910 -0.0341 -0.2680
  165SAPS  H13R18611   7.472   5.748   5.751  0.4790  1.9689  0.1051
  165SAPS  H13S18612   7.327   5.844   5.789  1.6652  0.2136  1.2784
  165SAPS  C21418613   7.282   5.670   5.662  0.2513 -0.6474  0.1381
  165SAPS  H14R18614   7.174   5.688   5.657  0.4878  0.6224 -1.2214
  165SAPS  C21518615   7.332   5.586   5.569  0.6541 -0.2805  0.1452
  165SAPS  H15R18616   7.261   5.568   5.487 -1.8721 -0.1256  2.1817
  165SAPS  C21618617   7.474   5.543   5.542  0.0645  0.1988  0.2436
  165SAPS  H16R18618   7.503   5.445   5.584 -1.6508  0.9855  3.5358
  165SAPS  H16S18619   7.533   5.628   5.582  1.8937  0.0346 -1.8866
  165SAPS  C21718620   7.517   5.530   5.394 -0.5143  0.4289 -0.1289
  165SAPS  H17R18621   7.482   5.434   5.350 -0.0727  0.8687 -1.4800
  165SAPS  H17S18622   7.628   5.520   5.398 -0.6541 -1.1418  1.8407
  165SAPS  C21818623   7.484   5.648   5.309  0.1996  0.1676 -0.1971
  165SAPS  H18R18624   7.531   5.736   5.358 -0.8153 -0.1533  1.4122
  165SAPS  H18S18625   7.377   5.667   5.286  0.5048  0.2943 -1.6301
  165SAPS  C21918626   7.549   5.626   5.175  0.5509  0.2387  0.5410
  165SAPS  H19R18627   7.523   5.527   5.131  0.7023  0.6638 -0.5253
  165SAPS  H19S18628   7.657   5.616   5.196  0.7249  1.2621  0.1868
  165SAPS  C22018629   7.528   5.745   5.078  0.8549 -0.0286 -0.1204
  165SAPS  H20R18630   7.535   5.843   5.129  0.5812  0.1027 -0.3334
  165SAPS  H20S18631   7.427   5.744   5.032  1.1089 -1.8221 -0.7073
  165SAPS  H20T18632   7.609   5.747   5.002  0.9337 -3.1772 -0.2699
  165SAPS   C3318633   6.845   5.106   6.449 -0.4736  0.0860 -0.0440
  165SAPS   H3X18634   6.891   5.108   6.550 -0.7216 -0.8771  0.1052
  165SAPS   H3Y18635   6.873   5.202   6.402 -0.5252 -0.0705 -0.3986
  165SAPS   C3418636   6.902   4.993   6.361 -0.7687  0.5618 -0.5586
  165SAPS   H4X18637   6.886   4.900   6.420 -0.1078  1.3870  0.9659
  165SAPS   H4Y18638   7.011   5.011   6.357 -0.1890 -2.5068 -1.4700
  165SAPS   C3518639   6.855   4.975   6.216  0.7265  0.4864 -0.7004
  165SAPS   H5X18640   6.744   4.972   6.215  0.6389  1.6008  1.3291
  165SAPS   H5Y18641   6.893   4.874   6.188 -0.9363 -0.4299  0.2190
  165SAPS   C3618642   6.890   5.092   6.122 -0.7753  0.2085 -0.4245
  165SAPS   H6X18643   6.995   5.123   6.143 -0.6605 -1.4318  1.6735
  165SAPS   H6Y18644   6.834   5.182   6.155  0.3329  0.1513  1.8088
  165SAPS   C3718645   6.870   5.068   5.975 -0.6588  0.3897  0.9387
  165SAPS   H7X18646   6.765   5.032   5.970 -0.7970  0.6599  1.7448
  165SAPS   H7Y18647   6.932   4.985   5.936 -2.3890 -0.4407 -0.1648
  165SAPS   C3818648   6.909   5.198   5.894  0.7512  0.1696 -0.0482
  165SAPS   H8X18649   7.004   5.245   5.928 -0.8156  4.1985 -0.6705
  165SAPS   H8Y18650   6.831   5.275   5.910  1.0322  0.6639 -0.9665
  165SAPS   C3918651   6.910   5.178   5.747  0.1596  0.4076  0.5124
  165SAPS   H9X18652   6.827   5.111   5.717 -0.8898  1.3779  1.1538
  165SAPS   H9Y18653   6.993   5.108   5.725 -0.3430  0.0846 -0.3932
  165SAPS  C31018654   6.939   5.300   5.661 -0.7257  0.4164 -0.3724
  165SAPS  H10X18655   7.025   5.358   5.703  1.6581 -0.8392 -3.1389
  165SAPS  H10Y18656   6.845   5.358   5.655 -0.6324  0.6779  0.5057
  165SAPS  C31118657   6.982   5.276   5.514  0.0575 -0.4643 -0.5655
  165SAPS  H11X18658   6.924   5.195   5.466 -0.5083  1.0380 -2.5439
  165SAPS  H11Y18659   7.085   5.236   5.513  0.2160 -0.1166  0.4628
  165SAPS  C31218660   6.986   5.400   5.431  0.9803  0.1453  0.5282
  165SAPS  H12X18661   7.056   5.398   5.345  0.1426  0.0439 -0.1653
  165SAPS  H12Y18662   7.027   5.485   5.489  0.1593  0.0612  1.2621
  165SAPS  C31318663   6.855   5.440   5.361 -0.1513 -0.2473  0.0649
  165SAPS  H13X18664   6.787   5.462   5.446 -2.6112  2.1737 -2.3123
  165SAPS  H13Y18665   6.815   5.356   5.301  1.5240 -1.0850  0.0619
  165SAPS  C31418666   6.864   5.572   5.279 -0.0591 -0.3743  0.0275
  165SAPS  H14X18667   6.932   5.560   5.191 -1.5743  0.6125 -1.3477
  165SAPS  H14Y18668   6.909   5.643   5.351 -1.8821  0.1197  0.7269
  165SAPS  C31518669   6.738   5.644   5.230  0.1648 -0.2277  0.0001
  165SAPS  H15X18670   6.762   5.750   5.207  0.1780  0.4849  2.9264
  165SAPS  H15Y18671   6.660   5.639   5.308 -0.3355  0.1844 -0.4661
  165SAPS  C31618672   6.668   5.582   5.106 -0.2586 -0.2219 -0.5449
  165SAPS  H16X18673   6.654   5.473   5.125 -1.6609  0.2055  1.1491
  165SAPS  H16Y18674   6.737   5.594   5.020  2.3264  0.3599  1.4797
  165SAPS  C31718675   6.532   5.650   5.085 -0.0954 -0.4427  0.0374
  165SAPS  H17X18676   6.484   5.665   5.184 -0.4146 -1.7207  0.0854
  165SAPS  H17Y18677   6.461   5.587   5.028 -0.2505 -0.3691  0.1486
  165SAPS  C31818678   6.541   5.783   5.016 -0.0350  0.0585 -0.3483
  165SAPS  H18X18679   6.445   5.833   4.992  0.6820  0.9036 -1.6003
  165SAPS  H18Y18680   6.605   5.770   4.926 -2.2068  1.8653 -2.2828
  165SAPS  H18Z18681   6.589   5.855   5.086  2.0934  1.5293 -3.1061
  166SAPS     N18682   5.387   1.553   7.019 -0.3783 -0.9587  0.0566
  166SAPS   HN118683   5.482   1.570   7.056  0.0428  0.5935 -1.5846
  166SAPS   HN218684   5.361   1.454   7.040 -1.1780 -0.5303  1.1872
  166SAPS   HN318685   5.392   1.574   6.917 -0.7494  2.3161  0.6118
  166SAPS   C1218686   5.306   1.672   7.074 -0.0478 -0.0138  0.5382
  166SAPS  H12A18687   5.215   1.663   7.017  0.2295 -1.7270  0.2956
  166SAPS   C1318688   5.276   1.647   7.220  0.4104 -0.2399 -0.1394
  166SAPS  O13A18689   5.317   1.548   7.287  0.0687  0.1561 -0.0813
  166SAPS  O13B18690   5.206   1.737   7.276  0.3377  0.5789 -0.1670
  166SAPS   C1118691   5.404   1.799   7.068 -0.4287 -0.0104 -0.3193
  166SAPS  H11A18692   5.475   1.806   7.153 -1.6234  1.2980  0.6258
  166SAPS  H11B18693   5.328   1.880   7.077  1.6224  1.7820  2.2761
  166SAPS     P18694   5.539   1.937   6.893  0.1964  0.5330  0.2200
  166SAPS   O1318695   5.598   2.010   7.005 -0.4011  0.1324  0.2236
  166SAPS   O1418696   5.629   1.911   6.779 -0.0257  0.0768 -0.3006
  166SAPS   O1218697   5.470   1.797   6.940 -0.5162 -0.8693  0.4348
  166SAPS   O1118698   5.418   2.007   6.836 -0.3452  0.1116  0.7859
  166SAPS    C118699   5.334   1.938   6.746 -0.2706 -0.4910 -0.1481
  166SAPS    HA18700   5.319   1.830   6.769 -2.3421 -0.4007 -0.8581
  166SAPS    HB18701   5.235   1.988   6.757  0.3805  0.2735  3.6854
  166SAPS    C218702   5.357   1.980   6.599  0.2560 -0.0173  0.0466
  166SAPS    HS18703   5.262   2.006   6.547 -0.3465  0.2347  1.2341
  166SAPS   O2118704   5.429   1.877   6.522  0.4734  0.0934 -0.0984
  166SAPS   C2118705   5.350   1.774   6.483  0.1623 -0.7080  0.2844
  166SAPS   O2218706   5.241   1.760   6.520  0.8614  0.1482  0.1786
  166SAPS   C2218707   5.418   1.686   6.381 -0.1823  0.1466  0.9431
  166SAPS   H2R18708   5.476   1.599   6.419  2.0329  0.2839 -1.8282
  166SAPS   H2S18709   5.342   1.640   6.314 -1.6122  2.8874  0.5529
  166SAPS    C318710   5.428   2.118   6.579  0.6567 -0.0687 -0.4532
  166SAPS    HX18711   5.532   2.106   6.618  0.9001  0.7861 -0.8244
  166SAPS    HY18712   5.388   2.187   6.656  1.5096 -0.2662  0.1824
  166SAPS   O3118713   5.414   2.178   6.446  0.0517 -0.1089  0.2417
  166SAPS   C3118714   5.519   2.149   6.372  0.7017  0.0542  0.4269
  166SAPS   O3218715   5.609   2.068   6.405  0.9350  0.1877  0.4110
  166SAPS   C3218716   5.521   2.225   6.236  0.2364  0.4397  0.4915
  166SAPS   H2X18717   5.484   2.166   6.149 -0.6456  2.6623 -0.7258
  166SAPS   H2Y18718   5.628   2.226   6.208  0.1692 -0.3669  0.1469
  166SAPS   C2318719   5.502   1.767   6.279 -0.4634  0.1893  0.2612
  166SAPS   H3R18720   5.575   1.833   6.332 -0.6460  2.6265 -2.2833
  166SAPS   H3S18721   5.425   1.834   6.234 -0.7008  0.6911  1.3738
  166SAPS   C2418722   5.556   1.678   6.171 -0.0292 -0.3855 -0.9524
  166SAPS   H4R18723   5.472   1.627   6.119 -1.2431  1.3904 -0.8382
  166SAPS   H4S18724   5.625   1.601   6.212  1.7569  2.3539  1.6086
  166SAPS   C2518725   5.633   1.750   6.061  0.2873 -0.7684  0.3784
  166SAPS   H5R18726   5.739   1.769   6.084 -0.0579 -0.6472  2.0016
  166SAPS   C2618727   5.594   1.779   5.939 -0.0304  0.4030 -0.2643
  166SAPS   H6R18728   5.663   1.840   5.879 -2.6827  2.5403 -1.3932
  166SAPS   C2718729   5.453   1.763   5.894  0.0219 -0.1623  0.5983
  166SAPS   H7R18730   5.383   1.784   5.978 -0.5126  0.0512  0.1080
  166SAPS   H7S18731   5.439   1.657   5.864  4.0411 -0.3526 -1.2353
  166SAPS   C2818732   5.413   1.858   5.786 -0.1297  0.3135  1.0229
  166SAPS   H8R18733   5.348   1.944   5.810 -0.2723  0.0592  1.5663
  166SAPS   C2918734   5.447   1.852   5.649 -0.0866 -0.7042  0.0365
  166SAPS   H9R18735   5.416   1.932   5.581  0.5784 -0.6064 -0.1516
  166SAPS  C21018736   5.531   1.751   5.578  0.1469 -0.6928  1.1138
  166SAPS  H10R18737   5.622   1.730   5.638  1.7919 -0.7418 -1.2415
  166SAPS  H10S18738   5.561   1.799   5.482  0.6461 -0.9507  1.1405
  166SAPS  C21118739   5.460   1.619   5.558  0.8598 -0.0846 -0.5104
  166SAPS  H11R18740   5.416   1.579   5.651 -1.8612  2.3939 -0.5434
  166SAPS  C21218741   5.424   1.560   5.444 -0.0026 -0.3235 -0.7628
  166SAPS  H12R18742   5.383   1.459   5.452  1.4060 -0.7773  1.8159
  166SAPS  C21318743   5.457   1.615   5.303  0.5227  0.5299  0.5220
  166SAPS  H13R18744   5.508   1.713   5.310  0.0255  0.7891  0.5555
  166SAPS  H13S18745   5.362   1.637   5.250  1.1335  0.9777 -0.4165
  166SAPS  C21418746   5.538   1.523   5.219  0.1865  0.8743  0.2482
  166SAPS  H14R18747   5.608   1.465   5.282 -0.3980 -0.6154 -0.4266
  166SAPS  C21518748   5.529   1.498   5.090  0.2230 -0.7039 -0.5642
  166SAPS  H15R18749   5.599   1.432   5.037  1.3280  0.9050 -1.1918
  166SAPS  C21618750   5.431   1.563   4.999 -0.3482 -0.1554 -0.7430
  166SAPS  H16R18751   5.494   1.593   4.913 -0.6814 -3.0152 -2.1216
  166SAPS  H16S18752   5.381   1.649   5.050  0.6276 -1.7033  3.2196
  166SAPS  C21718753   5.337   1.463   4.936  0.2603  0.9096  1.0186
  166SAPS  H17R18754   5.252   1.521   4.895 -2.0674 -1.8946  1.4569
  166SAPS  H17S18755   5.298   1.396   5.016  0.2825  1.3158  1.3678
  166SAPS  C21818756   5.391   1.374   4.825  1.0397  0.6853 -0.2563
  166SAPS  H18R18757   5.452   1.297   4.877 -0.2077  0.5308  1.0553
  166SAPS  H18S18758   5.429   1.441   4.745 -0.6809  0.0166 -1.7313
  166SAPS  C21918759   5.268   1.299   4.768  0.5807  0.4502  0.6106
  166SAPS  H19R18760   5.189   1.374   4.792  2.3129  2.0971  1.4289
  166SAPS  H19S18761   5.264   1.212   4.837  1.7600  0.6947  1.0212
  166SAPS  C22018762   5.289   1.252   4.625 -0.6246  0.3263 -0.3947
  166SAPS  H20R18763   5.370   1.177   4.613 -0.3959  0.6168 -0.6866
  166SAPS  H20S18764   5.318   1.337   4.560 -0.9697 -1.2392 -2.7216
  166SAPS  H20T18765   5.202   1.202   4.578  1.1716 -2.4067 -1.0683
  166SAPS   C3318766   5.468   2.366   6.234  0.1109 -0.2731 -0.4617
  166SAPS   H3X18767   5.503   2.428   6.320  1.0903  1.3385 -1.9444
  166SAPS   H3Y18768   5.357   2.363   6.236  0.1415 -1.7263  0.9380
  166SAPS   C3418769   5.498   2.431   6.095 -0.7383 -0.6574  0.0856
  166SAPS   H4X18770   5.418   2.506   6.078  1.5543  2.3313  1.4828
  166SAPS   H4Y18771   5.505   2.347   6.024  1.5465 -1.0122  0.6739
  166SAPS   C3518772   5.627   2.517   6.101  0.0971  0.3338  0.1111
  166SAPS   H5X18773   5.713   2.454   6.135 -0.6917 -0.5099  0.5984
  166SAPS   H5Y18774   5.612   2.587   6.185 -0.9241 -1.0660  1.1468
  166SAPS   C3618775   5.674   2.600   5.975  0.2653 -0.0633 -0.6693
  166SAPS   H6X18776   5.764   2.663   5.996  0.2655  1.0845 -3.5991
  166SAPS   H6Y18777   5.601   2.681   5.951 -0.9958 -0.2175  2.2715
  166SAPS   C3718778   5.706   2.525   5.847  0.1881  0.0132  0.0867
  166SAPS   H7X18779   5.648   2.430   5.856  0.4018 -0.2252 -0.9162
  166SAPS   H7Y18780   5.815   2.500   5.849  0.7438  2.2757  0.5868
  166SAPS   C3818781   5.681   2.598   5.715  0.4514 -0.1444  0.2309
  166SAPS   H8X18782   5.729   2.699   5.709  1.0019 -0.2367  2.4468
  166SAPS   H8Y18783   5.570   2.608   5.709  0.3251 -1.6943 -0.3420
  166SAPS   C3918784   5.721   2.511   5.593  0.6247  0.5426  0.0828
  166SAPS   H9X18785   5.683   2.407   5.594  0.9086  0.4380  0.3418
  166SAPS   H9Y18786   5.832   2.504   5.597  0.9352  2.3968 -2.4620
  166SAPS  C31018787   5.688   2.583   5.464 -0.6143  0.0932  0.2829
  166SAPS  H10X18788   5.744   2.679   5.461  0.2482 -0.4102 -0.2990
  166SAPS  H10Y18789   5.580   2.606   5.471 -0.4405  0.7486  0.8752
  166SAPS  C31118790   5.735   2.511   5.343 -0.4814  0.5600 -0.5724
  166SAPS  H11X18791   5.730   2.400   5.354  0.2483  0.5533 -0.2933
  166SAPS  H11Y18792   5.843   2.532   5.353 -0.8222  1.7763  0.9258
  166SAPS  C31218793   5.683   2.569   5.206  0.0664 -0.4254  0.1064
  166SAPS  H12X18794   5.757   2.530   5.133 -0.8207 -0.9519 -0.5181
  166SAPS  H12Y18795   5.686   2.680   5.203 -1.4638 -0.3931 -1.2603
  166SAPS  C31318796   5.543   2.515   5.178 -0.0611 -0.6811 -0.4725
  166SAPS  H13X18797   5.472   2.544   5.258 -0.4575  1.1067 -1.4079
  166SAPS  H13Y18798   5.540   2.404   5.178 -0.8718 -0.6926  1.3056
  166SAPS  C31418799   5.491   2.570   5.042 -0.0745  0.0356 -0.0513
  166SAPS  H14X18800   5.397   2.513   5.028  0.5078 -0.5655 -1.6698
  166SAPS  H14Y18801   5.560   2.551   4.958  2.2867  3.7118  0.7830
  166SAPS  C31518802   5.464   2.723   5.046  0.1674  0.1901  0.0845
  166SAPS  H15X18803   5.563   2.770   5.066  1.6958 -2.6729 -0.2867
  166SAPS  H15Y18804   5.404   2.751   5.135  2.7020 -0.5237  2.1712
  166SAPS  C31618805   5.408   2.780   4.917  0.6241  0.0776  0.1427
  166SAPS  H16X18806   5.415   2.891   4.921 -0.2877  0.1221  1.1127
  166SAPS  H16Y18807   5.299   2.766   4.901  1.1617 -2.1258 -2.2661
  166SAPS  C31718808   5.494   2.745   4.793  0.1971 -1.1576 -0.2084
  166SAPS  H17X18809   5.486   2.640   4.758 -0.2078 -0.8171 -1.1690
  166SAPS  H17Y18810   5.600   2.759   4.822  1.0521 -1.5880 -2.7790
  166SAPS  C31818811   5.478   2.846   4.680 -0.4743 -0.4381  0.7711
  166SAPS  H18X18812   5.529   2.810   4.589 -1.3163 -2.2237  0.9687
  166SAPS  H18Y18813   5.519   2.947   4.703  1.6456 -0.4212 -2.4755
  166SAPS  H18Z18814   5.373   2.855   4.644  0.2542  0.0355 -1.3707
  167SAPS     N18815   0.185   4.756   7.205  0.2051  0.5099 -0.4260
  167SAPS   HN118816   0.219   4.702   7.122  1.7819  0.0404  0.4908
  167SAPS   HN218817   0.157   4.851   7.174 -0.1441 -0.2739 -2.6956
  167SAPS   HN318818   0.257   4.780   7.276 -0.9294  1.3415  0.4811
  167SAPS   C1218819   0.071   4.692   7.284 -0.2271 -0.6527 -0.7431
  167SAPS  H12A18820   0.109   4.602   7.330 -0.2464 -0.2882  0.0171
  167SAPS   C1318821   0.015   4.799   7.390  0.4667 -0.3400 -0.1334
  167SAPS  O13A18822   0.085   4.899   7.420 -0.0613 -0.5915  0.2290
  167SAPS  O13B18823  -0.067   4.749   7.469  0.5028 -0.9135 -0.1043
  167SAPS   C1118824  -0.044   4.662   7.187 -0.4096 -0.1604 -0.3769
  167SAPS  H11A18825  -0.076   4.756   7.136 -0.2638 -0.8771 -1.8568
  167SAPS  H11B18826  -0.131   4.639   7.252 -1.0473  0.1666 -1.1018
  167SAPS     P18827  -0.145   4.505   7.007 -0.2580  0.0771 -0.3546
  167SAPS   O1318828  -0.097   4.391   6.919 -0.0543 -0.5273  0.1216
  167SAPS   O1418829  -0.260   4.472   7.092 -0.2248 -0.8815  0.8420
  167SAPS   O1218830  -0.026   4.551   7.100 -0.7052 -0.2052  0.6185
  167SAPS   O1118831  -0.176   4.632   6.916 -0.3167  0.7509 -0.1685
  167SAPS    C118832  -0.103   4.651   6.792 -0.2945 -0.2211 -0.2219
  167SAPS    HA18833  -0.086   4.753   6.753 -0.4191 -0.9205 -2.2486
  167SAPS    HB18834   0.001   4.613   6.799 -0.0952  0.4182  0.2922
  167SAPS    C218835  -0.184   4.589   6.678 -0.5042 -0.1779 -0.6978
  167SAPS    HS18836  -0.187   4.480   6.698  3.5432 -0.4061 -0.4521
  167SAPS   O2118837  -0.117   4.628   6.558 -0.0531 -0.3064  0.2251
  167SAPS   C2118838  -0.086   4.525   6.479  0.2881  0.2126  0.7940
  167SAPS   O2218839  -0.120   4.407   6.494  0.3824 -0.0021 -0.5727
  167SAPS   C2218840   0.009   4.578   6.371  0.8046 -0.9616 -0.5067
  167SAPS   H2R18841  -0.005   4.685   6.344  1.2356 -0.2464  1.8711
  167SAPS   H2S18842   0.110   4.574   6.418 -0.3171  1.0017  2.3962
  167SAPS    C318843  -0.332   4.648   6.680 -0.5892  0.4306 -0.3915
  167SAPS    HX18844  -0.318   4.758   6.691  0.5473  0.1534  1.3970
  167SAPS    HY18845  -0.402   4.617   6.761 -1.1418  0.2109 -0.9542
  167SAPS   O3118846  -0.397   4.610   6.552 -0.0367 -0.1118 -0.2056
  167SAPS   C3118847  -0.481   4.692   6.509 -0.0054 -0.8126 -0.4386
  167SAPS   O3218848  -0.524   4.794   6.570 -0.3496 -0.0768  0.4762
  167SAPS   C3218849  -0.528   4.653   6.374 -0.0085  0.6374  0.4279
  167SAPS   H2X18850  -0.625   4.600   6.385 -1.4629  2.3153 -2.9232
  167SAPS   H2Y18851  -0.457   4.571   6.351 -0.2094 -0.1552  2.4161
  167SAPS   C2318852   0.011   4.493   6.242 -0.2608  0.0792 -0.4983
  167SAPS   H3R18853  -0.016   4.387   6.262 -4.2002  1.2264  1.1611
  167SAPS   H3S18854   0.117   4.480   6.211  0.0565  1.7708 -0.1969
  167SAPS   C2418855  -0.077   4.534   6.130  0.3879 -0.0711  0.5246
  167SAPS   H4R18856  -0.054   4.639   6.102 -1.0277 -0.6364 -3.3981
  167SAPS   H4S18857  -0.184   4.524   6.158  0.2502 -1.2264 -0.3221
  167SAPS   C2518858  -0.047   4.442   6.014  0.6281  1.4231  0.4699
  167SAPS   H5R18859   0.058   4.446   5.980  0.9412 -0.3949  1.1493
  167SAPS   C2618860  -0.144   4.356   5.967 -0.4403 -0.3481  0.1545
  167SAPS   H6R18861  -0.115   4.306   5.873 -0.6159  1.2326 -0.7616
  167SAPS   C2718862  -0.285   4.339   6.011  0.5307 -0.0032 -0.2894
  167SAPS   H7R18863  -0.342   4.425   5.971  0.6922 -0.6465 -1.9813
  167SAPS   H7S18864  -0.286   4.335   6.122  0.4749 -1.3547 -0.3125
  167SAPS   C2818865  -0.335   4.209   5.963  0.2861  0.5420  0.5126
  167SAPS   H8R18866  -0.294   4.124   6.020  2.6207  0.5345 -1.0346
  167SAPS   C2918867  -0.396   4.184   5.848  0.3257 -0.2433 -0.6905
  167SAPS   H9R18868  -0.434   4.082   5.834 -1.5631  0.2069  0.7435
  167SAPS  C21018869  -0.442   4.290   5.751  0.0952 -0.4376 -0.4735
  167SAPS  H10R18870  -0.504   4.370   5.797  0.2111 -0.9842  0.6495
  167SAPS  H10S18871  -0.508   4.236   5.679 -1.8005  0.0270  0.8376
  167SAPS  C21118872  -0.328   4.348   5.661  0.5629  0.0041 -0.3093
  167SAPS  H11R18873  -0.227   4.348   5.706 -0.1756 -0.3485  1.4213
  167SAPS  C21218874  -0.340   4.412   5.544 -0.2013 -0.7701  0.2300
  167SAPS  H12R18875  -0.254   4.447   5.486 -0.0677 -0.5678  0.5491
  167SAPS  C21318876  -0.476   4.422   5.477 -0.5596 -0.0376  0.7715
  167SAPS  H13R18877  -0.534   4.328   5.483 -0.5925 -0.3164 -2.4196
  167SAPS  H13S18878  -0.468   4.421   5.366  1.2295  0.7334  0.8597
  167SAPS  C21418879  -0.569   4.524   5.550 -0.3699 -0.4052 -0.4577
  167SAPS  H14R18880  -0.602   4.487   5.649  0.5982  0.6114  0.2728
  167SAPS  C21518881  -0.604   4.648   5.522  0.3607  0.3853 -0.0506
  167SAPS  H15R18882  -0.672   4.699   5.592  1.6680  0.6134  1.1037
  167SAPS  C21618883  -0.553   4.716   5.399 -0.1195 -0.2308  0.1525
  167SAPS  H16R18884  -0.606   4.686   5.306  1.0318 -1.0682 -0.2506
  167SAPS  H16S18885  -0.444   4.695   5.399 -0.4407 -2.0567  0.3791
  167SAPS  C21718886  -0.581   4.867   5.427  0.2522 -0.0724  0.2996
  167SAPS  H17R18887  -0.498   4.903   5.493  3.3152 -4.1374 -0.9160
  167SAPS  H17S18888  -0.681   4.884   5.473 -0.3493  1.0005 -1.3230
  167SAPS  C21818889  -0.592   4.958   5.308  0.8423  0.0035 -0.0634
  167SAPS  H18R18890  -0.525   4.937   5.222 -0.9385  2.1758 -2.1377
  167SAPS  H18S18891  -0.578   5.062   5.346 -0.1636  0.2703 -0.4049
  167SAPS  C21918892  -0.735   4.965   5.244 -0.4862  0.3021 -0.7857
  167SAPS  H19R18893  -0.798   5.011   5.324 -0.3890 -2.4566  1.0272
  167SAPS  H19S18894  -0.775   4.864   5.222 -2.4032  0.6397  0.8100
  167SAPS  C22018895  -0.737   5.055   5.123 -0.0663  0.3921 -0.1114
  167SAPS  H20R18896  -0.720   5.160   5.157 -0.8036  0.2671  0.6764
  167SAPS  H20S18897  -0.836   5.057   5.073 -0.6658 -0.2534  1.0233
  167SAPS  H20T18898  -0.656   5.020   5.056  0.0525 -2.6807  1.4812
  167SAPS   C3318899  -0.504   4.768   6.275  0.0227  0.2396  0.2666
  167SAPS   H3X18900  -0.407   4.821   6.284 -0.3552  0.9467  0.2586
  167SAPS   H3Y18901  -0.580   4.847   6.294  0.6694  0.6234  1.3309
  167SAPS   C3418902  -0.509   4.730   6.129  0.6727 -0.0414  0.2409
  167SAPS   H4X18903  -0.605   4.680   6.105 -1.0057  3.8298 -2.1241
  167SAPS   H4Y18904  -0.420   4.669   6.104  2.5312  0.5742  4.5322
  167SAPS   C3518905  -0.507   4.839   6.028  0.4659 -0.0414  0.5618
  167SAPS   H5X18906  -0.427   4.913   6.051 -0.2510  1.5004 -1.5622
  167SAPS   H5Y18907  -0.596   4.903   6.046  0.6486  0.5923 -0.7239
  167SAPS   C3618908  -0.493   4.803   5.879  0.0556  0.1173 -0.4423
  167SAPS   H6X18909  -0.515   4.898   5.825  0.1409 -0.9788 -2.4885
  167SAPS   H6Y18910  -0.580   4.743   5.844 -0.8763  0.9648  0.3694
  167SAPS   C3718911  -0.355   4.743   5.840  0.5304 -0.1276  0.1840
  167SAPS   H7X18912  -0.364   4.633   5.822  0.6410 -0.6640  2.9452
  167SAPS   H7Y18913  -0.270   4.754   5.910  1.1450 -2.2437 -0.1303
  167SAPS   C3818914  -0.300   4.815   5.711  0.2990  0.5768 -0.0953
  167SAPS   H8X18915  -0.318   4.922   5.735 -0.7379  0.2595  0.6182
  167SAPS   H8Y18916  -0.354   4.773   5.623  1.3690  0.6381 -0.7996
  167SAPS   C3918917  -0.152   4.798   5.677 -0.0021  0.6265 -0.1696
  167SAPS   H9X18918  -0.109   4.696   5.691  0.7430  1.1839  2.1455
  167SAPS   H9Y18919  -0.094   4.860   5.748  2.1875 -2.2502  0.7610
  167SAPS  C31018920  -0.115   4.844   5.536  0.5559  0.2566 -0.0140
  167SAPS  H10X18921  -0.009   4.876   5.537  0.5989  0.1282 -0.2715
  167SAPS  H10Y18922  -0.182   4.931   5.520 -0.7769 -0.8845 -0.9295
  167SAPS  C31118923  -0.137   4.742   5.430 -0.2224  0.4999 -0.3435
  167SAPS  H11X18924  -0.240   4.703   5.439 -0.5896  1.6471  0.7102
  167SAPS  H11Y18925  -0.065   4.658   5.446  0.5472  1.5497  2.1793
  167SAPS  C31218926  -0.097   4.805   5.292 -0.0147 -0.1915 -0.0085
  167SAPS  H12X18927  -0.002   4.862   5.303 -0.5638  0.5887  0.7243
  167SAPS  H12Y18928  -0.165   4.889   5.268  0.6817  0.1047 -1.0171
  167SAPS  C31318929  -0.087   4.716   5.170  0.7158  0.0463  0.3907
  167SAPS  H13X18930  -0.006   4.641   5.188  1.5113 -0.1241 -3.1640
  167SAPS  H13Y18931  -0.050   4.782   5.089 -0.8057 -0.3672 -0.6685
  167SAPS  C31418932  -0.222   4.647   5.141 -0.1064 -0.0686 -0.2597
  167SAPS  H14X18933  -0.302   4.723   5.136 -0.0671 -0.0830 -1.6662
  167SAPS  H14Y18934  -0.234   4.571   5.221 -0.3753 -1.2125 -1.3478
  167SAPS  C31518935  -0.212   4.581   5.001 -0.1135  0.1312  0.0668
  167SAPS  H15X18936  -0.140   4.496   4.996  1.7260  1.5386  1.2959
  167SAPS  H15Y18937  -0.184   4.663   4.932  0.1389  0.1579  0.2038
  167SAPS  C31618938  -0.346   4.526   4.964 -0.3119  0.1220  0.4192
  167SAPS  H16X18939  -0.427   4.582   5.017  0.2949  0.5049  0.9596
  167SAPS  H16Y18940  -0.351   4.432   5.023 -2.2853  0.0686  0.2316
  167SAPS  C31718941  -0.376   4.494   4.818 -0.1994 -0.0740  0.0444
  167SAPS  H17X18942  -0.293   4.441   4.766 -0.0121 -0.2060  0.4741
  167SAPS  H17Y18943  -0.385   4.588   4.760 -1.0856 -0.9711 -1.3735
  167SAPS  C31818944  -0.502   4.404   4.808  0.2465 -0.5762 -0.2585
  167SAPS  H18X18945  -0.562   4.397   4.901 -0.3465 -0.1794 -0.6062
  167SAPS  H18Y18946  -0.470   4.297   4.809 -0.3306 -0.8083 -2.2428
  167SAPS  H18Z18947  -0.566   4.422   4.719  2.3011  3.9182 -1.0830
  168SAPS     N18948   3.839   6.078   6.731 -0.0365  0.8732 -0.1831
  168SAPS   HN118949   3.889   6.099   6.643 -0.4681 -0.2708 -0.7218
  168SAPS   HN218950   3.744   6.038   6.717  0.3801  0.0557 -0.6675
  168SAPS   HN318951   3.826   6.152   6.804  0.8434 -1.2755  2.3055
  168SAPS   C1218952   3.924   5.966   6.801  0.5281  0.1274  0.4388
  168SAPS  H12A18953   4.014   6.017   6.833 -1.2670  2.2589  2.5136
  168SAPS   C1318954   3.839   5.916   6.920  0.0905  0.8492 -0.4356
  168SAPS  O13A18955   3.737   5.981   6.961 -0.1483 -0.0147  0.5027
  168SAPS  O13B18956   3.883   5.821   6.995 -0.3035  0.0623  0.2747
  168SAPS   C1118957   3.933   5.850   6.696 -0.4717 -0.1809 -0.3710
  168SAPS  H11A18958   3.838   5.793   6.682  0.0449 -0.4919 -3.1178
  168SAPS  H11B18959   3.999   5.779   6.750 -2.1098 -0.5083  1.3290
  168SAPS     P18960   4.033   5.789   6.456 -0.2649 -0.5468  0.0618
  168SAPS   O1318961   4.012   5.652   6.512 -0.2725 -0.1669 -0.0532
  168SAPS   O1418962   3.981   5.816   6.319 -0.3294 -0.3766 -0.0152
  168SAPS   O1218963   3.985   5.889   6.566 -0.3813  0.6236  0.5228
  168SAPS   O1118964   4.188   5.823   6.451 -0.0081  0.1278 -0.6134
  168SAPS    C118965   4.234   5.950   6.496 -0.3249  0.0371  0.0518
  168SAPS    HA18966   4.179   6.039   6.457  0.3400  0.9732  1.1703
  168SAPS    HB18967   4.241   5.960   6.607  1.3253 -0.3014  0.0031
  168SAPS    C218968   4.376   5.981   6.438 -0.4961  1.0574  0.0548
  168SAPS    HS18969   4.389   6.091   6.436 -0.8330  1.0947 -1.6169
  168SAPS   O2118970   4.390   5.933   6.300 -0.2492 -0.5016  0.1514
  168SAPS   C2118971   4.319   5.995   6.210 -0.8461 -0.4198  0.1556
  168SAPS   O2218972   4.251   6.090   6.231  0.1036 -0.0495  0.0411
  168SAPS   C2218973   4.315   5.914   6.081 -0.3252  0.0216  0.4934
  168SAPS   H2R18974   4.410   5.859   6.062 -0.3161  0.1794  0.0620
  168SAPS   H2S18975   4.251   5.827   6.106 -1.4074  1.6160  3.8112
  168SAPS    C318976   4.486   5.916   6.525  0.5167 -0.9983 -0.3489
  168SAPS    HX18977   4.455   5.814   6.557  1.2891 -1.0929  0.1357
  168SAPS    HY18978   4.491   5.976   6.618 -1.6367 -3.8294  1.7839
  168SAPS   O3118979   4.612   5.916   6.450  0.8377 -0.0209  0.5830
  168SAPS   C3118980   4.646   5.805   6.387  0.7128  0.3076 -0.2045
  168SAPS   O3218981   4.592   5.694   6.398  1.1999  0.3073  0.6016
  168SAPS   C3218982   4.760   5.833   6.287 -0.3374 -0.8738  0.3222
  168SAPS   H2X18983   4.839   5.755   6.292  1.3659  0.8543  3.6271
  168SAPS   H2Y18984   4.816   5.924   6.317 -1.6802 -0.0412  0.4372
  168SAPS   C2318985   4.272   5.992   5.964  0.3067  0.1719  0.6494
  168SAPS   H3R18986   4.344   6.068   5.928  2.0498 -1.5003  0.4580
  168SAPS   H3S18987   4.172   6.032   5.992  1.1387  1.9125  1.2945
  168SAPS   C2418988   4.245   5.902   5.835  0.0149  0.9657 -0.7396
  168SAPS   H4R18989   4.205   5.978   5.765  1.7022  3.2074  0.6290
  168SAPS   H4S18990   4.169   5.823   5.856  0.4867  0.2739 -1.5725
  168SAPS   C2518991   4.367   5.844   5.767  0.1587  0.1044  0.0567
  168SAPS   H5R18992   4.428   5.786   5.838  1.2135  0.9348 -0.1408
  168SAPS   C2618993   4.398   5.849   5.635 -0.2177  0.3086 -0.4089
  168SAPS   H6R18994   4.476   5.783   5.596 -2.1238 -1.6904 -1.0421
  168SAPS   C2718995   4.313   5.914   5.525 -0.2283 -0.5145  0.0516
  168SAPS   H7R18996   4.234   5.981   5.567  0.7006  0.9830 -0.5080
  168SAPS   H7S18997   4.251   5.837   5.476  0.2167 -1.2981  0.6990
  168SAPS   C2818998   4.419   5.989   5.440 -0.0489 -0.3440  0.4329
  168SAPS   H8R18999   4.486   6.062   5.488 -1.3267  1.2340 -0.0940
  168SAPS   C2919000   4.415   5.998   5.302  0.6458 -0.2645 -0.8987
  168SAPS   H9R19001   4.498   6.045   5.246  0.9895  0.0788 -0.1127
  168SAPS  C21019002   4.313   5.933   5.219  0.5239  0.8999  0.9620
  168SAPS  H10R19003   4.273   6.010   5.150 -0.7469  0.1308  0.8054
  168SAPS  H10S19004   4.219   5.903   5.272  0.4591  0.4505  0.6001
  168SAPS  C21119005   4.379   5.822   5.140 -0.4586 -0.4330 -0.7097
  168SAPS  H11R19006   4.369   5.725   5.192  1.2085  0.4513  1.3584
  168SAPS  C21219007   4.457   5.828   5.028  0.9300  0.1337  1.0662
  168SAPS  H12R19008   4.516   5.740   5.001  0.0203 -0.0333 -0.5073
  168SAPS  C21319009   4.475   5.956   4.946  0.2103  0.2930 -0.2167
  168SAPS  H13R19010   4.431   6.044   4.998  3.3150  0.1115  3.0984
  168SAPS  H13S19011   4.418   5.938   4.852 -0.3354  1.4385 -0.1115
  168SAPS  C21419012   4.620   5.992   4.911  0.5024  0.1605  0.0624
  168SAPS  H14R19013   4.669   6.073   4.967  0.0879  0.7474 -0.4115
  168SAPS  C21519014   4.684   5.935   4.806 -0.0117 -0.9263 -0.5205
  168SAPS  H15R19015   4.786   5.970   4.782 -0.4771  2.1689  1.4522
  168SAPS  C21619016   4.629   5.835   4.713 -0.0390  0.8605  0.5377
  168SAPS  H16R19017   4.518   5.830   4.711 -0.0128  0.2561  0.1688
  168SAPS  H16S19018   4.681   5.738   4.728  0.2730  0.6710 -1.4306
  168SAPS  C21719019   4.663   5.885   4.569 -0.0421 -0.2264 -0.8660
  168SAPS  H17R19020   4.771   5.905   4.555  0.1903 -1.6383 -1.1797
  168SAPS  H17S19021   4.609   5.981   4.552  0.2081 -0.2388 -1.7756
  168SAPS  C21819022   4.632   5.782   4.460 -0.2807  0.1735 -0.1260
  168SAPS  H18R19023   4.525   5.754   4.449 -0.0686  0.0980 -2.5592
  168SAPS  H18S19024   4.687   5.691   4.491 -0.1180  0.0251 -0.8283
  168SAPS  C21919025   4.690   5.836   4.328 -0.2219  0.1065  0.0091
  168SAPS  H19R19026   4.799   5.856   4.326 -0.2678  0.2881 -1.0561
  168SAPS  H19S19027   4.648   5.938   4.312 -0.9193  0.3211  2.6337
  168SAPS  C22019028   4.652   5.761   4.199  0.0922  0.9981  0.3572
  168SAPS  H20R19029   4.701   5.803   4.108  0.2441 -1.9697 -1.0435
  168SAPS  H20S19030   4.543   5.757   4.178  0.1194  0.9714  0.2205
  168SAPS  H20T19031   4.695   5.659   4.200  1.0268  1.2545  4.3644
  168SAPS   C3319032   4.696   5.843   6.147 -0.3179 -0.4813 -0.6816
  168SAPS   H3X19033   4.617   5.921   6.157  0.2942 -0.1133  2.0082
  168SAPS   H3Y19034   4.656   5.750   6.102  0.0714 -0.5825 -0.8216
  168SAPS   C3419035   4.788   5.910   6.045  0.2805  0.1776 -0.3384
  168SAPS   H4X19036   4.880   5.850   6.031  0.3363 -0.0564  0.8672
  168SAPS   H4Y19037   4.823   6.009   6.080 -0.0532 -0.4449  1.9519
  168SAPS   C3519038   4.727   5.926   5.903  0.2020 -0.3492 -0.2335
  168SAPS   H5X19039   4.650   6.006   5.899  0.6662  0.1453  0.5655
  168SAPS   H5Y19040   4.678   5.831   5.873  2.1899 -1.7372  0.6531
  168SAPS   C3619041   4.823   5.987   5.797 -0.3160  0.4316 -0.0443
  168SAPS   H6X19042   4.899   5.908   5.780 -0.5216  0.0535  0.7519
  168SAPS   H6Y19043   4.881   6.072   5.841 -2.4998  1.4749  0.9735
  168SAPS   C3719044   4.741   6.029   5.668  0.1274  0.2771  0.0442
  168SAPS   H7X19045   4.646   6.084   5.683 -1.2148 -1.1530 -2.4574
  168SAPS   H7Y19046   4.712   5.929   5.628  0.6898  0.0185  0.2736
  168SAPS   C3819047   4.814   6.090   5.555  0.1394 -0.0164  1.0132
  168SAPS   H8X19048   4.827   6.200   5.568 -0.9454  0.1423  0.8287
  168SAPS   H8Y19049   4.759   6.081   5.458  3.4161 -1.8109 -0.8521
  168SAPS   C3919050   4.956   6.029   5.528 -0.2721  0.2725 -0.7335
  168SAPS   H9X19051   4.940   5.919   5.525 -2.1259  0.4100  1.0640
  168SAPS   H9Y19052   5.016   6.055   5.617 -1.4650  0.4683  0.0440
  168SAPS  C31019053   5.029   6.091   5.408  1.0263  0.4965 -0.0832
  168SAPS  H10X19054   5.135   6.060   5.414  0.4260 -1.4536  3.3146
  168SAPS  H10Y19055   5.014   6.201   5.400 -0.8909  0.2661 -0.2699
  168SAPS  C31119056   4.969   6.028   5.276 -1.0161  0.1590 -0.0887
  168SAPS  H11X19057   4.866   6.070   5.266 -0.4361  1.1070 -3.2015
  168SAPS  H11Y19058   4.945   5.919   5.269  0.7121 -0.2380 -0.1002
  168SAPS  C31219059   5.063   6.056   5.158  0.5000 -0.1082 -0.1766
  168SAPS  H12X19060   5.110   5.959   5.131 -2.2030 -2.3947  2.5881
  168SAPS  H12Y19061   5.140   6.132   5.184  1.0882 -0.3780 -1.0853
  168SAPS  C31319062   4.982   6.108   5.032 -0.3742 -0.1506  0.4174
  168SAPS  H13X19063   4.958   6.214   5.057 -2.0429 -0.0245 -1.4405
  168SAPS  H13Y19064   4.882   6.060   5.026 -0.8446  0.9524 -1.9680
  168SAPS  C31419065   5.074   6.117   4.903 -0.3107 -0.2183 -0.3555
  168SAPS  H14X19066   5.162   6.182   4.923 -1.1385  1.4243 -1.8339
  168SAPS  H14Y19067   5.003   6.160   4.829 -3.4024 -0.5437  2.2246
  168SAPS  C31519068   5.113   5.980   4.846 -0.0749  0.0833 -0.7056
  168SAPS  H15X19069   5.020   5.920   4.849 -0.8727  1.2898  2.0263
  168SAPS  H15Y19070   5.177   5.931   4.922  0.2368 -0.0183 -1.0336
  168SAPS  C31619071   5.171   5.988   4.704  0.8557 -0.2559  0.1930
  168SAPS  H16X19072   5.242   5.905   4.685  1.2820 -0.3766  2.0781
  168SAPS  H16Y19073   5.223   6.085   4.688  0.0462 -0.2204 -2.9128
  168SAPS  C31719074   5.057   5.980   4.597 -0.2306  0.0572 -0.7783
  168SAPS  H17X19075   4.985   6.062   4.619 -1.1890 -1.0276  0.2869
  168SAPS  H17Y19076   4.997   5.889   4.619  1.1428 -0.8599 -0.7140
  168SAPS  C31819077   5.101   6.001   4.455 -0.1629  0.1734 -0.0967
  168SAPS  H18X19078   5.018   5.993   4.382  0.0089  0.9874 -0.3907
  168SAPS  H18Y19079   5.179   5.927   4.427 -1.0895 -0.6104 -0.6752
  168SAPS  H18Z19080   5.148   6.101   4.442  1.0646 -0.2606  0.7389
  169SAPS     N19081   0.410   2.449   6.834 -0.0340  0.0581 -0.7458
  169SAPS   HN119082   0.474   2.487   6.760 -1.0863  1.0839 -1.1556
  169SAPS   HN219083   0.458   2.435   6.925 -0.6160  2.0557 -0.0858
  169SAPS   HN319084   0.367   2.359   6.805 -0.4364  0.1003 -0.2702
  169SAPS   C1219085   0.312   2.557   6.872 -0.1501 -0.3546  0.3715
  169SAPS  H12A19086   0.251   2.578   6.785 -0.1727 -1.2725  0.1481
  169SAPS   C1319087   0.216   2.507   6.977 -0.2375 -0.1613  0.0576
  169SAPS  O13A19088   0.221   2.390   7.022 -0.3647 -0.4331  0.5418
  169SAPS  O13B19089   0.113   2.573   6.989 -0.1584  0.4428 -0.0257
  169SAPS   C1119090   0.389   2.673   6.916  0.1303 -0.3356  0.1126
  169SAPS  H11A19091   0.438   2.635   7.009  1.2382 -1.0865 -0.7512
  169SAPS  H11B19092   0.315   2.752   6.938  0.8674  0.6210 -0.7479
  169SAPS     P19093   0.575   2.846   6.858  0.4408 -0.1113  0.0418
  169SAPS   O1319094   0.492   2.971   6.857  0.5236 -0.0243  0.3715
  169SAPS   O1419095   0.650   2.838   6.985 -0.2920 -0.2100  0.0301
  169SAPS   O1219096   0.481   2.720   6.821 -0.9569 -0.4411 -0.7436
  169SAPS   O1119097   0.682   2.862   6.740 -0.2002 -0.0582  0.2120
  169SAPS    C119098   0.711   2.982   6.676  0.3843 -0.1258  0.2992
  169SAPS    HA19099   0.619   3.031   6.637  0.7506 -0.1245 -0.5882
  169SAPS    HB19100   0.759   3.058   6.741  3.4194  1.1114 -3.0487
  169SAPS    C219101   0.791   2.965   6.546  0.0483 -0.2541 -0.7416
  169SAPS    HS19102   0.822   3.061   6.499  0.5925 -0.5849 -1.0783
  169SAPS   O2119103   0.719   2.886   6.446 -0.8105 -0.7310 -0.0897
  169SAPS   C2119104   0.621   2.947   6.379  0.3944 -0.4499 -0.6586
  169SAPS   O2219105   0.584   3.060   6.397  0.0029  0.2672  0.1108
  169SAPS   C2219106   0.559   2.855   6.274 -0.0236  0.0841 -0.0240
  169SAPS   H2R19107   0.593   2.753   6.302  0.9512  1.0271  2.4856
  169SAPS   H2S19108   0.449   2.861   6.284  0.0145  0.5568  0.1285
  169SAPS    C319109   0.922   2.896   6.582 -0.8646 -0.5102  0.4381
  169SAPS    HX19110   0.906   2.790   6.611 -0.8339 -0.9779 -1.1389
  169SAPS    HY19111   0.957   2.950   6.673 -1.9540 -0.3357  0.7602
  169SAPS   O3119112   1.022   2.892   6.474  0.3370 -0.5490 -0.0776
  169SAPS   C3119113   1.077   3.008   6.439  0.4565 -0.3327  0.1812
  169SAPS   O3219114   1.054   3.111   6.504  0.3607  0.2744 -0.7590
  169SAPS   C3219115   1.175   2.998   6.324 -0.7252 -0.0986 -0.2099
  169SAPS   H2X19116   1.178   2.895   6.284 -0.9297 -0.0255 -0.4113
  169SAPS   H2Y19117   1.280   3.024   6.350 -1.0318  0.2506  0.6980
  169SAPS   C2319118   0.616   2.898   6.136  0.2300  0.6286 -0.7932
  169SAPS   H3R19119   0.725   2.880   6.140  0.4027  0.3778 -4.0166
  169SAPS   H3S19120   0.608   3.009   6.134  0.7751  0.7023  0.4739
  169SAPS   C2419121   0.567   2.814   6.012  0.9976 -0.3252 -0.3441
  169SAPS   H4R19122   0.457   2.800   6.020  0.7050 -0.9083 -3.9658
  169SAPS   H4S19123   0.616   2.715   6.000 -0.0251 -0.8923  0.0316
  169SAPS   C2519124   0.592   2.890   5.881  0.3421  0.1023  0.0796
  169SAPS   H5R19125   0.693   2.935   5.879  0.3274  0.1045 -0.9606
  169SAPS   C2619126   0.505   2.911   5.780 -0.2458 -0.6658 -0.6155
  169SAPS   H6R19127   0.547   2.965   5.694  0.2705 -0.6750 -0.3720
  169SAPS   C2719128   0.374   2.844   5.768  0.9813  0.4142  0.0227
  169SAPS   H7R19129   0.301   2.884   5.693 -1.3314 -0.3106  1.7603
  169SAPS   H7S19130   0.324   2.860   5.866  1.9948 -0.6308  0.7326
  169SAPS   C2819131   0.379   2.698   5.733  0.5270  0.1074  0.1598
  169SAPS   H8R19132   0.431   2.625   5.797  2.7327  1.4436  0.0219
  169SAPS   C2919133   0.317   2.635   5.626 -0.4349  0.4075 -0.1156
  169SAPS   H9R19134   0.342   2.530   5.605  1.5485  0.9585 -0.6773
  169SAPS  C21019135   0.237   2.697   5.511  0.4655 -0.2867 -0.1042
  169SAPS  H10R19136   0.160   2.770   5.544  3.3910  3.6476 -1.1432
  169SAPS  H10S19137   0.191   2.610   5.460  2.1338 -2.4270  1.8237
  169SAPS  C21119138   0.329   2.776   5.416  0.1786  0.2000  0.0163
  169SAPS  H11R19139   0.420   2.818   5.462 -1.1093  1.4528  1.5645
  169SAPS  C21219140   0.298   2.807   5.288  0.2472 -0.6526 -0.8047
  169SAPS  H12R19141   0.371   2.850   5.217 -1.2669  0.7936 -1.5450
  169SAPS  C21319142   0.172   2.770   5.221 -0.6568  0.1905  0.1149
  169SAPS  H13R19143   0.135   2.670   5.251 -2.4994  0.4899 -1.0241
  169SAPS  H13S19144   0.183   2.765   5.111 -2.7146 -1.6692 -0.0764
  169SAPS  C21419145   0.061   2.867   5.250  0.1345  0.1948 -0.0205
  169SAPS  H14R19146  -0.022   2.829   5.311 -0.5066 -0.6891 -1.4078
  169SAPS  C21519147   0.050   2.998   5.214 -0.8886  0.1080  0.8193
  169SAPS  H15R19148  -0.026   3.059   5.264 -0.8426 -0.3123  1.4155
  169SAPS  C21619149   0.151   3.077   5.136 -0.5602  0.4735  0.0907
  169SAPS  H16R19150   0.111   3.097   5.034 -1.2474  1.4297  0.5275
  169SAPS  H16S19151   0.244   3.017   5.124 -1.3703 -1.8732  3.8340
  169SAPS  C21719152   0.187   3.213   5.197  0.0627 -0.3418  0.7645
  169SAPS  H17R19153   0.097   3.277   5.190  0.6207  0.2988 -1.8874
  169SAPS  H17S19154   0.269   3.261   5.140  0.4029 -0.7460  0.9116
  169SAPS  C21819155   0.256   3.202   5.333  0.2029  0.1428  0.3297
  169SAPS  H18R19156   0.351   3.152   5.306 -0.9599 -1.2578 -1.4146
  169SAPS  H18S19157   0.197   3.143   5.407 -0.9023  0.4294 -0.2996
  169SAPS  C21919158   0.274   3.339   5.405 -0.1905  0.3957 -0.3369
  169SAPS  H19R19159   0.177   3.375   5.445 -0.7805 -0.0656 -1.3017
  169SAPS  H19S19160   0.324   3.413   5.339  1.4927  1.3114  1.8564
  169SAPS  C22019161   0.375   3.317   5.522 -0.3063  0.5742 -0.3052
  169SAPS  H20R19162   0.335   3.232   5.580 -2.8934  1.2943 -0.9335
  169SAPS  H20S19163   0.382   3.408   5.585  3.5958  1.2643 -1.4067
  169SAPS  H20T19164   0.479   3.293   5.490  0.2431 -0.3884  1.9827
  169SAPS   C3319165   1.147   3.108   6.226  0.4347 -0.2307  0.0681
  169SAPS   H3X19166   1.216   3.104   6.140  1.5767 -2.3039  1.0101
  169SAPS   H3Y19167   1.159   3.209   6.271  0.0337  0.5474 -1.5015
  169SAPS   C3419168   1.010   3.103   6.161  0.0516  0.6758  0.5310
  169SAPS   H4X19169   0.950   3.189   6.198  0.4443  0.8341  0.8088
  169SAPS   H4Y19170   0.966   3.010   6.203 -0.7573  1.6948  2.0232
  169SAPS   C3519171   1.009   3.116   6.006 -0.2926  0.3268 -0.7453
  169SAPS   H5X19172   1.054   3.215   5.984 -1.1965  1.3581  1.6697
  169SAPS   H5Y19173   0.905   3.118   5.966  0.1333 -0.1621 -1.9410
  169SAPS   C3619174   1.063   2.992   5.933  0.7558 -0.4620  0.7687
  169SAPS   H6X19175   1.008   2.900   5.962  1.1732 -0.7686  0.5865
  169SAPS   H6Y19176   1.173   2.986   5.949  0.9693 -1.2397 -0.8788
  169SAPS   C3719177   1.050   3.014   5.779 -0.0644  0.2520 -0.7839
  169SAPS   H7X19178   1.112   2.931   5.740  0.2158  0.6348 -1.1660
  169SAPS   H7Y19179   1.095   3.106   5.736  1.0944 -0.4118 -1.0509
  169SAPS   C3819180   0.912   3.004   5.725 -0.7977 -0.2197 -0.0091
  169SAPS   H8X19181   0.851   3.091   5.757 -2.5861 -1.0568 -1.0204
  169SAPS   H8Y19182   0.880   2.909   5.773 -0.8196  0.2723  0.9869
  169SAPS   C3919183   0.904   3.003   5.566 -0.2538 -0.1416 -0.0896
  169SAPS   H9X19184   0.972   2.928   5.519  1.0742  0.2900  1.0702
  169SAPS   H9Y19185   0.962   3.096   5.546  0.9236 -0.5860  1.1310
  169SAPS  C31019186   0.761   3.009   5.503 -0.2172 -0.0959 -0.3087
  169SAPS  H10X19187   0.705   3.089   5.555  0.3632 -0.9318  1.6780
  169SAPS  H10Y19188   0.725   2.906   5.524  3.3000 -1.0517  2.0008
  169SAPS  C31119189   0.758   3.042   5.354 -0.1207 -0.4824  0.5455
  169SAPS  H11X19190   0.792   2.953   5.297  1.1657 -0.3126  1.0035
  169SAPS  H11Y19191   0.829   3.123   5.325  2.0967 -2.7389 -0.6468
  169SAPS  C31219192   0.615   3.064   5.287  0.2225  0.4453 -0.0879
  169SAPS  H12X19193   0.581   3.166   5.315 -0.0048  0.4120 -0.2417
  169SAPS  H12Y19194   0.541   2.997   5.337 -0.4225  0.5425 -0.8834
  169SAPS  C31319195   0.603   3.049   5.142  0.0476 -0.5346  1.5820
  169SAPS  H13X19196   0.504   3.088   5.110  0.7229 -0.8879 -1.2631
  169SAPS  H13Y19197   0.607   2.942   5.115  2.0992 -0.0811 -0.1933
  169SAPS  C31419198   0.713   3.118   5.058 -0.0762 -0.8019  1.0055
  169SAPS  H14X19199   0.808   3.089   5.107  0.0855  1.6403  2.2550
  169SAPS  H14Y19200   0.712   3.229   5.055 -4.4608 -0.4902  3.6267
  169SAPS  C31519201   0.715   3.059   4.922 -0.0984  0.0074 -0.2133
  169SAPS  H15X19202   0.619   3.058   4.865 -0.1420 -1.7792 -0.1830
  169SAPS  H15Y19203   0.732   2.952   4.949  1.4463  0.1031 -0.7155
  169SAPS  C31619204   0.816   3.106   4.817 -0.5516 -0.2836 -0.2054
  169SAPS  H16X19205   0.910   3.099   4.876 -0.7107  2.4327  0.5420
  169SAPS  H16Y19206   0.808   3.216   4.803  0.6930 -0.2185 -0.5152
  169SAPS  C31719207   0.835   3.024   4.686  0.3375  0.7957 -0.3178
  169SAPS  H17X19208   0.749   3.054   4.623 -0.2406  2.2171  1.0760
  169SAPS  H17Y19209   0.811   2.917   4.704 -1.7837  0.9968 -1.6561
  169SAPS  C31819210   0.971   3.051   4.627 -0.0937  0.3986  0.8587
  169SAPS  H18X19211   0.983   3.161   4.610  0.8505  0.3452  1.1518
  169SAPS  H18Y19212   0.990   3.005   4.528 -3.4473  1.0342 -0.1957
  169SAPS  H18Z19213   1.049   3.023   4.701 -0.4621 -1.5364  0.5676
  170SAPS     N19214   2.667   4.662   6.943 -0.1404 -0.1286 -0.7137
  170SAPS   HN119215   2.745   4.596   6.927  0.4963  0.1405  1.0701
  170SAPS   HN219216   2.595   4.636   6.873 -0.6452  0.4623 -0.4228
  170SAPS   HN319217   2.691   4.758   6.910 -1.5460 -0.2839 -2.3217
  170SAPS   C1219218   2.619   4.675   7.081  0.2092  0.5086  0.7539
  170SAPS  H12A19219   2.582   4.578   7.110  1.5803 -0.2384  0.1153
  170SAPS   C1319220   2.725   4.711   7.185 -0.2478 -0.4845  0.6153
  170SAPS  O13A19221   2.848   4.691   7.155  0.3567 -0.1345 -0.0224
  170SAPS  O13B19222   2.684   4.708   7.304  0.0996 -0.4415 -0.3119
  170SAPS   C1119223   2.491   4.772   7.083 -1.1009 -0.1199  0.2710
  170SAPS  H11A19224   2.453   4.776   7.187 -0.6573  3.6807  0.4460
  170SAPS  H11B19225   2.402   4.734   7.028 -0.4111 -1.9461  0.3757
  170SAPS     P19226   2.408   5.010   7.021  0.1198  0.5118  0.1288
  170SAPS   O1319227   2.334   5.021   7.149 -0.3929 -0.0580  0.3390
  170SAPS   O1419228   2.470   5.125   6.962  0.1427  0.1299  0.0226
  170SAPS   O1219229   2.522   4.906   7.036 -0.2551 -0.0582  0.1135
  170SAPS   O1119230   2.314   4.927   6.914 -0.1128  0.5665 -0.0951
  170SAPS    C119231   2.180   4.961   6.878  0.1556 -0.1670  0.6445
  170SAPS    HA19232   2.111   4.874   6.874 -1.5899  1.1366 -2.3224
  170SAPS    HB19233   2.135   5.039   6.944 -0.0659  0.2751 -0.0116
  170SAPS    C219234   2.173   5.009   6.728 -0.9696  0.4643  0.2071
  170SAPS    HS19235   2.171   4.920   6.662 -0.5239  2.6447 -3.0097
  170SAPS   O2119236   2.300   5.075   6.713  0.3995  0.3838 -0.3376
  170SAPS   C2119237   2.352   5.048   6.592 -0.0092 -0.7912  0.2765
  170SAPS   O2219238   2.317   4.973   6.503  0.5548 -0.4580 -0.6430
  170SAPS   C2219239   2.451   5.166   6.566 -0.5638  0.3905 -0.3628
  170SAPS   H2R19240   2.388   5.254   6.588 -2.1684 -1.0987  1.2487
  170SAPS   H2S19241   2.533   5.157   6.640 -2.4345 -0.9136  1.6528
  170SAPS    C319242   2.043   5.090   6.690  0.2781 -0.5095  0.4721
  170SAPS    HX19243   2.024   5.150   6.781 -2.1473  0.4512 -0.5934
  170SAPS    HY19244   1.963   5.014   6.678 -1.1179  1.0422 -0.4482
  170SAPS   O3119245   2.052   5.168   6.574  0.6273 -0.4344 -0.5046
  170SAPS   C3119246   2.101   5.288   6.581 -0.0778 -0.7792 -0.3386
  170SAPS   O3219247   2.167   5.333   6.673  0.0579 -0.5571  0.0024
  170SAPS   C3219248   2.065   5.369   6.451  0.0017 -1.1408 -0.1608
  170SAPS   H2X19249   1.964   5.325   6.438 -0.0660 -1.3403  0.9707
  170SAPS   H2Y19250   2.127   5.340   6.364 -1.8741 -0.2263 -1.8897
  170SAPS   C2319251   2.504   5.181   6.423 -0.3640  0.2253  0.3071
  170SAPS   H3R19252   2.417   5.188   6.354  1.6158 -2.3133 -2.7017
  170SAPS   H3S19253   2.540   5.089   6.372 -1.0906 -0.4697  1.0146
  170SAPS   C2419254   2.598   5.292   6.381  0.3640 -0.7054  0.6923
  170SAPS   H4R19255   2.624   5.267   6.276  0.3709  1.4060  0.1439
  170SAPS   H4S19256   2.694   5.279   6.434  0.2215 -1.6314  0.7447
  170SAPS   C2519257   2.540   5.436   6.387 -0.6343  0.0377 -0.7684
  170SAPS   H5R19258   2.549   5.497   6.478 -2.8575 -1.3010  0.4200
  170SAPS   C2619259   2.481   5.486   6.276  0.1879 -0.2682  0.7290
  170SAPS   H6R19260   2.460   5.593   6.284 -2.7479 -0.6240 -1.0431
  170SAPS   C2719261   2.458   5.424   6.140  0.1200  0.5132  0.0427
  170SAPS   H7R19262   2.402   5.329   6.157  1.7899 -0.1716  2.0510
  170SAPS   H7S19263   2.555   5.391   6.097  1.3285  0.8029  2.4242
  170SAPS   C2819264   2.386   5.516   6.047  0.3191 -0.1453 -0.2082
  170SAPS   H8R19265   2.286   5.546   6.082 -0.4963  0.4937 -2.8998
  170SAPS   C2919266   2.403   5.551   5.917  0.3719 -0.0239 -0.2932
  170SAPS   H9R19267   2.342   5.625   5.862 -2.0178 -0.6763  1.3176
  170SAPS  C21019268   2.510   5.495   5.831 -0.0176 -0.0235  0.1787
  170SAPS  H10R19269   2.526   5.387   5.852 -0.7987 -0.1726  0.0310
  170SAPS  H10S19270   2.607   5.531   5.870 -0.2033 -0.1847  0.7966
  170SAPS  C21119271   2.505   5.525   5.680  0.2072 -0.1967  0.0550
  170SAPS  H11R19272   2.569   5.612   5.660  2.2941 -0.6290  3.9341
  170SAPS  C21219273   2.414   5.489   5.589  0.8120  0.4451  0.0023
  170SAPS  H12R19274   2.414   5.525   5.484 -1.9559  0.5423 -0.0256
  170SAPS  C21319275   2.301   5.387   5.613  0.7144  0.9990 -0.1335
  170SAPS  H13R19276   2.339   5.301   5.671  0.6606  1.3782  0.4728
  170SAPS  H13S19277   2.281   5.342   5.513 -0.7127 -0.5479  0.8226
  170SAPS  C21419278   2.165   5.445   5.660 -0.0964  0.7211  0.0536
  170SAPS  H14R19279   2.153   5.453   5.769 -2.4314  2.5337 -0.2531
  170SAPS  C21519280   2.070   5.492   5.577 -0.0037  0.9048  0.7173
  170SAPS  H15R19281   1.982   5.545   5.616 -1.9393 -2.4197  1.2086
  170SAPS  C21619282   2.075   5.502   5.427 -0.0829  0.1832  0.2300
  170SAPS  H16R19283   2.174   5.473   5.385  0.2576  0.0813  1.0659
  170SAPS  H16S19284   2.049   5.605   5.396 -1.7497 -0.6510 -1.3122
  170SAPS  C21719285   1.963   5.401   5.374  0.1977 -0.3146  0.7813
  170SAPS  H17R19286   1.874   5.451   5.419 -0.2801  0.3908 -0.8756
  170SAPS  H17S19287   1.971   5.300   5.419 -0.4225 -1.0174 -0.6336
  170SAPS  C21819288   1.950   5.387   5.223  0.0477  0.3229  0.0087
  170SAPS  H18R19289   1.868   5.314   5.203  0.5651 -0.4369  0.5865
  170SAPS  H18S19290   2.050   5.354   5.189  0.6734  2.2883 -0.1738
  170SAPS  C21919291   1.911   5.509   5.144  0.7726 -0.0456  0.1922
  170SAPS  H19R19292   1.981   5.594   5.163  0.8459 -0.2482  0.8664
  170SAPS  H19S19293   1.812   5.539   5.183  0.0637 -0.5903 -1.1151
  170SAPS  C22019294   1.894   5.488   4.992 -0.1369  0.1207  0.4531
  170SAPS  H20R19295   1.989   5.458   4.943  0.6038  2.3206  0.4646
  170SAPS  H20S19296   1.865   5.581   4.941 -1.4785  0.4001  1.6671
  170SAPS  H20T19297   1.820   5.405   4.988 -1.0044  0.7092  2.6228
  170SAPS   C3319298   2.077   5.526   6.479 -0.1554 -0.4129  0.2168
  170SAPS   H3X19299   2.183   5.556   6.488  0.1072 -1.2410 -0.0551
  170SAPS   H3Y19300   2.027   5.534   6.577  0.7708 -0.2330  0.6826
  170SAPS   C3419301   2.006   5.616   6.374  0.7088 -0.8552 -0.7496
  170SAPS   H4X19302   1.992   5.719   6.412  0.4888 -0.2257 -2.4244
  170SAPS   H4Y19303   1.901   5.579   6.371  0.8564 -1.2655 -1.0958
  170SAPS   C3519304   2.054   5.617   6.230 -0.3296 -0.0800 -0.5761
  170SAPS   H5X19305   2.042   5.513   6.193  0.2247 -0.0102 -0.9706
  170SAPS   H5Y19306   2.161   5.648   6.231 -0.2344 -0.4105 -0.1334
  170SAPS   C3619307   1.976   5.712   6.144  0.2241 -0.0750  0.2943
  170SAPS   H6X19308   1.989   5.813   6.188 -2.3154  0.2851  0.3593
  170SAPS   H6Y19309   1.869   5.683   6.139  1.1556 -3.9045 -1.4667
  170SAPS   C3719310   2.014   5.733   5.994 -0.7518 -0.6232  0.4964
  170SAPS   H7X19311   2.023   5.633   5.947 -1.0229 -0.2922 -0.2922
  170SAPS   H7Y19312   2.119   5.768   5.983 -0.5050 -1.6856 -0.8189
  170SAPS   C3819313   1.923   5.824   5.917 -0.3769  0.1994  0.8620
  170SAPS   H8X19314   1.914   5.927   5.958  0.6721  1.2541 -1.3870
  170SAPS   H8Y19315   1.819   5.787   5.923 -1.3852  2.8484  1.4016
  170SAPS   C3919316   1.972   5.836   5.776  0.1169 -0.3087 -0.6209
  170SAPS   H9X19317   1.892   5.837   5.699 -0.7602 -1.5180  0.2277
  170SAPS   H9Y19318   2.044   5.752   5.762 -0.2231 -1.1463  2.0294
  170SAPS  C31019319   2.060   5.962   5.760  0.4251  0.0879  0.2433
  170SAPS  H10X19320   2.108   5.976   5.859 -1.0152  2.4845  0.6920
  170SAPS  H10Y19321   1.995   6.052   5.763 -1.5653 -1.3070  1.7762
  170SAPS  C31119322   2.134   5.975   5.628 -0.4602 -0.4846 -0.6746
  170SAPS  H11X19323   2.214   5.898   5.623 -1.3104 -1.5084  0.7772
  170SAPS  H11Y19324   2.183   6.074   5.638  0.1745 -0.9685  1.5190
  170SAPS  C31219325   2.044   5.977   5.500  0.4343 -0.3906 -0.4704
  170SAPS  H12X19326   1.962   6.048   5.520 -0.8915 -2.4622  2.1005
  170SAPS  H12Y19327   2.004   5.874   5.486 -0.5563 -0.1053  0.2021
  170SAPS  C31319328   2.131   6.014   5.386  0.7108 -0.3396 -0.6434
  170SAPS  H13X19329   2.232   5.969   5.398  0.2240 -1.5572 -0.9159
  170SAPS  H13Y19330   2.160   6.120   5.400 -0.8990  0.2915 -1.8354
  170SAPS  C31419331   2.066   5.997   5.251 -0.7261  0.6572 -0.6533
  170SAPS  H14X19332   1.963   6.038   5.247 -1.6424 -1.5513 -1.1102
  170SAPS  H14Y19333   2.043   5.890   5.230  2.1384 -0.5072  1.4145
  170SAPS  C31519334   2.161   6.047   5.140 -0.4192 -0.1073 -0.1742
  170SAPS  H15X19335   2.249   5.979   5.143 -0.6764 -0.4626 -0.5342
  170SAPS  H15Y19336   2.195   6.148   5.171  1.7582 -0.4191 -1.3377
  170SAPS  C31619337   2.098   6.053   5.004 -0.0524 -0.0006 -0.3154
  170SAPS  H16X19338   2.004   6.112   4.999 -0.1827 -0.1404  0.3673
  170SAPS  H16Y19339   2.067   5.949   4.978  1.4081 -0.2824 -1.0360
  170SAPS  C31719340   2.190   6.117   4.895 -0.3030  0.1828  0.4775
  170SAPS  H17X19341   2.286   6.062   4.883  0.4199  1.3607  0.6758
  170SAPS  H17Y19342   2.207   6.219   4.936 -0.4531  0.2710  0.3206
  170SAPS  C31819343   2.123   6.130   4.755 -0.3291 -0.2437 -0.1897
  170SAPS  H18X19344   2.189   6.177   4.679 -0.6231  0.0470 -0.2661
  170SAPS  H18Y19345   2.038   6.197   4.780 -0.0882  0.0945 -0.2778
  170SAPS  H18Z19346   2.080   6.034   4.719 -1.8551  0.8197 -1.3256
  171SAPS     N19347   2.677   0.488   6.748  0.0861  0.2695 -0.4213
  171SAPS   HN119348   2.642   0.516   6.654  0.3086 -1.4441 -1.0457
  171SAPS   HN219349   2.684   0.567   6.815 -0.0754 -1.1066  1.2887
  171SAPS   HN319350   2.771   0.445   6.741  0.0382  0.3490 -1.8922
  171SAPS   C1219351   2.589   0.389   6.813 -0.7448 -0.2477 -0.3021
  171SAPS  H12A19352   2.657   0.330   6.873  1.8425  1.0724 -1.7270
  171SAPS   C1319353   2.477   0.448   6.904  1.0904  0.0771 -0.3093
  171SAPS  O13A19354   2.445   0.575   6.904 -0.2575  0.3968  0.5014
  171SAPS  O13B19355   2.405   0.358   6.956 -0.0406 -0.6082 -0.9604
  171SAPS   C1119356   2.534   0.299   6.698 -0.5424  0.0544 -0.7242
  171SAPS  H11A19357   2.619   0.274   6.631 -1.0425 -0.5268 -1.1559
  171SAPS  H11B19358   2.460   0.364   6.647 -2.2309  0.0927  1.5549
  171SAPS     P19359   2.540   0.044   6.771 -0.0822  0.4234  0.0931
  171SAPS   O1319360   2.676   0.074   6.819 -0.2301 -0.2870 -0.1910
  171SAPS   O1419361   2.453  -0.036   6.858 -0.1829 -0.5947 -0.1960
  171SAPS   O1219362   2.467   0.180   6.747  0.5660 -0.3671  0.0054
  171SAPS   O1119363   2.561  -0.027   6.627  0.3244 -0.0736  0.2475
  171SAPS    C119364   2.448  -0.039   6.544  0.7150 -0.1831  0.7428
  171SAPS    HA19365   2.442  -0.142   6.503 -0.5071  0.5670 -1.0638
  171SAPS    HB19366   2.355  -0.015   6.599  1.4094  0.2914  1.7438
  171SAPS    C219367   2.448   0.050   6.417  0.6434 -0.6379  0.3432
  171SAPS    HS19368   2.446   0.158   6.442 -2.8029  0.2166 -2.6795
  171SAPS   O2119369   2.326   0.022   6.345 -0.2987 -0.0144 -0.2794
  171SAPS   C2119370   2.220   0.094   6.388  0.0853  0.3437  0.0090
  171SAPS   O2219371   2.212   0.167   6.479  0.1072 -0.5205 -0.5744
  171SAPS   C2219372   2.107   0.077   6.282 -0.4560  0.4366  0.2531
  171SAPS   H2R19373   2.153   0.080   6.181  0.4366 -1.3316  0.5736
  171SAPS   H2S19374   2.061  -0.023   6.302 -0.7435  0.3497 -0.7936
  171SAPS    C319375   2.562   0.026   6.321 -0.0819  0.1244  0.5012
  171SAPS    HX19376   2.550  -0.075   6.276  2.3428 -0.0158  0.0706
  171SAPS    HY19377   2.659   0.019   6.374 -0.1216  2.1385  0.9166
  171SAPS   O3119378   2.573   0.112   6.210  0.2748  0.1087  0.0210
  171SAPS   C3119379   2.613   0.235   6.245  0.1663 -1.1888  0.1944
  171SAPS   O3219380   2.651   0.269   6.354 -0.2577  0.0607  0.4727
  171SAPS   C3219381   2.603   0.327   6.123  0.5122 -0.1002 -0.0949
  171SAPS   H2X19382   2.498   0.364   6.117  0.4895  0.0491  0.9950
  171SAPS   H2Y19383   2.614   0.260   6.035  0.0619 -0.8718  0.4243
  171SAPS   C2319384   1.989   0.176   6.306 -0.1570 -0.1329  0.1170
  171SAPS   H3R19385   2.013   0.284   6.313  1.4653 -0.4754  0.1935
  171SAPS   H3S19386   1.936   0.144   6.398 -0.3977 -1.9219 -0.5812
  171SAPS   C2419387   1.872   0.169   6.207 -0.1900  0.5425  0.7866
  171SAPS   H4R19388   1.796   0.241   6.243 -0.1679  2.1137 -2.0134
  171SAPS   H4S19389   1.826   0.068   6.204 -0.3452  0.6259 -0.7163
  171SAPS   C2519390   1.917   0.224   6.071  0.1287 -0.2561 -0.0015
  171SAPS   H5R19391   2.005   0.288   6.059 -0.9479  1.7093  1.8296
  171SAPS   C2619392   1.848   0.199   5.952  0.4514  0.5309 -0.1685
  171SAPS   H6R19393   1.896   0.232   5.858  0.3489 -0.2348 -0.4975
  171SAPS   C2719394   1.733   0.107   5.945 -0.2811  0.3253 -0.2520
  171SAPS   H7R19395   1.742   0.025   6.019  1.1703 -0.9376 -1.7443
  171SAPS   H7S19396   1.732   0.068   5.841 -2.2026 -2.0387  0.5766
  171SAPS   C2819397   1.600   0.173   5.979  0.1554 -0.1158  0.3441
  171SAPS   H8R19398   1.606   0.219   6.078  0.3189  1.7462 -0.4948
  171SAPS   C2919399   1.477   0.162   5.921 -0.6427 -0.7222 -0.1898
  171SAPS   H9R19400   1.392   0.212   5.969  1.3119  1.2659  1.4706
  171SAPS  C21019401   1.449   0.106   5.781  0.4229  0.2053 -0.1765
  171SAPS  H10R19402   1.389   0.013   5.791  0.9680 -0.1914 -0.5044
  171SAPS  H10S19403   1.545   0.089   5.726  0.4957 -0.8226  0.2435
  171SAPS  C21119404   1.353   0.203   5.711  0.1428  0.1949  0.1973
  171SAPS  H11R19405   1.339   0.307   5.746  0.9339 -0.2186  1.8729
  171SAPS  C21219406   1.280   0.172   5.602  0.2400 -0.1275 -1.0064
  171SAPS  H12R19407   1.206   0.244   5.565 -0.8722  0.0327  1.3257
  171SAPS  C21319408   1.269   0.038   5.531  0.5881 -0.4411  0.1150
  171SAPS  H13R19409   1.161   0.014   5.531  0.7171 -1.3640  2.8064
  171SAPS  H13S19410   1.320  -0.040   5.592  1.3269 -1.9794 -2.3524
  171SAPS  C21419411   1.329   0.035   5.388  0.4036  0.3222  0.7552
  171SAPS  H14R19412   1.439   0.041   5.388  0.3351  4.2016 -0.1671
  171SAPS  C21519413   1.260   0.019   5.275 -0.2019 -0.1038 -0.8059
  171SAPS  H15R19414   1.312   0.018   5.178  0.6431  0.1068 -0.3709
  171SAPS  C21619415   1.107   0.012   5.261 -0.8591 -0.6239  0.2399
  171SAPS  H16R19416   1.070   0.070   5.175 -2.0430 -3.2621 -1.1593
  171SAPS  H16S19417   1.066   0.049   5.357 -0.5759 -1.4680  0.7031
  171SAPS  C21719418   1.073  -0.137   5.241 -0.1919  0.1716 -0.1630
  171SAPS  H17R19419   1.090  -0.194   5.334 -1.0751 -1.9002 -1.2110
  171SAPS  H17S19420   1.131  -0.185   5.159 -0.1933  0.7435 -0.5093
  171SAPS  C21819421   0.930  -0.150   5.191  0.7488 -0.1224  0.6063
  171SAPS  H18R19422   0.886  -0.064   5.137  2.6984  1.3728  1.2553
  171SAPS  H18S19423   0.864  -0.159   5.280  0.5431 -0.4973  0.4178
  171SAPS  C21919424   0.897  -0.262   5.093  0.1883  0.1816 -0.2634
  171SAPS  H19R19425   0.952  -0.346   5.142 -0.8396  0.0505  0.7060
  171SAPS  H19S19426   0.948  -0.243   4.996 -1.5594  0.0935 -1.2288
  171SAPS  C22019427   0.746  -0.290   5.070  0.1521 -0.4102 -0.2665
  171SAPS  H20R19428   0.689  -0.287   5.165  0.0972 -0.9301 -0.2777
  171SAPS  H20S19429   0.730  -0.393   5.032 -1.4682 -0.3122  0.1148
  171SAPS  H20T19430   0.698  -0.217   5.001  0.4106  1.1924  1.1971
  171SAPS   C3319431   2.704   0.442   6.133  0.3520 -0.7830  0.1960
  171SAPS   H3X19432   2.803   0.390   6.136 -0.0666 -1.6457 -0.4935
  171SAPS   H3Y19433   2.688   0.501   6.225  1.9360  0.4507 -0.2757
  171SAPS   C3419434   2.717   0.538   6.018 -0.1174 -0.5710  0.0048
  171SAPS   H4X19435   2.778   0.628   6.038 -1.9981  0.4251  1.6206
  171SAPS   H4Y19436   2.612   0.572   6.003 -1.1464 -3.4815 -0.0146
  171SAPS   C3519437   2.774   0.471   5.888  0.4349  1.0271  0.7286
  171SAPS   H5X19438   2.697   0.405   5.842  0.1194  1.7066  0.2460
  171SAPS   H5Y19439   2.860   0.408   5.917  0.2027  0.6436  0.5927
  171SAPS   C3619440   2.811   0.579   5.784 -0.2911  1.0319 -0.4836
  171SAPS   H6X19441   2.875   0.653   5.836 -0.7673  0.9736  0.2030
  171SAPS   H6Y19442   2.722   0.629   5.740 -0.5387  1.0025 -0.0188
  171SAPS   C3719443   2.886   0.521   5.663 -0.7849 -0.5776  0.1698
  171SAPS   H7X19444   2.812   0.464   5.602 -2.3096 -0.8030  2.1332
  171SAPS   H7Y19445   2.959   0.451   5.710 -0.1301 -0.7135 -0.9969
  171SAPS   C3819446   2.957   0.638   5.599 -0.0387 -0.4606  0.5724
  171SAPS   H8X19447   3.039   0.667   5.667 -0.2854  2.2647 -0.1543
  171SAPS   H8Y19448   2.890   0.727   5.592  1.1863  0.5773  1.6650
  171SAPS   C3919449   3.038   0.623   5.467 -0.0015  0.3333 -0.0736
  171SAPS   H9X19450   2.971   0.575   5.393 -3.4957  2.8812  1.1534
  171SAPS   H9Y19451   3.124   0.560   5.500  0.8297 -0.1926 -2.9446
  171SAPS  C31019452   3.086   0.761   5.411  0.1418 -0.2994  0.4682
  171SAPS  H10X19453   3.155   0.814   5.480  0.4659  1.7217 -1.3167
  171SAPS  H10Y19454   2.994   0.820   5.394  0.3577 -0.5678 -1.9163
  171SAPS  C31119455   3.177   0.748   5.292  0.5041  0.1131  0.2062
  171SAPS  H11X19456   3.268   0.697   5.331  1.3452  0.9832 -0.5954
  171SAPS  H11Y19457   3.208   0.849   5.260 -1.1114  0.4591 -0.3610
  171SAPS  C31219458   3.122   0.672   5.171 -0.4265  0.1119  0.7319
  171SAPS  H12X19459   3.025   0.701   5.125  0.0477 -0.6021 -0.7864
  171SAPS  H12Y19460   3.101   0.574   5.219  0.3997 -0.1300  0.6270
  171SAPS  C31319461   3.226   0.652   5.054  0.3081  0.6235  0.2794
  171SAPS  H13X19462   3.195   0.558   5.004 -1.0378  2.3532 -2.3768
  171SAPS  H13Y19463   3.326   0.642   5.101  1.1341  0.7205 -1.3991
  171SAPS  C31419464   3.227   0.771   4.962  0.4738  0.2276  0.7206
  171SAPS  H14X19465   3.226   0.865   5.021  0.4641 -0.8665  2.5529
  171SAPS  H14Y19466   3.137   0.766   4.898  1.1527 -0.3906 -0.2181
  171SAPS  C31519467   3.345   0.752   4.857  0.0253 -0.0307  0.2168
  171SAPS  H15X19468   3.442   0.732   4.905  1.4108  1.0440 -1.9433
  171SAPS  H15Y19469   3.364   0.849   4.805  1.4111  0.8009  2.1530
  171SAPS  C31619470   3.328   0.639   4.748 -0.2891 -0.4907 -0.3091
  171SAPS  H16X19471   3.287   0.547   4.797 -0.7292 -1.3717 -2.2397
  171SAPS  H16Y19472   3.425   0.602   4.708 -0.4951 -2.7412  1.0279
  171SAPS  C31719473   3.230   0.668   4.638  0.2775  0.7010  0.0906
  171SAPS  H17X19474   3.132   0.692   4.684 -0.2596  2.5834 -1.8824
  171SAPS  H17Y19475   3.207   0.576   4.580 -0.7382  1.5140 -0.8383
  171SAPS  C31819476   3.275   0.777   4.533  0.5974 -0.0974  0.5031
  171SAPS  H18X19477   3.355   0.731   4.471  0.5945  1.1491 -0.4540
  171SAPS  H18Y19478   3.318   0.869   4.579  0.4583  0.3216 -0.1925
  171SAPS  H18Z19479   3.196   0.808   4.462  0.7908  1.5990  0.9816
  172SAPS     N19480   2.750   6.278   7.261  0.3787 -0.0815  0.4443
  172SAPS   HN119481   2.845   6.234   7.267  0.0137 -0.8949  0.3641
  172SAPS   HN219482   2.695   6.240   7.341 -0.6243  1.4408  0.5166
  172SAPS   HN319483   2.716   6.241   7.170  0.2341 -1.4269  1.0113
  172SAPS   C1219484   2.759   6.421   7.257 -0.0200 -0.7639  0.0606
  172SAPS  H12A19485   2.665   6.452   7.214 -0.3470  1.1572  1.9616
  172SAPS   C1319486   2.766   6.478   7.405  0.1277  0.4612 -0.5622
  172SAPS  O13A19487   2.746   6.405   7.507  0.8756  0.0296  0.3232
  172SAPS  O13B19488   2.768   6.604   7.410  0.1532 -0.1570 -0.3035
  172SAPS   C1119489   2.887   6.469   7.185  0.2365  0.2852  1.4663
  172SAPS  H11A19490   2.968   6.416   7.239 -0.1339  0.1388  1.8910
  172SAPS  H11B19491   2.909   6.576   7.208 -1.5686  1.3217 -1.0616
  172SAPS     P19492   2.818   6.535   6.941  0.2150  0.1255 -0.2732
  172SAPS   O1319493   2.684   6.565   6.990  0.0370 -0.1142 -0.3213
  172SAPS   O1419494   2.903   6.657   6.945 -0.1531  0.0120 -0.1325
  172SAPS   O1219495   2.882   6.423   7.042  0.3332  0.2871 -0.2690
  172SAPS   O1119496   2.816   6.470   6.799  0.3189  0.4257  0.2331
  172SAPS    C119497   2.903   6.359   6.758 -0.7471 -0.4736 -0.4654
  172SAPS    HA19498   3.007   6.400   6.763 -0.5849 -0.9757  0.8514
  172SAPS    HB19499   2.907   6.280   6.836  1.0553 -1.3493 -1.3909
  172SAPS    C219500   2.877   6.301   6.610 -0.5649 -0.7629  0.0114
  172SAPS    HS19501   2.971   6.258   6.571 -1.6341 -1.6667 -1.6955
  172SAPS   O2119502   2.828   6.395   6.509  0.4008 -0.1022 -0.0845
  172SAPS   C2119503   2.919   6.494   6.479 -0.1272 -0.7394  0.1327
  172SAPS   O2219504   3.030   6.495   6.528  0.6284 -0.9992  0.1200
  172SAPS   C2219505   2.866   6.583   6.360  0.2981  0.1951  0.1838
  172SAPS   H2R19506   2.843   6.527   6.266 -1.2852  1.5531 -0.2738
  172SAPS   H2S19507   2.773   6.625   6.402  1.0789  2.4905 -0.2430
  172SAPS    C319508   2.776   6.183   6.622  0.4300 -0.0283  0.3178
  172SAPS    HX19509   2.684   6.241   6.646  0.4957 -0.3100  1.2656
  172SAPS    HY19510   2.807   6.129   6.714  1.8853  2.0962  1.1550
  172SAPS   O3119511   2.770   6.088   6.513 -0.1213 -0.9209  0.1788
  172SAPS   C3119512   2.647   6.035   6.500 -0.8327  0.6922  0.0407
  172SAPS   O3219513   2.554   6.047   6.582 -0.3876  0.5477  0.0275
  172SAPS   C3219514   2.652   5.933   6.380 -0.3600 -0.4802  0.3745
  172SAPS   H2X19515   2.630   5.828   6.411  0.2143 -0.6255  0.2968
  172SAPS   H2Y19516   2.753   5.945   6.336  0.1900 -0.2675  1.6506
  172SAPS   C2319517   2.954   6.704   6.336  0.3736 -0.7271  0.2470
  172SAPS   H3R19518   3.061   6.681   6.316  0.1031 -2.2813  0.4799
  172SAPS   H3S19519   2.956   6.758   6.433 -0.9827  0.5877 -0.4323
  172SAPS   C2419520   2.898   6.813   6.240  0.2376  0.4375  0.6820
  172SAPS   H4R19521   2.929   6.909   6.286  0.5671  1.0941 -0.8546
  172SAPS   H4S19522   2.787   6.809   6.244  0.2268  0.9843  0.9785
  172SAPS   C2519523   2.933   6.787   6.097 -0.6265 -0.4861 -0.0737
  172SAPS   H5R19524   2.942   6.687   6.054  2.8738  0.0385 -0.8639
  172SAPS   C2619525   2.951   6.883   6.001 -0.9446  0.1391 -0.1345
  172SAPS   H6R19526   2.971   6.843   5.900 -2.0063 -1.6482  0.3300
  172SAPS   C2719527   2.950   7.032   6.024  0.3172  0.0128 -0.0294
  172SAPS   H7R19528   3.054   7.063   5.998  0.8774 -2.6946 -1.3954
  172SAPS   H7S19529   2.926   7.058   6.129  1.3626 -1.2860  0.5653
  172SAPS   C2819530   2.852   7.099   5.927  0.1719  0.8438 -0.2000
  172SAPS   H8R19531   2.753   7.110   5.972  0.0830 -0.4518 -0.0391
  172SAPS   C2919532   2.871   7.154   5.804 -0.4884 -0.4478 -0.4582
  172SAPS   H9R19533   2.789   7.189   5.740  0.2330  1.4352 -0.4121
  172SAPS  C21019534   3.009   7.143   5.733  0.6485 -0.2040  0.5529
  172SAPS  H10R19535   3.083   7.102   5.806  1.7356  0.4459 -0.1671
  172SAPS  H10S19536   3.042   7.245   5.705 -1.0195  0.0287 -0.7583
  172SAPS  C21119537   3.019   7.046   5.620 -0.1516 -0.2326  0.0357
  172SAPS  H11R19538   3.000   6.938   5.633  2.1035 -0.9712 -1.9117
  172SAPS  C21219539   3.056   7.080   5.493 -0.8622  0.1837 -0.1193
  172SAPS  H12R19540   3.046   6.997   5.421 -1.2534 -0.6005  0.8133
  172SAPS  C21319541   3.086   7.224   5.455  0.2162 -0.8881 -0.3579
  172SAPS  H13R19542   3.161   7.272   5.523 -0.2047 -1.1614  0.3136
  172SAPS  H13S19543   2.994   7.286   5.464  1.9118  2.2772 -2.7283
  172SAPS  C21419544   3.120   7.238   5.309 -0.1708  0.1964  0.7981
  172SAPS  H14R19545   3.226   7.247   5.282 -0.4337  0.8791 -0.0925
  172SAPS  C21519546   3.037   7.221   5.204  0.6686  0.5800 -0.0876
  172SAPS  H15R19547   3.074   7.245   5.103  0.0335 -1.0905 -0.7534
  172SAPS  C21619548   2.889   7.203   5.203  0.0471 -0.3674  1.0006
  172SAPS  H16R19549   2.843   7.216   5.303 -2.2079 -0.1870  0.0218
  172SAPS  H16S19550   2.856   7.098   5.189  0.1038 -0.3723  0.8944
  172SAPS  C21719551   2.811   7.296   5.103 -0.2479  0.2326  0.5586
  172SAPS  H17R19552   2.704   7.267   5.105 -0.1943 -0.0411 -0.1901
  172SAPS  H17S19553   2.853   7.277   5.002 -2.2985  0.7667 -0.4479
  172SAPS  C21819554   2.821   7.450   5.133 -0.9532  0.0920 -0.0419
  172SAPS  H18R19555   2.928   7.473   5.152 -0.8736 -0.6803  0.5106
  172SAPS  H18S19556   2.759   7.472   5.223 -1.9694  2.2525 -1.2035
  172SAPS  C21919557   2.767   7.537   5.016  0.0540 -0.2306  0.3167
  172SAPS  H19R19558   2.760   7.642   5.051  1.0167  0.0874 -0.3905
  172SAPS  H19S19559   2.667   7.495   4.994  0.3568 -2.0582  2.1253
  172SAPS  C22019560   2.855   7.540   4.886  0.3663 -0.0037  0.4154
  172SAPS  H20R19561   2.805   7.601   4.808 -0.5455 -0.8595  0.3116
  172SAPS  H20S19562   2.867   7.437   4.848  0.9029  0.6496 -1.2515
  172SAPS  H20T19563   2.952   7.589   4.908 -0.5917  2.4762 -0.4241
  172SAPS   C3319564   2.563   5.968   6.266 -0.3866  0.7060  0.0200
  172SAPS   H3X19565   2.573   6.074   6.236 -2.4650  1.3384  1.3680
  172SAPS   H3Y19566   2.454   5.956   6.284 -0.3236 -1.9914 -0.9436
  172SAPS   C3419567   2.593   5.894   6.139  0.5496 -0.9460  0.1609
  172SAPS   H4X19568   2.575   5.789   6.168  0.8938 -0.8377  0.7877
  172SAPS   H4Y19569   2.699   5.909   6.109  1.4388 -0.6341  3.0989
  172SAPS   C3519570   2.500   5.928   6.019  0.2045  0.4163 -0.1795
  172SAPS   H5X19571   2.399   5.887   6.041  1.2931 -1.7006  1.2106
  172SAPS   H5Y19572   2.543   5.888   5.925  0.2904  1.0937 -0.4405
  172SAPS   C3619573   2.480   6.079   5.998  0.3638 -0.0910  0.0691
  172SAPS   H6X19574   2.574   6.136   6.012 -0.2702  0.1209  5.0999
  172SAPS   H6Y19575   2.411   6.110   6.079  0.7031  2.2821 -0.4790
  172SAPS   C3719576   2.418   6.115   5.863 -0.2869 -0.0827 -0.1523
  172SAPS   H7X19577   2.315   6.075   5.855 -0.3829  0.1555 -0.1306
  172SAPS   H7Y19578   2.472   6.059   5.784 -2.0689 -2.7236  0.3876
  172SAPS   C3819579   2.412   6.262   5.855  0.2797 -0.5355  0.6820
  172SAPS   H8X19580   2.514   6.307   5.851  0.5630 -1.1220  1.2019
  172SAPS   H8Y19581   2.342   6.312   5.925 -1.8911 -1.8781 -0.4165
  172SAPS   C3919582   2.340   6.304   5.727 -0.4932 -0.3867  0.6094
  172SAPS   H9X19583   2.239   6.259   5.721 -1.2193  1.1702  0.6075
  172SAPS   H9Y19584   2.405   6.265   5.645  1.1056  1.8516  0.7254
  172SAPS  C31019585   2.340   6.460   5.705  0.4687  0.2988 -0.7018
  172SAPS  H10X19586   2.423   6.517   5.753 -0.6627  1.2046  0.2454
  172SAPS  H10Y19587   2.251   6.506   5.753 -0.0664  0.6223 -1.9787
  172SAPS  C31119588   2.334   6.494   5.561 -0.0048  0.6282  0.1429
  172SAPS  H11X19589   2.241   6.451   5.518  1.4664 -1.7184 -0.9314
  172SAPS  H11Y19590   2.422   6.457   5.504 -0.4121  0.4354 -0.3694
  172SAPS  C31219591   2.340   6.643   5.533  0.0348 -1.0089 -0.2738
  172SAPS  H12X19592   2.429   6.691   5.579 -0.1426  0.3684 -1.2936
  172SAPS  H12Y19593   2.262   6.704   5.583  2.7182  1.1052  1.6664
  172SAPS  C31319594   2.349   6.679   5.380  0.3451 -0.0182  0.1966
  172SAPS  H13X19595   2.436   6.622   5.342  1.0645  1.3619 -0.2830
  172SAPS  H13Y19596   2.358   6.789   5.379 -1.6667  0.1937  0.6490
  172SAPS  C31419597   2.223   6.638   5.299  0.1266 -0.3844 -0.6685
  172SAPS  H14X19598   2.132   6.690   5.337  0.7860  1.2553 -1.2072
  172SAPS  H14Y19599   2.212   6.529   5.317  0.2999  0.0309  2.6156
  172SAPS  C31519600   2.244   6.673   5.152  0.6416 -0.2891 -0.4149
  172SAPS  H15X19601   2.288   6.775   5.150  0.0733 -0.0463 -0.5077
  172SAPS  H15Y19602   2.147   6.675   5.098  0.1191 -0.1078  0.5112
  172SAPS  C31619603   2.341   6.581   5.077  0.0601  0.7880  0.3359
  172SAPS  H16X19604   2.443   6.586   5.120  0.2998 -0.9789  0.0535
  172SAPS  H16Y19605   2.309   6.474   5.077  1.4589  0.1288 -4.2069
  172SAPS  C31719606   2.361   6.631   4.927  0.7320  0.1124  0.0309
  172SAPS  H17X19607   2.395   6.737   4.936  0.2637  0.1527  1.6291
  172SAPS  H17Y19608   2.273   6.626   4.859  1.0399 -2.0019 -0.2773
  172SAPS  C31819609   2.467   6.554   4.844 -0.2750  0.2418  0.0948
  172SAPS  H18X19610   2.488   6.617   4.755 -1.9176  0.0353 -0.4868
  172SAPS  H18Y19611   2.422   6.457   4.812  0.4491  0.1248 -0.6076
  172SAPS  H18Z19612   2.559   6.548   4.906  2.0263  2.1072 -2.8654
  173SAPS     N19613   5.874   4.541   2.623 -0.1147  0.5571 -0.4187
  173SAPS   HN119614   5.771   4.527   2.618 -0.2323  1.0770  0.3591
  173SAPS   HN219615   5.923   4.458   2.584 -0.2511  0.6648 -0.8296
  173SAPS   HN319616   5.900   4.539   2.723  0.3820 -0.8446 -0.5527
  173SAPS   C1219617   5.914   4.667   2.557  0.1851  0.3438 -0.1397
  173SAPS  H12A19618   6.022   4.670   2.545  0.5352 -1.3937  2.0628
  173SAPS   C1319619   5.854   4.663   2.408 -0.2573 -0.1030  0.1149
  173SAPS  O13A19620   5.759   4.595   2.382 -0.1883  0.2938 -0.0090
  173SAPS  O13B19621   5.886   4.755   2.325  0.0896  0.1602 -0.0502
  173SAPS   C1119622   5.874   4.797   2.632 -0.4409  0.0357  0.0867
  173SAPS  H11A19623   5.764   4.807   2.617 -0.7875 -1.4433  1.4476
  173SAPS  H11B19624   5.924   4.878   2.574 -0.5492 -1.3358 -2.0274
  173SAPS     P19625   5.949   4.934   2.839 -0.1289 -0.0397 -0.2075
  173SAPS   O1319626   6.086   4.918   2.892 -0.2618  0.0799  0.0481
  173SAPS   O1419627   5.937   5.054   2.755  0.2729  0.2424  0.0867
  173SAPS   O1219628   5.910   4.795   2.762 -0.2450 -0.1316 -0.3053
  173SAPS   O1119629   5.836   4.946   2.945 -1.1297 -0.1533 -0.3678
  173SAPS    C119630   5.756   4.839   2.986 -0.2388  0.4151  0.2814
  173SAPS    HA19631   5.801   4.741   2.960 -0.4077  0.8277 -1.7382
  173SAPS    HB19632   5.747   4.833   3.097 -2.0973  1.3351  0.2220
  173SAPS    C219633   5.612   4.846   2.934  0.4442 -0.6117  0.0856
  173SAPS    HS19634   5.633   4.860   2.826  3.3186 -0.7589  0.5403
  173SAPS   O2119635   5.543   4.957   2.982 -0.2630  0.1102 -0.2579
  173SAPS   C2119636   5.448   5.000   2.911  0.4965  0.2017  0.6673
  173SAPS   O2219637   5.405   4.955   2.807  0.1877  0.0656  0.1229
  173SAPS   C2219638   5.372   5.115   2.974  0.4455  0.5301 -0.2816
  173SAPS   H2R19639   5.421   5.193   3.037 -1.8356  1.2264  0.7540
  173SAPS   H2S19640   5.341   5.177   2.887 -0.9449  3.1890  1.9391
  173SAPS    C319641   5.527   4.716   2.963 -0.5433 -0.0502 -0.7963
  173SAPS    HX19642   5.562   4.629   2.904 -1.2954 -0.5043 -0.5748
  173SAPS    HY19643   5.424   4.734   2.928  0.0542  3.3394 -1.1800
  173SAPS   O3119644   5.529   4.686   3.109 -0.2435  0.4123 -0.3262
  173SAPS   C3119645   5.446   4.580   3.149 -0.3054  0.3610 -0.4009
  173SAPS   O3219646   5.366   4.535   3.076  0.2545  0.5045  0.9572
  173SAPS   C3219647   5.461   4.543   3.295 -0.3989  0.8466  0.0636
  173SAPS   H2X19648   5.566   4.559   3.325 -0.3779 -0.2182  0.6088
  173SAPS   H2Y19649   5.435   4.435   3.294  1.4248  0.3851 -0.1962
  173SAPS   C2319650   5.251   5.067   3.058  0.3585  0.0689 -0.4813
  173SAPS   H3R19651   5.192   4.996   2.995  3.2732 -0.4905 -2.8332
  173SAPS   H3S19652   5.186   5.154   3.082 -0.2019 -0.6298  0.6355
  173SAPS   C2419653   5.291   5.010   3.202 -1.0151  0.0561  0.4883
  173SAPS   H4R19654   5.332   5.102   3.247 -1.8650  0.0579  1.2917
  173SAPS   H4S19655   5.371   4.933   3.207 -0.0981  1.0603  2.5303
  173SAPS   C2519656   5.161   4.976   3.271 -1.1186 -0.8408 -0.2744
  173SAPS   H5R19657   5.082   4.949   3.200  0.8372 -3.9792 -1.4820
  173SAPS   C2619658   5.122   4.989   3.396  0.5494  0.5346  0.2163
  173SAPS   H6R19659   5.015   4.970   3.411 -0.0698  2.9299 -0.6635
  173SAPS   C2719660   5.201   5.030   3.515 -0.1212  0.0346  0.0594
  173SAPS   H7R19661   5.285   5.097   3.486 -0.3560  0.4253  0.2670
  173SAPS   H7S19662   5.267   4.955   3.563  2.2110  1.4453 -0.7419
  173SAPS   C2819663   5.121   5.103   3.625  0.8192  0.1060  0.2510
  173SAPS   H8R19664   5.156   5.204   3.650 -1.6471  0.7301  1.4977
  173SAPS   C2919665   5.042   5.047   3.712 -0.2492  0.0487  0.0032
  173SAPS   H9R19666   4.990   5.111   3.785 -1.6862  0.5236 -1.3649
  173SAPS  C21019667   5.010   4.897   3.715 -0.0535 -0.4224 -0.1185
  173SAPS  H10R19668   5.085   4.837   3.659  0.2489 -0.5143  0.3725
  173SAPS  H10S19669   4.912   4.884   3.664  0.5300 -0.7872 -1.1750
  173SAPS  C21119670   5.019   4.846   3.863  0.1092 -1.0223  0.0547
  173SAPS  H11R19671   5.114   4.872   3.912  1.4684 -1.6681 -2.0880
  173SAPS  C21219672   4.940   4.761   3.932 -0.1177 -0.3149  0.7508
  173SAPS  H12R19673   4.961   4.747   4.039  1.7350  0.6144  0.5530
  173SAPS  C21319674   4.813   4.701   3.878 -0.1425  0.5760  0.1193
  173SAPS  H13R19675   4.818   4.590   3.883  0.8830  0.5149 -1.3869
  173SAPS  H13S19676   4.805   4.711   3.767  1.4724 -1.6253 -0.2803
  173SAPS  C21419677   4.701   4.749   3.969 -0.5906  0.0957 -0.0801
  173SAPS  H14R19678   4.705   4.693   4.064  0.6140 -2.2963 -1.4556
  173SAPS  C21519679   4.609   4.839   3.936  0.0423 -0.1947 -0.1634
  173SAPS  H15R19680   4.535   4.874   4.010 -0.9452  0.9894 -1.6620
  173SAPS  C21619681   4.602   4.920   3.808 -0.0120  0.0827 -0.5328
  173SAPS  H16R19682   4.670   4.880   3.730  0.3562 -0.4811  0.0591
  173SAPS  H16S19683   4.622   5.030   3.804  0.9340 -0.0855 -0.5266
  173SAPS  C21719684   4.464   4.904   3.744  0.1684  0.6825  0.5379
  173SAPS  H17R19685   4.383   4.945   3.808  1.2948  2.2489  1.0025
  173SAPS  H17S19686   4.447   4.795   3.728 -0.5454  1.1489 -2.5176
  173SAPS  C21819687   4.454   4.959   3.604 -0.4589 -0.3209 -0.4195
  173SAPS  H18R19688   4.367   4.915   3.550 -0.3857  0.2103 -0.9929
  173SAPS  H18S19689   4.548   4.932   3.551  0.6106 -0.9718  1.7217
  173SAPS  C21919690   4.451   5.117   3.608  0.6196  0.5181 -0.1077
  173SAPS  H19R19691   4.546   5.155   3.652  0.6845  0.7139 -0.4104
  173SAPS  H19S19692   4.366   5.135   3.677 -0.4686 -0.4730 -1.1530
  173SAPS  C22019693   4.433   5.182   3.474  0.6820 -0.5434  0.4154
  173SAPS  H20R19694   4.474   5.286   3.477  0.5730 -0.4650 -0.5013
  173SAPS  H20S19695   4.326   5.184   3.445  0.9477 -0.6595 -0.6217
  173SAPS  H20T19696   4.487   5.129   3.393  2.9835  1.7658  0.2894
  173SAPS   C3319697   5.370   4.627   3.381 -0.2740 -0.1848 -0.0075
  173SAPS   H3X19698   5.262   4.605   3.364 -0.1007  1.1275 -3.8886
  173SAPS   H3Y19699   5.399   4.733   3.360 -0.1714 -0.0627  0.7192
  173SAPS   C3419700   5.418   4.601   3.524 -0.2742 -0.1610 -0.4563
  173SAPS   H4X19701   5.519   4.648   3.533  0.0249 -0.1966 -2.9090
  173SAPS   H4Y19702   5.416   4.491   3.535  2.1959 -0.3204 -0.9801
  173SAPS   C3519703   5.340   4.666   3.638  0.3986 -0.3383  0.0018
  173SAPS   H5X19704   5.232   4.647   3.624  0.0667  1.7004 -0.5218
  173SAPS   H5Y19705   5.354   4.776   3.629  0.1414 -0.3748 -0.9285
  173SAPS   C3619706   5.397   4.615   3.776 -0.3079 -0.9681  0.2045
  173SAPS   H6X19707   5.488   4.673   3.804  0.9375 -1.8929 -1.6603
  173SAPS   H6Y19708   5.432   4.510   3.761  0.4792 -0.8036  0.8218
  173SAPS   C3719709   5.291   4.625   3.890 -0.3850 -0.5268  0.3279
  173SAPS   H7X19710   5.204   4.557   3.876  1.1482 -2.3397 -1.0390
  173SAPS   H7Y19711   5.238   4.723   3.887  0.0657 -0.1453  2.8629
  173SAPS   C3819712   5.347   4.600   4.028 -0.6522  0.3680 -0.4948
  173SAPS   H8X19713   5.429   4.672   4.046  0.3229 -0.7426 -0.3901
  173SAPS   H8Y19714   5.383   4.496   4.044 -1.0848  0.6001  2.8381
  173SAPS   C3919715   5.239   4.633   4.138  0.0344  0.4058 -0.8567
  173SAPS   H9X19716   5.158   4.558   4.129  1.8441 -1.9176  0.9979
  173SAPS   H9Y19717   5.196   4.733   4.115  0.5351  1.0261  0.7864
  173SAPS  C31019718   5.286   4.641   4.284 -0.3548 -0.1676 -0.0840
  173SAPS  H10X19719   5.307   4.746   4.311 -0.1267  0.0565 -1.1011
  173SAPS  H10Y19720   5.378   4.582   4.302  0.2070  0.4640 -0.8102
  173SAPS  C31119721   5.177   4.602   4.387  0.0967  0.1121 -0.7504
  173SAPS  H11X19722   5.221   4.621   4.488  1.3131  1.1829 -1.4557
  173SAPS  H11Y19723   5.149   4.494   4.386 -3.8761  0.9598  1.1403
  173SAPS  C31219724   5.041   4.684   4.366 -0.0257  0.3753 -0.2219
  173SAPS  H12X19725   4.976   4.665   4.453 -0.3546 -0.0877 -0.5618
  173SAPS  H12Y19726   5.005   4.652   4.266  2.9142  0.3295 -1.3838
  173SAPS  C31319727   5.063   4.834   4.355 -0.0176 -0.1002  0.3028
  173SAPS  H13X19728   5.135   4.852   4.272  3.1894 -0.1789  2.9166
  173SAPS  H13Y19729   5.105   4.870   4.451  0.6967  1.5139 -0.5667
  173SAPS  C31419730   4.936   4.906   4.320 -0.7710 -0.5099  0.4251
  173SAPS  H14X19731   4.854   4.878   4.390 -0.0691 -2.0039  0.6910
  173SAPS  H14Y19732   4.913   4.892   4.213 -1.0616 -0.5523  0.4933
  173SAPS  C31519733   4.961   5.059   4.307  0.1895  0.6926 -0.4271
  173SAPS  H15X19734   5.017   5.078   4.212  0.3468 -0.4368 -0.5760
  173SAPS  H15Y19735   5.021   5.099   4.392 -0.2173  1.2011 -0.3742
  173SAPS  C31619736   4.832   5.141   4.285  0.4904 -0.4806 -1.0731
  173SAPS  H16X19737   4.859   5.249   4.284 -0.9956 -0.0587  0.4417
  173SAPS  H16Y19738   4.761   5.125   4.369  2.6736  0.7318  1.1314
  173SAPS  C31719739   4.774   5.124   4.147 -0.0296  0.0902  0.5599
  173SAPS  H17X19740   4.673   5.170   4.156 -0.3939 -0.8530  1.4761
  173SAPS  H17Y19741   4.756   5.016   4.126  0.6274  0.0080  0.4007
  173SAPS  C31819742   4.848   5.201   4.032 -0.2340 -0.3271 -0.6048
  173SAPS  H18X19743   4.788   5.175   3.942 -0.6036 -1.6985  0.0112
  173SAPS  H18Y19744   4.954   5.170   4.026  0.5793  2.2520 -0.6507
  173SAPS  H18Z19745   4.842   5.311   4.045  0.1083 -0.0893 -2.1479
  174SAPS     N19746   1.999   2.364   2.367 -0.5768  0.5717 -0.3345
  174SAPS   HN119747   2.004   2.383   2.265 -0.3181 -0.6675 -0.5642
  174SAPS   HN219748   1.918   2.301   2.386 -0.9908  0.8924 -0.9851
  174SAPS   HN319749   1.999   2.452   2.423 -2.4729  1.7883 -2.0588
  174SAPS   C1219750   2.129   2.299   2.399  0.0992  0.0768 -0.6866
  174SAPS  H12A19751   2.116   2.274   2.504  0.9294  0.7452 -0.4060
  174SAPS   C1319752   2.179   2.176   2.322  0.3876 -0.0422  0.3948
  174SAPS  O13A19753   2.120   2.127   2.221 -0.5142  0.2529  0.1214
  174SAPS  O13B19754   2.294   2.134   2.352  0.3657 -0.4208 -0.1368
  174SAPS   C1119755   2.245   2.405   2.391  0.3773 -0.1106 -0.1214
  174SAPS  H11A19756   2.288   2.409   2.289 -0.8151  0.3256 -0.6318
  174SAPS  H11B19757   2.326   2.370   2.458 -1.3242 -1.2682  1.4218
  174SAPS     P19758   2.168   2.569   2.578  0.0730  0.4520 -0.0074
  174SAPS   O1319759   2.152   2.713   2.572 -0.0950 -0.5092 -0.0447
  174SAPS   O1419760   2.054   2.492   2.629  0.6381  0.3631  0.8681
  174SAPS   O1219761   2.201   2.530   2.427  0.3951  0.6153 -0.1700
  174SAPS   O1119762   2.297   2.522   2.656 -0.3055  0.4775  0.5662
  174SAPS    C119763   2.431   2.573   2.628  0.6239 -0.2002 -0.1422
  174SAPS    HA19764   2.488   2.494   2.575 -0.0416  1.6416 -3.9075
  174SAPS    HB19765   2.425   2.658   2.558 -0.4136 -0.7612 -0.7671
  174SAPS    C219766   2.494   2.623   2.759 -0.1264 -0.3698 -0.3026
  174SAPS    HS19767   2.597   2.662   2.741 -0.1298 -1.3179 -2.6838
  174SAPS   O2119768   2.485   2.521   2.862 -0.5662  0.0799 -0.8472
  174SAPS   C2119769   2.572   2.423   2.850 -0.1864  0.6672 -0.4244
  174SAPS   O2219770   2.644   2.401   2.756 -0.1956 -0.5723 -0.1882
  174SAPS   C2219771   2.554   2.331   2.975 -0.4311 -0.4042  0.1254
  174SAPS   H2R19772   2.617   2.373   3.056 -0.1077  1.3480 -0.9820
  174SAPS   H2S19773   2.445   2.332   3.000 -0.4240 -1.4534  0.2691
  174SAPS    C319774   2.420   2.747   2.815  0.5873  0.6442 -0.0765
  174SAPS    HX19775   2.323   2.696   2.835  1.8278 -1.4296  0.9994
  174SAPS    HY19776   2.400   2.822   2.736 -1.3289  0.9122  0.6165
  174SAPS   O3119777   2.486   2.798   2.927  0.0392 -0.0230 -0.1697
  174SAPS   C3119778   2.601   2.855   2.915 -0.3806  0.2591  0.9471
  174SAPS   O3219779   2.650   2.891   2.810  0.6257 -0.3978 -0.9801
  174SAPS   C3219780   2.679   2.867   3.051 -0.0439 -0.3808  0.0843
  174SAPS   H2X19781   2.628   2.948   3.108 -0.4750 -0.5070 -0.1151
  174SAPS   H2Y19782   2.783   2.899   3.028 -0.8410  1.1879 -1.6452
  174SAPS   C2319783   2.606   2.183   2.950  0.2181  0.4060  0.2150
  174SAPS   H3R19784   2.717   2.177   2.949  0.1857 -0.6429 -1.5564
  174SAPS   H3S19785   2.557   2.152   2.856  1.4776 -0.8196 -0.0791
  174SAPS   C2419786   2.569   2.088   3.055 -0.8631  0.1927  0.1919
  174SAPS   H4R19787   2.598   2.120   3.157 -3.1235  0.6127  0.7672
  174SAPS   H4S19788   2.602   1.985   3.030 -1.6001  0.1988 -0.8873
  174SAPS   C2519789   2.419   2.088   3.066 -0.2362  0.3551 -0.9566
  174SAPS   H5R19790   2.370   2.097   2.968  0.1066  0.3793 -1.1238
  174SAPS   C2619791   2.349   2.099   3.180  0.3338  0.4285 -0.1445
  174SAPS   H6R19792   2.239   2.103   3.171  0.3553 -0.9772 -1.3938
  174SAPS   C2719793   2.417   2.106   3.321  0.0368 -0.2033 -0.8689
  174SAPS   H7R19794   2.347   2.137   3.401 -1.0099 -2.0026 -1.0239
  174SAPS   H7S19795   2.501   2.179   3.323 -1.6663  1.8504 -0.8123
  174SAPS   C2819796   2.472   1.979   3.377  0.4682  0.3687  0.5346
  174SAPS   H8R19797   2.520   1.910   3.306  1.7949  1.0631  0.7365
  174SAPS   C2919798   2.507   1.943   3.501  0.3716 -0.0341  0.1862
  174SAPS   H9R19799   2.557   1.846   3.513  3.9846  1.6568  0.2034
  174SAPS  C21019800   2.459   2.030   3.623 -0.5736  0.2251  0.2861
  174SAPS  H10R19801   2.356   1.992   3.642 -0.4815 -1.3921 -2.0865
  174SAPS  H10S19802   2.439   2.137   3.599 -0.8403 -0.3035 -2.1059
  174SAPS  C21119803   2.552   2.018   3.740  0.0228  0.3552 -0.3784
  174SAPS  H11R19804   2.649   2.069   3.741  0.2983 -0.1014  1.6742
  174SAPS  C21219805   2.521   1.957   3.850  0.1484  0.9563 -0.6733
  174SAPS  H12R19806   2.598   1.937   3.926 -0.7212 -1.7914 -0.3765
  174SAPS  C21319807   2.394   1.881   3.883 -0.2477  0.1065  0.0873
  174SAPS  H13R19808   2.313   1.943   3.841 -0.3648 -0.3969 -0.4493
  174SAPS  H13S19809   2.363   1.861   3.987  0.7139  0.1075  0.3868
  174SAPS  C21419810   2.379   1.747   3.809  0.2125  0.1894 -0.8741
  174SAPS  H14R19811   2.417   1.745   3.705 -1.0680 -1.8165 -1.3569
  174SAPS  C21519812   2.320   1.637   3.859  0.6371 -0.3481 -0.2446
  174SAPS  H15R19813   2.312   1.546   3.798  1.2613 -0.5558 -0.0230
  174SAPS  C21619814   2.269   1.607   3.997  0.3768 -0.0405  0.5363
  174SAPS  H16R19815   2.160   1.585   3.999  0.3818 -0.1444  3.2795
  174SAPS  H16S19816   2.277   1.698   4.061 -1.8329  0.8683 -0.3794
  174SAPS  C21719817   2.354   1.486   4.046 -0.3402  0.3763  0.0211
  174SAPS  H17R19818   2.460   1.516   4.060  0.5395 -1.4165 -2.0810
  174SAPS  H17S19819   2.353   1.408   3.967  1.3272  0.8439 -0.5052
  174SAPS  C21819820   2.294   1.425   4.175  0.0821  0.5551 -0.8037
  174SAPS  H18R19821   2.341   1.329   4.204 -0.2009  1.0180  1.3061
  174SAPS  H18S19822   2.188   1.407   4.145 -0.0899  0.8161 -0.3698
  174SAPS  C21919823   2.294   1.517   4.304 -0.5126 -0.2368  0.3461
  174SAPS  H19R19824   2.297   1.622   4.268 -1.9147 -0.6557 -1.1379
  174SAPS  H19S19825   2.380   1.488   4.367 -0.3974  1.7691  1.1587
  174SAPS  C22019826   2.170   1.494   4.384 -0.3557 -0.2196 -0.0532
  174SAPS  H20R19827   2.185   1.525   4.489  2.0970  3.0202 -1.1812
  174SAPS  H20S19828   2.144   1.386   4.391 -2.4568  0.2256 -0.3930
  174SAPS  H20T19829   2.079   1.550   4.353 -0.9097  0.0693  1.9734
  174SAPS   C3319830   2.664   2.744   3.143 -0.3583  0.3333  0.1817
  174SAPS   H3X19831   2.566   2.694   3.132  0.4631 -1.4204  0.4960
  174SAPS   H3Y19832   2.688   2.776   3.247  2.0402  0.1528 -0.2624
  174SAPS   C3419833   2.766   2.637   3.105  0.1811  0.1292  0.6045
  174SAPS   H4X19834   2.869   2.677   3.108  0.7567 -1.2377  0.0061
  174SAPS   H4Y19835   2.748   2.597   3.003 -0.2804  0.1266  0.6847
  174SAPS   C3519836   2.763   2.523   3.207  0.4733  0.2290  0.1239
  174SAPS   H5X19837   2.798   2.431   3.156 -0.4018  0.9284 -1.8371
  174SAPS   H5Y19838   2.660   2.490   3.234  1.4851 -1.9892  1.5613
  174SAPS   C3619839   2.848   2.540   3.325  0.4669 -0.1405  0.0100
  174SAPS   H6X19840   2.819   2.627   3.389 -2.5988  0.1065 -1.5058
  174SAPS   H6Y19841   2.956   2.553   3.304  0.6220 -0.8345  0.3706
  174SAPS   C3719842   2.832   2.416   3.415 -0.0690 -0.0625 -0.5489
  174SAPS   H7X19843   2.900   2.420   3.503  1.0252 -0.1397 -1.3766
  174SAPS   H7Y19844   2.867   2.329   3.356  1.7477  0.2209  0.0453
  174SAPS   C3819845   2.693   2.371   3.462  0.3201 -0.6647  0.7265
  174SAPS   H8X19846   2.691   2.281   3.527  1.5941 -1.9680 -0.9367
  174SAPS   H8Y19847   2.627   2.346   3.376  0.2218  1.5839  0.1071
  174SAPS   C3919848   2.620   2.490   3.525 -0.7037 -0.5504 -0.6276
  174SAPS   H9X19849   2.610   2.565   3.444 -0.4190  0.4486  0.2418
  174SAPS   H9Y19850   2.682   2.540   3.602 -0.6962  2.2683 -2.3260
  174SAPS  C31019851   2.483   2.467   3.592  0.5881 -0.2040  0.0337
  174SAPS  H10X19852   2.422   2.391   3.540 -3.5204  1.0732  2.4456
  174SAPS  H10Y19853   2.427   2.563   3.585 -1.8481 -1.4370  1.2451
  174SAPS  C31119854   2.476   2.428   3.739 -0.1048 -0.8579 -0.4397
  174SAPS  H11X19855   2.515   2.519   3.790 -2.3532  1.0936 -1.9690
  174SAPS  H11Y19856   2.549   2.346   3.758  2.3262  1.1179 -0.6923
  174SAPS  C31219857   2.333   2.395   3.798 -0.4016 -0.2287 -0.0483
  174SAPS  H12X19858   2.277   2.323   3.735  1.2589 -2.8335  1.3005
  174SAPS  H12Y19859   2.280   2.492   3.812 -1.3497 -0.5166 -1.4236
  174SAPS  C31319860   2.337   2.327   3.938 -0.0049  0.0624  0.0374
  174SAPS  H13X19861   2.389   2.394   4.010 -0.2245 -0.4901  0.7160
  174SAPS  H13Y19862   2.392   2.230   3.931  0.7593  0.4714  0.2552
  174SAPS  C31419863   2.196   2.281   3.981 -0.1763 -0.2227  0.2856
  174SAPS  H14X19864   2.165   2.183   3.938  1.5610 -0.7391  0.1449
  174SAPS  H14Y19865   2.125   2.360   3.946 -0.0767 -0.0388  0.4976
  174SAPS  C31519866   2.179   2.255   4.133  0.2985  0.3545  0.3460
  174SAPS  H15X19867   2.076   2.216   4.147  0.0956  0.8043  0.1502
  174SAPS  H15Y19868   2.202   2.349   4.188  2.4293 -1.3539  2.6183
  174SAPS  C31619869   2.271   2.141   4.184  0.7757 -0.4432  0.1883
  174SAPS  H16X19870   2.379   2.166   4.193  0.9775 -1.3886  0.4947
  174SAPS  H16Y19871   2.268   2.050   4.120  0.7142 -1.4709  1.6232
  174SAPS  C31719872   2.226   2.091   4.316 -0.2569 -0.1109 -0.7117
  174SAPS  H17X19873   2.117   2.071   4.313 -0.5146  1.1836 -0.3941
  174SAPS  H17Y19874   2.253   2.177   4.381  1.3442 -0.5942 -0.6846
  174SAPS  C31819875   2.297   1.963   4.376  0.0719  0.5356  0.1179
  174SAPS  H18X19876   2.406   1.987   4.375  0.2557 -0.1746 -1.7118
  174SAPS  H18Y19877   2.275   1.884   4.301  1.9246 -0.7616  0.8668
  174SAPS  H18Z19878   2.268   1.934   4.479 -1.7230  0.2869 -0.4322
  175SAPS     N19879   1.465   1.478   2.403 -0.1715 -0.2063  0.2754
  175SAPS   HN119880   1.531   1.548   2.442 -2.1302  0.9044  1.8013
  175SAPS   HN219881   1.505   1.403   2.342 -1.2931 -1.6838  1.2885
  175SAPS   HN319882   1.400   1.533   2.343 -0.8335 -3.5798 -2.3889
  175SAPS   C1219883   1.383   1.412   2.515 -0.2385  0.5556  0.2157
  175SAPS  H12A19884   1.438   1.418   2.608  1.9560 -1.7319 -0.8047
  175SAPS   C1319885   1.261   1.496   2.544  0.1676  0.6325 -0.5621
  175SAPS  O13A19886   1.219   1.582   2.465 -0.4638 -0.1638  0.6646
  175SAPS  O13B19887   1.203   1.464   2.648 -0.2618  0.2769 -0.0032
  175SAPS   C1119888   1.337   1.276   2.468 -0.1565 -0.2551 -0.0433
  175SAPS  H11A19889   1.270   1.292   2.381  1.2841  0.8245 -0.9931
  175SAPS  H11B19890   1.272   1.227   2.544 -0.2764  0.5257  0.3714
  175SAPS     P19891   1.528   1.102   2.521 -1.0031  0.6417  0.1249
  175SAPS   O1319892   1.460   0.972   2.515  0.1050 -0.5999 -0.3385
  175SAPS   O1419893   1.675   1.103   2.503  0.7718  0.1763 -0.1173
  175SAPS   O1219894   1.459   1.207   2.422  0.2810  0.2231 -0.2383
  175SAPS   O1119895   1.507   1.164   2.663 -0.1148 -0.0578 -0.1856
  175SAPS    C119896   1.594   1.247   2.730  0.4499 -0.6431 -0.1316
  175SAPS    HA19897   1.691   1.195   2.747  0.6371 -0.4432 -0.5868
  175SAPS    HB19898   1.612   1.344   2.680  0.1085 -1.0277 -1.0206
  175SAPS    C219899   1.547   1.282   2.877  0.3414 -1.0910  0.6729
  175SAPS    HS19900   1.631   1.316   2.941 -1.4432  2.0009  1.5826
  175SAPS   O2119901   1.481   1.176   2.942 -0.0389 -0.2443 -0.5725
  175SAPS   C2119902   1.550   1.067   2.948  0.0353 -0.9717 -0.0736
  175SAPS   O2219903   1.671   1.063   2.925  0.3339 -0.5751 -0.2454
  175SAPS   C2219904   1.469   0.946   2.980  0.7567 -0.4290  0.4161
  175SAPS   H2R19905   1.394   0.934   2.899  1.4145 -1.7716 -0.0242
  175SAPS   H2S19906   1.532   0.854   2.982 -0.7203 -1.4896 -0.0644
  175SAPS    C319907   1.457   1.406   2.870  0.1100 -0.0406  0.0700
  175SAPS    HX19908   1.365   1.391   2.809  0.9035 -2.0787 -0.6896
  175SAPS    HY19909   1.510   1.487   2.815  0.1010 -0.6328 -0.8369
  175SAPS   O3119910   1.431   1.465   3.000 -0.1220  0.3096  1.2323
  175SAPS   C3119911   1.336   1.413   3.071 -0.4316  0.3842  0.1040
  175SAPS   O3219912   1.248   1.332   3.032 -0.4284 -0.5096  0.1873
  175SAPS   C3219913   1.340   1.461   3.217 -0.2964 -0.0356  0.1498
  175SAPS   H2X19914   1.294   1.561   3.206  0.9430  0.3655 -2.0543
  175SAPS   H2Y19915   1.445   1.467   3.254  0.3093  0.5118 -1.5228
  175SAPS   C2319916   1.390   0.958   3.118 -0.0494 -0.3523  0.3747
  175SAPS   H3R19917   1.339   1.057   3.116 -0.7851 -0.7292 -1.2649
  175SAPS   H3S19918   1.465   0.940   3.198  0.1063 -0.3398  0.2312
  175SAPS   C2419919   1.279   0.855   3.121  0.2942  0.1202 -0.1635
  175SAPS   H4R19920   1.319   0.753   3.139 -0.6606 -0.4219 -0.9657
  175SAPS   H4S19921   1.229   0.853   3.021  0.7316  1.9352 -0.4611
  175SAPS   C2519922   1.176   0.883   3.218  0.8105 -0.2772 -0.5374
  175SAPS   H5R19923   1.102   0.962   3.200 -1.0415 -1.3809  1.6972
  175SAPS   C2619924   1.162   0.820   3.338 -0.6388 -0.1902  0.3803
  175SAPS   H6R19925   1.074   0.865   3.387 -1.0033 -0.5975  0.1116
  175SAPS   C2719926   1.233   0.701   3.411  0.5638 -0.8089  0.1464
  175SAPS   H7R19927   1.321   0.723   3.476 -0.3520 -0.2500  1.2387
  175SAPS   H7S19928   1.272   0.629   3.336 -0.3215  0.2384 -1.3867
  175SAPS   C2819929   1.123   0.635   3.501 -0.5392  0.0971  0.3572
  175SAPS   H8R19930   1.059   0.568   3.443 -0.7972 -0.6679  1.5075
  175SAPS   C2919931   1.094   0.650   3.636 -0.1733  0.6854 -0.0818
  175SAPS   H9R19932   1.010   0.599   3.685 -0.7423 -0.9022 -2.5172
  175SAPS  C21019933   1.161   0.756   3.723  0.4944  1.3779  0.2150
  175SAPS  H10R19934   1.086   0.837   3.731 -1.1007  0.0029 -0.1713
  175SAPS  H10S19935   1.244   0.804   3.667  0.9095  0.4277 -0.0125
  175SAPS  C21119936   1.206   0.723   3.855 -0.7337  0.8632 -0.2403
  175SAPS  H11R19937   1.238   0.618   3.863  0.8947  1.4687  3.0591
  175SAPS  C21219938   1.228   0.791   3.963 -0.0607 -0.0798  0.1411
  175SAPS  H12R19939   1.259   0.731   4.049 -0.2169  0.9704  0.9561
  175SAPS  C21319940   1.200   0.937   3.979 -0.4241 -0.6315  0.0762
  175SAPS  H13R19941   1.125   0.954   4.060  0.3408  1.5680  0.3964
  175SAPS  H13S19942   1.160   0.991   3.891 -0.3822  0.9649  0.9803
  175SAPS  C21419943   1.329   1.013   4.015 -0.3174  0.0612 -0.5535
  175SAPS  H14R19944   1.369   1.078   3.936  0.9862 -0.7037 -0.5623
  175SAPS  C21519945   1.389   1.025   4.135  0.2400  0.3191  0.0662
  175SAPS  H15R19946   1.477   1.088   4.153  1.5086 -0.9678 -1.4729
  175SAPS  C21619947   1.341   0.954   4.264  0.0867  0.3729  0.8025
  175SAPS  H16R19948   1.403   0.865   4.289  0.0581  0.0927 -0.0912
  175SAPS  H16S19949   1.242   0.907   4.242  0.6263 -0.0586 -0.8367
  175SAPS  C21719950   1.331   1.033   4.392 -0.1680  0.1666 -0.1454
  175SAPS  H17R19951   1.426   1.089   4.399  0.4172 -0.6018 -1.5570
  175SAPS  H17S19952   1.319   0.955   4.470 -2.8232  2.4593  1.9838
  175SAPS  C21819953   1.205   1.127   4.396  0.6992 -0.5882  0.1807
  175SAPS  H18R19954   1.124   1.065   4.353  0.9147 -0.6531 -0.1390
  175SAPS  H18S19955   1.219   1.215   4.330 -1.6625  0.3024  0.7802
  175SAPS  C21919956   1.171   1.181   4.542 -1.1292  0.1301 -0.6405
  175SAPS  H19R19957   1.249   1.243   4.591 -1.6116  0.1612  0.0934
  175SAPS  H19S19958   1.157   1.092   4.607  1.4759  1.5845  2.1579
  175SAPS  C22019959   1.047   1.269   4.543 -1.4337  0.9515  0.1898
  175SAPS  H20R19960   1.065   1.350   4.469  1.5376 -0.1937 -0.5000
  175SAPS  H20S19961   1.032   1.313   4.644 -0.0400  0.4818  0.6323
  175SAPS  H20T19962   0.957   1.212   4.512  0.8880 -0.7887 -4.1917
  175SAPS   C3319963   1.250   1.390   3.327 -0.5831  0.3016  0.6753
  175SAPS   H3X19964   1.152   1.366   3.280 -0.5564 -2.4086  1.8096
  175SAPS   H3Y19965   1.237   1.477   3.396 -0.1569  1.8689 -1.1369
  175SAPS   C3419966   1.297   1.262   3.399 -0.0085 -0.2494  0.1558
  175SAPS   H4X19967   1.378   1.283   3.473  0.2601  0.4064 -0.3106
  175SAPS   H4Y19968   1.333   1.198   3.316 -1.7862  1.3062 -1.9409
  175SAPS   C3519969   1.183   1.188   3.467 -0.7222 -0.0071  0.8635
  175SAPS   H5X19970   1.223   1.088   3.496 -0.0208  0.4737  1.5870
  175SAPS   H5Y19971   1.092   1.179   3.405 -0.4018  1.5081  0.1355
  175SAPS   C3619972   1.149   1.256   3.598 -0.1273 -0.9224 -0.6559
  175SAPS   H6X19973   1.102   1.353   3.571  1.6687  0.3066  0.3793
  175SAPS   H6Y19974   1.243   1.277   3.653 -0.4886 -1.1308  0.0471
  175SAPS   C3719975   1.037   1.180   3.675  0.4986 -0.2490 -0.6006
  175SAPS   H7X19976   1.070   1.076   3.695 -0.9827 -0.2414  2.4644
  175SAPS   H7Y19977   0.953   1.178   3.602  0.2923 -0.3553 -0.3622
  175SAPS   C3819978   0.997   1.246   3.800  0.4249  0.3538  0.4052
  175SAPS   H8X19979   1.084   1.244   3.869  1.8083  0.1258 -1.2545
  175SAPS   H8Y19980   0.915   1.189   3.849 -0.8791  1.9392  0.1203
  175SAPS   C3919981   0.960   1.400   3.800  0.1070 -0.4561 -0.1200
  175SAPS   H9X19982   0.864   1.416   3.746  0.2053  0.9847  0.1106
  175SAPS   H9Y19983   1.047   1.454   3.759  0.1891  1.2220  2.1128
  175SAPS  C31019984   0.945   1.457   3.945  0.1061  0.1582  0.0370
  175SAPS  H10X19985   0.897   1.556   3.947  0.6058  0.4235  2.1623
  175SAPS  H10Y19986   1.041   1.464   4.001 -0.0683 -0.0692  0.3709
  175SAPS  C31119987   0.861   1.363   4.038 -0.3468 -0.1363  0.3948
  175SAPS  H11X19988   0.903   1.260   4.042 -0.3077 -0.0929  1.0635
  175SAPS  H11Y19989   0.760   1.351   3.993 -0.8614  2.4683  0.6927
  175SAPS  C31219990   0.853   1.406   4.182  0.0146 -0.5605  0.2419
  175SAPS  H12X19991   0.822   1.512   4.190 -2.5456 -1.1907 -0.4529
  175SAPS  H12Y19992   0.956   1.398   4.223  0.9884  3.7740 -0.8563
  175SAPS  C31319993   0.740   1.332   4.248 -0.4840  0.1631 -0.4448
  175SAPS  H13X19994   0.766   1.224   4.254 -0.4055  0.2398  1.3368
  175SAPS  H13Y19995   0.647   1.344   4.189 -0.7721  2.3106  0.3584
  175SAPS  C31419996   0.692   1.379   4.384  0.3720  0.2725  0.3375
  175SAPS  H14X19997   0.674   1.488   4.381  0.8381  0.3280 -0.6498
  175SAPS  H14Y19998   0.781   1.361   4.448 -0.0550  0.5527  1.0130
  175SAPS  C31519999   0.575   1.303   4.451 -0.0876  0.0549  0.6994
  175SAPS  H15X20000   0.604   1.196   4.446 -2.3833 -0.5573 -0.5682
  175SAPS  H15Y20001   0.490   1.308   4.380 -0.7773 -0.1716  1.4805
  175SAPS  C31620002   0.523   1.346   4.594 -0.0966 -0.9130  0.1505
  175SAPS  H16X20003   0.515   1.457   4.593 -0.4690 -0.8724 -2.9406
  175SAPS  H16Y20004   0.597   1.326   4.674 -0.7718 -2.3776  0.4364
  175SAPS  C31720005   0.389   1.280   4.631 -0.0155 -0.4609 -0.8689
  175SAPS  H17X20006   0.414   1.178   4.668  0.6948  0.2921  0.8271
  175SAPS  H17Y20007   0.334   1.255   4.538  0.5345 -0.2398 -1.2557
  175SAPS  C31820008   0.309   1.360   4.733 -0.0602 -0.4632  0.2905
  175SAPS  H18X20009   0.370   1.387   4.822 -0.5931 -0.4586  0.6564
  175SAPS  H18Y20010   0.227   1.295   4.770  2.0538 -2.9322  0.9583
  175SAPS  H18Z20011   0.266   1.455   4.695  0.6334 -0.1908  0.1776
  176SAPS     N20012   5.661   6.984   2.108  0.2959 -0.0907  0.3154
  176SAPS   HN120013   5.751   7.035   2.094  1.3767 -1.9946 -0.0933
  176SAPS   HN220014   5.653   6.955   2.208  0.0068 -1.5070 -0.0992
  176SAPS   HN320015   5.677   6.896   2.054 -1.6080 -0.2769 -0.0078
  176SAPS   C1220016   5.537   7.049   2.059 -0.9433  0.7509  0.1138
  176SAPS  H12A20017   5.557   7.093   1.962 -0.9824  1.2541  0.3354
  176SAPS   C1320018   5.406   6.964   2.059  0.9182 -0.0032 -0.3810
  176SAPS  O13A20019   5.415   6.841   2.087  0.5996 -1.1619 -0.1702
  176SAPS  O13B20020   5.306   7.020   1.998 -0.5296  0.0895  0.1697
  176SAPS   C1120021   5.509   7.172   2.155  0.0970 -0.6229 -0.0162
  176SAPS  H11A20022   5.511   7.140   2.262 -0.2389  1.9996  0.8517
  176SAPS  H11B20023   5.405   7.209   2.144  0.6915  1.5613  1.0100
  176SAPS     P20024   5.605   7.419   2.203 -0.3302  0.4845 -0.2051
  176SAPS   O1320025   5.692   7.506   2.123  0.0128 -0.9638 -0.1798
  176SAPS   O1420026   5.472   7.469   2.220  0.8024 -0.1444 -0.4667
  176SAPS   O1220027   5.602   7.281   2.135 -0.4327  0.4645 -0.6424
  176SAPS   O1120028   5.672   7.393   2.341 -0.3847 -1.0087  0.7840
  176SAPS    C120029   5.755   7.291   2.392 -1.0711  0.2605  0.4920
  176SAPS    HA20030   5.741   7.196   2.337 -1.8279  1.4412 -1.4683
  176SAPS    HB20031   5.858   7.334   2.396 -1.1358  0.3547  1.3937
  176SAPS    C220032   5.720   7.274   2.537 -0.0082 -0.3977  0.6137
  176SAPS    HS20033   5.615   7.239   2.539  0.6733 -2.9443 -1.8132
  176SAPS   O2120034   5.728   7.404   2.601  0.5225 -0.0426 -0.1377
  176SAPS   C2120035   5.655   7.417   2.708 -0.2677  0.1847  0.2662
  176SAPS   O2220036   5.565   7.345   2.748  0.4103 -0.2751 -0.0483
  176SAPS   C2220037   5.719   7.526   2.797  0.8248 -0.2683 -0.4489
  176SAPS   H2R20038   5.822   7.494   2.821  0.8273 -0.8706 -1.2287
  176SAPS   H2S20039   5.723   7.620   2.738 -0.8936  1.5130  2.0607
  176SAPS    C320040   5.825   7.174   2.600 -0.6291 -0.0214  0.7873
  176SAPS    HX20041   5.929   7.202   2.573 -0.9638  2.2990  1.6379
  176SAPS    HY20042   5.807   7.075   2.555  1.0359  0.7231 -1.7253
  176SAPS   O3120043   5.813   7.174   2.743 -0.2337  0.1868  0.3489
  176SAPS   C3120044   5.722   7.092   2.798 -0.1906  0.2700  0.7800
  176SAPS   O3220045   5.655   7.007   2.736  0.1085  0.1808 -0.1419
  176SAPS   C3220046   5.724   7.116   2.948  0.1641  0.1817  0.1953
  176SAPS   H2X20047   5.743   7.224   2.971 -0.2009 -0.1499  2.3012
  176SAPS   H2Y20048   5.824   7.079   2.979  1.3506  2.6832 -0.3610
  176SAPS   C2320049   5.627   7.540   2.926 -0.5623  0.1968 -0.3355
  176SAPS   H3R20050   5.602   7.443   2.973 -1.2918  0.6925  0.3367
  176SAPS   H3S20051   5.534   7.590   2.892 -0.2585  0.9241 -0.1186
  176SAPS   C2420052   5.706   7.625   3.033 -0.4714 -0.9732 -0.0767
  176SAPS   H4R20053   5.739   7.722   2.990  0.4853 -0.6370  1.3669
  176SAPS   H4S20054   5.793   7.561   3.060 -0.0678  0.5577  2.5839
  176SAPS   C2520055   5.630   7.642   3.162  0.0152  0.2674  0.7302
  176SAPS   H5R20056   5.538   7.699   3.143  1.0583  1.4506 -1.1006
  176SAPS   C2620057   5.654   7.602   3.292  0.0696  0.3364 -0.0988
  176SAPS   H6R20058   5.579   7.616   3.371  1.7778 -0.4967  1.7632
  176SAPS   C2720059   5.773   7.519   3.336  0.1011 -0.1291 -0.1712
  176SAPS   H7R20060   5.839   7.587   3.393 -1.5907  3.5243 -2.1631
  176SAPS   H7S20061   5.841   7.493   3.252 -0.0881 -1.0016 -0.0657
  176SAPS   C2820062   5.736   7.387   3.410 -0.4114  0.3357 -0.6408
  176SAPS   H8R20063   5.697   7.305   3.348  0.4235  1.4840 -2.7915
  176SAPS   C2920064   5.737   7.371   3.543 -0.2174 -0.1396  0.6415
  176SAPS   H9R20065   5.724   7.274   3.593  1.1227 -0.7535 -0.1684
  176SAPS  C21020066   5.773   7.478   3.638  0.0814 -0.3909 -0.6768
  176SAPS  H10R20067   5.695   7.485   3.716  3.0188 -0.7034  2.5362
  176SAPS  H10S20068   5.771   7.577   3.588 -3.2519 -0.2179 -0.3913
  176SAPS  C21120069   5.903   7.451   3.701 -0.0143 -0.4050 -0.2523
  176SAPS  H11R20070   5.977   7.476   3.624 -0.1451 -3.0537 -1.3068
  176SAPS  C21220071   5.949   7.422   3.825 -0.6330 -0.0183 -0.6972
  176SAPS  H12R20072   6.055   7.397   3.844 -0.8133  0.0787  0.5165
  176SAPS  C21320073   5.866   7.404   3.953  0.1138  0.4173 -1.1872
  176SAPS  H13R20074   5.940   7.392   4.035 -0.4350  2.4292 -0.3472
  176SAPS  H13S20075   5.801   7.313   3.955  0.4725  0.1569 -1.4535
  176SAPS  C21420076   5.777   7.522   4.003 -0.5924  0.3296  0.1094
  176SAPS  H14R20077   5.825   7.616   3.973  1.1097 -1.0670 -1.8095
  176SAPS  C21520078   5.664   7.511   4.073  0.2401 -0.8988  0.1628
  176SAPS  H15R20079   5.622   7.607   4.107 -2.2563 -0.5749 -3.2933
  176SAPS  C21620080   5.590   7.387   4.115  0.5397  0.2004  0.2893
  176SAPS  H16R20081   5.626   7.307   4.047  0.5751  1.1909 -0.8835
  176SAPS  H16S20082   5.480   7.400   4.108  0.7192  0.7899 -3.5633
  176SAPS  C21720083   5.619   7.344   4.259  0.2087  0.1622 -0.4000
  176SAPS  H17R20084   5.542   7.271   4.292  0.0206  0.2480 -0.6442
  176SAPS  H17S20085   5.612   7.436   4.321 -0.8968 -0.6216  0.6888
  176SAPS  C21820086   5.764   7.277   4.273  0.5655 -0.5426 -0.4144
  176SAPS  H18R20087   5.822   7.370   4.258  0.3994 -0.1706  1.1053
  176SAPS  H18S20088   5.779   7.203   4.191 -4.7267 -0.6260 -1.6924
  176SAPS  C21920089   5.779   7.216   4.411  0.3796 -0.5483  0.1748
  176SAPS  H19R20090   5.719   7.123   4.422 -1.1697  0.3193 -0.5939
  176SAPS  H19S20091   5.740   7.295   4.479  0.5272 -0.3663  0.0496
  176SAPS  C22020092   5.923   7.178   4.437 -0.3672 -0.2293 -0.6635
  176SAPS  H20R20093   5.953   7.092   4.373 -0.4379 -0.4623 -0.3844
  176SAPS  H20S20094   5.927   7.140   4.541 -1.3056  0.6589 -0.2897
  176SAPS  H20T20095   5.998   7.258   4.418  1.8595 -2.2163 -0.8493
  176SAPS   C3320096   5.599   7.068   3.021  0.0299 -0.4245  0.4113
  176SAPS   H3X20097   5.626   7.069   3.128 -1.6919 -0.8025  0.8806
  176SAPS   H3Y20098   5.564   6.966   2.996 -0.1922 -0.0338 -0.9994
  176SAPS   C3420099   5.474   7.148   2.985  0.0130  0.3651  0.7840
  176SAPS   H4X20100   5.429   7.109   2.891  0.9415  1.0961  0.0159
  176SAPS   H4Y20101   5.487   7.258   2.976  0.0952  0.1710 -3.1741
  176SAPS   C3520102   5.369   7.121   3.094  0.7792  0.4809 -0.2171
  176SAPS   H5X20103   5.370   7.020   3.140 -0.4037  0.8515  0.6951
  176SAPS   H5Y20104   5.270   7.138   3.046 -0.9620 -1.6328  2.3125
  176SAPS   C3620105   5.389   7.217   3.213 -0.0948  0.2422 -0.3288
  176SAPS   H6X20106   5.319   7.303   3.213  0.4180  0.6918 -1.8368
  176SAPS   H6Y20107   5.490   7.260   3.193  0.3399 -1.0260 -0.9971
  176SAPS   C3720108   5.404   7.152   3.350 -0.3450  0.8121  0.4858
  176SAPS   H7X20109   5.507   7.109   3.351 -1.0975 -1.4530 -2.8211
  176SAPS   H7Y20110   5.337   7.065   3.369 -0.0159  0.1985 -0.9849
  176SAPS   C3820111   5.398   7.246   3.466 -0.2738 -0.3251 -0.1558
  176SAPS   H8X20112   5.293   7.284   3.475 -0.0587  0.3900 -0.5481
  176SAPS   H8Y20113   5.465   7.335   3.460  0.1612 -0.6180  0.3152
  176SAPS   C3920114   5.445   7.172   3.596 -0.4749 -0.0578  0.1765
  176SAPS   H9X20115   5.550   7.140   3.575  0.1693  0.7758  1.8696
  176SAPS   H9Y20116   5.389   7.077   3.610  2.0352 -1.8163 -0.8534
  176SAPS  C31020117   5.432   7.250   3.726  0.2705  0.8304  0.2218
  176SAPS  H10X20118   5.488   7.342   3.701  2.6641 -1.1812 -2.5223
  176SAPS  H10Y20119   5.490   7.179   3.789  0.0258 -1.3361 -1.8659
  176SAPS  C31120120   5.292   7.259   3.783  0.0470  0.3653  0.2639
  176SAPS  H11X20121   5.238   7.162   3.784  0.7619 -0.0438  1.3209
  176SAPS  H11Y20122   5.238   7.333   3.720  0.4626 -1.0240 -1.8374
  176SAPS  C31220123   5.312   7.320   3.914  0.8104 -0.5634  0.9242
  176SAPS  H12X20124   5.391   7.399   3.914 -0.0731  0.3579 -0.1360
  176SAPS  H12Y20125   5.347   7.243   3.985  0.2687 -1.2503  0.4556
  176SAPS  C31320126   5.182   7.394   3.966 -0.2649  0.1320  0.3306
  176SAPS  H13X20127   5.103   7.316   3.956 -1.7239  1.8271 -2.3668
  176SAPS  H13Y20128   5.154   7.473   3.893 -1.5630  1.3943  2.1063
  176SAPS  C31420129   5.189   7.460   4.100 -0.6048  0.0534 -0.3040
  176SAPS  H14X20130   5.107   7.534   4.107 -0.5499  0.7312 -4.3092
  176SAPS  H14Y20131   5.285   7.517   4.103 -1.0204  0.7961 -0.6394
  176SAPS  C31520132   5.175   7.365   4.210  0.1333  0.3419 -1.0285
  176SAPS  H15X20133   5.251   7.284   4.204  0.3397  0.5798 -1.6777
  176SAPS  H15Y20134   5.076   7.316   4.199 -0.8471  2.2034 -0.8188
  176SAPS  C31620135   5.200   7.420   4.352  0.4942 -0.4289 -0.7463
  176SAPS  H16X20136   5.106   7.475   4.375 -0.1775 -1.1349 -1.7025
  176SAPS  H16Y20137   5.281   7.495   4.344  0.9173 -0.9214 -1.1719
  176SAPS  C31720138   5.220   7.313   4.459 -0.4911 -0.2453 -0.5548
  176SAPS  H17X20139   5.321   7.268   4.450  0.1458  0.6778  1.5236
  176SAPS  H17Y20140   5.141   7.235   4.454  0.1855 -1.1688  1.7306
  176SAPS  C31820141   5.216   7.373   4.601 -0.3712  0.7613  0.0281
  176SAPS  H18X20142   5.293   7.451   4.616 -0.7088  1.1821 -0.4168
  176SAPS  H18Y20143   5.208   7.291   4.676 -0.2008  1.5681  0.9452
  176SAPS  H18Z20144   5.121   7.429   4.613 -1.2904 -0.4800 -1.0666
  177SAPS     N20145   1.760   1.969   2.406  0.2038  0.0662  0.2334
  177SAPS   HN120146   1.834   1.941   2.339 -1.7733  0.2077 -2.1277
  177SAPS   HN220147   1.772   2.066   2.441  0.5334 -0.2251  0.9693
  177SAPS   HN320148   1.775   1.898   2.482 -1.7478 -1.0645 -0.3822
  177SAPS   C1220149   1.618   1.968   2.366  0.9400  0.3047  0.2417
  177SAPS  H12A20150   1.598   2.043   2.291 -0.3103  1.0700  1.2837
  177SAPS   C1320151   1.578   1.834   2.305  0.1299 -0.2335  0.3405
  177SAPS  O13A20152   1.662   1.738   2.288 -0.2144 -0.0440  0.0265
  177SAPS  O13B20153   1.459   1.825   2.273  0.2439 -0.2924  0.0667
  177SAPS   C1120154   1.523   2.012   2.478 -0.6572  0.6028 -0.2429
  177SAPS  H11A20155   1.539   1.950   2.568  0.2499 -0.6907 -1.2570
  177SAPS  H11B20156   1.417   1.999   2.448  0.1602 -0.4717 -2.9171
  177SAPS     P20157   1.459   2.234   2.588  0.0827 -0.1358 -0.0999
  177SAPS   O1320158   1.520   2.366   2.613  0.7322 -0.6969 -0.3499
  177SAPS   O1420159   1.323   2.232   2.526  0.8325 -0.4688  0.0179
  177SAPS   O1220160   1.556   2.151   2.503 -0.1423 -0.1849  0.3640
  177SAPS   O1120161   1.439   2.147   2.720  0.3432  0.1530 -0.2373
  177SAPS    C120162   1.546   2.104   2.802  0.2656  0.2650  0.0889
  177SAPS    HA20163   1.541   1.994   2.805 -0.0147  0.2969  1.2914
  177SAPS    HB20164   1.648   2.131   2.766  0.9096 -1.5065  0.5091
  177SAPS    C220165   1.540   2.173   2.945  0.7872 -0.6178 -0.5360
  177SAPS    HS20166   1.626   2.145   3.009 -1.1570  0.0893  2.6041
  177SAPS   O2120167   1.411   2.166   3.007  0.5280  0.1240 -0.4717
  177SAPS   C2120168   1.391   2.081   3.107  0.1176  0.0491  0.3407
  177SAPS   O2220169   1.483   2.012   3.151  0.4065  0.0061 -0.1339
  177SAPS   C2220170   1.251   2.090   3.163  0.2565 -0.1871 -0.4748
  177SAPS   H2R20171   1.241   2.197   3.190 -0.3563 -0.3243 -0.1417
  177SAPS   H2S20172   1.171   2.067   3.089  0.2926  0.5636 -0.7607
  177SAPS    C320173   1.555   2.332   2.935  0.0037  0.1300 -0.3581
  177SAPS    HX20174   1.475   2.368   2.867 -1.1041 -0.2398  0.7088
  177SAPS    HY20175   1.653   2.332   2.884 -0.2761 -2.5713 -1.0782
  177SAPS   O3120176   1.562   2.396   3.060  0.2938  0.3075 -0.8839
  177SAPS   C3120177   1.560   2.529   3.046 -0.0983  0.9912 -1.0367
  177SAPS   O3220178   1.577   2.594   2.944 -0.5003  0.1042 -0.7612
  177SAPS   C3220179   1.536   2.588   3.187 -0.0049 -0.0238 -0.2071
  177SAPS   H2X20180   1.516   2.697   3.189 -2.0802 -0.3575  0.2018
  177SAPS   H2Y20181   1.633   2.582   3.240 -0.1908  1.0974  0.2911
  177SAPS   C2320182   1.244   2.013   3.298 -0.2202 -0.0747  0.4311
  177SAPS   H3R20183   1.312   2.071   3.364 -1.8357  1.0400  1.1835
  177SAPS   H3S20184   1.269   1.904   3.293  1.4068  0.3301 -1.4770
  177SAPS   C2420185   1.101   2.021   3.362 -0.4340 -0.1927  0.8705
  177SAPS   H4R20186   1.083   2.130   3.376  1.2242  0.0673  1.2017
  177SAPS   H4S20187   1.115   1.968   3.458  0.6409  0.7417  1.2576
  177SAPS   C2520188   0.994   1.959   3.276 -0.0712  0.1738  0.4318
  177SAPS   H5R20189   0.921   2.035   3.246  0.8241  2.6919  3.9089
  177SAPS   C2620190   0.971   1.832   3.254 -0.0285  0.9537 -0.0881
  177SAPS   H6R20191   0.887   1.807   3.187 -0.5770  1.0135  0.5709
  177SAPS   C2720192   1.046   1.715   3.303 -0.6378 -0.3715  0.3490
  177SAPS   H7R20193   1.138   1.744   3.358 -0.2901 -1.1425  0.1787
  177SAPS   H7S20194   1.074   1.655   3.214 -1.6291 -0.6683  0.2254
  177SAPS   C2820195   0.946   1.635   3.381  0.1380  0.1292 -0.4639
  177SAPS   H8R20196   0.910   1.548   3.324  0.4654 -0.0136 -0.4583
  177SAPS   C2920197   0.922   1.632   3.510 -0.1924 -0.6488 -0.1928
  177SAPS   H9R20198   0.839   1.573   3.550  0.3719 -0.0590  1.9554
  177SAPS  C21020199   0.990   1.727   3.617 -0.0778 -0.6143 -0.0591
  177SAPS  H10R20200   1.091   1.744   3.574  0.4882 -1.7968  0.7228
  177SAPS  H10S20201   1.007   1.673   3.713  1.9485 -2.6493 -1.4627
  177SAPS  C21120202   0.937   1.867   3.639 -0.5655 -0.4603  0.5803
  177SAPS  H11R20203   0.879   1.906   3.554 -0.1814 -1.3487 -0.1110
  177SAPS  C21220204   0.932   1.939   3.749 -0.9349  0.8449  0.0952
  177SAPS  H12R20205   0.880   2.036   3.750 -1.3419  0.7190 -2.4174
  177SAPS  C21320206   1.000   1.902   3.870  0.2803 -0.0614  0.2346
  177SAPS  H13R20207   1.079   1.826   3.849 -0.5586 -1.1093  0.7639
  177SAPS  H13S20208   0.933   1.834   3.928  0.4031 -0.8582 -0.5275
  177SAPS  C21420209   1.051   2.025   3.947  0.1217 -0.0081  0.1494
  177SAPS  H14R20210   1.139   2.077   3.908  0.1583  0.5728  0.9667
  177SAPS  C21520211   0.998   2.082   4.055 -0.0170 -0.0311  0.0312
  177SAPS  H15R20212   1.029   2.181   4.091 -0.6198 -0.1407  0.8907
  177SAPS  C21620213   0.875   2.035   4.121  0.2430  0.8761  0.4089
  177SAPS  H16R20214   0.832   1.946   4.070 -1.2721  1.5529  0.4268
  177SAPS  H16S20215   0.800   2.118   4.120  0.2527  1.0712  3.6448
  177SAPS  C21720216   0.889   2.018   4.274 -0.4598 -0.2681 -0.4508
  177SAPS  H17R20217   0.893   2.109   4.339 -0.5128 -1.0865  0.7224
  177SAPS  H17S20218   0.988   1.971   4.293 -0.5036  0.2187  1.1260
  177SAPS  C21820219   0.770   1.942   4.342 -0.0900 -0.7059  0.2288
  177SAPS  H18R20220   0.742   1.858   4.276  2.4945 -2.4955  1.2460
  177SAPS  H18S20221   0.681   2.007   4.356 -1.3072 -2.6963  2.3664
  177SAPS  C21920222   0.800   1.889   4.488 -0.2962  0.5666 -0.3622
  177SAPS  H19R20223   0.893   1.829   4.481  0.5125  1.8438 -0.9980
  177SAPS  H19S20224   0.711   1.829   4.513  0.1615  0.4163  0.9946
  177SAPS  C22020225   0.826   2.003   4.590 -0.0301 -0.2301 -0.1261
  177SAPS  H20R20226   0.913   2.066   4.561  0.0018 -0.4168 -0.4307
  177SAPS  H20S20227   0.846   1.965   4.693 -2.1650  0.1008  0.4577
  177SAPS  H20T20228   0.738   2.069   4.603  0.5525  0.6861 -0.7328
  177SAPS   C3320229   1.418   2.519   3.263  0.0504  0.2117  0.0599
  177SAPS   H3X20230   1.447   2.415   3.290  0.0874  0.6908  2.0436
  177SAPS   H3Y20231   1.337   2.536   3.189 -0.5644  0.9356  0.8834
  177SAPS   C3420232   1.378   2.598   3.382 -0.1445  0.0368  0.0161
  177SAPS   H4X20233   1.342   2.693   3.339  0.9170 -0.9611 -3.3355
  177SAPS   H4Y20234   1.474   2.605   3.438  0.0144 -4.1626  0.5918
  177SAPS   C3520235   1.276   2.528   3.476 -0.0965  0.1313 -1.0327
  177SAPS   H5X20236   1.301   2.420   3.464  1.3785  0.4060 -0.6036
  177SAPS   H5Y20237   1.171   2.538   3.441  0.0551 -1.0311 -1.8848
  177SAPS   C3620238   1.289   2.565   3.623  1.0693  0.4472 -0.1978
  177SAPS   H6X20239   1.281   2.676   3.626 -3.2831  0.3098 -0.4582
  177SAPS   H6Y20240   1.389   2.533   3.659  0.2135  1.9941  4.0529
  177SAPS   C3720241   1.187   2.499   3.717  0.2254 -0.7584 -0.2703
  177SAPS   H7X20242   1.181   2.391   3.694 -1.7873 -0.5965 -0.7321
  177SAPS   H7Y20243   1.086   2.542   3.700  0.2134 -0.6697  0.0174
  177SAPS   C3820244   1.213   2.518   3.872 -0.0930 -0.4988  0.5596
  177SAPS   H8X20245   1.208   2.625   3.901 -2.4509 -0.7699  1.4283
  177SAPS   H8Y20246   1.318   2.482   3.878 -0.1136 -0.8051 -0.6882
  177SAPS   C3920247   1.111   2.451   3.970  0.5022  0.6063  0.2808
  177SAPS   H9X20248   1.125   2.341   3.981 -0.4676  0.0348 -3.0298
  177SAPS   H9Y20249   1.020   2.458   3.906  1.3258  0.8960 -0.8877
  177SAPS  C31020250   1.098   2.531   4.098 -0.0627 -0.2136 -0.0920
  177SAPS  H10X20251   1.083   2.641   4.084  0.3322 -0.0618  0.6349
  177SAPS  H10Y20252   1.194   2.521   4.154  1.2479 -0.0314 -2.1917
  177SAPS  C31120253   0.987   2.485   4.183  0.5487  0.0792 -0.8256
  177SAPS  H11X20254   0.996   2.374   4.188 -0.7138 -0.0963 -1.7129
  177SAPS  H11Y20255   0.894   2.505   4.125  0.1371 -0.4585 -0.3713
  177SAPS  C31220256   0.988   2.549   4.322 -0.1829  0.0680 -0.8392
  177SAPS  H12X20257   1.009   2.657   4.306  0.0789  0.2750  0.7303
  177SAPS  H12Y20258   1.074   2.510   4.380  1.9519  2.2018 -2.3503
  177SAPS  C31320259   0.864   2.532   4.403  1.0945 -0.3875 -0.1297
  177SAPS  H13X20260   0.775   2.576   4.354 -0.1394 -1.2401  1.2270
  177SAPS  H13Y20261   0.869   2.591   4.497 -3.0590 -0.2376  0.2078
  177SAPS  C31420262   0.836   2.385   4.427  0.1918 -0.8187  0.7005
  177SAPS  H14X20263   0.914   2.341   4.492  1.5339  4.2478  2.9669
  177SAPS  H14Y20264   0.837   2.324   4.334 -1.5119  1.9138 -1.2952
  177SAPS  C31520265   0.699   2.368   4.496  0.0321  0.0601 -0.4965
  177SAPS  H15X20266   0.701   2.436   4.584  1.0946  0.8427 -1.1092
  177SAPS  H15Y20267   0.701   2.261   4.527 -1.0882  0.4905  1.2077
  177SAPS  C31620268   0.577   2.387   4.409 -0.7875 -0.2313  0.4373
  177SAPS  H16X20269   0.583   2.317   4.323  1.2031 -0.8088  1.0081
  177SAPS  H16Y20270   0.584   2.485   4.357  0.4771  0.2487  1.4611
  177SAPS  C31720271   0.444   2.386   4.479 -0.1616  0.2794  0.4686
  177SAPS  H17X20272   0.368   2.384   4.398  1.3473 -1.9851 -0.9746
  177SAPS  H17Y20273   0.427   2.477   4.541  1.9180  0.2292  1.1677
  177SAPS  C31820274   0.413   2.260   4.565  0.2116 -0.2175  0.0571
  177SAPS  H18X20275   0.407   2.170   4.501  4.8323 -1.2126  0.6764
  177SAPS  H18Y20276   0.311   2.286   4.600 -0.0818 -1.8782  0.5288
  177SAPS  H18Z20277   0.492   2.242   4.642  1.0931 -0.4886 -0.8883
  178SAPS     N20278   5.519   6.651   1.910 -0.5861  0.0512  0.1774
  178SAPS   HN120279   5.517   6.698   1.817 -0.3065  1.6624  0.9558
  178SAPS   HN220280   5.465   6.563   1.922  0.9047 -0.6307  2.3943
  178SAPS   HN320281   5.493   6.718   1.985 -3.0351  0.5470 -1.0080
  178SAPS   C1220282   5.658   6.605   1.936 -0.0402 -0.3702 -0.1380
  178SAPS  H12A20283   5.674   6.514   1.879  2.2580  0.3128 -0.7007
  178SAPS   C1320284   5.763   6.713   1.895  0.1128 -0.4102  0.3308
  178SAPS  O13A20285   5.723   6.834   1.908 -0.1110  0.0802  0.1490
  178SAPS  O13B20286   5.883   6.681   1.870 -0.7039 -0.1355  0.3358
  178SAPS   C1120287   5.675   6.576   2.085 -0.1541  0.4467  0.0726
  178SAPS  H11A20288   5.782   6.554   2.104  0.6945  2.8628 -1.4018
  178SAPS  H11B20289   5.609   6.489   2.105 -0.3285  0.4860 -0.3197
  178SAPS     P20290   5.705   6.689   2.318  0.0954 -0.4718 -0.1314
  178SAPS   O1320291   5.848   6.661   2.302  0.2657 -0.4521  0.0063
  178SAPS   O1420292   5.674   6.821   2.378 -0.0689  0.8822  0.2850
  178SAPS   O1220293   5.623   6.677   2.181  0.3456 -0.5980  0.4588
  178SAPS   O1120294   5.639   6.581   2.411  0.3886  0.1945  0.0496
  178SAPS    C120295   5.498   6.587   2.415  0.0077 -0.0878 -1.0513
  178SAPS    HA20296   5.454   6.685   2.388 -2.2636 -0.3774  1.2537
  178SAPS    HB20297   5.457   6.510   2.345 -1.7323 -0.4343  0.2705
  178SAPS    C220298   5.441   6.553   2.555 -0.0494 -0.2026  0.5790
  178SAPS    HS20299   5.339   6.518   2.529  0.1262 -0.4677  0.2466
  178SAPS   O2120300   5.437   6.675   2.636  0.0342  0.0088 -0.2677
  178SAPS   C2120301   5.332   6.677   2.718 -0.2528 -0.1009 -0.9648
  178SAPS   O2220302   5.244   6.594   2.735  0.3389  0.5272  0.7351
  178SAPS   C2220303   5.335   6.816   2.799  0.3935 -0.2907  0.4669
  178SAPS   H2R20304   5.437   6.861   2.803 -0.0347  0.7102  0.5121
  178SAPS   H2S20305   5.279   6.881   2.729  0.6939  0.4561  0.8972
  178SAPS    C320306   5.528   6.445   2.630  0.0176 -0.7865  0.3358
  178SAPS    HX20307   5.612   6.502   2.676 -2.6091  0.6271  3.8201
  178SAPS    HY20308   5.563   6.382   2.545 -1.3258 -0.4584 -0.4949
  178SAPS   O3120309   5.455   6.364   2.727 -0.4671 -0.0206 -0.3134
  178SAPS   C3120310   5.493   6.395   2.851  0.8124  0.0832 -0.1298
  178SAPS   O3220311   5.577   6.475   2.889  0.2246 -0.5164  0.3057
  178SAPS   C3220312   5.436   6.289   2.950  0.3472 -0.3491  0.7631
  178SAPS   H2X20313   5.453   6.188   2.907 -1.7235 -0.5414  0.3028
  178SAPS   H2Y20314   5.326   6.304   2.946  0.1962 -1.6439 -0.9153
  178SAPS   C2320315   5.259   6.813   2.929 -0.2085 -0.3095 -0.1618
  178SAPS   H3R20316   5.154   6.778   2.923 -0.9030  1.4582  0.8634
  178SAPS   H3S20317   5.251   6.917   2.967 -3.2220  0.6685 -3.0800
  178SAPS   C2420318   5.326   6.709   3.031  0.1326 -0.7486 -0.2252
  178SAPS   H4R20319   5.436   6.719   3.018  0.1737  0.1539  0.6408
  178SAPS   H4S20320   5.302   6.602   3.016 -2.2839 -0.8029  2.9062
  178SAPS   C2520321   5.280   6.747   3.176  0.6756 -0.3468 -0.0351
  178SAPS   H5R20322   5.190   6.811   3.180  1.1353  0.4006 -1.1821
  178SAPS   C2620323   5.354   6.727   3.288  0.0847  0.3296 -0.8262
  178SAPS   H6R20324   5.313   6.754   3.386  0.8105  0.5746 -0.5847
  178SAPS   C2720325   5.489   6.660   3.292 -0.4518  1.0841  0.7781
  178SAPS   H7R20326   5.471   6.553   3.269  1.0274  1.1751 -1.0337
  178SAPS   H7S20327   5.519   6.649   3.399  1.8496  0.8478  0.1719
  178SAPS   C2820328   5.610   6.715   3.218  0.4256  1.1667  0.5862
  178SAPS   H8R20329   5.638   6.662   3.126  0.7153  1.1690  0.6713
  178SAPS   C2920330   5.693   6.813   3.257  0.8586 -0.1650 -0.1802
  178SAPS   H9R20331   5.777   6.841   3.192 -0.2965 -0.7099 -1.9817
  178SAPS  C21020332   5.680   6.897   3.385  0.3228 -0.1727  0.2617
  178SAPS  H10R20333   5.576   6.902   3.425  0.6513 -1.2784  1.3404
  178SAPS  H10S20334   5.708   7.000   3.357  0.0371 -0.5654 -1.5690
  178SAPS  C21120335   5.780   6.837   3.479  1.2990 -0.2754 -0.3992
  178SAPS  H11R20336   5.874   6.795   3.443  1.1057 -0.7773 -0.3164
  178SAPS  C21220337   5.756   6.823   3.612  0.1957 -0.2917 -0.3044
  178SAPS  H12R20338   5.833   6.767   3.667 -0.4512 -0.9408 -0.0445
  178SAPS  C21320339   5.626   6.848   3.682 -0.2772 -0.0387  0.3973
  178SAPS  H13R20340   5.544   6.814   3.615  1.1015  0.4476 -1.6270
  178SAPS  H13S20341   5.614   6.958   3.688  2.0757  0.3968 -1.4722
  178SAPS  C21420342   5.609   6.766   3.806 -0.3240  0.6454 -0.6207
  178SAPS  H14R20343   5.543   6.678   3.797  1.6522 -1.0460  0.5554
  178SAPS  C21520344   5.663   6.787   3.932  0.5398  0.0419 -0.0702
  178SAPS  H15R20345   5.643   6.720   4.017 -1.6612  1.3491  0.5263
  178SAPS  C21620346   5.758   6.901   3.969  0.1364  0.1586 -0.5259
  178SAPS  H16R20347   5.710   6.955   4.053 -1.2288 -0.3338 -0.9599
  178SAPS  H16S20348   5.779   6.967   3.882 -0.1122  0.2683 -0.5017
  178SAPS  C21720349   5.895   6.839   4.018 -0.0470 -0.2174  1.0657
  178SAPS  H17R20350   5.923   6.746   3.965 -1.9364 -1.0429  1.4508
  178SAPS  H17S20351   5.877   6.809   4.124 -0.5670  1.7352  1.5771
  178SAPS  C21820352   6.013   6.933   3.998 -0.1593 -0.3541 -0.0252
  178SAPS  H18R20353   6.019   6.953   3.889 -1.5223  1.4510  0.1806
  178SAPS  H18S20354   6.101   6.872   4.027 -0.3958 -1.0211 -0.7022
  178SAPS  C21920355   6.006   7.065   4.072  0.2070 -0.0247  0.1638
  178SAPS  H19R20356   5.983   7.036   4.177  1.2754  1.0703  0.7153
  178SAPS  H19S20357   5.920   7.129   4.041 -1.7303 -1.9943  1.2007
  178SAPS  C22020358   6.124   7.156   4.079  0.3167 -0.1082 -0.2493
  178SAPS  H20R20359   6.104   7.239   4.008 -0.0039  0.3804  0.4007
  178SAPS  H20S20360   6.216   7.095   4.068 -1.0970 -2.3038 -0.5769
  178SAPS  H20T20361   6.142   7.203   4.178 -0.6169  1.3000 -0.7234
  178SAPS   C3320362   5.496   6.289   3.094 -0.0647 -0.4578  0.5333
  178SAPS   H3X20363   5.421   6.325   3.168 -1.2192  0.7881 -1.1589
  178SAPS   H3Y20364   5.592   6.344   3.101  0.0495 -0.4857 -0.5497
  178SAPS   C3420365   5.527   6.143   3.144  0.0153  0.8748 -0.5633
  178SAPS   H4X20366   5.612   6.093   3.094  1.5747  2.1861  0.6667
  178SAPS   H4Y20367   5.442   6.073   3.131  0.2908  0.4709 -0.1927
  178SAPS   C3520368   5.561   6.138   3.294 -0.5532 -0.1349 -0.0042
  178SAPS   H5X20369   5.649   6.206   3.299 -0.8856  0.3381 -0.4842
  178SAPS   H5Y20370   5.584   6.032   3.319  1.1257  0.1191 -0.3206
  178SAPS   C3620371   5.450   6.182   3.392 -1.1462 -0.4754  0.2357
  178SAPS   H6X20372   5.360   6.125   3.362 -1.7665  0.7236 -0.2398
  178SAPS   H6Y20373   5.433   6.290   3.376 -1.0785 -0.4798  0.1263
  178SAPS   C3720374   5.471   6.154   3.540  0.0497 -0.1426 -0.6572
  178SAPS   H7X20375   5.419   6.222   3.611  1.1521 -1.1868  1.2296
  178SAPS   H7Y20376   5.578   6.180   3.555 -0.5260  1.5028  0.8713
  178SAPS   C3820377   5.453   6.006   3.577 -0.7341  0.1742 -0.1110
  178SAPS   H8X20378   5.486   5.940   3.493 -0.2063  0.5116 -0.1725
  178SAPS   H8Y20379   5.346   5.987   3.597 -0.1790 -2.6023  0.6364
  178SAPS   C3920380   5.531   5.964   3.707 -0.1848  1.4734  0.5429
  178SAPS   H9X20381   5.639   5.985   3.689  0.1739  0.1373  0.9887
  178SAPS   H9Y20382   5.519   5.853   3.703 -0.5686  1.5307  0.0879
  178SAPS  C31020383   5.488   6.017   3.842 -0.2067  0.3784  0.2464
  178SAPS  H10X20384   5.379   6.013   3.863 -0.0569 -0.4338  0.9060
  178SAPS  H10Y20385   5.521   6.123   3.848  3.1032 -0.6471  2.8213
  178SAPS  C31120386   5.544   5.932   3.960 -0.2262 -0.0125  0.3241
  178SAPS  H11X20387   5.654   5.930   3.971 -0.3775 -1.1902  2.0318
  178SAPS  H11Y20388   5.503   5.830   3.943 -2.6989  0.4787  2.5083
  178SAPS  C31220389   5.486   5.991   4.097  0.4394  0.1317  1.1213
  178SAPS  H12X20390   5.377   6.006   4.084  0.1912 -1.9468  0.3324
  178SAPS  H12Y20391   5.532   6.089   4.120 -1.2402  0.9912  0.9492
  178SAPS  C31320392   5.510   5.910   4.223  0.4790  0.0214 -0.4954
  178SAPS  H13X20393   5.614   5.869   4.226  0.9758  1.2578 -0.3462
  178SAPS  H13Y20394   5.439   5.825   4.225 -1.5401  1.6497  0.5450
  178SAPS  C31420395   5.494   5.996   4.353  0.3710  0.1547 -0.3385
  178SAPS  H14X20396   5.385   6.010   4.371  0.5757  0.1467  1.0564
  178SAPS  H14Y20397   5.543   6.094   4.340 -0.4497  0.7613  0.9306
  178SAPS  C31520398   5.559   5.931   4.478 -0.2320 -0.1219  0.0717
  178SAPS  H15X20399   5.533   5.997   4.563 -1.3179 -1.4733  0.8264
  178SAPS  H15Y20400   5.670   5.923   4.477 -0.2505 -0.3853  0.1270
  178SAPS  C31620401   5.488   5.795   4.518  0.2487 -0.0231  0.1384
  178SAPS  H16X20402   5.506   5.726   4.433  2.4805  0.0749  0.4743
  178SAPS  H16Y20403   5.382   5.818   4.543  0.3322 -0.0440  0.5120
  178SAPS  C31720404   5.559   5.744   4.648 -0.6601  0.6504 -0.4095
  178SAPS  H17X20405   5.552   5.813   4.735  0.3526  0.3198 -0.0513
  178SAPS  H17Y20406   5.667   5.725   4.631 -0.0784  0.0543  3.1145
  178SAPS  C31820407   5.521   5.610   4.698  0.1168 -0.2458 -0.2752
  178SAPS  H18X20408   5.544   5.611   4.806  0.3215  1.2870 -0.3159
  178SAPS  H18Y20409   5.566   5.525   4.642 -2.4316 -1.2228 -1.0089
  178SAPS  H18Z20410   5.414   5.584   4.680  0.5755 -1.6021 -1.1571
  179SAPS     N20411   3.396   3.499   2.473 -0.1607 -0.4114  0.0219
  179SAPS   HN120412   3.436   3.593   2.495 -0.1210 -0.6121  0.8044
  179SAPS   HN220413   3.453   3.419   2.507  1.3215  1.1661  1.4332
  179SAPS   HN320414   3.383   3.492   2.370 -1.5634 -0.7196  0.1947
  179SAPS   C1220415   3.258   3.495   2.531  0.3797 -0.1219  0.7628
  179SAPS  H12A20416   3.259   3.543   2.628  1.8324  1.5055  0.0002
  179SAPS   C1320417   3.165   3.580   2.437  0.0608  0.0960 -0.3154
  179SAPS  O13A20418   3.209   3.641   2.341 -0.5256  0.1935  0.0678
  179SAPS  O13B20419   3.043   3.567   2.462 -0.2390 -0.0624 -0.5539
  179SAPS   C1120420   3.209   3.354   2.550  0.8248  0.3175 -0.1491
  179SAPS  H11A20421   3.197   3.321   2.444 -0.6022  1.3490 -0.3338
  179SAPS  H11B20422   3.108   3.346   2.595  0.7765 -0.6986 -0.4033
  179SAPS     P20423   3.320   3.239   2.763  0.1865  0.3875 -0.1683
  179SAPS   O1320424   3.274   3.104   2.803  0.6931  0.3121  0.2783
  179SAPS   O1420425   3.455   3.293   2.801 -0.8250 -0.1899 -0.1092
  179SAPS   O1220426   3.299   3.264   2.612 -0.2928 -0.3743 -0.4386
  179SAPS   O1120427   3.201   3.332   2.816 -0.2441  0.2686  0.3046
  179SAPS    C120428   3.219   3.405   2.934 -0.3923 -0.5051 -0.1990
  179SAPS    HA20429   3.234   3.343   3.025 -0.0303 -0.2149 -0.0589
  179SAPS    HB20430   3.307   3.471   2.919  0.4432 -1.5357  0.0006
  179SAPS    C220431   3.094   3.495   2.962  0.3573 -0.4040 -0.0008
  179SAPS    HS20432   3.069   3.542   2.864  1.2144  0.1350  0.0227
  179SAPS   O2120433   3.128   3.602   3.055 -0.0833  0.3249 -0.0717
  179SAPS   C2120434   3.035   3.676   3.096  0.0596  0.8365  0.8895
  179SAPS   O2220435   2.926   3.685   3.039  0.4036  0.3670  1.1312
  179SAPS   C2220436   3.080   3.758   3.221  0.2269 -0.7363  0.1053
  179SAPS   H2R20437   3.175   3.806   3.189 -1.1751  2.7919  0.7161
  179SAPS   H2S20438   2.998   3.832   3.237  0.0377 -0.6591 -1.0887
  179SAPS    C320439   2.979   3.404   3.005  0.4439  0.4696 -0.2905
  179SAPS    HX20440   2.979   3.323   2.929  0.2674  0.2266 -0.0332
  179SAPS    HY20441   2.885   3.462   2.996  0.5779  1.0521  1.5540
  179SAPS   O3120442   2.999   3.341   3.132 -0.1916  0.3211  0.5288
  179SAPS   C3120443   2.890   3.267   3.179 -0.4407 -0.2048 -0.7619
  179SAPS   O3220444   2.784   3.253   3.118 -0.6679  0.2471 -0.4713
  179SAPS   C3220445   2.929   3.203   3.315  0.5989  0.0143  0.2416
  179SAPS   H2X20446   2.924   3.283   3.393  0.3059  1.0760 -0.8380
  179SAPS   H2Y20447   3.029   3.155   3.303 -0.8287 -3.6188  1.5418
  179SAPS   C2320448   3.096   3.673   3.345  0.0239 -0.6952 -0.0841
  179SAPS   H3R20449   3.143   3.738   3.422 -0.8752  2.4408 -1.9913
  179SAPS   H3S20450   3.170   3.598   3.312  1.6201  0.7091  0.1731
  179SAPS   C2420451   2.965   3.615   3.410  0.2900  0.5261 -0.0030
  179SAPS   H4R20452   3.000   3.526   3.466 -0.6499 -1.7287 -2.7344
  179SAPS   H4S20453   2.889   3.594   3.331  0.1219  0.4979  0.1656
  179SAPS   C2520454   2.901   3.719   3.489  0.2996 -0.2116  0.0346
  179SAPS   H5R20455   2.906   3.825   3.459 -0.0740  0.5564  2.4061
  179SAPS   C2620456   2.881   3.707   3.625  0.6312  0.1921  0.7785
  179SAPS   H6R20457   2.842   3.799   3.672 -0.8979  0.3945 -0.7810
  179SAPS   C2720458   2.889   3.579   3.714  0.3966 -0.3861  1.1142
  179SAPS   H7R20459   2.897   3.608   3.821  3.1122 -0.1052  0.9081
  179SAPS   H7S20460   2.980   3.520   3.692 -0.5476 -2.0336  1.5004
  179SAPS   C2820461   2.774   3.479   3.692 -0.6065  0.0304 -0.2153
  179SAPS   H8R20462   2.777   3.446   3.587 -1.0818  1.6448 -0.7519
  179SAPS   C2920463   2.690   3.412   3.774 -0.1649 -0.8413 -0.5797
  179SAPS   H9R20464   2.607   3.350   3.738 -0.9254  1.4306 -3.0943
  179SAPS  C21020465   2.692   3.429   3.927 -0.3625  0.0482 -1.1443
  179SAPS  H10R20466   2.787   3.392   3.971 -0.4029  0.4457 -0.7058
  179SAPS  H10S20467   2.609   3.368   3.967 -0.4681  0.5489 -0.5802
  179SAPS  C21120468   2.672   3.570   3.982 -0.2137  0.3965 -1.2480
  179SAPS  H11R20469   2.623   3.649   3.922 -3.2069  0.1151  0.6216
  179SAPS  C21220470   2.706   3.607   4.108  0.1302  0.6046  0.0985
  179SAPS  H12R20471   2.672   3.703   4.149 -4.2001 -0.1257 -1.2218
  179SAPS  C21320472   2.768   3.515   4.214  0.2185  0.2014  0.8478
  179SAPS  H13R20473   2.736   3.410   4.199  1.7763 -0.7089  3.3791
  179SAPS  H13S20474   2.734   3.560   4.309 -0.9223  4.2961 -1.2406
  179SAPS  C21420475   2.919   3.518   4.193 -0.0800 -0.4862  0.3383
  179SAPS  H14R20476   2.951   3.509   4.089 -1.5075 -3.3399  0.0425
  179SAPS  C21520477   3.009   3.542   4.290 -0.0933  0.3840  0.1085
  179SAPS  H15R20478   3.111   3.521   4.255 -1.2491 -4.2833 -1.2017
  179SAPS  C21620479   2.984   3.564   4.436 -0.2802 -0.3315 -0.1558
  179SAPS  H16R20480   2.982   3.463   4.483  1.4452  0.0929  0.9125
  179SAPS  H16S20481   2.885   3.616   4.444  0.5721  1.5707 -1.3165
  179SAPS  C21720482   3.082   3.662   4.502  0.0613 -0.3179 -0.1015
  179SAPS  H17R20483   3.074   3.753   4.439  0.6901  1.8624  2.7708
  179SAPS  H17S20484   3.187   3.627   4.487 -0.0502 -0.9813  0.6101
  179SAPS  C21820485   3.052   3.697   4.648 -0.3564 -0.1174 -0.4933
  179SAPS  H18R20486   2.951   3.745   4.649  1.1353  3.2619 -0.0734
  179SAPS  H18S20487   3.124   3.771   4.686  1.2771 -1.5491 -0.6896
  179SAPS  C21920488   3.056   3.565   4.730  0.0902 -0.8858  0.5558
  179SAPS  H19R20489   3.130   3.495   4.687  1.2790  0.1265  0.8971
  179SAPS  H19S20490   2.954   3.521   4.727  1.2835 -3.8017 -1.7078
  179SAPS  C22020491   3.111   3.600   4.869 -0.3726 -0.4982 -0.1350
  179SAPS  H20R20492   3.104   3.507   4.929  1.1539  0.1773  1.1333
  179SAPS  H20S20493   3.038   3.668   4.918 -0.5666 -1.7349  1.3776
  179SAPS  H20T20494   3.210   3.649   4.859  0.0139 -1.5763 -2.4843
  179SAPS   C3320495   2.823   3.097   3.351  0.4716  0.7409  0.1467
  179SAPS   H3X20496   2.873   3.030   3.425 -0.8023  1.6647  1.9322
  179SAPS   H3Y20497   2.799   3.031   3.266  0.9502 -0.8780  1.2256
  179SAPS   C3420498   2.694   3.133   3.426 -0.5767  0.7436  0.6301
  179SAPS   H4X20499   2.632   3.198   3.361  0.4326  0.3466 -0.7715
  179SAPS   H4Y20500   2.718   3.185   3.521  1.9298  0.8881 -0.0279
  179SAPS   C3520501   2.596   3.009   3.450 -0.3681 -0.8004 -0.7543
  179SAPS   H5X20502   2.572   2.972   3.348 -0.2945  0.9514 -1.4322
  179SAPS   H5Y20503   2.508   3.063   3.492  0.0508 -0.1332 -0.7285
  179SAPS   C3620504   2.652   2.897   3.546 -0.1410 -0.4365  0.0673
  179SAPS   H6X20505   2.748   2.855   3.510  0.1217 -0.0158  0.2727
  179SAPS   H6Y20506   2.579   2.815   3.533 -0.2734 -0.2213 -0.6019
  179SAPS   C3720507   2.647   2.946   3.691 -0.4938  0.5630  0.3651
  179SAPS   H7X20508   2.538   2.959   3.704 -0.7423 -0.6938 -0.2800
  179SAPS   H7Y20509   2.708   3.037   3.708  0.4819 -0.1474  0.7768
  179SAPS   C3820510   2.684   2.833   3.788  0.1844 -0.0867  0.0337
  179SAPS   H8X20511   2.793   2.844   3.807  0.4068  1.5435 -1.8545
  179SAPS   H8Y20512   2.666   2.735   3.739 -2.8387  1.6253 -2.6426
  179SAPS   C3920513   2.604   2.843   3.912 -0.4516  0.1641  0.1620
  179SAPS   H9X20514   2.504   2.803   3.883 -0.3759  0.4389 -0.4918
  179SAPS   H9Y20515   2.586   2.949   3.941 -1.2271  0.3091 -0.7755
  179SAPS  C31020516   2.655   2.769   4.037 -0.1880 -0.1410  0.2733
  179SAPS  H10X20517   2.758   2.805   4.057 -0.9714  2.2976  0.2283
  179SAPS  H10Y20518   2.657   2.659   4.019  0.3153 -0.5297  2.4300
  179SAPS  C31120519   2.571   2.803   4.166  0.5225  0.3956 -0.6577
  179SAPS  H11X20520   2.603   2.898   4.214 -1.5345  1.1990 -0.7554
  179SAPS  H11Y20521   2.579   2.741   4.258 -2.3430  0.6312 -0.1499
  179SAPS  C31220522   2.423   2.814   4.139 -0.3490  0.0039  1.2765
  179SAPS  H12X20523   2.398   2.731   4.069  1.6858  0.7945 -0.4931
  179SAPS  H12Y20524   2.392   2.906   4.086  2.7719 -0.2569 -1.3202
  179SAPS  C31320525   2.342   2.800   4.272 -0.0020 -0.0049 -1.2363
  179SAPS  H13X20526   2.243   2.850   4.270 -0.5955 -1.1290 -1.1661
  179SAPS  H13Y20527   2.398   2.847   4.356 -0.7037  1.3347 -1.5021
  179SAPS  C31420528   2.307   2.649   4.309 -0.2526  0.1630  0.2175
  179SAPS  H14X20529   2.398   2.585   4.313 -0.0640  0.4240  0.1067
  179SAPS  H14Y20530   2.237   2.612   4.231 -2.0755  1.2307  1.2596
  179SAPS  C31520531   2.240   2.632   4.451  0.8542  0.7615  0.1926
  179SAPS  H15X20532   2.147   2.693   4.439  1.9868  2.5663  0.1033
  179SAPS  H15Y20533   2.299   2.682   4.531  1.3118  0.7515 -0.1335
  179SAPS  C31620534   2.198   2.488   4.470  0.5972  0.5905  0.4021
  179SAPS  H16X20535   2.287   2.422   4.458  0.6697  0.9160 -0.9973
  179SAPS  H16Y20536   2.144   2.462   4.377  0.3195 -0.1291  0.7589
  179SAPS  C31720537   2.117   2.446   4.596  0.9646 -0.3776 -0.0854
  179SAPS  H17X20538   2.034   2.521   4.598  1.6723  0.6072 -2.7583
  179SAPS  H17Y20539   2.192   2.456   4.677  1.1219 -0.6641 -0.1962
  179SAPS  C31820540   2.063   2.303   4.592  0.4472  0.2559 -0.5635
  179SAPS  H18X20541   2.140   2.226   4.612  0.1127  0.4031  1.4975
  179SAPS  H18Y20542   2.027   2.283   4.489  0.8105  1.4461 -0.9484
  179SAPS  H18Z20543   1.970   2.300   4.653  0.9302  0.3878  0.1962
  180SAPS     N20544   0.285   0.243   2.657  0.1147  0.0540  0.2427
  180SAPS   HN120545   0.296   0.236   2.760  1.9432 -1.2677  0.0114
  180SAPS   HN220546   0.357   0.312   2.628 -0.7393  1.5921  1.5688
  180SAPS   HN320547   0.188   0.277   2.639  0.5363  0.6090 -1.0371
  180SAPS   C1220548   0.323   0.108   2.589 -0.0760 -0.2768 -0.1252
  180SAPS  H12A20549   0.259   0.036   2.637 -0.1715 -0.2789 -0.2538
  180SAPS   C1320550   0.308   0.099   2.434 -0.9146 -0.8571 -0.1933
  180SAPS  O13A20551   0.269   0.201   2.376 -0.0016 -0.4099 -0.6657
  180SAPS  O13B20552   0.297  -0.019   2.391 -0.1004  0.2927  0.8080
  180SAPS   C1120553   0.474   0.082   2.624  0.2046  0.1602  0.8884
  180SAPS  H11A20554   0.528   0.172   2.588  0.2049 -0.8648 -1.9550
  180SAPS  H11B20555   0.497  -0.013   2.569 -2.5587 -0.6164  0.9405
  180SAPS     P20556   0.605  -0.021   2.827  0.0679  0.4324  0.0320
  180SAPS   O1320557   0.645  -0.122   2.727  0.3165  1.0681  0.0858
  180SAPS   O1420558   0.710   0.063   2.888  0.5941  0.1683  0.1385
  180SAPS   O1220559   0.493   0.066   2.761 -0.1760 -0.3396 -1.1846
  180SAPS   O1120560   0.520  -0.094   2.949 -0.3461 -0.3228  0.7675
  180SAPS    C120561   0.484  -0.023   3.062  0.3594 -1.3479 -0.5043
  180SAPS    HA20562   0.517   0.083   3.065 -0.9537 -0.9545  0.8660
  180SAPS    HB20563   0.373  -0.012   3.062  0.1562 -3.1937 -0.0225
  180SAPS    C220564   0.528  -0.093   3.193 -1.0227 -0.2265  0.1305
  180SAPS    HS20565   0.632  -0.062   3.213 -1.4013  1.3905 -0.3072
  180SAPS   O2120566   0.516  -0.235   3.182 -0.4544  0.8635 -0.4109
  180SAPS   C2120567   0.597  -0.310   3.256 -0.3060 -0.1663  0.3596
  180SAPS   O2220568   0.698  -0.272   3.317  0.2331  0.3084  0.8621
  180SAPS   C2220569   0.543  -0.445   3.253  0.2902 -0.0677 -0.6462
  180SAPS   H2R20570   0.507  -0.467   3.150  1.4988 -0.5844 -0.9750
  180SAPS   H2S20571   0.629  -0.508   3.282 -0.6641 -0.4695  1.5107
  180SAPS    C320572   0.441  -0.047   3.310 -0.1044  0.3375  0.2618
  180SAPS    HX20573   0.356  -0.118   3.298  1.2584 -1.5837  1.5133
  180SAPS    HY20574   0.416   0.061   3.299  2.5859  0.9714 -0.1635
  180SAPS   O3120575   0.496  -0.079   3.436 -0.3289  0.0379  0.2466
  180SAPS   C3120576   0.604  -0.010   3.477  0.3044  0.5171 -0.3436
  180SAPS   O3220577   0.645   0.085   3.411 -0.3339  0.1595 -0.1582
  180SAPS   C3220578   0.650  -0.071   3.607 -0.5557 -0.4810 -0.8779
  180SAPS   H2X20579   0.749  -0.023   3.621  1.1157 -4.0025  0.3997
  180SAPS   H2Y20580   0.676  -0.178   3.597 -0.5564 -0.6552  0.7448
  180SAPS   C2320581   0.421  -0.454   3.350  1.5820 -0.3946 -0.3311
  180SAPS   H3R20582   0.361  -0.543   3.320 -0.3695  0.8721 -0.3101
  180SAPS   H3S20583   0.354  -0.366   3.342 -0.5901 -1.8398  0.9900
  180SAPS   C2420584   0.465  -0.467   3.494 -0.0080  0.2788 -1.2926
  180SAPS   H4R20585   0.377  -0.470   3.562  1.5738 -2.1516  0.8459
  180SAPS   H4S20586   0.517  -0.370   3.510 -1.8324  1.2747 -1.1751
  180SAPS   C2520587   0.535  -0.602   3.518 -0.0132 -0.1155  0.1119
  180SAPS   H5R20588   0.488  -0.687   3.466  0.4441  1.8578 -3.9819
  180SAPS   C2620589   0.654  -0.616   3.570 -0.7428 -0.1052 -0.4708
  180SAPS   H6R20590   0.697  -0.717   3.569  0.2823  0.2978 -2.2850
  180SAPS   C2720591   0.741  -0.508   3.634 -0.1723 -0.0635 -0.0840
  180SAPS   H7R20592   0.713  -0.404   3.606  1.5773  0.7106  0.8748
  180SAPS   H7S20593   0.850  -0.518   3.611  0.4853  0.6034  2.4754
  180SAPS   C2820594   0.731  -0.502   3.788 -0.0786 -0.3359 -0.0771
  180SAPS   H8R20595   0.666  -0.428   3.837  2.5620  1.2649  1.2526
  180SAPS   C2920596   0.797  -0.581   3.874 -1.0699  0.0297 -0.2883
  180SAPS   H9R20597   0.779  -0.561   3.981  0.0563 -1.7085  0.2567
  180SAPS  C21020598   0.906  -0.689   3.848  0.3052 -0.5997 -0.1086
  180SAPS  H10R20599   0.960  -0.669   3.753 -0.0777  1.5787  0.0688
  180SAPS  H10S20600   0.861  -0.790   3.842 -1.5015  0.0164  1.8296
  180SAPS  C21120601   1.018  -0.687   3.959  0.6206 -0.3839 -0.1847
  180SAPS  H11R20602   1.097  -0.618   3.927  1.9393 -1.3474  0.8692
  180SAPS  C21220603   1.004  -0.724   4.089 -0.6519  0.1742 -0.0318
  180SAPS  H12R20604   1.093  -0.719   4.154 -0.7718 -2.0694  0.3575
  180SAPS  C21320605   0.889  -0.794   4.156 -0.3645  1.3260  0.0671
  180SAPS  H13R20606   0.925  -0.899   4.160 -0.9382  1.1265  0.0713
  180SAPS  H13S20607   0.797  -0.807   4.094 -2.2271 -2.2413  3.1104
  180SAPS  C21420608   0.859  -0.756   4.300  0.2318 -1.3461  0.0667
  180SAPS  H14R20609   0.761  -0.708   4.314  1.2023  0.4207  1.2563
  180SAPS  C21520610   0.915  -0.808   4.411 -0.2997  0.6052 -0.2894
  180SAPS  H15R20611   0.879  -0.763   4.504 -0.3896 -0.0344 -0.0088
  180SAPS  C21620612   1.032  -0.899   4.434 -0.0529 -0.2188  0.4852
  180SAPS  H16R20613   1.072  -0.937   4.337  0.3838 -2.7404  1.5789
  180SAPS  H16S20614   1.009  -0.987   4.498 -3.6551 -0.6867 -1.2422
  180SAPS  C21720615   1.155  -0.825   4.498 -0.9163 -0.4092  0.3305
  180SAPS  H17R20616   1.224  -0.894   4.550 -2.3414 -1.4683  0.8958
  180SAPS  H17S20617   1.113  -0.762   4.579 -1.9775  0.1480 -0.6234
  180SAPS  C21820618   1.227  -0.725   4.403  0.5662  0.3046  0.3560
  180SAPS  H18R20619   1.167  -0.632   4.393  0.6700  0.3934  0.5550
  180SAPS  H18S20620   1.239  -0.767   4.301  0.1348  0.5974  0.1823
  180SAPS  C21920621   1.368  -0.689   4.436  0.1632  0.1315 -0.6100
  180SAPS  H19R20622   1.423  -0.641   4.352  5.0161 -1.1898  1.4741
  180SAPS  H19S20623   1.433  -0.779   4.435  2.1751  1.5010 -1.8715
  180SAPS  C22020624   1.380  -0.609   4.568  0.2476 -0.2536  0.2763
  180SAPS  H20R20625   1.467  -0.543   4.548  1.8618 -2.6639 -1.2020
  180SAPS  H20S20626   1.290  -0.546   4.589 -1.6124 -2.7293  0.2210
  180SAPS  H20T20627   1.412  -0.671   4.655  1.7648 -0.8155 -0.6601
  180SAPS   C3320628   0.560  -0.049   3.732 -0.2216 -0.0908  0.6643
  180SAPS   H3X20629   0.513   0.051   3.738 -1.6162 -0.6552 -0.2909
  180SAPS   H3Y20630   0.627  -0.066   3.819  2.3723 -1.1134 -1.3789
  180SAPS   C3420631   0.456  -0.158   3.741 -0.5531  0.5083  0.3889
  180SAPS   H4X20632   0.496  -0.262   3.739 -1.2886  0.1882  1.5506
  180SAPS   H4Y20633   0.379  -0.134   3.665  0.9070  1.4904 -0.8478
  180SAPS   C3520634   0.393  -0.165   3.884  0.5576  0.4896 -0.0553
  180SAPS   H5X20635   0.383  -0.059   3.915 -1.1810  1.3915 -3.1733
  180SAPS   H5Y20636   0.468  -0.219   3.946 -0.5499 -0.7433  0.2437
  180SAPS   C3620637   0.264  -0.252   3.894  0.2599 -0.0194 -0.3552
  180SAPS   H6X20638   0.191  -0.190   3.838  2.1127  2.8683  0.2308
  180SAPS   H6Y20639   0.227  -0.247   3.998 -2.1777 -0.3166 -1.1382
  180SAPS   C3720640   0.272  -0.399   3.848  0.2320 -0.2789 -0.2309
  180SAPS   H7X20641   0.287  -0.398   3.738 -1.4149 -1.5338 -0.5197
  180SAPS   H7Y20642   0.172  -0.447   3.856 -1.1775  2.0820 -2.1892
  180SAPS   C3820643   0.369  -0.474   3.937  0.3829  0.5930  0.2072
  180SAPS   H8X20644   0.468  -0.426   3.950  0.6239  0.1584 -0.0349
  180SAPS   H8Y20645   0.386  -0.579   3.906  0.6058  1.1210 -1.5742
  180SAPS   C3920646   0.322  -0.484   4.078 -0.0159  0.2601  0.0069
  180SAPS   H9X20647   0.213  -0.506   4.076 -0.1489  0.6926  1.2706
  180SAPS   H9Y20648   0.338  -0.385   4.126 -1.7356  1.1189 -1.1180
  180SAPS  C31020649   0.407  -0.575   4.168 -0.0825 -0.1387  0.3802
  180SAPS  H10X20650   0.513  -0.542   4.174 -0.2735  1.2769 -2.2951
  180SAPS  H10Y20651   0.396  -0.676   4.123 -3.3261 -0.5832  1.8695
  180SAPS  C31120652   0.350  -0.583   4.312  0.0761 -0.5270 -0.8718
  180SAPS  H11X20653   0.245  -0.618   4.314 -1.0660  2.5812  0.1576
  180SAPS  H11Y20654   0.349  -0.479   4.352 -0.1582 -0.8321 -0.0792
  180SAPS  C31220655   0.439  -0.668   4.405 -0.4268  0.0233  0.9941
  180SAPS  H12X20656   0.534  -0.613   4.424  0.3302 -1.2939  1.1961
  180SAPS  H12Y20657   0.465  -0.761   4.350  1.2496  0.7125  0.5317
  180SAPS  C31320658   0.369  -0.699   4.543  0.3973 -0.0698 -0.2854
  180SAPS  H13X20659   0.272  -0.746   4.515 -0.0042  0.2999  0.4499
  180SAPS  H13Y20660   0.352  -0.604   4.598 -1.4289 -0.6136  0.1520
  180SAPS  C31420661   0.447  -0.799   4.632 -0.3217  0.7422 -0.1320
  180SAPS  H14X20662   0.520  -0.749   4.700 -1.7371  0.8481  1.3800
  180SAPS  H14Y20663   0.503  -0.872   4.570  1.3435  1.5813  0.3099
  180SAPS  C31520664   0.349  -0.888   4.716 -0.4450 -0.9435 -0.2868
  180SAPS  H15X20665   0.412  -0.972   4.754 -0.2682 -0.0754  1.4591
  180SAPS  H15Y20666   0.271  -0.946   4.662 -0.3452 -0.6488 -0.7503
  180SAPS  C31620667   0.285  -0.816   4.833 -0.1084  0.1893  0.2348
  180SAPS  H16X20668   0.176  -0.836   4.823  0.1675 -1.3184 -0.0580
  180SAPS  H16Y20669   0.303  -0.707   4.822  2.1330 -0.3169 -2.0486
  180SAPS  C31720670   0.331  -0.870   4.965 -0.1310 -0.4178 -0.2788
  180SAPS  H17X20671   0.345  -0.980   4.961  2.4706 -0.3424  2.3997
  180SAPS  H17Y20672   0.266  -0.854   5.054  2.0213  1.6133  1.0581
  180SAPS  C31820673   0.463  -0.813   5.009  0.3968 -0.0552  0.6516
  180SAPS  H18X20674   0.455  -0.702   5.016 -2.2718 -0.0448 -1.2366
  180SAPS  H18Y20675   0.537  -0.839   4.930  0.3804 -0.9586  0.9290
  180SAPS  H18Z20676   0.503  -0.859   5.102  1.7710 -0.4174 -0.0876
  181POPC     N20677   6.450   2.579   6.531  0.1335  0.2638 -0.4075
  181POPC   C1220678   6.441   2.486   6.649  0.0778 -0.5335 -0.9408
  181POPC  H12A20679   6.533   2.432   6.669  0.2303  0.7145  2.5217
  181POPC  H12B20680   6.361   2.414   6.648 -1.1429  0.6156  2.1688
  181POPC   C1320681   6.461   2.501   6.409  0.2526 -0.0727 -0.8318
  181POPC  H13A20682   6.537   2.424   6.413  0.3082  0.0234  1.1339
  181POPC  H13B20683   6.371   2.444   6.390 -0.9392  0.7351  1.8741
  181POPC  H13C20684   6.473   2.563   6.322 -0.0509  1.0368 -0.1014
  181POPC   C1420685   6.329   2.667   6.519  0.4348 -0.5911 -0.9500
  181POPC  H14A20686   6.313   2.727   6.607 -2.9268 -0.1680 -1.7408
  181POPC  H14B20687   6.333   2.739   6.438  1.1967  0.1299 -0.2972
  181POPC  H14C20688   6.240   2.609   6.502  0.4627 -1.0274  0.3216
  181POPC   C1520689   6.571   2.669   6.555 -0.2281  0.6240 -0.1750
  181POPC  H15A20690   6.664   2.614   6.544 -0.4525  0.3799 -0.8534
  181POPC  H15B20691   6.561   2.696   6.659  1.8260  1.1309 -0.0665
  181POPC  H15C20692   6.571   2.751   6.485 -0.2642 -1.2880 -2.5581
  181POPC   C1120693   6.416   2.559   6.790 -0.4983  0.4631  1.0874
  181POPC  H11A20694   6.384   2.478   6.859  0.2679 -0.4519  0.3956
  181POPC  H11B20695   6.328   2.625   6.778 -0.4542  0.2453 -0.6617
  181POPC     P20696   6.641   2.579   6.934  1.0749  0.0292  0.2996
  181POPC   O1320697   6.573   2.514   7.043  0.9113 -0.2003  0.2406
  181POPC   O1420698   6.740   2.685   6.955 -0.2969 -0.1471  0.5752
  181POPC   O1220699   6.523   2.635   6.843  0.1106 -0.0382  0.4635
  181POPC   O1120700   6.698   2.468   6.846 -0.4997 -0.0443  0.6086
  181POPC    C120701   6.830   2.418   6.850  0.4670  0.0594  0.0435
  181POPC    HA20702   6.836   2.340   6.928  1.1458  1.5711  1.5703
  181POPC    HB20703   6.902   2.499   6.876 -0.8454  2.1142 -2.2980
  181POPC    C220704   6.865   2.379   6.709 -0.3590 -0.1238 -0.0186
  181POPC    HS20705   6.837   2.467   6.648  0.6118  0.2011 -0.0010
  181POPC   O2120706   6.788   2.266   6.670  0.8012 -0.0758 -0.2664
  181POPC   C2120707   6.739   2.265   6.546  0.0457  0.0232  0.7188
  181POPC   O2220708   6.764   2.354   6.461  0.6225  0.7486 -0.5886
  181POPC   C2220709   6.641   2.146   6.526 -0.0835 -0.4194 -1.2266
  181POPC   H2R20710   6.545   2.167   6.578 -0.0162  0.4126 -1.4389
  181POPC   H2S20711   6.697   2.063   6.575 -0.8723 -0.2766 -0.0402
  181POPC    C320712   7.008   2.355   6.710 -0.6619  0.3805 -0.8733
  181POPC    HX20713   7.031   2.261   6.765  0.0589  0.9800 -0.1103
  181POPC    HY20714   7.059   2.437   6.765  0.4645 -0.9945  0.1989
  181POPC   O3120715   7.060   2.327   6.579 -0.5571  1.0140 -0.3214
  181POPC   C3120716   7.153   2.412   6.527 -0.4469  0.1307 -0.2612
  181POPC   O3220717   7.180   2.523   6.569 -0.5984  0.2793  0.0091
  181POPC   C3220718   7.213   2.347   6.404 -0.1263 -0.5635 -0.5802
  181POPC   H2X20719   7.214   2.432   6.333  0.4031  1.4290  1.6584
  181POPC   H2Y20720   7.152   2.263   6.365  0.0143 -1.6259  1.3342
  181POPC   C2320721   6.628   2.119   6.369 -0.3731  0.1202  0.1914
  181POPC   H3R20722   6.599   2.210   6.312  1.0123 -0.0863 -0.9152
  181POPC   H3S20723   6.544   2.050   6.346 -0.8816  0.8626 -0.2047
  181POPC   C2420724   6.752   2.064   6.315  0.0813 -0.0553 -0.4689
  181POPC   H4R20725   6.811   1.992   6.376 -0.1285 -1.4082 -1.8013
  181POPC   H4S20726   6.823   2.146   6.291  0.8213 -0.0634  1.4981
  181POPC   C2520727   6.727   1.987   6.189  0.6883 -0.5134  0.1753
  181POPC   H5R20728   6.680   2.043   6.105  0.7566 -0.9140 -0.1335
  181POPC   H5S20729   6.662   1.902   6.218  1.4182 -0.8355  0.9196
  181POPC   C2620730   6.862   1.934   6.136  0.2558 -0.2556 -0.7722
  181POPC   H6R20731   6.912   1.898   6.228  0.0550 -1.4314 -1.1070
  181POPC   H6S20732   6.924   2.019   6.100  0.2039 -0.4554 -1.3552
  181POPC   C2720733   6.848   1.832   6.022  0.4278  0.3336 -0.1790
  181POPC   H7R20734   6.743   1.798   6.023  0.7923 -0.9622  2.4381
  181POPC   H7S20735   6.914   1.742   6.022  1.0888  0.8063 -0.5877
  181POPC   C2820736   6.886   1.905   5.889  0.0886 -0.0859  0.0449
  181POPC   H8R20737   6.996   1.919   5.881  0.4186 -0.6203  2.8195
  181POPC   H8S20738   6.836   2.004   5.899 -1.3700 -0.9982  2.6620
  181POPC   C2920739   6.840   1.815   5.772  0.4372  0.2322  0.6744
  181POPC   H9120740   6.740   1.769   5.785  1.2607 -1.5604  0.9261
  181POPC  C21020741   6.916   1.771   5.673 -0.3080  0.1860  0.3029
  181POPC  H10120742   6.879   1.699   5.599 -0.8907  1.4868 -0.7199
  181POPC  C21120743   7.064   1.785   5.646  0.2817  0.0947  0.2680
  181POPC  H11R20744   7.098   1.683   5.619  0.1143  0.2305 -0.4769
  181POPC  H11S20745   7.122   1.812   5.737  2.8741  1.2019 -1.5978
  181POPC  C21220746   7.095   1.898   5.548  0.0385  0.6641  0.4921
  181POPC  H12R20747   7.205   1.905   5.538 -0.1737  1.2905 -2.1913
  181POPC  H12S20748   7.073   1.995   5.597 -2.3204  0.0780  0.7368
  181POPC  C21320749   7.039   1.879   5.412  0.4609 -0.3019  0.4305
  181POPC  H13R20750   7.070   1.966   5.351  0.9835 -0.5708  0.3124
  181POPC  H13S20751   6.928   1.878   5.415  0.3779 -1.2961 -1.3504
  181POPC  C21420752   7.088   1.758   5.333  0.1718  0.2599  0.1701
  181POPC  H14R20753   7.075   1.668   5.397  1.8184  0.0030  0.1880
  181POPC  H14S20754   7.199   1.755   5.327  0.0557 -0.7206 -2.6025
  181POPC  C21520755   7.023   1.735   5.198 -0.8612  0.8494  1.1608
  181POPC  H15R20756   7.041   1.817   5.126  0.4094 -0.7973 -0.5055
  181POPC  H15S20757   6.913   1.724   5.204 -0.8927 -0.1316 -0.5456
  181POPC  C21620758   7.065   1.595   5.129  0.3370  0.4233  0.0694
  181POPC  H16R20759   7.016   1.523   5.199 -1.6090  0.7794 -0.8474
  181POPC  H16S20760   7.174   1.579   5.118 -0.1242 -2.5763 -1.2173
  181POPC  C21720761   7.016   1.568   4.986 -0.5823 -0.9341  0.0747
  181POPC  H17R20762   6.910   1.600   4.977 -0.1513  0.0522 -2.4440
  181POPC  H17S20763   7.020   1.457   4.974  2.0183 -1.0665  1.3602
  181POPC  C21820764   7.105   1.628   4.875 -0.9065 -0.9646  0.3111
  181POPC  H18R20765   7.211   1.595   4.883  0.0506  2.1806  2.7089
  181POPC  H18S20766   7.116   1.738   4.881 -0.7410 -1.0122  1.0032
  181POPC  H18T20767   7.060   1.588   4.782  0.3188 -0.4448 -0.5241
  181POPC   C3320768   7.354   2.304   6.430 -0.2525  0.1151  0.2632
  181POPC   H3X20769   7.357   2.241   6.521 -3.4531 -0.6149 -0.0145
  181POPC   H3Y20770   7.413   2.388   6.472  0.8010 -0.4237 -0.1075
  181POPC   C3420771   7.426   2.244   6.307 -0.2614  0.4678 -0.5339
  181POPC   H4X20772   7.375   2.150   6.276 -3.0885  1.4510  0.7612
  181POPC   H4Y20773   7.532   2.220   6.331  0.1331  1.1504 -1.5274
  181POPC   C3520774   7.419   2.332   6.184 -0.1718 -0.2161  1.0997
  181POPC   H5X20775   7.471   2.427   6.210  0.4134  0.7939 -3.0583
  181POPC   H5Y20776   7.311   2.348   6.162 -0.3164 -1.1219  1.1001
  181POPC   C3620777   7.495   2.278   6.057 -0.1262  0.0948 -0.8182
  181POPC   H6X20778   7.458   2.185   6.009 -0.6967 -0.7591  1.1972
  181POPC   H6Y20779   7.602   2.252   6.075 -0.1673  0.2788 -0.2987
  181POPC   C3720780   7.495   2.399   5.957  0.4958  0.8408  0.5174
  181POPC   H7X20781   7.543   2.488   6.002 -1.9542  2.3545  0.3276
  181POPC   H7Y20782   7.389   2.429   5.939  0.2023  1.0056  2.3472
  181POPC   C3820783   7.556   2.373   5.819  0.3228  0.2147  0.6787
  181POPC   H8X20784   7.664   2.349   5.824  0.9039  1.9058 -1.8005
  181POPC   H8Y20785   7.552   2.472   5.768 -0.1958  0.7592  1.7545
  181POPC   C3920786   7.478   2.275   5.734  0.1696  0.1494  0.3944
  181POPC   H9X20787   7.369   2.299   5.735 -0.4648 -2.4156  0.1387
  181POPC   H9Y20788   7.476   2.171   5.773 -2.5195 -0.5648 -1.3287
  181POPC  C31020789   7.525   2.297   5.590 -0.0892 -0.0103  0.2476
  181POPC  H10X20790   7.627   2.258   5.575  0.0952  0.8564 -0.8787
  181POPC  H10Y20791   7.530   2.404   5.559  2.9775 -0.0559  0.3398
  181POPC  C31120792   7.433   2.235   5.488  0.0880 -0.0422  0.3788
  181POPC  H11X20793   7.326   2.260   5.507  0.2140  0.7797  0.0327
  181POPC  H11Y20794   7.425   2.124   5.490 -0.5625 -0.0549 -1.1518
  181POPC  C31220795   7.468   2.284   5.345 -0.4219  0.5753  0.9320
  181POPC  H12X20796   7.536   2.226   5.279 -2.9672  0.1191 -1.4708
  181POPC  H12Y20797   7.515   2.384   5.354  2.4445 -0.4871 -0.7094
  181POPC  C31320798   7.336   2.304   5.270 -1.1715 -0.3917  0.3482
  181POPC  H13X20799   7.280   2.382   5.325 -0.4663 -0.2915  0.9361
  181POPC  H13Y20800   7.273   2.213   5.265 -2.4677  0.3472  2.3877
  181POPC  C31420801   7.348   2.356   5.126 -0.4549 -0.4726 -0.5157
  181POPC  H14X20802   7.407   2.281   5.070 -0.6215 -1.8494  1.0760
  181POPC  H14Y20803   7.404   2.452   5.125  1.2182 -1.4229 -0.9345
  181POPC  C31520804   7.210   2.357   5.053 -0.1662  0.0446  0.4738
  181POPC  H15X20805   7.141   2.425   5.107  0.6344 -0.7654  2.6285
  181POPC  H15Y20806   7.174   2.252   5.059  0.7803 -0.3101  0.1503
  181POPC  C31620807   7.219   2.404   4.907 -0.7939  0.2937 -0.5590
  181POPC  H16X20808   7.219   2.515   4.902  1.8103  0.4390  1.0731
  181POPC  H16Y20809   7.131   2.361   4.855 -1.8416 -0.8181  1.9781
  181POPC  H16Z20810   7.311   2.359   4.865  0.2967 -0.5085  2.4355
  182POPC     N20811   4.681   1.176   6.861 -0.4132 -0.5058  0.3980
  182POPC   C1220812   4.551   1.202   6.926  0.8770  0.8278 -0.4476
  182POPC  H12A20813   4.487   1.249   6.853  0.7782  2.1063  0.4262
  182POPC  H12B20814   4.569   1.283   6.996 -0.4141  1.0428 -0.3259
  182POPC   C1320815   4.671   1.078   6.756  0.0155 -0.4715 -0.1097
  182POPC  H13A20816   4.757   1.084   6.691  0.2048  0.3436  0.2036
  182POPC  H13B20817   4.670   0.980   6.799  2.0052  0.0897  1.3532
  182POPC  H13C20818   4.577   1.093   6.704  1.0100 -1.2487 -2.2393
  182POPC   C1420819   4.733   1.305   6.803  0.1790 -0.3840 -0.2381
  182POPC  H14A20820   4.670   1.331   6.719  2.3110  2.4035 -1.1222
  182POPC  H14B20821   4.723   1.389   6.870  0.9498 -0.5528  0.0990
  182POPC  H14C20822   4.836   1.303   6.772  0.5629  2.2408  0.6989
  182POPC   C1520823   4.782   1.123   6.967 -0.2883  0.7809 -0.0017
  182POPC  H15A20824   4.884   1.102   6.940 -0.4118 -0.5760  0.5005
  182POPC  H15B20825   4.743   1.033   7.011 -0.2357  0.8278  0.1394
  182POPC  H15C20826   4.789   1.197   7.045 -1.9490  1.6885 -0.6464
  182POPC   C1120827   4.473   1.085   6.998  0.5820 -0.1752 -0.5810
  182POPC  H11A20828   4.386   1.130   7.050  0.5864  1.8357 -2.2101
  182POPC  H11B20829   4.530   1.041   7.083 -0.4970 -1.2247 -0.3734
  182POPC     P20830   4.297   0.995   6.809 -0.2332 -0.1262  0.0731
  182POPC   O1320831   4.306   1.129   6.740 -0.1861  0.3368 -0.3117
  182POPC   O1420832   4.174   0.964   6.884 -0.3489 -0.1906  0.1962
  182POPC   O1220833   4.426   0.978   6.908  0.1891 -0.1696  0.7915
  182POPC   O1120834   4.316   0.881   6.706 -0.1138 -0.1642 -0.2533
  182POPC    C120835   4.433   0.813   6.669 -0.0232  0.0544 -0.1219
  182POPC    HA20836   4.400   0.708   6.651  1.4508 -0.4949  0.2498
  182POPC    HB20837   4.508   0.810   6.751 -0.4586 -0.5635  0.2661
  182POPC    C220838   4.497   0.865   6.535  1.5406 -0.1203 -0.9170
  182POPC    HS20839   4.508   0.974   6.556 -2.6703  0.0247  1.5412
  182POPC   O2120840   4.415   0.855   6.421  0.5243 -0.3151  0.0274
  182POPC   C2120841   4.392   0.731   6.369  0.4771  0.5068 -0.1326
  182POPC   O2220842   4.435   0.623   6.413 -0.3986 -0.0040 -0.2064
  182POPC   C2220843   4.318   0.751   6.243  0.1719  0.4072 -0.3887
  182POPC   H2R20844   4.252   0.840   6.251 -0.7320 -0.4051  2.4286
  182POPC   H2S20845   4.252   0.662   6.248  0.4792  0.2128  0.3974
  182POPC    C320846   4.641   0.804   6.518  0.0475 -0.4868 -0.2304
  182POPC    HX20847   4.630   0.696   6.539 -0.7237 -0.2798  0.4404
  182POPC    HY20848   4.696   0.855   6.600  0.6359  2.0287 -2.0684
  182POPC   O3120849   4.696   0.818   6.389 -0.3801  0.2191  0.0722
  182POPC   C3120850   4.755   0.936   6.378 -0.6989  0.6238  0.4636
  182POPC   O3220851   4.763   1.023   6.463 -0.7414 -0.0285  0.5569
  182POPC   C3220852   4.818   0.942   6.240 -0.6535 -0.5861  0.5773
  182POPC   H2X20853   4.747   0.984   6.166  0.1876 -1.2485 -0.6511
  182POPC   H2Y20854   4.843   0.838   6.210  1.3784  0.0782 -0.1981
  182POPC   C2320855   4.403   0.774   6.111  0.3933 -0.4864  0.2856
  182POPC   H3R20856   4.447   0.876   6.113 -0.3070 -0.1710 -0.0740
  182POPC   H3S20857   4.344   0.764   6.017  0.1627  1.0747  0.2353
  182POPC   C2420858   4.520   0.671   6.097 -0.5784 -0.4132 -0.1570
  182POPC   H4R20859   4.491   0.572   6.137  1.7136 -0.9545  0.2971
  182POPC   H4S20860   4.604   0.708   6.160 -0.9404 -0.6988  0.5072
  182POPC   C2520861   4.559   0.642   5.953 -0.7667  0.1825  0.2162
  182POPC   H5R20862   4.465   0.623   5.898 -0.4142 -1.7816  0.2252
  182POPC   H5S20863   4.626   0.554   5.943 -1.0717  0.2297 -3.0503
  182POPC   C2620864   4.632   0.764   5.889  0.0052 -0.2522  0.0664
  182POPC   H6R20865   4.740   0.767   5.914 -0.0905 -2.2195  0.8815
  182POPC   H6S20866   4.580   0.855   5.926 -0.4081 -0.7255  0.6627
  182POPC   C2720867   4.630   0.771   5.731  0.0635  0.0464 -0.8553
  182POPC   H7R20868   4.686   0.685   5.691  0.4883 -1.3649  2.4467
  182POPC   H7S20869   4.687   0.860   5.696 -0.0655 -0.1345 -1.5401
  182POPC   C2820870   4.494   0.790   5.682  0.5508 -0.5083  0.0735
  182POPC   H8R20871   4.432   0.857   5.747 -0.3600  1.8296 -2.9637
  182POPC   H8S20872   4.435   0.697   5.691 -1.9018  1.0244  0.9504
  182POPC   C2920873   4.502   0.848   5.546 -0.6631 -0.5828  0.5082
  182POPC   H9120874   4.571   0.933   5.535 -0.1442 -0.9822  0.6166
  182POPC  C21020875   4.419   0.821   5.445  0.4469 -0.3542  0.0798
  182POPC  H10120876   4.434   0.877   5.351 -0.2404  4.5523  2.6053
  182POPC  C21120877   4.313   0.719   5.431  0.0626  0.1000  0.2906
  182POPC  H11R20878   4.315   0.647   5.515  0.3482  0.1039  0.2853
  182POPC  H11S20879   4.333   0.664   5.336  0.8869  0.5907  0.1763
  182POPC  C21220880   4.179   0.790   5.428 -0.7212 -0.4717  0.1285
  182POPC  H12R20881   4.168   0.862   5.512 -2.5911 -0.1302 -0.3719
  182POPC  H12S20882   4.097   0.715   5.435 -0.5611 -0.6994 -0.3880
  182POPC  C21320883   4.152   0.876   5.304 -0.0650 -0.0252 -0.1265
  182POPC  H13R20884   4.160   0.806   5.218  0.2314 -0.3219  0.1371
  182POPC  H13S20885   4.232   0.952   5.298  0.2003 -0.2566  0.3894
  182POPC  C21420886   4.012   0.940   5.307 -0.6967  0.7866  0.5215
  182POPC  H14R20887   3.984   0.957   5.413  1.4554  1.8982  0.9628
  182POPC  H14S20888   3.937   0.868   5.270  0.4269 -0.6356  0.9356
  182POPC  C21520889   3.999   1.076   5.234 -0.3714 -0.5160 -0.2704
  182POPC  H15R20890   4.074   1.144   5.279 -1.3269 -0.3687  1.1664
  182POPC  H15S20891   3.903   1.119   5.270 -0.6266 -0.9604 -0.4107
  182POPC  C21620892   4.011   1.075   5.086 -0.1190  0.3310  0.0685
  182POPC  H16R20893   3.947   0.988   5.062 -1.3669  1.3698 -0.5116
  182POPC  H16S20894   4.108   1.050   5.038 -0.5692  2.5183 -2.2038
  182POPC  C21720895   3.957   1.202   5.017 -0.7468  0.3138 -0.2811
  182POPC  H17R20896   4.036   1.280   5.025 -0.3804 -0.1050  0.2157
  182POPC  H17S20897   3.866   1.242   5.066  0.1304  1.1658  0.7121
  182POPC  C21820898   3.936   1.174   4.875  0.0910  0.7312  0.3427
  182POPC  H18R20899   3.892   1.263   4.824 -2.4225 -2.3756 -3.4397
  182POPC  H18S20900   3.864   1.093   4.854  0.6542  0.4121 -0.3934
  182POPC  H18T20901   4.037   1.147   4.837  0.4658 -1.2190  2.5180
  182POPC   C3320902   4.951   1.024   6.236 -0.1076  0.3234 -0.0291
  182POPC   H3X20903   5.031   0.978   6.298  0.2119  0.6130 -0.2234
  182POPC   H3Y20904   4.941   1.132   6.262 -1.2424  0.4297 -0.8094
  182POPC   C3420905   5.008   1.020   6.087  0.2364  0.0690  0.1974
  182POPC   H4X20906   5.024   0.912   6.065 -1.9434 -0.3673  0.5781
  182POPC   H4Y20907   5.104   1.075   6.086 -0.8373  2.0090  0.3303
  182POPC   C3520908   4.918   1.084   5.988  0.6274 -0.4086 -0.6877
  182POPC   H5X20909   4.878   1.183   6.020  0.3090 -0.7199 -0.0764
  182POPC   H5Y20910   4.824   1.027   5.971 -0.4893  0.4817  1.9529
  182POPC   C3620911   4.982   1.093   5.846 -0.6269  0.2039 -1.0631
  182POPC   H6X20912   5.068   1.163   5.848  0.0307 -0.5807  1.7313
  182POPC   H6Y20913   4.911   1.141   5.775 -1.2621 -1.4340 -1.5813
  182POPC   C3720914   5.035   0.958   5.795  0.4555 -0.3213 -0.2384
  182POPC   H7X20915   4.940   0.901   5.780  0.8832 -0.7715 -1.3300
  182POPC   H7Y20916   5.094   0.906   5.873 -0.9249 -2.6560 -0.6320
  182POPC   C3820917   5.121   0.982   5.669  0.2527 -0.0103  0.0211
  182POPC   H8X20918   5.171   0.890   5.632 -1.6148 -0.7551 -0.8030
  182POPC   H8Y20919   5.201   1.056   5.691 -0.3757  1.2258 -1.6753
  182POPC   C3920920   5.045   1.042   5.551 -0.5496  0.5399 -0.1560
  182POPC   H9X20921   5.106   1.055   5.459 -1.1406 -1.4548 -0.8791
  182POPC   H9Y20922   4.990   1.138   5.566 -1.4139  0.5239 -2.7092
  182POPC  C31020923   4.934   0.945   5.507  0.9304  0.0682 -0.7037
  182POPC  H10X20924   4.853   0.935   5.582  0.6534  1.3343 -0.8017
  182POPC  H10Y20925   4.989   0.850   5.493  0.6214 -0.5320  1.7755
  182POPC  C31120926   4.864   0.995   5.379  0.4651 -0.3389 -0.3129
  182POPC  H11X20927   4.938   1.049   5.317 -0.5156  1.9289  0.3677
  182POPC  H11Y20928   4.794   1.071   5.421  1.9059  1.0717 -0.3582
  182POPC  C31220929   4.794   0.886   5.290 -0.0829  0.8639  0.2344
  182POPC  H12X20930   4.716   0.830   5.344  0.7350  0.5373  1.1062
  182POPC  H12Y20931   4.874   0.823   5.246 -1.1106  0.2577 -0.8320
  182POPC  C31320932   4.706   0.948   5.176  0.0095 -0.0159  0.1743
  182POPC  H13X20933   4.765   1.021   5.117  1.0224 -1.4296 -0.6402
  182POPC  H13Y20934   4.619   1.003   5.218 -0.9667 -1.7132  0.4565
  182POPC  C31420935   4.658   0.839   5.079 -0.3652 -0.1920  0.0131
  182POPC  H14X20936   4.593   0.771   5.138 -0.7329 -0.2868 -0.5071
  182POPC  H14Y20937   4.738   0.778   5.033 -0.5508 -0.5765  0.1983
  182POPC  C31520938   4.575   0.896   4.968 -0.2637  0.1130  0.5519
  182POPC  H15X20939   4.588   0.828   4.881  2.7081  1.1576  0.0612
  182POPC  H15Y20940   4.615   0.996   4.939 -0.2684  0.2248  0.9307
  182POPC  C31620941   4.431   0.903   5.012 -0.0372 -0.0558 -0.8377
  182POPC  H16X20942   4.426   0.974   5.098 -2.1411 -0.0974 -0.8565
  182POPC  H16Y20943   4.384   0.805   5.034  1.5019 -1.0223 -1.7136
  182POPC  H16Z20944   4.360   0.948   4.939  0.4712  0.9469 -0.7286
  183POPC     N20945   6.729   0.180   6.676 -0.2219  0.5213 -0.2699
  183POPC   C1220946   6.863   0.247   6.653 -0.1952 -0.8881  0.3549
  183POPC  H12A20947   6.927   0.175   6.604 -2.8877 -2.2349 -1.3988
  183POPC  H12B20948   6.896   0.284   6.749 -1.7003  0.3033  0.4525
  183POPC   C1320949   6.679   0.115   6.550 -0.3560  0.1959  0.8269
  183POPC  H13A20950   6.583   0.069   6.570  1.4735 -3.4104  2.3227
  183POPC  H13B20951   6.665   0.195   6.479 -0.1113 -0.6675 -0.2310
  183POPC  H13C20952   6.751   0.045   6.509  0.2911  1.2154  0.1928
  183POPC   C1420953   6.739   0.071   6.783  0.4916  0.4472 -0.2753
  183POPC  H14A20954   6.804  -0.012   6.758  0.0957  0.5417 -1.7023
  183POPC  H14B20955   6.758   0.110   6.882 -0.8617 -1.3161  0.7443
  183POPC  H14C20956   6.647   0.016   6.778  1.4550 -1.2224 -0.6635
  183POPC   C1520957   6.636   0.281   6.729  0.3967  0.7275 -0.7791
  183POPC  H15A20958   6.677   0.308   6.826  2.6289 -0.9231 -1.1759
  183POPC  H15B20959   6.543   0.229   6.747  0.9476  0.1964  0.7952
  183POPC  H15C20960   6.628   0.367   6.664 -0.1054 -0.7273 -2.7216
  183POPC   C1120961   6.867   0.365   6.554  0.4285  0.2175  0.7725
  183POPC  H11A20962   6.831   0.321   6.459  0.0811 -0.0392  1.0240
  183POPC  H11B20963   6.969   0.393   6.518 -0.0727  0.0165 -0.8797
  183POPC     P20964   6.712   0.568   6.514  0.1252  0.1867 -0.1949
  183POPC   O1320965   6.724   0.698   6.579 -0.2209 -0.4295  0.0735
  183POPC   O1420966   6.578   0.516   6.486  0.3216  0.2535 -0.4773
  183POPC   O1220967   6.797   0.474   6.602 -0.1249 -0.4599  0.1104
  183POPC   O1120968   6.789   0.573   6.376  0.4391  0.4663  0.6750
  183POPC    C120969   6.924   0.621   6.368 -1.4829 -0.1927  0.2510
  183POPC    HA20970   6.969   0.560   6.287 -0.0426  0.5759  0.4448
  183POPC    HB20971   6.990   0.597   6.454 -1.9381 -0.2983  0.5743
  183POPC    C220972   6.922   0.776   6.328  0.1520  0.2592  0.0582
  183POPC    HS20973   6.867   0.815   6.416 -2.4017  0.1727 -1.4095
  183POPC   O2120974   6.842   0.799   6.209 -0.1757  1.0480  0.3284
  183POPC   C2120975   6.794   0.921   6.181 -0.0537 -0.4870  0.3090
  183POPC   O2220976   6.829   1.024   6.241  0.3481  0.1466 -0.6117
  183POPC   C2220977   6.701   0.924   6.067  0.1200  0.1686  0.0488
  183POPC   H2R20978   6.693   0.820   6.030 -0.6196  0.4373 -0.5668
  183POPC   H2S20979   6.739   0.993   5.990  2.4380 -0.5673  0.4622
  183POPC    C320980   7.061   0.838   6.315 -0.1424 -0.0990  0.4131
  183POPC    HX20981   7.106   0.860   6.414  0.6414  0.4321 -0.0611
  183POPC    HY20982   7.048   0.937   6.268  1.2509 -0.3047 -0.4549
  183POPC   O3120983   7.145   0.766   6.225  0.1987 -0.0852  0.2029
  183POPC   C3120984   7.234   0.677   6.271  0.1665 -0.1614 -0.6134
  183POPC   O3220985   7.257   0.665   6.394 -0.1871  0.1654  0.1034
  183POPC   C3220986   7.291   0.583   6.164 -0.3943 -0.3634  0.0361
  183POPC   H2X20987   7.339   0.664   6.105  1.2230 -0.5622  1.0055
  183POPC   H2Y20988   7.221   0.524   6.102 -0.1142  1.0853 -1.7661
  183POPC   C2320989   6.561   0.965   6.110  0.5640  0.5034  0.1012
  183POPC   H3R20990   6.501   0.954   6.018  2.1744 -2.4676 -0.7325
  183POPC   H3S20991   6.567   1.072   6.138  2.1618  0.0697  1.6142
  183POPC   C2420992   6.499   0.876   6.219 -0.2324 -0.5042  0.2215
  183POPC   H4R20993   6.420   0.941   6.264  1.0591  1.1226  0.2587
  183POPC   H4S20994   6.573   0.856   6.299 -0.3312 -1.0334  0.1800
  183POPC   C2520995   6.443   0.736   6.170  0.1991 -0.2844  0.2177
  183POPC   H5R20996   6.400   0.684   6.259 -1.5147  0.1693 -0.3047
  183POPC   H5S20997   6.530   0.675   6.140 -0.1414  0.2507 -2.0459
  183POPC   C2620998   6.332   0.736   6.058 -0.0191  0.1528 -0.2485
  183POPC   H6R20999   6.300   0.634   6.028 -1.0196  0.4656 -0.3107
  183POPC   H6S21000   6.382   0.777   5.968  0.9589 -1.1867 -0.3224
  183POPC   C2721001   6.212   0.816   6.107  0.5866 -0.2631  0.5014
  183POPC   H7R21002   6.227   0.912   6.161 -1.9564  1.5484 -1.6793
  183POPC   H7S21003   6.165   0.745   6.178  1.9012 -0.6981  0.9638
  183POPC   C2821004   6.102   0.848   6.001  0.2639 -0.1890 -0.7974
  183POPC   H8R21005   6.009   0.885   6.051  1.2916  2.6736 -0.8335
  183POPC   H8S21006   6.077   0.750   5.955  2.7727 -1.4556  0.3503
  183POPC   C2921007   6.149   0.966   5.918 -0.5287  0.5141 -0.6220
  183POPC   H9121008   6.207   1.041   5.973 -0.4583 -0.0441  0.0821
  183POPC  C21021009   6.139   0.981   5.784 -0.2809  0.9143 -0.5619
  183POPC  H10121010   6.191   1.065   5.738 -0.4883  2.2957  1.5955
  183POPC  C21121011   6.074   0.890   5.689  0.0065 -0.3603  0.4367
  183POPC  H11R21012   5.992   0.829   5.734 -1.7677  1.7523  0.2204
  183POPC  H11S21013   6.146   0.823   5.636 -1.7348 -1.2951 -0.8394
  183POPC  C21221014   5.993   0.969   5.584 -0.4971  0.2703 -0.0359
  183POPC  H12R21015   6.050   1.041   5.522  2.5030 -0.8159  1.2282
  183POPC  H12S21016   5.916   1.018   5.647 -0.3376  1.9666 -1.1134
  183POPC  C21321017   5.934   0.879   5.481  0.0774  0.2914  0.4278
  183POPC  H13R21018   5.851   0.936   5.433 -0.4263 -0.9190 -0.1691
  183POPC  H13S21019   5.902   0.785   5.530  0.8898  0.4278  1.2367
  183POPC  C21421020   6.041   0.841   5.373 -0.3572  0.9580 -0.1627
  183POPC  H14R21021   6.085   0.746   5.409 -2.2916  0.3699  0.8248
  183POPC  H14S21022   6.122   0.916   5.368  0.3618  0.2354  0.4892
  183POPC  C21521023   5.981   0.827   5.237 -0.4574  0.0326  0.4936
  183POPC  H15R21024   5.944   0.926   5.203  1.3235 -0.1218 -2.1887
  183POPC  H15S21025   5.888   0.766   5.241 -1.2711  1.2055 -0.1234
  183POPC  C21621026   6.090   0.775   5.140 -0.0647  0.0926  1.1349
  183POPC  H16R21027   6.126   0.678   5.182 -0.4400 -1.2786 -1.4985
  183POPC  H16S21028   6.178   0.842   5.151  1.4960 -1.5128 -0.8285
  183POPC  C21721029   6.050   0.754   4.995  0.2954  0.1578  0.7189
  183POPC  H17R21030   5.983   0.671   4.965  0.6429  0.5491 -1.3066
  183POPC  H17S21031   6.145   0.730   4.943 -0.3438 -0.1081 -0.3576
  183POPC  C21821032   5.994   0.875   4.933  0.2899  0.1167 -0.0377
  183POPC  H18R21033   5.987   0.886   4.823  1.1310  1.0509 -0.0095
  183POPC  H18S21034   6.054   0.964   4.961 -0.4388 -0.1931  2.9029
  183POPC  H18T21035   5.899   0.898   4.985  1.1595  2.9748  0.4874
  183POPC   C3321036   7.413   0.489   6.211  0.4953 -0.3701  0.1456
  183POPC   H3X21037   7.374   0.432   6.298 -1.3527 -0.9925 -1.0229
  183POPC   H3Y21038   7.499   0.554   6.239 -2.5768  3.4059  1.7728
  183POPC   C3421039   7.466   0.400   6.092 -0.4746  0.2135  0.2132
  183POPC   H4X21040   7.390   0.377   6.013 -0.1593 -1.3145  0.3181
  183POPC   H4Y21041   7.498   0.305   6.138  0.7834 -0.6474 -2.2516
  183POPC   C3521042   7.592   0.451   6.009 -0.5356  0.5800 -0.4604
  183POPC   H5X21043   7.605   0.384   5.921  2.1807  1.5943 -0.9284
  183POPC   H5Y21044   7.682   0.448   6.074 -0.8628 -2.2843 -0.0290
  183POPC   C3621045   7.570   0.594   5.952 -0.1533 -0.0203 -0.1547
  183POPC   H6X21046   7.570   0.662   6.039 -0.2275 -0.4466  0.1805
  183POPC   H6Y21047   7.469   0.609   5.908 -1.6082  1.4957  3.3565
  183POPC   C3721048   7.672   0.632   5.844 -0.8026 -0.1632  0.7170
  183POPC   H7X21049   7.764   0.575   5.866  0.6502  2.1326  0.9977
  183POPC   H7Y21050   7.702   0.739   5.840 -1.4562 -0.0132 -1.0085
  183POPC   C3821051   7.634   0.575   5.707  0.0468 -0.5219 -0.4729
  183POPC   H8X21052   7.596   0.471   5.713  0.2289 -0.7114 -2.0338
  183POPC   H8Y21053   7.720   0.569   5.636  1.8054 -1.0563  1.5999
  183POPC   C3921054   7.511   0.649   5.650 -0.2004 -0.7582 -0.4238
  183POPC   H9X21055   7.529   0.759   5.652 -0.9876 -0.6064 -1.1307
  183POPC   H9Y21056   7.419   0.630   5.710  0.0295 -0.2646  0.1011
  183POPC  C31021057   7.471   0.623   5.504  0.3849  0.1201  0.0763
  183POPC  H10X21058   7.402   0.536   5.506 -0.6338  0.8705 -1.5433
  183POPC  H10Y21059   7.564   0.582   5.460  0.1797 -1.2681  0.8710
  183POPC  C31121060   7.424   0.735   5.422 -0.2900  0.3410 -0.3036
  183POPC  H11X21061   7.482   0.829   5.434 -2.1852  1.6888 -1.1971
  183POPC  H11Y21062   7.327   0.755   5.472 -0.6781  0.8020 -1.2098
  183POPC  C31221063   7.405   0.701   5.274 -0.0245  0.0808 -0.0923
  183POPC  H12X21064   7.496   0.647   5.241 -0.3255 -1.6615  1.7033
  183POPC  H12Y21065   7.389   0.797   5.220  0.8545 -0.1672 -0.8190
  183POPC  C31321066   7.272   0.620   5.248 -0.3883 -0.5364 -0.1853
  183POPC  H13X21067   7.195   0.685   5.295  0.6216 -1.0445  2.3070
  183POPC  H13Y21068   7.263   0.527   5.307 -1.2388  0.3513  1.1307
  183POPC  C31421069   7.233   0.609   5.101 -0.1798  0.1365 -0.3146
  183POPC  H14X21070   7.264   0.707   5.058 -1.3536  1.3823  1.5418
  183POPC  H14Y21071   7.123   0.599   5.095 -0.0708 -0.6475 -1.3048
  183POPC  C31521072   7.294   0.489   5.023  0.1287  0.3472 -0.5054
  183POPC  H15X21073   7.227   0.489   4.934  0.4363  2.6594 -0.7992
  183POPC  H15Y21074   7.296   0.391   5.075  0.8735  2.4311  3.8123
  183POPC  C31621075   7.436   0.502   4.962  0.1370 -0.1045  0.2914
  183POPC  H16X21076   7.452   0.598   4.908  0.3219  0.3246  1.1009
  183POPC  H16Y21077   7.441   0.411   4.900  2.5158 -1.4604  2.3128
  183POPC  H16Z21078   7.517   0.494   5.038 -0.4226  1.8320  1.1721
  184POPC     N21079   0.192   0.797   6.898 -0.0033 -0.0640 -0.6092
  184POPC   C1221080   0.076   0.716   6.839  0.0605 -0.0290  0.2002
  184POPC  H12A21081  -0.001   0.784   6.807  0.3568 -0.1453 -0.7860
  184POPC  H12B21082   0.033   0.675   6.929 -1.2213 -1.0520 -0.8396
  184POPC   C1321083   0.271   0.865   6.797 -0.4930 -0.3148  0.4815
  184POPC  H13A21084   0.350   0.923   6.843  1.5798 -2.5418 -0.0061
  184POPC  H13B21085   0.326   0.797   6.733  1.3603  1.2051  0.3763
  184POPC  H13C21086   0.209   0.930   6.738 -0.4547 -1.0948 -0.4436
  184POPC   C1421087   0.128   0.891   6.991  0.0740  0.5550  0.2681
  184POPC  H14A21088   0.201   0.960   7.032  0.7722 -0.0688  0.0895
  184POPC  H14B21089   0.066   0.960   6.935  0.4018  0.9403  0.3744
  184POPC  H14C21090   0.071   0.839   7.066 -0.3945  0.3088 -0.2559
  184POPC   C1521091   0.282   0.703   6.978  0.0239 -0.5304  0.7898
  184POPC  H15A21092   0.361   0.759   7.027 -0.2896  0.4807  0.1648
  184POPC  H15B21093   0.318   0.630   6.906  1.5417  0.3880  0.5793
  184POPC  H15C21094   0.220   0.657   7.053 -0.4217 -0.9084  0.2042
  184POPC   C1121095   0.106   0.609   6.729  0.7746 -0.7001  0.4164
  184POPC  H11A21096   0.134   0.660   6.635 -0.2440 -1.2290 -0.1898
  184POPC  H11B21097   0.008   0.563   6.704 -0.7281  1.5040  1.8425
  184POPC     P21098   0.152   0.375   6.843 -0.6977  0.6164  0.2573
  184POPC   O1321099   0.016   0.388   6.898 -0.2441  0.0720 -0.5943
  184POPC   O1421100   0.256   0.340   6.942 -0.3342 -0.4550  0.2085
  184POPC   O1221101   0.203   0.512   6.766 -0.7012  0.3999  0.5227
  184POPC   O1121102   0.153   0.278   6.725  0.6506  0.0579  0.4982
  184POPC    C121103   0.280   0.236   6.659 -0.5217  0.3194 -0.7249
  184POPC    HA21104   0.353   0.222   6.741 -1.9417 -0.8457  0.4118
  184POPC    HB21105   0.307   0.317   6.589 -0.4095 -0.5147 -1.6767
  184POPC    C221106   0.269   0.083   6.606  0.2040  0.3711  0.1924
  184POPC    HS21107   0.364   0.031   6.578  0.3403  1.0474 -0.6112
  184POPC   O2121108   0.173   0.075   6.498 -0.2531  0.4881  0.2553
  184POPC   C2121109   0.215   0.133   6.383  0.4944 -0.0793 -0.9382
  184POPC   O2221110   0.323   0.180   6.363  0.3350 -0.4631 -0.0680
  184POPC   C2221111   0.093   0.118   6.281  0.2543 -0.6417 -0.1844
  184POPC   H2R21112   0.018   0.194   6.310 -2.1237 -2.2853 -1.7483
  184POPC   H2S21113   0.052   0.015   6.289  0.5688 -0.8287 -0.9534
  184POPC    C321114   0.222  -0.021   6.718 -0.2329 -0.0978 -0.2041
  184POPC    HX21115   0.130   0.022   6.763  0.0743 -0.8608  1.2083
  184POPC    HY21116   0.289  -0.024   6.806  0.7558  1.2262 -0.8869
  184POPC   O3121117   0.200  -0.155   6.666 -0.1299  0.4933 -0.5015
  184POPC   C3121118   0.269  -0.250   6.716 -0.4794  0.1300 -0.0458
  184POPC   O3221119   0.373  -0.248   6.782  0.3149 -0.2301  0.0874
  184POPC   C3221120   0.219  -0.386   6.660  0.3910  0.1262 -0.0760
  184POPC   H2X21121   0.124  -0.374   6.603  1.1461 -1.4975 -1.7885
  184POPC   H2Y21122   0.205  -0.453   6.747  0.6495 -1.2735 -1.0790
  184POPC   C2321123   0.129   0.156   6.137  0.2500  0.3387 -1.0377
  184POPC   H3R21124   0.217   0.092   6.115 -0.2797 -0.4717 -0.8488
  184POPC   H3S21125   0.168   0.259   6.137  1.7031 -0.1911 -1.3734
  184POPC   C2421126   0.020   0.144   6.032 -0.2219 -0.2855 -0.0728
  184POPC   H4R21127  -0.064   0.214   6.051 -0.4873 -0.4436 -0.6389
  184POPC   H4S21128  -0.037   0.049   6.042 -0.6064 -0.3391 -2.2672
  184POPC   C2521129   0.071   0.169   5.883  0.5619  0.2643 -0.5637
  184POPC   H5R21130  -0.003   0.122   5.814  0.0112  2.7985 -1.8209
  184POPC   H5S21131   0.159   0.101   5.875 -1.2181 -2.7976  2.8445
  184POPC   C2621132   0.099   0.314   5.844  0.1060 -0.0584  0.2477
  184POPC   H6R21133   0.174   0.351   5.918  1.7376 -0.0941 -1.3335
  184POPC   H6S21134   0.008   0.375   5.865 -0.2874 -1.2231  2.2066
  184POPC   C2721135   0.155   0.333   5.704  0.2874  0.9892 -0.3540
  184POPC   H7R21136   0.256   0.288   5.710  0.5326  1.6633  1.0639
  184POPC   H7S21137   0.172   0.438   5.672  1.7183  1.2757  1.2246
  184POPC   C2821138   0.078   0.261   5.591  0.4123  0.3108  0.0772
  184POPC   H8R21139   0.084   0.155   5.623  0.9774  0.9838  2.4461
  184POPC   H8S21140   0.132   0.264   5.495  2.1234  0.1466  1.0050
  184POPC   C2921141  -0.063   0.320   5.577 -1.2554  0.3643  0.6145
  184POPC   H9121142  -0.110   0.332   5.675  0.7808  1.8292  1.5016
  184POPC  C21021143  -0.118   0.365   5.467  0.7352  0.2598  0.3348
  184POPC  H10121144  -0.216   0.412   5.480 -1.6310 -4.1599  0.3742
  184POPC  C21121145  -0.048   0.377   5.331 -0.2542  0.3009 -0.1649
  184POPC  H11R21146   0.057   0.402   5.356  0.4179 -0.1436 -2.4086
  184POPC  H11S21147  -0.080   0.470   5.278 -0.3806  0.9018  0.9228
  184POPC  C21221148  -0.060   0.255   5.236 -0.3689 -0.1788 -0.0489
  184POPC  H12R21149  -0.169   0.238   5.222 -0.3129 -0.7633  0.2179
  184POPC  H12S21150  -0.013   0.169   5.288 -0.8785 -0.4267  0.0089
  184POPC  C21321151   0.011   0.286   5.102  0.6903  0.0820  0.1118
  184POPC  H13R21152   0.121   0.299   5.114  1.0174 -2.3814  0.2623
  184POPC  H13S21153  -0.042   0.374   5.060 -1.9307 -1.2217  0.4728
  184POPC  C21421154  -0.007   0.175   4.991 -0.3048  0.8771  0.9437
  184POPC  H14R21155  -0.113   0.145   4.973 -0.0604 -0.1169  1.0647
  184POPC  H14S21156   0.039   0.078   5.020 -1.1599 -1.2200 -3.7150
  184POPC  C21521157   0.036   0.228   4.856 -0.6565  1.3383 -0.6263
  184POPC  H15R21158   0.137   0.272   4.874  0.2584 -0.3354 -1.4170
  184POPC  H15S21159  -0.043   0.302   4.831 -1.6155  0.7862  0.6812
  184POPC  C21621160   0.059   0.119   4.757  0.4729 -0.1603 -0.1356
  184POPC  H16R21161  -0.034   0.059   4.752  0.5801 -0.2738 -0.9349
  184POPC  H16S21162   0.132   0.049   4.804 -1.0146 -0.6665  1.5558
  184POPC  C21721163   0.100   0.159   4.615  0.6116 -0.8776  0.5541
  184POPC  H17R21164   0.025   0.225   4.568  3.4673  1.5088 -0.9514
  184POPC  H17S21165   0.119   0.075   4.545 -1.3008  0.4929 -1.7302
  184POPC  C21821166   0.230   0.256   4.610  0.1650  0.4591  0.6779
  184POPC  H18R21167   0.215   0.361   4.644  0.3282  0.5056  0.6096
  184POPC  H18S21168   0.246   0.261   4.500  1.9049 -0.0657  0.8648
  184POPC  H18T21169   0.327   0.210   4.642 -0.4981 -0.8655  0.8419
  184POPC   C3321170   0.326  -0.459   6.572  0.6454 -0.6849 -0.0495
  184POPC   H3X21171   0.296  -0.566   6.559  1.4784 -1.5297  3.7016
  184POPC   H3Y21172   0.420  -0.459   6.630  1.0478  1.0713 -0.6704
  184POPC   C3421173   0.366  -0.387   6.442 -0.2458  0.2012 -0.1804
  184POPC   H4X21174   0.456  -0.444   6.409  0.2984 -0.9626  2.9370
  184POPC   H4Y21175   0.401  -0.285   6.469 -2.1627  0.1855  2.8558
  184POPC   C3521176   0.255  -0.399   6.340 -0.1336  0.2960 -0.3587
  184POPC   H5X21177   0.166  -0.339   6.370  0.3121  0.2408  1.1368
  184POPC   H5Y21178   0.224  -0.505   6.324 -0.8872  0.8781 -3.6271
  184POPC   C3621179   0.291  -0.334   6.206 -0.0400  0.6060  0.1060
  184POPC   H6X21180   0.378  -0.394   6.173 -1.1524 -1.5169  0.8376
  184POPC   H6Y21181   0.324  -0.229   6.217  1.6807  0.0237  0.8182
  184POPC   C3721182   0.180  -0.348   6.101  0.1903 -0.3930  0.3332
  184POPC   H7X21183   0.091  -0.285   6.125 -0.3025 -0.1617 -1.9206
  184POPC   H7Y21184   0.150  -0.455   6.096 -0.8241 -0.1018 -0.1153
  184POPC   C3821185   0.217  -0.280   5.965  0.2153  0.1246  0.0168
  184POPC   H8X21186   0.287  -0.345   5.908  0.8999  0.9207 -0.0724
  184POPC   H8Y21187   0.257  -0.178   5.981  0.2604  0.1142 -0.0300
  184POPC   C3921188   0.097  -0.279   5.878  0.5325  0.2814  0.1065
  184POPC   H9X21189   0.022  -0.200   5.899 -1.3595 -1.6527  1.1205
  184POPC   H9Y21190   0.046  -0.376   5.895  0.2410  0.2058 -1.1225
  184POPC  C31021191   0.127  -0.270   5.728 -0.4519 -0.2235 -0.4516
  184POPC  H10X21192   0.035  -0.273   5.666 -2.1622  1.8218  1.7925
  184POPC  H10Y21193   0.197  -0.353   5.705 -2.2307 -1.8868 -0.0479
  184POPC  C31121194   0.179  -0.130   5.688  0.5266  0.0280  0.3888
  184POPC  H11X21195   0.268  -0.113   5.753  0.7471  3.0385 -0.5962
  184POPC  H11Y21196   0.095  -0.059   5.705  2.4007  2.0855  1.4530
  184POPC  C31221197   0.228  -0.122   5.541 -0.0271 -0.4545  0.0956
  184POPC  H12X21198   0.279  -0.219   5.528  0.1545 -0.4853  0.9571
  184POPC  H12Y21199   0.296  -0.035   5.530 -0.2370  0.1620  2.8080
  184POPC  C31321200   0.124  -0.104   5.431  0.3822 -0.4542 -0.3072
  184POPC  H13X21201   0.053  -0.022   5.457  0.2699 -0.7920  0.4756
  184POPC  H13Y21202   0.068  -0.200   5.424 -0.6621  0.1663 -0.7391
  184POPC  C31421203   0.188  -0.065   5.298  0.9018 -0.0589  0.0905
  184POPC  H14X21204   0.237   0.034   5.312 -0.4198  0.4226  1.4386
  184POPC  H14Y21205   0.097  -0.043   5.238  1.3128  1.7306  0.0545
  184POPC  C31521206   0.280  -0.172   5.243 -0.0815 -0.4109  0.4163
  184POPC  H15X21207   0.220  -0.264   5.231 -1.0937  0.3357 -0.3897
  184POPC  H15Y21208   0.360  -0.194   5.317  1.1107  0.8618 -0.4464
  184POPC  C31621209   0.340  -0.132   5.114 -0.0467 -0.3901  0.3622
  184POPC  H16X21210   0.391  -0.218   5.066  1.3117 -0.8725  2.5097
  184POPC  H16Y21211   0.410  -0.045   5.121 -0.9354  0.5363 -1.4894
  184POPC  H16Z21212   0.262  -0.089   5.047 -1.4218 -2.6550  0.4154
  185POPC     N21213   5.913   2.617   2.450  0.0996 -0.1552  0.1048
  185POPC   C1221214   5.926   2.575   2.594 -0.5127  0.2574 -0.6940
  185POPC  H12A21215   5.955   2.470   2.597 -0.9058  0.0984 -1.9202
  185POPC  H12B21216   5.831   2.582   2.643 -0.7382 -1.1093 -0.8957
  185POPC   C1321217   6.043   2.588   2.381 -0.3000  0.2111  0.0857
  185POPC  H13A21218   6.066   2.484   2.361  1.1467  0.3917  0.7124
  185POPC  H13B21219   6.060   2.635   2.285  2.9364  1.2248  1.0337
  185POPC  H13C21220   6.124   2.618   2.445 -2.2023  0.5238  2.4937
  185POPC   C1421221   5.804   2.526   2.397  0.2018  0.0719 -0.2868
  185POPC  H14A21222   5.720   2.528   2.464  1.1202  2.4387  0.9039
  185POPC  H14B21223   5.779   2.560   2.297  0.8745  0.3036 -0.3856
  185POPC  H14C21224   5.832   2.422   2.388  1.8510  0.4920 -0.2853
  185POPC   C1521225   5.868   2.761   2.431 -0.0057 -0.3362  0.5246
  185POPC  H15A21226   5.779   2.788   2.486 -0.3957  0.5305 -0.5224
  185POPC  H15B21227   5.852   2.786   2.328 -0.3297  0.1690  0.6938
  185POPC  H15C21228   5.943   2.833   2.461 -1.7681  1.2622  1.3532
  185POPC   C1121229   6.025   2.654   2.681 -0.2246 -1.2765 -0.1029
  185POPC  H11A21230   6.003   2.639   2.789 -0.2935 -3.2429 -0.3631
  185POPC  H11B21231   6.003   2.761   2.662 -1.1591 -1.2838  0.8322
  185POPC     P21232   6.236   2.487   2.688 -0.4498 -0.1266  0.0806
  185POPC   O1321233   6.366   2.472   2.620 -0.0792 -0.3653  0.0056
  185POPC   O1421234   6.139   2.372   2.680  0.2926 -0.1814  0.3932
  185POPC   O1221235   6.162   2.626   2.647 -0.0139  0.0093 -0.2989
  185POPC   O1121236   6.273   2.502   2.842 -0.1062 -0.2886 -0.4435
  185POPC    C121237   6.317   2.634   2.891  0.5701  1.0060  0.0995
  185POPC    HA21238   6.240   2.712   2.875  0.1700  1.0569  2.0348
  185POPC    HB21239   6.411   2.667   2.841  0.2012  0.2760 -1.1116
  185POPC    C221240   6.355   2.632   3.038  0.0176 -0.2468  0.0523
  185POPC    HS21241   6.388   2.728   3.083 -0.2255 -1.7589  3.8790
  185POPC   O2121242   6.439   2.521   3.069  0.2871 -0.2964  0.1905
  185POPC   C2121243   6.527   2.538   3.172  0.4509 -0.9758 -0.0236
  185POPC   O2221244   6.545   2.640   3.233 -0.5033 -0.4064  0.1088
  185POPC   C2221245   6.606   2.398   3.193  0.3640 -0.6786  0.1402
  185POPC   H2R21246   6.698   2.424   3.251 -0.3193  1.9351  0.1755
  185POPC   H2S21247   6.637   2.376   3.089 -3.6591  1.7671 -1.8276
  185POPC    C321248   6.219   2.612   3.109 -0.0761 -0.0715  0.0513
  185POPC    HX21249   6.171   2.530   3.053 -0.0071  0.0970 -0.2585
  185POPC    HY21250   6.153   2.700   3.097 -0.7214 -0.5008  0.3939
  185POPC   O3121251   6.243   2.592   3.252  0.1284  0.1260 -0.3472
  185POPC   C3121252   6.137   2.532   3.315 -0.0078 -0.0134  0.8615
  185POPC   O3221253   6.030   2.509   3.258 -0.5978 -0.0061  0.0528
  185POPC   C3221254   6.161   2.488   3.456  0.0731 -1.1113 -0.1072
  185POPC   H2X21255   6.256   2.535   3.488  0.5032 -0.6209 -1.9725
  185POPC   H2Y21256   6.181   2.379   3.447  1.2800 -0.9043 -0.1057
  185POPC   C2321257   6.522   2.301   3.267 -0.0854 -0.1279 -0.0470
  185POPC   H3R21258   6.548   2.198   3.234  0.4642 -0.7321  2.0696
  185POPC   H3S21259   6.415   2.322   3.245 -0.0258  0.3242  0.0795
  185POPC   C2421260   6.536   2.324   3.421  0.1101  1.1019  0.6353
  185POPC   H4R21261   6.517   2.434   3.420 -1.9627  0.7810 -0.9174
  185POPC   H4S21262   6.642   2.302   3.447 -0.0751  1.3070  1.6335
  185POPC   C2521263   6.445   2.246   3.513 -0.1940 -0.3276  1.0943
  185POPC   H5R21264   6.458   2.141   3.481  1.7760  0.5785 -1.4296
  185POPC   H5S21265   6.343   2.279   3.485  0.6184  2.7458  1.3751
  185POPC   C2621266   6.462   2.272   3.658  0.3698 -0.0458 -0.5011
  185POPC   H6R21267   6.433   2.378   3.677 -0.0498 -0.1752 -0.4078
  185POPC   H6S21268   6.565   2.258   3.697  0.6605 -0.9011 -1.5452
  185POPC   C2721269   6.375   2.176   3.736  0.7291  0.0347  0.0771
  185POPC   H7R21270   6.412   2.076   3.705 -1.0540 -0.3101 -1.1187
  185POPC   H7S21271   6.269   2.185   3.702 -0.3870 -0.6809  3.0461
  185POPC   C2821272   6.374   2.197   3.886  0.3321 -0.3484 -0.4441
  185POPC   H8R21273   6.349   2.303   3.908 -2.0775 -0.9741  0.0613
  185POPC   H8S21274   6.480   2.175   3.912  0.2674  0.6365  0.6934
  185POPC   C2921275   6.282   2.117   3.975  0.0832  0.0537  0.2914
  185POPC   H9121276   6.188   2.085   3.927  0.5171  1.3241 -1.5211
  185POPC  C21021277   6.304   2.076   4.103 -0.6886  0.7442  0.1585
  185POPC  H10121278   6.234   2.005   4.149 -1.9502  1.5575 -0.4646
  185POPC  C21121279   6.417   2.105   4.194 -0.4280  0.3191 -0.3350
  185POPC  H11R21280   6.484   2.186   4.159 -0.7358 -0.0546 -1.8556
  185POPC  H11S21281   6.484   2.017   4.203 -0.1668  0.5241 -0.2720
  185POPC  C21221282   6.373   2.145   4.332 -0.0938  0.2109 -1.1543
  185POPC  H12R21283   6.336   2.058   4.391  1.2518  0.1706 -0.3215
  185POPC  H12S21284   6.286   2.213   4.319 -0.6403 -0.6795 -2.3479
  185POPC  C21321285   6.492   2.210   4.410 -0.3231  0.4248 -0.2958
  185POPC  H13R21286   6.513   2.302   4.353 -0.5470 -0.0670 -1.1893
  185POPC  H13S21287   6.575   2.136   4.408 -0.2756  0.4476  0.5627
  185POPC  C21421288   6.461   2.239   4.553 -0.1101  0.0817  0.6753
  185POPC  H14R21289   6.445   2.144   4.608 -2.2570  0.6718  1.1821
  185POPC  H14S21290   6.363   2.292   4.555 -0.6171 -0.7555 -0.5124
  185POPC  C21521291   6.574   2.321   4.620  0.5709 -0.1215 -0.2356
  185POPC  H15R21292   6.589   2.415   4.563 -1.1173  1.4358  1.6995
  185POPC  H15S21293   6.663   2.255   4.620  0.7534  0.1222 -0.4198
  185POPC  C21621294   6.547   2.352   4.766  0.0078 -0.0688  0.3953
  185POPC  H16R21295   6.526   2.253   4.812 -0.9550  0.1540  0.4599
  185POPC  H16S21296   6.452   2.411   4.765  0.4304  0.6313 -0.9475
  185POPC  C21721297   6.654   2.433   4.840  0.1031 -0.6151 -0.1587
  185POPC  H17R21298   6.651   2.534   4.794 -0.4353 -0.8278 -0.5955
  185POPC  H17S21299   6.753   2.385   4.820  0.6435 -0.0454  1.0461
  185POPC  C21821300   6.627   2.424   4.991  0.1496  0.2185  0.6405
  185POPC  H18R21301   6.524   2.460   5.012  0.2344  1.0229 -0.2412
  185POPC  H18S21302   6.707   2.472   5.051  0.7020 -1.6124  1.4456
  185POPC  H18T21303   6.618   2.319   5.026 -1.7457  0.7204  1.8095
  185POPC   C3321304   6.062   2.534   3.556  0.0571 -0.9662 -0.2723
  185POPC   H3X21305   5.964   2.490   3.528  0.2872 -0.8545 -1.2724
  185POPC   H3Y21306   6.044   2.642   3.541  0.3903 -0.7028  1.0283
  185POPC   C3421307   6.120   2.509   3.694 -0.3297  0.0699  0.2818
  185POPC   H4X21308   6.201   2.584   3.704 -1.2589  1.0941  0.3506
  185POPC   H4Y21309   6.157   2.405   3.704 -0.7136 -0.2530 -1.3234
  185POPC   C3521310   6.015   2.527   3.807 -0.1556 -0.4288 -0.8685
  185POPC   H5X21311   5.921   2.482   3.769  0.2055 -1.1800 -0.8832
  185POPC   H5Y21312   6.000   2.633   3.838 -0.9356 -0.4660 -1.0932
  185POPC   C3621313   6.050   2.457   3.936  0.6836  0.0358  0.8638
  185POPC   H6X21314   6.148   2.501   3.963  0.9777  0.9786 -1.4978
  185POPC   H6Y21315   6.076   2.351   3.914  1.1816  0.1489  0.8879
  185POPC   C3721316   5.949   2.475   4.051  0.1680  0.1085  0.1437
  185POPC   H7X21317   5.847   2.439   4.026 -0.3197  2.4764 -1.6469
  185POPC   H7Y21318   5.945   2.584   4.073  2.8508 -0.2894  3.3961
  185POPC   C3821319   6.011   2.414   4.183 -0.3528 -0.3460 -0.3810
  185POPC   H8X21320   6.117   2.448   4.190  0.8353 -2.5781 -4.2678
  185POPC   H8Y21321   6.018   2.306   4.161 -2.1841 -0.4135 -0.8379
  185POPC   C3921322   5.949   2.453   4.320  0.4408 -0.2671 -0.0767
  185POPC   H9X21323   5.927   2.562   4.317 -2.3107 -0.7445 -0.0612
  185POPC   H9Y21324   6.031   2.443   4.394  0.8345  2.9511  0.0621
  185POPC  C31021325   5.835   2.361   4.367  0.3109 -0.7614 -0.1823
  185POPC  H10X21326   5.863   2.253   4.365 -1.2309 -1.2100  0.3890
  185POPC  H10Y21327   5.747   2.378   4.302  1.1446  4.4631 -0.3609
  185POPC  C31121328   5.811   2.395   4.517 -0.0903  0.2844 -0.0530
  185POPC  H11X21329   5.787   2.501   4.538 -0.3971  0.0155  1.0081
  185POPC  H11Y21330   5.911   2.376   4.564 -0.1518  1.2643  0.5066
  185POPC  C31221331   5.704   2.298   4.580  0.7875  0.2415 -0.5874
  185POPC  H12X21332   5.712   2.314   4.690 -0.1184 -0.8957 -0.3353
  185POPC  H12Y21333   5.713   2.188   4.567  0.7433  0.1379  0.2256
  185POPC  C31321334   5.558   2.337   4.542 -0.1161  0.5822  0.3619
  185POPC  H13X21335   5.543   2.326   4.433 -0.3327 -1.5145  0.5607
  185POPC  H13Y21336   5.533   2.443   4.562  0.7520  0.6866  0.9654
  185POPC  C31421337   5.455   2.246   4.611 -0.1474 -0.0861  0.4917
  185POPC  H14X21338   5.452   2.137   4.589 -2.1063 -0.0399  0.3202
  185POPC  H14Y21339   5.358   2.293   4.583  1.9903  4.1202 -0.7128
  185POPC  C31521340   5.454   2.268   4.766 -0.1439 -0.2040 -0.3765
  185POPC  H15X21341   5.454   2.377   4.786  1.1340 -0.1079 -0.8197
  185POPC  H15Y21342   5.551   2.247   4.814  0.5381  1.9526 -0.6975
  185POPC  C31621343   5.337   2.207   4.841 -0.4580  0.2002  0.3744
  185POPC  H16X21344   5.348   2.101   4.872 -4.3817  0.0440  1.8292
  185POPC  H16Y21345   5.242   2.219   4.785 -1.9830 -4.2423  1.6309
  185POPC  H16Z21346   5.321   2.258   4.939  1.4636  2.3176 -0.3341
  186POPC     N21347   6.590   5.312   2.736  0.1962  0.2102  0.8782
  186POPC   C1221348   6.656   5.234   2.848  0.2015  0.0984  0.4174
  186POPC  H12A21349   6.651   5.131   2.819 -1.7494  0.3769 -0.3636
  186POPC  H12B21350   6.595   5.250   2.936  0.0361  0.2152  0.2817
  186POPC   C1321351   6.585   5.460   2.768 -0.2043 -0.1568  0.1492
  186POPC  H13A21352   6.683   5.504   2.780 -0.0308 -0.4231 -0.2761
  186POPC  H13B21353   6.530   5.516   2.694 -1.3086 -0.5753  0.6352
  186POPC  H13C21354   6.532   5.467   2.862  0.1284 -0.9399  0.4022
  186POPC   C1421355   6.652   5.285   2.609  0.2667 -0.4883 -0.0720
  186POPC  H14A21356   6.618   5.191   2.569 -0.7904 -0.0405 -0.2603
  186POPC  H14B21357   6.626   5.356   2.532  2.0781  1.0729  0.6783
  186POPC  H14C21358   6.759   5.274   2.616  0.1484 -1.1014  1.0351
  186POPC   C1521359   6.441   5.271   2.732 -0.2591 -0.7127 -0.5794
  186POPC  H15A21360   6.393   5.278   2.828 -0.2433 -2.6830 -0.3987
  186POPC  H15B21361   6.428   5.171   2.694 -3.9382 -0.7013  0.2987
  186POPC  H15C21362   6.387   5.333   2.662 -0.6261  0.0519  0.3546
  186POPC   C1121363   6.797   5.281   2.884  0.3242 -0.6371  0.0660
  186POPC  H11A21364   6.828   5.245   2.985 -3.1897  0.1845  1.5742
  186POPC  H11B21365   6.796   5.390   2.902  4.7072 -0.2151 -1.1144
  186POPC     P21366   6.967   5.130   2.754 -0.0115  0.3149  0.0238
  186POPC   O1321367   7.044   5.151   2.626  0.2637 -0.1437  0.4764
  186POPC   O1421368   6.879   5.010   2.758  0.3074  0.0811 -0.3016
  186POPC   O1221369   6.895   5.273   2.779  0.5083  0.3584  0.0851
  186POPC   O1121370   7.062   5.115   2.879 -0.0218  0.0836 -0.3457
  186POPC    C121371   7.150   5.009   2.885 -0.3606  0.7441  0.3123
  186POPC    HA21372   7.241   5.050   2.934  0.6495  1.7709 -2.2111
  186POPC    HB21373   7.183   4.972   2.785 -1.2255  1.4060 -0.2352
  186POPC    C221374   7.093   4.902   2.975  0.2999 -0.2742 -0.2764
  186POPC    HS21375   6.994   4.888   2.927  1.3149 -0.6891 -2.3868
  186POPC   O2121376   7.077   4.942   3.114  0.0465  0.1417  0.0378
  186POPC   C2121377   6.961   4.952   3.167 -0.1728 -0.0885  0.7875
  186POPC   O2221378   6.850   4.932   3.119 -0.1860  0.7217  0.1142
  186POPC   C2221379   6.982   4.993   3.313 -0.6346 -0.1191 -0.4500
  186POPC   H2R21380   6.881   5.012   3.355  0.7204  1.3590  2.3819
  186POPC   H2S21381   7.051   5.079   3.315 -2.6460  1.5624 -0.4592
  186POPC    C321382   7.164   4.769   2.965 -0.3322 -0.3307  0.4536
  186POPC    HX21383   7.268   4.785   3.002 -0.1412  2.6270 -0.9944
  186POPC    HY21384   7.173   4.743   2.857 -0.3338 -1.7323  0.7811
  186POPC   O3121385   7.099   4.663   3.043 -0.1780 -0.4165 -1.0150
  186POPC   C3121386   7.011   4.596   2.979  0.9997  0.4773 -0.8937
  186POPC   O3221387   6.984   4.611   2.860 -0.0345  0.0683 -0.4503
  186POPC   C3221388   6.924   4.518   3.086  0.3851 -0.0986 -0.0224
  186POPC   H2X21389   6.958   4.547   3.187 -2.4014  2.1220  0.3709
  186POPC   H2Y21390   6.966   4.415   3.074 -0.9159 -0.9531  2.1801
  186POPC   C2321391   7.043   4.878   3.397 -0.1215 -0.3081  1.2684
  186POPC   H3R21392   7.152   4.865   3.377  0.0751  1.3394  1.1406
  186POPC   H3S21393   6.991   4.780   3.394 -0.2204 -0.2335  0.3537
  186POPC   C2421394   7.021   4.905   3.543  0.0973  0.2258  0.7019
  186POPC   H4R21395   6.913   4.889   3.559 -0.2310  0.1128 -1.2832
  186POPC   H4S21396   7.045   5.012   3.559 -2.1153  0.8457  0.1824
  186POPC   C2521397   7.103   4.827   3.650  0.3431 -0.1419 -0.5224
  186POPC   H5R21398   7.212   4.843   3.630  0.5488  1.3657  1.4976
  186POPC   H5S21399   7.081   4.719   3.642 -1.4339  0.2051 -0.7434
  186POPC   C2621400   7.078   4.868   3.795  0.4102  0.2887 -0.3248
  186POPC   H6R21401   7.111   4.974   3.806 -1.1122  1.1426 -2.9525
  186POPC   H6S21402   7.139   4.802   3.860 -0.4575  0.5964  0.8448
  186POPC   C2721403   6.935   4.855   3.847  0.0839 -0.2795  0.8670
  186POPC   H7R21404   6.908   4.747   3.844 -1.5116  0.1153 -0.2797
  186POPC   H7S21405   6.864   4.905   3.777 -0.2239 -2.0607 -0.1562
  186POPC   C2821406   6.915   4.910   3.987  0.1782  0.5344  0.1237
  186POPC   H8R21407   6.812   4.905   4.029 -0.9262 -0.1635 -2.4537
  186POPC   H8S21408   6.942   5.018   3.993 -2.6495  1.2417  2.5964
  186POPC   C2921409   6.998   4.837   4.093  0.1290 -0.3308  0.0396
  186POPC   H9121410   7.083   4.785   4.046  1.0717  0.4914  0.7714
  186POPC  C21021411   6.980   4.835   4.225 -0.1761  0.1597 -0.1932
  186POPC  H10121412   7.052   4.775   4.283  0.7637 -0.2949 -1.7776
  186POPC  C21121413   6.873   4.912   4.300 -0.3822  0.0258  0.5039
  186POPC  H11R21414   6.774   4.870   4.269  1.1728 -0.5215 -4.8752
  186POPC  H11S21415   6.886   5.015   4.261  0.8607 -0.1322  0.4792
  186POPC  C21221416   6.891   4.906   4.449 -0.2379  0.7344  0.2971
  186POPC  H12R21417   6.862   4.806   4.487 -3.0712  1.4892  0.3563
  186POPC  H12S21418   6.811   4.978   4.477 -1.8462 -1.2953  1.2199
  186POPC  C21321419   7.029   4.960   4.507  0.0317  0.1181 -0.0406
  186POPC  H13R21420   7.058   5.063   4.479 -1.0955  0.1153 -1.3047
  186POPC  H13S21421   7.107   4.892   4.467  0.1948 -0.1093  0.6419
  186POPC  C21421422   7.029   4.955   4.661  0.0786  0.1870 -0.4061
  186POPC  H14R21423   7.120   5.002   4.702  0.9775 -0.7798 -1.2203
  186POPC  H14S21424   7.034   4.852   4.702  1.7229  0.3986 -0.0108
  186POPC  C21521425   6.906   5.028   4.724  0.0267  0.3805 -0.7698
  186POPC  H15R21426   6.810   4.970   4.727 -0.3595  0.9973  1.7355
  186POPC  H15S21427   6.888   5.127   4.677  1.3382  1.1464  0.2651
  186POPC  C21621428   6.922   5.075   4.869  0.0080 -0.2475  0.1008
  186POPC  H16R21429   7.009   5.143   4.883  0.9777 -1.8215  2.2439
  186POPC  H16S21430   6.945   4.986   4.930  0.9617  0.9230  1.5074
  186POPC  C21721431   6.800   5.139   4.933  1.1883 -0.5177  0.6764
  186POPC  H17R21432   6.730   5.052   4.940  0.8317 -0.6813 -2.9195
  186POPC  H17S21433   6.753   5.220   4.873  1.4383  0.6491  2.0150
  186POPC  C21821434   6.822   5.207   5.071  0.0708 -0.0674  1.2027
  186POPC  H18R21435   6.841   5.116   5.133  1.7588 -0.8827 -0.4021
  186POPC  H18S21436   6.914   5.269   5.073 -0.1296  0.2215  1.9364
  186POPC  H18T21437   6.743   5.276   5.108  1.9577  1.7073  2.1046
  186POPC   C3321438   6.774   4.543   3.075  0.7343  0.5357  0.1929
  186POPC   H3X21439   6.751   4.525   2.968  0.9965 -0.0065  0.2261
  186POPC   H3Y21440   6.753   4.650   3.098  0.9035  0.4089  0.9769
  186POPC   C3421441   6.702   4.449   3.160  0.2231  0.3654 -0.5910
  186POPC   H4X21442   6.745   4.347   3.153  1.3512  0.7955 -0.2061
  186POPC   H4Y21443   6.594   4.454   3.136  0.1123  1.2333  0.0072
  186POPC   C3521444   6.710   4.481   3.315 -0.0291 -0.0227  0.0896
  186POPC   H5X21445   6.629   4.552   3.342 -0.2319 -1.3209  3.2650
  186POPC   H5Y21446   6.803   4.541   3.331 -0.2992  0.2809  0.5539
  186POPC   C3621447   6.699   4.364   3.404  0.2147  0.1184 -0.1334
  186POPC   H6X21448   6.782   4.296   3.378 -0.2309 -0.3192 -0.4398
  186POPC   H6Y21449   6.599   4.328   3.370 -0.5225  1.4082  0.5774
  186POPC   C3721450   6.696   4.392   3.556 -0.8208  0.1214  0.6634
  186POPC   H7X21451   6.665   4.297   3.605  2.2036 -1.2972  0.0591
  186POPC   H7Y21452   6.623   4.472   3.583 -0.6860  0.4826  0.0027
  186POPC   C3821453   6.837   4.433   3.602 -0.4967  0.2751  0.3060
  186POPC   H8X21454   6.865   4.491   3.511  1.3132 -2.8059 -1.2845
  186POPC   H8Y21455   6.919   4.358   3.591 -0.9419 -0.1869  0.0530
  186POPC   C3921456   6.844   4.504   3.731 -0.2082 -0.3512  0.6975
  186POPC   H9X21457   6.763   4.580   3.735 -1.2745 -1.4557  0.7528
  186POPC   H9Y21458   6.948   4.542   3.738 -0.3608  0.2793 -0.2048
  186POPC  C31021459   6.824   4.415   3.856 -0.5031  1.1366 -1.3058
  186POPC  H10X21460   6.902   4.337   3.870 -0.5554  1.3731  0.5835
  186POPC  H10Y21461   6.730   4.357   3.847 -0.4738  1.0101 -0.8042
  186POPC  C31121462   6.811   4.494   3.994 -0.0354  0.4247 -0.3449
  186POPC  H11X21463   6.721   4.560   3.999  0.7823  1.4667  2.2099
  186POPC  H11Y21464   6.885   4.575   3.981  1.5713 -0.9994 -0.4714
  186POPC  C31221465   6.822   4.402   4.116 -0.5077 -0.3282 -0.2068
  186POPC  H12X21466   6.925   4.366   4.140 -1.2518 -1.9531  0.6923
  186POPC  H12Y21467   6.751   4.317   4.108  0.2273 -0.9275 -0.4932
  186POPC  C31321468   6.791   4.486   4.243 -0.3215 -0.2218  0.3186
  186POPC  H13X21469   6.682   4.504   4.239 -0.2032  0.5167  0.1565
  186POPC  H13Y21470   6.847   4.581   4.231 -0.6867  0.2420  2.0042
  186POPC  C31421471   6.828   4.417   4.378 -0.4784 -0.1268 -0.2786
  186POPC  H14X21472   6.804   4.476   4.469  1.0433  0.8591 -0.4886
  186POPC  H14Y21473   6.932   4.378   4.376 -1.0421 -1.7774  0.4866
  186POPC  C31521474   6.745   4.289   4.400  0.8673  0.3427 -0.4517
  186POPC  H15X21475   6.799   4.212   4.459 -0.3101 -0.6258 -0.5919
  186POPC  H15Y21476   6.742   4.231   4.306  1.9460 -2.2407  0.9986
  186POPC  C31621477   6.598   4.317   4.446 -0.3330  0.1189 -0.1548
  186POPC  H16X21478   6.551   4.386   4.373 -0.8112 -0.4865 -0.4212
  186POPC  H16Y21479   6.591   4.367   4.545  2.8616 -1.3938  0.9783
  186POPC  H16Z21480   6.539   4.223   4.451 -2.5275  1.4584  0.9854
  187POPC     N21481   6.539   0.968   2.667 -0.4825  0.1748  0.5235
  187POPC   C1221482   6.501   0.896   2.798 -0.8047  0.5619  0.2746
  187POPC  H12A21483   6.456   0.956   2.876 -1.1627 -2.6635  2.7875
  187POPC  H12B21484   6.594   0.860   2.840 -0.5486  0.3041 -0.5076
  187POPC   C1321485   6.596   0.869   2.570  0.5360 -0.1073  0.2503
  187POPC  H13A21486   6.610   0.925   2.479 -1.0267  3.1012  1.8345
  187POPC  H13B21487   6.689   0.821   2.595  1.5691 -0.3693 -3.5456
  187POPC  H13C21488   6.528   0.785   2.561 -0.6811  0.7024  1.4653
  187POPC   C1421489   6.435   1.046   2.597 -0.0161  0.0256  0.6821
  187POPC  H14A21490   6.478   1.102   2.515 -1.6969 -0.8753 -0.9154
  187POPC  H14B21491   6.366   0.978   2.549  0.0498  0.6731 -0.3758
  187POPC  H14C21492   6.383   1.119   2.656  1.2787  2.3639 -0.9241
  187POPC   C1521493   6.645   1.072   2.696 -0.4118 -0.0643 -0.9507
  187POPC  H15A21494   6.621   1.128   2.785  0.6170 -1.8743  0.5534
  187POPC  H15B21495   6.671   1.147   2.622  0.0339  1.4268  0.6479
  187POPC  H15C21496   6.738   1.024   2.725 -1.5092 -0.6190  1.9823
  187POPC   C1121497   6.395   0.781   2.788 -0.1637  0.3600 -0.1397
  187POPC  H11A21498   6.301   0.809   2.736 -0.5450  0.0438  0.3670
  187POPC  H11B21499   6.386   0.754   2.896  3.3875  2.3675  0.8529
  187POPC     P21500   6.550   0.568   2.774 -0.3611  0.3633 -0.0750
  187POPC   O1321501   6.660   0.637   2.840 -0.1920 -0.3358  0.2674
  187POPC   O1421502   6.586   0.464   2.676  0.6301 -0.2651  1.0795
  187POPC   O1221503   6.452   0.675   2.714  0.5304 -0.8003  0.2503
  187POPC   O1121504   6.480   0.501   2.898 -0.0964 -0.1990  0.1598
  187POPC    C121505   6.377   0.404   2.890 -0.5594  0.8358 -0.5609
  187POPC    HA21506   6.384   0.333   2.975 -0.0291  1.1938 -0.2996
  187POPC    HB21507   6.392   0.344   2.798  1.5167 -1.0162  0.8937
  187POPC    C221508   6.240   0.468   2.879 -0.0198  0.7405  0.2688
  187POPC    HS21509   6.246   0.539   2.794  1.4729  2.5862  1.8313
  187POPC   O2121510   6.210   0.537   3.004 -0.2973  0.3619  0.6443
  187POPC   C2121511   6.111   0.624   2.984 -0.0143 -0.3383 -0.4245
  187POPC   O2221512   6.063   0.658   2.879 -0.2825 -0.0280  0.3979
  187POPC   C2221513   6.067   0.676   3.119 -0.2184  0.0996  0.9009
  187POPC   H2R21514   6.151   0.662   3.190  1.3980 -3.7912 -1.4399
  187POPC   H2S21515   5.976   0.619   3.147 -0.4521  0.1825  0.3280
  187POPC    C321516   6.126   0.360   2.852  0.5775  0.1110  0.0050
  187POPC    HX21517   6.151   0.326   2.749  2.7044  0.8692  0.2401
  187POPC    HY21518   6.020   0.394   2.849 -0.4051 -2.6759 -0.8239
  187POPC   O3121519   6.120   0.246   2.939 -0.7265  0.0656  0.2184
  187POPC   C3121520   6.058   0.254   3.058 -0.2294  0.2043 -0.0345
  187POPC   O3221521   6.016   0.359   3.108 -0.1918 -0.4043  0.4078
  187POPC   C3221522   6.059   0.117   3.125  0.0969  0.4812 -0.1445
  187POPC   H2X21523   6.119   0.051   3.059 -1.3273  0.8176 -1.8595
  187POPC   H2Y21524   5.954   0.087   3.141  0.4563 -1.9023 -1.6628
  187POPC   C2321525   6.038   0.827   3.106  0.0401 -0.0961  0.7160
  187POPC   H3R21526   5.973   0.839   3.017  2.7768 -0.6230 -1.4798
  187POPC   H3S21527   6.131   0.881   3.079 -0.0116  0.1661  1.0444
  187POPC   C2421528   5.971   0.887   3.229  0.1000 -0.4045 -0.2700
  187POPC   H4R21529   5.877   0.830   3.245 -0.2652 -0.4522 -2.3339
  187POPC   H4S21530   5.941   0.992   3.207  0.3532 -0.3360 -0.2898
  187POPC   C2521531   6.044   0.876   3.360 -0.1903  0.0124  0.3791
  187POPC   H5R21532   6.148   0.913   3.354  0.2055 -0.9735  1.0501
  187POPC   H5S21533   6.051   0.773   3.401  2.6245  0.7973  2.1522
  187POPC   C2621534   6.000   0.968   3.476  0.0575 -0.3766  0.0999
  187POPC   H6R21535   5.893   0.949   3.497 -0.2367 -0.5326 -1.4217
  187POPC   H6S21536   6.030   1.072   3.451 -0.4900 -0.7418 -2.4273
  187POPC   C2721537   6.068   0.928   3.607 -0.3048 -0.4429 -0.2029
  187POPC   H7R21538   6.058   1.014   3.677 -1.1151 -0.4311 -0.3263
  187POPC   H7S21539   6.176   0.912   3.585  0.3761  2.2769  0.7207
  187POPC   C2821540   6.018   0.803   3.680  0.2765 -0.4245  0.2754
  187POPC   H8R21541   6.087   0.784   3.764 -0.9913  2.3397  2.0576
  187POPC   H8S21542   6.025   0.715   3.612 -1.3436 -0.1140 -0.3575
  187POPC   C2921543   5.878   0.832   3.730  0.3945  0.2013 -0.4306
  187POPC   H9121544   5.790   0.796   3.674  1.2376  0.3026 -1.8746
  187POPC  C21021545   5.851   0.904   3.841 -0.3645  0.3040 -0.3777
  187POPC  H10121546   5.746   0.924   3.868 -1.6291 -0.2996 -4.1949
  187POPC  C21121547   5.948   0.972   3.941  0.3811 -0.3455 -0.2603
  187POPC  H11R21548   5.921   1.080   3.937  2.1011  0.1385  0.1973
  187POPC  H11S21549   6.053   0.969   3.904  1.3446 -2.7458  2.2937
  187POPC  C21221550   5.961   0.909   4.086 -0.4377 -0.0843 -0.7425
  187POPC  H12R21551   5.857   0.917   4.122  0.4222  0.5736  1.8040
  187POPC  H12S21552   6.016   0.977   4.155 -0.3500  1.0059 -1.8452
  187POPC  C21321553   6.033   0.772   4.084 -0.0018  0.1591  0.3971
  187POPC  H13R21554   6.144   0.783   4.075  0.3338 -0.8763  2.5176
  187POPC  H13S21555   6.008   0.710   3.995 -2.8552 -0.3179  1.4597
  187POPC  C21421556   5.995   0.676   4.200 -0.6248  0.5606 -0.0329
  187POPC  H14R21557   6.049   0.582   4.179 -0.6314  0.5980 -0.2175
  187POPC  H14S21558   5.886   0.658   4.204 -0.8580  0.7322 -3.2115
  187POPC  C21521559   6.044   0.714   4.340 -0.0447  0.5609 -0.2706
  187POPC  H15R21560   6.036   0.824   4.355  0.1554  0.4849  0.4670
  187POPC  H15S21561   6.153   0.695   4.343 -0.2470 -0.6852  1.9299
  187POPC  C21621562   5.967   0.630   4.446 -0.4402  0.6105 -1.1080
  187POPC  H16R21563   5.974   0.528   4.402 -1.0505  0.5888 -1.1549
  187POPC  H16S21564   5.860   0.662   4.446 -0.6427  0.0037  0.7811
  187POPC  C21721565   6.039   0.628   4.581 -0.4869 -0.0972 -0.0174
  187POPC  H17R21566   6.030   0.729   4.627  1.1976  0.2385 -0.3652
  187POPC  H17S21567   6.146   0.600   4.583 -0.3153  0.4428 -0.8678
  187POPC  C21821568   5.966   0.527   4.674  0.5681  0.3031  1.0003
  187POPC  H18R21569   6.010   0.536   4.776  0.0930 -0.8407  1.3185
  187POPC  H18S21570   5.971   0.418   4.653  0.2958  0.2026  1.4274
  187POPC  H18T21571   5.859   0.553   4.687  0.1262 -1.8847  2.1756
  187POPC   C3321572   6.123   0.114   3.265  0.4385  0.1252  0.4438
  187POPC   H3X21573   6.209   0.184   3.275  0.0402  0.4316  1.9990
  187POPC   H3Y21574   6.170   0.020   3.299 -1.1543 -0.5156  0.9694
  187POPC   C3421575   6.018   0.137   3.373  0.3007  1.3731  1.0335
  187POPC   H4X21576   5.929   0.070   3.367  0.5606  0.9593  1.6312
  187POPC   H4Y21577   5.979   0.241   3.368 -0.4053  1.0663 -0.1974
  187POPC   C3521578   6.075   0.116   3.515  0.0484  0.5295 -0.2000
  187POPC   H5X21579   6.093   0.009   3.537 -1.5614  0.0547 -1.0443
  187POPC   H5Y21580   5.997   0.149   3.587 -1.5029 -1.7570 -0.7184
  187POPC   C3621581   6.208   0.189   3.544 -0.4306 -0.7753 -0.4839
  187POPC   H6X21582   6.194   0.296   3.518  1.4961  0.0565  1.5348
  187POPC   H6Y21583   6.291   0.149   3.482  0.6093  1.8768 -0.9231
  187POPC   C3721584   6.261   0.177   3.693 -0.0627  0.6610  0.1648
  187POPC   H7X21585   6.290   0.070   3.700 -0.0723  0.7213  1.3706
  187POPC   H7Y21586   6.184   0.196   3.771 -1.2601 -0.9433 -0.5700
  187POPC   C3821587   6.373   0.276   3.724  0.1623 -0.0153 -0.1197
  187POPC   H8X21588   6.453   0.242   3.654 -1.5423 -2.7368 -0.8839
  187POPC   H8Y21589   6.414   0.263   3.826 -0.0387 -0.7027 -0.1245
  187POPC   C3921590   6.342   0.425   3.698  0.1801  1.1515 -0.3707
  187POPC   H9X21591   6.249   0.462   3.748 -1.6294 -0.4502 -2.3568
  187POPC   H9Y21592   6.340   0.443   3.589  3.4310 -1.2345 -0.9669
  187POPC  C31021593   6.461   0.504   3.756 -0.2800 -0.2064 -0.1077
  187POPC  H10X21594   6.473   0.589   3.685  1.0663  0.4464  0.8444
  187POPC  H10Y21595   6.549   0.437   3.768  0.5985  0.4248 -2.5557
  187POPC  C31121596   6.428   0.565   3.890  0.4121 -0.0366 -0.5729
  187POPC  H11X21597   6.329   0.616   3.901  0.3624 -0.4959  1.6328
  187POPC  H11Y21598   6.510   0.636   3.914 -1.1398  1.8246 -0.5288
  187POPC  C31221599   6.419   0.464   4.006  0.4909 -0.1529  0.0154
  187POPC  H12X21600   6.523   0.425   4.003  0.0360 -1.3784 -0.7749
  187POPC  H12Y21601   6.340   0.386   3.995 -0.9913  0.8569  2.5090
  187POPC  C31321602   6.387   0.527   4.148 -0.2752  1.0248  0.2916
  187POPC  H13X21603   6.280   0.556   4.152  0.0627  2.2775  0.9232
  187POPC  H13Y21604   6.440   0.622   4.172 -0.0016  0.5322  1.7356
  187POPC  C31421605   6.431   0.437   4.263  0.4947  0.0292 -0.1399
  187POPC  H14X21606   6.542   0.440   4.262  0.4994  0.4653  0.8105
  187POPC  H14Y21607   6.391   0.334   4.246 -1.9717  0.9710 -0.4233
  187POPC  C31521608   6.385   0.489   4.407  0.3068 -0.3971  0.3903
  187POPC  H15X21609   6.276   0.508   4.413  0.3942  1.5801 -2.3058
  187POPC  H15Y21610   6.443   0.582   4.426  1.7000 -1.2550  0.4804
  187POPC  C31621611   6.429   0.391   4.518  0.9009 -0.0787 -0.6631
  187POPC  H16X21612   6.540   0.388   4.522  0.9669  1.1874 -1.1731
  187POPC  H16Y21613   6.397   0.292   4.478 -1.0386 -0.3687  1.4054
  187POPC  H16Z21614   6.386   0.416   4.618  0.5136 -0.3419 -0.7612
  188POPC     N21615   6.624   4.521   2.566  0.2488  0.2306  0.1042
  188POPC   C1221616   6.738   4.483   2.654  0.0633 -0.1221  0.4585
  188POPC  H12A21617   6.712   4.394   2.709  1.3760 -1.1044 -0.4324
  188POPC  H12B21618   6.753   4.565   2.722  1.5593 -0.8459  1.0607
  188POPC   C1321619   6.671   4.609   2.454  0.7891  1.0902  0.2584
  188POPC  H13A21620   6.599   4.603   2.374 -0.5372 -1.6174  1.5226
  188POPC  H13B21621   6.669   4.714   2.480 -0.7764  1.1192  0.1376
  188POPC  H13C21622   6.767   4.581   2.415 -0.3406 -3.3824  0.1378
  188POPC   C1421623   6.572   4.392   2.496  0.3353  0.4015 -0.7987
  188POPC  H14A21624   6.651   4.352   2.434  1.1346 -1.9164  1.5008
  188POPC  H14B21625   6.561   4.319   2.576 -0.0824  1.0833 -0.2212
  188POPC  H14C21626   6.482   4.405   2.438  0.7191 -3.0804 -2.4262
  188POPC   C1521627   6.520   4.588   2.650 -0.4319 -0.3630 -0.3650
  188POPC  H15A21628   6.565   4.676   2.694 -0.3263  0.5107 -2.1324
  188POPC  H15B21629   6.479   4.519   2.721 -0.3342  0.8520  0.9014
  188POPC  H15C21630   6.443   4.622   2.582  1.1110  0.3992 -1.8253
  188POPC   C1121631   6.874   4.448   2.587 -0.6624 -0.1513  0.3530
  188POPC  H11A21632   6.952   4.425   2.662 -0.9770  0.2603  0.8038
  188POPC  H11B21633   6.902   4.537   2.527  0.0434 -0.9664 -0.5748
  188POPC     P21634   6.876   4.189   2.536  0.0186 -0.3528 -0.2402
  188POPC   O1321635   7.018   4.152   2.525 -0.0702 -0.5990  0.0653
  188POPC   O1421636   6.779   4.115   2.458 -0.0186  0.1430 -0.5763
  188POPC   O1221637   6.867   4.340   2.495  0.4278 -0.0061  0.0278
  188POPC   O1121638   6.840   4.194   2.695  0.6673  0.1804  0.2999
  188POPC    C121639   6.939   4.178   2.801  0.5179  0.7646  0.5000
  188POPC    HA21640   6.883   4.183   2.897  0.5647 -0.1628  0.5883
  188POPC    HB21641   7.013   4.261   2.807  0.1376  1.1854 -0.4159
  188POPC    C221642   7.002   4.032   2.802 -0.0541  0.2286 -0.1502
  188POPC    HS21643   7.058   4.015   2.708  1.0865  1.4143  0.3015
  188POPC   O2121644   6.897   3.930   2.821  0.4945 -0.6164 -0.4638
  188POPC   C2121645   6.938   3.807   2.841  0.0448 -0.6529 -0.8104
  188POPC   O2221646   7.046   3.764   2.814 -0.5414  0.1591  0.2594
  188POPC   C2221647   6.822   3.716   2.902 -1.2277  0.1209 -0.1148
  188POPC   H2R21648   6.837   3.609   2.876  2.3207  0.1590  1.2627
  188POPC   H2S21649   6.727   3.762   2.864 -1.3850 -0.0478  0.0732
  188POPC    C321650   7.103   4.032   2.925  0.0216  0.3996  0.2991
  188POPC    HX21651   7.175   4.113   2.901 -0.4259  1.6789  2.9313
  188POPC    HY21652   7.153   3.933   2.930 -1.3871 -0.3744 -0.4886
  188POPC   O3121653   7.030   4.068   3.041 -0.8662 -0.5328  0.4945
  188POPC   C3121654   7.114   4.107   3.140  0.3582  0.6635  0.1615
  188POPC   O3221655   7.233   4.110   3.136 -0.0305  0.4425 -0.8695
  188POPC   C3221656   7.029   4.152   3.262  0.1856  0.0429  0.3844
  188POPC   H2X21657   6.931   4.195   3.231  1.1860  2.4192  0.3059
  188POPC   H2Y21658   7.090   4.237   3.299 -0.9582  1.5196 -0.9770
  188POPC   C2321659   6.820   3.724   3.055 -0.8209  0.6286 -0.3165
  188POPC   H3R21660   6.733   3.673   3.102 -0.7881 -0.2229 -1.1588
  188POPC   H3S21661   6.817   3.828   3.094  0.3948  0.3981  0.4440
  188POPC   C2421662   6.939   3.651   3.122 -0.0808 -0.5918  0.8206
  188POPC   H4R21663   7.033   3.691   3.079 -0.8865 -1.1434 -1.5874
  188POPC   H4S21664   6.935   3.544   3.092 -0.5176 -0.0421 -1.2210
  188POPC   C2521665   6.928   3.658   3.280 -0.5823  0.5498  0.4593
  188POPC   H5R21666   6.824   3.630   3.307 -0.5062  1.1838  1.4833
  188POPC   H5S21667   6.943   3.767   3.299  0.1478  0.7497 -1.1248
  188POPC   C2621668   7.034   3.575   3.362  0.0484 -0.8738 -0.7754
  188POPC   H6R21669   7.139   3.604   3.341 -0.1880  0.0279 -0.7208
  188POPC   H6S21670   7.025   3.466   3.339  0.3553 -1.2737  0.8843
  188POPC   C2721671   6.996   3.591   3.512  0.3164  0.4175 -0.9887
  188POPC   H7R21672   6.893   3.557   3.533  0.3700  0.1524 -1.1572
  188POPC   H7S21673   6.977   3.699   3.528 -0.6759  0.1004  0.0865
  188POPC   C2821674   7.102   3.545   3.615  0.3707 -0.3602  0.7117
  188POPC   H8R21675   7.140   3.443   3.595 -3.2931 -1.9974  1.2785
  188POPC   H8S21676   7.035   3.539   3.703 -3.3378  0.9568 -1.7754
  188POPC   C2921677   7.210   3.658   3.638 -0.7735  0.1825 -0.1594
  188POPC   H9121678   7.233   3.717   3.548  4.1558 -0.1733  0.5779
  188POPC  C21021679   7.282   3.682   3.752  0.0966  0.0835  0.2739
  188POPC  H10121680   7.336   3.777   3.769 -0.2860 -0.1412  3.3729
  188POPC  C21121681   7.252   3.606   3.881  0.2351  0.5415  0.3415
  188POPC  H11R21682   7.338   3.544   3.915  0.1328  0.7474  1.0046
  188POPC  H11S21683   7.172   3.533   3.858 -1.6584  2.7407 -0.4712
  188POPC  C21221684   7.209   3.698   3.998  0.7900 -0.3846 -0.5767
  188POPC  H12R21685   7.118   3.753   3.967  0.5825 -0.7690 -0.6478
  188POPC  H12S21686   7.292   3.768   4.024  1.7602 -2.1832  1.4921
  188POPC  C21321687   7.176   3.612   4.125  0.1050  0.0621  0.8848
  188POPC  H13R21688   7.240   3.521   4.123 -1.0064 -0.7280  0.5974
  188POPC  H13S21689   7.069   3.582   4.121 -0.2049  1.2213 -0.4496
  188POPC  C21421690   7.200   3.692   4.256  0.4865  0.1396 -0.2043
  188POPC  H14R21691   7.121   3.769   4.272 -0.3242 -0.6687 -0.2161
  188POPC  H14S21692   7.301   3.737   4.248  0.8019 -0.8215 -2.1436
  188POPC  C21521693   7.201   3.599   4.376 -0.6712 -0.4999  0.3648
  188POPC  H15R21694   7.240   3.672   4.450  3.0179 -1.5543 -0.3299
  188POPC  H15S21695   7.282   3.524   4.373 -0.1454  0.0209  1.1464
  188POPC  C21621696   7.055   3.551   4.410  0.2827 -0.5970 -0.0968
  188POPC  H16R21697   7.022   3.472   4.340 -0.6422 -0.2643 -0.0436
  188POPC  H16S21698   6.996   3.644   4.395  0.4602 -0.5591 -0.5886
  188POPC  C21721699   7.050   3.495   4.549 -0.3338  0.1056 -0.9744
  188POPC  H17R21700   7.120   3.548   4.617  1.6886 -0.3212 -2.6017
  188POPC  H17S21701   7.093   3.392   4.547 -0.7130 -0.1847  1.7744
  188POPC  C21821702   6.907   3.497   4.611 -0.2966  0.2999 -0.2322
  188POPC  H18R21703   6.864   3.596   4.584 -0.6431 -0.3388 -2.2164
  188POPC  H18S21704   6.916   3.489   4.722 -0.0121  2.2328 -0.0720
  188POPC  H18T21705   6.846   3.414   4.568  0.6736 -0.9346  0.7044
  188POPC   C3321706   7.004   4.043   3.371 -0.5579 -0.3507 -0.2409
  188POPC   H3X21707   7.094   3.979   3.385 -1.3019 -0.8947  2.8794
  188POPC   H3Y21708   6.916   3.981   3.342 -0.1442 -0.5231 -1.1492
  188POPC   C3421709   6.975   4.103   3.513  0.3114  0.5717 -0.3521
  188POPC   H4X21710   6.873   4.139   3.538 -0.0194  0.3024 -1.2637
  188POPC   H4Y21711   7.047   4.183   3.537  0.1158  0.2406  1.4709
  188POPC   C3521712   7.002   4.003   3.626  0.4173  0.2798  0.4110
  188POPC   H5X21713   7.106   3.967   3.609 -0.2070 -1.6756  0.5180
  188POPC   H5Y21714   6.932   3.917   3.615  1.2667 -0.3129 -0.6308
  188POPC   C3621715   6.980   4.065   3.761  0.3783 -0.3694 -0.0510
  188POPC   H6X21716   6.872   4.052   3.786  0.4852  1.0231  1.2815
  188POPC   H6Y21717   7.001   4.174   3.760 -0.1297 -0.2730 -0.7521
  188POPC   C3721718   7.062   4.011   3.876 -0.5615  0.5291  0.6582
  188POPC   H7X21719   7.169   4.032   3.858 -0.5646 -0.3299 -0.4263
  188POPC   H7Y21720   7.049   3.901   3.875  1.1565  0.1545  4.0775
  188POPC   C3821721   7.033   4.074   4.011  0.6428 -0.1914  0.3128
  188POPC   H8X21722   6.933   4.034   4.040  0.0114  1.3478  0.3620
  188POPC   H8Y21723   7.025   4.184   3.995 -0.1417 -0.4720 -1.4960
  188POPC   C3921724   7.141   4.048   4.113  0.5265  0.4954  0.2172
  188POPC   H9X21725   7.234   4.085   4.063  1.0627 -1.8236 -0.6270
  188POPC   H9Y21726   7.148   3.938   4.124 -0.5172  0.2260 -1.6028
  188POPC  C31021727   7.119   4.132   4.241  0.5152  0.2717  0.2523
  188POPC  H10X21728   7.010   4.127   4.263  0.5550  2.3327  1.2131
  188POPC  H10Y21729   7.143   4.238   4.219  0.2424  0.0513 -1.2502
  188POPC  C31121730   7.203   4.080   4.359  0.4632  0.6301 -0.8300
  188POPC  H11X21731   7.170   3.978   4.390 -0.6879  0.8665 -1.2116
  188POPC  H11Y21732   7.164   4.147   4.439 -4.8609 -0.2686 -2.2321
  188POPC  C31221733   7.356   4.084   4.344 -1.0618  0.2890 -1.2076
  188POPC  H12X21734   7.382   4.190   4.323  0.4153 -0.1187 -1.5135
  188POPC  H12Y21735   7.391   4.021   4.259 -0.7514  0.4345 -1.1898
  188POPC  C31321736   7.439   4.031   4.467 -0.2244  0.1452  0.6785
  188POPC  H13X21737   7.549   4.045   4.454 -0.1655 -1.3926 -0.7280
  188POPC  H13Y21738   7.419   3.922   4.464 -0.5990  0.1276  2.8408
  188POPC  C31421739   7.381   4.088   4.594 -0.4352 -0.1664 -0.7432
  188POPC  H14X21740   7.278   4.048   4.608 -0.1936 -0.6171 -0.2505
  188POPC  H14Y21741   7.385   4.199   4.590 -0.0762 -0.0422  1.7757
  188POPC  C31521742   7.459   4.048   4.724  1.2028  0.0967  0.3153
  188POPC  H15X21743   7.446   3.938   4.725  0.0658  0.2212  0.2002
  188POPC  H15Y21744   7.407   4.086   4.814 -0.5981  0.3423 -0.7892
  188POPC  C31621745   7.616   4.075   4.739  0.2833  0.4707 -0.5413
  188POPC  H16X21746   7.654   4.045   4.839 -0.3642  2.2457  0.2628
  188POPC  H16Y21747   7.642   4.181   4.722 -0.4423  1.3640  3.1732
  188POPC  H16Z21748   7.669   4.013   4.663 -0.3368 -0.8767  0.0756
  189SAPI   C1221749   0.823   2.085   7.150  0.6159 -0.2483 -0.3035
  189SAPI    H221750   0.858   2.077   7.255  0.3814  0.2155 -0.1838
  189SAPI    O221751   0.903   2.174   7.079  0.7254 -0.3629  0.7139
  189SAPI   HO221752   0.882   2.262   7.111 -0.9250 -0.5212  0.1752
  189SAPI   C1321753   0.834   1.941   7.092 -1.1476 -0.0370  0.3625
  189SAPI    H321754   0.796   1.870   7.168 -0.1120 -0.2464  0.6993
  189SAPI    O321755   0.967   1.904   7.074 -0.2216  0.0334  0.3444
  189SAPI   HO321756   0.995   1.964   7.005 -2.9408  2.7532  1.3700
  189SAPI   C1421757   0.748   1.927   6.970 -0.0920  0.0793 -0.0237
  189SAPI    H421758   0.806   1.991   6.899  0.1404  2.3347  2.0769
  189SAPI    O421759   0.733   1.790   6.931 -0.4563 -0.5418 -0.0146
  189SAPI   HO421760   0.782   1.777   6.849 -0.1544  0.7939 -0.0600
  189SAPI   C1521761   0.605   1.983   6.974 -0.7588  0.7751 -0.1713
  189SAPI    H521762   0.550   1.902   7.026  1.4061 -0.9912 -0.4886
  189SAPI    O521763   0.561   1.995   6.840 -0.3748 -0.7766 -0.8878
  189SAPI   HO521764   0.545   1.904   6.816  0.8214 -0.8326 -1.5561
  189SAPI   C1621765   0.590   2.118   7.043  0.6616  0.3882 -0.3090
  189SAPI    H621766   0.611   2.196   6.966 -0.4606  1.1676  0.1486
  189SAPI    O621767   0.452   2.127   7.087  0.0977 -0.2472  0.0143
  189SAPI   HO621768   0.434   2.218   7.061  4.1737  0.7619  0.0070
  189SAPI   C1121769   0.683   2.139   7.158 -0.5682 -0.7885  0.1248
  189SAPI    H121770   0.649   2.068   7.236 -2.4377  1.0976  1.0919
  189SAPI     P21771   0.671   2.409   7.161  0.1014 -0.0022 -0.0747
  189SAPI   O1321772   0.662   2.491   7.278  0.0127  0.2073 -0.4772
  189SAPI   O1421773   0.564   2.431   7.062  0.7167  0.0830 -0.1742
  189SAPI   O1221774   0.668   2.261   7.224  0.2919 -0.2810  0.1688
  189SAPI   O1121775   0.821   2.431   7.104  0.1054  0.1685 -0.7443
  189SAPI    C121776   0.840   2.520   6.993 -0.0268  0.4225  0.0565
  189SAPI    HA21777   0.784   2.613   7.014 -0.8223 -0.2495  1.0319
  189SAPI    HB21778   0.950   2.536   6.986  0.0896 -0.0057  0.7861
  189SAPI    C221779   0.801   2.458   6.856  0.1111  0.0685  0.1823
  189SAPI    HS21780   0.691   2.442   6.854 -0.0167  0.8944 -2.4276
  189SAPI   O2121781   0.873   2.337   6.835 -0.5461  0.3858  0.3848
  189SAPI   C2121782   0.819   2.260   6.750 -0.4453  0.1412  0.1772
  189SAPI   O2221783   0.700   2.258   6.717  0.2983  0.1451  0.1677
  189SAPI   C2221784   0.934   2.181   6.682 -0.0719  0.0148 -0.2173
  189SAPI   H2R21785   1.017   2.245   6.644 -0.6907 -0.9476 -3.4514
  189SAPI   H2S21786   0.975   2.117   6.764 -0.3194  1.5094  1.1302
  189SAPI    C321787   0.836   2.555   6.742  0.1205  0.9513  1.2122
  189SAPI    HX21788   0.943   2.585   6.737  0.2101  0.4166 -0.7418
  189SAPI    HY21789   0.783   2.651   6.763 -0.7330  0.9198 -0.6643
  189SAPI   O3121790   0.802   2.515   6.608  0.3123  0.1830 -0.5016
  189SAPI   C3121791   0.676   2.506   6.571  0.1640  0.1701 -0.4734
  189SAPI   O3221792   0.581   2.526   6.641  0.4941  0.0295 -0.2124
  189SAPI   C3221793   0.668   2.497   6.420  0.6547 -0.0370  0.5653
  189SAPI   H2X21794   0.583   2.567   6.399  0.5624  0.6461  2.9070
  189SAPI   H2Y21795   0.649   2.391   6.396  3.0054 -0.1970 -0.8641
  189SAPI   C2321796   0.894   2.070   6.582 -0.2386 -0.5054 -0.4161
  189SAPI   H3R21797   0.805   2.011   6.614 -0.6483  0.3818  0.1147
  189SAPI   H3S21798   0.978   1.997   6.584  0.6964  0.4916 -1.5790
  189SAPI   C2421799   0.868   2.130   6.444  0.5098 -0.0948 -0.4895
  189SAPI   H4R21800   0.956   2.191   6.416 -0.0138 -0.0910 -2.2973
  189SAPI   H4S21801   0.789   2.208   6.450  1.7715  1.3452 -1.6766
  189SAPI   C2521802   0.839   2.023   6.345 -0.7718 -0.7399 -0.0242
  189SAPI   H5R21803   0.769   1.944   6.379  1.4464 -2.0842  1.7451
  189SAPI   C2621804   0.899   2.007   6.220 -0.1593 -1.4012 -0.6521
  189SAPI   H6R21805   0.867   1.923   6.156 -2.4759  0.0777 -1.5899
  189SAPI   C2721806   1.000   2.108   6.170  0.3341 -0.5637 -0.1935
  189SAPI   H7R21807   1.052   2.161   6.252  0.8815  1.3890 -1.7377
  189SAPI   H7S21808   0.953   2.196   6.122  2.7607  0.6873 -0.4297
  189SAPI   C2821809   1.100   2.055   6.071 -0.4245  0.3663  0.1687
  189SAPI   H8R21810   1.147   1.963   6.111 -1.3951 -0.4055 -0.4250
  189SAPI   C2921811   1.122   2.080   5.939  0.3472  0.0597 -0.0680
  189SAPI   H9R21812   1.188   2.009   5.887 -0.5354 -0.6652 -0.2236
  189SAPI  C21021813   1.054   2.186   5.851 -0.1567 -0.0675  0.3552
  189SAPI  H10R21814   1.131   2.223   5.781 -0.2836 -0.6205 -0.0836
  189SAPI  H10S21815   1.026   2.261   5.929 -2.7886 -1.1131  0.5369
  189SAPI  C21121816   0.923   2.134   5.793 -0.5800  0.1882 -0.3818
  189SAPI  H11R21817   0.851   2.111   5.873  2.6228  0.2314  2.7297
  189SAPI  C21221818   0.889   2.108   5.668 -0.4976  0.1202 -0.0680
  189SAPI  H12R21819   0.791   2.068   5.639 -0.4938 -0.0248  0.1133
  189SAPI  C21321820   0.976   2.138   5.555 -0.3893 -0.3284  0.2932
  189SAPI  H13R21821   1.076   2.181   5.578 -0.9856  1.4071 -0.1328
  189SAPI  H13S21822   0.920   2.207   5.488  2.1013  0.5607 -0.9660
  189SAPI  C21421823   1.008   2.007   5.478  0.2185 -0.0292 -0.2366
  189SAPI  H14R21824   1.099   1.958   5.517 -0.8215 -0.9617  1.0899
  189SAPI  C21521825   0.944   1.959   5.373  0.6846 -0.8677  0.2922
  189SAPI  H15R21826   0.990   1.885   5.306  0.2752 -1.6317  0.8362
  189SAPI  C21621827   0.814   2.014   5.318 -0.5202  0.4279 -0.1038
  189SAPI  H16R21828   0.802   2.124   5.330  0.4347  0.4988  0.3106
  189SAPI  H16S21829   0.728   1.969   5.373 -0.6140 -0.6576 -1.0981
  189SAPI  C21721830   0.798   1.977   5.168 -0.1917 -0.6981  0.1128
  189SAPI  H17R21831   0.790   1.866   5.170 -2.5478 -0.5685  0.0070
  189SAPI  H17S21832   0.885   2.012   5.108  0.3766  1.0227  1.8167
  189SAPI  C21821833   0.669   2.023   5.099  0.6623  0.0027 -0.3608
  189SAPI  H18R21834   0.582   2.009   5.166  0.4740  0.7705 -0.4372
  189SAPI  H18S21835   0.637   1.958   5.014  1.2272  0.8659 -1.2607
  189SAPI  C21921836   0.682   2.167   5.034 -0.3467  0.5356  0.4421
  189SAPI  H19R21837   0.721   2.242   5.106 -0.6899  0.1071  1.0889
  189SAPI  H19S21838   0.585   2.200   4.992 -0.0674  0.1226 -0.5731
  189SAPI  C22021839   0.778   2.184   4.915 -0.3790 -0.1676 -0.0685
  189SAPI  H20R21840   0.808   2.088   4.868  2.1734  1.1745 -1.3493
  189SAPI  H20S21841   0.877   2.221   4.949  0.6093 -0.7086 -2.2004
  189SAPI  H20T21842   0.737   2.245   4.832  0.4596 -0.1624 -0.4869
  189SAPI   C3321843   0.786   2.554   6.332 -0.1848  0.1824  0.3712
  189SAPI   H3X21844   0.888   2.530   6.368  0.0336  3.2557  2.2078
  189SAPI   H3Y21845   0.791   2.665   6.342  3.2725  0.4276 -2.1972
  189SAPI   C3421846   0.764   2.514   6.184  0.4148  0.1485 -0.8246
  189SAPI   H4X21847   0.658   2.543   6.171  0.8362  0.6314 -3.7887
  189SAPI   H4Y21848   0.773   2.404   6.169 -0.8740  0.0230 -0.7116
  189SAPI   C3521849   0.859   2.597   6.096 -0.1542 -0.5496 -0.9910
  189SAPI   H5X21850   0.961   2.568   6.131 -0.8423 -2.7120 -0.6095
  189SAPI   H5Y21851   0.851   2.707   6.107 -0.9892 -0.5506 -1.5614
  189SAPI   C3621852   0.854   2.551   5.952  0.1192 -0.6309  0.7259
  189SAPI   H6X21853   0.750   2.568   5.917  0.5174  1.0481  0.2466
  189SAPI   H6Y21854   0.889   2.446   5.944  3.2029  0.2837  0.8598
  189SAPI   C3721855   0.946   2.628   5.857 -0.1385 -0.2740  0.1300
  189SAPI   H7X21856   1.050   2.612   5.895 -0.7933 -1.1272  1.6775
  189SAPI   H7Y21857   0.922   2.736   5.866  1.6655  0.1075  0.8635
  189SAPI   C3821858   0.944   2.580   5.717  0.1050 -0.4420 -0.4215
  189SAPI   H8X21859   0.953   2.470   5.720  1.2252 -0.3369  1.8158
  189SAPI   H8Y21860   1.029   2.633   5.669 -0.7604  0.7321 -0.7027
  189SAPI   C3921861   0.830   2.629   5.631  1.5268  0.1677 -0.4068
  189SAPI   H9X21862   0.803   2.733   5.660 -0.8351  0.0491 -1.8918
  189SAPI   H9Y21863   0.739   2.567   5.646  0.2980  1.9220 -0.2392
  189SAPI  C31021864   0.844   2.610   5.479  0.1763  0.2428  0.3092
  189SAPI  H10X21865   0.900   2.518   5.454  0.6729  0.4933  0.4865
  189SAPI  H10Y21866   0.913   2.688   5.441  2.7086 -3.0367 -2.3757
  189SAPI  C31121867   0.714   2.631   5.393  0.6364 -0.2949 -0.0700
  189SAPI  H11X21868   0.660   2.726   5.414 -2.6623 -2.5301  2.7967
  189SAPI  H11Y21869   0.639   2.552   5.418 -0.2846  1.1532  2.1132
  189SAPI  C31221870   0.755   2.633   5.245 -0.4243  0.0965 -0.0545
  189SAPI  H12X21871   0.820   2.544   5.227 -1.5722 -0.6624 -0.5230
  189SAPI  H12Y21872   0.814   2.726   5.231  1.0154 -0.5923  1.0583
  189SAPI  C31321873   0.643   2.620   5.147  0.4180  0.6491 -0.4323
  189SAPI  H13X21874   0.563   2.693   5.171 -0.0917  0.3552 -1.1785
  189SAPI  H13Y21875   0.592   2.522   5.157 -0.3612  1.2466  2.0797
  189SAPI  C31421876   0.689   2.639   5.003  0.0990  0.2625 -0.8523
  189SAPI  H14X21877   0.720   2.746   5.000  0.1026  0.3509  1.0051
  189SAPI  H14Y21878   0.608   2.631   4.927  0.0641  3.3979 -1.2606
  189SAPI  C31521879   0.793   2.547   4.948 -0.2345 -0.1071 -0.0802
  189SAPI  H15X21880   0.744   2.450   4.972  0.4598 -0.2835  0.6872
  189SAPI  H15Y21881   0.882   2.557   5.014 -2.5501  1.8767  3.0534
  189SAPI  C31621882   0.818   2.563   4.796 -0.3859 -0.4002  0.2739
  189SAPI  H16X21883   0.714   2.582   4.759 -0.0671 -1.6373 -1.4000
  189SAPI  H16Y21884   0.852   2.465   4.756 -0.3331 -0.5552  0.6929
  189SAPI  C31721885   0.904   2.685   4.764  0.4559  0.3631  0.1384
  189SAPI  H17X21886   0.898   2.764   4.841 -2.1376  0.4145 -0.0304
  189SAPI  H17Y21887   0.865   2.721   4.666 -2.1107  1.4308  1.4364
  189SAPI  C31821888   1.053   2.650   4.749  0.3513 -0.1465 -0.9423
  189SAPI  H18X21889   1.092   2.622   4.849  2.5201  1.1300 -1.3627
  189SAPI  H18Y21890   1.097   2.744   4.709  2.2036 -0.2706  0.6244
  189SAPI  H18Z21891   1.070   2.563   4.681 -2.0473 -0.8853 -0.6642
  190SAPI   C1221892   5.781   5.865   7.315 -0.0918 -0.1597  0.2913
  190SAPI    H221893   5.790   5.974   7.297  0.7030 -0.2355  0.2241
  190SAPI    O221894   5.904   5.824   7.379 -0.6282  0.3688  0.4030
  190SAPI   HO221895   5.980   5.859   7.333  0.0997 -1.9426 -0.2688
  190SAPI   C1321896   5.661   5.834   7.403 -0.2003  0.4425 -0.1143
  190SAPI    H321897   5.576   5.875   7.345  0.2205  1.1797 -0.2249
  190SAPI    O321898   5.668   5.916   7.521  0.2840  0.1165 -0.0883
  190SAPI   HO321899   5.593   5.975   7.526  0.4499  0.4617 -1.4224
  190SAPI   C1421900   5.646   5.685   7.441  0.1682  0.2938  0.0352
  190SAPI    H421901   5.735   5.659   7.502 -0.9864  3.2261  3.2869
  190SAPI    O421902   5.521   5.669   7.510  0.8278 -0.1452  0.3884
  190SAPI   HO421903   5.535   5.686   7.603  0.8515  0.5756  0.2561
  190SAPI   C1521904   5.650   5.598   7.310 -1.1193  0.2876 -0.6957
  190SAPI    H521905   5.546   5.610   7.271 -1.4457 -1.9393 -0.6203
  190SAPI    O521906   5.654   5.456   7.334 -0.0382 -0.6404  0.0334
  190SAPI   HO521907   5.748   5.436   7.340 -0.2616 -1.8191 -0.2245
  190SAPI   C1621908   5.741   5.639   7.199  0.3825  0.5607  0.6379
  190SAPI    H621909   5.838   5.587   7.211  0.7735  0.2079 -2.8922
  190SAPI    O621910   5.681   5.594   7.075 -0.1004  0.3088 -0.8221
  190SAPI   HO621911   5.674   5.499   7.084 -0.0212  0.3634 -0.1725
  190SAPI   C1121912   5.770   5.792   7.178  0.5243 -0.3019  0.1022
  190SAPI    H121913   5.679   5.834   7.130  1.8263  0.8674 -1.4247
  190SAPI     P21914   5.901   5.953   7.005  0.2127  0.2143  0.5214
  190SAPI   O1321915   6.019   5.927   6.921 -0.1351  0.0399  0.1737
  190SAPI   O1421916   5.900   6.070   7.090 -0.4721  0.2455 -0.5935
  190SAPI   O1221917   5.879   5.819   7.091 -0.4062 -0.3261 -0.1412
  190SAPI   O1121918   5.772   5.958   6.904  0.0388  0.5581 -0.4712
  190SAPI    C121919   5.754   5.862   6.801  0.1428 -0.0853 -0.8815
  190SAPI    HA21920   5.807   5.765   6.813 -1.0317 -1.1942 -3.6418
  190SAPI    HB21921   5.645   5.849   6.784  0.1140 -0.8757 -0.1695
  190SAPI    C221922   5.815   5.912   6.673 -0.1743  0.0226  0.0521
  190SAPI    HS21923   5.925   5.897   6.684 -0.2024  0.8270  1.6915
  190SAPI   O2121924   5.797   6.053   6.655  0.4515 -0.3497  0.7968
  190SAPI   C2121925   5.882   6.127   6.587  0.1592  0.4915 -0.0688
  190SAPI   O2221926   5.984   6.079   6.540 -0.0920  0.3412 -0.2769
  190SAPI   C2221927   5.841   6.271   6.581  0.3976 -0.0047 -0.2635
  190SAPI   H2R21928   5.748   6.284   6.522  0.9655  1.6697 -0.8432
  190SAPI   H2S21929   5.811   6.301   6.684 -0.0740  2.9609 -1.1896
  190SAPI    C321930   5.757   5.839   6.560 -0.3121  0.1336  0.5416
  190SAPI    HX21931   5.648   5.836   6.581 -0.4762 -1.1845 -0.3512
  190SAPI    HY21932   5.782   5.731   6.568 -3.9367 -0.9234 -0.2596
  190SAPI   O3121933   5.783   5.896   6.432 -0.5488  0.1225  0.0434
  190SAPI   C3121934   5.899   5.843   6.384  0.0002  0.1590  0.0387
  190SAPI   O3221935   5.973   5.773   6.445 -0.0361 -0.0594  0.4065
  190SAPI   C3221936   5.926   5.897   6.245  0.5029 -0.0493  0.0823
  190SAPI   H2X21937   5.974   5.996   6.264 -0.3365  0.4216 -0.1949
  190SAPI   H2Y21938   5.827   5.911   6.197  0.2535  0.5203  0.7417
  190SAPI   C2321939   5.949   6.364   6.514  0.4701  0.0940  0.6592
  190SAPI   H3R21940   5.962   6.336   6.408  2.2063  2.4052  0.1969
  190SAPI   H3S21941   6.048   6.345   6.561 -0.5429  0.6042  3.2031
  190SAPI   C2421942   5.928   6.514   6.524  0.1542 -0.1592 -0.1309
  190SAPI   H4R21943   6.005   6.568   6.464  1.5333  1.1554  2.6089
  190SAPI   H4S21944   5.957   6.538   6.629 -0.5142 -0.6027  0.1614
  190SAPI   C2521945   5.788   6.558   6.479  0.6152 -0.0623  0.3889
  190SAPI   H5R21946   5.717   6.555   6.562 -0.9195  0.6595 -0.8376
  190SAPI   C2621947   5.741   6.605   6.367  0.0134  0.4437  0.5132
  190SAPI   H6R21948   5.633   6.621   6.352  0.4663  2.8201 -0.5255
  190SAPI   C2721949   5.823   6.631   6.247  0.3330 -0.1400 -0.3932
  190SAPI   H7R21950   5.923   6.585   6.260 -0.2199 -1.5265 -0.9094
  190SAPI   H7S21951   5.851   6.739   6.243  1.4286 -0.4128 -0.2097
  190SAPI   C2821952   5.762   6.584   6.118 -0.1078  0.1178 -0.1432
  190SAPI   H8R21953   5.652   6.589   6.118 -0.0673  2.1560  0.5406
  190SAPI   C2921954   5.823   6.515   6.017 -0.2159  0.6824 -0.6268
  190SAPI   H9R21955   5.764   6.489   5.928 -0.5147 -1.3454  0.1090
  190SAPI  C21021956   5.971   6.492   5.994  0.5088 -0.3607  0.0141
  190SAPI  H10R21957   6.009   6.435   6.082 -2.6007 -1.3545  0.8701
  190SAPI  H10S21958   6.035   6.581   6.010  1.5389 -0.7133 -1.8325
  190SAPI  C21121959   6.010   6.428   5.861 -0.8206 -0.2212  0.1861
  190SAPI  H11R21960   6.043   6.323   5.864  0.2808  0.0226 -1.7346
  190SAPI  C21221961   5.997   6.475   5.735 -0.1841 -0.2422  0.2372
  190SAPI  H12R21962   6.016   6.425   5.639 -0.4573  2.3677 -1.2768
  190SAPI  C21321963   5.944   6.615   5.703  0.4641 -0.1321  0.6661
  190SAPI  H13R21964   6.031   6.680   5.679  1.0238 -1.2098 -0.3315
  190SAPI  H13S21965   5.891   6.660   5.789  2.1218 -1.9775  2.7784
  190SAPI  C21421966   5.846   6.602   5.585 -0.4495  0.3525  0.2827
  190SAPI  H14R21967   5.781   6.514   5.587  0.1526 -0.1764 -1.5072
  190SAPI  C21521968   5.818   6.678   5.482  0.3252  0.0771 -0.4151
  190SAPI  H15R21969   5.746   6.643   5.406  0.1634  0.3729 -0.4032
  190SAPI  C21621970   5.875   6.816   5.457 -0.0270  0.6321 -0.2788
  190SAPI  H16R21971   5.932   6.851   5.545  2.0189 -0.7823 -0.9593
  190SAPI  H16S21972   5.803   6.898   5.434  1.6922  1.8835 -1.5374
  190SAPI  C21721973   5.968   6.812   5.333 -0.9828  0.0463  0.2706
  190SAPI  H17R21974   5.899   6.817   5.246 -0.9238 -1.5412  0.0916
  190SAPI  H17S21975   6.014   6.713   5.313 -0.0081  0.7368 -1.0914
  190SAPI  C21821976   6.089   6.913   5.333  0.0968 -0.3757 -0.0665
  190SAPI  H18R21977   6.163   6.903   5.415  1.4130 -1.3424 -1.3130
  190SAPI  H18S21978   6.045   7.011   5.362  1.3361  0.9238 -2.2951
  190SAPI  C21921979   6.155   6.921   5.193  0.0991 -0.1409 -0.3643
  190SAPI  H19R21980   6.075   6.957   5.125 -1.5773 -0.4005  1.4045
  190SAPI  H19S21981   6.170   6.817   5.157 -0.5424 -0.8066  1.2248
  190SAPI  C22021982   6.280   7.002   5.186 -0.0854  0.2037  0.6135
  190SAPI  H20R21983   6.357   6.956   5.252 -0.7335 -1.4107  0.2902
  190SAPI  H20S21984   6.263   7.110   5.204 -0.0069  0.3537 -0.1824
  190SAPI  H20T21985   6.316   6.997   5.081 -0.5338  2.7273  0.2688
  190SAPI   C3321986   6.018   5.798   6.175 -0.1439 -0.1967  0.0504
  190SAPI   H3X21987   5.973   5.696   6.184 -0.8542  0.1127  0.0531
  190SAPI   H3Y21988   6.119   5.804   6.222 -0.1621 -1.2172  0.2483
  190SAPI   C3421989   6.035   5.843   6.029  0.3640 -0.3897  0.2481
  190SAPI   H4X21990   6.049   5.953   6.031  0.1718 -0.3440 -0.6067
  190SAPI   H4Y21991   5.938   5.831   5.977  1.0456 -1.7805 -0.7510
  190SAPI   C3521992   6.134   5.772   5.929 -0.3287  0.2628 -0.0602
  190SAPI   H5X21993   6.090   5.679   5.888 -0.8805  0.5179 -0.0491
  190SAPI   H5Y21994   6.227   5.747   5.985 -0.9952  0.9410  1.4092
  190SAPI   C3621995   6.166   5.853   5.800  0.9213  0.4955  0.1768
  190SAPI   H6X21996   6.226   5.946   5.813  1.0784  0.3880  0.2165
  190SAPI   H6Y21997   6.066   5.880   5.759  0.2834  0.7772  1.8187
  190SAPI   C3721998   6.239   5.770   5.690 -0.1490  0.5267 -0.0033
  190SAPI   H7X21999   6.183   5.674   5.683 -0.5846  0.7135  0.7341
  190SAPI   H7Y22000   6.344   5.759   5.724 -0.4687  2.3656  1.8055
  190SAPI   C3822001   6.243   5.838   5.548 -0.5257  0.8157  0.2891
  190SAPI   H8X22002   6.141   5.873   5.521 -1.6115 -0.9784  1.7951
  190SAPI   H8Y22003   6.272   5.766   5.468 -0.6696 -1.2844  2.0172
  190SAPI   C3922004   6.342   5.954   5.535  0.2802  0.5624  0.0939
  190SAPI   H9X22005   6.342   6.005   5.634  0.3001  0.2970  0.2303
  190SAPI   H9Y22006   6.321   6.026   5.453  1.6134  0.3592 -0.4377
  190SAPI  C31022007   6.478   5.912   5.506 -0.5710  0.8995  0.3232
  190SAPI  H10X22008   6.474   5.849   5.414 -0.4193  1.6107 -0.1823
  190SAPI  H10Y22009   6.536   5.858   5.583 -0.0881 -1.1942 -1.4176
  190SAPI  C31122010   6.555   6.033   5.459  0.0781 -0.7265  0.1425
  190SAPI  H11X22011   6.548   6.115   5.534 -4.0582 -0.6516 -0.1110
  190SAPI  H11Y22012   6.506   6.078   5.370 -1.6571  1.5973  2.1599
  190SAPI  C31222013   6.694   5.991   5.401  0.6765 -0.0648  0.7956
  190SAPI  H12X22014   6.676   5.925   5.313  1.7079 -0.5330  0.9308
  190SAPI  H12Y22015   6.746   5.927   5.475  0.2217  0.7563  1.8583
  190SAPI  C31322016   6.786   6.109   5.361  0.3259 -0.6728 -0.8609
  190SAPI  H13X22017   6.817   6.171   5.448  0.3271 -2.1051  0.1974
  190SAPI  H13Y22018   6.735   6.172   5.285  0.3455  0.3955 -0.0257
  190SAPI  C31422019   6.914   6.054   5.294 -0.8132  0.2620  0.0865
  190SAPI  H14X22020   6.998   6.126   5.292  1.1222 -1.8430  1.4552
  190SAPI  H14Y22021   6.884   6.010   5.196  0.3513  1.0481 -0.6571
  190SAPI  C31522022   6.978   5.929   5.366 -0.4772 -0.2270  0.5460
  190SAPI  H15X22023   6.919   5.849   5.316  0.9329  0.1155 -1.8412
  190SAPI  H15Y22024   6.952   5.946   5.472 -2.7210  1.7031 -0.2330
  190SAPI  C31622025   7.131   5.914   5.342 -0.6610  0.6480 -0.4047
  190SAPI  H16X22026   7.155   5.823   5.401 -0.2112 -0.2443 -1.9056
  190SAPI  H16Y22027   7.187   5.998   5.388  0.1159 -0.2388  0.2882
  190SAPI  C31722028   7.172   5.898   5.198 -0.0756 -0.1971  0.0828
  190SAPI  H17X22029   7.283   5.910   5.191 -0.1006 -0.0246 -0.0210
  190SAPI  H17Y22030   7.128   5.987   5.147 -1.2045  0.5550  2.2727
  190SAPI  C31822031   7.118   5.772   5.136 -0.3846 -0.3272  0.0304
  190SAPI  H18X22032   7.147   5.757   5.030  2.9148  1.6497  0.4939
  190SAPI  H18Y22033   7.007   5.776   5.141 -0.3032  0.5582  2.7053
  190SAPI  H18Z22034   7.144   5.678   5.190 -1.4091  0.0006  1.1321
  191SAPI   C1222035   1.045   4.363   2.636  0.5340  0.0447  0.6681
  191SAPI    H222036   1.151   4.336   2.660  0.2875 -0.1696  1.5609
  191SAPI    O222037   1.049   4.411   2.499 -0.3421  0.6827  0.0937
  191SAPI   HO222038   1.085   4.499   2.513  1.1603 -0.2467  2.8406
  191SAPI   C1322039   0.948   4.246   2.652 -0.0960  0.1179 -0.2649
  191SAPI    H322040   0.944   4.229   2.762  0.6163 -2.0879 -0.5258
  191SAPI    O322041   1.009   4.127   2.599  0.0554  0.4804  0.1554
  191SAPI   HO322042   1.076   4.083   2.652  2.8507  0.9615 -2.6660
  191SAPI   C1422043   0.815   4.274   2.598 -0.2111  0.3168 -0.4370
  191SAPI    H422044   0.835   4.278   2.489  0.8659 -0.8564 -0.3193
  191SAPI    O422045   0.723   4.162   2.604  0.1676  0.5975 -0.3133
  191SAPI   HO422046   0.684   4.145   2.518  0.6732  0.4681 -0.5218
  191SAPI   C1522047   0.764   4.410   2.645  0.4165 -0.1494  0.0846
  191SAPI    H522048   0.705   4.383   2.735  0.6085 -1.8554 -0.2657
  191SAPI    O522049   0.662   4.472   2.555  0.5759  0.2995  0.5982
  191SAPI   HO522050   0.579   4.494   2.599  0.9512  1.3198  0.8241
  191SAPI   C1622051   0.860   4.524   2.690  0.2116 -0.2354  0.3895
  191SAPI    H622052   0.881   4.585   2.600 -1.2264  1.2321  0.9964
  191SAPI    O622053   0.814   4.615   2.792 -0.5421 -0.6439  0.3519
  191SAPI   HO622054   0.795   4.694   2.741 -2.3731 -1.0943  0.2610
  191SAPI   C1122055   1.000   4.475   2.729 -0.4139 -0.1907  0.2863
  191SAPI    H122056   0.988   4.439   2.834 -0.7697  2.6279  1.2849
  191SAPI     P22057   1.227   4.582   2.825  0.2873  0.0584  0.0552
  191SAPI   O1322058   1.345   4.662   2.770 -0.1907  1.0388 -0.1818
  191SAPI   O1422059   1.257   4.441   2.852  0.5468 -0.1815  0.0046
  191SAPI   O1222060   1.095   4.583   2.724 -0.6646 -0.4060  0.7000
  191SAPI   O1122061   1.185   4.651   2.959 -0.1001  0.2495  0.2129
  191SAPI    C122062   1.084   4.755   2.972  0.1919  0.4287  0.7950
  191SAPI    HA22063   1.121   4.856   2.943  0.5862 -0.0412 -0.4334
  191SAPI    HB22064   0.998   4.740   2.904  0.8539 -0.1801  0.0717
  191SAPI    C222065   1.034   4.764   3.113 -0.6290  0.0019  0.1909
  191SAPI    HS22066   0.984   4.863   3.121 -1.4743  0.0556 -3.7509
  191SAPI   O2122067   1.139   4.744   3.205  0.4105  0.0554  0.6102
  191SAPI   C2122068   1.210   4.853   3.221  0.1416 -0.4971  0.3772
  191SAPI   O2222069   1.173   4.961   3.182  0.3263 -0.2455  0.4339
  191SAPI   C2222070   1.346   4.822   3.285 -0.3557  1.2665  0.1910
  191SAPI   H2R22071   1.381   4.733   3.229  0.7932  2.4817 -1.1069
  191SAPI   H2S22072   1.419   4.906   3.277  0.1860  1.0939  2.4976
  191SAPI    C322073   0.925   4.656   3.127  0.0788  0.1249 -0.2461
  191SAPI    HX22074   0.972   4.561   3.095 -1.4413 -0.7717  0.0650
  191SAPI    HY22075   0.834   4.675   3.067 -0.2074  0.6125  0.3237
  191SAPI   O3122076   0.887   4.632   3.267 -0.0553  0.0672  0.3659
  191SAPI   C3122077   0.797   4.711   3.323  0.0675 -0.0448 -0.0197
  191SAPI   O3222078   0.748   4.821   3.292 -0.5068 -0.0616  0.2378
  191SAPI   C3222079   0.768   4.635   3.453  0.6964  0.3399  0.0553
  191SAPI   H2X22080   0.863   4.601   3.499 -0.3818 -1.4984  1.0344
  191SAPI   H2Y22081   0.726   4.534   3.434  0.1913  0.3554  1.0222
  191SAPI   C2322082   1.341   4.803   3.438 -0.4253  0.1872 -0.2932
  191SAPI   H3R22083   1.441   4.770   3.474 -1.3391 -1.6305  0.7291
  191SAPI   H3S22084   1.266   4.723   3.458 -2.6276  2.3725  0.8884
  191SAPI   C2422085   1.299   4.947   3.491 -0.2225  0.0637  0.1570
  191SAPI   H4R22086   1.242   4.938   3.586  0.0829 -2.1281  0.1884
  191SAPI   H4S22087   1.217   4.996   3.435 -1.8672 -0.2625  2.1510
  191SAPI   C2522088   1.431   5.027   3.504  0.6872  0.6816  0.1998
  191SAPI   H5R22089   1.460   5.078   3.411  1.5143 -0.9468 -0.4712
  191SAPI   C2622090   1.503   5.040   3.620 -1.3810 -0.2095  0.0434
  191SAPI   H6R22091   1.594   5.102   3.621 -0.7601 -1.0574 -1.0364
  191SAPI   C2722092   1.481   4.979   3.755  0.1456  0.4561 -0.5375
  191SAPI   H7R22093   1.371   4.981   3.774 -0.8164 -1.8700 -4.6251
  191SAPI   H7S22094   1.531   5.050   3.824  0.1548  0.9367 -1.0296
  191SAPI   C2822095   1.529   4.842   3.769 -0.3116  0.0333 -0.4681
  191SAPI   H8R22096   1.552   4.786   3.677  1.2048  1.4413 -1.0012
  191SAPI   C2922097   1.542   4.781   3.885 -0.6510 -0.2474 -0.8482
  191SAPI   H9R22098   1.564   4.674   3.886 -0.8665 -0.3045  0.7546
  191SAPI  C21022099   1.526   4.849   4.022  0.3437 -0.0277 -0.4011
  191SAPI  H10R22100   1.580   4.945   4.010  1.2064 -0.5690 -0.9502
  191SAPI  H10S22101   1.573   4.791   4.105 -0.3506 -1.4505 -0.9636
  191SAPI  C21122102   1.386   4.886   4.075  0.2476 -0.2747 -0.1821
  191SAPI  H11R22103   1.304   4.836   4.021  1.0905 -1.4410 -0.4421
  191SAPI  C21222104   1.349   4.978   4.166 -0.2140  0.1491 -0.8870
  191SAPI  H12R22105   1.243   5.005   4.176  0.3011  1.5663  1.9163
  191SAPI  C21322106   1.447   5.065   4.245  0.7612 -0.9744  0.1774
  191SAPI  H13R22107   1.543   5.009   4.244  0.1741 -2.0093 -0.9060
  191SAPI  H13S22108   1.412   5.069   4.350  0.0715 -0.4986 -0.0652
  191SAPI  C21422109   1.460   5.203   4.184  0.3070 -0.5535 -0.6146
  191SAPI  H14R22110   1.474   5.201   4.074  2.3363 -0.0614 -0.4031
  191SAPI  C21522111   1.460   5.321   4.244 -0.9339 -0.2185  0.2548
  191SAPI  H15R22112   1.450   5.409   4.179 -1.6754 -1.1026 -0.8697
  191SAPI  C21622113   1.455   5.340   4.396 -0.0211  0.0636  0.3560
  191SAPI  H16R22114   1.478   5.446   4.423 -0.0252  0.5375 -1.4005
  191SAPI  H16S22115   1.529   5.274   4.447  0.6354  0.2015 -0.4078
  191SAPI  C21722116   1.315   5.309   4.453  0.4491  0.4873 -0.0755
  191SAPI  H17R22117   1.276   5.215   4.409  1.4540  0.2471 -0.4915
  191SAPI  H17S22118   1.247   5.389   4.419  0.2294  0.5294  0.4508
  191SAPI  C21822119   1.318   5.296   4.611  0.2385 -0.1564 -0.4359
  191SAPI  H18R22120   1.372   5.381   4.658  1.5557 -0.9776 -0.4004
  191SAPI  H18S22121   1.386   5.211   4.633  1.3247 -0.1103 -3.1492
  191SAPI  C21922122   1.183   5.283   4.672  0.5534 -0.0242 -0.4645
  191SAPI  H19R22123   1.132   5.196   4.624  1.2882 -0.8097  0.1532
  191SAPI  H19S22124   1.128   5.373   4.639  1.7328  0.1038 -2.2360
  191SAPI  C22022125   1.185   5.264   4.826 -0.5132  0.1621  0.4858
  191SAPI  H20R22126   1.218   5.158   4.834 -2.1971 -0.5138 -0.8478
  191SAPI  H20S22127   1.085   5.283   4.871  0.2881  2.3832  1.4631
  191SAPI  H20T22128   1.266   5.326   4.871 -0.3376 -0.3352  0.8628
  191SAPI   C3322129   0.680   4.715   3.559 -0.6138  0.0366 -0.5496
  191SAPI   H3X22130   0.572   4.714   3.532 -0.7606  0.6596 -0.0276
  191SAPI   H3Y22131   0.725   4.816   3.564  2.2926 -1.1782 -0.2437
  191SAPI   C3422132   0.689   4.641   3.697  0.5779  0.0883  1.1276
  191SAPI   H4X22133   0.793   4.642   3.735  1.2221 -2.9499 -0.2650
  191SAPI   H4Y22134   0.670   4.532   3.702  0.0952  0.1202  0.0918
  191SAPI   C3522135   0.593   4.721   3.787  0.1648 -0.0933 -0.5429
  191SAPI   H5X22136   0.493   4.711   3.740  0.0484 -2.6805  0.1045
  191SAPI   H5Y22137   0.618   4.829   3.776 -1.4327  0.3396 -0.1965
  191SAPI   C3622138   0.568   4.669   3.926 -0.2327  0.2987 -0.0024
  191SAPI   H6X22139   0.533   4.564   3.929  3.4141 -1.0667  2.1405
  191SAPI   H6Y22140   0.487   4.731   3.969 -0.4657  1.6074 -2.1930
  191SAPI   C3722141   0.694   4.675   4.010 -0.0436  0.3498 -0.3466
  191SAPI   H7X22142   0.719   4.783   4.018  1.9813  0.0174 -1.4966
  191SAPI   H7Y22143   0.778   4.630   3.953  0.5643  0.3949  0.4958
  191SAPI   C3822144   0.679   4.623   4.155  0.2872  0.0088  0.3484
  191SAPI   H8X22145   0.617   4.531   4.144 -4.9109  3.0323  0.5584
  191SAPI   H8Y22146   0.614   4.697   4.206 -0.6359 -1.2534  1.0609
  191SAPI   C3922147   0.808   4.588   4.232  0.1478 -0.1395  0.5750
  191SAPI   H9X22148   0.861   4.682   4.261 -2.1203  0.7729  2.1119
  191SAPI   H9Y22149   0.875   4.535   4.162 -0.7956 -1.7686  0.8558
  191SAPI  C31022150   0.780   4.500   4.358  0.2822  0.4092 -0.3607
  191SAPI  H10X22151   0.877   4.501   4.413  0.8323 -2.0438 -1.1510
  191SAPI  H10Y22152   0.761   4.392   4.338 -1.1735  1.0011 -2.4424
  191SAPI  C31122153   0.667   4.559   4.447 -0.4178  0.0871 -0.6577
  191SAPI  H11X22154   0.566   4.564   4.401 -0.8070  0.5289  0.2188
  191SAPI  H11Y22155   0.702   4.662   4.468 -2.3596  0.6260  0.1573
  191SAPI  C31222156   0.646   4.478   4.578  0.5513 -0.2929 -0.3262
  191SAPI  H12X22157   0.734   4.451   4.639  0.3799 -0.6477 -0.2368
  191SAPI  H12Y22158   0.610   4.380   4.540  0.2112 -0.0921 -0.5296
  191SAPI  C31322159   0.542   4.541   4.683 -0.2288 -0.5383  0.4780
  191SAPI  H13X22160   0.450   4.553   4.622 -0.7113  2.4533  1.6093
  191SAPI  H13Y22161   0.571   4.642   4.718 -0.7510 -0.3707  0.4324
  191SAPI  C31422162   0.536   4.449   4.799  0.2043  0.2271  0.1334
  191SAPI  H14X22163   0.636   4.426   4.840  1.4270  0.1633 -2.6951
  191SAPI  H14Y22164   0.488   4.356   4.762 -0.0381  0.6183 -0.5475
  191SAPI  C31522165   0.443   4.502   4.906  0.8307 -0.2866  0.0451
  191SAPI  H15X22166   0.411   4.419   4.973  0.0928  1.8143  2.4560
  191SAPI  H15Y22167   0.361   4.560   4.858  0.5336 -0.7584 -0.0255
  191SAPI  C31622168   0.514   4.597   4.997 -0.0025  0.0759  0.5447
  191SAPI  H16X22169   0.561   4.685   4.948  0.6550 -0.9576 -0.7221
  191SAPI  H16Y22170   0.608   4.557   5.041 -0.5496  0.9285  2.6207
  191SAPI  C31722171   0.411   4.648   5.099 -0.3663 -0.1294 -0.2728
  191SAPI  H17X22172   0.355   4.558   5.133  0.5159 -0.2998  0.8349
  191SAPI  H17Y22173   0.339   4.710   5.044 -0.4274  0.7417  0.7561
  191SAPI  C31822174   0.465   4.729   5.217  0.2982  0.3186 -0.2331
  191SAPI  H18X22175   0.392   4.738   5.301  0.0962  1.1815 -0.4941
  191SAPI  H18Y22176   0.481   4.834   5.184 -1.9317  0.9956  0.6184
  191SAPI  H18Z22177   0.556   4.684   5.261  0.0351  0.9589  1.0181
  192SAPI   C1222178   4.751   5.528   2.672  0.7001 -0.5160 -0.1738
  192SAPI    H222179   4.749   5.516   2.782  0.4682 -0.0604 -0.1251
  192SAPI    O222180   4.634   5.470   2.614 -0.0013  0.1651  0.1763
  192SAPI   HO222181   4.586   5.417   2.678 -1.6065 -0.4437 -1.4524
  192SAPI   C1322182   4.747   5.679   2.642 -0.5953  1.1068 -0.2916
  192SAPI    H322183   4.841   5.730   2.673  0.6457 -0.0434 -1.9807
  192SAPI    O322184   4.641   5.739   2.714  0.8433  0.2670 -0.0483
  192SAPI   HO322185   4.565   5.681   2.718 -2.4970  4.1753  0.2767
  192SAPI   C1422186   4.738   5.698   2.496 -0.4369  0.5451  0.3440
  192SAPI    H422187   4.633   5.669   2.476  0.2526 -1.4740 -0.5684
  192SAPI    O422188   4.741   5.836   2.452 -0.3560 -0.1744 -0.1449
  192SAPI   HO422189   4.822   5.874   2.486 -1.1971  1.8885 -0.3200
  192SAPI   C1522190   4.823   5.608   2.414 -0.0250  0.1464 -0.0600
  192SAPI    H522191   4.913   5.672   2.400  0.1013 -0.2723 -1.3237
  192SAPI    O522192   4.763   5.582   2.287  0.0397  0.6537  0.3452
  192SAPI   HO522193   4.826   5.547   2.223 -1.6768 -1.5882 -0.2545
  192SAPI   C1622194   4.879   5.475   2.466  0.0374 -0.1446 -0.1543
  192SAPI    H622195   4.808   5.398   2.427  0.6795  0.3475 -2.4351
  192SAPI    O622196   5.003   5.439   2.410  0.0030 -0.1710  0.3828
  192SAPI   HO622197   5.054   5.377   2.462  0.4306 -0.5396 -0.4747
  192SAPI   C1122198   4.874   5.456   2.618  0.5166  0.7059 -0.1587
  192SAPI    H122199   4.961   5.516   2.655  0.1566  1.6780 -0.8594
  192SAPI     P22200   5.029   5.252   2.691 -0.2101  0.0469 -0.1552
  192SAPI   O1322201   5.130   5.292   2.583 -0.3689 -0.0070 -0.4018
  192SAPI   O1422202   5.007   5.106   2.703 -0.4774 -0.0146 -0.5131
  192SAPI   O1222203   4.882   5.321   2.653 -0.3203 -0.2346  0.5008
  192SAPI   O1122204   5.076   5.312   2.833  1.1124 -0.4798 -0.0723
  192SAPI    C122205   5.162   5.419   2.852 -0.9948  0.0234 -0.4736
  192SAPI    HA22206   5.267   5.387   2.838 -0.4979  2.0274 -1.7108
  192SAPI    HB22207   5.154   5.496   2.773  0.1541  0.2196 -0.4125
  192SAPI    C222208   5.125   5.500   2.983  0.1143 -0.0292 -0.3443
  192SAPI    HS22209   5.194   5.587   2.989 -1.2976  1.2514 -1.7666
  192SAPI   O2122210   5.142   5.429   3.110  0.3548 -0.2225  0.1465
  192SAPI   C2122211   5.257   5.415   3.160  0.1057 -0.0963  0.6504
  192SAPI   O2222212   5.361   5.456   3.110  0.5062  0.0170  0.1554
  192SAPI   C2222213   5.254   5.368   3.304  0.4832 -0.2728  0.6734
  192SAPI   H2R22214   5.177   5.288   3.310  1.1410 -0.9101  0.7124
  192SAPI   H2S22215   5.353   5.322   3.326  2.1525  1.2730 -2.7386
  192SAPI    C322216   4.990   5.575   2.984 -0.5256  0.8885  0.3544
  192SAPI    HX22217   4.910   5.512   3.028 -0.2616  0.4964  0.2783
  192SAPI    HY22218   4.957   5.588   2.878 -1.1882 -0.8420  0.3166
  192SAPI   O3122219   5.001   5.697   3.051  0.6422  0.2613 -0.5047
  192SAPI   C3122220   5.005   5.809   2.977 -0.3019  0.6997 -0.2592
  192SAPI   O3222221   5.034   5.813   2.860  0.3148 -0.2305  0.6441
  192SAPI   C3222222   4.989   5.933   3.058 -0.9208 -0.1172  0.3509
  192SAPI   H2X22223   4.898   5.918   3.120 -0.2098  0.0028  1.4503
  192SAPI   H2Y22224   4.978   6.027   3.000 -0.1366 -0.9472 -1.2013
  192SAPI   C2322225   5.216   5.482   3.395 -0.0557 -0.1946 -0.9591
  192SAPI   H3R22226   5.156   5.437   3.476 -2.9186  2.6783 -1.2666
  192SAPI   H3S22227   5.145   5.550   3.343  1.4679  3.2135  1.0542
  192SAPI   C2422228   5.339   5.562   3.457 -0.0348  1.0886  0.3397
  192SAPI   H4R22229   5.389   5.616   3.374 -1.2167  0.4581 -0.8227
  192SAPI   H4S22230   5.416   5.493   3.499  1.1664  1.7047 -0.7756
  192SAPI   C2522231   5.286   5.664   3.554  0.1660 -0.0505 -0.6937
  192SAPI   H5R22232   5.273   5.768   3.519  3.1574  0.0325 -1.8834
  192SAPI   C2622233   5.265   5.631   3.683  0.2008 -0.5375  0.5211
  192SAPI   H6R22234   5.236   5.711   3.754  0.9968  0.4532 -0.2323
  192SAPI   C2722235   5.278   5.503   3.761 -0.5453  0.4440  0.2404
  192SAPI   H7R22236   5.364   5.507   3.831  1.5908  0.3019 -2.2342
  192SAPI   H7S22237   5.312   5.421   3.694  3.6874 -0.1955  2.8630
  192SAPI   C2822238   5.145   5.471   3.825 -0.1058 -0.1423  0.4298
  192SAPI   H8R22239   5.071   5.419   3.761  1.1620 -0.6449 -0.6826
  192SAPI   C2922240   5.100   5.502   3.947  0.0121 -0.5479 -0.3434
  192SAPI   H9R22241   4.995   5.476   3.966 -0.2629  1.3549  0.9986
  192SAPI  C21022242   5.178   5.581   4.056 -0.1637  0.6136  0.2240
  192SAPI  H10R22243   5.115   5.662   4.101  1.9676  1.8244  1.1600
  192SAPI  H10S22244   5.261   5.637   4.009  0.4306 -0.8968 -0.5837
  192SAPI  C21122245   5.245   5.483   4.153  0.0780  0.5616 -0.0101
  192SAPI  H11R22246   5.346   5.450   4.125 -1.9379 -2.9618 -4.3429
  192SAPI  C21222247   5.207   5.452   4.278  0.7365 -0.2736 -0.2508
  192SAPI  H12R22248   5.245   5.368   4.338  1.2977  1.4613  1.9467
  192SAPI  C21322249   5.076   5.493   4.334  0.8585 -0.8531  0.1822
  192SAPI  H13R22250   5.018   5.401   4.357  0.9828 -0.6195  1.5501
  192SAPI  H13S22251   5.017   5.559   4.267  0.6967 -1.1321  0.0509
  192SAPI  C21422252   5.100   5.579   4.451  0.7126 -0.4551 -0.6643
  192SAPI  H14R22253   5.180   5.653   4.440 -1.3316  1.8872 -0.6679
  192SAPI  C21522254   5.016   5.585   4.562 -0.7080 -0.0912 -0.0395
  192SAPI  H15R22255   5.044   5.656   4.641  2.2504  0.0898 -1.1382
  192SAPI  C21622256   4.891   5.498   4.571  0.4851  0.1471 -0.5806
  192SAPI  H16R22257   4.835   5.475   4.477 -2.5912  0.3579  1.0723
  192SAPI  H16S22258   4.824   5.558   4.635 -0.1827  0.1413 -1.2583
  192SAPI  C21722259   4.925   5.354   4.629 -0.6397 -0.4442 -0.9192
  192SAPI  H17R22260   4.986   5.362   4.721 -1.4878 -0.9408 -0.3004
  192SAPI  H17S22261   4.981   5.298   4.552  1.3779 -1.0504  0.8783
  192SAPI  C21822262   4.798   5.278   4.677  0.1034  0.0835 -0.2656
  192SAPI  H18R22263   4.718   5.301   4.604  0.3409 -1.6436 -1.1307
  192SAPI  H18S22264   4.758   5.321   4.771 -0.2266 -1.7956  0.5067
  192SAPI  C21922265   4.810   5.125   4.686  0.6292  1.0018  0.0269
  192SAPI  H19R22266   4.875   5.087   4.605 -1.1310 -2.0304 -0.0852
  192SAPI  H19S22267   4.709   5.079   4.680  0.0937  1.8230  1.9144
  192SAPI  C22022268   4.857   5.079   4.821  0.1607  0.8180 -0.1393
  192SAPI  H20R22269   4.783   5.107   4.899  1.5630  1.2879  1.0833
  192SAPI  H20S22270   4.950   5.132   4.852  2.1145 -1.6161 -1.4964
  192SAPI  H20T22271   4.879   4.971   4.823 -1.5945  0.4150 -0.9285
  192SAPI   C3322272   5.099   5.941   3.174  0.3655 -0.3988 -0.1449
  192SAPI   H3X22273   5.199   5.968   3.135  0.3056  1.3311  0.8023
  192SAPI   H3Y22274   5.102   5.842   3.224 -1.6080  0.9734  3.0292
  192SAPI   C3422275   5.065   6.055   3.272 -0.6458  0.9582 -0.3200
  192SAPI   H4X22276   5.139   6.034   3.352  1.6517 -3.3688 -3.1480
  192SAPI   H4Y22277   4.969   6.036   3.326  0.3849 -2.5529  0.5854
  192SAPI   C3522278   5.077   6.201   3.220  0.2181  0.4420 -0.4878
  192SAPI   H5X22279   5.011   6.206   3.131  0.1140 -0.9497 -0.5125
  192SAPI   H5Y22280   5.184   6.222   3.201  0.4443 -1.8441 -2.2125
  192SAPI   C3622281   5.022   6.303   3.318 -0.6399  0.4065 -0.3607
  192SAPI   H6X22282   4.920   6.275   3.350  0.0925  2.1752  4.3366
  192SAPI   H6Y22283   5.020   6.401   3.266 -0.0391  1.8236  2.1070
  192SAPI   C3722284   5.113   6.301   3.449  0.1958  0.5735  0.3838
  192SAPI   H7X22285   5.213   6.258   3.425  0.9717  0.9821  2.5764
  192SAPI   H7Y22286   5.076   6.229   3.525  0.0540 -2.8363 -2.6559
  192SAPI   C3822287   5.145   6.444   3.492  0.6445 -0.1253 -0.1965
  192SAPI   H8X22288   5.058   6.514   3.492 -0.4753 -1.4612 -1.2404
  192SAPI   H8Y22289   5.206   6.483   3.408 -1.4637 -2.3086 -2.9557
  192SAPI   C3922290   5.229   6.465   3.620  0.7983 -0.3984 -0.8295
  192SAPI   H9X22291   5.221   6.574   3.641  0.0308 -0.7522  0.9390
  192SAPI   H9Y22292   5.330   6.431   3.590  1.5744  0.0424  1.1101
  192SAPI  C31022293   5.186   6.388   3.740  0.6040 -0.1883  0.6554
  192SAPI  H10X22294   5.175   6.277   3.733 -1.0439 -0.0373  0.4580
  192SAPI  H10Y22295   5.087   6.408   3.786 -0.6019 -5.4261  0.9849
  192SAPI  C31122296   5.291   6.422   3.851  0.5497  0.3659 -0.1337
  192SAPI  H11X22297   5.282   6.525   3.892  0.8235  0.1325  0.5323
  192SAPI  H11Y22298   5.396   6.408   3.817  0.9465 -0.8941  1.4796
  192SAPI  C31222299   5.270   6.342   3.982 -0.6252  0.1379  0.1846
  192SAPI  H12X22300   5.279   6.231   3.973  2.5956  0.4046 -0.9722
  192SAPI  H12Y22301   5.162   6.356   4.007 -0.7551 -0.2603 -0.1339
  192SAPI  C31322302   5.358   6.390   4.102 -0.3586 -0.2407 -0.6065
  192SAPI  H13X22303   5.378   6.500   4.103  1.9994 -0.6056  0.7464
  192SAPI  H13Y22304   5.462   6.354   4.084 -0.3674 -0.0003 -1.1438
  192SAPI  C31422305   5.314   6.337   4.233 -0.0964 -0.1279  0.6634
  192SAPI  H14X22306   5.302   6.227   4.224 -0.3663 -0.0452 -0.0433
  192SAPI  H14Y22307   5.212   6.371   4.260 -0.0394 -0.1090  0.8596
  192SAPI  C31522308   5.403   6.376   4.352  0.5916  0.0481  0.2603
  192SAPI  H15X22309   5.414   6.486   4.350 -0.2052  0.1476  0.7781
  192SAPI  H15Y22310   5.501   6.332   4.325  1.1821  1.1761  0.5078
  192SAPI  C31622311   5.367   6.314   4.484 -0.9488 -0.1492  0.0344
  192SAPI  H16X22312   5.341   6.206   4.479  1.2264 -0.7301  0.4971
  192SAPI  H16Y22313   5.277   6.372   4.514 -1.1529 -0.3142 -0.2554
  192SAPI  C31722314   5.469   6.327   4.597  0.2640 -0.7976 -0.1924
  192SAPI  H17X22315   5.484   6.434   4.621 -1.8377 -0.5231  0.1684
  192SAPI  H17Y22316   5.561   6.274   4.567  0.3506 -1.3333  0.9765
  192SAPI  C31822317   5.423   6.275   4.732 -0.3604 -0.5552  0.1716
  192SAPI  H18X22318   5.436   6.165   4.740  2.1299 -0.3207  0.1203
  192SAPI  H18Y22319   5.316   6.304   4.743 -0.2705  0.6251 -1.6676
  192SAPI  H18Z22320   5.497   6.318   4.804  0.9407 -1.2924 -0.6808
  193SOD    SOD22321   4.095   6.564   7.381  0.0273  0.9923  0.4115
  194SOD    SOD22322   6.509   6.977   0.711 -0.6160  0.0507  0.0732
  195SOD    SOD22323   3.546   3.374   0.927 -0.4617  0.3794  0.0703
  196SOD    SOD22324   6.230   6.407   2.266 -0.2275 -0.4246  0.5753
  197SOD    SOD22325   5.091   3.820   2.764 -0.3406 -0.2162  0.0815
  198SOD    SOD22326   5.113   0.627   1.774  0.1360 -0.0377  0.1706
  199SOD    SOD22327   0.060   1.627   7.475  0.6436 -0.4418  0.2810
  200SOD    SOD22328   1.495   1.051   7.382 -0.7036  0.0293 -0.3279
  201SOD    SOD22329   1.709   2.728   2.516  0.1019  0.5259  0.1317
  202SOD    SOD22330   5.877   5.857   0.782  0.1495 -0.1742  0.1812
  203SOD    SOD22331   5.941   6.717   8.390  0.5800 -0.4024 -0.2511
  204SOD    SOD22332   6.858   3.263   1.012 -0.6002 -0.3277  0.2978
  205SOD    SOD22333   2.087   1.917   0.794 -0.1593 -0.1998 -0.2253
  206SOD    SOD22334   0.499   2.407   7.424  0.5366 -0.4394  0.4582
  207SOD    SOD22335   3.266   2.539   2.412 -0.5567  0.3060 -0.1079
  208SOD    SOD22336   3.713   1.971   7.710 -0.2167 -0.3986  0.2687
  209SOD    SOD22337   5.723   4.685   6.756 -0.1083  0.7324 -0.3650
  210SOD    SOD22338   1.742   6.054   8.246 -0.0502  0.3595 -0.1814
  211SOD    SOD22339   0.620   6.205   1.502 -0.2764 -0.1861 -0.1670
  212SOD    SOD22340   0.215   1.348   2.579  0.5736  0.0212 -0.6288
  213SOD    SOD22341   1.557   2.923   7.330 -0.2856 -0.4213  0.3334
  214SOD    SOD22342   3.378   0.828   6.875  0.3638 -0.5531 -0.5121
  215SOD    SOD22343   0.004   2.930   6.711  0.1794 -0.1383  0.0566
  216SOD    SOD22344   2.463   5.015   8.357 -0.0556 -0.2208  0.3373
  217SOD    SOD22345   1.022   0.865   2.626 -0.1369 -0.1850 -0.0583
  218SOD    SOD22346   3.251   6.887   7.507  0.0280 -0.6072 -0.4573
  219SOD    SOD22347   3.782   4.987   6.769 -0.5591 -0.2834 -0.1688
  220SOD    SOD22348   2.750   5.889   2.014 -0.2336 -0.3975  0.2819
  221SOD    SOD22349   2.000   1.330   0.282  0.2275  0.1871 -0.5722
  222SOD    SOD22350   4.278   6.277   2.817 -0.0990  0.5399 -0.4916
  223SOD    SOD22351   4.102   4.167   2.185 -0.0768  0.2306  0.0224
  224SOD    SOD22352   0.098   5.595   2.197 -0.2294 -0.3086 -0.4475
  225SOD    SOD22353   1.775   4.524   1.893  0.0693  0.4406  1.0122
  226SOD    SOD22354   1.378   2.917   1.342  0.0770  0.0395  0.0750
  227SOD    SOD22355   2.455   5.769   7.403  0.0322 -0.1471  0.0509
  228SOD    SOD22356   5.959   4.776   0.571  0.1924  0.1881 -0.3181
  229SOD    SOD22357   5.136   3.694   2.096  0.1081  0.2356  0.2743
  230CLA    CLA22358   2.293   5.518   0.379  0.0047  0.1425  0.0104
  231CLA    CLA22359   3.890   4.021   1.316  0.2242 -0.3472  0.2861
  232CLA    CLA22360   3.556   3.238   8.404 -0.0543  0.0960 -0.1806
  233CLA    CLA22361   4.983   3.423   1.776  0.1170  0.6673 -0.2859
  234CLA    CLA22362   1.331   1.524   1.695 -0.6247 -0.0951  0.0996
  235CLA    CLA22363   3.751   0.148   2.025 -0.3956  0.1142 -0.0098
  236CLA    CLA22364   6.280   1.149   8.213  0.0053 -0.5822  0.2502
  237CLA    CLA22365   3.596   0.772   7.710  0.2952  0.2818 -0.3875
  238CLA    CLA22366   0.349   5.348   0.958 -0.0784  0.0460  0.0811
  239CLA    CLA22367   3.954   1.131   0.279  0.0756  0.1771 -0.4082
  240CLA    CLA22368   1.690   2.653   7.677 -0.3374  0.0278  0.1639
  241CLA    CLA22369   4.515   2.101   1.836 -0.1213 -0.0973  0.0359
  242CLA    CLA22370   4.396   1.758   0.033 -0.1252 -0.2693  0.0443
  243CLA    CLA22371   2.436   0.718   0.861  0.6603 -0.1782  0.0320
  244CLA    CLA22372   0.576   3.596   1.625  0.1663 -0.5265  0.0716
  245CLA    CLA22373   0.587   0.517   1.099 -0.2410 -0.4216 -0.2330
  246CLA    CLA22374   3.823   5.803   1.530  0.4271  0.0495  0.2090
  247TIP3   OH222375   3.822   6.717   7.692  0.0693 -0.5850  0.3478
  247TIP3    H122376   3.854   6.654   7.757  0.4599 -0.7109  0.0428
  247TIP3    H222377   3.787   6.789   7.743 -0.0329 -0.8828  0.7017
  248TIP3   OH222378   0.668   4.924   0.620  0.6598 -0.7970 -0.1458
  248TIP3    H122379   0.707   4.962   0.699 -0.9466  0.1344  0.2355
  248TIP3    H222380   0.731   4.857   0.593  1.8558 -0.2755  1.1941
  249TIP3   OH222381   4.977   4.181   1.397  0.0294  0.1579  0.0549
  249TIP3    H122382   4.921   4.138   1.461  0.7816 -0.2779  0.4269
  249TIP3    H222383   5.066   4.166   1.428  0.4296 -0.4234 -1.3079
  250TIP3   OH222384   0.440   4.783   2.780 -0.0878 -0.2236  0.3233
  250TIP3    H122385   0.475   4.849   2.839 -0.2544  0.8731 -0.7868
  250TIP3    H222386   0.435   4.825   2.695 -3.1815 -0.5769  0.1942
  251TIP3   OH222387   5.539   6.367   7.505 -0.3492  0.3210 -0.4315
  251TIP3    H122388   5.496   6.321   7.578 -0.8291 -0.7919 -1.3777
  251TIP3    H222389   5.467   6.393   7.447  0.1517 -1.1698 -1.8150
  252TIP3   OH222390   4.048   5.069   2.245  0.1952 -0.3257  0.0901
  252TIP3    H122391   4.058   5.084   2.339  1.8296  1.6501 -0.3243
  252TIP3    H222392   4.124   5.015   2.222  0.0740 -0.3836 -0.1758
  253TIP3   OH222393   0.252   5.816   7.715  0.1411 -0.0386  1.0678
  253TIP3    H122394   0.195   5.757   7.667 -0.3071  0.0050  1.5442
  253TIP3    H222395   0.212   5.824   7.801  1.1893 -0.4892  1.6172
  254TIP3   OH222396   0.359   1.389   7.994 -0.5049 -0.5307  0.6656
  254TIP3    H122397   0.415   1.421   7.924  0.6811  0.1400  1.8828
  254TIP3    H222398   0.328   1.468   8.038 -0.5022 -0.9578  1.4537
  255TIP3   OH222399   0.942   4.080   0.654  0.3464  0.1772 -0.4420
  255TIP3    H122400   0.908   4.028   0.726  0.4588 -0.9616 -1.1940
  255TIP3    H222401   0.995   4.019   0.603 -0.0931  0.8502 -1.7401
  256TIP3   OH222402   6.881   6.323   2.190  0.1578 -0.5871 -0.0429
  256TIP3    H122403   6.871   6.397   2.250 -2.3871  1.0480 -2.2339
  256TIP3    H222404   6.920   6.361   2.112 -0.8430 -1.6060 -1.0698
  257TIP3   OH222405   6.800   0.507   6.862  0.3570 -0.7003 -0.0216
  257TIP3    H122406   6.876   0.452   6.883 -1.0530 -2.5816  0.4348
  257TIP3    H222407   6.788   0.496   6.768  0.3295 -0.8360 -0.0024
  258TIP3   OH222408   5.810   2.719   6.623  0.2904 -0.4216  0.0786
  258TIP3    H122409   5.742   2.653   6.608 -0.9084  0.6875  0.4441
  258TIP3    H222410   5.891   2.669   6.633 -0.2320 -1.7097 -1.6406
  259TIP3   OH222411   6.206   2.594   2.098 -0.5142 -0.0617  0.4916
  259TIP3    H122412   6.140   2.535   2.063 -0.2082  1.5084 -3.2198
  259TIP3    H222413   6.286   2.541   2.102 -0.9764 -0.7668  0.6742
  260TIP3   OH222414   6.815   6.932   0.918 -0.3507 -0.2571 -0.1942
  260TIP3    H122415   6.857   6.876   0.853  0.3392 -0.9308  0.8024
  260TIP3    H222416   6.887   6.980   0.959 -0.8174  0.4645 -0.1909
  261TIP3   OH222417   0.357   6.225   0.906 -0.3878  0.8292  0.2922
  261TIP3    H122418   0.413   6.150   0.889 -2.3405 -0.4664 -0.7755
  261TIP3    H222419   0.402   6.298   0.863  0.4420 -0.1559 -0.5762
  262TIP3   OH222420   1.136   1.341   0.184 -0.4393 -0.1781 -0.1336
  262TIP3    H122421   1.149   1.258   0.137 -1.4694 -1.0600  1.0564
  262TIP3    H222422   1.128   1.315   0.276 -1.5810  1.1519  0.1733
  263TIP3   OH222423   4.577   0.534   7.543 -0.0173 -0.6029  0.5000
  263TIP3    H122424   4.648   0.471   7.526  0.9739  0.3672  0.9439
  263TIP3    H222425   4.619   0.619   7.537 -1.4277  0.0634 -0.5002
  264TIP3   OH222426   6.423   3.961   2.157 -0.1053 -0.7862  0.1346
  264TIP3    H122427   6.393   3.904   2.227 -1.9018  0.3270  0.3587
  264TIP3    H222428   6.444   4.044   2.201  0.0785 -0.5062 -0.4699
  265TIP3   OH222429   5.790   3.746   6.682 -0.3961  0.0314  0.5594
  265TIP3    H122430   5.784   3.745   6.587  3.0200  0.6020  0.2281
  265TIP3    H222431   5.710   3.702   6.712 -1.1550 -0.9229 -2.5579
  266TIP3   OH222432   2.143   6.233   1.995  0.8296  0.4450  0.4685
  266TIP3    H122433   2.085   6.161   2.021  0.6200  1.1360  2.0498
  266TIP3    H222434   2.086   6.310   1.991  0.8826  0.4385 -2.0374
  267TIP3   OH222435   1.511   4.455   1.485  0.4312 -0.3792  0.0416
  267TIP3    H122436   1.450   4.504   1.430  0.7948  1.4990  1.2085
  267TIP3    H222437   1.576   4.520   1.513  0.1449 -1.1466  2.8506
  268TIP3   OH222438   6.755   5.775   3.260  0.0232 -0.0976 -0.1107
  268TIP3    H122439   6.698   5.778   3.183 -1.1150 -1.3658  0.6445
  268TIP3    H222440   6.804   5.694   3.250  0.7133  0.3065 -0.0577
  269TIP3   OH222441   0.899   2.839   0.710 -0.6127 -0.6391 -0.0641
  269TIP3    H122442   0.855   2.854   0.626 -0.8761 -0.9642  0.0197
  269TIP3    H222443   0.950   2.919   0.724 -0.3071 -0.7171 -0.6979
  270TIP3   OH222444   6.678   4.922   8.201  0.2867  0.0831 -0.1852
  270TIP3    H122445   6.612   4.856   8.181  0.5913 -0.6675  1.1779
  270TIP3    H222446   6.758   4.888   8.162  0.4485 -0.3786  0.5350
  271TIP3   OH222447   1.706   3.066   7.250  0.7722 -0.5845 -0.1718
  271TIP3    H122448   1.795   3.081   7.282  1.0723  0.5077 -1.4474
  271TIP3    H222449   1.678   3.150   7.215 -0.3159 -1.2200 -0.9019
  272TIP3   OH222450   0.741   6.369   2.961 -0.1646 -0.0874 -1.0024
  272TIP3    H122451   0.716   6.337   2.875  1.3415 -0.9955 -1.1463
  272TIP3    H222452   0.782   6.293   3.004  0.4143  0.7341 -0.0480
  273TIP3   OH222453   3.866   5.231   6.427 -0.2910 -0.0288 -0.6969
  273TIP3    H122454   3.778   5.213   6.393 -0.5783  0.3886 -0.1925
  273TIP3    H222455   3.901   5.145   6.449 -1.8938 -0.0406  2.3164
  274TIP3   OH222456   3.531   3.907   0.433  0.5186 -0.0503 -0.0553
  274TIP3    H122457   3.568   3.988   0.467  0.9363 -0.8824  1.5593
  274TIP3    H222458   3.504   3.929   0.343  2.1732  1.3956 -0.2586
  275TIP3   OH222459   6.427   2.733   0.801  0.0011  0.4297 -0.7228
  275TIP3    H122460   6.472   2.797   0.857 -0.5709 -0.5812  0.9678
  275TIP3    H222461   6.368   2.686   0.861 -0.3658 -0.9653 -2.1142
  276TIP3   OH222462   3.758   2.296   0.354  0.3848  0.1530 -0.1106
  276TIP3    H122463   3.687   2.280   0.292 -0.7898  2.4952  0.4842
  276TIP3    H222464   3.818   2.355   0.307  1.1475 -0.5771 -0.0750
  277TIP3   OH222465   2.036   6.630   7.355  0.6371 -0.1939 -0.1266
  277TIP3    H122466   2.016   6.686   7.280 -0.7889  1.6947  1.5103
  277TIP3    H222467   1.989   6.549   7.338 -1.5734  1.0305 -0.3466
  278TIP3   OH222468   0.779   1.160   2.431 -0.0294 -0.8286  0.0032
  278TIP3    H122469   0.840   1.145   2.504  0.2963 -0.3215 -0.1597
  278TIP3    H222470   0.763   1.073   2.395  1.3114 -0.8753 -0.5243
  279TIP3   OH222471   3.563   4.896   8.233  0.6348 -0.0600 -0.0564
  279TIP3    H122472   3.489   4.952   8.211  0.4888 -0.6982 -1.2771
  279TIP3    H222473   3.561   4.891   8.329 -1.2295 -0.4819 -0.0693
  280TIP3   OH222474   2.930   6.762   0.717  0.0031  0.1608 -0.0099
  280TIP3    H122475   2.858   6.790   0.773 -0.3871  2.9355 -1.6918
  280TIP3    H222476   3.006   6.812   0.747  1.2034 -2.2886  1.3551
  281TIP3   OH222477   6.454   6.231   0.473 -0.1503 -0.1978 -0.0733
  281TIP3    H122478   6.465   6.247   0.380  1.1053 -0.3526  0.0237
  281TIP3    H222479   6.543   6.212   0.505 -0.4421  0.5575  1.2888
  282TIP3   OH222480   2.915   3.726   8.106  0.3090 -0.1437  0.2270
  282TIP3    H122481   2.896   3.677   8.187  1.3744 -0.9536  0.0137
  282TIP3    H222482   3.009   3.741   8.109  0.4416 -0.5972 -1.0841
  283TIP3   OH222483   3.688   1.150   7.963 -0.3264 -0.3476  0.1610
  283TIP3    H122484   3.744   1.198   8.025 -2.3270  0.4047  1.4901
  283TIP3    H222485   3.623   1.106   8.018 -0.6475 -1.7698 -1.2783
  284TIP3   OH222486   2.402   3.601   1.279  0.2631 -0.2876 -0.3901
  284TIP3    H122487   2.482   3.600   1.332  0.6749  1.6329 -0.8949
  284TIP3    H222488   2.426   3.553   1.199  1.7040  2.1065 -1.5085
  285TIP3   OH222489   4.369   6.225   2.312  0.2117  0.1729 -0.7276
  285TIP3    H122490   4.393   6.253   2.223  0.8683  0.1557 -0.5661
  285TIP3    H222491   4.378   6.130   2.310  0.2360  0.1733 -0.6434
  286TIP3   OH222492   1.604   5.458   0.803 -0.0120  0.5987  0.1532
  286TIP3    H122493   1.547   5.383   0.821  0.9190  0.4179  2.7909
  286TIP3    H222494   1.657   5.431   0.728 -0.3125 -1.0222  0.4912
  287TIP3   OH222495   3.794   3.875   0.983  0.5693  0.2134 -0.2218
  287TIP3    H122496   3.747   3.889   0.900 -0.5394  0.8502  0.4776
  287TIP3    H222497   3.786   3.959   1.029  1.4340 -0.0378  0.4087
  288TIP3   OH222498   3.145   3.152   1.689  0.6510 -0.0518 -0.3152
  288TIP3    H122499   3.136   3.114   1.602  1.1378 -3.3702  0.9381
  288TIP3    H222500   3.231   3.195   1.687  0.9442 -0.6428 -1.3146
  289TIP3   OH222501   1.426   6.616   0.873 -0.1062 -0.5858 -0.3971
  289TIP3    H122502   1.371   6.693   0.884 -0.0707 -0.5921 -0.1607
  289TIP3    H222503   1.371   6.543   0.901  1.3722 -0.2228  4.4200
  290TIP3   OH222504   3.412   2.033   2.141  0.7204 -0.4526 -0.4863
  290TIP3    H122505   3.360   2.010   2.217  0.4419  0.4605 -0.3867
  290TIP3    H222506   3.427   1.950   2.095 -2.8030 -0.5334 -1.7818
  291TIP3   OH222507   4.067   0.352   1.213  0.3820  0.4527  0.5987
  291TIP3    H122508   4.060   0.334   1.307 -0.7178  0.8594  0.6112
  291TIP3    H222509   4.081   0.447   1.208 -0.4048  0.5620  0.3365
  292TIP3   OH222510   1.138   3.447   2.363  0.2721  0.2162 -0.1285
  292TIP3    H122511   1.172   3.491   2.285 -0.3142  1.5516  0.3448
  292TIP3    H222512   1.172   3.358   2.357  1.7067  0.7889 -0.9969
  293TIP3   OH222513   3.848   3.122   8.168  0.2654  0.4852  0.1677
  293TIP3    H122514   3.934   3.135   8.129  0.2304  0.0553 -0.0630
  293TIP3    H222515   3.798   3.199   8.142 -0.1321 -0.3560 -1.6873
  294TIP3   OH222516   4.986   2.356   0.855  0.1349  0.6153  0.2436
  294TIP3    H122517   5.002   2.405   0.774 -0.7898 -0.7721 -0.8392
  294TIP3    H222518   4.918   2.405   0.900  0.6208  1.3756  0.1639
  295TIP3   OH222519   2.396   1.843   1.220  0.0413  0.1497  0.4286
  295TIP3    H122520   2.425   1.890   1.298  1.5652 -1.5301  0.9203
  295TIP3    H222521   2.368   1.758   1.252 -0.0630 -0.2859 -0.7694
  296TIP3   OH222522   5.561   0.703   0.580  0.4920  0.1262  0.8406
  296TIP3    H122523   5.476   0.726   0.542  1.9484  2.3112 -1.4285
  296TIP3    H222524   5.581   0.616   0.544 -1.2008 -0.9273  2.3064
  297TIP3   OH222525   3.262   6.854   7.735 -0.0889 -0.0014  0.1449
  297TIP3    H122526   3.332   6.897   7.786 -0.6916  0.3437  0.6991
  297TIP3    H222527   3.267   6.762   7.762  0.4319 -0.0659 -0.1487
  298TIP3   OH222528   3.827   5.268   2.270  0.3813  0.1688  0.1541
  298TIP3    H122529   3.866   5.300   2.351 -0.0538 -0.9888  0.8499
  298TIP3    H222530   3.881   5.192   2.246  0.2277  0.2283 -0.3980
  299TIP3   OH222531   3.271   4.443   2.791 -0.0763  0.1367 -0.5376
  299TIP3    H122532   3.291   4.537   2.789  0.2817  0.0665 -0.3661
  299TIP3    H222533   3.221   4.427   2.711  1.0992  0.1957 -1.2936
  300TIP3   OH222534   2.902   3.718   0.708 -0.2454 -0.5213  0.1912
  300TIP3    H122535   2.829   3.720   0.646  0.1135  0.9341 -0.2211
  300TIP3    H222536   2.864   3.749   0.790 -0.1893 -0.1354  0.0746
  301TIP3   OH222537   3.727   2.949   0.813 -0.6793 -0.2376  0.0014
  301TIP3    H122538   3.815   2.914   0.825 -1.1477 -1.2013  0.7681
  301TIP3    H222539   3.704   2.926   0.723 -0.0913  0.1516 -0.2485
  302TIP3   OH222540   3.751   4.485   0.202  0.3552  1.1176 -0.4441
  302TIP3    H122541   3.666   4.444   0.188  0.9865 -0.1764 -0.6336
  302TIP3    H222542   3.754   4.557   0.139 -0.8599  1.6054  0.0350
  303TIP3   OH222543   0.757   0.236   6.858  0.2318  0.1626 -0.7325
  303TIP3    H122544   0.705   0.264   6.783 -1.6027 -0.2651  0.3116
  303TIP3    H222545   0.758   0.141   6.852 -0.3771  0.0964  0.0340
  304TIP3   OH222546   4.797   1.121   1.878  0.1304 -0.1583 -0.5721
  304TIP3    H122547   4.819   1.201   1.926 -0.3772 -0.4235  0.1382
  304TIP3    H222548   4.742   1.071   1.940  0.5840 -1.1332 -0.9311
  305TIP3   OH222549   0.176   1.623   1.362 -0.3646 -0.1106  0.3313
  305TIP3    H122550   0.181   1.647   1.454  0.1681  0.1817  0.2311
  305TIP3    H222551   0.083   1.634   1.339 -0.0816  2.6426  0.0979
  306TIP3   OH222552   6.489   0.066   2.847 -0.0698  0.3208 -0.4810
  306TIP3    H122553   6.469   0.128   2.917  0.3939 -0.0891  0.0241
  306TIP3    H222554   6.434  -0.010   2.867 -0.5173  0.5081 -1.0053
  307TIP3   OH222555   5.026   4.162   7.170  0.5886  0.0424  0.5727
  307TIP3    H122556   5.011   4.075   7.134 -0.5150  0.4175  0.0739
  307TIP3    H222557   4.941   4.189   7.204  0.7835  1.1251  0.2624
  308TIP3   OH222558   4.475   3.551   2.057 -0.1812 -0.4840 -0.0926
  308TIP3    H122559   4.475   3.594   1.971 -0.9332  0.8132  0.5256
  308TIP3    H222560   4.403   3.487   2.051 -0.7649  0.1720 -0.1657
  309TIP3   OH222561   5.688   1.401   2.209 -0.6043  0.7809  0.4312
  309TIP3    H122562   5.622   1.344   2.170 -3.2194  2.9403  1.3892
  309TIP3    H222563   5.676   1.389   2.303  1.1539  0.4532  0.6412
  310TIP3   OH222564   2.763   3.303   1.225 -0.7655  0.0438 -0.7800
  310TIP3    H122565   2.776   3.397   1.213 -0.9998  0.3417  1.0474
  310TIP3    H222566   2.673   3.296   1.256 -0.4233 -0.6746  0.0769
  311TIP3   OH222567   2.292   2.655   0.110 -0.1926 -0.0915  0.5328
  311TIP3    H122568   2.349   2.655   0.187  0.6327  0.3035 -0.0522
  311TIP3    H222569   2.246   2.571   0.114 -0.1529 -0.0755  1.4487
  312TIP3   OH222570   3.688   4.104   0.547  0.0357 -0.6338 -0.5255
  312TIP3    H122571   3.755   4.108   0.479 -0.0783  0.1819 -0.6093
  312TIP3    H222572   3.680   4.195   0.577  0.5550 -1.0755  1.0382
  313TIP3   OH222573   2.171   6.226   3.048 -0.1684 -0.3843  0.1485
  313TIP3    H122574   2.193   6.162   3.116  0.9186 -0.3546 -0.1471
  313TIP3    H222575   2.086   6.199   3.015  0.2844 -1.6919  0.0125
  314TIP3   OH222576   6.598   5.934   0.281  0.0420  0.1251 -0.0922
  314TIP3    H122577   6.557   5.953   0.196 -1.1499  1.0679  0.6591
  314TIP3    H222578   6.692   5.935   0.263 -0.1492  1.3319 -1.1999
  315TIP3   OH222579   4.608   5.021   2.193  0.0501  0.2182  0.7933
  315TIP3    H122580   4.582   5.112   2.186  0.3970  0.3800  1.4541
  315TIP3    H222581   4.623   4.992   2.103 -2.9586 -0.0769  0.2752
  316TIP3   OH222582   0.396   4.347   2.147 -0.5705 -0.8415 -0.6008
  316TIP3    H122583   0.430   4.360   2.236  1.3870 -2.1162 -1.0934
  316TIP3    H222584   0.366   4.257   2.145 -1.8796 -0.4198 -0.8778
  317TIP3   OH222585   6.701   1.845   0.514  0.2715  0.5985  0.5010
  317TIP3    H122586   6.708   1.910   0.583  3.0390  1.1955 -0.2274
  317TIP3    H222587   6.792   1.821   0.493 -0.5477 -1.2822 -1.3256
  318TIP3   OH222588   5.389   4.700   7.930  0.4316  0.2360 -0.5568
  318TIP3    H122589   5.452   4.632   7.955 -0.3644 -0.9992 -1.7321
  318TIP3    H222590   5.417   4.778   7.977  2.6187 -0.3640 -0.7735
  319TIP3   OH222591   5.395   6.400   1.862 -0.1998 -0.2471  0.4227
  319TIP3    H122592   5.372   6.371   1.774  0.6336 -1.8204  0.6972
  319TIP3    H222593   5.324   6.366   1.917 -0.0648 -0.3477  0.5320
  320TIP3   OH222594   6.391   2.321   2.413 -0.1361  0.7040  0.5734
  320TIP3    H122595   6.332   2.252   2.445 -0.5736  0.5887 -0.4415
  320TIP3    H222596   6.420   2.366   2.492  0.7879 -1.1335  1.3551
  321TIP3   OH222597   5.435   0.482   1.037 -0.5326  0.1663 -0.7455
  321TIP3    H122598   5.508   0.429   1.071 -0.7812 -1.0898 -2.0773
  321TIP3    H222599   5.399   0.525   1.114  1.0542  0.1163  0.0712
  322TIP3   OH222600   1.287   2.671   7.985  0.0327  0.4266  0.4999
  322TIP3    H122601   1.345   2.748   7.987 -0.0309  0.5190 -0.5076
  322TIP3    H222602   1.201   2.705   8.012  0.2095  0.5140  0.9561
  323TIP3   OH222603   0.433   2.301   0.841  0.2330 -0.2687 -0.2797
  323TIP3    H122604   0.462   2.222   0.887 -0.4383 -0.6483 -0.5003
  323TIP3    H222605   0.468   2.291   0.752 -1.6448 -1.3840 -0.9482
  324TIP3   OH222606   5.150   1.422   2.121  0.3303 -0.0239 -0.1916
  324TIP3    H122607   5.120   1.463   2.203  2.3400 -1.4248  1.3441
  324TIP3    H222608   5.174   1.496   2.065  0.2507  0.9742  1.0473
  325TIP3   OH222609   5.440   6.095   7.826 -0.1191  0.4008  0.4687
  325TIP3    H122610   5.417   6.092   7.733  1.0565  1.1398  0.1343
  325TIP3    H222611   5.356   6.105   7.871 -0.5945  1.4922 -0.6040
  326TIP3   OH222612   4.448   2.016   0.228 -0.0297  0.0001  0.3683
  326TIP3    H122613   4.424   1.949   0.164  1.0374  0.8403 -0.9626
  326TIP3    H222614   4.508   2.074   0.181  0.3297  0.9876  1.9636
  327TIP3   OH222615   3.914   4.334   2.520  0.0012 -0.0311  0.0861
  327TIP3    H122616   3.933   4.393   2.447  2.2009  1.7288  1.9391
  327TIP3    H222617   3.835   4.371   2.560  0.0581  0.2846 -0.0899
  328TIP3   OH222618   6.823   0.241   7.026  0.3837 -0.0646 -0.1078
  328TIP3    H122619   6.854   0.153   7.048 -1.0530 -0.4086  0.6969
  328TIP3    H222620   6.902   0.289   7.002  1.4208 -1.1125  1.0457
  329TIP3   OH222621   4.159   1.913   8.340 -0.2741 -0.3376  0.1270
  329TIP3    H122622   4.193   1.973   8.273  0.6705 -1.0491 -0.0673
  329TIP3    H222623   4.237   1.884   8.387 -1.0717  1.9575  3.1801
  330TIP3   OH222624   1.508   5.796   1.358  0.1313 -0.0100 -0.8482
  330TIP3    H122625   1.456   5.874   1.376  0.7344  0.5116 -1.3190
  330TIP3    H222626   1.494   5.778   1.266 -3.2353 -2.8990  0.0481
  331TIP3   OH222627   5.363   3.135   6.616  0.1953 -0.1871 -0.1367
  331TIP3    H122628   5.428   3.204   6.606  2.8367 -2.1262  2.2431
  331TIP3    H222629   5.314   3.159   6.695 -1.4877  0.7701 -1.3907
  332TIP3   OH222630   6.452   3.563   1.219  0.0128  0.1708  0.1529
  332TIP3    H122631   6.450   3.624   1.293 -0.8744  0.0790  0.2160
  332TIP3    H222632   6.493   3.613   1.148 -0.5516  0.7875  0.2546
  333TIP3   OH222633   1.371   1.732   2.719  0.3710 -0.3675  0.5134
  333TIP3    H122634   1.324   1.672   2.660  0.4303 -0.1597  0.2548
  333TIP3    H222635   1.462   1.725   2.692  0.3732 -0.1318  0.4583
  334TIP3   OH222636   1.675   2.690   0.914  0.0219  0.5751 -0.1689
  334TIP3    H122637   1.711   2.670   0.828 -0.2198 -0.4637 -0.0365
  334TIP3    H222638   1.629   2.610   0.941  1.1820  0.4026  1.4875
  335TIP3   OH222639   6.294   6.961   0.796  0.2556  0.4031 -0.2323
  335TIP3    H122640   6.228   7.015   0.839  0.0637  0.0148 -0.0327
  335TIP3    H222641   6.252   6.875   0.786  0.0259  0.6745 -1.8291
  336TIP3   OH222642   2.417   2.220   2.104 -0.2210  0.2657  0.1967
  336TIP3    H122643   2.345   2.204   2.166 -1.5434  1.3480 -0.9789
  336TIP3    H222644   2.416   2.315   2.092 -0.2970  0.0492 -1.7853
  337TIP3   OH222645   5.670   4.057   1.571 -0.2450 -0.4273  0.0442
  337TIP3    H122646   5.673   4.143   1.613 -1.0077 -0.1677 -0.4209
  337TIP3    H222647   5.703   4.074   1.482  1.2751 -0.9530  0.4781
  338TIP3   OH222648   6.003   5.965   0.370 -0.1704 -0.3805 -0.2556
  338TIP3    H122649   5.948   5.932   0.440  1.0228  1.1362  1.5114
  338TIP3    H222650   6.070   6.017   0.415 -0.6415  2.5431 -2.6269
  339TIP3   OH222651   4.243   3.327   0.348  0.1437  0.5772  0.0227
  339TIP3    H122652   4.184   3.398   0.323  0.5163  0.4852 -1.1902
  339TIP3    H222653   4.212   3.252   0.297 -0.0607 -0.0725  1.0682
  340TIP3   OH222654   3.586   2.600   0.033  0.6212  0.3154  0.0528
  340TIP3    H122655   3.531   2.678   0.037 -0.3351 -0.3541  0.5202
  340TIP3    H222656   3.649   2.618  -0.037 -0.1086  1.1652 -0.4098
  341TIP3   OH222657   5.685   3.778   8.068  0.5209  0.8578 -0.5248
  341TIP3    H122658   5.734   3.849   8.109  1.3163  0.3757 -0.6238
  341TIP3    H222659   5.604   3.771   8.120  0.8788  1.1872  0.0887
  342TIP3   OH222660   1.906   2.838   2.546 -0.1437  0.0801  0.5359
  342TIP3    H122661   1.935   2.928   2.561  0.3084 -0.2327  1.5998
  342TIP3    H222662   1.986   2.786   2.546 -0.2899 -0.2140 -1.1731
  343TIP3   OH222663   4.069   0.417   0.599  0.6190 -0.0256 -0.1486
  343TIP3    H122664   4.073   0.512   0.604 -1.7713  0.0756  2.1129
  343TIP3    H222665   4.151   0.387   0.639  0.2681  1.1661  1.6057
  344TIP3   OH222666   5.525   5.926   0.562 -0.1889 -0.4819 -0.3324
  344TIP3    H122667   5.535   5.979   0.641  1.8192 -0.2631 -0.6884
  344TIP3    H222668   5.444   5.957   0.522  0.5006  1.7518 -0.0879
  345TIP3   OH222669   3.690   1.780   0.541  0.4644  0.8616 -0.2301
  345TIP3    H122670   3.750   1.810   0.609  1.4250  1.1490 -1.1762
  345TIP3    H222671   3.728   1.814   0.459 -0.1692 -0.2322 -0.9955
  346TIP3   OH222672   6.025   1.633   2.225 -0.3900 -0.0054  0.1275
  346TIP3    H122673   6.098   1.577   2.249  0.9770  1.6797  0.1239
  346TIP3    H222674   6.007   1.684   2.304  0.9730  2.2031 -0.8614
  347TIP3   OH222675   2.552   0.901   1.536  0.3766 -0.1642 -0.0163
  347TIP3    H122676   2.510   0.815   1.528  0.5684 -0.6069  2.6462
  347TIP3    H222677   2.479   0.962   1.546  0.2691 -0.2950  0.0002
  348TIP3   OH222678   6.915   2.681   0.558 -0.2296 -0.0144 -0.3761
  348TIP3    H122679   6.891   2.630   0.480  1.6757 -1.4510 -0.1035
  348TIP3    H222680   7.010   2.680   0.558 -0.1907  0.8686  1.4164
  349TIP3   OH222681   3.324   2.125   7.462  0.0072 -0.2187 -0.3690
  349TIP3    H122682   3.347   2.185   7.392 -0.9854  1.0882  0.3688
  349TIP3    H222683   3.272   2.057   7.420 -2.6718  1.8233 -0.6383
  350TIP3   OH222684   2.264   4.247   0.532  0.3796 -0.2995 -0.5872
  350TIP3    H122685   2.255   4.222   0.624 -0.2706  2.7215  0.2636
  350TIP3    H222686   2.226   4.173   0.484  0.1345 -1.6781  1.5534
  351TIP3   OH222687   3.342   5.664   7.504  0.6752  0.5871 -0.4397
  351TIP3    H122688   3.308   5.590   7.554  0.2524  1.7945  1.1488
  351TIP3    H222689   3.355   5.630   7.415  0.1695 -1.2714  0.1621
  352TIP3   OH222690   4.854   6.686   2.480  0.1371 -0.6353 -0.1983
  352TIP3    H122691   4.765   6.670   2.512  1.0920 -1.0767  2.4874
  352TIP3    H222692   4.903   6.607   2.504  1.4245 -0.0965 -0.9359
  353TIP3   OH222693   3.901   6.091   1.587 -0.0289  0.0574 -0.3409
  353TIP3    H122694   3.883   6.119   1.497  0.1273 -1.8928 -1.0162
  353TIP3    H222695   3.881   5.998   1.588  0.7037 -0.1219  1.4657
  354TIP3   OH222696   2.306   2.133   2.720 -0.5989  0.0147  0.3194
  354TIP3    H122697   2.248   2.063   2.687 -0.2806  0.0351 -0.2992
  354TIP3    H222698   2.392   2.092   2.726 -0.7313 -0.1021  1.5426
  355TIP3   OH222699   1.142   6.305   7.373 -0.1150 -0.3108  0.1732
  355TIP3    H122700   1.115   6.353   7.294  0.9923 -0.5520 -0.3639
  355TIP3    H222701   1.233   6.280   7.357 -0.5122 -2.2182  0.6122
  356TIP3   OH222702   1.805   0.748   2.130  0.4973  0.4006  0.3028
  356TIP3    H122703   1.892   0.708   2.126  0.2525 -0.0942 -0.2520
  356TIP3    H222704   1.810   0.809   2.203  1.3356  0.4365  0.2266
  357TIP3   OH222705   3.540   3.647   0.471 -0.0469  0.1944 -0.2111
  357TIP3    H122706   3.586   3.643   0.555 -0.5303 -2.7253  0.0314
  357TIP3    H222707   3.548   3.738   0.443  1.3537  0.9335  2.3041
  358TIP3   OH222708   4.539   3.241   0.309 -0.1373  0.2141  0.1986
  358TIP3    H122709   4.451   3.273   0.328  0.1375  1.1149 -0.0266
  358TIP3    H222710   4.575   3.217   0.394 -0.2761  0.6975  0.3952
  359TIP3   OH222711   6.513   2.584   7.304 -0.5758 -0.8820 -0.1435
  359TIP3    H122712   6.601   2.553   7.329 -1.1244 -0.9854  1.8287
  359TIP3    H222713   6.512   2.578   7.209  0.7425 -3.1860 -0.0983
  360TIP3   OH222714   5.190   1.684   0.247 -0.3806  0.9414  0.5834
  360TIP3    H122715   5.235   1.767   0.266  1.6578 -0.2246  1.1622
  360TIP3    H222716   5.230   1.654   0.165  1.8063 -1.2850  2.3222
  361TIP3   OH222717   4.954   3.357   7.752  0.8470 -0.1186  0.2206
  361TIP3    H122718   5.037   3.316   7.777  1.3447  1.4590  1.3390
  361TIP3    H222719   4.980   3.438   7.708 -0.1090 -0.4699 -1.0381
  362TIP3   OH222720   5.736   1.884   6.543 -0.5410 -0.5162 -0.8639
  362TIP3    H122721   5.678   1.864   6.616  0.8495 -1.7189 -0.0581
  362TIP3    H222722   5.681   1.934   6.482 -1.3921  1.7046  1.5394
  363TIP3   OH222723   1.202   4.009   0.223 -0.6656  0.6973  0.4871
  363TIP3    H122724   1.142   3.936   0.237  0.0112  0.1487  0.5701
  363TIP3    H222725   1.208   4.017   0.128  2.9432 -2.5396  0.1901
  364TIP3   OH222726   0.572   5.625   7.529 -0.2815 -0.2956 -0.3185
  364TIP3    H122727   0.587   5.713   7.564 -2.2526 -0.3337  0.7825
  364TIP3    H222728   0.576   5.636   7.434 -1.6507  1.2651 -0.2487
  365TIP3   OH222729   6.165   6.717   0.828  0.5539  0.3322  0.2615
  365TIP3    H122730   6.195   6.693   0.916  2.4458  3.2919  0.5469
  365TIP3    H222731   6.071   6.733   0.838  0.5330 -0.4479  1.4672
  366TIP3   OH222732   6.714   3.366   2.824 -0.1969 -0.1401  0.4016
  366TIP3    H122733   6.664   3.396   2.748 -0.0403  1.5632  0.9304
  366TIP3    H222734   6.653   3.375   2.898 -0.1896 -1.3238  0.5797
  367TIP3   OH222735   6.750   6.447   8.019 -0.6245  0.8494  0.2433
  367TIP3    H122736   6.833   6.481   7.986  1.2300 -1.3011  2.2677
  367TIP3    H222737   6.696   6.434   7.940  1.6059  0.7043 -1.3595
  368TIP3   OH222738   5.427   0.469   6.879 -0.3846  0.2931  0.1634
  368TIP3    H122739   5.359   0.502   6.821  0.3789  1.6796  0.0135
  368TIP3    H222740   5.493   0.432   6.820 -0.2643  0.4151  0.2210
  369TIP3   OH222741   4.690   0.192   1.782 -0.1975 -0.3670 -0.0866
  369TIP3    H122742   4.740   0.218   1.860 -0.2381 -0.6819  0.0485
  369TIP3    H222743   4.633   0.266   1.765  0.6529  0.2070 -0.5353
  370TIP3   OH222744   5.697   2.524   1.300 -0.1374 -0.1432  0.0200
  370TIP3    H122745   5.681   2.436   1.334  0.0344  0.3397  1.4178
  370TIP3    H222746   5.791   2.526   1.282  0.1807  0.2493  1.5683
  371TIP3   OH222747   2.323   5.037   1.924 -0.0263 -0.3585  0.2305
  371TIP3    H122748   2.286   5.110   1.875  3.2334  0.8140 -0.7156
  371TIP3    H222749   2.389   5.077   1.980 -1.5469 -2.0573  3.4990
  372TIP3   OH222750   5.262   6.055   2.724  0.0477  0.4182  0.3023
  372TIP3    H122751   5.323   6.016   2.787 -1.6273  1.1012  2.4864
  372TIP3    H222752   5.217   5.980   2.685  1.2340 -0.0214 -0.2910
  373TIP3   OH222753   0.752   6.391   1.420 -0.2874  0.0965 -0.1153
  373TIP3    H122754   0.832   6.408   1.469 -0.4728 -0.4309  0.3791
  373TIP3    H222755   0.782   6.355   1.337 -0.0140 -0.3257  0.1608
  374TIP3   OH222756   0.692   4.986   6.725  0.1521 -0.3272  0.3121
  374TIP3    H122757   0.756   5.039   6.772  0.3435 -0.4413  0.1819
  374TIP3    H222758   0.703   4.898   6.760 -0.8275 -0.1125  1.2267
  375TIP3   OH222759   3.308   4.271   2.452  0.0076 -0.0766  0.3149
  375TIP3    H122760   3.387   4.323   2.438 -0.3230  0.2136 -0.5093
  375TIP3    H222761   3.241   4.335   2.475 -0.1467 -0.2522  0.3564
  376TIP3   OH222762   1.029   0.312   7.717 -0.1674 -0.0212 -0.3240
  376TIP3    H122763   0.991   0.398   7.700  0.1139  0.1782  0.0410
  376TIP3    H222764   1.122   0.329   7.735 -0.2567 -0.3145  0.4650
  377TIP3   OH222765   3.714   5.718   0.417  0.0940 -0.3136 -0.0360
  377TIP3    H122766   3.794   5.709   0.366 -0.5730  3.0510 -1.9710
  377TIP3    H222767   3.646   5.676   0.364  0.2335 -1.6092  0.7678
  378TIP3   OH222768   2.655   1.194   7.443  1.0469 -0.4444 -0.3128
  378TIP3    H122769   2.705   1.276   7.444 -2.4022  1.9116 -0.6585
  378TIP3    H222770   2.680   1.152   7.360  3.1425  0.0428  0.0265
  379TIP3   OH222771   0.444   6.365   1.531 -0.7295 -0.5592 -0.0915
  379TIP3    H122772   0.366   6.309   1.526 -2.0480  1.0387  1.2930
  379TIP3    H222773   0.429   6.433   1.465 -0.4772 -0.2857  0.1300
  380TIP3   OH222774   1.418   5.101   0.666  0.4596 -0.4804  0.1372
  380TIP3    H122775   1.396   5.177   0.720  0.3308 -0.6617  0.3427
  380TIP3    H222776   1.386   5.122   0.579 -0.3628 -0.6616  0.3879
  381TIP3   OH222777   2.223   5.666   7.452 -0.3619  0.3989  0.6122
  381TIP3    H122778   2.172   5.663   7.533 -2.2222 -1.0222 -0.5306
  381TIP3    H222779   2.164   5.705   7.387  1.0600  1.4295 -0.1095
  382TIP3   OH222780   6.902   4.888   1.238 -0.5318 -0.3010  0.3180
  382TIP3    H122781   6.969   4.827   1.206 -1.2803 -1.2679  0.5418
  382TIP3    H222782   6.823   4.835   1.244 -1.2127  0.7172  0.4960
  383TIP3   OH222783   5.727   6.410   7.141 -0.4415  0.0250 -0.0347
  383TIP3    H122784   5.656   6.429   7.079 -1.4817  2.1100  1.6750
  383TIP3    H222785   5.706   6.323   7.176 -0.6011 -0.5677 -1.5264
  384TIP3   OH222786   2.987   1.743   1.828  0.3993  0.4163  0.0896
  384TIP3    H122787   2.895   1.742   1.853  0.2436 -0.2160 -0.4944
  384TIP3    H222788   3.029   1.682   1.888  0.0757 -0.8713 -0.9507
  385TIP3   OH222789   4.298   3.433   0.891  0.2039 -0.3649 -0.4692
  385TIP3    H122790   4.226   3.496   0.893  0.8743  0.4241 -0.7681
  385TIP3    H222791   4.304   3.407   0.799  0.1747 -0.5859 -0.4098
  386TIP3   OH222792   2.014   5.987   7.097 -0.0984 -0.4978 -0.6629
  386TIP3    H122793   1.926   5.996   7.133 -0.7014 -0.1978 -2.1687
  386TIP3    H222794   2.008   5.913   7.037  0.8590 -0.8976 -0.2964
  387TIP3   OH222795   2.892   0.372   0.470 -0.0051  0.7466  0.6715
  387TIP3    H122796   2.904   0.458   0.431 -0.0074  1.2962  1.8369
  387TIP3    H222797   2.859   0.318   0.398  1.3873  1.3226 -0.4563
  388TIP3   OH222798   5.594   2.032   1.060  0.2497  0.4280 -0.2115
  388TIP3    H122799   5.567   2.028   0.968 -0.9528 -0.9162  0.1583
  388TIP3    H222800   5.646   1.953   1.074 -0.4978  0.0442  0.5103
  389TIP3   OH222801   6.312   2.444   7.972  0.3767  0.4231 -0.0078
  389TIP3    H122802   6.312   2.482   7.884 -0.3627  0.5262  0.0260
  389TIP3    H222803   6.224   2.462   8.006  0.4518 -0.1480  0.5202
  390TIP3   OH222804   0.958   6.998   3.001  0.1385  0.7459 -0.0466
  390TIP3    H122805   0.928   7.023   3.089 -1.0355  2.3707 -0.8473
  390TIP3    H222806   0.886   7.024   2.943  1.7802  1.7382 -1.7353
  391TIP3   OH222807   4.866   2.337   1.908 -0.1159  0.7654 -0.3726
  391TIP3    H122808   4.798   2.298   1.853  2.3472 -1.2276 -2.2913
  391TIP3    H222809   4.821   2.366   1.986 -3.1128 -0.5788 -1.4670
  392TIP3   OH222810   5.705   4.924   2.361  0.0841 -0.6414  0.0547
  392TIP3    H122811   5.757   4.844   2.357  2.9535  1.0282  1.2992
  392TIP3    H222812   5.754   4.989   2.311 -1.7699  0.5925 -0.3037
  393TIP3   OH222813   4.155   1.375   0.205  0.6478  0.3161  0.2559
  393TIP3    H122814   4.133   1.290   0.243 -0.4960  0.2354 -0.5416
  393TIP3    H222815   4.103   1.380   0.125  0.7736  1.7332  0.2336
  394TIP3   OH222816   0.037   0.736   2.191 -0.2066 -0.2380 -0.2300
  394TIP3    H122817  -0.034   0.750   2.253 -0.9870 -1.9219 -0.6790
  394TIP3    H222818   0.011   0.658   2.142  0.7607  0.5507 -2.1265
  395TIP3   OH222819   3.340   6.784   2.467 -0.0013 -0.0696  0.0583
  395TIP3    H122820   3.370   6.875   2.465 -2.1658  0.7178 -2.0766
  395TIP3    H222821   3.363   6.750   2.380 -1.5925 -0.6641 -0.1609
  396TIP3   OH222822   3.390   4.086   0.216 -0.0793  0.0937 -0.1705
  396TIP3    H122823   3.299   4.113   0.200  0.3271  1.1663 -0.8222
  396TIP3    H222824   3.420   4.052   0.132  1.1890  3.0907 -1.0804
  397TIP3   OH222825   1.485   2.493   2.007 -0.3328  0.1536 -0.1226
  397TIP3    H122826   1.472   2.436   2.082  0.5056  0.4934  0.2991
  397TIP3    H222827   1.428   2.457   1.939  1.2861 -2.1308 -0.3815
  398TIP3   OH222828   2.637   0.615   0.281  0.0125  0.1030  0.6358
  398TIP3    H122829   2.624   0.675   0.354  0.1176 -1.3740  1.9217
  398TIP3    H222830   2.682   0.667   0.214 -1.3704  1.8672  1.0210
  399TIP3   OH222831   4.313   0.398   0.723 -0.1294  0.3522  0.2186
  399TIP3    H122832   4.328   0.490   0.740 -0.1250  0.5923 -0.9877
  399TIP3    H222833   4.396   0.355   0.742  0.2204  0.7697 -0.3543
  400TIP3   OH222834   6.940   3.906   7.203 -0.5993  0.4326 -0.1170
  400TIP3    H122835   6.994   3.949   7.269 -1.5962  2.5704 -0.6170
  400TIP3    H222836   6.866   3.870   7.252 -0.8001  1.0998  0.0843
  401TIP3   OH222837   0.907   0.238   0.904 -0.3774  0.2126 -0.9747
  401TIP3    H122838   0.883   0.331   0.892 -0.8511  0.4882  1.4930
  401TIP3    H222839   0.880   0.219   0.994  2.5021 -1.4650 -0.3549
  402TIP3   OH222840   0.540   2.957   0.185  0.1442 -0.4385  0.1176
  402TIP3    H122841   0.479   2.991   0.120  0.1868  0.7780  0.6940
  402TIP3    H222842   0.595   2.895   0.136  0.0328  0.2735 -0.9447
  403TIP3   OH222843   3.754   6.537   1.170 -0.5961  0.6644  0.5634
  403TIP3    H122844   3.806   6.510   1.245 -0.0638  0.3400  0.0813
  403TIP3    H222845   3.675   6.576   1.208  0.2867  1.7948  1.3257
  404TIP3   OH222846   2.836   2.010   7.392  0.1688 -0.1600 -0.0748
  404TIP3    H122847   2.833   2.071   7.319 -1.2319 -0.6842 -0.4909
  404TIP3    H222848   2.769   2.042   7.453  1.4726  0.4036  1.1186
  405TIP3   OH222849   4.632   5.182   2.581 -0.0888  0.2413  0.2815
  405TIP3    H122850   4.580   5.181   2.662  1.2128 -0.5483  1.1463
  405TIP3    H222851   4.698   5.250   2.596  1.9772 -1.8187  1.1536
  406TIP3   OH222852   0.595   5.552   0.917  0.0691 -0.8191  0.4935
  406TIP3    H122853   0.602   5.612   0.992  1.4544 -0.3623  0.0344
  406TIP3    H222854   0.514   5.503   0.933  0.1798 -0.5323  2.1347
  407TIP3   OH222855   0.080   2.259   8.209 -0.1572  0.4731 -0.1778
  407TIP3    H122856   0.039   2.313   8.276  0.7484  1.6082 -0.5200
  407TIP3    H222857   0.015   2.253   8.139 -0.0550  1.6052 -0.3824
  408TIP3   OH222858   5.172   3.465   8.045  0.3257 -0.0292 -0.4008
  408TIP3    H122859   5.197   3.550   8.080 -0.4201  0.5663 -1.2468
  408TIP3    H222860   5.080   3.455   8.070  0.2724 -0.3667 -0.7145
  409TIP3   OH222861   5.328   2.022   1.171  0.2588 -0.3116  0.2554
  409TIP3    H122862   5.263   2.058   1.111  0.7487 -0.4784 -0.3890
  409TIP3    H222863   5.409   2.021   1.120  0.5727 -0.9407  0.7566
  410TIP3   OH222864   4.355   2.802   7.830  0.0800  0.2537  0.3454
  410TIP3    H122865   4.373   2.757   7.747  0.4713  0.0186  0.5566
  410TIP3    H222866   4.380   2.738   7.897 -0.3811  0.3852  0.6456
  411TIP3   OH222867   3.824   6.690   2.635 -0.1050  0.0186  0.1518
  411TIP3    H122868   3.791   6.775   2.608 -1.8904 -0.6375  0.1517
  411TIP3    H222869   3.913   6.708   2.666  0.6599  1.3938 -2.5158
  412TIP3   OH222870   3.715   5.599   1.033 -0.2192 -0.2633  0.3245
  412TIP3    H122871   3.772   5.673   1.010 -2.2407  1.2034 -0.2885
  412TIP3    H222872   3.684   5.620   1.121 -0.6935 -0.4398  0.2026
  413TIP3   OH222873   2.320   2.671   8.261  0.0160 -0.2934 -0.3458
  413TIP3    H122874   2.381   2.744   8.248 -0.3884  0.0839 -0.1415
  413TIP3    H222875   2.302   2.672   8.355 -1.7745  0.7967 -0.6515
  414TIP3   OH222876   3.527   2.567   1.100  0.8262 -0.3309  0.6696
  414TIP3    H122877   3.525   2.477   1.067 -2.1697  0.1568 -0.8313
  414TIP3    H222878   3.602   2.607   1.055  0.6917 -1.4353 -0.6127
  415TIP3   OH222879   1.548   6.944   1.005  0.8271  0.2384 -0.1083
  415TIP3    H122880   1.566   7.037   1.014  0.6027  0.2464  0.2706
  415TIP3    H222881   1.588   6.904   1.082  0.0006  0.1506  0.2831
  416TIP3   OH222882   6.712   6.362   1.038  0.4090 -0.4104 -0.2074
  416TIP3    H122883   6.621   6.339   1.018  0.2136 -1.0065  1.2614
  416TIP3    H222884   6.707   6.450   1.075  0.8090  0.8408 -2.9017
  417TIP3   OH222885   4.445   2.886   2.680 -0.2237 -0.0386  0.6958
  417TIP3    H122886   4.506   2.913   2.611  1.1660  0.0770  1.9213
  417TIP3    H222887   4.457   2.791   2.687 -2.9861 -0.7116 -1.6013
  418TIP3   OH222888   1.166   1.335   1.024  0.0652 -0.1845 -0.2680
  418TIP3    H122889   1.232   1.285   0.976  1.7211  1.2018  0.4643
  418TIP3    H222890   1.175   1.307   1.115  0.7717  1.1270  0.0934
  419TIP3   OH222891   6.322   2.363   0.325 -0.2754  0.2253 -0.5323
  419TIP3    H122892   6.344   2.392   0.413 -0.4676 -0.4005 -0.2730
  419TIP3    H222893   6.266   2.432   0.289 -3.4855 -1.2313  1.2494
  420TIP3   OH222894   2.808   1.921   1.502 -0.1311  0.4534  0.2731
  420TIP3    H122895   2.900   1.945   1.496 -0.7491  2.8612 -1.1146
  420TIP3    H222896   2.766   1.998   1.541 -1.7426  0.0221 -0.5248
  421TIP3   OH222897   0.847   4.293   8.252 -0.1469  0.2535  0.1056
  421TIP3    H122898   0.896   4.298   8.334  0.1179 -1.1700  0.0748
  421TIP3    H222899   0.896   4.228   8.200  0.5571  2.1781 -1.7935
  422TIP3   OH222900   0.334   6.017   0.064  0.2199  0.5712  0.2252
  422TIP3    H122901   0.289   5.985  -0.014  1.2784  1.0898 -0.6349
  422TIP3    H222902   0.322   5.948   0.129 -2.3331  0.9737  0.2581
  423TIP3   OH222903   0.135   1.640   0.342 -0.2201  0.3041 -0.2169
  423TIP3    H122904   0.107   1.597   0.261 -0.7096  1.5437 -0.7234
  423TIP3    H222905   0.191   1.575   0.385 -0.5432 -0.6489 -1.1881
  424TIP3   OH222906   6.969   3.814   0.192 -0.3365 -0.3404 -0.1964
  424TIP3    H122907   7.038   3.819   0.126  0.3243 -0.4121  0.4867
  424TIP3    H222908   6.937   3.723   0.186  1.8602 -1.3218  1.6977
  425TIP3   OH222909   5.860   6.109   0.720 -0.1407 -0.2967  0.6979
  425TIP3    H122910   5.791   6.169   0.691 -1.1622 -1.1397  1.3102
  425TIP3    H222911   5.927   6.165   0.756 -1.4511  0.4625  2.0583
  426TIP3   OH222912   1.532   1.563   8.359 -0.1439  0.5701  0.2075
  426TIP3    H122913   1.468   1.628   8.329  0.7081  0.8901 -1.0058
  426TIP3    H222914   1.562   1.596   8.444  1.2413  2.5452 -0.9582
  427TIP3   OH222915   2.859   3.296   0.228  0.0216  0.1541 -0.3447
  427TIP3    H122916   2.895   3.276   0.315  1.6760  1.3796 -0.6981
  427TIP3    H222917   2.905   3.236   0.169 -1.2290 -0.8011 -0.3978
  428TIP3   OH222918   5.648   3.098   0.832  0.0536 -0.2374 -0.4558
  428TIP3    H122919   5.602   3.026   0.789 -2.3870  0.6640  0.4618
  428TIP3    H222920   5.612   3.101   0.920  2.2081  0.3357  0.4659
  429TIP3   OH222921   6.517   0.124   0.249 -0.1884 -0.3058  0.4604
  429TIP3    H122922   6.612   0.116   0.256 -0.2199  0.2092  1.6865
  429TIP3    H222923   6.504   0.207   0.204 -0.0587 -0.8027 -0.5209
  430TIP3   OH222924   1.125   1.210   8.210 -0.2552 -0.1042  0.0944
  430TIP3    H122925   1.044   1.171   8.176 -1.4929  0.5564  2.0661
  430TIP3    H222926   1.163   1.142   8.265  0.0223 -0.0876 -0.0769
  431TIP3   OH222927   6.573   2.742   1.221  0.6995  0.0869  0.4863
  431TIP3    H122928   6.648   2.700   1.264  0.8518  0.1630  0.2943
  431TIP3    H222929   6.550   2.814   1.280  1.0783  0.3545  0.3056
  432TIP3   OH222930   4.409   2.669   7.603  0.7485 -0.5892 -0.1363
  432TIP3    H122931   4.359   2.630   7.531  0.3656  3.0322 -2.0881
  432TIP3    H222932   4.494   2.689   7.564  0.6983  1.0413  0.5265
  433TIP3   OH222933   2.965   6.079   7.847  0.2021 -0.3011  0.5189
  433TIP3    H122934   2.898   6.090   7.915  0.8642 -1.8767  1.4820
  433TIP3    H222935   2.940   6.142   7.779 -1.8273 -0.3205  1.1703
  434TIP3   OH222936   4.781   4.782   7.435 -0.2325 -0.0880 -0.0373
  434TIP3    H122937   4.721   4.831   7.378  1.6799  0.4107 -1.7683
  434TIP3    H222938   4.844   4.742   7.374  0.9079 -0.9916  1.6476
  435TIP3   OH222939   5.001   2.556   7.970  0.3981  0.2240  0.0303
  435TIP3    H122940   4.941   2.484   7.992  0.2288  0.1907 -0.5215
  435TIP3    H222941   5.083   2.534   8.013  0.3489 -0.3087 -0.1463
  436TIP3   OH222942   6.835   3.579   1.970  0.6993 -0.1873 -0.6700
  436TIP3    H122943   6.857   3.486   1.980  0.6486 -0.1458 -0.1561
  436TIP3    H222944   6.742   3.584   1.990  0.5103 -0.1504 -1.5235
  437TIP3   OH222945   4.462   4.727   0.915  0.3808  0.1595  0.0941
  437TIP3    H122946   4.369   4.706   0.914  0.2028  0.8989  0.4119
  437TIP3    H222947   4.473   4.786   0.989  1.0831  0.1644 -0.0054
  438TIP3   OH222948   6.562   1.734   7.504  0.2086 -0.3474 -0.2757
  438TIP3    H122949   6.528   1.778   7.582  0.1426  0.3765 -0.6988
  438TIP3    H222950   6.487   1.685   7.470  0.3369 -0.9718  0.3122
  439TIP3   OH222951   6.816   6.170   0.277 -0.5264 -0.4142  0.0593
  439TIP3    H122952   6.902   6.133   0.260 -0.3890  0.4264 -1.2336
  439TIP3    H222953   6.832   6.262   0.299 -1.0808 -0.2303 -0.2658
  440TIP3   OH222954   1.535   6.563   1.452 -0.5692 -0.0001 -0.8748
  440TIP3    H122955   1.469   6.500   1.426 -0.7169  0.2774 -1.1784
  440TIP3    H222956   1.619   6.520   1.434 -0.6042 -1.2319  1.5399
  441TIP3   OH222957   6.023   3.477   2.715 -0.7403 -0.0951  0.2171
  441TIP3    H122958   6.083   3.511   2.649 -0.7372  0.9546  0.7320
  441TIP3    H222959   6.000   3.390   2.684  1.3381 -0.6952  0.1789
  442TIP3   OH222960   4.097   0.120   2.267  0.1670 -0.1758  0.0473
  442TIP3    H122961   4.137   0.168   2.339  0.7559  0.0086 -0.3929
  442TIP3    H222962   4.133   0.160   2.188 -1.8357  0.8261 -0.4108
  443TIP3   OH222963   2.590   0.518   7.902 -0.0897 -0.1561 -0.4535
  443TIP3    H122964   2.665   0.501   7.846  1.4450 -0.5898  1.5959
  443TIP3    H222965   2.567   0.433   7.939  2.4117  0.6634  3.5754
  444TIP3   OH222966   0.066   3.731   8.261  0.5260 -0.1358 -0.2966
  444TIP3    H122967   0.029   3.726   8.173  0.7724 -1.7596 -0.3371
  444TIP3    H222968   0.065   3.640   8.293  1.9765  0.1728  0.7318
  445TIP3   OH222969   4.130   3.122   0.987 -0.8604 -0.1787  0.2073
  445TIP3    H122970   4.097   3.207   1.016  0.9951  0.4896  0.4288
  445TIP3    H222971   4.108   3.062   1.059 -2.0493  0.1104  0.1111
  446TIP3   OH222972   5.288   2.926   1.892  0.2895  0.3926 -0.0011
  446TIP3    H122973   5.298   2.981   1.970 -2.1643 -0.0663  0.7155
  446TIP3    H222974   5.194   2.909   1.886  0.4820 -0.2264 -2.6473
  447TIP3   OH222975   0.815   6.404   2.551  0.7075 -0.2418  0.3423
  447TIP3    H122976   0.845   6.446   2.470 -0.5082  0.1473  0.0785
  447TIP3    H222977   0.775   6.475   2.601  1.0723 -0.5647  1.1119
  448TIP3   OH222978   6.260   3.343   1.160  0.1727  0.3333  0.0604
  448TIP3    H122979   6.265   3.302   1.074  0.2325  0.4552  0.0057
  448TIP3    H222980   6.312   3.423   1.151 -0.2519  0.6087  0.0591
  449TIP3   OH222981   3.657   2.667   0.625  0.4025 -0.2263 -0.2153
  449TIP3    H122982   3.750   2.646   0.622  0.8672  1.6960 -0.1579
  449TIP3    H222983   3.649   2.750   0.579 -1.2370 -0.1613  0.1155
  450TIP3   OH222984   2.253   5.123   1.056 -0.5479  0.0404 -0.6366
  450TIP3    H122985   2.345   5.150   1.055 -0.0560 -1.3564  1.0147
  450TIP3    H222986   2.254   5.037   1.098 -2.6396  0.1127 -0.3398
  451TIP3   OH222987   4.731   1.657   2.057  0.8236 -0.1250  0.0780
  451TIP3    H122988   4.724   1.610   2.140  1.6900 -0.6356 -0.1300
  451TIP3    H222989   4.642   1.685   2.038 -0.2168 -3.6269 -0.9213
  452TIP3   OH222990   5.771   3.132   8.132  0.1208 -0.6682  0.4332
  452TIP3    H122991   5.717   3.155   8.208 -0.2366 -0.5649  0.1501
  452TIP3    H222992   5.741   3.191   8.063  0.6987 -0.5151  0.3154
  453TIP3   OH222993   1.471   2.696   2.496  0.7721 -0.1478 -0.0973
  453TIP3    H122994   1.475   2.619   2.438  0.9677  0.7642 -1.3415
  453TIP3    H222995   1.445   2.661   2.581  0.9614 -1.6058 -0.6115
  454TIP3   OH222996   0.430   3.192   7.722  0.4847  0.6590  0.4496
  454TIP3    H122997   0.481   3.112   7.728  0.6944  0.4705 -2.3966
  454TIP3    H222998   0.367   3.175   7.652  0.3496  2.8547 -0.0426
  455TIP3   OH222999   3.174   4.984   2.677 -0.4487 -1.0595 -0.3774
  455TIP3    H123000   3.100   5.030   2.717  0.3209 -0.7168  0.6766
  455TIP3    H223001   3.160   4.892   2.701  1.0409 -0.6532  2.5035
  456TIP3   OH223002   2.680   5.655   2.311  0.1386  0.4348 -0.2284
  456TIP3    H123003   2.585   5.661   2.319  0.1977  0.6315  0.3876
  456TIP3    H223004   2.709   5.619   2.395  0.6053  0.3505 -0.4233
  457TIP3   OH223005   3.742   6.278   7.902 -0.2708 -0.2097 -0.2742
  457TIP3    H123006   3.736   6.209   7.968 -0.5505  0.9405  0.9299
  457TIP3    H223007   3.832   6.311   7.910 -0.0869 -0.5243 -0.9590
  458TIP3   OH223008   2.794   1.192   1.712  0.3522  0.0984 -0.1576
  458TIP3    H123009   2.871   1.226   1.757 -0.1164  0.5482  0.3138
  458TIP3    H223010   2.770   1.261   1.649  0.6602 -0.2805 -0.7034
  459TIP3   OH223011   0.653   3.470   0.785 -0.3078 -0.8554  0.0942
  459TIP3    H123012   0.631   3.543   0.842 -1.1412 -0.4497 -0.7309
  459TIP3    H223013   0.589   3.402   0.806 -1.0299 -0.4649 -0.8022
  460TIP3   OH223014   4.972   2.703   0.285 -0.2466 -0.5836  0.5553
  460TIP3    H123015   4.883   2.738   0.286 -0.0246  0.0374 -0.2723
  460TIP3    H223016   4.995   2.694   0.377 -1.2155 -0.8921  0.7794
  461TIP3   OH223017   6.829   5.372   0.363  0.1503 -0.4971  0.0979
  461TIP3    H123018   6.887   5.297   0.372 -2.8809 -3.0926 -0.0300
  461TIP3    H223019   6.752   5.337   0.318 -1.4867  2.7141  0.1144
  462TIP3   OH223020   6.563   2.139   6.975  0.4670 -0.1952 -0.1548
  462TIP3    H123021   6.480   2.188   6.970  0.9426  0.6717  0.1315
  462TIP3    H223022   6.588   2.126   6.883 -0.5719 -1.5170 -0.2736
  463TIP3   OH223023   4.022   4.439   1.599 -0.2532  0.1049  0.6116
  463TIP3    H123024   4.043   4.368   1.539  0.3346 -0.9551  2.0413
  463TIP3    H223025   4.106   4.479   1.620 -0.1294 -1.0616  2.5604
  464TIP3   OH223026   1.969   5.614   3.200  0.6110  0.0525 -0.1838
  464TIP3    H123027   1.946   5.619   3.293  1.6578  0.2519  0.0756
  464TIP3    H223028   1.966   5.520   3.180 -0.4354  0.0734 -0.1751
  465TIP3   OH223029   4.148   0.162   1.007  0.3468  0.1481  0.9403
  465TIP3    H123030   4.105   0.227   1.063  0.8788  1.6292 -0.2806
  465TIP3    H223031   4.117   0.183   0.919  1.0318 -0.8545  0.4449
  466TIP3   OH223032   0.171   2.883   1.932 -0.0122  0.4374  0.7405
  466TIP3    H123033   0.200   2.846   2.015 -1.2603  1.9012  1.8922
  466TIP3    H223034   0.097   2.939   1.955 -0.9809  0.1962 -1.4786
  467TIP3   OH223035   0.026   2.452   7.627  0.8161  0.1117 -0.0882
  467TIP3    H123036  -0.019   2.502   7.695  0.7145 -0.3922  0.2203
  467TIP3    H223037   0.049   2.517   7.560 -0.5782  0.3415 -0.3642
  468TIP3   OH223038   5.078   4.663   3.167  0.1252 -0.1481  0.4329
  468TIP3    H123039   5.122   4.695   3.089 -1.7231 -0.1443 -0.6590
  468TIP3    H223040   5.118   4.577   3.184  1.3072  0.3360  0.1674
  469TIP3   OH223041   2.425   1.463   7.861 -0.0016  0.5669 -0.0984
  469TIP3    H123042   2.519   1.464   7.843  0.1186  1.4748  0.4876
  469TIP3    H223043   2.418   1.482   7.955 -0.7590  0.2029 -0.0705
  470TIP3   OH223044   0.483   1.778   2.453  0.2088 -0.0984  0.0741
  470TIP3    H123045   0.534   1.715   2.505 -3.1546 -2.1527  1.2059
  470TIP3    H223046   0.476   1.855   2.509  0.9756 -0.2683  0.4192
  471TIP3   OH223047   2.561   4.380   6.726 -0.2199 -0.0217 -0.2828
  471TIP3    H123048   2.608   4.463   6.720  0.2806 -0.3300 -0.7859
  471TIP3    H223049   2.469   4.405   6.734 -0.2280  0.5864 -1.9120
  472TIP3   OH223050   1.520   4.642   2.404 -0.0254 -0.0807 -1.1901
  472TIP3    H123051   1.564   4.656   2.320 -0.1325 -1.2837 -1.4564
  472TIP3    H223052   1.534   4.550   2.424  2.5034  0.7201  1.5556
  473TIP3   OH223053   6.903   6.776   6.908  0.0184  1.0509 -0.3951
  473TIP3    H123054   6.944   6.694   6.935 -1.1269  0.5788  0.0026
  473TIP3    H223055   6.930   6.839   6.975 -0.2893  0.6292  0.1349
  474TIP3   OH223056   6.883   6.430   0.384 -0.8170 -0.1569 -0.6327
  474TIP3    H123057   6.836   6.447   0.466  0.6512 -0.5267  0.3188
  474TIP3    H223058   6.931   6.511   0.367 -1.6524  0.1712 -1.5344
  475TIP3   OH223059   0.519   2.559   0.871  0.5776 -0.5248 -0.1909
  475TIP3    H123060   0.488   2.469   0.878  2.7894 -1.4823 -1.6159
  475TIP3    H223061   0.523   2.577   0.777  0.1781  1.0814  0.0588
  476TIP3   OH223062   6.076   1.966   1.009 -0.1017 -0.0707 -0.2416
  476TIP3    H123063   6.077   2.015   0.927 -0.2853  2.1610  1.0087
  476TIP3    H223064   6.061   1.875   0.983 -0.8685  0.6677 -2.6089
  477TIP3   OH223065   4.942   4.845   7.640 -0.0887  0.2886  0.0937
  477TIP3    H123066   4.983   4.917   7.591 -0.7198  1.2916  1.0247
  477TIP3    H223067   4.898   4.793   7.573 -0.1630  1.1265 -0.5233
  478TIP3   OH223068   5.998   0.227   0.320 -0.6844 -0.2837 -0.3187
  478TIP3    H123069   5.968   0.240   0.410  0.9867 -2.1614  0.6075
  478TIP3    H223070   5.960   0.143   0.295 -1.6587  0.5305 -1.6369
  479TIP3   OH223071   5.109   5.199   1.852  0.4249 -0.1661 -0.0957
  479TIP3    H123072   5.197   5.236   1.841  0.6283 -0.5270  0.2876
  479TIP3    H223073   5.050   5.266   1.818  0.8454  0.1204 -0.2621
  480TIP3   OH223074   1.822   1.898   2.041  0.1521 -0.1796 -0.2009
  480TIP3    H123075   1.778   1.820   2.075  0.8362 -1.1832 -1.5520
  480TIP3    H223076   1.911   1.869   2.021  0.5819  1.0969 -0.2044
  481TIP3   OH223077   6.493   0.392   3.293 -0.0796 -0.2990  0.1641
  481TIP3    H123078   6.418   0.449   3.312 -0.0678 -0.0921 -0.3769
  481TIP3    H223079   6.538   0.436   3.221  0.5615 -0.4251  0.4770
  482TIP3   OH223080   6.611   4.321   7.509 -0.1266  0.1076  0.0301
  482TIP3    H123081   6.546   4.297   7.575 -0.6307 -1.7642 -1.0803
  482TIP3    H223082   6.689   4.343   7.560 -0.5523 -1.0841  1.2652
  483TIP3   OH223083   0.307   1.980   7.615  0.2232  0.7249 -0.7971
  483TIP3    H123084   0.361   1.912   7.656 -0.6486  1.1984  1.2554
  483TIP3    H223085   0.337   1.983   7.524  1.5594 -1.0937 -0.4650
  484TIP3   OH223086   6.314   3.749   6.727 -0.4672  0.2999 -0.0726
  484TIP3    H123087   6.354   3.828   6.764 -1.1218  0.9766 -0.7834
  484TIP3    H223088   6.342   3.679   6.786  2.7449  0.5271 -1.1681
  485TIP3   OH223089   5.370   1.970   0.127 -0.0983 -0.6621 -0.3023
  485TIP3    H123090   5.393   2.061   0.111 -1.3839 -0.5242 -1.5343
  485TIP3    H223091   5.371   1.961   0.223  1.2688  0.2809 -0.1987
  486TIP3   OH223092   4.282   6.761   7.347 -0.0153 -0.3233 -0.5288
  486TIP3    H123093   4.348   6.787   7.282  0.2982  2.0173  0.6210
  486TIP3    H223094   4.264   6.841   7.397 -0.9398 -1.7966  1.6711
  487TIP3   OH223095   2.062   2.504   0.216  0.2412  0.5768 -0.0979
  487TIP3    H123096   2.041   2.411   0.225 -3.0406  1.3932  3.3557
  487TIP3    H223097   2.024   2.529   0.131  2.1476 -1.2776 -1.6237
  488TIP3   OH223098   6.203   2.227   3.029 -0.1091 -0.1744 -0.8980
  488TIP3    H123099   6.149   2.306   3.020  0.7604  0.3863 -1.3128
  488TIP3    H223100   6.274   2.239   2.966  1.4786 -0.0792  0.8132
  489TIP3   OH223101   1.975   1.046   7.262 -0.1771 -0.2532  0.0103
  489TIP3    H123102   1.975   1.045   7.358 -2.2284  0.6810  0.0667
  489TIP3    H223103   2.017   0.964   7.237 -0.2842 -0.8610  1.7236
  490TIP3   OH223104   4.415   6.229   1.713  0.3868  0.2687  0.2905
  490TIP3    H123105   4.321   6.214   1.698  0.1860  1.6839  0.0109
  490TIP3    H223106   4.428   6.322   1.694  1.1665  0.9922  3.7603
  491TIP3   OH223107   2.657   4.746   0.615 -0.3141  0.2268  0.1333
  491TIP3    H123108   2.579   4.796   0.592 -0.2706 -0.2446 -1.1454
  491TIP3    H223109   2.623   4.662   0.646 -0.3281  0.3322  0.4110
  492TIP3   OH223110   6.884   6.156   7.305 -0.1338  0.7342 -0.0702
  492TIP3    H123111   6.965   6.106   7.306 -0.6797 -0.1735  0.2121
  492TIP3    H223112   6.827   6.107   7.245 -0.9523  0.5547  0.8283
  493TIP3   OH223113   0.289   0.818   7.303  0.0882  0.2518  0.0972
  493TIP3    H123114   0.283   0.912   7.286 -0.6158 -0.2329 -2.9179
  493TIP3    H223115   0.217   0.799   7.364  0.1478  1.6154  0.6136
  494TIP3   OH223116   2.171   2.571   2.053  0.3835 -0.5111  0.0852
  494TIP3    H123117   2.159   2.624   2.131 -1.1523 -0.1858 -0.3310
  494TIP3    H223118   2.264   2.552   2.050  0.7229  0.8801  1.0780
  495TIP3   OH223119   5.882   3.739   0.123 -0.0189 -0.5729  0.3075
  495TIP3    H123120   5.803   3.700   0.086 -1.0966 -0.1665  2.1103
  495TIP3    H223121   5.931   3.770   0.046 -3.0464  1.9860 -0.7678
  496TIP3   OH223122   0.891   6.258   1.206 -0.0710 -0.8521 -0.1220
  496TIP3    H123123   0.943   6.180   1.186  1.8878 -0.1820  1.8414
  496TIP3    H223124   0.925   6.325   1.147  0.5324 -0.7191  0.3564
  497TIP3   OH223125   2.433   6.080   0.602 -0.9476  0.0538  0.6196
  497TIP3    H123126   2.519   6.109   0.632 -1.6988  1.5466  1.4557
  497TIP3    H223127   2.449   5.997   0.559  0.8898  0.2243  0.9064
  498TIP3   OH223128   5.468   6.858   6.666 -0.4303 -0.2187 -0.1361
  498TIP3    H123129   5.394   6.905   6.628 -1.1469 -1.3801 -0.2416
  498TIP3    H223130   5.505   6.919   6.729 -2.1176  0.0368  0.6680
  499TIP3   OH223131   6.483   5.665   1.311  0.2787 -0.4197  0.1738
  499TIP3    H123132   6.441   5.742   1.351  1.8401 -0.2405  1.5905
  499TIP3    H223133   6.419   5.595   1.320 -0.7935  0.4742 -0.2590
  500TIP3   OH223134   1.157   4.928   1.896  0.1367  0.2890  0.8636
  500TIP3    H123135   1.119   4.986   1.831 -0.4352 -1.4428 -0.4123
  500TIP3    H223136   1.114   4.843   1.882  3.2934 -1.3884  0.3753
  501TIP3   OH223137   1.682   3.317   2.623 -0.6861  0.2290  0.5263
  501TIP3    H123138   1.754   3.346   2.678  0.2136 -0.9505  0.0229
  501TIP3    H223139   1.723   3.261   2.557 -1.9758  0.0772 -0.1865
  502TIP3   OH223140   6.309   6.864   2.882 -0.3122 -0.0350 -0.2152
  502TIP3    H123141   6.294   6.893   2.792 -1.4767 -0.7533 -0.2719
  502TIP3    H223142   6.227   6.822   2.908 -1.0562  2.5672  2.1515
  503TIP3   OH223143   4.262   0.513   2.951 -0.4699 -0.6943 -0.3101
  503TIP3    H123144   4.234   0.567   2.878 -1.3574  0.3711  0.7763
  503TIP3    H223145   4.299   0.434   2.910  1.3206  0.9036 -1.9424
  504TIP3   OH223146   2.124   2.740   2.264  0.1839  0.1726 -0.3816
  504TIP3    H123147   2.195   2.716   2.324  0.5604 -0.4456 -1.0777
  504TIP3    H223148   2.077   2.810   2.311  0.0694 -0.7428  0.9272
  505TIP3   OH223149   6.288   5.564   2.955  0.0039  0.0312 -0.1921
  505TIP3    H123150   6.207   5.611   2.973  0.6014  0.4479  1.5582
  505TIP3    H223151   6.324   5.608   2.877  0.4311  2.3969  1.2363
  506TIP3   OH223152   3.869   6.145   8.188 -0.0385  0.2253 -0.5141
  506TIP3    H123153   3.788   6.102   8.215 -0.3971  0.8506 -0.5860
  506TIP3    H223154   3.903   6.185   8.269  1.1052 -1.4441 -0.0934
  507TIP3   OH223155   6.553   0.007   1.430 -0.0680 -0.2364 -0.3631
  507TIP3    H123156   6.588  -0.007   1.517  0.9926  0.8997 -0.5786
  507TIP3    H223157   6.479   0.067   1.443  1.2492  1.4879 -0.3787
  508TIP3   OH223158   6.943   2.938   7.951  0.1953 -0.2373  0.0735
  508TIP3    H123159   7.017   2.956   7.893 -0.1437 -0.2697 -0.3683
  508TIP3    H223160   6.984   2.920   8.036  0.6452  0.6018  0.0455
  509TIP3   OH223161   2.259   6.588   1.135  0.2258 -0.3294 -0.1508
  509TIP3    H123162   2.300   6.582   1.222  0.3620 -1.0825 -0.2543
  509TIP3    H223163   2.168   6.610   1.153 -0.3225 -2.7288  0.3568
  510TIP3   OH223164   5.014   0.036   7.521 -0.4516 -0.2503  0.1151
  510TIP3    H123165   4.946   0.086   7.566 -0.0527 -0.3798  0.8893
  510TIP3    H223166   5.071   0.103   7.483  0.8614 -0.0257  2.3235
  511TIP3   OH223167   0.138   1.887   2.098  0.2281 -0.6559 -0.4612
  511TIP3    H123168   0.159   1.895   2.191 -1.7954 -0.1854  0.0091
  511TIP3    H223169   0.148   1.975   2.063 -0.4298 -0.5276 -0.3410
  512TIP3   OH223170   5.812   6.303   2.443 -0.1749 -0.3427 -0.1150
  512TIP3    H123171   5.820   6.284   2.536  1.7905  1.5558  0.1891
  512TIP3    H223172   5.721   6.280   2.421 -1.3922  1.2023  2.7715
  513TIP3   OH223173   4.663   2.829   1.803  0.3589  0.0904 -0.2515
  513TIP3    H123174   4.692   2.744   1.771  0.2394 -0.6606  1.4956
  513TIP3    H223175   4.657   2.884   1.725  2.1659 -0.9824 -1.2206
  514TIP3   OH223176   1.058   3.712   1.745  0.0123  0.1553  0.3248
  514TIP3    H123177   0.980   3.676   1.788  0.3325 -0.2559  0.5752
  514TIP3    H223178   1.032   3.798   1.714 -1.1303 -0.7063 -1.2812
  515TIP3   OH223179   0.399   0.564   6.600  0.2382 -0.3437 -0.9045
  515TIP3    H123180   0.365   0.611   6.524 -0.3844  0.0019 -0.4239
  515TIP3    H223181   0.321   0.527   6.643  0.3585  1.0053  0.5785
  516TIP3   OH223182   0.827   1.759   0.550 -0.2599 -0.5247 -0.0839
  516TIP3    H123183   0.855   1.838   0.597  0.6226 -0.8245 -0.0896
  516TIP3    H223184   0.769   1.791   0.481 -0.2529  0.0789  0.1845
  517TIP3   OH223185   4.408   6.360   7.873 -0.5400 -0.0300 -0.0444
  517TIP3    H123186   4.394   6.453   7.893  2.3836  0.4273  0.3184
  517TIP3    H223187   4.322   6.320   7.884 -2.3929  2.9235 -2.1376
  518TIP3   OH223188   3.621   6.191   7.666  0.2035 -0.3601  0.1156
  518TIP3    H123189   3.641   6.227   7.752 -2.7054 -0.7575  1.0940
  518TIP3    H223190   3.586   6.264   7.616 -0.6572 -0.6440  0.2659
  519TIP3   OH223191   4.356   4.239   8.258  0.3858 -0.1365 -0.2269
  519TIP3    H123192   4.330   4.318   8.306  0.9666 -0.8996  1.4076
  519TIP3    H223193   4.301   4.240   8.179  0.1575  1.7165 -0.1002
  520TIP3   OH223194   6.180   1.142   2.145 -0.4198  0.4565 -0.1573
  520TIP3    H123195   6.090   1.162   2.121 -0.3558 -0.3416 -1.1429
  520TIP3    H223196   6.225   1.134   2.061 -0.0926 -2.1561  0.1766
  521TIP3   OH223197   3.542   3.319   7.734 -0.1125 -0.0844  0.1589
  521TIP3    H123198   3.573   3.230   7.715 -1.0105 -0.1682 -1.0091
  521TIP3    H223199   3.558   3.330   7.828 -0.4121 -1.6513  0.4205
  522TIP3   OH223200   5.035   2.587   1.909  0.3371  0.1151  0.2631
  522TIP3    H123201   5.025   2.640   1.830  1.7404 -0.1640 -0.1380
  522TIP3    H223202   5.015   2.498   1.881 -1.1304  0.2715  0.7235
  523TIP3   OH223203   2.380   1.775   0.006 -0.2754  0.3743  0.3311
  523TIP3    H123204   2.342   1.715   0.070  1.3536 -0.1215  0.8962
  523TIP3    H223205   2.449   1.820   0.055  0.9230  0.0748 -1.0171
  524TIP3   OH223206   1.852   5.988   7.597 -0.8053  0.2539  0.1624
  524TIP3    H123207   1.813   5.901   7.605  0.6853 -0.6416 -1.4507
  524TIP3    H223208   1.916   5.992   7.668 -2.4253  0.9818  1.6417
  525TIP3   OH223209   1.114   2.498   2.195  0.6056 -0.2844 -0.1210
  525TIP3    H123210   1.141   2.478   2.285  0.1160  1.2008  0.3936
  525TIP3    H223211   1.113   2.594   2.191  0.4932 -0.3209 -1.6808
  526TIP3   OH223212   2.816   4.916   0.765 -0.0479  0.1274 -0.1488
  526TIP3    H123213   2.785   4.933   0.854  1.5132 -1.6799  0.8102
  526TIP3    H223214   2.754   4.852   0.729 -1.5761  1.9788 -1.0113
  527TIP3   OH223215   4.887   2.571   0.055  0.0387  0.4310  0.2426
  527TIP3    H123216   4.917   2.578   0.145 -0.1053  1.3394  0.2318
  527TIP3    H223217   4.860   2.480   0.045 -0.4040  0.4405  1.2624
  528TIP3   OH223218   6.696   5.959   1.695 -0.7342  0.5984 -0.1299
  528TIP3    H123219   6.634   5.959   1.767 -1.4435  0.1545 -0.7240
  528TIP3    H223220   6.644   5.981   1.618 -0.0716  0.6653 -0.5678
  529TIP3   OH223221   0.230   5.249   1.763 -0.4397 -0.1279  0.1002
  529TIP3    H123222   0.155   5.190   1.762  0.3582 -1.1821  0.6395
  529TIP3    H223223   0.297   5.204   1.712  0.9997 -0.8535  2.4727
  530TIP3   OH223224   3.148   6.526   7.990  0.2779 -0.4910 -0.4842
  530TIP3    H123225   3.242   6.547   7.993  0.3543 -0.8847  0.0547
  530TIP3    H223226   3.104   6.610   8.005  0.5833 -0.9036  4.2808
  531TIP3   OH223227   4.891   5.355   1.815 -0.3377  0.3273  0.0100
  531TIP3    H123228   4.872   5.408   1.892 -0.0078 -0.7747  0.8609
  531TIP3    H223229   4.816   5.297   1.807  0.6791 -1.1880  0.9329
  532TIP3   OH223230   1.354   5.104   0.127  0.3663  0.1992 -0.0240
  532TIP3    H123231   1.389   5.066   0.047  0.1872  0.4243 -0.2131
  532TIP3    H223232   1.323   5.030   0.178  0.7924  0.0286 -0.0129
  533TIP3   OH223233   4.380   2.244   1.077 -0.3526  0.2031 -0.2595
  533TIP3    H123234   4.466   2.246   1.119 -0.8745 -0.6662  0.8786
  533TIP3    H223235   4.344   2.331   1.094  0.6805  0.9674 -1.6562
  534TIP3   OH223236   6.050   0.993   8.092 -0.0472  0.2891  0.4075
  534TIP3    H123237   6.040   1.021   8.001  1.2444 -0.0142  0.1509
  534TIP3    H223238   6.125   1.043   8.125  2.4129 -2.6964 -0.0949
  535TIP3   OH223239   1.087   6.132   8.091  0.1751  0.2610  0.4616
  535TIP3    H123240   1.035   6.130   8.011  0.8809  2.1505 -0.0874
  535TIP3    H223241   1.177   6.136   8.061  0.4068  3.1300  1.1976
  536TIP3   OH223242   1.286   3.031   8.352 -0.0152  0.2309 -0.1133
  536TIP3    H123243   1.319   3.055   8.265  1.5941  0.4066  0.5016
  536TIP3    H223244   1.342   3.080   8.413 -1.2571  0.2855  1.0272
  537TIP3   OH223245   3.947   4.594   7.088  0.7812  0.8013  0.6648
  537TIP3    H123246   3.944   4.522   7.150 -0.7371  1.4274  1.3712
  537TIP3    H223247   4.034   4.589   7.048 -0.2604 -3.4190 -1.7088
  538TIP3   OH223248   5.314   2.788   0.376 -0.3839 -0.0182 -0.7299
  538TIP3    H123249   5.248   2.782   0.445  0.6879  0.0653  0.3409
  538TIP3    H223250   5.329   2.882   0.367 -0.0988 -0.0559 -0.6520
  539TIP3   OH223251   3.966   5.766   7.704  0.3245 -0.4228  0.5092
  539TIP3    H123252   3.898   5.834   7.699 -0.0104 -0.8398 -1.0753
  539TIP3    H223253   4.040   5.810   7.747  0.3202  1.1642 -0.9862
  540TIP3   OH223254   5.808   2.163   0.040 -0.1917 -0.1126  0.7916
  540TIP3    H123255   5.799   2.177  -0.054 -1.6671 -1.4816  0.6930
  540TIP3    H223256   5.896   2.195   0.060  0.6783 -0.9753 -1.3012
  541TIP3   OH223257   5.873   5.922   8.314 -0.1720 -0.0184  0.4590
  541TIP3    H123258   5.916   5.839   8.294 -0.7430 -0.0797 -0.6109
  541TIP3    H223259   5.893   5.978   8.239 -0.0336  0.7243  1.0363
  542TIP3   OH223260   6.666   4.883   2.888 -0.4718  0.0478  0.2001
  542TIP3    H123261   6.758   4.908   2.891 -0.1456 -1.0508 -0.2160
  542TIP3    H223262   6.646   4.854   2.977 -0.1553 -0.5813  0.0698
  543TIP3   OH223263   6.950   4.039   6.952  0.0327 -0.1895 -0.0704
  543TIP3    H123264   6.933   3.996   7.036  1.6113 -0.2986  0.2168
  543TIP3    H223265   6.863   4.058   6.918 -0.6683 -1.3059  0.9854
  544TIP3   OH223266   5.794   2.413   0.270  0.2658 -0.1639 -0.0986
  544TIP3    H123267   5.753   2.360   0.202  1.0648 -0.0103 -0.7089
  544TIP3    H223268   5.852   2.352   0.316  0.7279  0.0397 -0.4107
  545TIP3   OH223269   4.427   6.220   3.003 -0.2839 -0.0673  0.0003
  545TIP3    H123270   4.503   6.263   3.043 -0.7340 -0.4541  1.3379
  545TIP3    H223271   4.433   6.129   3.032 -1.4739 -0.0087  0.4995
  546TIP3   OH223272   3.343   4.713   1.544 -0.0107 -0.9832 -0.3108
  546TIP3    H123273   3.280   4.748   1.606  1.8188  2.3617 -0.0866
  546TIP3    H223274   3.315   4.747   1.459  1.5530  0.9334 -0.1513
  547TIP3   OH223275   1.524   3.763   0.052  0.5180  0.3878  0.0600
  547TIP3    H123276   1.493   3.719   0.131  2.3891 -0.4824  0.3692
  547TIP3    H223277   1.474   3.724  -0.019 -0.5702  0.5535  0.7049
  548TIP3   OH223278   2.133   6.747   8.277 -0.1744  0.1895 -0.3323
  548TIP3    H123279   2.185   6.810   8.327  0.3918 -0.4201 -0.1372
  548TIP3    H223280   2.189   6.723   8.203  0.3764 -1.4248  0.5477
  549TIP3   OH223281   4.218   2.723   0.940  0.0973 -0.4508 -0.0360
  549TIP3    H123282   4.300   2.761   0.908  0.2021 -0.1195  0.6023
  549TIP3    H223283   4.191   2.782   1.011 -2.0095  0.8826 -1.8225
  550TIP3   OH223284   0.399   4.372   1.368 -0.7731  0.2076  0.5869
  550TIP3    H123285   0.367   4.412   1.287 -0.7269 -0.6615  0.1204
  550TIP3    H223286   0.477   4.421   1.390 -2.0107  1.9242  1.3707
  551TIP3   OH223287   6.345   5.976   2.405  0.3971  0.3612 -0.3015
  551TIP3    H123288   6.345   5.953   2.498  0.1444  0.5485 -0.2535
  551TIP3    H223289   6.284   5.914   2.365  0.1423  0.5822 -0.2624
  552TIP3   OH223290   6.047   3.458   0.824 -0.1508 -0.0953 -0.3366
  552TIP3    H123291   6.024   3.543   0.787 -2.0235 -0.7038 -0.6726
  552TIP3    H223292   6.022   3.465   0.916  0.4522 -0.0375 -0.1691
  553TIP3   OH223293   6.116   3.290   2.319  0.0725 -0.1181  0.7418
  553TIP3    H123294   6.190   3.237   2.287 -2.0764 -1.8695 -1.7029
  553TIP3    H223295   6.100   3.257   2.407 -0.6193 -3.0585 -0.3756
  554TIP3   OH223296   2.558   0.131   7.211 -0.3541 -0.1459 -0.5440
  554TIP3    H123297   2.578   0.124   7.304 -0.8171 -0.5663 -0.4732
  554TIP3    H223298   2.640   0.111   7.167 -0.9768 -3.8231 -0.3041
  555TIP3   OH223299   0.749   3.951   0.896 -0.2583 -0.4396 -0.3067
  555TIP3    H123300   0.669   3.999   0.875 -0.3813 -0.9889 -1.1702
  555TIP3    H223301   0.737   3.865   0.855  0.5333 -0.7226  0.0314
  556TIP3   OH223302   5.269   5.710   0.687 -0.8002  0.4197  0.3292
  556TIP3    H123303   5.302   5.796   0.659 -1.1282  0.3345 -0.3472
  556TIP3    H223304   5.179   5.727   0.714 -1.3225  0.0630 -1.1158
  557TIP3   OH223305   0.562   0.141   1.340  0.9510  0.0481 -0.2250
  557TIP3    H123306   0.510   0.094   1.405 -0.2864 -0.2962 -1.4193
  557TIP3    H223307   0.646   0.095   1.340 -0.1406 -2.0791 -1.1734
  558TIP3   OH223308   1.876   6.555   1.070  0.4016  0.7929  0.1373
  558TIP3    H123309   1.898   6.463   1.059  1.6382  1.0774  0.1046
  558TIP3    H223310   1.780   6.557   1.065  0.3872 -0.3954 -0.5304
  559TIP3   OH223311   4.770   4.739   0.111  0.1101  0.2353 -0.9305
  559TIP3    H123312   4.852   4.737   0.061 -0.1599 -0.9737 -1.3407
  559TIP3    H223313   4.703   4.762   0.046  0.0242  0.5486 -0.7333
  560TIP3   OH223314   4.901   5.982   2.017 -0.1304  0.1089 -0.1022
  560TIP3    H123315   4.822   5.956   2.065 -0.6730  1.6442 -0.1217
  560TIP3    H223316   4.880   6.067   1.980  1.5165  0.5180 -0.1755
  561TIP3   OH223317   1.687   5.039   7.528 -0.3427 -0.4194  0.3975
  561TIP3    H123318   1.700   5.001   7.441 -0.9240  0.6658 -0.1797
  561TIP3    H223319   1.752   4.995   7.583 -0.6382 -1.8559 -0.3436
  562TIP3   OH223320   5.615   2.823   7.793  0.6799  0.5326 -0.0878
  562TIP3    H123321   5.707   2.799   7.777 -0.1568 -4.0414  0.7292
  562TIP3    H223322   5.576   2.744   7.831 -3.4748  2.5370  0.2898
  563TIP3   OH223323   5.361   5.295   1.840  0.6673 -0.1223  0.3984
  563TIP3    H123324   5.382   5.214   1.887 -1.2752 -2.6497 -2.6630
  563TIP3    H223325   5.421   5.296   1.765 -2.1654 -1.3599 -2.0981
  564TIP3   OH223326   5.954   4.575   7.613  0.4699  0.2011  0.2711
  564TIP3    H123327   5.906   4.559   7.694  0.5367  2.3700  0.7851
  564TIP3    H223328   5.920   4.658   7.581  1.1603 -0.1238 -1.4205
  565TIP3   OH223329   1.172   6.951   7.925 -0.5380 -0.1765 -0.2912
  565TIP3    H123330   1.148   6.952   7.832 -1.3755 -0.9153 -0.1029
  565TIP3    H223331   1.176   6.858   7.948  2.6052 -0.1404 -0.2799
  566TIP3   OH223332   2.522   2.544   1.144 -0.2458 -0.0652 -0.1871
  566TIP3    H123333   2.538   2.624   1.094  0.7968  1.2097  2.0512
  566TIP3    H223334   2.608   2.505   1.157  0.3135  1.9683  4.1139
  567TIP3   OH223335   3.258   3.415   2.180 -0.3618  0.2629 -0.0558
  567TIP3    H123336   3.228   3.401   2.090 -0.4314  1.3829 -0.2269
  567TIP3    H223337   3.213   3.495   2.208  0.3474  0.4318  0.6532
  568TIP3   OH223338   5.651   6.254   1.771 -0.1507 -0.2261 -0.1030
  568TIP3    H123339   5.717   6.185   1.761 -0.1622 -0.5676  1.7410
  568TIP3    H223340   5.568   6.207   1.773 -0.2613 -0.0293 -0.1095
  569TIP3   OH223341   6.232   2.741   1.054  0.1036  0.3536  0.4144
  569TIP3    H123342   6.277   2.822   1.080  1.7823 -0.5566  0.4712
  569TIP3    H223343   6.176   2.720   1.128  0.0025  1.2116  0.5920
  570TIP3   OH223344   1.213   6.459   8.290  0.4097 -0.0048 -0.6253
  570TIP3    H123345   1.125   6.494   8.304  0.6989  0.4901  0.0101
  570TIP3    H223346   1.265   6.493   8.364  0.7045 -1.8124  0.0446
  571TIP3   OH223347   0.505   0.351   0.860 -0.3758  0.1400  0.3913
  571TIP3    H123348   0.455   0.404   0.798 -0.6592 -0.0986  0.4155
  571TIP3    H223349   0.523   0.411   0.933 -1.1987  0.0477  0.6845
  572TIP3   OH223350   2.358   3.925   7.548 -0.2681 -0.8159  0.5145
  572TIP3    H123351   2.344   3.873   7.469  0.8480 -0.2653 -0.0709
  572TIP3    H223352   2.376   3.860   7.617 -2.5398 -1.3753  0.6672
  573TIP3   OH223353   5.870   2.314   6.958 -0.7966 -0.2122 -0.3130
  573TIP3    H123354   5.965   2.323   6.972 -1.1689 -0.0542  2.8783
  573TIP3    H223355   5.839   2.404   6.949 -0.5312 -0.3148 -3.2363
  574TIP3   OH223356   1.740   2.701   2.040  0.0664 -0.0100 -0.6525
  574TIP3    H123357   1.660   2.728   2.085  0.8921 -0.4741  1.1838
  574TIP3    H223358   1.784   2.783   2.018  0.1045  0.2287  0.2747
  575TIP3   OH223359   2.135   4.496   1.428 -0.5325 -0.1730  0.2512
  575TIP3    H123360   2.157   4.515   1.520  0.1386 -0.7179  0.2120
  575TIP3    H223361   2.063   4.433   1.434 -3.8985  3.2981  0.3974
  576TIP3   OH223362   4.881   2.104   7.979  0.1134  0.6004 -0.1243
  576TIP3    H123363   4.802   2.094   7.926  0.1570 -0.8022  0.0488
  576TIP3    H223364   4.946   2.140   7.918 -0.0699 -0.2146 -0.8075
  577TIP3   OH223365   1.845   1.654   6.980  0.0846  0.3751 -0.5952
  577TIP3    H123366   1.774   1.709   6.948 -0.3582  1.8446  2.5942
  577TIP3    H223367   1.925   1.701   6.957 -0.1730  0.9487 -0.3199
  578TIP3   OH223368   3.751   0.982   7.074  0.0460 -0.1194 -0.1391
  578TIP3    H123369   3.809   0.961   7.002 -0.7633  0.9385 -1.1465
  578TIP3    H223370   3.743   1.077   7.072 -0.4661 -0.1139  0.9781
  579TIP3   OH223371   0.398   0.203   2.158  0.4236  0.0366  0.1036
  579TIP3    H123372   0.340   0.203   2.235 -0.6351  1.2101 -0.6495
  579TIP3    H223373   0.440   0.117   2.160 -1.5364 -0.9826  0.5509
  580TIP3   OH223374   2.590   6.261   2.161 -0.0068 -0.1685 -0.4462
  580TIP3    H123375   2.616   6.329   2.098  1.8147 -0.7176 -0.3521
  580TIP3    H223376   2.587   6.307   2.245  0.9211 -0.1111 -0.4306
  581TIP3   OH223377   1.314   3.072   6.870  0.2340  0.4672  0.2790
  581TIP3    H123378   1.396   3.108   6.904  0.4625 -0.5133  0.8050
  581TIP3    H223379   1.298   3.120   6.789  2.5542 -0.8721 -1.1065
  582TIP3   OH223380   1.745   2.869   0.485 -0.0920  0.6741 -0.2087
  582TIP3    H123381   1.777   2.831   0.403 -1.5110 -0.2835 -0.3792
  582TIP3    H223382   1.796   2.826   0.553 -0.9127 -0.7954 -0.4667
  583TIP3   OH223383   2.738   2.717   7.429  0.1868 -0.2324  0.0564
  583TIP3    H123384   2.683   2.723   7.351 -0.3589  0.5746  0.4865
  583TIP3    H223385   2.686   2.666   7.491  0.9396 -1.5549 -0.3444
  584TIP3   OH223386   3.195   0.914   1.804  0.7666 -0.4845 -0.2773
  584TIP3    H123387   3.271   0.918   1.745  1.0535  2.7800  0.1479
  584TIP3    H223388   3.122   0.947   1.751  0.1732 -1.1314  0.1153
  585TIP3   OH223389   3.204   5.405   7.807 -0.1794 -0.5193 -0.1970
  585TIP3    H123390   3.235   5.412   7.898 -1.0429  0.3451  0.0481
  585TIP3    H223391   3.279   5.431   7.754 -0.3842  1.4114  0.3811
  586TIP3   OH223392   4.401   6.075   8.006  0.0876  0.2623  0.5399
  586TIP3    H123393   4.488   6.097   7.972 -0.6082 -1.4677 -2.7231
  586TIP3    H223394   4.388   5.983   7.982 -2.5246  0.3524  1.2788
  587TIP3   OH223395   2.350   3.705   7.344 -1.0797 -0.3760  0.1437
  587TIP3    H123396   2.340   3.613   7.367  1.2163 -0.1198  2.8700
  587TIP3    H223397   2.440   3.712   7.312 -1.3811  0.8437 -0.4925
  588TIP3   OH223398   1.235   1.684   8.282 -0.1996 -0.7921  0.1905
  588TIP3    H123399   1.187   1.602   8.294 -0.0287 -0.7379  1.3213
  588TIP3    H223400   1.168   1.749   8.262 -0.2404 -1.4070 -1.9932
  589TIP3   OH223401   1.360   1.121   7.801  0.0264 -0.5170  0.2793
  589TIP3    H123402   1.273   1.120   7.842  0.6222 -3.2964  1.7134
  589TIP3    H223403   1.386   1.213   7.802 -2.3939  0.2254  0.9074
  590TIP3   OH223404   2.634   4.981   1.860 -0.1133 -0.3395  0.2353
  590TIP3    H123405   2.572   4.946   1.796  1.6118 -1.8348 -0.7006
  590TIP3    H223406   2.686   4.906   1.888  1.8252  0.9628  0.3457
  591TIP3   OH223407   1.484   3.763   7.848 -0.0921  0.1163 -0.1179
  591TIP3    H123408   1.522   3.677   7.866  2.9230  1.5349  0.9772
  591TIP3    H223409   1.518   3.787   7.762 -1.3343  0.0551 -0.6452
  592TIP3   OH223410   2.480   1.592   7.100  0.9986  0.0488 -0.0567
  592TIP3    H123411   2.392   1.575   7.135  1.3639 -0.3166  0.7065
  592TIP3    H223412   2.465   1.652   7.027  0.0398 -0.6190 -0.4346
  593TIP3   OH223413   6.002   6.433   2.313 -0.4486  0.1348 -0.2476
  593TIP3    H123414   5.941   6.375   2.357 -0.6811  0.6110  0.0701
  593TIP3    H223415   5.960   6.519   2.317  0.6742  0.6637  0.8395
  594TIP3   OH223416   6.003   0.276   1.485  0.2894 -0.5448  0.0976
  594TIP3    H123417   6.079   0.296   1.540  0.1950  0.5033 -0.1473
  594TIP3    H223418   5.988   0.355   1.434  0.5481 -1.5927 -1.6665
  595TIP3   OH223419   1.789   1.558   1.179 -0.1047 -0.2488  0.0457
  595TIP3    H123420   1.711   1.511   1.148 -0.2286 -0.7952  1.1405
  595TIP3    H223421   1.862   1.500   1.158  0.0953  0.5074 -1.4850
  596TIP3   OH223422   6.359   5.762   7.564  0.0815  0.0959  0.0698
  596TIP3    H123423   6.392   5.722   7.483  1.9364  1.9786 -0.1817
  596TIP3    H223424   6.283   5.708   7.587  0.1948 -1.2281 -2.2564
  597TIP3   OH223425   0.417   2.860   8.049 -0.8955  0.1419  0.6766
  597TIP3    H123426   0.470   2.842   8.127 -2.4290 -0.0603  1.6985
  597TIP3    H223427   0.377   2.776   8.027 -0.1222  0.0842 -0.6368
  598TIP3   OH223428   2.963   4.427   0.404  0.0910  0.0656  0.3451
  598TIP3    H123429   3.043   4.480   0.399  1.1786 -1.5658 -0.9723
  598TIP3    H223430   2.894   4.485   0.371  1.1812  0.7789 -0.8050
  599TIP3   OH223431   5.181   1.473   1.483  0.0034 -0.3423 -0.0124
  599TIP3    H123432   5.197   1.468   1.577 -1.5603 -0.1823  0.2839
  599TIP3    H223433   5.236   1.404   1.446 -0.1076 -1.0810  1.1272
  600TIP3   OH223434   1.060   1.301   0.442 -0.8559  0.4830  0.0664
  600TIP3    H123435   0.981   1.250   0.457 -1.4331  1.5433  0.7630
  600TIP3    H223436   1.056   1.372   0.506  0.2203  1.0672 -0.4696
  601TIP3   OH223437   3.617   2.931   8.264 -0.1545 -0.1734 -0.3681
  601TIP3    H123438   3.614   3.024   8.288  0.9632  0.0080 -0.8480
  601TIP3    H223439   3.596   2.885   8.345  1.0060  0.4759  0.3265
  602TIP3   OH223440   1.202   3.800   1.041  0.1614 -0.1508  0.4678
  602TIP3    H123441   1.135   3.861   1.071  0.1160 -0.0517  0.1611
  602TIP3    H223442   1.164   3.758   0.964  1.1917  1.2877 -0.8774
  603TIP3   OH223443   6.763   2.118   7.168 -0.3017  0.3866  0.1198
  603TIP3    H123444   6.841   2.140   7.118 -0.4063  0.4650 -0.0085
  603TIP3    H223445   6.694   2.110   7.102 -0.4423  0.5050  0.2531
  604TIP3   OH223446   4.398   0.787   7.888  0.5133  0.2480  0.5075
  604TIP3    H123447   4.458   0.796   7.962  2.1970 -0.3469 -0.7262
  604TIP3    H223448   4.402   0.694   7.864  0.5350  0.5448 -0.7422
  605TIP3   OH223449   4.092   4.979   7.606  0.0200  0.0474  0.1000
  605TIP3    H123450   4.068   5.055   7.553  0.3528  0.0002 -0.1174
  605TIP3    H223451   4.017   4.966   7.665  0.2804  0.9954  0.6488
  606TIP3   OH223452   4.452   6.655   8.175 -0.6250  0.5582 -0.3621
  606TIP3    H123453   4.411   6.616   8.252  0.6250  0.2625  0.1820
  606TIP3    H223454   4.383   6.659   8.109 -1.3808 -0.3704  0.3648
  607TIP3   OH223455   2.614   6.694   8.273  0.2065  0.4873 -0.2472
  607TIP3    H123456   2.580   6.713   8.185 -0.1315  1.4983  0.0794
  607TIP3    H223457   2.583   6.768   8.326 -0.2189 -0.4852  0.8886
  608TIP3   OH223458   5.294   5.992   0.424  0.0949 -0.0214 -0.0430
  608TIP3    H123459   5.264   6.018   0.337 -1.0467  1.3892  0.7253
  608TIP3    H223460   5.216   5.958   0.467  0.5618 -0.3492  0.5601
  609TIP3   OH223461   0.498   0.804   2.387 -0.2363 -0.3131  0.1928
  609TIP3    H123462   0.526   0.798   2.296 -0.4424 -0.9595  0.1635
  609TIP3    H223463   0.541   0.729   2.429  1.5549  1.1350  1.0956
  610TIP3   OH223464   2.622   5.501   0.393 -0.4091  0.2175  0.1445
  610TIP3    H123465   2.538   5.542   0.373  0.6641  2.1270 -0.7111
  610TIP3    H223466   2.680   5.574   0.412  1.2954 -0.9991 -0.1563
  611TIP3   OH223467   0.631   6.825   6.844 -0.0378  0.1784 -0.4080
  611TIP3    H123468   0.661   6.735   6.858  2.6726  1.1602  0.8045
  611TIP3    H223469   0.540   6.816   6.814  0.8542 -3.0247 -2.6460
  612TIP3   OH223470   4.864   5.981   7.857  0.2955 -0.9264  0.2374
  612TIP3    H123471   4.881   5.962   7.950  1.5292 -1.5897 -0.1021
  612TIP3    H223472   4.949   5.967   7.814  0.3549  1.6795 -0.6481
  613TIP3   OH223473   2.147   4.747   0.020  0.4483  0.0927  0.3458
  613TIP3    H123474   2.063   4.774   0.055  1.2522  0.8493  1.7893
  613TIP3    H223475   2.211   4.801   0.066  1.6415  0.7404 -1.9299
  614TIP3   OH223476   2.149   4.808   1.970  0.2788 -0.0292 -0.4756
  614TIP3    H123477   2.198   4.890   1.974  1.7384 -0.9046  1.0822
  614TIP3    H223478   2.104   4.803   2.054  1.8730 -1.7421  0.3450
  615TIP3   OH223479   0.120   6.032   7.200  0.6761  0.1009  0.0922
  615TIP3    H123480   0.165   5.961   7.245  0.0542 -0.5122 -0.2393
  615TIP3    H223481   0.098   5.996   7.114  0.3983  0.7078 -0.0956
  616TIP3   OH223482   0.968   1.737   8.411  0.0557  0.5142 -0.1700
  616TIP3    H123483   0.878   1.707   8.425  0.5553 -2.5472 -2.4046
  616TIP3    H223484   1.022   1.662   8.436  1.9026  1.6793 -0.4682
  617TIP3   OH223485   5.910   1.330   1.615  0.1622  0.3192 -0.7816
  617TIP3    H123486   5.999   1.363   1.613  0.3589 -0.1388  0.0894
  617TIP3    H223487   5.887   1.326   1.707 -0.7497  0.3954 -0.9939
  618TIP3   OH223488   1.263   6.136   1.691  0.1087  0.5170 -0.1066
  618TIP3    H123489   1.336   6.167   1.744  0.9378 -0.6388 -0.5335
  618TIP3    H223490   1.192   6.123   1.754  0.6419  0.5108  0.5001
  619TIP3   OH223491   1.217   3.347   0.086 -0.1078 -1.0413  0.3978
  619TIP3    H123492   1.170   3.411   0.140  0.8216  0.2545 -0.2779
  619TIP3    H223493   1.160   3.269   0.086 -1.0750 -0.3774  1.5688
  620TIP3   OH223494   6.711   0.656   1.743  0.0234  0.1845  0.2583
  620TIP3    H123495   6.728   0.736   1.693  0.9939  0.5570  1.1388
  620TIP3    H223496   6.769   0.663   1.819  0.3864 -1.5287  0.1715
  621TIP3   OH223497   1.817   5.067   2.283 -0.4288 -0.2543  0.5598
  621TIP3    H123498   1.732   5.030   2.306 -0.2436 -0.4926  0.8740
  621TIP3    H223499   1.804   5.161   2.287 -0.6723 -0.2898  0.6292
  622TIP3   OH223500   3.310   6.678   8.219 -0.2191 -0.7918  0.1550
  622TIP3    H123501   3.347   6.693   8.132 -2.9505 -1.8183 -1.3329
  622TIP3    H223502   3.257   6.756   8.237  0.5344 -0.4707  1.0403
  623TIP3   OH223503   1.692   0.194   0.944 -0.0332  0.2904  0.1268
  623TIP3    H123504   1.745   0.226   1.017  0.2024 -1.0266  0.5496
  623TIP3    H223505   1.755   0.175   0.874  0.0118 -0.7846  0.4499
  624TIP3   OH223506   0.602   0.919   1.600  0.0576 -0.4779 -0.2910
  624TIP3    H123507   0.613   0.893   1.692 -1.0665 -0.6661 -0.1994
  624TIP3    H223508   0.540   0.855   1.564  0.5123 -0.4259 -1.1950
  625TIP3   OH223509   2.806   6.239   0.854  0.0922  0.3103 -0.3183
  625TIP3    H123510   2.871   6.274   0.792  1.0205  0.4360  0.6907
  625TIP3    H223511   2.858   6.187   0.916 -0.9125 -0.4389 -0.0826
  626TIP3   OH223512   2.481   5.421   1.501  0.3713  0.1317  0.2723
  626TIP3    H123513   2.497   5.450   1.591 -0.7614 -0.1377  0.5785
  626TIP3    H223514   2.492   5.499   1.448  0.2015  0.4873  0.7485
  627TIP3   OH223515   4.242   4.587   0.664 -0.9678 -0.0525  0.0665
  627TIP3    H123516   4.316   4.609   0.608 -1.3001 -0.6755 -0.6428
  627TIP3    H223517   4.205   4.672   0.690 -1.3560  0.2655 -1.4254
  628TIP3   OH223518   1.068   1.598   7.752  0.1793 -0.1725 -0.0055
  628TIP3    H123519   1.044   1.530   7.815 -2.1838  1.4841  1.0117
  628TIP3    H223520   1.137   1.648   7.795  1.2728 -1.2893 -0.3843
  629TIP3   OH223521   0.795   4.145   7.321 -0.4695  0.5260 -0.1587
  629TIP3    H123522   0.811   4.156   7.227  1.8664  2.9580  0.3966
  629TIP3    H223523   0.750   4.225   7.347  3.1839  2.2930  1.4795
  630TIP3   OH223524   2.256   0.472   1.184 -0.6533  0.1894 -0.5730
  630TIP3    H123525   2.320   0.515   1.240 -1.7299  0.2890  0.6322
  630TIP3    H223526   2.278   0.502   1.096  1.0312  0.0841 -0.2193
  631TIP3   OH223527   4.911   1.582   0.295 -0.5851  0.2088 -0.0430
  631TIP3    H123528   4.846   1.578   0.225  0.2952  1.1954 -0.9656
  631TIP3    H223529   4.995   1.571   0.250 -0.1088 -1.4484  1.1712
  632TIP3   OH223530   5.802   2.153   2.106  0.6887  0.2398  0.0717
  632TIP3    H123531   5.715   2.115   2.098  0.9231 -0.5399  1.0140
  632TIP3    H223532   5.828   2.173   2.016  0.5604 -1.9120 -0.4943
  633TIP3   OH223533   4.204   5.913   7.605 -0.1121  0.1151  0.6619
  633TIP3    H123534   4.267   5.985   7.609  0.0822  0.0432 -0.6003
  633TIP3    H223535   4.252   5.838   7.641  0.5109  0.0879 -0.1768
  634TIP3   OH223536   2.532   2.225   1.599  0.0201  0.5789 -0.0741
  634TIP3    H123537   2.500   2.311   1.572 -2.1503 -0.2779 -0.4258
  634TIP3    H223538   2.603   2.244   1.660 -0.9305  2.6213  0.4792
  635TIP3   OH223539   1.515   5.928   1.693  0.2042 -0.2627  0.1073
  635TIP3    H123540   1.502   5.841   1.732  1.0845 -1.9933 -3.0179
  635TIP3    H223541   1.435   5.943   1.642  1.1389 -0.5738 -1.5144
  636TIP3   OH223542   6.537   1.401   0.429 -0.3065 -0.3006 -0.2495
  636TIP3    H123543   6.535   1.497   0.431 -1.6758 -0.3199  1.6416
  636TIP3    H223544   6.451   1.376   0.395 -0.5695 -0.8587  0.7936
  637TIP3   OH223545   4.413   4.367   2.245 -0.0307 -0.5098 -0.0891
  637TIP3    H123546   4.457   4.287   2.218  2.1791 -0.9970  4.1554
  637TIP3    H223547   4.346   4.337   2.306  0.8494  0.8014  1.5824
  638TIP3   OH223548   1.369   0.471   2.390 -0.1875  0.0047 -0.9617
  638TIP3    H123549   1.317   0.427   2.323  0.0167  0.9987 -1.7906
  638TIP3    H223550   1.320   0.456   2.471 -1.6275  0.6754 -1.6764
  639TIP3   OH223551   3.401   5.115   0.870  0.1693 -0.9031  0.0266
  639TIP3    H123552   3.319   5.159   0.891 -0.2021 -0.5744 -1.9702
  639TIP3    H223553   3.382   5.022   0.882 -0.6799 -0.8686 -0.9412
  640TIP3   OH223554   0.247   3.443   0.592 -0.6215  1.1044  0.1259
  640TIP3    H123555   0.263   3.535   0.568 -0.3008  0.8192 -0.8212
  640TIP3    H223556   0.310   3.394   0.539 -0.1318  0.3941  1.3289
  641TIP3   OH223557   6.311   5.284   0.177  0.0618  0.4485 -0.0043
  641TIP3    H123558   6.229   5.270   0.224  0.2370 -2.0366 -0.3211
  641TIP3    H223559   6.284   5.314   0.090 -0.5408 -0.4551 -0.1418
  642TIP3   OH223560   2.951   5.076   1.350 -0.4339 -0.0154 -0.1826
  642TIP3    H123561   3.041   5.087   1.379 -0.1689  0.2578 -1.0631
  642TIP3    H223562   2.940   4.981   1.342 -0.9108 -0.1828  1.9447
  643TIP3   OH223563   6.704   3.401   7.639  0.5905  0.5416 -0.3201
  643TIP3    H123564   6.771   3.378   7.574  0.2119 -1.5609 -0.0083
  643TIP3    H223565   6.633   3.339   7.625 -0.0123  0.8033  1.3433
  644TIP3   OH223566   4.827   5.966   0.064  0.5292  0.0268 -0.6622
  644TIP3    H123567   4.810   5.891   0.007  0.5401 -0.4397 -0.0618
  644TIP3    H223568   4.760   6.030   0.040  1.4026  0.4196 -2.1915
  645TIP3   OH223569   5.222   4.163   0.114 -0.2608  0.0419  0.1320
  645TIP3    H123570   5.136   4.128   0.140  0.3080 -1.3115  0.2836
  645TIP3    H223571   5.245   4.223   0.185 -1.4928  1.1813 -0.3854
  646TIP3   OH223572   2.778   0.872   1.795  0.5412 -0.3863 -0.2223
  646TIP3    H123573   2.809   0.786   1.767  0.6692 -0.2808 -0.4132
  646TIP3    H223574   2.796   0.929   1.720  0.3320 -0.2213 -0.1494
  647TIP3   OH223575   1.044   3.758   0.270 -0.2844  0.1983  0.5258
  647TIP3    H123576   0.954   3.739   0.243 -0.1607  1.6073 -1.0449
  647TIP3    H223577   1.091   3.676   0.255 -1.1880 -0.3813  0.7992
  648TIP3   OH223578   6.363   5.989   1.809 -0.4647 -0.7106  0.3747
  648TIP3    H123579   6.431   5.944   1.860  2.5934  0.6320 -2.1986
  648TIP3    H223580   6.347   5.932   1.734  1.0915  0.8422 -1.2400
  649TIP3   OH223581   4.443   0.663   1.115 -0.4134 -0.0395 -0.3593
  649TIP3    H123582   4.447   0.568   1.113 -0.4766 -0.0480 -0.1110
  649TIP3    H223583   4.512   0.688   1.177 -0.9862  0.0371  0.2484
  650TIP3   OH223584   1.302   5.979   1.487 -0.0525  0.4273  0.6239
  650TIP3    H123585   1.276   6.057   1.535  0.7312  0.6479  0.7042
  650TIP3    H223586   1.220   5.937   1.464 -0.4762  1.0774  0.9064
  651TIP3   OH223587   5.779   4.945   0.205 -0.3840 -0.1908 -0.2238
  651TIP3    H123588   5.741   5.031   0.183  1.5288  0.5572 -0.7919
  651TIP3    H223589   5.703   4.887   0.211 -1.7152  1.4613 -0.1351
  652TIP3   OH223590   6.250   0.812   2.181  0.2662  0.1946 -0.4737
  652TIP3    H123591   6.300   0.845   2.255  0.5972 -1.6901  0.2068
  652TIP3    H223592   6.165   0.857   2.186 -0.2020 -0.8208  1.8424
  653TIP3   OH223593   2.166   6.221   0.355  0.7629  0.3179  0.3715
  653TIP3    H123594   2.239   6.262   0.401  0.9734  1.0672 -0.6062
  653TIP3    H223595   2.195   6.131   0.340  0.8191  0.1555  1.4004
  654TIP3   OH223596   6.748   2.554   8.182  0.1068 -0.1902 -0.6272
  654TIP3    H123597   6.795   2.541   8.264 -1.7309 -1.0465  0.3392
  654TIP3    H223598   6.782   2.637   8.148  3.3193 -1.4032 -0.7551
  655TIP3   OH223599   1.334   0.438   2.045  0.2439 -0.1840 -0.3672
  655TIP3    H123600   1.281   0.375   2.095 -0.5169  0.5759 -0.1924
  655TIP3    H223601   1.320   0.414   1.953 -1.9149  1.1179 -0.4403
  656TIP3   OH223602   1.247   1.251   1.850 -0.2526  0.2114  0.6561
  656TIP3    H123603   1.256   1.278   1.942 -0.1215 -0.1810  0.7609
  656TIP3    H223604   1.276   1.328   1.800 -1.1681  0.7473  0.9199
  657TIP3   OH223605   2.076   5.176   1.783  0.3412  0.7183 -0.4829
  657TIP3    H123606   2.022   5.173   1.862 -0.8098 -0.8375 -1.2780
  657TIP3    H223607   2.037   5.112   1.725 -0.2400  3.3680 -3.2353
  658TIP3   OH223608   0.209   3.808   7.136  0.3500 -0.0904  0.1299
  658TIP3    H123609   0.197   3.776   7.046 -1.1413 -2.5714  1.1147
  658TIP3    H223610   0.143   3.877   7.146  0.3696  0.0407 -0.6011
  659TIP3   OH223611   6.583   6.367   7.807 -0.1448 -0.3988 -0.5796
  659TIP3    H123612   6.517   6.425   7.846  0.8918  0.6872 -0.3862
  659TIP3    H223613   6.556   6.359   7.715 -0.5903 -0.0287 -0.4837
  660TIP3   OH223614   0.101   5.229   7.700 -0.9313  0.8186  0.2558
  660TIP3    H123615   0.127   5.239   7.792  1.8015  0.6444 -0.4281
  660TIP3    H223616   0.115   5.136   7.682 -1.5612  0.8338 -0.3389
  661TIP3   OH223617   6.848   5.892   0.608  0.3975  0.0068 -0.3477
  661TIP3    H123618   6.833   5.824   0.541  0.6144  0.5400 -0.9483
  661TIP3    H223619   6.807   5.857   0.687  0.6463 -0.9002 -0.6042
  662TIP3   OH223620   2.575   2.734   0.420 -0.1227 -0.2882 -0.5914
  662TIP3    H123621   2.536   2.710   0.504  0.0863  0.0011 -0.4075
  662TIP3    H223622   2.660   2.771   0.444  1.2394 -2.8676 -1.0955
  663TIP3   OH223623   2.172   2.081   0.664  0.1653  0.3252  0.2108
  663TIP3    H123624   2.216   2.093   0.579 -0.3576 -1.2265 -0.3215
  663TIP3    H223625   2.079   2.093   0.645  0.1778  1.9507  1.0048
  664TIP3   OH223626   5.817   1.569   2.058 -0.1911 -0.0922  0.3379
  664TIP3    H123627   5.882   1.613   2.112  0.4030 -1.1392  0.5129
  664TIP3    H223628   5.770   1.512   2.118 -0.0409 -0.6961 -0.1081
  665TIP3   OH223629   0.354   5.539   0.002 -0.0723 -0.0787 -0.1706
  665TIP3    H123630   0.416   5.495  -0.056 -1.6536 -2.6911 -0.0389
  665TIP3    H223631   0.384   5.517   0.091 -2.0902 -3.0686 -0.0752
  666TIP3   OH223632   4.811   2.442   8.130  1.1011  0.3463 -0.1799
  666TIP3    H123633   4.845   2.364   8.173 -2.2601 -0.0651  2.1030
  666TIP3    H223634   4.733   2.411   8.082  0.7029  2.0140 -0.6934
  667TIP3   OH223635   3.018   5.733   8.161 -0.9854  0.2705 -0.6713
  667TIP3    H123636   2.941   5.785   8.183 -0.7246  1.0021 -1.4654
  667TIP3    H223637   3.083   5.796   8.131  0.9688  0.0510  2.5549
  668TIP3   OH223638   6.154   5.475   8.371 -0.4966 -0.0612 -0.0149
  668TIP3    H123639   6.192   5.391   8.347 -0.3287 -0.2192  0.7861
  668TIP3    H223640   6.087   5.453   8.435  0.0383  0.4818  0.7353
  669TIP3   OH223641   2.952   4.864   2.829  0.6272  0.0957  1.0157
  669TIP3    H123642   2.911   4.860   2.915  0.3709  0.0867  0.8927
  669TIP3    H223643   2.889   4.910   2.774 -0.1000 -1.6491  0.3228
  670TIP3   OH223644   5.999   6.953   1.856  0.0120 -0.2706  0.3254
  670TIP3    H123645   6.084   6.909   1.862  0.4002  0.5224  0.7222
  670TIP3    H223646   5.935   6.884   1.878  0.6147 -0.6409  0.9567
  671TIP3   OH223647   6.288   1.621   0.141  0.0912 -0.2475  1.0521
  671TIP3    H123648   6.293   1.537   0.187  0.4257 -0.0991  1.2902
  671TIP3    H223649   6.195   1.630   0.118  0.3520 -1.6384 -0.7647
  672TIP3   OH223650   0.503   3.709   0.404  0.2608 -0.1022  0.4791
  672TIP3    H123651   0.467   3.713   0.315 -0.8397  1.3728  0.9555
  672TIP3    H223652   0.429   3.686   0.459  0.7532 -0.1645  1.1216
  673TIP3   OH223653   3.702   4.893   6.583  0.2249  0.2035 -0.1373
  673TIP3    H123654   3.669   4.813   6.541  0.3039  0.0194  0.1489
  673TIP3    H223655   3.670   4.964   6.527  0.5689 -0.0543 -0.6654
  674TIP3   OH223656   3.296   5.067   7.412  0.5278  0.7234 -0.7654
  674TIP3    H123657   3.226   5.129   7.435 -0.4579 -0.8037  0.6007
  674TIP3    H223658   3.298   5.005   7.485  2.0566 -0.3708 -1.6755
  675TIP3   OH223659   3.439   0.001   6.580  0.0291  0.1804  0.4409
  675TIP3    H123660   3.486  -0.079   6.559 -0.4278  0.0926 -0.3011
  675TIP3    H223661   3.394  -0.019   6.662 -2.2821 -1.3418 -1.0667
  676TIP3   OH223662   1.204   4.982   0.359  0.1716  0.4130 -0.1528
  676TIP3    H123663   1.269   4.929   0.405 -0.0695 -0.9766 -1.3390
  676TIP3    H223664   1.137   5.001   0.426 -0.6445 -2.3491 -0.0763
  677TIP3   OH223665   6.936   6.381   2.479 -0.2832  0.0876  0.9283
  677TIP3    H123666   7.023   6.408   2.451 -0.2903  0.2970  1.1036
  677TIP3    H223667   6.916   6.438   2.553 -0.4753 -0.1115  1.0319
  678TIP3   OH223668   1.901   6.708   1.304 -0.2655 -0.4853 -0.0288
  678TIP3    H123669   1.895   6.655   1.224 -0.1739  0.1483 -0.4661
  678TIP3    H223670   1.869   6.651   1.373  1.9401 -1.9336 -0.0861
  679TIP3   OH223671   4.233   5.581   0.230 -0.1916 -0.5371  0.3376
  679TIP3    H123672   4.259   5.552   0.142  2.3121  1.2545  0.4106
  679TIP3    H223673   4.242   5.503   0.285 -0.1600 -1.2607 -0.6669
  680TIP3   OH223674   6.118   0.753   8.182 -0.0621 -0.0235  0.3108
  680TIP3    H123675   6.192   0.796   8.226  0.5819  0.0658 -0.8355
  680TIP3    H223676   6.081   0.820   8.125 -0.8027 -0.1802  0.5914
  681TIP3   OH223677   6.291   6.439   8.287 -0.5432 -0.3666 -0.2308
  681TIP3    H123678   6.321   6.442   8.378 -2.7342  0.3173  0.5346
  681TIP3    H223679   6.327   6.519   8.248  0.3448 -0.6249  0.0196
  682TIP3   OH223680   5.922   5.870   1.405 -0.0314  0.0969 -0.4179
  682TIP3    H123681   6.009   5.857   1.441 -0.8066  0.3643  1.6520
  682TIP3    H223682   5.907   5.793   1.349  0.5730 -1.2279  1.1756
  683TIP3   OH223683   0.193   2.436   1.422 -0.3566 -0.0754  0.0831
  683TIP3    H123684   0.266   2.485   1.460 -1.6119  1.2464  0.8721
  683TIP3    H223685   0.140   2.501   1.377 -1.6965 -0.7826  0.5620
  684TIP3   OH223686   1.657   5.512   0.302 -0.3555 -0.1157  0.3330
  684TIP3    H123687   1.604   5.460   0.243 -0.9356  1.3486 -0.4967
  684TIP3    H223688   1.595   5.571   0.345  0.2927  0.0266  1.1122
  685TIP3   OH223689   5.190   2.441   8.125 -0.1907 -0.4928 -0.4733
  685TIP3    H123690   5.195   2.353   8.163 -2.7322 -1.0966 -1.3616
  685TIP3    H223691   5.189   2.499   8.201  1.6190 -1.1469  0.1304
  686TIP3   OH223692   1.843   5.088   7.869 -0.5937  0.0855 -0.1064
  686TIP3    H123693   1.781   5.145   7.824 -0.6406 -0.1185 -0.3008
  686TIP3    H223694   1.851   5.011   7.812  1.0406  0.7923 -0.8936
  687TIP3   OH223695   4.933   2.921   7.994 -0.5612 -0.1948  0.0691
  687TIP3    H123696   4.877   2.993   8.021 -1.2628 -0.0512 -1.6434
  687TIP3    H223697   4.962   2.880   8.076 -2.3041  0.3794  1.0071
  688TIP3   OH223698   4.060   1.038   2.609  0.1627 -0.5415  0.3019
  688TIP3    H123699   4.134   1.052   2.550 -0.7590 -1.4644 -1.1386
  688TIP3    H223700   4.055   0.943   2.620 -1.2429 -0.5636 -0.2718
  689TIP3   OH223701   4.589   1.965   7.405  0.2304  0.4886 -0.1518
  689TIP3    H123702   4.598   1.923   7.491 -0.0259  1.2514  0.2641
  689TIP3    H223703   4.538   1.903   7.353 -0.8561  0.6274  0.7104
  690TIP3   OH223704   5.115   4.764   8.075 -0.6182 -0.0865 -0.4140
  690TIP3    H123705   5.051   4.818   8.030 -0.8645  0.2950  0.3720
  690TIP3    H223706   5.190   4.761   8.016 -0.3713  1.6096 -0.2383
  691TIP3   OH223707   4.033   6.928   8.270 -0.2599  0.1630  0.4337
  691TIP3    H123708   3.967   6.896   8.331  0.4435 -1.1154  0.5548
  691TIP3    H223709   4.108   6.950   8.325  0.2879 -0.7550  0.0662
  692TIP3   OH223710   0.359   3.503   7.725 -0.2005  0.0379  0.0710
  692TIP3    H123711   0.309   3.450   7.664 -1.1056  0.7484  0.1730
  692TIP3    H223712   0.411   3.441   7.775 -1.4215 -0.7724  0.3614
  693TIP3   OH223713   0.073   1.851   1.177  0.5238 -0.0033 -0.5999
  693TIP3    H123714   0.119   1.775   1.212 -1.5051 -0.7566  0.6283
  693TIP3    H223715   0.073   1.838   1.082  0.1329 -1.6097 -0.4071
  694TIP3   OH223716   3.771   0.738   8.067  0.4794  0.7331  0.2056
  694TIP3    H123717   3.706   0.808   8.056 -0.3818  0.2004  1.5667
  694TIP3    H223718   3.721   0.665   8.103  1.7679  0.1861  0.9454
  695TIP3   OH223719   5.568   4.594   8.191  0.3961  0.3718 -0.1947
  695TIP3    H123720   5.661   4.595   8.168  1.3012 -0.5821  2.8811
  695TIP3    H223721   5.527   4.537   8.126  2.0887  0.2243 -1.1753
  696TIP3   OH223722   3.390   6.956   7.324  0.5253 -0.3045  0.3245
  696TIP3    H123723   3.475   6.945   7.365  0.5774  0.8389  0.5697
  696TIP3    H223724   3.380   7.051   7.315 -1.2759 -0.3244  1.5070
  697TIP3   OH223725   6.502   3.110   7.213 -0.0677 -0.1472  0.2150
  697TIP3    H123726   6.506   3.197   7.174  1.7975  1.0576  2.7744
  697TIP3    H223727   6.579   3.064   7.180 -1.1003 -0.9472 -1.2086
  698TIP3   OH223728   6.271   4.452   1.181 -0.0395  0.1079  0.7270
  698TIP3    H123729   6.180   4.450   1.211  0.0200  0.8923  0.9690
  698TIP3    H223730   6.318   4.502   1.248  0.5852 -0.3336  0.6314
  699TIP3   OH223731   3.998   4.507   1.286 -0.3104 -0.1548  0.2026
  699TIP3    H123732   3.944   4.517   1.364  0.2402 -0.5818  0.6508
  699TIP3    H223733   4.062   4.439   1.310  0.3499  0.2600 -0.3441
  700TIP3   OH223734   1.194   2.713   0.695  0.2867  0.3232  0.0185
  700TIP3    H123735   1.262   2.778   0.713  0.1539  0.9849 -1.6856
  700TIP3    H223736   1.125   2.761   0.649 -1.0105 -0.4979  1.0130
  701TIP3   OH223737   6.474   0.283   6.363 -0.4198  0.3772 -0.0105
  701TIP3    H123738   6.498   0.333   6.285  0.3652  0.9448  0.5908
  701TIP3    H223739   6.479   0.345   6.435 -1.0783 -0.1601  0.5114
  702TIP3   OH223740   5.038   3.217   2.769 -0.2050  0.0378  0.0720
  702TIP3    H123741   5.056   3.128   2.740  0.6653  0.2672 -0.1287
  702TIP3    H223742   4.943   3.221   2.778 -0.2709 -0.8304 -0.1708
  703TIP3   OH223743   6.127   5.507   0.375  0.2549 -1.0120 -0.3713
  703TIP3    H123744   6.044   5.496   0.328 -0.6233 -1.0161  1.1119
  703TIP3    H223745   6.182   5.559   0.316 -0.5585 -1.5762 -1.6585
  704TIP3   OH223746   4.905   5.020   1.969  0.0707 -0.1807 -0.5164
  704TIP3    H123747   4.919   5.089   1.905  1.9158  0.3071  0.3596
  704TIP3    H223748   4.982   5.022   2.026 -2.1865  0.6194  2.8694
  705TIP3   OH223749   1.415   5.887   7.749  0.1314 -0.5238 -0.3863
  705TIP3    H123750   1.442   5.798   7.729 -0.7193 -0.4967 -1.7437
  705TIP3    H223751   1.489   5.924   7.797  0.4795 -1.9598  0.2469
  706TIP3   OH223752   5.078   1.161   0.519 -0.1660 -0.5110  0.0559
  706TIP3    H123753   4.994   1.181   0.562 -0.5083 -1.4599 -0.1429
  706TIP3    H223754   5.077   1.066   0.509  0.8827 -0.5149 -0.0758
  707TIP3   OH223755   2.217   5.698   2.587 -0.4539  0.1664 -0.1705
  707TIP3    H123756   2.141   5.744   2.550 -0.5987 -0.9796 -1.3837
  707TIP3    H223757   2.244   5.752   2.660 -1.3416  1.5496 -0.8138
  708TIP3   OH223758   5.877   5.015   1.809  0.3519  0.1860  0.1925
  708TIP3    H123759   5.824   5.066   1.869 -0.2862 -0.7933  0.4804
  708TIP3    H223760   5.957   4.995   1.858  0.3658  0.4400  0.2726
  709TIP3   OH223761   5.154   1.000   0.848 -0.3347 -0.2252  0.9488
  709TIP3    H123762   5.147   1.093   0.828 -1.4875 -0.2743  1.0498
  709TIP3    H223763   5.246   0.980   0.836 -0.3434  0.5589 -0.7108
  710TIP3   OH223764   0.103   1.473   0.753 -0.0637  0.3720  0.3838
  710TIP3    H123765   0.172   1.522   0.707 -1.6843 -0.6460 -3.5328
  710TIP3    H223766   0.134   1.383   0.754 -0.8273  0.0722 -0.5459
  711TIP3   OH223767   2.228   3.345   0.222  0.2851 -0.0348 -0.0316
  711TIP3    H123768   2.209   3.403   0.297 -0.9546 -2.1529  1.3871
  711TIP3    H223769   2.314   3.308   0.242  0.4268  0.1818 -0.2218
  712TIP3   OH223770   5.503   4.787   1.952  0.1818 -0.0486 -0.5789
  712TIP3    H123771   5.573   4.774   2.015 -0.5926 -1.0092  0.1204
  712TIP3    H223772   5.438   4.721   1.974  0.5529 -1.5260 -3.3554
  713TIP3   OH223773   5.892   6.559   0.393  0.9125 -0.3477 -0.4011
  713TIP3    H123774   5.972   6.513   0.420 -0.9117 -3.0321  0.9066
  713TIP3    H223775   5.868   6.612   0.469  0.8596 -0.4486 -0.3464
  714TIP3   OH223776   6.950   3.062   0.959  0.8210  0.1690 -0.0053
  714TIP3    H123777   7.012   2.997   0.993  0.7116 -0.8287 -1.5837
  714TIP3    H223778   6.908   3.018   0.885 -0.4922  1.4678 -0.0733
  715TIP3   OH223779   5.326   1.764   7.984  0.3534  0.5549  0.3955
  715TIP3    H123780   5.323   1.807   8.070  1.2558  1.9058 -0.2085
  715TIP3    H223781   5.258   1.809   7.933  0.1790  0.1220  0.2480
  716TIP3   OH223782   4.802   6.208   1.889 -0.1973 -0.4650 -0.3413
  716TIP3    H123783   4.833   6.272   1.953  1.3629 -1.0567 -0.4671
  716TIP3    H223784   4.719   6.176   1.925  0.3744 -0.3783  1.1237
  717TIP3   OH223785   5.237   2.062   7.646 -0.3754  0.4906 -0.1958
  717TIP3    H123786   5.319   2.111   7.637  0.7593 -1.6736 -2.8295
  717TIP3    H223787   5.186   2.089   7.570 -0.6279 -0.7744 -0.4850
  718TIP3   OH223788   4.057   5.415   8.358  0.4945 -0.3018 -0.0371
  718TIP3    H123789   4.076   5.497   8.313  0.2746  1.0773  2.2572
  718TIP3    H223790   4.076   5.347   8.292  2.7382  1.4540 -1.3560
  719TIP3   OH223791   6.207   1.080   6.450 -0.1154  0.6151 -0.0203
  719TIP3    H123792   6.112   1.089   6.450 -0.2148 -0.1918 -1.2611
  719TIP3    H223793   6.240   1.169   6.456 -0.9688  1.0095 -0.9785
  720TIP3   OH223794   5.063   1.974   1.721 -0.1276  0.1966  0.0355
  720TIP3    H123795   5.080   1.951   1.629 -1.4163  3.2055 -1.0722
  720TIP3    H223796   4.970   1.957   1.732 -0.2550  1.1172  0.3792
  721TIP3   OH223797   2.720   3.054   1.708 -0.1464 -0.1593  0.0033
  721TIP3    H123798   2.782   3.031   1.638  1.0306  0.3814  0.8316
  721TIP3    H223799   2.649   2.991   1.698  0.0315 -0.1523 -1.6140
  722TIP3   OH223800   0.504   1.033   2.530 -0.1118  0.5133 -0.2731
  722TIP3    H123801   0.482   1.106   2.472 -2.5712  0.3264  0.3242
  722TIP3    H223802   0.536   0.965   2.471  1.5665  1.7544 -0.9089
  723TIP3   OH223803   5.220   3.220   1.035 -0.1965  0.2366  0.3013
  723TIP3    H123804   5.313   3.211   1.017 -0.0189  1.3788  0.5614
  723TIP3    H223805   5.213   3.304   1.081 -1.5095  0.8068 -0.8786
  724TIP3   OH223806   3.753   4.090   6.939  0.2778 -0.3740 -0.5126
  724TIP3    H123807   3.676   4.039   6.915 -1.5146  1.6772  0.4860
  724TIP3    H223808   3.774   4.140   6.860 -1.8169  1.8011  0.1665
  725TIP3   OH223809   3.003   5.476   3.317 -0.0775 -0.4743  0.3382
  725TIP3    H123810   3.053   5.529   3.254  0.7753  0.1811  1.5111
  725TIP3    H223811   2.939   5.537   3.353 -1.9773 -1.3675 -1.3142
  726TIP3   OH223812   5.815   4.615   0.090  0.7781 -0.0644  0.0855
  726TIP3    H123813   5.886   4.648   0.034 -1.6132 -0.3300 -3.4178
  726TIP3    H223814   5.755   4.689   0.098 -0.4426 -0.9720 -0.4352
  727TIP3   OH223815   0.048   0.113   7.301  0.2069  0.2897  0.4705
  727TIP3    H123816   0.042   0.206   7.279  1.3758 -0.0072 -1.4306
  727TIP3    H223817   0.048   0.110   7.396 -1.6068  2.0716  0.5912
  728TIP3   OH223818   0.783   3.251   1.636 -0.2324  0.0119  0.3123
  728TIP3    H123819   0.817   3.334   1.604  1.8255 -1.1774 -0.7997
  728TIP3    H223820   0.776   3.196   1.558 -2.3275 -0.6375  0.9035
  729TIP3   OH223821   5.978   5.902   1.006 -0.2638 -0.1976  0.2591
  729TIP3    H123822   5.946   5.967   1.069 -0.5456 -1.2394  1.2336
  729TIP3    H223823   6.066   5.880   1.036  0.7905  1.4133 -1.4383
  730TIP3   OH223824   0.198   2.317   0.084  0.6110  0.3474 -0.2305
  730TIP3    H123825   0.104   2.327   0.067  0.3721 -0.7554  0.3403
  730TIP3    H223826   0.239   2.342   0.001 -0.2501 -0.1340 -0.8261
  731TIP3   OH223827   0.926   1.537   1.822 -0.7291  0.1851  0.1064
  731TIP3    H123828   0.873   1.496   1.753  0.0900 -0.3364 -0.2275
  731TIP3    H223829   0.866   1.598   1.865 -1.7584 -0.7821  0.0959
  732TIP3   OH223830   4.458   5.278   0.559 -0.0246 -0.0250  0.3123
  732TIP3    H123831   4.535   5.319   0.598  0.3964 -0.3684 -0.1447
  732TIP3    H223832   4.388   5.294   0.622 -0.0397  1.9513 -0.1287
  733TIP3   OH223833   3.565   6.356   0.261  0.1544 -0.1046 -0.0892
  733TIP3    H123834   3.607   6.316   0.337 -1.8403  0.9527  1.6852
  733TIP3    H223835   3.479   6.385   0.293  0.0008  2.2000 -2.2145
  734TIP3   OH223836   0.362   3.075   1.511 -0.3358  0.0149 -0.5509
  734TIP3    H123837   0.428   3.006   1.512  0.5924  0.8982  0.2090
  734TIP3    H223838   0.318   3.066   1.596  0.8641  1.3490  0.2479
  735TIP3   OH223839   1.934   5.870   3.167 -0.1479  0.5139  0.6526
  735TIP3    H123840   1.853   5.883   3.216 -0.8245 -0.2833 -0.2315
  735TIP3    H223841   1.958   5.779   3.183 -0.2532  0.3086 -0.3037
  736TIP3   OH223842   6.981   0.991   1.219  0.5932 -0.1541  0.2586
  736TIP3    H123843   6.984   0.987   1.314  2.6406  0.1301  0.2468
  736TIP3    H223844   7.058   1.042   1.194 -1.4319  2.3114 -1.4458
  737TIP3   OH223845   3.278   1.227   7.363  0.2134  0.1619  0.2375
  737TIP3    H123846   3.263   1.318   7.339  0.1028  0.5182  1.6202
  737TIP3    H223847   3.263   1.178   7.281  0.5778  1.3894 -0.5843
  738TIP3   OH223848   5.666   6.652   0.553  0.3990  0.0159 -0.6912
  738TIP3    H123849   5.652   6.703   0.633  0.2810  0.9316 -1.2894
  738TIP3    H223850   5.589   6.668   0.499 -0.0286 -1.4415 -0.5715
  739TIP3   OH223851   3.525   0.352   1.189  0.0660  0.2579 -0.5397
  739TIP3    H123852   3.529   0.259   1.210  1.8716  0.0030 -1.8043
  739TIP3    H223853   3.471   0.390   1.259 -2.3530 -1.9866 -1.0568
  740TIP3   OH223854   0.226   5.418   2.274  0.0685  0.2765  0.4718
  740TIP3    H123855   0.289   5.409   2.346 -1.6990  1.6591  2.3279
  740TIP3    H223856   0.167   5.344   2.284  0.3804 -0.0647 -0.1805
  741TIP3   OH223857   0.184   3.856   1.689  0.1988 -0.6397 -0.0329
  741TIP3    H123858   0.257   3.794   1.679  0.0596 -1.1579  1.7798
  741TIP3    H223859   0.146   3.834   1.774 -0.4154  1.3673  0.2516
  742TIP3   OH223860   2.544   3.361   7.155 -0.2631 -0.4120 -0.2038
  742TIP3    H123861   2.465   3.358   7.101 -0.5631  1.1261  0.1082
  742TIP3    H223862   2.616   3.359   7.092 -0.5886  0.1631 -0.6008
  743TIP3   OH223863   5.898   0.634   8.041  0.3265 -0.4508 -0.0242
  743TIP3    H123864   5.936   0.648   8.128  0.3194 -0.5310 -0.0079
  743TIP3    H223865   5.974   0.619   7.985  0.5574  2.0121 -0.5163
  744TIP3   OH223866   3.077   1.703   0.884  0.3589 -0.3045  0.1041
  744TIP3    H123867   3.049   1.691   0.793  0.7617  0.3217 -0.1138
  744TIP3    H223868   2.996   1.721   0.931  0.3119  1.0960 -0.4518
  745TIP3   OH223869   6.871   0.058   1.968  0.6336  0.2545 -0.7410
  745TIP3    H123870   6.916   0.112   2.033  1.4297 -0.2873 -0.8384
  745TIP3    H223871   6.797   0.021   2.016 -0.4274  2.0736 -0.8816
  746TIP3   OH223872   1.559   2.292   0.218 -0.1372  0.1857 -0.5755
  746TIP3    H123873   1.545   2.282   0.124  1.0218 -2.5821 -0.5538
  746TIP3    H223874   1.483   2.342   0.248 -0.0152  2.1044 -3.0664
  747TIP3   OH223875   0.954   4.089   8.074 -0.2730  0.1067  0.4142
  747TIP3    H123876   0.936   4.121   7.986 -0.2579 -0.1462  0.3184
  747TIP3    H223877   0.905   4.007   8.080 -0.0433 -0.0219  0.5401
  748TIP3   OH223878   1.255   4.783   8.103 -0.1521 -0.2499 -0.1518
  748TIP3    H123879   1.188   4.846   8.076 -0.4583 -0.8704 -0.8747
  748TIP3    H223880   1.225   4.699   8.067  0.6291 -0.6731  0.1620
  749TIP3   OH223881   3.778   2.360   2.155  0.0543  0.2670 -1.0001
  749TIP3    H123882   3.690   2.323   2.155 -1.2624  2.5484  3.6684
  749TIP3    H223883   3.835   2.287   2.131 -2.8983 -1.7773 -2.4861
  750TIP3   OH223884   4.264   1.102   0.054  0.2739  0.1115  0.9129
  750TIP3    H123885   4.325   1.173   0.030 -1.0549  0.7700 -0.6641
  750TIP3    H223886   4.265   1.102   0.150  0.5940  2.0464  0.9573
  751TIP3   OH223887   6.134   5.346   2.141 -0.6740  0.1470 -0.6213
  751TIP3    H123888   6.158   5.436   2.163  1.5142 -0.8018  1.3378
  751TIP3    H223889   6.094   5.312   2.222 -0.0703 -1.0823 -0.8197
  752TIP3   OH223890   1.820   0.554   1.321 -0.3784 -0.2017 -0.2210
  752TIP3    H123891   1.843   0.616   1.390  1.5051 -1.7992  0.6692
  752TIP3    H223892   1.808   0.609   1.243  0.0879  1.3734  0.7663
  753TIP3   OH223893   2.432   6.442   7.105  0.1590  0.7378 -0.4357
  753TIP3    H123894   2.368   6.390   7.056  0.1190 -0.4776  0.8462
  753TIP3    H223895   2.507   6.448   7.047  0.5258 -1.5788 -0.2996
  754TIP3   OH223896   5.340   2.334   0.792  0.4743  0.1942  0.8225
  754TIP3    H123897   5.343   2.427   0.814 -0.9235  0.3745  0.3489
  754TIP3    H223898   5.311   2.292   0.873 -0.2722  0.3385  0.6339
  755TIP3   OH223899   1.588   1.666   1.583  0.2459 -0.5273 -0.5736
  755TIP3    H123900   1.510   1.612   1.590  0.6073 -0.8493  3.5065
  755TIP3    H223901   1.660   1.607   1.606  1.0854  0.7610  0.2829
  756TIP3   OH223902   2.603   1.255   1.038 -0.1883  0.2824 -0.1794
  756TIP3    H123903   2.653   1.304   0.973  1.3268 -1.2055 -0.2302
  756TIP3    H223904   2.554   1.191   0.987 -0.9055  0.6996 -0.0160
  757TIP3   OH223905   2.477   6.174   0.161  0.5736 -0.3021 -0.0728
  757TIP3    H123906   2.512   6.257   0.192  1.9216 -1.8330  2.8949
  757TIP3    H223907   2.554   6.117   0.156 -0.0975 -1.1152 -3.3201
  758TIP3   OH223908   1.543   6.214   1.709  0.2632 -0.0619 -0.0479
  758TIP3    H123909   1.564   6.122   1.696  0.7231  0.2408 -1.7238
  758TIP3    H223910   1.628   6.258   1.714  0.0479  0.2625  0.9346
  759TIP3   OH223911   0.749   5.104   1.261  0.3379 -0.1889  0.4440
  759TIP3    H123912   0.738   5.167   1.190  1.3914  0.0057  0.4302
  759TIP3    H223913   0.832   5.061   1.242  0.7695  0.0442  1.6903
  760TIP3   OH223914   1.681   6.847   8.000  0.1259  0.9708  0.0329
  760TIP3    H123915   1.753   6.836   8.063 -1.3858 -0.1279  1.6489
  760TIP3    H223916   1.635   6.925   8.031 -0.0474  0.9999 -0.3017
  761TIP3   OH223917   3.554   4.242   7.080  0.0413 -0.0718 -0.1064
  761TIP3    H123918   3.621   4.200   7.026 -1.5877 -2.5810 -0.3080
  761TIP3    H223919   3.566   4.336   7.063  1.7991 -0.5824 -2.1603
  762TIP3   OH223920   2.688   0.029   2.615 -0.1254 -0.0876  0.4643
  762TIP3    H123921   2.672   0.028   2.709 -0.1760 -0.4720  0.4540
  762TIP3    H223922   2.781   0.012   2.606  0.1012  1.0529  0.4810
  763TIP3   OH223923   3.520   5.408   1.586 -0.0160 -0.3547  0.1194
  763TIP3    H123924   3.488   5.319   1.605  0.1564  0.0437  2.7034
  763TIP3    H223925   3.608   5.410   1.624  0.2989  0.6924 -0.6228
  764TIP3   OH223926   5.450   1.523   2.421 -0.2985  0.3606 -0.0132
  764TIP3    H123927   5.533   1.480   2.442 -0.3480 -0.0047 -0.5503
  764TIP3    H223928   5.475   1.605   2.377 -0.2232  0.2662 -0.1452
  765TIP3   OH223929   4.126   3.697   7.651 -0.2320  0.1895 -0.2506
  765TIP3    H123930   4.047   3.653   7.681 -0.0969  0.0679 -0.0704
  765TIP3    H223931   4.179   3.627   7.613  0.3802  0.0373  0.8592
  766TIP3   OH223932   5.262   2.013   0.380  0.2220 -0.1006 -0.3688
  766TIP3    H123933   5.172   2.045   0.386  0.4236  0.6279 -0.9287
  766TIP3    H223934   5.315   2.087   0.410  0.5521 -1.9348  4.4980
  767TIP3   OH223935   5.466   4.108   0.521 -0.0853  0.2053 -0.2790
  767TIP3    H123936   5.449   4.047   0.592  0.3223  1.2109  0.7078
  767TIP3    H223937   5.460   4.055   0.441  1.8216 -1.4647  0.6252
  768TIP3   OH223938   3.215   4.198   8.194 -0.1535  0.8134  0.0832
  768TIP3    H123939   3.147   4.169   8.133  0.3315 -1.8739  0.7271
  768TIP3    H223940   3.196   4.152   8.276  1.5132  1.2413  0.7600
  769TIP3   OH223941   6.976   1.235   7.678 -0.0632  0.6541  0.0311
  769TIP3    H123942   6.890   1.208   7.645  0.6411 -0.3858 -1.0385
  769TIP3    H223943   7.038   1.190   7.622  1.2036  0.3049  1.6420
  770TIP3   OH223944   5.405   4.321   1.615  0.1972 -0.7369  0.1269
  770TIP3    H123945   5.468   4.298   1.684  0.0321  0.6508  0.7745
  770TIP3    H223946   5.456   4.373   1.553  0.1642 -1.3507 -0.4209
  771TIP3   OH223947   1.317   4.532   1.310 -0.2690 -0.6118 -0.1788
  771TIP3    H123948   1.264   4.506   1.235 -3.5904  1.2197  1.3222
  771TIP3    H223949   1.319   4.627   1.307 -3.3845 -0.1716  3.6088
  772TIP3   OH223950   1.160   5.853   0.216  0.0179 -0.5324 -0.0423
  772TIP3    H123951   1.114   5.921   0.166 -2.5298 -1.4858  0.8310
  772TIP3    H223952   1.233   5.899   0.258 -0.6008  1.2740 -0.8512
  773TIP3   OH223953   4.885   2.546   0.680  0.2087 -0.3060 -0.4797
  773TIP3    H123954   4.815   2.506   0.628  0.6357  1.7955 -2.8887
  773TIP3    H223955   4.840   2.590   0.752 -0.7478 -0.6053 -0.8863
  774TIP3   OH223956   1.248   4.908   1.149 -0.6570 -0.1883  0.2543
  774TIP3    H123957   1.285   4.866   1.227  0.7515 -1.2234 -0.9286
  774TIP3    H223958   1.320   4.913   1.087 -1.8115  0.3658 -1.1176
  775TIP3   OH223959   5.779   2.149   0.843  1.1149 -0.1386 -0.2168
  775TIP3    H123960   5.739   2.196   0.770  0.7418 -0.6401 -0.3383
  775TIP3    H223961   5.743   2.060   0.837  3.7973 -1.2597 -1.6298
  776TIP3   OH223962   1.497   5.486   1.242 -0.6363 -0.1118  0.1749
  776TIP3    H123963   1.559   5.512   1.175 -0.7466 -1.1331 -0.3541
  776TIP3    H223964   1.464   5.568   1.279  0.3459  0.4419 -0.1632
  777TIP3   OH223965   1.484   0.664   0.612  0.3260  0.9135  0.3803
  777TIP3    H123966   1.567   0.698   0.580 -0.0049  1.1740 -0.2203
  777TIP3    H223967   1.495   0.658   0.707  1.0872  0.7740  0.2846
  778TIP3   OH223968   3.386   1.333   1.229  0.1092  0.3193  0.1494
  778TIP3    H123969   3.340   1.349   1.147  0.4108 -2.0434 -0.5708
  778TIP3    H223970   3.479   1.338   1.206  0.2134  1.1534  0.7091
  779TIP3   OH223971   3.452   4.107   0.949 -0.3566 -0.5642 -0.4980
  779TIP3    H123972   3.512   4.146   0.885 -1.2479  0.9625 -0.4675
  779TIP3    H223973   3.368   4.105   0.904 -1.1219  1.0583  0.7614
  780TIP3   OH223974   2.266   3.221   0.576 -0.1877  0.2453  0.1086
  780TIP3    H123975   2.195   3.232   0.512 -0.0784  3.1789  0.3811
  780TIP3    H223976   2.325   3.159   0.534 -1.0911  0.5710 -1.7741
  781TIP3   OH223977   1.182   6.870   2.885  0.6690  0.3492 -0.1085
  781TIP3    H123978   1.090   6.894   2.901  0.6393  0.2552 -0.1316
  781TIP3    H223979   1.233   6.933   2.935  0.5562 -0.6617  1.3306
  782TIP3   OH223980   4.990   6.862   0.991  0.6449  0.2182  0.0736
  782TIP3    H123981   4.925   6.885   1.057  0.9093  0.0579  0.3919
  782TIP3    H223982   4.948   6.796   0.937  0.7115 -0.2276  0.5629
  783TIP3   OH223983   6.481   6.536   7.344  0.4492 -0.2093 -0.4304
  783TIP3    H123984   6.542   6.550   7.272  1.6618  0.7647  0.7318
  783TIP3    H223985   6.532   6.490   7.411 -0.3657 -0.2339  0.2041
  784TIP3   OH223986   5.085   2.342   1.268 -0.7235  0.4823  0.6659
  784TIP3    H123987   5.119   2.341   1.358 -1.6357  1.7510  1.0517
  784TIP3    H223988   5.136   2.410   1.224  0.1783 -0.5910  0.0137
  785TIP3   OH223989   5.303   6.423   7.086 -0.0040 -0.4196 -0.1380
  785TIP3    H123990   5.208   6.413   7.090  0.0828 -1.1115  0.4788
  785TIP3    H223991   5.335   6.384   7.167  0.8346 -0.5899 -0.5343
  786TIP3   OH223992   2.994   4.586   6.975  0.5403  0.2188  0.2321
  786TIP3    H123993   2.955   4.628   7.051 -0.8513 -0.4226 -0.0928
  786TIP3    H223994   3.076   4.634   6.960  0.3019  1.0534  1.4558
  787TIP3   OH223995   2.551   5.561   7.324 -0.6447  0.3438 -0.0298
  787TIP3    H123996   2.628   5.514   7.357 -1.6940 -0.5769  1.2260
  787TIP3    H223997   2.555   5.549   7.229  0.9470  0.6415 -0.0352
  788TIP3   OH223998   5.810   0.693   7.673  0.3723 -0.6604  0.1938
  788TIP3    H123999   5.755   0.680   7.751  0.6278 -2.1154  0.1614
  788TIP3    H224000   5.766   0.643   7.605 -0.3513  1.3361 -0.8979
  789TIP3   OH224001   1.644   3.493   0.014  0.4011 -0.0226 -0.3180
  789TIP3    H124002   1.699   3.559  -0.028 -0.1635  0.0493 -0.9530
  789TIP3    H224003   1.654   3.415  -0.040 -1.8161  0.6035 -1.7713
  790TIP3   OH224004   3.433   3.575   0.974 -0.8242 -0.0460 -0.3136
  790TIP3    H124005   3.420   3.637   0.902  1.3780  0.5918 -0.2192
  790TIP3    H224006   3.395   3.619   1.050 -1.7295 -0.0378 -0.7442
  791TIP3   OH224007   3.147   6.890   8.372 -0.1459 -0.0155  0.0654
  791TIP3    H124008   3.220   6.881   8.433  0.2870  0.5302 -0.3610
  791TIP3    H224009   3.121   6.982   8.379  0.7387  0.3737 -1.4896
  792TIP3   OH224010   1.581   2.307   7.033  0.2143 -0.6447  0.0794
  792TIP3    H124011   1.629   2.329   6.954 -0.3753 -0.4825 -0.2372
  792TIP3    H224012   1.489   2.315   7.009  0.0220  0.3432  1.0379
  793TIP3   OH224013   2.721   4.932   1.541  0.0972 -0.4234 -0.2714
  793TIP3    H124014   2.770   4.969   1.467 -0.5591  1.4128  0.1738
  793TIP3    H224015   2.776   4.949   1.617  1.4414 -3.5316 -0.3749
  794TIP3   OH224016   1.785   6.176   2.041 -0.2796 -0.4565 -0.8413
  794TIP3    H124017   1.859   6.115   2.038 -0.1172 -0.5012  1.8404
  794TIP3    H224018   1.710   6.124   2.015  0.1769 -1.2348 -0.6423
  795TIP3   OH224019   6.359   4.081   1.221 -0.0450 -0.5670 -0.4971
  795TIP3    H124020   6.277   4.110   1.180  0.6157  1.6279 -0.3981
  795TIP3    H224021   6.387   4.156   1.273  2.5110 -0.9054 -1.2688
  796TIP3   OH224022   5.014   4.757   2.029  0.8736 -0.3227  0.1786
  796TIP3    H124023   4.982   4.815   1.960 -2.1419 -0.2273  1.5048
  796TIP3    H224024   5.081   4.808   2.074 -0.4817  1.5253  0.2281
  797TIP3   OH224025   0.268   1.962   6.920 -0.4396 -0.0357  0.5953
  797TIP3    H124026   0.265   1.879   6.872 -0.3964 -0.4890  1.3589
  797TIP3    H224027   0.358   1.969   6.951 -0.3232  0.5305  0.1334
  798TIP3   OH224028   3.937   4.150   7.338 -0.8537  0.5670  0.5091
  798TIP3    H124029   3.905   4.134   7.427 -1.2437  1.3096  0.5152
  798TIP3    H224030   3.869   4.115   7.281  0.1959 -1.5054  0.4595
  799TIP3   OH224031   1.902   6.998   7.332  0.0847  0.2788 -0.0269
  799TIP3    H124032   1.903   6.917   7.281  0.8360  0.7625 -0.8059
  799TIP3    H224033   1.878   7.066   7.270  0.1471  0.7536  0.4565
  800TIP3   OH224034   6.563   3.635   7.732  0.7114 -0.2112 -0.0542
  800TIP3    H124035   6.590   3.557   7.684  0.9077 -0.5218  0.5633
  800TIP3    H224036   6.494   3.606   7.790  1.2576 -0.0737  0.6789
  801TIP3   OH224037   2.085   2.833   7.162 -0.0859  0.0797 -0.1417
  801TIP3    H124038   2.044   2.842   7.248 -0.1870 -1.2464 -0.0449
  801TIP3    H224039   2.179   2.826   7.180 -0.0148  0.7434 -0.2149
  802TIP3   OH224040   6.938   4.267   2.110  0.2931  0.5855  0.0437
  802TIP3    H124041   6.862   4.210   2.110 -0.5922  1.7363  0.4864
  802TIP3    H224042   6.903   4.356   2.111  1.6341  1.1653 -0.6911
  803TIP3   OH224043   0.430   3.406   7.998  0.0558  0.5317  0.2614
  803TIP3    H124044   0.484   3.370   8.068 -1.2463 -0.5589  0.7428
  803TIP3    H224045   0.340   3.403   8.032 -0.6016  0.0627 -1.3890
  804TIP3   OH224046   6.363   3.167   0.907 -0.3171 -0.3721 -0.5629
  804TIP3    H124047   6.455   3.143   0.915 -0.5495 -1.2361 -0.3329
  804TIP3    H224048   6.363   3.263   0.902  0.8139 -0.4202 -3.5182
  805TIP3   OH224049   3.226   6.266   1.471  0.0729  0.0993  0.1476
  805TIP3    H124050   3.209   6.306   1.557  0.2686 -0.5497  0.4903
  805TIP3    H224051   3.321   6.261   1.466  0.2276  2.6682 -1.2849
  806TIP3   OH224052   2.657   3.634   2.914 -0.3336 -0.1324  0.0332
  806TIP3    H124053   2.662   3.678   2.830  0.9691 -1.4241 -0.6224
  806TIP3    H224054   2.728   3.671   2.965  0.1149 -0.7097 -0.1555
  807TIP3   OH224055   2.913   2.807   2.349  0.5887  0.6589  0.9938
  807TIP3    H124056   2.934   2.897   2.373  2.1738  0.4248  0.6071
  807TIP3    H224057   2.990   2.756   2.375 -0.8811 -0.8763  2.6206
  808TIP3   OH224058   6.568   5.476   1.956  0.1323  0.4334  0.2860
  808TIP3    H124059   6.597   5.397   2.000  0.0141  1.3224  2.0292
  808TIP3    H224060   6.585   5.459   1.863  0.1133 -1.6019  0.6126
  809TIP3   OH224061   3.065   5.618   0.946  0.3971 -0.1744  0.1744
  809TIP3    H124062   3.025   5.569   1.017  0.6921 -0.4418  0.1545
  809TIP3    H224063   3.044   5.710   0.965  0.5081 -0.2438  0.6222
  810TIP3   OH224064   2.497   4.753   2.908 -0.4665  0.0921  0.3065
  810TIP3    H124065   2.493   4.709   2.993  2.4085 -0.8748  0.0668
  810TIP3    H224066   2.498   4.846   2.930 -0.1431 -0.1338  1.3355
  811TIP3   OH224067   2.784   5.426   7.387 -0.1503  0.5711  0.6884
  811TIP3    H124068   2.791   5.400   7.479 -0.8168  0.6285  0.7639
  811TIP3    H224069   2.873   5.449   7.361  0.0034  0.7960  1.3928
  812TIP3   OH224070   2.511   0.564   6.509 -0.3078  0.1684 -0.0602
  812TIP3    H124071   2.472   0.533   6.428 -0.9152  0.1658  0.2251
  812TIP3    H224072   2.437   0.596   6.560  0.1305  0.6921  0.2639
  813TIP3   OH224073   4.723   1.417   1.044 -0.3942 -0.1710 -0.0093
  813TIP3    H124074   4.777   1.442   0.970  2.3125 -1.3524  1.4130
  813TIP3    H224075   4.697   1.500   1.085 -0.2479  0.4357 -1.1244
  814TIP3   OH224076   4.018   0.508   7.481 -0.2075  0.0034 -0.8648
  814TIP3    H124077   3.935   0.556   7.477 -0.3616 -0.2239 -0.5216
  814TIP3    H224078   4.066   0.550   7.553 -0.3474 -0.3608 -0.5572
  815TIP3   OH224079   2.918   2.017   0.977  0.4988  0.0705  0.6318
  815TIP3    H124080   2.886   1.967   1.052 -0.1947 -0.8450 -0.2401
  815TIP3    H224081   2.873   1.978   0.902  1.9187  0.2941 -0.3733
  816TIP3   OH224082   0.539   1.624   7.015 -0.0382  0.0712  0.0215
  816TIP3    H124083   0.559   1.531   7.023  0.6874  0.2881  0.8385
  816TIP3    H224084   0.622   1.665   6.992  0.1496  0.7847  1.8671
  817TIP3   OH224085   0.288   3.401   2.290  0.2224  0.1495  0.3966
  817TIP3    H124086   0.320   3.479   2.336 -0.0045  0.4853 -0.0035
  817TIP3    H224087   0.205   3.380   2.332  0.8734 -0.6181  1.3212
  818TIP3   OH224088   3.057   6.673   2.361 -0.1872  0.3057 -0.1090
  818TIP3    H124089   3.140   6.717   2.376 -0.2238  0.3288  0.0302
  818TIP3    H224090   2.993   6.727   2.408 -0.4242  0.8292 -1.0095
  819TIP3   OH224091   2.190   5.270   1.362  0.0420 -0.1949  0.3175
  819TIP3    H124092   2.258   5.311   1.309 -1.3926  1.5637 -0.2637
  819TIP3    H224093   2.167   5.190   1.315 -1.4826  1.5251 -2.0192
  820TIP3   OH224094   4.275   0.097   7.374  0.4355  0.2252  0.2387
  820TIP3    H124095   4.305   0.078   7.463  0.4580  3.5116  1.0972
  820TIP3    H224096   4.181   0.110   7.383  0.5850  1.5976  0.0484
  821TIP3   OH224097   3.056   1.920   7.221  0.0670 -0.1573 -0.4105
  821TIP3    H124098   3.010   1.927   7.137 -1.5048  0.9011  0.4929
  821TIP3    H224099   2.989   1.936   7.287  1.3685 -0.4872  1.0572
  822TIP3   OH224100   4.515   6.854   0.188  0.7488  0.0953 -0.6038
  822TIP3    H124101   4.565   6.845   0.107  2.2811 -0.0869  0.3229
  822TIP3    H224102   4.506   6.949   0.200  0.1593  0.1211 -1.1759
  823TIP3   OH224103   3.333   6.612   1.572 -0.2800  0.5240 -0.1450
  823TIP3    H124104   3.416   6.646   1.604  0.6834  0.2956 -2.2447
  823TIP3    H224105   3.327   6.524   1.612  1.4390 -0.2226 -1.3928
  824TIP3   OH224106   1.744   5.298   8.267 -0.0970 -0.1654 -0.6516
  824TIP3    H124107   1.721   5.217   8.221  0.1509  0.4199 -1.8552
  824TIP3    H224108   1.671   5.314   8.327  0.8693 -2.4763  1.3222
  825TIP3   OH224109   4.591   1.650   0.283 -0.3152  0.2155  0.3013
  825TIP3    H124110   4.538   1.625   0.207  2.0466 -1.8633 -0.8054
  825TIP3    H224111   4.542   1.616   0.358 -0.5392 -1.7812 -0.6758
  826TIP3   OH224112   0.099   4.212   0.462  0.4584  0.2681  0.1959
  826TIP3    H124113   0.172   4.253   0.416 -0.4158  1.3984 -0.2319
  826TIP3    H224114   0.138   4.137   0.507  2.2658  1.9626  1.5919
  827TIP3   OH224115   2.620   5.480   0.761 -0.0394  0.7799 -0.3132
  827TIP3    H124116   2.618   5.393   0.722  3.2324  0.9503 -1.1777
  827TIP3    H224117   2.538   5.521   0.734 -3.1919 -2.8855  2.6546
  828TIP3   OH224118   0.336   4.173   1.016 -0.4406  0.6307 -0.4065
  828TIP3    H124119   0.280   4.108   1.059  1.8240 -0.1965  1.5294
  828TIP3    H224120   0.312   4.168   0.924 -2.7049 -0.4706  0.1639
  829TIP3   OH224121   4.551   2.274   1.309  0.0093  0.1354 -0.0798
  829TIP3    H124122   4.546   2.368   1.327  1.8648  0.2655 -0.1084
  829TIP3    H224123   4.503   2.234   1.381  2.2033  0.9597  1.9899
  830TIP3   OH224124   0.232   3.095   2.520 -0.4553  0.3360 -0.0028
  830TIP3    H124125   0.326   3.085   2.506 -0.2673  1.2517  0.5430
  830TIP3    H224126   0.224   3.124   2.611 -1.3643 -1.1570  0.4351
  831TIP3   OH224127   4.631   2.431   7.829  0.2911 -0.0944  0.4725
  831TIP3    H124128   4.692   2.407   7.760 -0.8673 -0.7651 -0.3534
  831TIP3    H224129   4.581   2.350   7.846  0.6128  0.0255  2.1663
  832TIP3   OH224130   2.589   6.876   2.350 -0.3186 -0.4126 -0.6108
  832TIP3    H124131   2.511   6.854   2.401  0.3224 -1.2842  0.0149
  832TIP3    H224132   2.555   6.917   2.270 -1.4063 -0.7682 -0.3413
  833TIP3   OH224133   5.004   4.039   8.289 -0.5762  0.2094  0.5935
  833TIP3    H124134   4.946   4.003   8.222  2.7686 -0.5222 -2.1769
  833TIP3    H224135   5.057   3.964   8.318  0.3013  1.1847  1.6109
  834TIP3   OH224136   3.143   3.389   7.573  0.2640 -0.2575  0.0881
  834TIP3    H124137   3.226   3.434   7.591 -0.0898  0.7790 -0.7941
  834TIP3    H224138   3.120   3.416   7.484 -1.0678 -0.4592  0.3561
  835TIP3   OH224139   1.307   6.861   1.773  0.5621 -0.2941  0.7736
  835TIP3    H124140   1.279   6.901   1.691 -0.2446  1.0826  1.6721
  835TIP3    H224141   1.230   6.813   1.804  0.7536 -0.5253  0.8947
  836TIP3   OH224142   0.727   0.289   3.022  0.0892  0.1906 -0.4205
  836TIP3    H124143   0.691   0.229   2.957 -0.5371 -0.7404  0.7632
  836TIP3    H224144   0.654   0.348   3.043 -0.4993 -1.0729  1.2427
  837TIP3   OH224145   5.277   2.648   2.279  0.1067 -0.2146  0.6044
  837TIP3    H124146   5.318   2.651   2.365  1.8704  1.1547 -0.2089
  837TIP3    H224147   5.350   2.631   2.219 -1.0905 -1.1859 -0.6386
  838TIP3   OH224148   0.764   2.248   8.219 -0.0841 -0.1406  0.0721
  838TIP3    H124149   0.839   2.189   8.212 -1.7808 -2.3233 -0.9100
  838TIP3    H224150   0.741   2.247   8.312  0.1557 -0.6960  0.1273
  839TIP3   OH224151   0.331   4.602   7.492 -0.1041 -0.1449 -0.5133
  839TIP3    H124152   0.360   4.552   7.415  0.0137 -1.0631  0.1181
  839TIP3    H224153   0.256   4.552   7.526 -0.1324  0.2357 -0.0060
  840TIP3   OH224154   6.976   0.733   7.208  0.5348  0.9585 -0.2125
  840TIP3    H124155   6.918   0.659   7.192  2.4611 -0.2965 -1.8798
  840TIP3    H224156   7.001   0.725   7.300 -1.6431  1.3879  0.4743
  841TIP3   OH224157   6.402   4.803   0.653  0.1689  0.0098 -0.0073
  841TIP3    H124158   6.361   4.771   0.733  0.7267 -0.8156 -0.0454
  841TIP3    H224159   6.496   4.791   0.668  0.2205 -3.0953 -1.9646
  842TIP3   OH224160   1.746   2.088   8.017  0.2596 -0.0805 -0.1901
  842TIP3    H124161   1.802   2.164   8.001 -0.7157  0.5000 -0.9623
  842TIP3    H224162   1.665   2.124   8.053 -0.2319 -0.7498 -0.5950
  843TIP3   OH224163   4.971   4.739   1.109  0.1978  0.7566  0.4930
  843TIP3    H124164   4.939   4.746   1.020  0.6929  2.6482  0.4295
  843TIP3    H224165   5.007   4.825   1.129  0.5912  0.2158  2.3326
  844TIP3   OH224166   6.362   0.036   6.552 -0.1920 -0.4511 -0.1621
  844TIP3    H124167   6.354   0.078   6.466  2.0994 -0.3100 -0.3502
  844TIP3    H224168   6.325   0.100   6.613 -1.4319 -0.3699 -0.9615
  845TIP3   OH224169   2.623   0.410   1.700 -0.3080  0.2747  0.4695
  845TIP3    H124170   2.555   0.455   1.749  0.5423  0.0211  1.9401
  845TIP3    H224171   2.592   0.319   1.693 -0.3340  0.2659  0.7121
  846TIP3   OH224172   4.424   1.550   7.762  0.1406  0.0604  0.5753
  846TIP3    H124173   4.368   1.488   7.808 -1.4431 -0.0134 -1.3246
  846TIP3    H224174   4.410   1.531   7.669  2.4477  0.8499 -0.0094
  847TIP3   OH224175   4.530   6.051   6.962  0.5319  0.4422 -0.0845
  847TIP3    H124176   4.575   6.000   6.895  0.1252 -0.0865  0.0412
  847TIP3    H224177   4.582   6.131   6.969  1.6704 -0.3074  0.3240
  848TIP3   OH224178   5.264   2.256   1.763  1.1085  0.7453  0.0194
  848TIP3    H124179   5.263   2.349   1.743  0.2004  0.9755  1.0418
  848TIP3    H224180   5.209   2.247   1.841  0.7021 -0.7127 -0.3860
  849TIP3   OH224181   2.873   5.235   1.131  0.4437 -0.0755 -1.2239
  849TIP3    H124182   2.929   5.188   1.193  2.1337 -1.5124 -3.6713
  849TIP3    H224183   2.786   5.200   1.146  0.2592  1.3857  1.9070
  850TIP3   OH224184   1.818   6.956   0.173 -0.1177  0.0099  0.1894
  850TIP3    H124185   1.822   6.943   0.078 -2.5738  1.3540 -0.2010
  850TIP3    H224186   1.805   7.051   0.183  1.9923  0.1845  2.0231
  851TIP3   OH224187   4.922   5.952   6.711 -0.3678 -0.0228  0.2446
  851TIP3    H124188   5.016   5.961   6.698 -0.6167 -0.1351 -2.1701
  851TIP3    H224189   4.902   5.863   6.682 -1.1296 -0.2782  1.4872
  852TIP3   OH224190   1.232   3.456   1.881  0.4796  0.2748 -0.1818
  852TIP3    H124191   1.193   3.466   1.794  1.4431 -0.0506 -0.6746
  852TIP3    H224192   1.172   3.400   1.929  0.8917 -1.1779 -1.3010
  853TIP3   OH224193   0.659   6.655   0.614 -0.1648  0.0388  0.3082
  853TIP3    H124194   0.595   6.687   0.678 -0.5890  0.1403 -0.1665
  853TIP3    H224195   0.612   6.588   0.564  0.3047 -0.3597  0.3921
  854TIP3   OH224196   0.716   4.755   1.451 -0.5989  0.0990 -0.2511
  854TIP3    H124197   0.790   4.725   1.397 -0.3958  2.0828 -1.1597
  854TIP3    H224198   0.653   4.789   1.388 -0.2646  2.7171  0.6937
  855TIP3   OH224199   1.135   6.014   2.766 -0.2432  0.1261  0.2489
  855TIP3    H124200   1.143   6.108   2.748  0.2551 -0.3168 -2.0925
  855TIP3    H224201   1.041   6.000   2.778 -0.5387  0.6663 -1.1900
  856TIP3   OH224202   0.891   4.453   1.501 -0.2422 -0.2991 -0.2710
  856TIP3    H124203   0.961   4.406   1.456  1.7013  1.1657  1.0465
  856TIP3    H224204   0.912   4.546   1.489  0.8476  0.2225  4.0563
  857TIP3   OH224205   1.865   5.506   7.811 -0.9878  0.0202 -0.7047
  857TIP3    H124206   1.911   5.520   7.894 -0.7501 -2.1325 -0.4126
  857TIP3    H224207   1.801   5.438   7.830 -0.6393 -0.8352 -2.3719
  858TIP3   OH224208   3.004   0.184   8.076 -0.6191 -0.1494 -0.3693
  858TIP3    H124209   2.923   0.143   8.045 -1.2338  1.7199 -1.4478
  858TIP3    H224210   3.070   0.158   8.012 -0.5729 -0.8913 -0.0310
  859TIP3   OH224211   6.667   4.695   8.015  0.6082  0.1895  0.2798
  859TIP3    H124212   6.646   4.750   7.939 -0.1720 -0.5366 -0.0451
  859TIP3    H224213   6.648   4.606   7.986  0.8665 -0.1542  1.1405
  860TIP3   OH224214   3.172   3.199   1.136 -0.5295  0.4206  0.5287
  860TIP3    H124215   3.125   3.115   1.146 -0.7761  0.5121  0.1824
  860TIP3    H224216   3.157   3.223   1.044  1.4326 -0.2732 -0.0100
  861TIP3   OH224217   4.845   3.686   7.459 -0.5687  0.2038  0.1450
  861TIP3    H124218   4.795   3.637   7.394  0.6300 -0.3734 -0.3771
  861TIP3    H224219   4.877   3.763   7.412  0.3387 -0.2379  0.0250
  862TIP3   OH224220   5.470   4.905   1.087  0.1522  0.5192  0.4862
  862TIP3    H124221   5.485   4.837   1.152  0.6977  0.3748  0.2140
  862TIP3    H224222   5.449   4.858   1.007 -0.1702  0.6899  0.4681
  863TIP3   OH224223   4.496   6.719   0.489 -0.7090  0.3496  0.5999
  863TIP3    H124224   4.545   6.638   0.505 -2.1082 -0.2982  1.7634
  863TIP3    H224225   4.537   6.756   0.411  0.9731 -0.6752  0.9440
  864TIP3   OH224226   4.491   4.676   7.961 -0.4268  0.4347  0.6278
  864TIP3    H124227   4.558   4.623   8.003  0.6701  0.3964 -1.0605
  864TIP3    H224228   4.453   4.618   7.895 -0.7754  1.0503  0.2737
  865TIP3   OH224229   2.264   1.354   6.350 -0.1723 -0.0513 -0.1353
  865TIP3    H124230   2.283   1.409   6.274  0.8912  0.2309  0.3113
  865TIP3    H224231   2.168   1.352   6.354 -0.2579 -0.2856 -1.6146
  866TIP3   OH224232   2.710   6.152   7.011 -0.2442 -0.3098 -0.0158
  866TIP3    H124233   2.642   6.165   6.945  0.8421  0.9313 -0.9432
  866TIP3    H224234   2.760   6.077   6.980  0.0346  0.0374 -0.4147
  867TIP3   OH224235   0.772   5.924   0.739 -0.4881  0.7661 -0.3042
  867TIP3    H124236   0.736   6.012   0.753 -1.1807  0.3762  0.5038
  867TIP3    H224237   0.695   5.867   0.741 -0.1845  0.2526 -2.0397
  868TIP3   OH224238   3.146   3.186   8.308  0.3355 -0.2776 -0.1880
  868TIP3    H124239   3.122   3.202   8.217  0.6490  0.6568 -0.1242
  868TIP3    H224240   3.217   3.122   8.304  0.6145  0.0513 -0.6334
  869TIP3   OH224241   6.674   6.518   6.845  0.1803  0.0538  0.2384
  869TIP3    H124242   6.585   6.503   6.814  1.3068 -0.2355 -3.3058
  869TIP3    H224243   6.704   6.433   6.874 -0.1565 -0.2320 -0.2360
  870TIP3   OH224244   1.379   0.337   1.066 -0.5479  0.1476  0.3953
  870TIP3    H124245   1.353   0.428   1.081  0.1045  0.5041 -0.6122
  870TIP3    H224246   1.465   0.329   1.107 -0.2651  0.1952 -0.1866
  871TIP3   OH224247   6.434   3.242   1.931 -0.1903 -0.2386  0.0487
  871TIP3    H124248   6.495   3.249   1.858  1.4382 -0.3193  1.3342
  871TIP3    H224249   6.489   3.252   2.009 -1.5602 -1.9387  1.3232
  872TIP3   OH224250   5.060   3.306   0.161  0.5211  0.1291  0.3446
  872TIP3    H124251   5.058   3.241   0.232 -0.7446 -0.9423 -0.6121
  872TIP3    H224252   5.049   3.255   0.081  1.1209  1.3928 -0.5809
  873TIP3   OH224253   6.674   3.117   7.693 -0.2999  0.6819 -0.1114
  873TIP3    H124254   6.765   3.116   7.663  0.0685  0.2377  0.9941
  873TIP3    H224255   6.677   3.154   7.781 -1.3205  1.5668 -0.4186
  874TIP3   OH224256   2.744   4.610   0.309  0.0820  0.3890  0.3107
  874TIP3    H124257   2.696   4.596   0.227 -0.3397  0.2998  0.5689
  874TIP3    H224258   2.679   4.648   0.369  0.0199 -0.7618  1.0135
  875TIP3   OH224259   6.356   0.614   8.081 -0.1202  0.0011 -0.3122
  875TIP3    H124260   6.426   0.671   8.050  0.1445  0.0447  0.3581
  875TIP3    H224261   6.283   0.674   8.100 -0.2946 -0.0284 -0.8525
  876TIP3   OH224262   5.556   5.501   2.608 -0.4178 -0.2322 -0.3446
  876TIP3    H124263   5.508   5.418   2.602 -1.2276  0.0823  1.2627
  876TIP3    H224264   5.575   5.511   2.701  3.3042 -0.5735 -0.9041
  877TIP3   OH224265   6.042   0.258   0.059  0.1107 -0.2111 -0.6800
  877TIP3    H124266   6.129   0.219   0.045  0.2292 -0.1784 -0.0633
  877TIP3    H224267   6.031   0.258   0.154 -0.4887 -0.0374 -0.7457
  878TIP3   OH224268   2.327   4.737   0.304  0.0460 -0.1524 -0.8503
  878TIP3    H124269   2.315   4.646   0.333  0.7658  0.0308  0.0748
  878TIP3    H224270   2.418   4.758   0.327  0.7006  0.0212 -3.2964
  879TIP3   OH224271   2.545   1.445   0.136  0.4020  0.8365 -0.3543
  879TIP3    H124272   2.467   1.461   0.189  0.1228  1.1709 -0.8539
  879TIP3    H224273   2.569   1.532   0.102 -0.1273  0.4745 -1.7322
  880TIP3   OH224274   5.471   1.324   8.227 -0.7778 -0.1747  0.1041
  880TIP3    H124275   5.563   1.342   8.209 -0.9228 -0.0805 -0.5661
  880TIP3    H224276   5.423   1.392   8.180 -1.1650  0.3395  1.2035
  881TIP3   OH224277   1.035   0.892   2.390 -0.0961  0.1449  0.1421
  881TIP3    H124278   1.048   0.858   2.301  0.8973  0.2530  0.2289
  881TIP3    H224279   1.065   0.982   2.385 -1.1174  0.5028  0.3235
  882TIP3   OH224280   0.678   5.969   7.328  0.2880  0.3878  0.4059
  882TIP3    H124281   0.677   5.952   7.234  0.0975 -2.4775  0.8334
  882TIP3    H224282   0.770   5.957   7.354  0.2456  0.6091  0.6619
  883TIP3   OH224283   5.091   0.909   0.416  0.5262  0.0705 -0.3655
  883TIP3    H124284   5.071   0.867   0.332 -1.4807  0.1176  0.0279
  883TIP3    H224285   5.154   0.851   0.458  0.5404 -0.6502 -1.3583
  884TIP3   OH224286   3.988   5.301   2.877 -0.1108 -0.2246 -0.4770
  884TIP3    H124287   4.041   5.270   2.951  0.1118 -1.0923 -0.9854
  884TIP3    H224288   4.047   5.357   2.827 -0.7589  1.8470  0.9109
  885TIP3   OH224289   1.459   5.308   2.811 -0.0427  0.0354  0.1942
  885TIP3    H124290   1.480   5.399   2.831  0.4123 -0.4454  2.0478
  885TIP3    H224291   1.372   5.294   2.848 -0.1107 -0.2927 -0.0811
  886TIP3   OH224292   1.322   3.334   7.962 -0.0932  0.4186 -0.0256
  886TIP3    H124293   1.301   3.327   8.055  0.2184  2.3343  0.2426
  886TIP3    H224294   1.237   3.344   7.918 -0.2602 -0.7947 -0.0013
  887TIP3   OH224295   5.475   1.227   7.592  0.4055  0.7231 -0.2616
  887TIP3    H124296   5.424   1.245   7.513 -1.2477 -0.2069  0.5576
  887TIP3    H224297   5.486   1.313   7.634 -0.0606  1.0011 -0.6972
  888TIP3   OH224298   6.051   6.882   2.535  0.3912 -0.2111  0.2252
  888TIP3    H124299   6.013   6.890   2.622 -0.5160 -0.1837 -0.1593
  888TIP3    H224300   6.000   6.813   2.493  0.8521 -0.2594 -0.2657
  889TIP3   OH224301   6.803   1.800   8.121  0.0020 -0.5259 -0.0337
  889TIP3    H124302   6.867   1.862   8.086 -2.4814  1.9562 -0.5986
  889TIP3    H224303   6.760   1.764   8.044 -2.5757  1.7085  0.1911
  890TIP3   OH224304   4.062   1.568   0.716  0.0239 -0.3578 -0.3593
  890TIP3    H124305   3.971   1.594   0.730  0.2929  0.6321 -0.3826
  890TIP3    H224306   4.069   1.550   0.623  0.3883  1.8512 -0.8134
  891TIP3   OH224307   0.970   4.682   1.367  0.0010  0.9328 -0.2606
  891TIP3    H124308   1.036   4.746   1.394  0.0329  0.5044  0.7291
  891TIP3    H224309   0.994   4.659   1.278  1.7421  0.1286  0.3674
  892TIP3   OH224310   2.657   4.286   0.094 -0.0491  0.2198  0.5289
  892TIP3    H124311   2.701   4.255   0.173  2.6816 -2.8766 -1.9230
  892TIP3    H224312   2.602   4.213   0.067 -2.4844  1.9599  0.4804
  893TIP3   OH224313   5.667   1.890   7.822  0.2572  0.3718 -0.3590
  893TIP3    H124314   5.736   1.918   7.762  1.5567 -0.5269  0.6711
  893TIP3    H224315   5.704   1.903   7.909 -1.5815  1.6423  0.3024
  894TIP3   OH224316   3.094   0.410   7.104  0.0597  0.0808 -0.3187
  894TIP3    H124317   3.116   0.360   7.026  1.0133  1.9402 -1.3220
  894TIP3    H224318   3.039   0.482   7.072  1.0435  1.2851  0.5791
  895TIP3   OH224319   2.601   5.108   8.192  0.4278 -0.0339 -0.0736
  895TIP3    H124320   2.691   5.124   8.223  0.1367  3.2403 -0.4979
  895TIP3    H224321   2.595   5.160   8.112 -1.2630 -1.8973 -1.2167
  896TIP3   OH224322   5.787   5.826   0.564  0.1826  0.2337 -0.5936
  896TIP3    H124323   5.702   5.869   0.569  0.3322  0.4355  0.3660
  896TIP3    H224324   5.766   5.733   0.562 -0.0805  0.2969 -1.0834
  897TIP3   OH224325   1.046   5.407   8.343 -0.3630  0.2295  0.6031
  897TIP3    H124326   1.077   5.464   8.413 -0.2695  1.1375 -0.1532
  897TIP3    H224327   0.999   5.466   8.284 -1.2177 -0.6719  0.3593
  898TIP3   OH224328   6.256   2.411   0.996 -0.4067 -0.4900 -0.4080
  898TIP3    H124329   6.208   2.493   0.986 -0.8297 -0.4885  1.2847
  898TIP3    H224330   6.189   2.343   0.993 -0.1921 -0.6896 -0.7053
  899TIP3   OH224331   0.473   1.178   7.100  0.4098  0.8220  0.1113
  899TIP3    H124332   0.499   1.270   7.087 -1.5752  1.5081  0.6896
  899TIP3    H224333   0.543   1.128   7.058  2.7515  2.4863  1.7128
  900TIP3   OH224334   0.015   5.715   7.607  0.2632 -0.0409  0.0655
  900TIP3    H124335  -0.035   5.678   7.680  0.7378  0.2437  0.5437
  900TIP3    H224336  -0.048   5.768   7.559  0.0800  0.2382  0.6050
  901TIP3   OH224337   5.435   0.253   0.452 -0.1277  0.1608  0.1569
  901TIP3    H124338   5.493   0.291   0.519 -1.0756  0.8025  0.6414
  901TIP3    H224339   5.457   0.300   0.372 -0.9941  1.4827  0.6641
  902TIP3   OH224340   3.152   4.481   7.264  0.1589  0.5533  0.0270
  902TIP3    H124341   3.153   4.465   7.358  0.3261  0.8362  0.0750
  902TIP3    H224342   3.128   4.573   7.255  0.4305  0.6067 -0.1915
  903TIP3   OH224343   3.739   2.612   1.369 -0.1038 -0.1033  0.2574
  903TIP3    H124344   3.776   2.589   1.284 -0.2356  0.6424 -0.0095
  903TIP3    H224345   3.728   2.707   1.365  0.9116  0.0933  1.5145
  904TIP3   OH224346   3.993   2.838   0.789  0.3571 -0.4192  0.0156
  904TIP3    H124347   4.081   2.861   0.761  0.2625 -0.8230 -0.6501
  904TIP3    H224348   3.970   2.762   0.735 -1.5651  1.4778 -2.0461
  905TIP3   OH224349   0.614   2.964   1.574 -0.1892 -0.1479  0.2240
  905TIP3    H124350   0.663   3.038   1.539 -0.9434  0.2893  0.0549
  905TIP3    H224351   0.654   2.946   1.658 -0.2090  0.6770  0.4169
  906TIP3   OH224352   3.248   1.835   1.047 -0.0060 -0.2327 -0.2900
  906TIP3    H124353   3.262   1.778   1.123  1.4061 -0.9981 -1.0824
  906TIP3    H224354   3.198   1.782   0.986 -1.1153  0.3735  0.0656
  907TIP3   OH224355   6.062   6.421   1.603  0.1347 -0.0622 -0.0034
  907TIP3    H124356   6.044   6.327   1.615  1.0880 -0.2553  0.0286
  907TIP3    H224357   6.041   6.460   1.688  1.2866 -0.5163  0.5158
  908TIP3   OH224358   2.109   4.078   1.059 -0.1074 -0.0840  0.1020
  908TIP3    H124359   2.146   3.990   1.057  0.4829  0.1714 -0.4279
  908TIP3    H224360   2.159   4.123   1.127  1.8896  0.8160 -1.8525
  909TIP3   OH224361   5.423   0.361   8.020 -0.2031 -0.1142  0.0007
  909TIP3    H124362   5.348   0.321   7.976 -0.4064 -0.6505  0.8141
  909TIP3    H224363   5.496   0.301   8.002 -0.0963  0.1041 -0.3023
  910TIP3   OH224364   2.485   4.810   6.738  0.0568 -0.1976  0.4073
  910TIP3    H124365   2.444   4.725   6.721 -1.6268  0.4111  1.1322
  910TIP3    H224366   2.413   4.864   6.773  1.0094  1.6069 -0.2933
  911TIP3   OH224367   3.280   3.816   0.061  0.3131  0.6380 -0.4029
  911TIP3    H124368   3.372   3.797   0.077  0.2862  1.3777  0.7224
  911TIP3    H224369   3.236   3.731   0.065  0.4127  0.6187  2.9049
  912TIP3   OH224370   4.505   6.481   7.277  0.5883  0.5619 -0.1657
  912TIP3    H124371   4.590   6.524   7.269  1.7691 -1.8882 -2.1811
  912TIP3    H224372   4.444   6.552   7.301  3.1485  2.3744  1.4694
  913TIP3   OH224373   1.821   1.370   6.965 -0.0899  0.1283 -0.0168
  913TIP3    H124374   1.760   1.336   6.900 -0.3443  0.1599  0.2008
  913TIP3    H224375   1.845   1.457   6.934  0.8935 -0.4031 -0.7962
  914TIP3   OH224376   3.610   2.725   2.186 -0.0808 -0.2394  0.0807
  914TIP3    H124377   3.569   2.771   2.259 -0.4677 -0.6219  0.1025
  914TIP3    H224378   3.690   2.687   2.224  0.1342  0.2355  0.1114
  915TIP3   OH224379   3.575   3.247   8.083 -0.1198 -0.1790 -0.1048
  915TIP3    H124380   3.544   3.330   8.048 -1.4760 -0.6416 -0.0365
  915TIP3    H224381   3.547   3.248   8.175 -1.6553 -1.4103 -0.5217
  916TIP3   OH224382   6.461   2.927   1.379  0.0030 -0.0976  0.3900
  916TIP3    H124383   6.407   2.910   1.457 -0.3618 -0.0852  0.1413
  916TIP3    H224384   6.398   2.944   1.309  0.3130 -0.8520 -0.0832
  917TIP3   OH224385   5.038   2.980   2.639  0.1297  0.3798 -0.7193
  917TIP3    H124386   5.131   2.977   2.619  0.0355 -0.8091 -1.0818
  917TIP3    H224387   5.019   2.894   2.677 -0.3977  1.3577  1.3741
  918TIP3   OH224388   0.342   5.950   2.492  0.0113  0.0418 -0.4789
  918TIP3    H124389   0.385   6.032   2.513 -0.6883  0.4023 -0.4213
  918TIP3    H224390   0.251   5.962   2.520 -0.4472 -0.2360 -1.7647
  919TIP3   OH224391   6.641   4.590   0.356 -0.1770 -0.2238 -0.4441
  919TIP3    H124392   6.656   4.529   0.427 -1.3620 -1.5421 -1.2753
  919TIP3    H224393   6.649   4.677   0.396  0.4366 -0.9225  0.9927
  920TIP3   OH224394   0.575   1.668   8.290  0.2712 -0.0965 -0.0832
  920TIP3    H124395   0.586   1.750   8.338  2.3105 -0.1485 -0.4000
  920TIP3    H224396   0.555   1.603   8.358  0.2740  0.3437  0.3491
  921TIP3   OH224397   6.498   4.700   1.607 -0.5901  0.5740 -0.5771
  921TIP3    H124398   6.586   4.689   1.644 -0.4749 -1.3688 -1.3007
  921TIP3    H224399   6.465   4.781   1.646  1.6681  1.5825 -0.6236
  922TIP3   OH224400   4.797   0.461   2.083 -0.2395 -0.3989  0.1680
  922TIP3    H124401   4.703   0.471   2.098 -0.1313 -0.3405  0.8545
  922TIP3    H224402   4.825   0.546   2.051 -0.0108  0.3899  2.2772
  923TIP3   OH224403   3.486   4.220   1.195  0.1413 -0.2195  0.7890
  923TIP3    H124404   3.492   4.150   1.130 -3.2098  0.2178 -0.1877
  923TIP3    H224405   3.425   4.186   1.261 -2.0104  1.8799  0.0153
  924TIP3   OH224406   2.563   0.216   1.377  0.2391 -0.6195 -0.4303
  924TIP3    H124407   2.622   0.287   1.352  1.2462 -0.7064  1.5059
  924TIP3    H224408   2.574   0.149   1.309 -1.2773  1.2772 -2.7117
  925TIP3   OH224409   1.825   1.743   1.774 -0.0144  0.6946  0.2849
  925TIP3    H124410   1.878   1.749   1.854  0.2954  0.8552  0.0686
  925TIP3    H224411   1.759   1.812   1.785  1.6579  2.5795 -0.7899
  926TIP3   OH224412   3.325   0.731   6.677 -0.1625  0.0503 -0.3223
  926TIP3    H124413   3.233   0.703   6.670 -0.4254  1.1030 -1.5925
  926TIP3    H224414   3.361   0.717   6.589  0.9528 -0.5061  0.2131
  927TIP3   OH224415   4.979   1.398   2.566 -0.8166 -0.7861 -0.0286
  927TIP3    H124416   4.896   1.350   2.557 -0.1518 -1.9547 -0.0813
  927TIP3    H224417   5.043   1.332   2.590 -0.0672  0.2573  0.9924
  928TIP3   OH224418   1.343   4.108   1.621  0.2054  0.2746  0.3950
  928TIP3    H124419   1.327   4.015   1.639 -0.4862  0.6829  2.1121
  928TIP3    H224420   1.373   4.110   1.530  0.2004 -1.6180  0.3081
  929TIP3   OH224421   0.532   5.688   7.244 -0.4242  0.5697 -0.4977
  929TIP3    H124422   0.579   5.638   7.177 -0.0765 -0.3323  0.3957
  929TIP3    H224423   0.577   5.772   7.247  1.0372 -0.1931  0.1748
  930TIP3   OH224424   4.154   0.151   7.934 -0.4389  0.4304 -0.1181
  930TIP3    H124425   4.175   0.109   8.017  0.0280 -0.5924 -0.7371
  930TIP3    H224426   4.109   0.232   7.958  2.0972  1.5280  1.1820
  931TIP3   OH224427   0.445   4.672   0.050  1.1558  0.2892 -0.1122
  931TIP3    H124428   0.404   4.591   0.020 -0.2124  1.1007 -0.4964
  931TIP3    H224429   0.499   4.644   0.124  0.3248 -0.9111  0.0863
  932TIP3   OH224430   3.619   1.333   1.700 -0.1390 -0.0415  0.3277
  932TIP3    H124431   3.562   1.382   1.641 -0.0980 -0.1435  0.2030
  932TIP3    H224432   3.697   1.387   1.709 -0.4333  0.3117  0.8509
  933TIP3   OH224433   6.686   0.949   0.397 -0.4120  0.3223 -0.2318
  933TIP3    H124434   6.596   0.980   0.412 -0.1725  1.0835 -0.3392
  933TIP3    H224435   6.693   0.940   0.302 -0.6483 -0.5952 -0.1706
  934TIP3   OH224436   4.897   3.955   7.361 -0.1585  0.1591  0.1454
  934TIP3    H124437   4.952   3.929   7.286 -1.1309  1.3614 -1.0316
  934TIP3    H224438   4.827   4.008   7.322  0.4352  2.5794  2.1358
  935TIP3   OH224439   0.161   1.414   2.368  0.2810 -0.2007  0.1814
  935TIP3    H124440   0.087   1.372   2.324  1.4026 -2.1004 -0.0218
  935TIP3    H224441   0.224   1.431   2.298  0.2707  0.8855  0.4291
  936TIP3   OH224442   5.647   6.680   6.798 -0.2431  0.0427 -0.2521
  936TIP3    H124443   5.585   6.739   6.756 -0.4476  1.2656  1.6128
  936TIP3    H224444   5.600   6.597   6.806 -0.6287  0.1481 -1.2691
  937TIP3   OH224445   0.255   4.847   2.515  0.9346 -0.0482  0.3536
  937TIP3    H124446   0.166   4.839   2.550 -0.1468  1.1875 -1.9161
  937TIP3    H224447   0.285   4.756   2.507  0.2993 -0.4508  2.0688
  938TIP3   OH224448   2.266   2.094   7.347  0.0339 -0.3112 -0.0493
  938TIP3    H124449   2.315   2.019   7.311 -3.8906 -2.1724 -2.1580
  938TIP3    H224450   2.261   2.076   7.441  2.8093 -0.2515  0.1932
  939TIP3   OH224451   4.823   6.965   1.177 -0.3507  0.1244  0.6088
  939TIP3    H124452   4.731   6.980   1.199 -0.5618 -1.1573  0.6716
  939TIP3    H224453   4.869   6.974   1.261 -0.5997 -0.5602  0.8227
  940TIP3   OH224454   4.351   1.762   7.955 -0.3005  0.1760 -0.4090
  940TIP3    H124455   4.276   1.705   7.939  0.1685 -0.1625 -1.5255
  940TIP3    H224456   4.427   1.709   7.928  0.2606  0.8200 -0.1220
  941TIP3   OH224457   5.608   6.357   7.916 -0.1033  0.3099  0.0179
  941TIP3    H124458   5.539   6.338   7.978 -0.2485 -1.6296 -0.6595
  941TIP3    H224459   5.671   6.285   7.927 -0.6347 -0.7028 -2.7177
  942TIP3   OH224460   1.029   5.344   2.542 -0.1039 -0.1953 -0.4663
  942TIP3    H124461   1.091   5.275   2.564  1.5787  0.7214 -2.0731
  942TIP3    H224462   1.020   5.395   2.622  2.1810  0.3295 -0.4883
  943TIP3   OH224463   4.251   2.009   2.358 -0.2345 -0.0803  0.3970
  943TIP3    H124464   4.274   1.954   2.283  2.0294  0.1084  0.8649
  943TIP3    H224465   4.161   2.037   2.341  0.1777 -0.0646 -2.2453
  944TIP3   OH224466   0.939   5.784   7.242  0.5579 -0.1739 -0.1342
  944TIP3    H124467   0.976   5.863   7.281  0.8002 -1.0018  1.3799
  944TIP3    H224468   0.900   5.736   7.315 -0.1310 -1.1625 -1.1126
  945TIP3   OH224469   1.653   4.818   0.573  0.1140  0.2260 -0.2114
  945TIP3    H124470   1.661   4.760   0.649 -0.3799 -0.4068 -0.6264
  945TIP3    H224471   1.693   4.900   0.601  2.1968 -0.7493 -0.0781
  946TIP3   OH224472   1.176   2.799   7.262  0.5466  0.3550 -0.1732
  946TIP3    H124473   1.112   2.729   7.270 -0.6599  1.4966  0.4352
  946TIP3    H224474   1.175   2.822   7.169  0.2615  0.2088 -0.2056
  947TIP3   OH224475   6.297   6.566   3.171 -0.4711  0.0474 -0.2194
  947TIP3    H124476   6.312   6.506   3.098  0.3277  0.4741 -0.4277
  947TIP3    H224477   6.384   6.580   3.209 -0.4515  1.7975 -0.7786
  948TIP3   OH224478   3.662   0.253   7.968 -0.7902  0.4089 -0.6448
  948TIP3    H124479   3.667   0.180   8.029 -2.1428  0.4154 -0.4906
  948TIP3    H224480   3.685   0.330   8.021 -0.3886  0.2249 -0.5498
  949TIP3   OH224481   3.608   1.503   0.504 -0.2855 -0.3457  0.1423
  949TIP3    H124482   3.695   1.463   0.504 -0.2334 -0.2329  0.3355
  949TIP3    H224483   3.625   1.598   0.505 -0.4038 -0.3073 -0.9985
  950TIP3   OH224484   5.378   0.931   2.885  0.4443 -0.4322 -0.2245
  950TIP3    H124485   5.306   0.922   2.822  0.8590 -0.1261 -0.7569
  950TIP3    H224486   5.453   0.891   2.841  0.6646 -0.5151  0.2181
  951TIP3   OH224487   4.294   3.056   1.328  0.0592 -0.3230 -0.0274
  951TIP3    H124488   4.352   2.999   1.278 -0.1960  0.5305 -1.3693
  951TIP3    H224489   4.269   3.125   1.266 -1.2819  0.0956  0.9219
  952TIP3   OH224490   6.192   0.396   8.013 -0.1937 -0.2399 -0.3662
  952TIP3    H124491   6.157   0.397   8.102  0.8424 -1.8529  0.1075
  952TIP3    H224492   6.249   0.472   8.008  0.5714 -0.7170  0.7366
  953TIP3   OH224493   5.471   3.680   1.150  0.0295 -0.2733  0.4449
  953TIP3    H124494   5.435   3.728   1.225 -0.8928 -0.9925  0.4863
  953TIP3    H224495   5.559   3.655   1.178  0.4203  1.1270  0.5308
  954TIP3   OH224496   6.442   4.820   8.329  0.1188 -0.1520  0.2437
  954TIP3    H124497   6.397   4.810   8.413  0.8501 -2.8726  0.4291
  954TIP3    H224498   6.510   4.885   8.345 -0.5128  0.2471  1.4001
  955TIP3   OH224499   3.220   2.706   2.904 -0.4314  0.5160  0.0275
  955TIP3    H124500   3.295   2.682   2.959 -1.1673  0.6081  1.0979
  955TIP3    H224501   3.254   2.774   2.846  0.0638  1.3107  1.2096
  956TIP3   OH224502   0.618   6.387   1.098 -0.2941 -0.1353  0.0665
  956TIP3    H124503   0.687   6.451   1.113 -2.3170  2.4661 -0.8463
  956TIP3    H224504   0.587   6.406   1.009 -2.5598 -0.7634  0.6608
  957TIP3   OH224505   3.390   0.406   1.629  0.2210  0.2800 -0.2836
  957TIP3    H124506   3.462   0.346   1.650 -1.1252 -1.0339  0.8667
  957TIP3    H224507   3.338   0.410   1.710 -1.8937 -0.1376 -1.5465
  958TIP3   OH224508   1.586   4.037   0.036 -0.5875  0.7666  0.2499
  958TIP3    H124509   1.626   4.027   0.122 -0.7179  0.9116  0.3274
  958TIP3    H224510   1.560   3.948   0.012  3.8402 -0.2566 -1.8343
  959TIP3   OH224511   3.491   3.234   6.917  0.2023 -0.0305  0.2373
  959TIP3    H124512   3.518   3.247   7.008 -0.4361  0.7819  0.3210
  959TIP3    H224513   3.493   3.322   6.879  2.3708 -0.5756 -1.0996
  960TIP3   OH224514   4.732   4.556   0.346 -0.2177  0.2845  0.1074
  960TIP3    H124515   4.718   4.589   0.257 -0.2387  1.5261  0.5540
  960TIP3    H224516   4.776   4.472   0.334 -2.1459 -0.6298 -1.1410
  961TIP3   OH224517   5.717   5.961   1.579 -0.1184  0.4875  0.6870
  961TIP3    H124518   5.770   5.965   1.659 -0.5329  0.4630  0.9700
  961TIP3    H224519   5.779   5.938   1.510  0.2752  0.6615  0.9751
  962TIP3   OH224520   5.074   2.682   0.531  0.5089 -0.2656 -0.0455
  962TIP3    H124521   5.019   2.617   0.575  0.9865 -1.3218 -0.9544
  962TIP3    H224522   5.098   2.744   0.600 -0.7757 -0.4934  0.6318
  963TIP3   OH224523   4.200   6.036   0.808  0.2720  0.0489 -0.1402
  963TIP3    H124524   4.111   6.003   0.797  0.7703 -1.4454  0.0578
  963TIP3    H224525   4.198   6.123   0.769 -0.8517 -0.6083 -1.6808
  964TIP3   OH224526   5.248   4.250   8.262 -0.5163  0.0499  0.0305
  964TIP3    H124527   5.200   4.229   8.342 -1.1697 -2.2848 -0.8882
  964TIP3    H224528   5.251   4.345   8.260  1.3519  0.2590  3.8727
  965TIP3   OH224529   6.985   5.397   2.076  0.4356  0.4625 -0.1746
  965TIP3    H124530   7.009   5.313   2.116 -0.1122  0.2093 -0.3747
  965TIP3    H224531   6.910   5.377   2.021  1.9556  0.5097 -2.4120
  966TIP3   OH224532   0.903   4.429   7.546  0.0349 -0.1008 -0.1102
  966TIP3    H124533   0.830   4.424   7.485  1.4196 -1.8811 -1.7450
  966TIP3    H224534   0.932   4.520   7.542 -1.0882  0.2482 -0.6324
  967TIP3   OH224535   1.627   4.664   1.764 -0.4524  0.1802 -0.5335
  967TIP3    H124536   1.641   4.652   1.670 -2.2725 -2.6723 -0.5598
  967TIP3    H224537   1.537   4.695   1.771 -0.4042  0.1459  0.3012
  968TIP3   OH224538   3.051   1.579   1.587  0.2795 -0.0075  0.7117
  968TIP3    H124539   3.064   1.490   1.618  0.7866  0.2761  1.3446
  968TIP3    H224540   3.053   1.633   1.666 -3.1216  0.2904  0.7092
  969TIP3   OH224541   3.402   2.407   2.547 -0.1344 -0.2476  0.0489
  969TIP3    H124542   3.432   2.436   2.633  1.1242 -0.5645 -0.2630
  969TIP3    H224543   3.359   2.323   2.563  0.9713 -0.7905  0.2513
  970TIP3   OH224544   6.308   0.819   2.451 -0.0848  0.8942  0.3977
  970TIP3    H124545   6.241   0.756   2.477 -1.9979  1.3029 -3.0092
  970TIP3    H224546   6.384   0.765   2.428 -0.3167  0.1648  1.2977
  971TIP3   OH224547   3.470   2.753   8.028  0.4914 -0.2827 -0.5462
  971TIP3    H124548   3.503   2.818   8.091  0.3833 -0.3191 -0.4525
  971TIP3    H224549   3.495   2.669   8.065  2.4581 -0.2587 -1.6666
  972TIP3   OH224550   4.164   4.594   0.947  0.4512  0.2152  0.2925
  972TIP3    H124551   4.125   4.650   1.013 -1.3526 -0.7684  0.1298
  972TIP3    H224552   4.129   4.626   0.864  1.5424  0.5246 -0.0625
  973TIP3   OH224553   3.909   2.355   0.565  0.4325 -0.0329  0.5860
  973TIP3    H124554   3.855   2.328   0.490  0.7050  1.6836 -0.2861
  973TIP3    H224555   3.999   2.343   0.534  0.7402 -3.7222  2.3320
  974TIP3   OH224556   4.706   5.418   7.739  0.6167 -0.1412 -0.4562
  974TIP3    H124557   4.697   5.394   7.647 -1.4507  0.2475 -0.4223
  974TIP3    H224558   4.688   5.512   7.741  1.5549  0.0336  0.2392
  975TIP3   OH224559   1.517   0.997   7.606 -0.2297 -1.1111  0.6365
  975TIP3    H124560   1.454   1.014   7.676  0.0712  0.9249  0.4873
  975TIP3    H224561   1.598   1.038   7.636  1.3152 -4.2620  1.1245
  976TIP3   OH224562   2.940   3.306   2.363  0.3684  0.5236 -0.0638
  976TIP3    H124563   2.904   3.328   2.450 -0.2577 -0.1621 -0.1392
  976TIP3    H224564   2.936   3.388   2.314  3.1807  1.6383  1.3318
  977TIP3   OH224565   3.376   2.263   0.388  0.0529 -0.0377 -0.3417
  977TIP3    H124566   3.389   2.354   0.415 -1.0865  0.1271 -0.2726
  977TIP3    H224567   3.389   2.264   0.293  0.9705  0.0045 -0.2193
  978TIP3   OH224568   1.989   0.894   0.849  0.3164 -0.3056  0.2301
  978TIP3    H124569   2.070   0.915   0.896  1.1131 -0.4812 -1.0254
  978TIP3    H224570   2.013   0.823   0.790 -0.3446  0.6797 -1.2886
  979TIP3   OH224571   1.452   1.280   0.352  0.2805  0.9457  0.2002
  979TIP3    H124572   1.367   1.304   0.316  0.2422 -1.4266 -1.5109
  979TIP3    H224573   1.505   1.359   0.342 -0.6605  1.3611 -2.2209
  980TIP3   OH224574   5.631   5.279   2.850  0.0377 -0.5718 -0.2037
  980TIP3    H124575   5.695   5.260   2.920 -0.0375 -0.6265 -0.1493
  980TIP3    H224576   5.589   5.360   2.877 -0.3450 -0.8558  0.0702
  981TIP3   OH224577   1.074   1.042   1.147  0.5265  0.5635  1.0907
  981TIP3    H124578   1.115   1.123   1.176 -0.3915  0.7983  1.7989
  981TIP3    H224579   1.013   1.020   1.217  0.2189 -0.3397  0.5608
  982TIP3   OH224580   5.579   3.770   7.056 -0.1855  0.4572 -0.4630
  982TIP3    H124581   5.517   3.699   7.038 -0.3925  0.5682 -0.1769
  982TIP3    H224582   5.534   3.828   7.117  0.7171 -0.2070  0.8906
  983TIP3   OH224583   1.076   4.420   1.938  0.3898  0.0281  0.0939
  983TIP3    H124584   0.986   4.387   1.937  0.9352 -1.4938 -0.1792
  983TIP3    H224585   1.125   4.357   1.990  1.2919  0.9082  0.3461
  984TIP3   OH224586   6.643   4.996   1.586 -0.2479 -0.2962  0.5346
  984TIP3    H124587   6.701   4.930   1.624 -1.5082 -2.8571 -1.6532
  984TIP3    H224588   6.651   4.983   1.491 -2.3572  1.0856  0.1009
  985TIP3   OH224589   2.062   3.114   8.216 -0.3213  0.1607 -0.4591
  985TIP3    H124590   2.071   3.209   8.225 -0.7103  0.1732 -0.1505
  985TIP3    H224591   2.073   3.081   8.305  0.3303 -0.1337 -0.6407
  986TIP3   OH224592   6.363   6.984   7.789 -0.0590 -0.2741  0.1920
  986TIP3    H124593   6.294   6.929   7.753  0.1951  0.5295 -1.6340
  986TIP3    H224594   6.376   7.052   7.723  1.5933  0.3287  1.0851
  987TIP3   OH224595   4.425   6.342   2.041 -0.1822  0.2890  0.9447
  987TIP3    H124596   4.458   6.420   1.998 -0.2324  0.0877  0.5346
  987TIP3    H224597   4.431   6.273   1.974  0.5147 -0.2168  1.5178
  988TIP3   OH224598   6.071   2.838   0.823 -0.1196  0.3156 -0.0975
  988TIP3    H124599   6.138   2.798   0.878  1.1692  1.3988 -0.8137
  988TIP3    H224600   6.003   2.867   0.884  0.8039  0.6094  0.8091
  989TIP3   OH224601   2.757   0.717   1.354 -0.5357 -0.1253  0.0439
  989TIP3    H124602   2.798   0.746   1.273 -1.3144  0.3384 -0.2014
  989TIP3    H224603   2.744   0.797   1.405 -2.9709  0.1021 -0.7618
  990TIP3   OH224604   1.980   1.700   8.304 -0.0096  0.4870  0.0241
  990TIP3    H124605   1.972   1.611   8.338  0.9858  0.3373 -0.1267
  990TIP3    H224606   2.057   1.736   8.348 -0.9556  1.6146  0.8224
  991TIP3   OH224607   5.720   2.889   7.343  0.2357  0.0797 -0.3760
  991TIP3    H124608   5.800   2.901   7.396  0.5600 -2.0602 -0.3250
  991TIP3    H224609   5.695   2.979   7.319  1.3313  0.9710  1.5373
  992TIP3   OH224610   2.072   5.038   0.146  0.0906  0.3712  0.0500
  992TIP3    H124611   2.013   4.966   0.124  1.2907 -0.6752  0.1455
  992TIP3    H224612   2.021   5.117   0.127 -1.4933 -0.4832  0.5882
  993TIP3   OH224613   3.808   4.172   0.283  0.1707  0.1925  0.3151
  993TIP3    H124614   3.763   4.253   0.307 -1.1421 -0.1581 -0.8573
  993TIP3    H224615   3.850   4.191   0.200  2.4714  0.5738  1.4778
  994TIP3   OH224616   6.047   0.960   0.516  0.1387  0.7068 -0.1539
  994TIP3    H124617   5.973   0.933   0.570  0.5267 -0.7875 -0.3114
  994TIP3    H224618   6.124   0.944   0.571  0.6959 -2.5796 -1.6320
  995TIP3   OH224619   0.858   0.493   0.932 -0.0179  0.3284 -0.1765
  995TIP3    H124620   0.834   0.570   0.880 -1.6016 -0.2951 -0.4128
  995TIP3    H224621   0.781   0.475   0.985  1.0860  0.1441  1.4475
  996TIP3   OH224622   5.436   1.201   0.073 -0.3989 -0.0141  0.1333
  996TIP3    H124623   5.345   1.178   0.092 -0.7239 -0.1196 -1.3856
  996TIP3    H224624   5.436   1.222  -0.021  1.2801 -0.6926 -0.0597
  997TIP3   OH224625   6.167   4.457   8.021 -0.0229 -0.1056 -0.0562
  997TIP3    H124626   6.213   4.519   7.964 -0.8938  1.0919  0.5074
  997TIP3    H224627   6.090   4.430   7.970 -2.1733  2.8573  1.3483
  998TIP3   OH224628   0.475   4.123   1.469  0.5311 -0.0171  0.3209
  998TIP3    H124629   0.518   4.078   1.396 -0.6130 -1.6517  0.6133
  998TIP3    H224630   0.436   4.201   1.428 -0.3601 -1.0683 -0.9144
  999TIP3   OH224631   1.829   0.111   0.732 -0.1146  0.0984 -1.1257
  999TIP3    H124632   1.751   0.086   0.684 -0.7045 -1.5459  0.5674
  999TIP3    H224633   1.900   0.107   0.668 -0.8644 -1.9660 -1.9125
 1000TIP3   OH224634   3.314   0.539   2.393  0.2828  0.4223  0.7243
 1000TIP3    H124635   3.309   0.630   2.365  0.5423  0.5651  1.1312
 1000TIP3    H224636   3.256   0.534   2.469  1.1862  0.5399  1.4411
 1001TIP3   OH224637   0.581   4.227   0.671 -0.3792 -0.2191 -0.0973
 1001TIP3    H124638   0.597   4.175   0.592  0.2413 -0.0985 -0.0615
 1001TIP3    H224639   0.667   4.264   0.692 -0.6709  0.2612  0.2699
 1002TIP3   OH224640   6.672   0.970   0.137 -0.9459  0.2805  0.0766
 1002TIP3    H124641   6.633   1.055   0.119 -3.1002 -0.2158  1.9349
 1002TIP3    H224642   6.599   0.908   0.136  0.3304 -1.3218  0.1900
 1003TIP3   OH224643   1.127   0.694   0.228 -0.2233 -0.0680 -0.0034
 1003TIP3    H124644   1.117   0.683   0.323  0.1708 -2.3126 -0.1513
 1003TIP3    H224645   1.185   0.769   0.218 -1.4767  1.1450  1.4630
 1004TIP3   OH224646   3.798   3.383   1.670  0.0530  0.4253  0.1439
 1004TIP3    H124647   3.737   3.310   1.683  2.2932 -1.3653  1.3179
 1004TIP3    H224648   3.744   3.454   1.636 -2.5089 -1.3060  0.3572
 1005TIP3   OH224649   4.873   4.745   1.732  0.4830 -0.3670  0.2896
 1005TIP3    H124650   4.874   4.658   1.770  0.4396 -0.5772 -0.1786
 1005TIP3    H224651   4.945   4.745   1.669 -1.2434 -1.0607 -1.8332
 1006TIP3   OH224652   0.674   3.626   7.570 -0.0651  0.0627 -0.3415
 1006TIP3    H124653   0.677   3.652   7.662  0.5105 -0.3230 -0.2469
 1006TIP3    H224654   0.587   3.653   7.540  0.3649  1.8031 -0.1538
 1007TIP3   OH224655   3.775   5.103   7.177  0.6979  0.4261 -0.2442
 1007TIP3    H124656   3.755   5.011   7.192 -0.1171  0.6562  0.1756
 1007TIP3    H224657   3.844   5.103   7.111  0.1556 -0.4631 -0.8203
 1008TIP3   OH224658   1.433   5.014   8.298  0.0770  0.0997 -0.2758
 1008TIP3    H124659   1.404   4.972   8.217  0.4815 -0.0983 -0.3174
 1008TIP3    H224660   1.527   5.029   8.285 -0.2817  2.2340 -0.8139
 1009TIP3   OH224661   1.537   0.160   0.018  0.4539  0.0062 -0.2438
 1009TIP3    H124662   1.557   0.067   0.001 -0.9868 -0.3076 -0.3414
 1009TIP3    H224663   1.530   0.166   0.113  0.4394 -0.0199 -0.2426
 1010TIP3   OH224664   3.278   0.045   1.801  0.2502 -0.9580  0.6495
 1010TIP3    H124665   3.336  -0.003   1.860 -1.1285 -1.0971  1.9560
 1010TIP3    H224666   3.237  -0.022   1.746  1.7081 -0.8095 -0.7043
 1011TIP3   OH224667   0.868   5.201   8.368 -0.2819 -0.4180 -0.0545
 1011TIP3    H124668   0.909   5.132   8.316  0.8078 -0.2040  0.4864
 1011TIP3    H224669   0.932   5.272   8.369 -0.8141  0.0708  0.5347
 1012TIP3   OH224670   0.375   6.236   2.430 -0.3887  0.2557 -0.6617
 1012TIP3    H124671   0.298   6.189   2.398 -0.2627 -0.8620  0.5704
 1012TIP3    H224672   0.341   6.303   2.489 -0.4757  0.4487 -0.9341
 1013TIP3   OH224673   0.985   1.016   2.074 -0.1040  0.3158  0.2287
 1013TIP3    H124674   0.953   1.106   2.078  0.1813  0.4495 -0.4138
 1013TIP3    H224675   0.993   0.997   1.981 -0.0895 -0.3506  0.3609
 1014TIP3   OH224676   1.551   5.283   2.106 -0.5102 -0.0129 -0.1324
 1014TIP3    H124677   1.580   5.374   2.104  0.5297 -0.3272  0.1626
 1014TIP3    H224678   1.597   5.244   2.181  0.2388 -1.1590 -1.1538
 1015TIP3   OH224679   5.399   0.104   6.501  0.6464  0.3009 -0.2338
 1015TIP3    H124680   5.346   0.111   6.421 -1.3003 -0.0225  0.9506
 1015TIP3    H224681   5.465   0.038   6.480 -0.7138 -0.8382 -1.1755
 1016TIP3   OH224682   3.265   2.578   0.920  0.2430 -0.0955 -0.1743
 1016TIP3    H124683   3.262   2.671   0.900  0.5639 -0.0451 -0.0016
 1016TIP3    H224684   3.355   2.563   0.948 -0.5411  0.1743  2.8517
 1017TIP3   OH224685   1.001   2.210   1.792  0.1212  0.2929 -0.5182
 1017TIP3    H124686   0.926   2.225   1.733 -0.5049 -1.5336 -0.2366
 1017TIP3    H224687   1.073   2.187   1.733 -0.2111 -0.4265 -0.6575
 1018TIP3   OH224688   1.680   0.896   7.341 -0.1862  0.1590 -0.5306
 1018TIP3    H124689   1.738   0.859   7.408 -1.8581  0.1647  0.9820
 1018TIP3    H224690   1.701   0.846   7.262  1.5886 -0.0990  0.0625
 1019TIP3   OH224691   2.528   0.918   6.748  0.4430 -0.1355 -0.0964
 1019TIP3    H124692   2.471   0.933   6.824  0.0478 -1.3409 -0.1365
 1019TIP3    H224693   2.467   0.903   6.676  0.8193 -0.1808 -0.4054
 1020TIP3   OH224694   1.487   4.385   0.635 -0.4732  0.5840 -0.0559
 1020TIP3    H124695   1.447   4.321   0.576 -1.1429  1.6696 -0.8127
 1020TIP3    H224696   1.581   4.381   0.613 -0.3956 -0.6155  0.4026
 1021TIP3   OH224697   3.241   1.774   0.198 -0.0962  0.1730 -0.0793
 1021TIP3    H124698   3.334   1.769   0.219  0.4723  1.4677 -2.0317
 1021TIP3    H224699   3.212   1.857   0.236 -0.5446 -0.3476  0.7488
 1022TIP3   OH224700   5.404   0.003   7.444  0.1240 -0.0918 -0.3823
 1022TIP3    H124701   5.320   0.011   7.399 -0.2542 -2.5892 -0.2239
 1022TIP3    H224702   5.429   0.094   7.464 -1.7714  0.8007 -1.7657
 1023TIP3   OH224703   1.059   4.982   8.336 -0.0496 -0.5308 -0.2394
 1023TIP3    H124704   1.098   5.011   8.254  0.0899 -0.5099 -0.1671
 1023TIP3    H224705   1.121   4.917   8.370 -0.0950 -0.5227 -0.1409
 1024TIP3   OH224706   6.876   6.070   8.399  0.0568 -0.0806  0.1110
 1024TIP3    H124707   6.787   6.105   8.410 -0.1767 -0.8221  0.6419
 1024TIP3    H224708   6.886   6.007   8.470 -0.8219 -3.7149 -2.6980
 1025TIP3   OH224709   2.717   3.869   1.304 -0.4053 -0.2997 -0.1358
 1025TIP3    H124710   2.805   3.895   1.333 -0.1624 -1.4175  0.2031
 1025TIP3    H224711   2.676   3.833   1.383 -1.7955  1.6793  0.1153
 1026TIP3   OH224712   6.929   1.256   7.373  0.0242 -0.2869 -0.1727
 1026TIP3    H124713   6.953   1.163   7.378 -0.2216 -0.3360  0.1770
 1026TIP3    H224714   7.012   1.302   7.365  0.1177 -0.5704 -0.9100
 1027TIP3   OH224715   0.198   0.378   1.462 -0.6921  0.0117  0.3819
 1027TIP3    H124716   0.203   0.375   1.557 -0.1300  4.7771  0.7798
 1027TIP3    H224717   0.289   0.378   1.433 -0.8615 -1.7355 -0.2488
 1028TIP3   OH224718   2.448   1.688   2.366 -0.2171  0.1880  0.1848
 1028TIP3    H124719   2.393   1.753   2.411 -1.6378  0.6838 -2.0613
 1028TIP3    H224720   2.400   1.606   2.374  1.3698 -0.6110  2.6506
 1029TIP3   OH224721   6.100   2.184   2.501  0.2482 -0.9476  0.5157
 1029TIP3    H124722   6.116   2.235   2.580  0.0177  0.8014 -0.5226
 1029TIP3    H224723   6.088   2.094   2.533 -3.2459  0.1469  2.8475
 1030TIP3   OH224724   3.853   6.710   0.983 -0.2994  0.3098 -0.4211
 1030TIP3    H124725   3.799   6.684   1.058  0.9198 -1.2882 -0.0203
 1030TIP3    H224726   3.940   6.726   1.021  0.5404 -1.3201 -1.5506
 1031TIP3   OH224727   1.461   5.710   1.853 -0.5295 -0.1603 -0.1444
 1031TIP3    H124728   1.457   5.754   1.938 -1.1437 -0.1906 -0.1530
 1031TIP3    H224729   1.492   5.622   1.873 -0.9036 -0.2453  0.0868
 1032TIP3   OH224730   5.701   1.378   7.911  0.2642  0.1340  0.7384
 1032TIP3    H124731   5.616   1.383   7.866  0.9419  1.5651 -0.4468
 1032TIP3    H224732   5.764   1.409   7.847  1.4972  0.6035  2.1268
 1033TIP3   OH224733   0.845   0.137   3.237  0.0393  0.3233 -0.0100
 1033TIP3    H124734   0.788   0.108   3.308 -0.0067 -0.4468 -0.3584
 1033TIP3    H224735   0.789   0.191   3.182 -0.1495  0.2153  0.0757
 1034TIP3   OH224736   0.646   1.887   0.022 -0.4367  0.0387  0.4521
 1034TIP3    H124737   0.624   1.943   0.097  0.1071  0.9961 -0.0762
 1034TIP3    H224738   0.732   1.919  -0.007 -0.3535 -0.7355 -0.1821
 1035TIP3   OH224739   4.074   5.442   0.621 -0.1381 -0.2617  0.2339
 1035TIP3    H124740   4.086   5.485   0.705  0.6451  0.4892 -0.2442
 1035TIP3    H224741   3.989   5.472   0.591  0.8489  1.9350 -0.6025
 1036TIP3   OH224742   5.657   3.916   1.820  0.0561 -0.7905  0.1994
 1036TIP3    H124743   5.700   3.992   1.859 -0.7277  0.0961 -0.6270
 1036TIP3    H224744   5.657   3.933   1.726 -2.3985 -0.5476  0.1686
 1037TIP3   OH224745   2.385   5.625   2.363  0.5318  0.0119 -0.1613
 1037TIP3    H124746   2.382   5.709   2.318  2.6185  0.6067  0.7367
 1037TIP3    H224747   2.350   5.643   2.450 -1.2300 -0.6157 -0.6921
 1038TIP3   OH224748   2.576   1.512   6.324  0.0211 -0.1728  0.4934
 1038TIP3    H124749   2.592   1.590   6.377  2.9372  0.0348 -0.5122
 1038TIP3    H224750   2.632   1.445   6.363 -0.3019 -0.9572 -0.3594
 1039TIP3   OH224751   4.859   1.302   1.557 -0.8810 -0.3784  0.2356
 1039TIP3    H124752   4.914   1.356   1.501  0.3575 -0.5177  1.2590
 1039TIP3    H224753   4.918   1.271   1.626 -2.4493  0.3482  2.0153
 1040TIP3   OH224754   6.033   3.244   8.130  0.4997 -0.2353 -0.4696
 1040TIP3    H124755   5.944   3.214   8.150  0.3096 -0.9263 -2.1913
 1040TIP3    H224756   6.025   3.340   8.125  0.3285 -0.1089  1.4029
 1041TIP3   OH224757   6.251   6.335   2.034 -0.4813  0.6708 -0.2934
 1041TIP3    H124758   6.345   6.328   2.018 -0.3505 -0.5096  0.8949
 1041TIP3    H224759   6.224   6.411   1.982  1.1658  1.1817 -0.4580
 1042TIP3   OH224760   1.504   6.109   2.163 -0.1564  0.3564 -0.2116
 1042TIP3    H124761   1.585   6.100   2.212  0.2015 -0.0050 -0.8557
 1042TIP3    H224762   1.437   6.128   2.229  0.0063 -1.7816  0.6272
 1043TIP3   OH224763   4.537   0.477   6.832 -0.4662  0.0702 -0.5346
 1043TIP3    H124764   4.502   0.399   6.876 -0.6570 -0.6939 -1.9755
 1043TIP3    H224765   4.473   0.497   6.764 -0.2235  1.2760 -0.4240
 1044TIP3   OH224766   4.940   1.128   2.315  0.3535 -0.8983 -0.1914
 1044TIP3    H124767   4.955   1.159   2.226 -1.6826 -1.6975 -0.8718
 1044TIP3    H224768   4.864   1.178   2.345 -0.9000 -2.7672 -0.0767
 1045TIP3   OH224769   4.733   4.146   7.247  0.3668  0.3984  0.4072
 1045TIP3    H124770   4.727   4.227   7.299 -1.0451 -0.1086  1.0799
 1045TIP3    H224771   4.649   4.140   7.201  1.0144  0.0376 -0.7619
 1046TIP3   OH224772   5.476   5.674   0.969 -0.4140 -0.6065 -0.2398
 1046TIP3    H124773   5.401   5.623   0.940 -2.4110  0.8599  1.9750
 1046TIP3    H224774   5.550   5.614   0.964 -2.5911 -3.8238  2.2529
 1047TIP3   OH224775   6.193   1.437   8.046  0.3640 -0.0578 -0.3353
 1047TIP3    H124776   6.173   1.437   7.952  0.4248  0.6853 -0.3558
 1047TIP3    H224777   6.237   1.354   8.061  2.3023  0.7260 -1.3852
 1048TIP3   OH224778   1.469   5.496   7.925 -0.0879 -0.4347  0.1223
 1048TIP3    H124779   1.529   5.471   7.995  0.0491  0.7304  0.4367
 1048TIP3    H224780   1.428   5.577   7.956 -2.2547 -1.4683  0.1764
 1049TIP3   OH224781   4.639   6.559   7.987 -0.1724  0.3487 -0.2309
 1049TIP3    H124782   4.573   6.598   8.045 -1.4974  0.8243 -1.9756
 1049TIP3    H224783   4.723   6.592   8.020 -0.8727  0.5588  1.4247
 1050TIP3   OH224784   5.007   5.815   2.204  0.3288 -0.2481 -0.2314
 1050TIP3    H124785   4.988   5.887   2.144  1.3137  0.2175  0.0075
 1050TIP3    H224786   4.978   5.736   2.157 -0.0782  0.2225 -0.7871
 1051TIP3   OH224787   2.570   5.249   1.313  0.0795 -0.1611 -0.3398
 1051TIP3    H124788   2.549   5.304   1.238  2.6762 -0.0951 -1.1333
 1051TIP3    H224789   2.541   5.299   1.389 -0.2055  0.9996 -1.1900
 1052TIP3   OH224790   4.431   1.356   1.331 -0.1246  0.7221  0.4631
 1052TIP3    H124791   4.510   1.303   1.317 -1.4067 -0.5768 -2.9310
 1052TIP3    H224792   4.435   1.424   1.263 -1.2182  1.5252  1.1678
 1053TIP3   OH224793   1.688   6.081   2.376 -0.6421 -0.3771  0.0974
 1053TIP3    H124794   1.713   6.153   2.434 -2.1733  3.6590 -3.7008
 1053TIP3    H224795   1.768   6.059   2.328 -0.6783  0.6308 -0.4442
 1054TIP3   OH224796   3.198   3.759   8.167  0.5955  0.3719  0.2987
 1054TIP3    H124797   3.197   3.833   8.228  1.4515  0.6024  0.0432
 1054TIP3    H224798   3.266   3.781   8.104 -1.5124  1.0511 -1.9052
 1055TIP3   OH224799   6.496   4.577   0.894  0.6295  0.1773 -0.6541
 1055TIP3    H124800   6.580   4.545   0.926 -0.1751 -0.0306  1.3849
 1055TIP3    H224801   6.458   4.503   0.847 -0.0409 -1.0715  1.7182
 1056TIP3   OH224802   6.618   6.776   6.887 -0.9829 -0.6167 -0.3144
 1056TIP3    H124803   6.706   6.781   6.923  0.7882 -0.0570 -4.2614
 1056TIP3    H224804   6.603   6.683   6.872 -1.8763 -0.8932  1.8769
 1057TIP3   OH224805   1.051   6.470   7.865 -0.0320  0.5543  0.4741
 1057TIP3    H124806   1.058   6.469   7.770  0.7664 -0.8468  0.5237
 1057TIP3    H224807   0.956   6.470   7.882 -0.2292  2.8093 -0.2701
 1058TIP3   OH224808   6.518   0.220   0.671  0.3732  0.3926  0.4388
 1058TIP3    H124809   6.488   0.269   0.594  0.0438  0.9592  0.9226
 1058TIP3    H224810   6.479   0.266   0.745 -1.0656 -1.3469  0.8489
 1059TIP3   OH224811   4.169   3.278   0.070  0.5183 -0.1086 -0.0663
 1059TIP3    H124812   4.220   3.206   0.034  0.8386  0.6937 -1.2521
 1059TIP3    H224813   4.079   3.245   0.073  0.5128 -0.2664 -1.4471
 1060TIP3   OH224814   4.159   2.375   0.403 -0.3271  0.0248  0.1260
 1060TIP3    H124815   4.211   2.444   0.362 -1.3108  0.5267 -0.3320
 1060TIP3    H224816   4.192   2.294   0.366  0.1186  0.3310 -0.1514
 1061TIP3   OH224817   6.709   3.588   6.894  0.3787  0.2636  0.3300
 1061TIP3    H124818   6.626   3.608   6.937  1.1782 -0.1434  2.1719
 1061TIP3    H224819   6.776   3.621   6.955  1.5948 -1.0529 -0.2378
 1062TIP3   OH224820   6.747   5.028   2.300 -0.2305  0.1675  0.5805
 1062TIP3    H124821   6.756   4.979   2.381  4.0640 -0.7716 -0.2326
 1062TIP3    H224822   6.774   4.967   2.231 -0.0250  2.0619 -1.1185
 1063TIP3   OH224823   0.136   2.015   8.337  0.1682 -0.1714  0.0414
 1063TIP3    H124824   0.206   2.079   8.348 -0.6251  0.5491  1.0007
 1063TIP3    H224825   0.105   2.030   8.248 -0.0316  0.7995  0.2699
 1064TIP3   OH224826   2.962   0.659   7.214 -0.4273 -0.5501 -0.0038
 1064TIP3    H124827   3.049   0.627   7.235 -0.2108  0.5894  0.9660
 1064TIP3    H224828   2.951   0.736   7.270 -1.8457 -0.3640 -0.4992
 1065TIP3   OH224829   5.446   6.605   8.035 -0.4722 -0.0102  0.1367
 1065TIP3    H124830   5.389   6.590   8.110 -1.0481  1.1313 -0.0512
 1065TIP3    H224831   5.469   6.517   8.004 -0.9840 -0.4839  1.0691
 1066TIP3   OH224832   3.090   4.599   1.356 -0.3494  0.0714  0.2559
 1066TIP3    H124833   3.059   4.519   1.399 -1.1371  0.1135 -0.2069
 1066TIP3    H224834   3.183   4.583   1.339 -0.1265 -0.1335  1.5370
 1067TIP3   OH224835   5.602   5.045   8.174  0.3605 -0.0383 -0.3115
 1067TIP3    H124836   5.571   5.100   8.247  0.5347 -1.3203  0.7811
 1067TIP3    H224837   5.584   5.096   8.096 -0.6143  1.0506  0.5815
 1068TIP3   OH224838   3.859   2.917   1.988 -0.0582  0.1178 -0.1444
 1068TIP3    H124839   3.895   2.829   1.997  1.0092  0.6499  1.2203
 1068TIP3    H224840   3.930   2.968   1.949 -1.4702 -0.0706 -3.2518
 1069TIP3   OH224841   1.977   2.212   0.140  0.5355 -0.5618  0.0563
 1069TIP3    H124842   1.965   2.226   0.046 -1.0524 -0.1311  0.3120
 1069TIP3    H224843   1.907   2.152   0.165  0.4748 -0.0713  1.1195
 1070TIP3   OH224844   1.343   6.183   2.351 -0.0155  0.6076 -0.0324
 1070TIP3    H124845   1.266   6.207   2.403 -0.6655 -1.2875 -0.0310
 1070TIP3    H224846   1.417   6.208   2.406 -0.6583  1.2125  0.5824
 1071TIP3   OH224847   6.056   2.635   0.411 -0.6384 -0.7079 -0.1028
 1071TIP3    H124848   6.137   2.612   0.366  0.3332 -1.0783  1.7448
 1071TIP3    H224849   6.019   2.706   0.357  1.1697 -0.1564 -0.7152
 1072TIP3   OH224850   4.790   1.658   0.550  0.4573  0.1983 -0.5360
 1072TIP3    H124851   4.845   1.630   0.477 -0.0034 -0.7062 -0.5545
 1072TIP3    H224852   4.811   1.750   0.562  1.9452 -0.1089 -0.5635
 1073TIP3   OH224853   1.785   4.498   8.192 -0.1276  0.2532 -0.2664
 1073TIP3    H124854   1.739   4.415   8.203  0.8771 -0.1992  0.7494
 1073TIP3    H224855   1.771   4.521   8.100 -0.3377 -1.0956 -0.5981
 1074TIP3   OH224856   2.651   2.894   7.678  0.0262  0.5035  0.1548
 1074TIP3    H124857   2.720   2.837   7.644  0.6901 -2.0672  4.9664
 1074TIP3    H224858   2.696   2.965   7.723 -0.5967  0.8122  0.3157
 1075TIP3   OH224859   3.908   4.866   2.155  0.4584 -0.4215 -0.3257
 1075TIP3    H124860   3.967   4.940   2.140 -1.1351  0.9729 -0.0271
 1075TIP3    H224861   3.872   4.881   2.242 -0.4261 -1.1751 -0.5449
 1076TIP3   OH224862   5.268   1.144   8.179  0.1639  0.2825  0.1273
 1076TIP3    H124863   5.331   1.215   8.192  0.4071  0.4136 -1.4974
 1076TIP3    H224864   5.275   1.123   8.086 -3.5729  1.6188 -0.5992
 1077TIP3   OH224865   5.916   3.851   7.468  0.0968  0.0084 -0.0365
 1077TIP3    H124866   5.859   3.781   7.436 -0.3821 -0.1024  1.0173
 1077TIP3    H224867   6.004   3.827   7.438  0.0962 -1.5419  1.0917
 1078TIP3   OH224868   1.672   2.934   1.019  0.0998  0.2930 -0.1023
 1078TIP3    H124869   1.762   2.950   0.990 -0.6726  1.8049 -1.8486
 1078TIP3    H224870   1.644   2.858   0.968  0.2077  0.1465  0.0552
 1079TIP3   OH224871   0.373   1.244   2.400  0.2473 -0.7411 -0.0235
 1079TIP3    H124872   0.451   1.296   2.382 -0.0754 -0.4447 -0.6125
 1079TIP3    H224873   0.353   1.201   2.316 -0.1450 -0.9138  0.1550
 1080TIP3   OH224874   4.287   3.676   0.512  0.3738  0.1074 -0.5256
 1080TIP3    H124875   4.372   3.659   0.471  1.1635  2.4323 -0.0081
 1080TIP3    H224876   4.261   3.762   0.478 -2.4265 -1.0459 -1.6471
 1081TIP3   OH224877   4.879   3.981   2.309  0.2068  0.0667  0.2379
 1081TIP3    H124878   4.806   3.987   2.371  0.2918 -0.6757  0.4134
 1081TIP3    H224879   4.935   4.056   2.330 -0.4916  0.6316  0.1120
 1082TIP3   OH224880   5.968   3.673   6.884 -0.1393  0.3208  0.9940
 1082TIP3    H124881   5.908   3.716   6.823 -1.7350  0.0234  2.2567
 1082TIP3    H224882   5.943   3.580   6.881  0.5881  0.1155  1.1864
 1083TIP3   OH224883   6.099   2.526   0.059 -0.2369  0.0216  0.0216
 1083TIP3    H124884   6.125   2.554  -0.029  1.3285 -0.3940  0.3145
 1083TIP3    H224885   6.005   2.542   0.063  0.2094  3.4141 -0.4644
 1084TIP3   OH224886   6.446   1.363   0.808 -0.2430 -0.0424 -0.3039
 1084TIP3    H124887   6.472   1.286   0.860  0.1875  1.4697  1.8505
 1084TIP3    H224888   6.526   1.390   0.763 -0.2013 -0.3958 -0.4437
 1085TIP3   OH224889   5.084   0.791   0.154 -0.4791  0.0756 -0.5479
 1085TIP3    H124890   5.164   0.845   0.146 -1.2364  1.1300 -1.2963
 1085TIP3    H224891   5.018   0.839   0.103 -1.4716 -1.0240 -0.3251
 1086TIP3   OH224892   0.520   4.621   1.928  0.0193  0.0508 -0.4002
 1086TIP3    H124893   0.492   4.622   1.837 -0.5318  0.2057 -0.2335
 1086TIP3    H224894   0.503   4.532   1.958 -2.2039  0.6190  0.2590
 1087TIP3   OH224895   4.940   1.064   1.008 -0.3330 -0.1452 -0.3985
 1087TIP3    H124896   4.882   1.032   0.939 -2.5148 -2.2078  2.1518
 1087TIP3    H224897   5.028   1.058   0.971 -1.4480  0.0701 -3.3486
 1088TIP3   OH224898   0.993   4.372   2.216 -0.0668  0.9435 -0.0533
 1088TIP3    H124899   0.939   4.450   2.206 -0.7394  1.0716  3.4029
 1088TIP3    H224900   1.028   4.378   2.306 -0.2477 -2.7606  0.4194
 1089TIP3   OH224901   5.527   3.512   1.462 -0.5965 -0.2858 -0.8325
 1089TIP3    H124902   5.607   3.548   1.426 -0.5493  2.3059  1.5701
 1089TIP3    H224903   5.555   3.433   1.509  1.0055  1.5256  1.5068
 1090TIP3   OH224904   5.450   3.309   1.843  0.3883  0.0088  0.0973
 1090TIP3    H124905   5.460   3.349   1.930 -0.4817  0.9433 -0.2077
 1090TIP3    H224906   5.405   3.376   1.791 -2.3107 -1.7812 -0.1098
 1091TIP3   OH224907   4.795   1.924   1.775 -0.0491  0.5682 -0.2254
 1091TIP3    H124908   4.739   1.853   1.745  0.7915  0.3083 -1.2401
 1091TIP3    H224909   4.744   2.003   1.759 -0.7283  0.2456  0.3053
 1092TIP3   OH224910   1.528   1.320   6.909 -0.1529 -0.9100  0.4937
 1092TIP3    H124911   1.505   1.279   6.992 -0.6157 -0.2541  0.7022
 1092TIP3    H224912   1.445   1.354   6.876  0.2820  0.3012  0.5931
 1093TIP3   OH224913   0.172   0.474   2.128  0.0314 -0.4891 -0.1922
 1093TIP3    H124914   0.216   0.475   2.213 -1.8178 -0.0735  0.8304
 1093TIP3    H224915   0.079   0.470   2.150 -0.4987 -0.4128 -2.2186
 1094TIP3   OH224916   1.656   6.862   1.221  0.3447  0.0356  0.3361
 1094TIP3    H124917   1.594   6.799   1.260 -0.7134  0.4417 -0.6091
 1094TIP3    H224918   1.742   6.823   1.236 -0.1692 -0.8224  1.2222
 1095TIP3   OH224919   0.510   1.832   1.917 -0.6184  0.3153  0.7870
 1095TIP3    H124920   0.444   1.794   1.859 -0.1358 -0.4701  0.7360
 1095TIP3    H224921   0.479   1.813   2.005  0.6850 -2.2635  0.8077
 1096TIP3   OH224922   0.685   2.306   0.075 -0.6348 -0.5219 -0.0273
 1096TIP3    H124923   0.632   2.237   0.115  0.7212 -0.5398  1.9168
 1096TIP3    H224924   0.667   2.383   0.128 -2.0602  0.6704 -2.1168
 1097TIP3   OH224925   0.520   1.153   1.042  0.5524 -0.0731 -0.3279
 1097TIP3    H124926   0.483   1.242   1.041 -0.9441 -0.6694 -0.8715
 1097TIP3    H224927   0.570   1.149   1.123  2.2062  1.8599 -1.1737
 1098TIP3   OH224928   5.190   6.602   2.029 -0.8047 -0.0162  0.4835
 1098TIP3    H124929   5.119   6.617   2.092 -0.3241  1.9602  0.6320
 1098TIP3    H224930   5.222   6.690   2.009  2.1966 -0.8720  1.0894
 1099TIP3   OH224931   1.993   4.898   1.193  0.2803 -0.6476 -0.4558
 1099TIP3    H124932   1.986   4.838   1.118 -0.3775 -1.0439 -0.0903
 1099TIP3    H224933   1.904   4.928   1.208  0.6270  0.5748 -0.7346
 1100TIP3   OH224934   4.720   2.339   2.156  0.3791  0.0791  0.3221
 1100TIP3    H124935   4.636   2.343   2.110 -0.7103 -0.5278  2.1723
 1100TIP3    H224936   4.756   2.254   2.132 -0.0032 -0.0855  0.3305
 1101TIP3   OH224937   0.428   5.244   7.799 -0.0279  0.1745  0.0211
 1101TIP3    H124938   0.444   5.277   7.711  1.7053  1.1333  0.6366
 1101TIP3    H224939   0.452   5.317   7.857  1.4885 -1.2653  1.3557
 1102TIP3   OH224940   3.965   4.099   8.204 -0.2299 -0.1709 -0.3988
 1102TIP3    H124941   3.938   4.141   8.286 -1.0624  0.6110 -1.0520
 1102TIP3    H224942   4.034   4.156   8.170  0.0080 -0.4150 -0.3398
 1103TIP3   OH224943   4.433   6.022   0.957 -0.3829  0.3999 -0.1710
 1103TIP3    H124944   4.443   5.987   1.045 -1.9355 -0.5635 -0.3446
 1103TIP3    H224945   4.341   6.006   0.935 -0.6864  2.8868 -1.0217
 1104TIP3   OH224946   2.009   6.545   0.813  0.8126  0.5868 -0.0724
 1104TIP3    H124947   1.965   6.630   0.822  1.3410  0.9371 -0.7035
 1104TIP3    H224948   1.955   6.485   0.865 -1.2842  0.6998 -1.9343
 1105TIP3   OH224949   3.870   3.664   2.071 -0.4784  0.1495  1.2616
 1105TIP3    H124950   3.816   3.659   2.151 -3.0407 -2.0126 -0.3998
 1105TIP3    H224951   3.807   3.683   2.001  1.5037  0.8824 -0.4129
 1106TIP3   OH224952   3.707   0.134   7.203  0.6969  0.0134 -0.7917
 1106TIP3    H124953   3.776   0.137   7.137  0.8247  1.7204 -0.6200
 1106TIP3    H224954   3.719   0.213   7.255 -0.8094 -0.1333 -0.1474
 1107TIP3   OH224955   0.181   4.306   6.900 -0.6384 -0.1618 -0.0039
 1107TIP3    H124956   0.090   4.328   6.918 -0.3389  0.3747  0.9453
 1107TIP3    H224957   0.179   4.263   6.815 -1.8190 -0.4722  0.1619
 1108TIP3   OH224958   0.388   0.327   7.682  0.6561  0.2084  0.0774
 1108TIP3    H124959   0.399   0.234   7.697 -0.6450 -0.3057 -1.7823
 1108TIP3    H224960   0.419   0.341   7.592  1.7625  1.7676  0.6514
 1109TIP3   OH224961   3.454   2.386   1.505  0.3417  0.2180  0.3435
 1109TIP3    H124962   3.547   2.366   1.497  0.2617  0.0754 -0.2406
 1109TIP3    H224963   3.435   2.442   1.430  0.0349  0.5417  0.6590
 1110TIP3   OH224964   2.124   2.663   1.240  0.0096  0.0135 -0.0046
 1110TIP3    H124965   2.131   2.568   1.232 -0.8161 -0.0059 -0.5690
 1110TIP3    H224966   2.062   2.689   1.172  0.8814  1.0618 -0.4232
 1111TIP3   OH224967   5.176   3.722   8.158  0.8512 -0.0099  0.5108
 1111TIP3    H124968   5.122   3.731   8.237 -0.3185 -2.9391  0.1374
 1111TIP3    H224969   5.114   3.732   8.085  1.0877 -1.5829  0.0583
 1112TIP3   OH224970   1.034   6.537   7.005 -0.0076 -0.1752 -0.1739
 1112TIP3    H124971   1.013   6.565   7.094  0.3572  2.2178 -0.7637
 1112TIP3    H224972   1.045   6.619   6.956 -0.2019 -1.4097 -2.4328
 1113TIP3   OH224973   2.206   1.615   7.102  0.4561 -0.6315  0.0348
 1113TIP3    H124974   2.162   1.647   7.024  2.1180  0.4245 -0.5265
 1113TIP3    H224975   2.192   1.684   7.167 -0.0592 -1.0390  0.3648
 1114TIP3   OH224976   0.479   2.890   2.808 -0.3019 -0.6128 -0.0249
 1114TIP3    H124977   0.522   2.972   2.783  1.0895 -0.7271  1.7982
 1114TIP3    H224978   0.387   2.914   2.819 -0.4362  0.0660 -2.1382
 1115TIP3   OH224979   2.846   5.060   0.509 -0.3706 -0.1091 -0.4290
 1115TIP3    H124980   2.840   4.999   0.582 -1.9530  1.7594  1.1272
 1115TIP3    H224981   2.878   5.141   0.549  0.8586  0.3798 -2.2689
 1116TIP3   OH224982   1.444   0.634   0.331  0.0189  0.2769  0.2836
 1116TIP3    H124983   1.444   0.547   0.291  0.9655  1.3094 -2.1096
 1116TIP3    H224984   1.473   0.618   0.421  0.1242 -1.8880 -0.0771
 1117TIP3   OH224985   6.751   2.896   8.222 -0.0882 -0.2278 -0.0316
 1117TIP3    H124986   6.660   2.918   8.241 -0.2155 -0.5528 -0.2460
 1117TIP3    H224987   6.753   2.880   8.128  0.2287 -0.0512 -0.0564
 1118TIP3   OH224988   6.281   6.764   6.992 -0.6113 -0.0249 -0.7420
 1118TIP3    H124989   6.294   6.805   6.906 -1.0792 -1.9528 -1.8036
 1118TIP3    H224990   6.358   6.789   7.043 -0.2942  1.1132 -1.7316
 1119TIP3   OH224991   5.639   0.474   0.797 -0.3149 -0.4056 -0.0301
 1119TIP3    H124992   5.715   0.433   0.838 -0.4494 -0.3217  0.3077
 1119TIP3    H224993   5.572   0.473   0.865 -0.2369  0.6060  0.0704
 1120TIP3   OH224994   6.352   5.067   0.365 -0.1393 -0.2071 -0.8219
 1120TIP3    H124995   6.378   5.137   0.306 -1.0820 -0.1668 -1.2095
 1120TIP3    H224996   6.347   5.109   0.451  2.0563 -0.4541 -0.5262
 1121TIP3   OH224997   1.632   0.539   2.093  0.6157  0.2895  0.1449
 1121TIP3    H124998   1.554   0.590   2.116 -0.1533  0.2531 -2.1839
 1121TIP3    H224999   1.698   0.604   2.070  0.6917  0.2902  0.3650
 1122TIP3   OH225000   2.652   5.315   7.970  0.2823  0.3214 -0.4075
 1122TIP3    H125001   2.748   5.310   7.962  0.1894 -0.0785 -1.5484
 1122TIP3    H225002   2.625   5.367   7.894 -0.3360  1.3998  0.5336
 1123TIP3   OH225003   1.132   6.062   7.041  0.5552  0.0591 -0.4591
 1123TIP3    H125004   1.038   6.064   7.027  0.2431 -0.6060  1.3385
 1123TIP3    H225005   1.153   6.149   7.075  0.6279  0.2704 -1.0390
 1124TIP3   OH225006   5.322   0.224   6.989  0.3047  0.0100  0.1692
 1124TIP3    H125007   5.282   0.216   6.902 -1.1741 -0.9121  0.8855
 1124TIP3    H225008   5.391   0.289   6.978 -1.6704  2.0335 -1.0774
 1125TIP3   OH225009   6.469   2.796   7.781  0.1406 -0.2738 -0.0643
 1125TIP3    H125010   6.428   2.868   7.829  0.4712 -0.8008  1.0557
 1125TIP3    H225011   6.410   2.780   7.707 -0.6194  0.2925  0.4010
 1126TIP3   OH225012   0.231   6.317   7.697  0.5347 -0.0837  0.6650
 1126TIP3    H125013   0.234   6.242   7.637  3.4662 -0.2783  0.9178
 1126TIP3    H225014   0.263   6.284   7.780  0.1214  1.0401  1.2994
 1127TIP3   OH225015   5.810   2.437   7.697 -0.1943 -0.0512  0.1672
 1127TIP3    H125016   5.840   2.372   7.633  1.2285  1.0869 -0.3649
 1127TIP3    H225017   5.828   2.397   7.782  0.4614 -0.4395 -0.1475
 1128TIP3   OH225018   4.308   0.864   1.458  0.3702 -0.3660  0.3657
 1128TIP3    H125019   4.395   0.825   1.464  0.8769  0.8844  2.2032
 1128TIP3    H225020   4.323   0.952   1.426 -0.3761 -0.5369 -0.4832
 1129TIP3   OH225021   0.311   5.498   1.694 -0.0039  0.0406 -0.0234
 1129TIP3    H125022   0.285   5.407   1.709 -0.3242  0.1223 -0.0682
 1129TIP3    H225023   0.229   5.544   1.678  0.2569  0.0337 -1.5954
 1130TIP3   OH225024   5.872   1.339   1.883 -0.0076  0.0774  0.1541
 1130TIP3    H125025   5.910   1.293   1.958 -0.2468 -1.8819 -0.8766
 1130TIP3    H225026   5.856   1.428   1.916  2.6508  0.1695  1.5244
 1131TIP3   OH225027   3.377   5.847   8.166 -0.3497 -0.2195 -0.0978
 1131TIP3    H125028   3.292   5.876   8.132 -0.5420 -0.4460  0.1893
 1131TIP3    H225029   3.394   5.904   8.241  0.1141  0.3357 -0.6164
 1132TIP3   OH225030   2.950   1.826   7.580  0.3441  0.4270 -0.2186
 1132TIP3    H125031   2.892   1.757   7.547 -0.3980  0.8968  0.0841
 1132TIP3    H225032   2.940   1.897   7.516  1.2729  0.1892 -0.6493
 1133TIP3   OH225033   1.011   0.520   1.155 -0.3580 -0.2739 -0.1509
 1133TIP3    H125034   0.941   0.583   1.171 -0.6232 -0.4034 -0.7539
 1133TIP3    H225035   0.988   0.480   1.071  0.5062 -0.2286 -0.4167
 1134TIP3   OH225036   6.367   4.621   7.870  0.6186  0.0783 -0.4266
 1134TIP3    H125037   6.443   4.676   7.884  0.8476  0.2591 -2.1033
 1134TIP3    H225038   6.343   4.636   7.778 -0.8885 -0.6540 -0.1925
 1135TIP3   OH225039   3.432   0.683   8.114 -0.0304 -0.1150  0.3313
 1135TIP3    H125040   3.447   0.711   8.204  1.6377  0.6048 -0.1355
 1135TIP3    H225041   3.439   0.588   8.117 -1.1870 -0.1977  1.1422
 1136TIP3   OH225042   4.500   5.354   2.805 -0.4965 -0.0673  0.3323
 1136TIP3    H125043   4.468   5.440   2.834 -0.1492 -0.1471  0.9782
 1136TIP3    H225044   4.426   5.295   2.817 -0.3539 -0.1042  1.1076
 1137TIP3   OH225045   2.096   3.069   0.895  0.0546 -0.0220  0.0684
 1137TIP3    H125046   2.028   3.015   0.854 -0.8702  1.8099 -0.9552
 1137TIP3    H225047   2.061   3.091   0.981 -1.1630  1.6335 -0.7719
 1138TIP3   OH225048   1.191   2.886   7.527 -0.2146  0.0915 -0.7220
 1138TIP3    H125049   1.172   2.796   7.555  1.3895 -0.6431 -1.8353
 1138TIP3    H225050   1.180   2.884   7.432  0.0444  1.0393 -0.7793
 1139TIP3   OH225051   4.985   5.978   2.428  0.0742  0.2589 -0.2105
 1139TIP3    H125052   5.012   5.927   2.352  1.5116 -1.4534  1.3433
 1139TIP3    H225053   5.044   5.950   2.498 -0.1566  2.8753  1.1865
 1140TIP3   OH225054   5.152   6.059   1.756  0.3772  0.3844 -0.6568
 1140TIP3    H125055   5.236   6.078   1.715  1.2503 -2.6151 -0.4775
 1140TIP3    H225056   5.088   6.079   1.688  1.5519 -0.9115 -2.2286
 1141TIP3   OH225057   2.222   6.846   7.957  0.2214 -0.4891 -0.4655
 1141TIP3    H125058   2.144   6.889   7.992  0.5329  1.3420 -1.8643
 1141TIP3    H225059   2.200   6.827   7.866  0.8497 -1.4201 -0.4316
 1142TIP3   OH225060   1.065   5.346   7.667 -0.1049 -0.1963  0.4404
 1142TIP3    H125061   1.104   5.352   7.754  0.8402 -0.4446  0.0439
 1142TIP3    H225062   0.995   5.282   7.677  0.6426 -0.9799  0.8044
 1143TIP3   OH225063   1.792   0.951   7.702 -0.4128  0.5524 -0.5000
 1143TIP3    H125064   1.885   0.966   7.683 -0.1348 -0.6998 -0.2420
 1143TIP3    H225065   1.778   0.991   7.787  0.4045 -0.9407  0.3778
 1144TIP3   OH225066   5.993   1.816   7.396 -0.0500  0.0322 -0.4672
 1144TIP3    H125067   5.933   1.812   7.322  0.3091 -0.4804 -0.7391
 1144TIP3    H225068   5.985   1.731   7.438  1.0040 -0.3201 -0.9360
 1145TIP3   OH225069   1.738   4.062   0.300  0.7295 -0.2808  0.2573
 1145TIP3    H125070   1.821   4.035   0.339  0.2925 -1.9436  0.1237
 1145TIP3    H225071   1.758   4.143   0.254  1.9962 -0.0127  1.2116
 1146TIP3   OH225072   5.053   3.569   7.637  0.4886 -0.5349  0.1957
 1146TIP3    H125073   5.137   3.575   7.592  0.8005 -0.0290  0.8358
 1146TIP3    H225074   4.990   3.605   7.575  0.7229 -1.0275 -0.3335
 1147TIP3   OH225075   2.394   5.140   2.169 -0.5572 -0.0364  0.7810
 1147TIP3    H125076   2.303   5.116   2.155 -1.0623  2.1442  0.0057
 1147TIP3    H225077   2.393   5.235   2.184  1.6592  0.2427 -0.2954
 1148TIP3   OH225078   2.651   5.272   6.857 -0.2282 -0.8786  0.5487
 1148TIP3    H125079   2.579   5.219   6.891 -0.5988 -0.2458  0.7767
 1148TIP3    H225080   2.638   5.358   6.898 -1.5620  0.3733 -2.2054
 1149TIP3   OH225081   2.194   2.818   1.903 -0.6036 -0.0866 -0.4683
 1149TIP3    H125082   2.290   2.825   1.902 -0.6513  0.7102 -0.3892
 1149TIP3    H225083   2.174   2.766   1.981 -0.3107  1.3739  0.6256
 1150TIP3   OH225084   2.972   5.851   1.337  0.4503  0.5555  0.4958
 1150TIP3    H125085   2.970   5.788   1.410 -0.2683  0.2393  0.2177
 1150TIP3    H225086   3.058   5.892   1.342  1.3615 -1.2077  0.0544
 1151TIP3   OH225087   1.192   6.213   0.321 -0.0475  0.6051 -0.2671
 1151TIP3    H125088   1.259   6.265   0.365 -0.8734 -0.1805  2.0616
 1151TIP3    H225089   1.223   6.206   0.231  2.6692  0.8263  0.5513
 1152TIP3   OH225090   2.414   3.920   7.094  0.1543 -0.5452  0.6556
 1152TIP3    H125091   2.392   3.977   7.020 -1.3087 -2.0626 -0.1509
 1152TIP3    H225092   2.441   3.838   7.054 -0.3519 -1.2889  1.7906
 1153TIP3   OH225093   5.483   4.662   2.472 -0.3172 -0.4938 -0.1133
 1153TIP3    H125094   5.480   4.749   2.512 -1.4733 -0.2029 -0.7718
 1153TIP3    H225095   5.567   4.660   2.427  0.6647 -0.5430  1.6538
 1154TIP3   OH225096   2.435   3.756   2.352  0.1865 -0.3000  0.0255
 1154TIP3    H125097   2.343   3.731   2.343  0.3356 -0.7641 -0.2835
 1154TIP3    H225098   2.438   3.811   2.431 -0.4776  0.3786 -0.4127
 1155TIP3   OH225099   5.718   0.789   0.916 -0.0723 -0.0271  0.5478
 1155TIP3    H125100   5.629   0.768   0.889  0.6169 -1.4238 -0.8799
 1155TIP3    H225101   5.711   0.814   1.008 -1.7444 -1.5989  0.9061
 1156TIP3   OH225102   4.422   5.372   1.277 -0.0085 -0.6128 -0.1609
 1156TIP3    H125103   4.456   5.375   1.366 -0.0651 -2.2114 -0.0480
 1156TIP3    H225104   4.361   5.445   1.272 -0.1333 -0.5969  1.1755
 1157TIP3   OH225105   5.167   2.879   0.720  0.4944  0.4111 -0.3795
 1157TIP3    H125106   5.249   2.928   0.711  1.0806 -0.2128  1.1640
 1157TIP3    H225107   5.130   2.912   0.802  0.0734 -0.5585 -0.1758
 1158TIP3   OH225108   1.032   6.811   1.453  0.2969  0.0261 -0.0354
 1158TIP3    H125109   1.061   6.804   1.361  0.1623  0.1790 -0.0893
 1158TIP3    H225110   1.097   6.868   1.494  1.1453 -1.1411  0.2988
 1159TIP3   OH225111   1.529   0.044   1.485  0.0714  0.9541 -0.0970
 1159TIP3    H125112   1.458   0.108   1.490 -1.3696 -0.6017  0.2668
 1159TIP3    H225113   1.487  -0.036   1.454  1.8745  0.2396 -0.8182
 1160TIP3   OH225114   5.426   3.247   1.253  0.0112  0.5419 -0.1863
 1160TIP3    H125115   5.359   3.315   1.245  0.3387  0.9438  0.3591
 1160TIP3    H225116   5.500   3.292   1.294  0.6776  0.1489 -0.9183
 1161TIP3   OH225117   1.996   0.526   7.519  0.0332  0.4810 -0.0585
 1161TIP3    H125118   2.027   0.615   7.539 -2.1836  1.6897 -1.5266
 1161TIP3    H225119   2.021   0.512   7.428 -0.6838  0.1138 -0.2078
 1162TIP3   OH225120   1.775   0.534   7.710  0.0787  0.1284  0.8266
 1162TIP3    H125121   1.699   0.528   7.653  1.3109 -2.1652 -0.6947
 1162TIP3    H225122   1.844   0.572   7.656  0.3809  1.0598  1.8223
 1163TIP3   OH225123   2.783   0.559   7.460  0.6314  0.0804 -0.5119
 1163TIP3    H125124   2.760   0.651   7.454  0.4024 -0.0141 -1.0644
 1163TIP3    H225125   2.826   0.538   7.377  2.1243  0.0823  0.2229
 1164TIP3   OH225126   6.766   3.985   7.485  0.3844 -0.4447  0.7290
 1164TIP3    H125127   6.702   3.947   7.425  0.2477 -0.8925  1.1587
 1164TIP3    H225128   6.792   3.913   7.542  1.3427 -0.2981  0.5056
 1165TIP3   OH225129   2.617   0.347   0.003  0.2782 -0.4669  0.0411
 1165TIP3    H125130   2.707   0.354  -0.029  0.6488 -1.7255  0.7352
 1165TIP3    H225131   2.626   0.337   0.098 -0.7471  2.1831  0.5023
 1166TIP3   OH225132   6.364   1.238   7.417 -0.6612  1.1767 -0.6064
 1166TIP3    H125133   6.392   1.197   7.335  2.6955  0.5965  0.6406
 1166TIP3    H225134   6.337   1.165   7.473  1.4129  0.9879  0.2393
 1167TIP3   OH225135   4.931   2.208   7.185 -0.6121  0.0202 -0.5343
 1167TIP3    H125136   4.961   2.157   7.260  0.8439  0.3796 -0.8472
 1167TIP3    H225137   4.960   2.298   7.204  0.3769  0.0035 -1.8016
 1168TIP3   OH225138   5.496   4.701   6.838 -0.0075 -0.4903 -0.0074
 1168TIP3    H125139   5.405   4.671   6.844  0.3603 -1.6330  0.1597
 1168TIP3    H225140   5.501   4.776   6.897 -1.0995  0.2842 -0.8627
 1169TIP3   OH225141   5.098   6.169   7.444 -0.2666  0.0197 -0.2019
 1169TIP3    H125142   5.079   6.084   7.405 -0.3928  0.2169 -0.5730
 1169TIP3    H225143   5.019   6.192   7.493  0.4292 -0.9153  1.4356
 1170TIP3   OH225144   2.151   3.642   2.754 -0.0415 -0.3042  0.0082
 1170TIP3    H125145   2.071   3.617   2.708  1.7690 -2.9883 -2.0602
 1170TIP3    H225146   2.157   3.581   2.828  1.2727 -1.9480 -1.3684
 1171TIP3   OH225147   0.251   0.416   0.604  0.4391 -0.0597  0.5920
 1171TIP3    H125148   0.296   0.500   0.598  1.1844 -0.3198  2.1569
 1171TIP3    H225149   0.231   0.394   0.513  0.3642  1.7175  0.1324
 1172TIP3   OH225150   5.421   0.603   8.157 -0.3337 -0.0098 -0.0705
 1172TIP3    H125151   5.483   0.611   8.230 -0.3545  0.4335 -0.1009
 1172TIP3    H225152   5.437   0.515   8.122  0.7519  0.3554 -0.5139
 1173TIP3   OH225153   6.227   5.433   8.034  0.9332  0.2564 -0.6620
 1173TIP3    H125154   6.214   5.404   8.125 -0.5264  0.1620 -0.8734
 1173TIP3    H225155   6.308   5.389   8.006  1.8299  0.9025  0.8223
 1174TIP3   OH225156   6.188   6.103   1.294  0.2361 -0.3120 -0.1690
 1174TIP3    H125157   6.267   6.055   1.317  1.0630  0.4890 -1.2088
 1174TIP3    H225158   6.216   6.195   1.292 -0.7703 -0.0017 -0.3658
 1175TIP3   OH225159   4.634   5.627   1.208  0.2081  0.4520 -0.1031
 1175TIP3    H125160   4.708   5.687   1.199 -1.0386  2.1975  0.8124
 1175TIP3    H225161   4.639   5.596   1.299  0.3097 -0.1301 -0.3018
 1176TIP3   OH225162   5.968   5.404   0.133  0.2242  0.3979 -0.0543
 1176TIP3    H125163   5.987   5.320   0.173 -0.1157  1.0812  1.6150
 1176TIP3    H225164   5.891   5.388   0.078  1.2549 -0.7603 -1.1977
 1177TIP3   OH225165   1.444   5.834   2.106 -0.5539 -0.3878 -0.0404
 1177TIP3    H125166   1.356   5.813   2.137  0.2330 -0.3568  2.4026
 1177TIP3    H225167   1.453   5.928   2.121  0.5925 -0.7412  1.7786
 1178TIP3   OH225168   6.764   0.820   3.001  0.2607  0.3853  0.0269
 1178TIP3    H125169   6.736   0.759   2.933  0.4379  0.9229 -0.5379
 1178TIP3    H225170   6.854   0.844   2.976 -0.0982  1.5223 -0.2410
 1179TIP3   OH225171   4.964   0.182   6.541 -0.3135  0.3748 -0.4080
 1179TIP3    H125172   4.875   0.218   6.537 -0.8780 -1.0460 -1.2341
 1179TIP3    H225173   4.964   0.127   6.619  0.7367  2.5048  1.2054
 1180TIP3   OH225174   5.898   0.598   2.446 -0.3162 -0.3430  0.0545
 1180TIP3    H125175   5.917   0.563   2.358 -0.0571  1.0231 -0.4587
 1180TIP3    H225176   5.841   0.533   2.486  2.7556 -3.0624  0.4340
 1181TIP3   OH225177   2.898   0.408   0.025  0.2862  0.7295 -0.0405
 1181TIP3    H125178   2.971   0.405  -0.037 -1.6871  2.4878 -2.6633
 1181TIP3    H225179   2.861   0.496   0.015 -2.4792 -0.2233  0.8036
 1182TIP3   OH225180   1.572   5.346   3.117 -0.4077  0.1446  0.3315
 1182TIP3    H125181   1.509   5.275   3.104  0.3867 -0.6042  0.4294
 1182TIP3    H225182   1.545   5.414   3.055 -0.2583 -0.9082 -0.9479
 1183TIP3   OH225183   4.602   1.427   8.130 -0.5179 -0.4919  0.4179
 1183TIP3    H125184   4.656   1.413   8.053 -1.8574 -1.0842 -0.4527
 1183TIP3    H225185   4.512   1.424   8.097 -1.1235 -0.8366  2.0137
 1184TIP3   OH225186   1.486   3.415   1.928  0.1571  0.6914  0.1435
 1184TIP3    H125187   1.484   3.473   2.004  0.5828  0.4168  0.3641
 1184TIP3    H225188   1.397   3.420   1.892  0.0401  1.0603  0.4760
 1185TIP3   OH225189   2.026   2.215   8.203  0.2639  0.3268  0.2102
 1185TIP3    H125190   1.984   2.281   8.149  2.0867  0.7365 -0.7854
 1185TIP3    H225191   1.960   2.147   8.213 -0.4963  0.7268 -1.6534
 1186TIP3   OH225192   3.965   1.394   1.972 -0.1033 -0.1483 -0.0040
 1186TIP3    H125193   3.991   1.481   1.940 -0.9523  1.2068  2.7131
 1186TIP3    H225194   3.938   1.347   1.893 -3.3238  3.3657 -1.3058
 1187TIP3   OH225195   3.035   0.479   7.723  0.4359  0.4786  0.0714
 1187TIP3    H125196   3.085   0.497   7.643 -0.5113 -0.4703 -0.7548
 1187TIP3    H225197   3.031   0.563   7.769  1.0405  1.0187 -0.8448
 1188TIP3   OH225198   2.198   0.881   1.754  0.4136 -0.3479 -0.5987
 1188TIP3    H125199   2.264   0.859   1.820  0.2574  2.3012  0.5968
 1188TIP3    H225200   2.208   0.976   1.742 -2.9582  0.1376 -0.5283
 1189TIP3   OH225201   6.191   1.786   7.936 -0.3267  0.1007 -0.0516
 1189TIP3    H125202   6.164   1.804   8.026  2.1441 -0.8518  0.9703
 1189TIP3    H225203   6.128   1.722   7.904 -0.8463 -0.0737  1.2688
 1190TIP3   OH225204   5.723   0.466   7.933 -0.1636  0.0289 -0.1250
 1190TIP3    H125205   5.690   0.415   8.006 -1.1126  0.4424 -0.2524
 1190TIP3    H225206   5.764   0.543   7.973 -0.5655  0.1893 -0.0153
 1191TIP3   OH225207   2.194   3.905   0.752  0.1276 -0.2591  0.0719
 1191TIP3    H125208   2.113   3.952   0.732 -0.9491 -1.4504  1.4192
 1191TIP3    H225209   2.189   3.888   0.846  0.7834 -2.4606 -0.2426
 1192TIP3   OH225210   0.206   6.988   8.074 -0.4248  0.1793 -0.7849
 1192TIP3    H125211   0.119   7.007   8.039 -0.0960 -0.0757 -1.7596
 1192TIP3    H225212   0.238   7.072   8.107 -1.3613  0.1177  0.3520
 1193TIP3   OH225213   6.017   4.931   7.917 -0.1702  0.0594 -0.0710
 1193TIP3    H125214   6.104   4.917   7.955 -0.4227  1.5058  1.1107
 1193TIP3    H225215   6.031   4.997   7.849 -0.1560 -0.6647 -0.7960
 1194TIP3   OH225216   5.086   0.182   2.828 -0.1889 -0.0991 -0.1116
 1194TIP3    H125217   5.173   0.212   2.800  0.2984 -1.0218  0.3671
 1194TIP3    H225218   5.053   0.130   2.755 -0.1945 -0.0279 -0.1599
 1195TIP3   OH225219   6.064   4.060   1.529  0.2404 -0.0643 -0.4905
 1195TIP3    H125220   5.987   4.006   1.547  0.1869  0.4089  0.7708
 1195TIP3    H225221   6.085   4.101   1.613  1.9459 -0.2836 -0.7625
 1196TIP3   OH225222   0.084   3.332   0.906  0.1041 -0.2162 -0.2287
 1196TIP3    H125223   0.134   3.384   0.968  0.1445 -0.2383 -0.2426
 1196TIP3    H225224   0.134   3.251   0.897  0.8378  0.3318 -1.3397
 1197TIP3   OH225225   5.644   5.813   8.070 -0.1708 -0.0661  0.0104
 1197TIP3    H125226   5.694   5.841   8.147 -0.1937 -0.6404  0.2349
 1197TIP3    H225227   5.668   5.877   8.003  0.2133  0.1645  0.3544
 1198TIP3   OH225228   6.040   5.115   7.536  0.0872 -0.2305 -0.4389
 1198TIP3    H125229   6.122   5.100   7.488  0.8416  0.3601  0.6117
 1198TIP3    H225230   5.977   5.141   7.470  1.4624  1.9988 -0.9787
 1199TIP3   OH225231   2.497   1.985   0.111 -0.7000  0.5766  0.2736
 1199TIP3    H125232   2.460   1.986   0.199  0.3497 -0.3439  0.7449
 1199TIP3    H225233   2.558   2.058   0.110  2.5656 -1.8794  1.8425
 1200TIP3   OH225234   3.334   4.397   7.646  0.5887 -0.4170  0.5276
 1200TIP3    H125235   3.285   4.456   7.704  1.6669 -0.1747  1.2215
 1200TIP3    H225236   3.267   4.353   7.595 -0.5461 -1.6696  2.9083
 1201TIP3   OH225237   3.503   1.487   8.153  0.3735  0.2194  0.6755
 1201TIP3    H125238   3.486   1.448   8.239  1.6498  1.3920  1.5208
 1201TIP3    H225239   3.598   1.481   8.143  0.2728  0.3941 -0.5152
 1202TIP3   OH225240   5.558   0.462   7.279 -0.2294 -0.1966 -0.6589
 1202TIP3    H125241   5.488   0.511   7.236 -1.0946 -0.2918  0.5918
 1202TIP3    H225242   5.566   0.382   7.227 -1.0465 -0.1801 -0.8243
 1203TIP3   OH225243   2.070   5.776   7.273 -0.0088 -0.3463  0.3061
 1203TIP3    H125244   1.991   5.724   7.258 -0.7545  0.4412  1.3934
 1203TIP3    H225245   2.049   5.863   7.239 -0.9637  0.8794  3.6328
 1204TIP3   OH225246   3.719   4.636   7.430  0.4397 -0.5152  0.3021
 1204TIP3    H125247   3.745   4.576   7.500 -0.6284 -0.4265  0.8078
 1204TIP3    H225248   3.624   4.622   7.422  0.5821 -0.7170 -1.3256
 1205TIP3   OH225249   6.307   3.986   2.439 -0.7755 -0.0566 -0.2426
 1205TIP3    H125250   6.370   4.012   2.507 -0.3262  1.1310 -1.0892
 1205TIP3    H225251   6.226   4.032   2.463 -0.7798 -0.0873 -0.1977
 1206TIP3   OH225252   4.943   1.655   1.581 -0.1580 -0.3343 -0.5258
 1206TIP3    H125253   5.033   1.626   1.570  0.2704  0.0796  1.5447
 1206TIP3    H225254   4.910   1.607   1.656 -1.1633  0.6131 -0.3239
 1207TIP3   OH225255   4.661   1.747   2.774  0.1069 -0.1170 -0.3550
 1207TIP3    H125256   4.684   1.662   2.811  0.2609  0.0433 -0.0816
 1207TIP3    H225257   4.571   1.762   2.802 -0.1049 -0.4368 -0.8582
 1208TIP3   OH225258   1.358   2.455   0.445  0.2794  0.5863 -0.3065
 1208TIP3    H125259   1.300   2.437   0.371 -0.2456  0.2776  0.1703
 1208TIP3    H225260   1.299   2.478   0.517  0.7391  0.2493  0.1939
 1209TIP3   OH225261   1.375   6.303   1.457  0.7044 -0.0081 -0.0770
 1209TIP3    H125262   1.427   6.236   1.502  0.2566  0.0889  0.5833
 1209TIP3    H225263   1.321   6.342   1.525 -2.8887 -2.4853 -1.2573
 1210TIP3   OH225264   5.484   3.879   1.430 -0.6995 -0.0764 -0.4634
 1210TIP3    H125265   5.569   3.911   1.462 -0.8234 -1.1232  1.0281
 1210TIP3    H225266   5.426   3.956   1.436 -0.4186  0.0638  0.7810
 1211TIP3   OH225267   3.473   0.680   7.171 -0.3023  0.0548  0.0308
 1211TIP3    H125268   3.442   0.752   7.116  1.1726  1.0940  0.5101
 1211TIP3    H225269   3.491   0.720   7.256  2.6373 -0.3456 -0.2875
 1212TIP3   OH225270   4.628   6.575   7.702 -0.3074 -0.0785 -0.4558
 1212TIP3    H125271   4.650   6.651   7.755 -1.2974 -0.1362  0.0570
 1212TIP3    H225272   4.621   6.503   7.765 -1.1021 -0.2312 -0.7125
 1213TIP3   OH225273   6.297   2.198   2.012  0.2125  0.5777  0.7994
 1213TIP3    H125274   6.349   2.265   2.056 -0.0897  0.0153  2.0543
 1213TIP3    H225275   6.206   2.228   2.020  0.1173  0.2608  0.9417
 1214TIP3   OH225276   6.384   6.277   1.753 -0.1228  0.6907 -0.2498
 1214TIP3    H125277   6.329   6.199   1.741  0.9983 -0.1978  0.2221
 1214TIP3    H225278   6.422   6.266   1.840  1.1276  1.0828 -0.7317
 1215TIP3   OH225279   4.738   4.736   0.668  0.2419 -0.1170 -0.0427
 1215TIP3    H125280   4.772   4.769   0.585 -0.4290 -0.7188 -0.5665
 1215TIP3    H225281   4.699   4.651   0.646  1.9841 -1.3362  1.2780
 1216TIP3   OH225282   4.230   4.126   7.723 -0.7603  0.2846  0.1382
 1216TIP3    H125283   4.155   4.107   7.780 -1.4472  0.3884 -0.7014
 1216TIP3    H225284   4.305   4.087   7.767 -1.3323  0.0648  0.9343
 1217TIP3   OH225285   5.842   0.920   6.427 -0.1162 -0.3150 -0.4991
 1217TIP3    H125286   5.865   1.011   6.440  2.3074 -0.8445 -0.6395
 1217TIP3    H225287   5.747   0.920   6.419 -0.2620  2.0432  0.5434
 1218TIP3   OH225288   1.633   6.117   0.686 -0.0432  0.2195  0.1641
 1218TIP3    H125289   1.652   6.093   0.596  1.4039  0.4845  0.3758
 1218TIP3    H225290   1.571   6.050   0.716  0.3770 -0.5691 -0.6692
 1219TIP3   OH225291   0.156   1.270   8.223 -0.2523  0.7299 -0.1440
 1219TIP3    H125292   0.212   1.347   8.212  1.6127 -0.2823  1.5096
 1219TIP3    H225293   0.105   1.265   8.143 -0.6049  3.7927 -0.2129
 1220TIP3   OH225294   5.177   6.748   6.768 -0.0430 -0.2214 -0.4731
 1220TIP3    H125295   5.214   6.739   6.680  1.2693  0.5998 -0.0442
 1220TIP3    H225296   5.105   6.686   6.770 -0.1345 -0.2291 -2.1442
 1221TIP3   OH225297   1.217   5.566   0.140  0.8167  0.0655 -0.1629
 1221TIP3    H125298   1.239   5.656   0.164  0.6419  0.3829 -1.1314
 1221TIP3    H225299   1.272   5.511   0.196  2.9391  0.8028 -1.4172
 1222TIP3   OH225300   6.335   5.479   7.433  0.9066 -0.3667  0.1228
 1222TIP3    H125301   6.251   5.495   7.389  0.9040 -0.2245  0.1762
 1222TIP3    H225302   6.399   5.523   7.377  0.4106  4.8153  2.9184
 1223TIP3   OH225303   3.471   6.550   1.904  0.4916 -0.1660  0.0424
 1223TIP3    H125304   3.462   6.455   1.901 -0.1722 -0.1258  0.5099
 1223TIP3    H225305   3.552   6.565   1.953 -0.7390 -0.4688  2.2505
 1224TIP3   OH225306   1.135   2.625   7.574 -0.0852 -0.1239 -0.1726
 1224TIP3    H125307   1.131   2.555   7.509  1.9080  0.7042 -1.2613
 1224TIP3    H225308   1.212   2.604   7.627 -0.6692  0.1625  0.8140
 1225TIP3   OH225309   3.546   0.057   1.262 -0.6783  0.1185 -0.5783
 1225TIP3    H125310   3.639   0.076   1.275 -0.9680  3.0680 -2.1325
 1225TIP3    H225311   3.545  -0.023   1.210  1.0694  0.7368 -1.6548
 1226TIP3   OH225312   4.967   2.476   7.052  0.2962 -0.6218  0.1097
 1226TIP3    H125313   4.983   2.482   7.146 -3.3723 -0.6648  0.8996
 1226TIP3    H225314   4.919   2.556   7.031 -2.2386 -2.2475 -0.8025
 1227TIP3   OH225315   1.753   1.683   0.367 -0.4590  0.2453  0.1887
 1227TIP3    H125316   1.817   1.739   0.323 -0.8271  0.0567 -0.6125
 1227TIP3    H225317   1.742   1.722   0.453 -1.1677  1.7945 -0.5586
 1228TIP3   OH225318   3.437   1.507   0.274 -0.3166  0.4096 -0.1045
 1228TIP3    H125319   3.362   1.525   0.332  0.3738  0.3292  0.8290
 1228TIP3    H225320   3.513   1.532   0.326  0.6421 -3.5274  0.6723
 1229TIP3   OH225321   0.420   4.855   2.039  0.4360  0.4616 -0.4086
 1229TIP3    H125322   0.345   4.888   1.990 -0.5594  0.8504  1.2895
 1229TIP3    H225323   0.443   4.773   1.994 -1.4760 -0.0513 -0.5622
 1230TIP3   OH225324   5.890   6.293   2.050  0.9540 -0.0417  0.1342
 1230TIP3    H125325   5.928   6.244   2.123 -0.4607  0.5481  1.3343
 1230TIP3    H225326   5.821   6.237   2.016 -0.4291  0.8852  1.2796
 1231TIP3   OH225327   6.906   5.832   0.263 -0.2151  0.1071 -0.3434
 1231TIP3    H125328   6.849   5.803   0.334  0.5610  0.9650  0.6475
 1231TIP3    H225329   6.958   5.756   0.241 -2.2046 -0.9351 -1.7824
 1232TIP3   OH225330   3.788   3.365   2.288  0.1702  0.3145 -0.1356
 1232TIP3    H125331   3.829   3.356   2.374 -0.4105 -0.4445  0.0711
 1232TIP3    H225332   3.695   3.348   2.304  0.0897 -0.0457 -0.9482
 1233TIP3   OH225333   2.457   2.369   1.328  0.0135 -0.0244 -0.1369
 1233TIP3    H125334   2.480   2.406   1.242 -0.9359 -0.8265 -0.7635
 1233TIP3    H225335   2.374   2.411   1.351  0.3432  0.2973  0.4536
 1234TIP3   OH225336   3.264   3.648   1.647 -0.2268 -0.1619  0.5094
 1234TIP3    H125337   3.329   3.579   1.659  0.7197  0.7586  0.8416
 1234TIP3    H225338   3.303   3.707   1.583 -0.1354  1.1099  1.7002
 1235TIP3   OH225339   3.798   1.589   7.874 -0.0663 -0.1780 -0.2862
 1235TIP3    H125340   3.738   1.519   7.848  1.3261 -1.6544  0.2890
 1235TIP3    H225341   3.766   1.616   7.960 -1.1808  0.5910 -0.9255
 1236TIP3   OH225342   1.186   5.370   1.880  0.6795  0.2564  0.0646
 1236TIP3    H125343   1.201   5.288   1.927  0.8156  0.2618  0.0293
 1236TIP3    H225344   1.151   5.343   1.795  1.2773  0.2083 -0.1729
 1237TIP3   OH225345   3.276   3.665   7.310 -1.1206  0.1225  0.7526
 1237TIP3    H125346   3.211   3.631   7.248  0.1450 -2.0086  0.5273
 1237TIP3    H225347   3.325   3.730   7.259 -1.2708 -0.2867  0.0642
 1238TIP3   OH225348   0.693   0.886   0.321  0.1471  0.5240  0.0604
 1238TIP3    H125349   0.736   0.812   0.363 -2.5784 -0.3605  1.5421
 1238TIP3    H225350   0.669   0.855   0.234 -0.3471 -0.0803  0.4109
 1239TIP3   OH225351   5.081   2.561   2.450 -0.1777  0.5038  0.6327
 1239TIP3    H125352   5.117   2.621   2.515  0.9488  1.5727 -0.8837
 1239TIP3    H225353   5.132   2.579   2.371  1.2602 -3.4669  0.4045
 1240TIP3   OH225354   1.923   2.941   2.061  0.1391 -0.1430 -0.0944
 1240TIP3    H125355   2.002   2.916   2.013  1.6103  1.7375  1.1803
 1240TIP3    H225356   1.887   3.014   2.011 -0.9696 -1.1516 -0.8027
 1241TIP3   OH225357   2.042   0.262   1.944 -0.1262 -0.2325  0.1556
 1241TIP3    H125358   1.997   0.344   1.961  0.4134 -0.1693  1.3588
 1241TIP3    H225359   2.070   0.268   1.852 -1.0379  0.4431 -0.0960
 1242TIP3   OH225360   1.829   0.158   2.450  0.3958  0.3424  0.0011
 1242TIP3    H125361   1.782   0.240   2.437  0.8413  0.4713 -0.8216
 1242TIP3    H225362   1.788   0.119   2.528 -0.8206  0.6305 -0.4774
 1243TIP3   OH225363   1.037   3.152   0.088  0.3302  0.3300  0.1308
 1243TIP3    H125364   1.059   3.064   0.059  1.4501  0.4724  0.4965
 1243TIP3    H225365   1.023   3.143   0.182 -1.2113  0.2547 -0.0785
 1244TIP3   OH225366   0.737   2.746   1.223  0.5894 -0.5532 -0.3485
 1244TIP3    H125367   0.748   2.749   1.128  0.0780  0.2553 -0.3959
 1244TIP3    H225368   0.824   2.764   1.258  0.6916 -0.4249 -0.6654
 1245TIP3   OH225369   5.837   2.039   7.117 -0.3398  0.1948  0.8216
 1245TIP3    H125370   5.750   2.054   7.079 -0.3056 -0.2437  0.5594
 1245TIP3    H225371   5.852   2.115   7.173 -0.8053  0.3765  0.7082
 1246TIP3   OH225372   1.533   3.479   7.873  0.5642 -0.3689 -0.6123
 1246TIP3    H125373   1.467   3.444   7.933 -1.0546  0.6001 -1.7242
 1246TIP3    H225374   1.488   3.482   7.788  1.9051  0.7198 -1.3264
 1247TIP3   OH225375   5.799   2.710   2.104 -0.6928 -0.2914 -0.4344
 1247TIP3    H125376   5.786   2.618   2.083 -1.7306 -0.4114  0.6749
 1247TIP3    H225377   5.768   2.757   2.027  0.2323 -0.8607 -1.1768
 1248TIP3   OH225378   0.785   6.194   0.896 -0.0020  0.0467 -0.0556
 1248TIP3    H125379   0.768   6.268   0.954 -0.8863  0.1235 -0.3902
 1248TIP3    H225380   0.879   6.197   0.880  0.4354 -0.5182  2.0688
 1249TIP3   OH225381   2.084   2.132   1.920  0.2848 -0.1021  0.5597
 1249TIP3    H125382   2.081   2.167   2.008  1.0421  1.4576  0.0024
 1249TIP3    H225383   2.169   2.087   1.914  0.3341 -0.0075  0.5521
 1250TIP3   OH225384   6.133   5.904   0.705 -0.1751  0.7800 -0.5765
 1250TIP3    H125385   6.147   5.993   0.672  1.1052  0.7156 -0.2802
 1250TIP3    H225386   6.217   5.881   0.745 -0.2116 -0.8866 -1.4170
 1251TIP3   OH225387   4.109   4.742   2.327  0.5407  0.1906 -0.8498
 1251TIP3    H125388   4.117   4.662   2.379  0.4542  1.8897  2.0288
 1251TIP3    H225389   4.028   4.730   2.277  0.6758 -1.6012 -0.6879
 1252TIP3   OH225390   2.491   6.406   0.722  0.1804  0.2761  0.1003
 1252TIP3    H125391   2.524   6.449   0.802  0.7622  0.8191 -0.4127
 1252TIP3    H225392   2.557   6.426   0.656 -1.0273  1.1285 -0.8990
 1253TIP3   OH225393   3.972   0.088   7.742 -0.2207  0.1625  0.6129
 1253TIP3    H125394   3.968  -0.006   7.759 -1.0267  0.4768  2.4752
 1253TIP3    H225395   4.042   0.120   7.800  1.2221  0.5162 -1.2382
 1254TIP3   OH225396   0.013   5.576   0.147 -0.3375 -0.1615 -0.8966
 1254TIP3    H125397   0.088   5.527   0.114 -0.4548 -1.8100  1.0974
 1254TIP3    H225398  -0.063   5.533   0.106 -0.4527 -1.9174  0.9765
 1255TIP3   OH225399   5.420   3.414   2.103  0.7968 -0.1313 -0.2649
 1255TIP3    H125400   5.350   3.460   2.057  0.8206 -1.4905 -1.7272
 1255TIP3    H225401   5.402   3.431   2.196 -1.0259  0.1953 -0.6388
 1256TIP3   OH225402   4.323   1.116   1.364 -0.0291 -0.2609 -0.4757
 1256TIP3    H125403   4.298   1.126   1.272 -1.3134  0.0440 -0.1231
 1256TIP3    H225404   4.362   1.200   1.388 -0.2312 -0.1341 -0.5886
 1257TIP3   OH225405   0.628   2.478   1.249  0.2104 -0.6003  0.2782
 1257TIP3    H125406   0.538   2.500   1.225 -0.5581 -2.3152  1.3705
 1257TIP3    H225407   0.679   2.557   1.228 -1.7004  0.7845  0.5664
 1258TIP3   OH225408   0.768   3.840   7.206 -0.3317  1.0210 -0.3282
 1258TIP3    H125409   0.757   3.917   7.151  1.4661  0.2345 -1.8931
 1258TIP3    H225410   0.770   3.874   7.296  0.9303  2.8667 -0.9972
 1259TIP3   OH225411   6.238   5.377   1.043  0.0533  0.5083 -0.1369
 1259TIP3    H125412   6.276   5.299   1.085  1.6126  0.1820 -2.0157
 1259TIP3    H225413   6.257   5.365   0.950  0.6167  3.2813 -0.4508
 1260TIP3   OH225414   3.381   1.072   3.032  0.0096 -0.1595  0.1133
 1260TIP3    H125415   3.398   1.140   2.966 -0.7375 -0.6966 -0.6586
 1260TIP3    H225416   3.316   1.111   3.090 -1.4897 -0.6945 -1.1552
 1261TIP3   OH225417   5.961   1.428   2.592  0.5221  0.1134 -0.1915
 1261TIP3    H125418   5.984   1.380   2.512  1.2137 -0.2339  0.2098
 1261TIP3    H225419   5.998   1.376   2.663 -0.5329  0.1451  0.4086
 1262TIP3   OH225420   4.756   5.270   2.105  0.3914  0.2091  0.0449
 1262TIP3    H125421   4.821   5.256   2.173  0.9401  1.0017 -0.2992
 1262TIP3    H225422   4.766   5.194   2.047 -0.7959 -1.0131  1.3665
 1263TIP3   OH225423   0.449   1.033   2.190  0.5001 -0.0779 -0.3331
 1263TIP3    H125424   0.543   1.014   2.192 -0.0197 -3.0686  0.5947
 1263TIP3    H225425   0.407   0.947   2.196 -2.3235  1.2003 -0.2032
 1264TIP3   OH225426   6.697   3.009   1.463  0.3330  0.3489  0.3932
 1264TIP3    H125427   6.609   2.981   1.438  0.3044 -1.2923  2.0966
 1264TIP3    H225428   6.697   3.104   1.449 -0.2109 -0.0898 -3.7488
 1265TIP3   OH225429   4.099   4.955   0.175 -0.3152 -0.2152  0.2877
 1265TIP3    H125430   4.157   5.026   0.147 -0.0091 -0.8978 -0.8717
 1265TIP3    H225431   4.129   4.933   0.263 -0.0959  0.7519  0.4676
 1266TIP3   OH225432   5.828   0.915   8.273 -0.3003  0.5964 -0.6111
 1266TIP3    H125433   5.760   0.938   8.209  0.8638  2.2247 -1.3485
 1266TIP3    H225434   5.910   0.941   8.230  0.6338  0.4216  1.0033
 1267TIP3   OH225435   0.915   6.037   0.297  0.7472 -0.0882  0.2169
 1267TIP3    H125436   0.947   6.104   0.357 -0.5884  3.1820 -2.3786
 1267TIP3    H225437   0.940   6.070   0.210 -1.3563 -2.1998 -1.2962
 1268TIP3   OH225438   6.247   0.223   0.463 -0.2785  0.7068 -0.0201
 1268TIP3    H125439   6.250   0.128   0.469  0.8567  0.7893  0.9578
 1268TIP3    H225440   6.157   0.242   0.434 -0.8501 -0.6059  0.7993
 1269TIP3   OH225441   2.812   2.196   1.279 -0.0833  0.0808  0.5193
 1269TIP3    H125442   2.735   2.248   1.305 -0.7650 -1.3482  1.4944
 1269TIP3    H225443   2.776   2.125   1.225  0.5014 -0.7473  1.1898
 1270TIP3   OH225444   2.717   6.175   8.146 -0.0610 -1.4188  0.5209
 1270TIP3    H125445   2.711   6.228   8.226 -0.6275 -2.0999  0.9503
 1270TIP3    H225446   2.711   6.238   8.075 -1.5575 -0.9705  1.0130
 1271TIP3   OH225447   3.581   5.190   7.784  0.6704  0.1507  0.2451
 1271TIP3    H125448   3.557   5.212   7.874 -1.0837 -2.1175  0.4114
 1271TIP3    H225449   3.596   5.096   7.785  3.3837  0.4513 -1.3257
 1272TIP3   OH225450   4.823   0.485   7.793 -0.6573 -0.2037 -0.0005
 1272TIP3    H125451   4.877   0.502   7.715 -0.9242  0.2965 -0.0807
 1272TIP3    H225452   4.772   0.407   7.770 -0.0931 -0.5869  0.0161
 1273TIP3   OH225453   4.255   4.514   7.088 -0.6421  0.1849  0.7505
 1273TIP3    H125454   4.259   4.423   7.118  0.1510 -0.0131  0.1000
 1273TIP3    H225455   4.330   4.556   7.130 -1.3132  0.6788  1.4682
 1274TIP3   OH225456   6.152   6.409   0.419 -0.1539  0.2399  0.0012
 1274TIP3    H125457   6.235   6.443   0.385  1.1630 -0.9170  1.8299
 1274TIP3    H225458   6.138   6.327   0.371 -0.7415  0.8826 -0.9477
 1275TIP3   OH225459   0.027   2.078   1.657 -0.2281  0.0495  0.1112
 1275TIP3    H125460  -0.041   2.062   1.723  0.5848 -0.0448  0.9645
 1275TIP3    H225461  -0.004   2.153   1.607 -1.6479 -0.9138 -0.4991
 1276TIP3   OH225462   0.809   6.654   1.937 -0.5609  0.7651  0.3111
 1276TIP3    H125463   0.731   6.709   1.934  0.1982  1.9498  1.2994
 1276TIP3    H225464   0.785   6.575   1.889 -1.6729  1.9617 -1.1961
 1277TIP3   OH225465   6.237   0.125   1.179  0.1919 -0.5377 -0.0074
 1277TIP3    H125466   6.193   0.061   1.236  0.1403 -0.9558 -0.5099
 1277TIP3    H225467   6.325   0.132   1.215  0.2619 -1.0510 -0.0761
 1278TIP3   OH225468   0.135   3.306   2.086  0.3081  0.0418 -0.2170
 1278TIP3    H125469   0.196   3.332   2.155  0.0782  1.0867 -0.3942
 1278TIP3    H225470   0.188   3.260   2.022  0.7357  0.1165  0.0814
 1279TIP3   OH225471   5.797   2.582   6.969 -0.4000 -0.4616  0.2071
 1279TIP3    H125472   5.773   2.645   7.037 -1.4708 -1.5782  0.9114
 1279TIP3    H225473   5.720   2.579   6.911  0.0089 -0.4500 -0.3396
 1280TIP3   OH225474   6.301   5.182   6.737 -0.2595 -0.0663  0.3640
 1280TIP3    H125475   6.377   5.199   6.681 -1.3422  1.6902 -0.6612
 1280TIP3    H225476   6.308   5.089   6.758  2.2998  0.0769  0.5328
 1281TIP3   OH225477   4.680   4.904   0.889  0.0064  0.5447 -0.3008
 1281TIP3    H125478   4.655   4.823   0.846 -0.0149  0.8554 -0.8919
 1281TIP3    H225479   4.618   4.915   0.961 -1.5900  1.3128 -1.7411
 1282TIP3   OH225480   2.140   3.372   8.222 -0.4481  0.3996  0.0007
 1282TIP3    H125481   2.080   3.420   8.280  0.6653  3.6194 -1.2651
 1282TIP3    H225482   2.227   3.399   8.252  0.2944 -1.4822 -0.3498
 1283TIP3   OH225483   1.109   2.865   8.067 -0.6107  0.5429  0.5432
 1283TIP3    H125484   1.021   2.872   8.030 -0.4169 -1.0695 -0.3058
 1283TIP3    H225485   1.110   2.930   8.138 -2.0718  1.4213 -0.1894
 1284TIP3   OH225486   6.307   6.649   0.596  0.1179  0.6311  0.5996
 1284TIP3    H125487   6.250   6.641   0.519  0.4859 -1.3271  0.4925
 1284TIP3    H225488   6.246   6.658   0.670 -0.3291 -0.4925  0.3820
 1285TIP3   OH225489   2.322   3.116   7.815 -0.1218  0.2451 -0.0562
 1285TIP3    H125490   2.293   3.050   7.751 -1.1695  0.1371  0.5023
 1285TIP3    H225491   2.321   3.198   7.766 -0.3086  0.0709 -0.3501
 1286TIP3   OH225492   2.185   6.490   7.586  0.7089  0.2763 -0.2187
 1286TIP3    H125493   2.244   6.546   7.536  0.9748  0.4589  0.2945
 1286TIP3    H225494   2.139   6.438   7.519 -0.5458  2.0315 -0.7984
 1287TIP3   OH225495   5.932   4.468   0.291  0.0469  0.5838  0.0500
 1287TIP3    H125496   5.895   4.528   0.227  2.5580  3.2065  0.8498
 1287TIP3    H225497   5.979   4.403   0.238 -1.3349  0.2226 -0.7858
 1288TIP3   OH225498   2.638   4.191   1.995 -0.5762 -0.7086  0.3488
 1288TIP3    H125499   2.582   4.146   2.059 -2.0115  0.8514  0.2575
 1288TIP3    H225500   2.682   4.260   2.046  0.1826 -1.0264  0.1322
 1289TIP3   OH225501   5.729   5.550   1.829  0.0838  0.1167 -0.5696
 1289TIP3    H125502   5.657   5.603   1.795 -0.1061  0.6505  0.6033
 1289TIP3    H225503   5.797   5.556   1.762 -0.4714  0.6820 -1.0974
 1290TIP3   OH225504   4.913   4.386   8.298 -0.4892 -0.3463  0.1964
 1290TIP3    H125505   4.903   4.330   8.221  0.0037 -0.5991  0.3079
 1290TIP3    H225506   4.994   4.434   8.281 -1.7503  1.5761 -0.6622
 1291TIP3   OH225507   5.802   3.871   1.378  0.0940 -0.3626  0.0220
 1291TIP3    H125508   5.853   3.847   1.456  1.0018 -1.3418 -0.8478
 1291TIP3    H225509   5.854   3.938   1.335 -0.7930  0.7579  0.6458
 1292TIP3   OH225510   6.769   1.705   1.250  0.3259  0.0377  0.3715
 1292TIP3    H125511   6.708   1.652   1.301  1.7425 -3.0203 -0.8934
 1292TIP3    H225512   6.839   1.727   1.312  0.2071 -0.4583  0.6874
 1293TIP3   OH225513   0.297   0.629   8.337 -0.1437  0.3739 -0.2708
 1293TIP3    H125514   0.257   0.691   8.277  1.2988  0.6669 -0.9762
 1293TIP3    H225515   0.386   0.616   8.303  0.6461  0.3675  1.6493
 1294TIP3   OH225516   3.924   3.042   1.608  0.3948  0.0554 -0.4411
 1294TIP3    H125517   3.924   2.967   1.668 -0.6284  0.7156  0.4026
 1294TIP3    H225518   3.967   3.112   1.656 -1.7125  1.0270  0.1398
 1295TIP3   OH225519   3.234   1.393   0.683 -0.2982  0.3265 -0.5432
 1295TIP3    H125520   3.277   1.478   0.690 -0.7941  0.6623 -1.4365
 1295TIP3    H225521   3.299   1.337   0.640 -0.7772  0.8881 -2.0802
 1296TIP3   OH225522   0.069   4.065   0.226 -0.1539  0.2739 -0.5945
 1296TIP3    H125523  -0.003   4.006   0.206 -2.3266  2.9556 -1.3717
 1296TIP3    H225524   0.048   4.099   0.313  1.0781 -0.1260 -0.1292
 1297TIP3   OH225525   1.817   5.161   0.382 -0.2899  0.0726 -0.0638
 1297TIP3    H125526   1.879   5.234   0.371  0.5960 -0.5177  0.8269
 1297TIP3    H225527   1.783   5.173   0.471 -0.7144 -0.1684 -0.1937
 1298TIP3   OH225528   4.091   1.637   7.940  0.4822 -0.6569 -0.5892
 1298TIP3    H125529   4.015   1.600   7.895 -0.0733  0.6876 -0.8250
 1298TIP3    H225530   4.054   1.695   8.006  1.3004 -0.2517 -0.4687
 1299TIP3   OH225531   2.706   3.239   8.369  0.3304 -0.1930  0.5354
 1299TIP3    H125532   2.771   3.206   8.308  0.8319  3.1978 -1.0147
 1299TIP3    H225533   2.748   3.233   8.455  0.2694 -3.4679  0.4638
 1300TIP3   OH225534   6.164   4.647   6.968  0.4869 -0.3357  0.3721
 1300TIP3    H125535   6.106   4.634   7.043  0.7023  0.2417  0.6442
 1300TIP3    H225536   6.204   4.733   6.983  0.4841 -0.1824 -0.4309
 1301TIP3   OH225537   3.829   5.363   8.117  0.1140  0.1005 -0.0197
 1301TIP3    H125538   3.808   5.432   8.054  0.6077  1.4850  1.2919
 1301TIP3    H225539   3.913   5.328   8.087  0.0027  0.2623 -0.5253
 1302TIP3   OH225540   2.563   6.927   0.011 -0.4108  0.0933  0.0710
 1302TIP3    H125541   2.536   6.931   0.103 -0.4022  1.7119  0.0241
 1302TIP3    H225542   2.659   6.927   0.014 -0.4101 -0.4488  0.0779
 1303TIP3   OH225543   0.199   4.933   1.899 -0.5023 -0.0575  0.4321
 1303TIP3    H125544   0.170   4.976   1.980 -0.8287 -0.5784  0.5994
 1303TIP3    H225545   0.148   4.974   1.830 -0.8650 -0.2190  0.6004
 1304TIP3   OH225546   6.293   2.056   7.586  0.0275 -0.0486  0.4905
 1304TIP3    H125547   6.207   2.097   7.582  0.7764  1.5673 -0.0944
 1304TIP3    H225548   6.280   1.978   7.639 -1.5839  0.6966  1.2631
 1305TIP3   OH225549   1.787   6.322   0.845 -0.0092 -0.0978 -0.3375
 1305TIP3    H125550   1.778   6.248   0.785  1.9637  1.2273 -2.4431
 1305TIP3    H225551   1.826   6.284   0.924  0.4948 -1.3743 -1.1673
 1306TIP3   OH225552   6.544   0.165   3.124 -0.3834 -0.6494  0.1892
 1306TIP3    H125553   6.633   0.182   3.094 -0.4098 -1.6873 -0.5256
 1306TIP3    H225554   6.509   0.251   3.146  0.9424 -0.2777  0.9244
 1307TIP3   OH225555   0.822   3.129   1.410  0.5047  0.2007  0.1300
 1307TIP3    H125556   0.826   3.141   1.315 -1.0071 -1.9193 -0.2698
 1307TIP3    H225557   0.898   3.075   1.431 -0.3403 -1.2232 -0.2865
 1308TIP3   OH225558   0.450   6.326   1.994 -0.0547 -0.3297  0.1211
 1308TIP3    H125559   0.399   6.251   1.963  1.2496 -1.0703 -0.3576
 1308TIP3    H225560   0.506   6.290   2.063  0.2138  0.3239  0.2497
 1309TIP3   OH225561   3.029   2.667   1.792  0.0134  0.2561 -0.3038
 1309TIP3    H125562   2.984   2.656   1.876  1.9423 -0.1779  0.7495
 1309TIP3    H225563   3.053   2.759   1.789 -1.8054  0.7360 -1.3741
 1310TIP3   OH225564   0.576   4.895   8.296 -0.5426 -0.1395  0.0811
 1310TIP3    H125565   0.585   4.979   8.342 -3.3367  0.2627  0.1246
 1310TIP3    H225566   0.562   4.831   8.367  0.9806 -0.5828  0.0158
 1311TIP3   OH225567   3.232   3.151   0.629 -0.2281  0.2598 -0.5065
 1311TIP3    H125568   3.191   3.154   0.542 -1.6016 -0.4103  0.0848
 1311TIP3    H225569   3.313   3.101   0.615 -0.3077  0.3718 -1.4463
 1312TIP3   OH225570   2.905   1.488   1.129 -1.0878 -0.0783  0.0437
 1312TIP3    H125571   2.819   1.514   1.162 -1.4252 -0.0930 -0.7812
 1312TIP3    H225572   2.968   1.531   1.188 -1.6518 -0.5073  0.9767
 1313TIP3   OH225573   3.478   4.124   7.889 -0.0711  0.3030 -0.8563
 1313TIP3    H125574   3.418   4.182   7.936  0.4421  0.6783 -0.6624
 1313TIP3    H225575   3.422   4.080   7.825 -0.7228  0.0189 -0.1162
 1314TIP3   OH225576   2.526   4.487   0.643 -0.7804  0.4183  0.3209
 1314TIP3    H125577   2.473   4.488   0.563  0.1570 -0.4472 -0.3375
 1314TIP3    H225578   2.470   4.527   0.710 -1.8800  0.4226 -0.5760
 1315TIP3   OH225579   3.225   4.721   7.440  0.0145  0.1541 -0.3442
 1315TIP3    H125580   3.213   4.788   7.373 -0.1239  0.4782 -0.0067
 1315TIP3    H225581   3.271   4.766   7.511  0.4295 -0.2626 -0.3467
 1316TIP3   OH225582   5.657   6.107   1.104  0.1802 -0.0158  0.0279
 1316TIP3    H125583   5.752   6.123   1.106  0.1475  0.0924  1.0304
 1316TIP3    H225584   5.626   6.159   1.030  0.7958  0.5553  0.1624
 1317TIP3   OH225585   5.103   0.749   1.330 -0.3014 -0.3635 -0.2428
 1317TIP3    H125586   5.170   0.774   1.266  0.6649  0.6288  1.0896
 1317TIP3    H225587   5.041   0.696   1.280  1.9567 -2.1890 -1.3344
 1318TIP3   OH225588   5.919   4.814   1.461 -0.0656  0.2738  0.3255
 1318TIP3    H125589   5.835   4.801   1.505  1.0589  2.5360  3.4328
 1318TIP3    H225590   5.925   4.909   1.447  2.2586  0.2798  0.9026
 1319TIP3   OH225591   0.577   4.646   0.764 -0.1210 -0.0216 -0.6219
 1319TIP3    H125592   0.507   4.711   0.761  0.2530  0.3422 -1.8352
 1319TIP3    H225593   0.537   4.565   0.732 -0.5311 -0.3641  0.6946
 1320TIP3   OH225594   0.833   5.289   1.452 -0.1946 -0.1519  0.4202
 1320TIP3    H125595   0.792   5.211   1.414  1.7467 -0.7550 -0.5896
 1320TIP3    H225596   0.805   5.288   1.543 -1.8041 -0.8969 -0.0295
 1321TIP3   OH225597   6.510   1.320   8.307  0.2229 -0.1870  0.0395
 1321TIP3    H125598   6.422   1.290   8.288  1.2896 -3.4066 -0.3990
 1321TIP3    H225599   6.509   1.341   8.400 -1.2432  0.9167 -0.1988
 1322TIP3   OH225600   3.071   3.150   0.858  0.3589  0.5126 -0.0922
 1322TIP3    H125601   3.139   3.133   0.793  0.4153  0.8831 -0.1317
 1322TIP3    H225602   3.039   3.238   0.837  0.5433  0.7341  0.5273
 1323TIP3   OH225603   2.123   2.385   1.321  0.2167 -0.0498  0.3246
 1323TIP3    H125604   2.058   2.350   1.262 -0.5551  1.6849  0.0938
 1323TIP3    H225605   2.129   2.320   1.391  2.1516 -2.8568 -2.1867
 1324TIP3   OH225606   4.128   3.748   2.041 -0.6938  0.7055  0.1926
 1324TIP3    H125607   4.153   3.762   1.950 -1.8130  0.6367 -0.1313
 1324TIP3    H225608   4.040   3.713   2.037 -0.6119  0.3398  1.2933
 1325TIP3   OH225609   3.018   6.556   0.547 -0.2207 -0.2265 -0.1291
 1325TIP3    H125610   2.983   6.629   0.599 -0.0937  0.9895 -1.6794
 1325TIP3    H225611   3.103   6.537   0.588 -0.1309  0.6925  0.1396
 1326TIP3   OH225612   6.434   5.694   7.291 -0.1552 -0.1116  0.2294
 1326TIP3    H125613   6.444   5.621   7.230 -1.1747 -0.8200  0.8892
 1326TIP3    H225614   6.524   5.723   7.309  0.2908 -1.4859  0.3067
 1327TIP3   OH225615   1.996   0.873   0.216  0.2432  0.6615  0.1829
 1327TIP3    H125616   1.901   0.875   0.209  0.2148 -2.0167 -1.9575
 1327TIP3    H225617   2.015   0.807   0.283  0.6226  1.3659  0.7868
 1328TIP3   OH225618   2.326   6.234   7.552 -0.0776  0.7910  0.2277
 1328TIP3    H125619   2.348   6.304   7.490 -0.5887 -0.0491 -0.9409
 1328TIP3    H225620   2.231   6.227   7.548 -0.1231  0.7301  1.1451
 1329TIP3   OH225621   6.100   2.721   7.604 -0.0810 -0.3331  0.6348
 1329TIP3    H125622   6.196   2.716   7.607  0.0386 -0.3238 -1.4800
 1329TIP3    H225623   6.074   2.644   7.552 -0.7890  1.9330 -2.7133
 1330TIP3   OH225624   0.653   0.451   0.287  0.1344  0.6594  0.7695
 1330TIP3    H125625   0.704   0.525   0.319  0.0414  0.2996  1.7756
 1330TIP3    H225626   0.680   0.378   0.341 -0.4274  0.1483  0.3718
 1331TIP3   OH225627   4.409   4.442   2.506 -0.1635 -0.1863 -0.0086
 1331TIP3    H125628   4.465   4.385   2.559 -0.1471 -0.9473 -0.8070
 1331TIP3    H225629   4.444   4.433   2.417 -0.5228  0.6368 -0.2440
 1332TIP3   OH225630   5.676   1.553   0.403  0.2832 -0.5677  0.6475
 1332TIP3    H125631   5.642   1.472   0.364  0.5227 -0.9091  1.1365
 1332TIP3    H225632   5.602   1.588   0.452 -0.2030  0.1774 -0.5692
 1333TIP3   OH225633   3.994   5.487   1.304 -0.2236  0.1890  0.4027
 1333TIP3    H125634   4.013   5.398   1.333  0.1804  0.0494 -0.2830
 1333TIP3    H225635   3.941   5.476   1.226 -1.8345  0.5732  1.3930
 1334TIP3   OH225636   1.056   1.188   7.841  0.3593 -0.2783  0.3729
 1334TIP3    H125637   1.029   1.099   7.863  3.0676 -1.0572  0.8092
 1334TIP3    H225638   1.016   1.243   7.909  0.1211 -1.3622  1.1225
 1335TIP3   OH225639   4.180   3.577   1.501  0.2333  0.2780  0.2271
 1335TIP3    H125640   4.229   3.659   1.502 -0.8526  0.9912 -0.9870
 1335TIP3    H225641   4.146   3.571   1.411 -1.3297 -0.4961  0.8269
 1336TIP3   OH225642   5.203   6.867   7.723 -0.1725  0.4855  0.2632
 1336TIP3    H125643   5.177   6.884   7.633  1.0523 -1.8256 -0.6152
 1336TIP3    H225644   5.296   6.889   7.727 -0.2293  0.6380  0.9844
 1337TIP3   OH225645   6.292   1.365   0.235  0.3531 -0.2443  0.1042
 1337TIP3    H125646   6.238   1.404   0.303  0.8418  1.0466 -0.2249
 1337TIP3    H225647   6.258   1.276   0.226 -0.9337  0.1603  0.7257
 1338TIP3   OH225648   1.050   3.999   7.740 -0.0842 -0.1701 -0.1228
 1338TIP3    H125649   0.972   3.953   7.711  1.1064 -1.7824 -0.8679
 1338TIP3    H225650   1.114   3.931   7.756  0.1272  0.7314  4.1482
 1339TIP3   OH225651   1.693   1.515   0.631  0.3024 -0.0620 -0.7969
 1339TIP3    H125652   1.783   1.543   0.650  1.3346 -3.6745  0.5164
 1339TIP3    H225653   1.656   1.495   0.716 -0.4560 -1.9764 -1.5299
 1340TIP3   OH225654   4.058   0.075   1.549  0.4375  0.5459 -0.3312
 1340TIP3    H125655   4.064   0.051   1.641  0.7564 -1.7101 -0.8955
 1340TIP3    H225656   4.051   0.171   1.550  0.8253  0.6071  1.9961
 1341TIP3   OH225657   4.536   4.296   0.187  0.4630  0.4352  0.4772
 1341TIP3    H125658   4.627   4.290   0.215  1.5699  0.1735 -2.7997
 1341TIP3    H225659   4.538   4.349   0.108 -2.5545  2.0385  1.3241
 1342TIP3   OH225660   4.029   2.918   1.127  0.0858 -0.1885  0.0532
 1342TIP3    H125661   4.023   2.907   1.222  1.7691  0.4044  0.2598
 1342TIP3    H225662   3.941   2.897   1.095 -0.3782 -0.8895  1.6805
 1343TIP3   OH225663   1.717   1.372   8.307 -0.5802 -0.0733 -0.0301
 1343TIP3    H125664   1.654   1.433   8.345 -0.0198  0.3642  0.2004
 1343TIP3    H225665   1.712   1.388   8.213  0.3933  1.1362  0.1142
 1344TIP3   OH225666   2.175   2.240   7.856 -0.3756 -0.2602  0.5015
 1344TIP3    H125667   2.167   2.302   7.928 -0.5179 -1.3400  1.4347
 1344TIP3    H225668   2.176   2.295   7.777  0.0362  0.9454  1.3278
 1345TIP3   OH225669   6.731   6.141   2.035  0.3578 -0.4102  0.2860
 1345TIP3    H125670   6.768   6.126   1.948 -0.6166  3.0085 -0.8661
 1345TIP3    H225671   6.798   6.193   2.081 -0.3074  0.2630  0.5147
 1346TIP3   OH225672   0.085   4.656   7.654 -0.7173 -0.1797  0.0250
 1346TIP3    H125673   0.024   4.709   7.602 -0.7842  1.0351  1.2822
 1346TIP3    H225674   0.133   4.720   7.706  2.3756 -0.9750 -1.5919
 1347TIP3   OH225675   5.534   2.371   2.912  0.3562  0.1162 -0.2615
 1347TIP3    H125676   5.585   2.375   2.831  0.4994 -0.8201 -0.2298
 1347TIP3    H225677   5.600   2.365   2.981  0.2248  0.5410 -0.0927
 1348TIP3   OH225678   5.778   6.780   7.428  0.2039  0.1467 -0.2039
 1348TIP3    H125679   5.796   6.703   7.482  0.7835  0.4414  0.0383
 1348TIP3    H225680   5.760   6.744   7.341 -1.2707 -0.3666  0.2894
 1349TIP3   OH225681   1.032   4.109   2.229 -0.0006  0.1067  0.2361
 1349TIP3    H125682   1.032   4.065   2.144  0.9324 -1.6511  1.0998
 1349TIP3    H225683   1.034   4.202   2.208 -0.7623 -0.2586 -1.6559
 1350TIP3   OH225684   6.405   4.302   1.004 -0.6050  0.3838 -0.2603
 1350TIP3    H125685   6.482   4.354   0.978  0.0410  0.0989  0.9908
 1350TIP3    H225686   6.367   4.352   1.076 -1.0329  0.0261 -0.2391
 1351TIP3   OH225687   1.846   0.131   7.096 -0.4040 -0.0706 -0.4263
 1351TIP3    H125688   1.905   0.069   7.054 -1.4773 -2.1007  0.8480
 1351TIP3    H225689   1.760   0.112   7.059 -0.9508 -0.2094  0.8371
 1352TIP3   OH225690   3.513   4.468   6.782  0.0657  0.2196 -0.2186
 1352TIP3    H125691   3.578   4.468   6.853 -0.1186  1.1695 -0.0413
 1352TIP3    H225692   3.443   4.411   6.814 -0.0473  0.6940  0.3958
 1353TIP3   OH225693   4.099   5.968   2.345 -0.5980 -0.5324  0.9314
 1353TIP3    H125694   4.085   6.025   2.270  1.8926  0.8931  1.4311
 1353TIP3    H225695   4.023   5.911   2.347 -0.4504 -1.1516 -3.1121
 1354TIP3   OH225696   1.910   2.749   1.084 -0.3726  0.4755  0.1743
 1354TIP3    H125697   1.836   2.705   1.042  1.0316 -1.5056 -0.3515
 1354TIP3    H225698   1.971   2.770   1.013 -0.2780  1.8713  0.6269
 1355TIP3   OH225699   0.720   5.328   0.802 -0.1260 -0.4930  0.5261
 1355TIP3    H125700   0.684   5.416   0.803 -2.2150 -1.2974  1.0794
 1355TIP3    H225701   0.750   5.313   0.892 -0.4415 -0.6033  0.6132
 1356TIP3   OH225702   2.378   1.135   7.346 -0.6293  0.6614  0.4194
 1356TIP3    H125703   2.452   1.175   7.390 -1.1144  1.7234  0.3207
 1356TIP3    H225704   2.331   1.209   7.307 -0.8507 -0.1357 -0.8808
 1357TIP3   OH225705   0.274   3.840   0.805 -0.3298 -0.8479  0.3555
 1357TIP3    H125706   0.305   3.801   0.887  0.2828 -3.5447 -1.0415
 1357TIP3    H225707   0.179   3.827   0.807 -0.0913 -3.0982 -0.3202
 1358TIP3   OH225708   4.448   4.910   0.666  0.7396  0.2413 -0.2406
 1358TIP3    H125709   4.463   4.862   0.747 -0.8022 -2.6922 -1.5446
 1358TIP3    H225710   4.484   4.853   0.598  0.8420  2.0258 -1.7481
 1359TIP3   OH225711   3.558   4.985   6.866 -0.0101  1.0794  0.3086
 1359TIP3    H125712   3.474   4.965   6.909  0.5290  0.7026  1.2073
 1359TIP3    H225713   3.551   5.078   6.843  0.0052  1.5183  1.9740
 1360TIP3   OH225714   1.636   5.295   3.437 -0.6464 -0.0138 -0.3106
 1360TIP3    H125715   1.589   5.327   3.360 -0.7118  1.0605  0.1638
 1360TIP3    H225716   1.668   5.208   3.411 -1.5887 -0.1233 -1.1617
 1361TIP3   OH225717   0.878   2.845   8.371  0.5160 -0.0230  0.1553
 1361TIP3    H125718   0.960   2.814   8.409  0.2539  0.2501  0.9693
 1361TIP3    H225719   0.835   2.766   8.340  1.0503 -0.1760 -0.2069
 1362TIP3   OH225720   4.602   4.431   7.224 -0.4253  0.0373  0.0678
 1362TIP3    H125721   4.516   4.395   7.242 -0.9606  1.4235  0.4071
 1362TIP3    H225722   4.585   4.519   7.189  0.8138 -0.1093 -0.9941
 1363TIP3   OH225723   6.222   2.009   2.288 -0.1823  0.3642  0.0906
 1363TIP3    H125724   6.186   2.096   2.300 -1.1004 -0.0108  0.1363
 1363TIP3    H225725   6.147   1.955   2.264  0.1970 -0.6158  1.0204
 1364TIP3   OH225726   6.620   6.050   7.443  0.1705  0.2284 -0.0974
 1364TIP3    H125727   6.683   5.991   7.401 -1.2452 -1.7864  0.4672
 1364TIP3    H225728   6.606   6.119   7.379  0.6855 -0.9136 -1.5060
 1365TIP3   OH225729   4.387   1.838   1.717  0.4239 -0.6908  0.5318
 1365TIP3    H125730   4.434   1.818   1.798 -1.5939 -0.6657  1.7813
 1365TIP3    H225731   4.387   1.933   1.712 -0.6750 -0.6215  1.3301
 1366TIP3   OH225732   1.846   0.053   2.045 -0.1442 -0.1711 -0.4679
 1366TIP3    H125733   1.898  -0.017   2.005  1.5045  0.3707  0.6364
 1366TIP3    H225734   1.884   0.134   2.011  0.1700  0.2503  0.8228
 1367TIP3   OH225735   5.651   0.155   8.023  0.3558  0.3089  0.4305
 1367TIP3    H125736   5.661   0.200   8.107  2.2085 -0.6294  0.7513
 1367TIP3    H225737   5.722   0.091   8.021  0.3787  0.3200 -1.8584
 1368TIP3   OH225738   5.043   6.132   1.525  0.8823  0.4561 -0.4475
 1368TIP3    H125739   5.077   6.054   1.481 -0.6412 -1.4094  1.4852
 1368TIP3    H225740   4.950   6.134   1.501  0.4196  0.3847  1.2186
 1369TIP3   OH225741   0.048   5.513   1.311  0.3456 -0.4072 -0.1617
 1369TIP3    H125742   0.028   5.439   1.369 -1.5051 -0.0888 -0.3245
 1369TIP3    H225743   0.068   5.471   1.227  0.7682 -0.7695  0.1105
 1370TIP3   OH225744   5.468   1.831   0.383  0.4081  0.4522  0.0419
 1370TIP3    H125745   5.391   1.885   0.403  0.5850  1.3174 -1.4265
 1370TIP3    H225746   5.533   1.858   0.448 -0.1601  0.5461  0.5820
 1371TIP3   OH225747   3.593   1.315   0.884 -0.7298  1.0759  0.7103
 1371TIP3    H125748   3.558   1.396   0.847 -0.2545  0.6422 -0.7239
 1371TIP3    H225749   3.555   1.245   0.831 -0.6207  0.3716  1.5219
 1372TIP3   OH225750   5.984   4.107   0.331 -0.4042 -0.9276 -0.2805
 1372TIP3    H125751   6.062   4.072   0.372 -0.3533 -1.9266 -1.1755
 1372TIP3    H225752   6.016   4.180   0.277 -0.6359  1.2878  2.3432
 1373TIP3   OH225753   5.635   6.277   0.607  0.1180  0.4024 -0.0239
 1373TIP3    H125754   5.541   6.267   0.588  0.4981 -1.1781 -1.3510
 1373TIP3    H225755   5.675   6.291   0.522  1.0654  1.6352  0.5986
 1374TIP3   OH225756   4.248   3.321   2.415  0.6806 -0.0727 -0.5039
 1374TIP3    H125757   4.273   3.236   2.452 -0.5907 -1.2004 -2.0823
 1374TIP3    H225758   4.219   3.372   2.491  1.3291 -1.0955  0.4650
 1375TIP3   OH225759   4.987   6.729   1.320 -0.5026 -0.4869 -1.1382
 1375TIP3    H125760   4.950   6.657   1.372 -1.1141  1.1921  0.9125
 1375TIP3    H225761   4.911   6.777   1.287 -0.2295  1.1487  0.4323
 1376TIP3   OH225762   0.885   3.454   6.965  0.6958 -0.4579 -0.4465
 1376TIP3    H125763   0.815   3.511   6.998  0.9118 -0.2162 -0.4035
 1376TIP3    H225764   0.959   3.473   7.022  0.9603 -0.3164 -0.8401
 1377TIP3   OH225765   4.725   1.554   2.310  0.0580 -0.1613  0.2733
 1377TIP3    H125766   4.723   1.607   2.389 -0.1112 -1.5632  1.2427
 1377TIP3    H225767   4.687   1.470   2.336 -2.1395  0.0620 -1.8686
 1378TIP3   OH225768   6.069   5.029   2.323 -0.6974 -0.1891  0.6717
 1378TIP3    H125769   5.998   4.976   2.288 -0.6611 -0.3725  0.8704
 1378TIP3    H225770   6.064   5.112   2.276  1.6644 -1.6793 -2.5965
 1379TIP3   OH225771   2.942   5.280   8.022  0.1517 -0.6827 -1.2706
 1379TIP3    H125772   3.009   5.218   8.049  1.7033  1.3394 -0.2655
 1379TIP3    H225773   2.967   5.363   8.061 -2.0163  0.5647 -2.2866
 1380TIP3   OH225774   3.564   0.201   1.685  0.1741 -0.1770  0.2114
 1380TIP3    H125775   3.646   0.202   1.637  1.3498 -2.4860  1.9665
 1380TIP3    H225776   3.534   0.110   1.680 -1.4379  0.2731  0.9715
 1381TIP3   OH225777   5.602   5.514   2.300  0.2558 -0.1229 -0.6772
 1381TIP3    H125778   5.573   5.579   2.236 -0.1422 -0.7371 -1.1287
 1381TIP3    H225779   5.583   5.554   2.385  0.0089  0.3491 -0.9491
 1382TIP3   OH225780   2.787   2.876   0.169  0.4173 -0.0646 -0.4267
 1382TIP3    H125781   2.833   2.917   0.243  0.1251 -1.5151  0.6045
 1382TIP3    H225782   2.857   2.845   0.111  0.7181 -0.8047  0.3166
 1383TIP3   OH225783   1.387   6.079   2.657 -0.3998 -0.0832 -0.0849
 1383TIP3    H125784   1.424   6.029   2.584 -2.4569 -0.2265 -1.1032
 1383TIP3    H225785   1.305   6.033   2.679  0.4060 -0.3591  2.7127
 1384TIP3   OH225786   3.592   0.863   0.540 -0.5877 -0.3095  0.3902
 1384TIP3    H125787   3.635   0.820   0.615 -0.5280 -1.1520 -0.1162
 1384TIP3    H225788   3.503   0.827   0.541  0.0282 -2.0184 -1.2204
 1385TIP3   OH225789   5.923   0.066   2.126  0.5700  0.2268 -0.6914
 1385TIP3    H125790   5.980   0.068   2.203  0.5653  1.7701 -0.7025
 1385TIP3    H225791   5.980   0.037   2.055  1.1082  0.8462 -0.5201
 1386TIP3   OH225792   3.584   4.370   7.771  0.5738  0.5231 -0.3542
 1386TIP3    H125793   3.592   4.279   7.800  0.5697  0.5135 -0.3838
 1386TIP3    H225794   3.496   4.376   7.735  0.1916  0.8023  0.5788
 1387TIP3   OH225795   0.467   5.719   2.433  0.1332  0.6869  0.1982
 1387TIP3    H125796   0.434   5.802   2.467 -0.3330  1.0141 -1.0365
 1387TIP3    H225797   0.467   5.729   2.338  1.0438 -0.3591  0.0599
 1388TIP3   OH225798   6.105   1.385   6.722 -0.2793 -0.2795  0.3678
 1388TIP3    H125799   6.013   1.396   6.698 -0.5349  0.2926  1.5474
 1388TIP3    H225800   6.124   1.459   6.780  0.5576 -1.1039  1.1777
 1389TIP3   OH225801   0.169   3.113   1.306 -0.3431 -0.4689 -1.0363
 1389TIP3    H125802   0.225   3.142   1.378  0.8512 -1.3538 -1.5687
 1389TIP3    H225803   0.161   3.019   1.319 -1.2719 -0.4370 -1.2959
 1390TIP3   OH225804   5.693   1.857   0.540 -0.3039 -0.1419  0.4327
 1390TIP3    H125805   5.734   1.789   0.594  1.0450  1.2102  1.1990
 1390TIP3    H225806   5.766   1.911   0.511 -1.4134  1.4761  0.5494
 1391TIP3   OH225807   5.884   6.040   1.811  0.0527 -0.3473 -0.2359
 1391TIP3    H125808   5.933   6.067   1.733 -1.1674 -0.2879 -1.0198
 1391TIP3    H225809   5.944   6.054   1.884  1.4047 -0.8657 -1.2098
 1392TIP3   OH225810   6.594   1.840   1.948  0.0954  0.3964  0.3991
 1392TIP3    H125811   6.681   1.806   1.968 -0.0701  0.5963  1.5258
 1392TIP3    H225812   6.570   1.892   2.025 -0.5819  1.2246 -0.3496
 1393TIP3   OH225813   1.218   2.476   2.464 -0.0270  0.4920  0.2535
 1393TIP3    H125814   1.139   2.455   2.514 -0.4469 -2.1880 -1.3643
 1393TIP3    H225815   1.279   2.406   2.485  0.9669  1.0865 -0.5671
 1394TIP3   OH225816   6.676   4.490   0.626 -0.0192  0.2766 -0.4499
 1394TIP3    H125817   6.682   4.577   0.666 -0.7750 -0.3549  1.1079
 1394TIP3    H225818   6.763   4.452   0.639  0.4174  0.8937 -1.4300
 1395TIP3   OH225819   4.552   0.128   0.956 -0.0570 -0.4893 -0.2218
 1395TIP3    H125820   4.644   0.148   0.936 -0.5744 -0.9944 -3.5804
 1395TIP3    H225821   4.557   0.075   1.036  2.4521  0.2898  0.2552
 1396TIP3   OH225822   3.173   3.738   2.106  0.0020  0.1126  0.6095
 1396TIP3    H125823   3.117   3.678   2.057  0.2819  0.5761 -0.2982
 1396TIP3    H225824   3.195   3.690   2.186  0.2570 -1.0243 -0.1151
 1397TIP3   OH225825   4.934   4.125   2.567 -0.5602 -0.1431  0.1844
 1397TIP3    H125826   4.898   4.211   2.545  1.8395  0.9259  0.1340
 1397TIP3    H225827   4.966   4.134   2.657  1.7552 -0.1864 -0.5639
 1398TIP3   OH225828   0.736   5.316   2.743 -0.2529 -0.0427 -0.0467
 1398TIP3    H125829   0.801   5.255   2.708 -0.0914  0.6770 -1.0272
 1398TIP3    H225830   0.654   5.268   2.739 -0.1878 -0.0722 -1.1558
 1399TIP3   OH225831   4.923   1.588   1.880 -0.5001 -0.2975  0.6381
 1399TIP3    H125832   4.987   1.649   1.916  1.5937 -1.2532 -1.2476
 1399TIP3    H225833   4.842   1.608   1.927  0.5615  2.5737  1.4563
 1400TIP3   OH225834   2.064   5.247   7.932  0.0229  0.4438  0.2516
 1400TIP3    H125835   1.995   5.192   7.895  2.4679 -4.1615  1.6716
 1400TIP3    H225836   2.055   5.237   8.027  1.2163  1.6959  0.5311
 1401TIP3   OH225837   4.811   2.527   2.354  0.3273  0.0881 -0.5985
 1401TIP3    H125838   4.814   2.472   2.276  0.0710  1.8192 -1.8639
 1401TIP3    H225839   4.903   2.544   2.374  0.3778  0.3443 -1.0377
 1402TIP3   OH225840   6.096   0.620   7.470  0.0529 -0.0529 -0.0040
 1402TIP3    H125841   6.013   0.575   7.489  1.0875 -1.9313  0.3334
 1402TIP3    H225842   6.157   0.549   7.448  1.4355  1.3312 -0.7902
 1403TIP3   OH225843   5.847   6.978   8.035 -0.0438  0.1774 -0.5294
 1403TIP3    H125844   5.895   6.920   7.975  0.2188 -0.0667 -0.0846
 1403TIP3    H225845   5.909   7.047   8.056 -0.2637  0.4719 -0.8357
 1404TIP3   OH225846   3.838   5.911   1.011 -0.0561  1.1239 -0.3093
 1404TIP3    H125847   3.859   5.930   1.103  0.3044  2.6472 -0.6775
 1404TIP3    H225848   3.875   5.824   0.995 -3.0466 -0.7866  1.9011
 1405TIP3   OH225849   0.633   3.615   8.044  0.1172 -0.3106 -0.0041
 1405TIP3    H125850   0.588   3.679   8.100  0.7144  0.1398 -0.0304
 1405TIP3    H225851   0.563   3.574   7.993 -0.2444  0.4830 -0.1497
 1406TIP3   OH225852   0.323   1.155   0.014  0.4137  0.0421 -0.1290
 1406TIP3    H125853   0.246   1.170  -0.041  0.7766  0.4728 -0.5212
 1406TIP3    H225854   0.354   1.069  -0.011  0.1340 -0.0823 -0.0579
 1407TIP3   OH225855   1.309   5.434   7.554 -0.3436  0.4440 -0.6230
 1407TIP3    H125856   1.222   5.440   7.592  0.1253  1.8643  0.2909
 1407TIP3    H225857   1.359   5.504   7.596  0.8797  0.5092 -2.0885
 1408TIP3   OH225858   4.498   5.976   2.614 -0.2732  0.0051  0.2319
 1408TIP3    H125859   4.469   5.932   2.534  1.4266  0.2766 -0.5744
 1408TIP3    H225860   4.498   5.907   2.681 -0.8026 -0.4421 -0.2158
 1409TIP3   OH225861   1.620   6.562   7.148  0.1924 -0.3668  0.3685
 1409TIP3    H125862   1.675   6.505   7.095  0.6313  1.8619 -1.7601
 1409TIP3    H225863   1.587   6.627   7.086 -2.1060  0.3767  2.2376
 1410TIP3   OH225864   1.616   2.493   7.224 -0.2550 -0.1788  0.0033
 1410TIP3    H125865   1.613   2.421   7.161 -0.6891  1.1922 -1.6009
 1410TIP3    H225866   1.576   2.456   7.303  0.6136 -2.0450 -0.3673
 1411TIP3   OH225867   3.328   1.704   2.363 -0.3216  0.0940  0.6161
 1411TIP3    H125868   3.323   1.677   2.455 -1.0733  1.6122  1.0660
 1411TIP3    H225869   3.293   1.794   2.363 -2.1767 -0.5381 -1.4354
 1412TIP3   OH225870   6.393   2.559   1.247 -0.1966 -0.8172 -0.4183
 1412TIP3    H125871   6.355   2.533   1.163 -0.7054  1.0594 -0.8188
 1412TIP3    H225872   6.455   2.629   1.225  0.7942 -1.3349  0.6233
 1413TIP3   OH225873   4.265   3.330   2.144 -0.0975 -0.0018  0.6440
 1413TIP3    H125874   4.258   3.347   2.238 -0.5266  1.6130  0.3553
 1413TIP3    H225875   4.299   3.241   2.138 -1.0909 -0.5437  2.3178
 1414TIP3   OH225876   5.197   4.514   1.487  0.3826  0.0223 -0.4670
 1414TIP3    H125877   5.178   4.488   1.397  2.6007 -0.5509 -0.8393
 1414TIP3    H225878   5.238   4.436   1.526  2.2530  1.2214  0.0622
 1415TIP3   OH225879   4.170   6.874   6.667 -0.0011  0.3942  0.0801
 1415TIP3    H125880   4.154   6.966   6.645 -0.6225  0.3836  0.4712
 1415TIP3    H225881   4.160   6.870   6.762  1.3468  0.1730  0.2396
 1416TIP3   OH225882   4.778   4.157   2.067 -0.2655  0.5131 -0.5374
 1416TIP3    H125883   4.850   4.099   2.092 -0.5524 -0.5876 -2.1267
 1416TIP3    H225884   4.704   4.126   2.119  0.4770  2.0714  1.6100
 1417TIP3   OH225885   6.469   6.434   1.173  0.2005  0.4598  0.4724
 1417TIP3    H125886   6.452   6.376   1.099 -1.9688 -1.6489  2.4301
 1417TIP3    H225887   6.409   6.404   1.241  0.4963  3.7100  2.3842
 1418TIP3   OH225888   2.459   4.140   6.923  0.2578  0.4964 -0.0280
 1418TIP3    H125889   2.386   4.194   6.896 -2.8139 -0.9070  4.2940
 1418TIP3    H225890   2.495   4.184   7.000 -1.0507 -2.2824  2.3947
 1419TIP3   OH225891   0.827   5.628   7.434 -0.1838  0.2177 -0.0738
 1419TIP3    H125892   0.836   5.666   7.521 -1.3796 -2.3640  1.2968
 1419TIP3    H225893   0.791   5.540   7.449  1.2980 -1.0666 -3.0455
 1420TIP3   OH225894   6.326   2.217   6.827  0.2000 -0.1059 -0.1130
 1420TIP3    H125895   6.256   2.274   6.794 -0.7423 -1.1393  0.0492
 1420TIP3    H225896   6.351   2.164   6.752  2.6751  1.9864 -0.9077
 1421TIP3   OH225897   2.944   4.655   1.635 -0.4919  0.1107 -0.1053
 1421TIP3    H125898   2.910   4.736   1.598 -1.0983  0.1824  0.5906
 1421TIP3    H225899   3.031   4.677   1.667  0.3683 -0.1268 -2.1005
 1422TIP3   OH225900   6.577   5.288   1.733 -0.5063 -0.0229  0.5753
 1422TIP3    H125901   6.486   5.298   1.761 -1.2818 -1.5563 -1.2075
 1422TIP3    H225902   6.573   5.277   1.638  1.7088  1.4694  0.2175
 1423TIP3   OH225903   2.922   4.929   1.766  0.0521  0.9064  0.0771
 1423TIP3    H125904   2.916   4.994   1.836 -0.4011 -1.2355  2.1872
 1423TIP3    H225905   2.862   4.859   1.793  2.5399 -1.6951 -0.5597
 1424TIP3   OH225906   2.000   3.636   7.282 -0.1238  0.2572 -0.0434
 1424TIP3    H125907   1.987   3.548   7.249 -1.4798  0.5779 -0.4538
 1424TIP3    H225908   1.988   3.628   7.377 -1.9620  0.2343 -0.2303
 1425TIP3   OH225909   1.273   1.836   1.645 -0.4164 -0.0258  0.2027
 1425TIP3    H125910   1.298   1.745   1.665  0.7195  0.5492  1.5939
 1425TIP3    H225911   1.346   1.871   1.595  1.0135  1.1957  2.9288
 1426TIP3   OH225912   1.365   3.405   1.504 -0.4469 -0.1427  0.1510
 1426TIP3    H125913   1.326   3.352   1.434 -0.6466 -1.3313  1.1371
 1426TIP3    H225914   1.292   3.457   1.539 -0.0137  1.8481 -1.6694
 1427TIP3   OH225915   4.539   0.566   2.000 -0.8225 -0.1042  0.0671
 1427TIP3    H125916   4.598   0.631   1.962 -1.4827  0.3003 -0.2861
 1427TIP3    H225917   4.515   0.602   2.085 -0.5253 -0.2947  0.2341
 1428TIP3   OH225918   5.799   4.632   0.483  0.1658 -0.0924 -0.9231
 1428TIP3    H125919   5.708   4.632   0.512  0.8320  1.7781  1.4773
 1428TIP3    H225920   5.814   4.542   0.453 -1.2237 -1.8850  3.0336
 1429TIP3   OH225921   6.466   1.270   7.873  0.4180 -0.4754  0.4925
 1429TIP3    H125922   6.423   1.292   7.791 -0.3626 -1.2545  0.6751
 1429TIP3    H225923   6.425   1.188   7.901  2.3632 -1.5538  0.4239
 1430TIP3   OH225924   1.698   4.233   1.338  0.1825  0.4678 -0.1189
 1430TIP3    H125925   1.656   4.245   1.253  0.0682  1.9694  0.1155
 1430TIP3    H225926   1.667   4.147   1.368 -1.2283  0.7072 -0.7918
 1431TIP3   OH225927   4.614   4.375   8.345 -1.0526 -0.0281 -0.0579
 1431TIP3    H125928   4.567   4.335   8.272  0.9844  1.3377 -2.2644
 1431TIP3    H225929   4.706   4.365   8.324 -0.4078  2.0048  1.4093
 1432TIP3   OH225930   5.726   0.457   1.490 -1.0188  0.7222 -0.5392
 1432TIP3    H125931   5.783   0.458   1.566 -3.7213  1.8919  1.6505
 1432TIP3    H225932   5.680   0.373   1.495 -0.8434  0.5760 -1.2215
 1433TIP3   OH225933   2.731   3.967   0.831  0.5847  0.3128 -0.3710
 1433TIP3    H125934   2.766   4.042   0.784  0.9289  0.4426  0.0897
 1433TIP3    H225935   2.637   3.967   0.810  0.4756  1.1985  0.0724
 1434TIP3   OH225936   4.199   2.760   2.822  0.5134  0.4757  0.4694
 1434TIP3    H125937   4.282   2.807   2.811  0.3344  0.5062 -1.0020
 1434TIP3    H225938   4.225   2.668   2.827  0.6653  0.5116  0.3622
 1435TIP3   OH225939   6.572   2.595   2.396  0.5611 -0.3077  0.4523
 1435TIP3    H125940   6.667   2.603   2.395  0.5567 -0.2449  0.5231
 1435TIP3    H225941   6.553   2.523   2.336  0.5279  1.1914 -1.4423
 1436TIP3   OH225942   3.131   5.707   0.251  0.3569 -0.1055 -0.0816
 1436TIP3    H125943   3.119   5.801   0.243  1.3674 -0.0943 -2.4528
 1436TIP3    H225944   3.043   5.671   0.253 -0.2220  0.9563  4.5213
 1437TIP3   OH225945   3.003   4.853   7.918  0.4849  0.0497  0.2675
 1437TIP3    H125946   2.953   4.771   7.918  0.1337  0.2518 -0.8309
 1437TIP3    H225947   2.993   4.888   7.829  0.4777  1.3789  0.7646
 1438TIP3   OH225948   0.721   2.452   0.419  0.2013  0.1231 -0.0014
 1438TIP3    H125949   0.752   2.490   0.337 -1.1593  0.9112 -0.1800
 1438TIP3    H225950   0.791   2.468   0.481  1.0803 -0.1239 -0.9080
 1439TIP3   OH225951   1.541   0.408   0.190 -0.0649  0.2043 -0.2531
 1439TIP3    H125952   1.518   0.366   0.273  0.7147  0.9063  0.3318
 1439TIP3    H225953   1.634   0.388   0.178 -0.5464 -1.3425 -1.8429
 1440TIP3   OH225954   4.128   3.104   8.038 -0.3413  0.1980 -0.0383
 1440TIP3    H125955   4.201   3.074   7.984 -1.5117 -1.7385 -0.6594
 1440TIP3    H225956   4.164   3.110   8.127  0.5810 -0.7389 -0.3315
 1441TIP3   OH225957   2.666   0.863   2.629 -0.3709 -0.1079 -0.0425
 1441TIP3    H125958   2.619   0.843   2.710 -2.0863 -0.4850 -1.0638
 1441TIP3    H225959   2.676   0.778   2.586  0.9256  0.0272 -0.0269
 1442TIP3   OH225960   4.009   5.407   6.301 -0.4278  0.1029 -0.4453
 1442TIP3    H125961   4.010   5.481   6.362 -0.3982 -0.9334  0.8545
 1442TIP3    H225962   3.949   5.344   6.341  0.2090 -0.9370 -1.0914
 1443TIP3   OH225963   5.301   5.628   0.162  0.7866  0.4824 -0.0670
 1443TIP3    H125964   5.299   5.534   0.181 -2.6497  0.7749  1.7163
 1443TIP3    H225965   5.359   5.665   0.230  1.0794 -0.1889  0.0539
 1444TIP3   OH225966   3.007   2.332   1.703  0.4111 -0.3805 -0.4854
 1444TIP3    H125967   3.034   2.359   1.615  0.2341 -2.1436 -1.1207
 1444TIP3    H225968   3.085   2.345   1.756  1.2089 -1.2728 -1.3772
 1445TIP3   OH225969   3.361   5.252   6.508 -0.2708  0.4583  0.3202
 1445TIP3    H125970   3.300   5.324   6.519  0.1168  0.7970  0.2961
 1445TIP3    H225971   3.311   5.174   6.532 -1.2856  0.4812 -1.5417
 1446TIP3   OH225972   2.069   6.996   6.632 -0.8674 -0.6938  0.3856
 1446TIP3    H125973   2.028   6.947   6.561  1.5310 -0.8442 -1.0332
 1446TIP3    H225974   2.073   6.935   6.705  1.2971 -2.4917 -1.0791
 1447TIP3   OH225975   1.603   1.045   1.720 -0.0830 -0.1392  0.1901
 1447TIP3    H125976   1.590   0.951   1.733 -1.6235  0.3055  2.4906
 1447TIP3    H225977   1.619   1.080   1.808 -0.6775  1.8838 -0.4489
 1448TIP3   OH225978   2.576   4.103   1.738 -0.0850 -0.0768 -0.3556
 1448TIP3    H125979   2.585   4.141   1.826 -0.7426 -1.0089  0.1382
 1448TIP3    H225980   2.594   4.010   1.751 -2.4057 -0.6379 -0.7492
 1449TIP3   OH225981   5.769   2.938   1.913  0.4248  0.0498 -0.6652
 1449TIP3    H125982   5.777   2.933   1.818  0.1105  3.1432 -0.9598
 1449TIP3    H225983   5.685   2.981   1.928  1.9095  2.6710  0.8208
 1450TIP3   OH225984   3.110   5.077   0.968  0.1585 -0.1996 -0.0519
 1450TIP3    H125985   3.094   5.168   0.943  0.2536  0.1676  1.1608
 1450TIP3    H225986   3.029   5.049   1.010 -0.1628 -0.9552 -1.1317
 1451TIP3   OH225987   3.015   3.511   2.025 -0.5740  0.2238  0.4333
 1451TIP3    H125988   3.001   3.421   1.996  2.7191 -0.5440  0.8423
 1451TIP3    H225989   2.960   3.520   2.103 -1.5884 -1.1048 -0.0784
 1452TIP3   OH225990   5.494   4.900   6.579  0.2678 -0.3312 -0.0485
 1452TIP3    H125991   5.505   4.816   6.533 -0.7385  0.4693 -1.8294
 1452TIP3    H225992   5.583   4.934   6.588  0.7524 -1.7737  1.1597
 1453TIP3   OH225993   0.747   5.445   3.037 -0.5266 -0.5816  0.0352
 1453TIP3    H125994   0.792   5.361   3.044  0.1631 -0.2041  0.2552
 1453TIP3    H225995   0.807   5.500   2.986 -0.1756  0.3066  1.3746
 1454TIP3   OH225996   1.257   4.112   0.599  0.5396 -0.3640  0.0452
 1454TIP3    H125997   1.187   4.144   0.541  0.3414 -1.1697 -0.1711
 1454TIP3    H225998   1.337   4.124   0.549  0.4684 -0.2205 -0.0363
 1455TIP3   OH225999   3.976   5.547   1.873  0.1936 -0.7460 -0.0009
 1455TIP3    H126000   4.069   5.524   1.870 -0.3837 -3.2785 -0.0883
 1455TIP3    H226001   3.930   5.464   1.887 -2.1318  0.2858 -0.9464
 1456TIP3   OH226002   1.065   4.310   1.324 -0.3907  0.4495  0.3895
 1456TIP3    H126003   1.071   4.315   1.229  2.4792 -0.6717  0.4300
 1456TIP3    H226004   1.155   4.319   1.355 -1.2870  1.1933  3.0553
 1457TIP3   OH226005   2.683   3.144   0.965 -0.0929 -0.1336  0.7216
 1457TIP3    H126006   2.719   3.160   1.052  0.3731 -1.8389  0.8679
 1457TIP3    H226007   2.595   3.182   0.968 -0.7502 -1.6789  2.5165
 1458TIP3   OH226008   1.912   6.456   1.687  0.3240 -0.8053 -0.1930
 1458TIP3    H126009   2.002   6.423   1.678 -0.0987 -1.6493 -1.7008
 1458TIP3    H226010   1.860   6.377   1.703 -0.1617 -0.3106  0.7514
 1459TIP3   OH226011   5.928   1.872   1.747  0.0520 -0.0976  0.3244
 1459TIP3    H126012   5.988   1.922   1.692  0.4644  1.0106  1.7165
 1459TIP3    H226013   5.980   1.849   1.824 -0.9232 -0.3342  0.9230
 1460TIP3   OH226014   5.981   6.517   2.620  0.1785  0.1893 -0.5904
 1460TIP3    H126015   6.003   6.426   2.602  1.8684  0.4452  0.0318
 1460TIP3    H226016   5.891   6.527   2.589 -0.2800 -1.8693 -0.0482
 1461TIP3   OH226017   5.141   6.224   2.411  0.5955  0.2740  0.3345
 1461TIP3    H126018   5.136   6.242   2.505 -1.5897 -0.1812  0.3539
 1461TIP3    H226019   5.089   6.145   2.399  1.0487  0.1859 -1.2435
 1462TIP3   OH226020   2.223   0.849   2.287 -0.2794  0.1771 -0.3210
 1462TIP3    H126021   2.319   0.851   2.291 -0.2590  1.6762 -1.0360
 1462TIP3    H226022   2.195   0.919   2.346 -0.9518 -0.4113  0.0671
 1463TIP3   OH226023   5.581   5.217   1.353  0.1895  0.3887 -0.1579
 1463TIP3    H126024   5.607   5.282   1.287 -1.2274  2.0712  0.8631
 1463TIP3    H226025   5.521   5.159   1.306  0.1571  0.8156 -0.6551
 1464TIP3   OH226026   2.594   1.144   2.796  0.0802  0.6329 -0.2562
 1464TIP3    H126027   2.640   1.193   2.727  0.3186  0.7186 -0.0386
 1464TIP3    H226028   2.538   1.210   2.838 -0.4965  0.4560 -0.7374
 1465TIP3   OH226029   0.177   3.972   1.116  0.1361 -0.1378  0.4994
 1465TIP3    H126030   0.123   3.894   1.107 -1.0243  0.7351 -0.3648
 1465TIP3    H226031   0.181   3.988   1.211 -0.4969 -0.6479  0.6160
 1466TIP3   OH226032   3.274   2.031   8.281 -0.5469  0.1587 -0.0568
 1466TIP3    H126033   3.304   2.096   8.345  0.2903  0.4150 -0.6968
 1466TIP3    H226034   3.324   1.952   8.302 -2.4323 -0.7048  1.5038
 1467TIP3   OH226035   6.103   0.861   1.877 -0.5788  0.9363  0.4873
 1467TIP3    H126036   6.008   0.862   1.888 -1.0171 -3.1476 -1.1104
 1467TIP3    H226037   6.136   0.818   1.956 -0.2617  0.6430  0.1982
 1468TIP3   OH226038   2.195   4.641   8.185 -0.2204 -0.2020 -0.3906
 1468TIP3    H126039   2.181   4.719   8.131  0.9380  0.5363  0.3526
 1468TIP3    H226040   2.171   4.669   8.273  0.5872 -0.5652 -0.0528
 1469TIP3   OH226041   2.444   4.817   8.225 -0.5997  0.7142 -0.7430
 1469TIP3    H126042   2.438   4.722   8.234 -2.8601  0.8149 -0.4825
 1469TIP3    H226043   2.423   4.834   8.133  0.0457  0.9454 -0.8485
 1470TIP3   OH226044   3.722   0.042   7.661  0.6242  0.3239 -0.1184
 1470TIP3    H126045   3.808   0.072   7.690  0.7942 -0.4920  0.2443
 1470TIP3    H226046   3.670   0.123   7.654  1.1999  0.7527  0.3839
 1471TIP3   OH226047   6.564   5.055   6.884  0.4433  0.5453 -0.5058
 1471TIP3    H126048   6.650   5.024   6.854  0.6720  2.4206 -1.9752
 1471TIP3    H226049   6.584   5.128   6.943 -0.1214 -0.5400  1.0836
 1472TIP3   OH226050   6.691   3.293   1.458 -0.3567 -0.3743  0.3534
 1472TIP3    H126051   6.598   3.313   1.452 -0.2104  1.2655  2.3620
 1472TIP3    H226052   6.735   3.377   1.444  0.7016 -0.7130  1.3914
 1473TIP3   OH226053   4.382   6.078   0.321 -0.8632  0.0103  0.7684
 1473TIP3    H126054   4.331   5.997   0.326 -1.0240  0.1768  3.3845
 1473TIP3    H226055   4.432   6.079   0.403  0.0822  1.9565  0.2130
 1474TIP3   OH226056   4.364   5.038   7.493  0.2816  0.6493 -0.0498
 1474TIP3    H126057   4.434   5.006   7.550 -0.0846 -1.5391 -0.7395
 1474TIP3    H226058   4.284   5.006   7.534 -0.1177  0.7852 -0.7200
 1475TIP3   OH226059   0.067   1.901   7.164  0.3864  0.3849  0.4195
 1475TIP3    H126060   0.010   1.873   7.093 -1.9236  1.8722  1.5796
 1475TIP3    H226061   0.135   1.954   7.122 -0.0836  0.0475 -0.8026
 1476TIP3   OH226062   1.696   0.991   0.441  0.0041 -0.3054  0.3243
 1476TIP3    H126063   1.604   0.985   0.468 -0.5846 -1.4214 -1.7678
 1476TIP3    H226064   1.694   1.041   0.360  1.1935 -0.7843 -0.0144
 1477TIP3   OH226065   1.672   5.219   1.641  0.1691  0.0413 -0.0872
 1477TIP3    H126066   1.703   5.133   1.672 -0.1955 -0.0139  0.1287
 1477TIP3    H226067   1.617   5.252   1.712 -1.1543 -0.3434 -0.8916
 1478TIP3   OH226068   6.255   6.521   7.499  0.1534  0.0011 -0.0727
 1478TIP3    H126069   6.340   6.523   7.454  1.6775 -1.0328  2.4999
 1478TIP3    H226070   6.268   6.459   7.571 -1.9936  1.6667  1.8954
 1479TIP3   OH226071   6.106   1.662   8.194  0.0801  0.4226 -0.7137
 1479TIP3    H126072   6.086   1.615   8.275  1.7013  0.3517 -0.3158
 1479TIP3    H226073   6.136   1.594   8.134  2.7154  0.8751 -0.0449
 1480TIP3   OH226074   6.142   3.869   6.536  0.3309 -0.2912 -0.0852
 1480TIP3    H126075   6.169   3.798   6.594 -0.5691  1.5816  2.8460
 1480TIP3    H226076   6.224   3.902   6.498  1.0106 -1.1663  0.5895
 1481TIP3   OH226077   2.858   2.501   0.484  0.6282 -0.2901  0.0609
 1481TIP3    H126078   2.931   2.526   0.428  0.0313 -0.2351 -0.7137
 1481TIP3    H226079   2.835   2.581   0.532 -0.0326  0.1693 -0.9842
 1482TIP3   OH226080   1.992   1.391   1.472 -0.3111  0.4768  0.1605
 1482TIP3    H126081   2.003   1.464   1.534 -1.5333  0.2423  0.6917
 1482TIP3    H226082   1.897   1.378   1.468 -0.2041  0.0033 -1.2245
 1483TIP3   OH226083   2.120   6.326   8.312 -0.6248  0.4579 -0.2505
 1483TIP3    H126084   2.196   6.375   8.283 -0.6037  0.3637 -0.3583
 1483TIP3    H226085   2.113   6.343   8.405 -0.7476  0.8413 -0.3304
 1484TIP3   OH226086   1.808   3.481   7.966 -0.2884  0.1074  0.7608
 1484TIP3    H126087   1.726   3.511   7.927 -0.4916  1.2253  1.9728
 1484TIP3    H226088   1.837   3.409   7.910 -0.3805  1.8313 -1.6609
 1485TIP3   OH226089   2.108   2.377   6.892 -0.0049 -0.3580 -0.5560
 1485TIP3    H126090   2.071   2.410   6.810 -0.8260  1.3525  0.4554
 1485TIP3    H226091   2.093   2.447   6.956  3.7902 -0.0918  0.2813
 1486TIP3   OH226092   4.589   5.269   0.123 -0.3131  0.1241  0.2178
 1486TIP3    H126093   4.578   5.213   0.199 -0.6344 -0.0724  0.0279
 1486TIP3    H226094   4.582   5.210   0.048 -1.9946  0.6052 -0.0394
 1487TIP3   OH226095   0.339   5.501   7.673  0.1476  0.0130  0.5031
 1487TIP3    H126096   0.406   5.569   7.658 -2.1451  2.5104  0.8501
 1487TIP3    H226097   0.332   5.495   7.768 -1.1300  0.8813  0.4792
 1488TIP3   OH226098   2.291   4.881   1.191 -0.1149 -0.0303 -0.0040
 1488TIP3    H126099   2.265   4.931   1.268  1.3920  1.2880 -0.3056
 1488TIP3    H226100   2.287   4.789   1.220  2.2813  0.4787  2.3355
 1489TIP3   OH226101   5.511   1.850   1.526  0.6789  0.1103  0.0064
 1489TIP3    H126102   5.488   1.777   1.583  1.6703 -1.0778 -1.0203
 1489TIP3    H226103   5.462   1.834   1.445  0.7564  0.6920 -0.1633
 1490TIP3   OH226104   1.815   6.173   8.040 -0.4895 -0.6235 -0.3715
 1490TIP3    H126105   1.903   6.150   8.069 -0.6724 -0.1842  0.5855
 1490TIP3    H226106   1.817   6.269   8.031 -1.0631 -0.5361  0.3589
 1491TIP3   OH226107   4.858   4.123   0.114 -0.1498 -0.6768 -0.4962
 1491TIP3    H126108   4.907   4.129   0.033 -1.0749 -0.6250 -1.0708
 1491TIP3    H226109   4.818   4.036   0.112 -0.0711 -0.7289 -0.0291
 1492TIP3   OH226110   5.784   0.032   7.492 -0.4961  0.2389  0.7618
 1492TIP3    H126111   5.804   0.059   7.581 -1.5864  0.2085  1.0274
 1492TIP3    H226112   5.810  -0.060   7.488  0.0861  0.3919  0.8632
 1493TIP3   OH226113   1.952   5.704   1.971 -0.2497  0.6809  0.0799
 1493TIP3    H126114   1.962   5.655   1.890  1.4285  1.1528 -0.0259
 1493TIP3    H226115   1.858   5.721   1.977 -0.4387  0.3746 -1.6087
 1494TIP3   OH226116   4.188   0.634   7.671 -0.2764 -0.0375  0.1603
 1494TIP3    H126117   4.271   0.623   7.717  0.1453  0.4884 -0.4730
 1494TIP3    H226118   4.128   0.666   7.738  0.3057  0.6222  0.3754
 1495TIP3   OH226119   0.489   0.332   7.409  0.4145  0.5393  0.4405
 1495TIP3    H126120   0.580   0.356   7.395  0.7285 -1.1141 -0.5398
 1495TIP3    H226121   0.441   0.383   7.344  1.2197 -2.2359 -2.5933
 1496TIP3   OH226122   3.238   1.128   1.328  0.8105 -0.0297  0.0896
 1496TIP3    H126123   3.149   1.156   1.304  1.6323  1.0233 -2.0280
 1496TIP3    H226124   3.295   1.193   1.287  2.5983 -1.0781  0.7990
 1497TIP3   OH226125   1.159   1.611   1.036  0.5101 -0.0817 -0.1304
 1497TIP3    H126126   1.193   1.610   1.126  1.2741 -0.0300 -0.4075
 1497TIP3    H226127   1.137   1.520   1.017  1.6188 -0.3252 -0.3426
 1498TIP3   OH226128   4.795   0.078   0.341 -0.3089 -0.0785  0.1019
 1498TIP3    H126129   4.714   0.129   0.348  0.6698  1.3518  2.2672
 1498TIP3    H226130   4.843   0.119   0.269 -1.1131 -0.3527 -0.6021
 1499TIP3   OH226131   5.791   2.577   8.051 -0.2748 -0.3271  0.0580
 1499TIP3    H126132   5.785   2.672   8.064 -0.0335 -0.3563  0.3790
 1499TIP3    H226133   5.717   2.556   7.993 -0.4785  0.0184  0.1891
 1500TIP3   OH226134   4.347   4.376   0.845  0.2332 -0.0654 -0.1298
 1500TIP3    H126135   4.299   4.459   0.851  2.4583  1.2058  2.0324
 1500TIP3    H226136   4.383   4.375   0.757 -0.0827  1.1046 -0.2837
 1501TIP3   OH226137   3.313   1.950   0.707  0.0262 -0.4544  0.7520
 1501TIP3    H126138   3.273   2.004   0.776 -1.3363  0.9390 -1.0217
 1501TIP3    H226139   3.400   1.988   0.695  0.2885 -0.7295  1.6961
 1502TIP3   OH226140   1.835   1.113   6.779 -0.2537  0.2957 -0.1468
 1502TIP3    H126141   1.825   1.107   6.684 -1.6681  0.3385 -0.0167
 1502TIP3    H226142   1.909   1.172   6.791  2.6188 -2.7469 -1.2473
 1503TIP3   OH226143   4.189   0.746   8.252 -0.0604 -0.2092  0.3814
 1503TIP3    H126144   4.213   0.673   8.195 -0.0800 -0.6637  0.9460
 1503TIP3    H226145   4.135   0.803   8.197  0.5936 -0.2308 -0.2839
 1504TIP3   OH226146   1.877   3.803   0.547 -0.3952  0.3379 -0.7133
 1504TIP3    H126147   1.927   3.884   0.533  1.2642 -0.6673 -0.8870
 1504TIP3    H226148   1.861   3.802   0.642  2.0775 -0.4643 -0.2300
 1505TIP3   OH226149   3.084   4.227   0.538  0.1937 -0.2142  0.1055
 1505TIP3    H126150   3.155   4.277   0.579  0.3348 -0.7124  0.4748
 1505TIP3    H226151   3.035   4.292   0.488 -0.1464  0.4578  1.2802
 1506TIP3   OH226152   1.925   6.007   0.291 -0.4343  0.3309  1.1953
 1506TIP3    H126153   1.968   6.087   0.322 -2.2995  1.0695  2.0753
 1506TIP3    H226154   1.960   5.938   0.347 -0.3293  0.9019  1.8601
 1507TIP3   OH226155   3.306   6.965   1.395  0.8018 -0.3535  0.1382
 1507TIP3    H126156   3.377   7.020   1.361  0.4720 -0.0380 -0.0493
 1507TIP3    H226157   3.254   7.023   1.449  0.2256 -0.3795 -0.3779
 1508TIP3   OH226158   2.644   1.299   8.180  0.2809 -0.4218 -0.3722
 1508TIP3    H126159   2.579   1.235   8.209  0.0836  0.1010  0.4012
 1508TIP3    H226160   2.595   1.382   8.177  0.6629 -0.2124 -0.8049
 1509TIP3   OH226161   0.165   4.166   7.121  0.2672  0.0177 -0.1367
 1509TIP3    H126162   0.090   4.109   7.108  0.5568 -0.6612  0.9569
 1509TIP3    H226163   0.178   4.210   7.037 -0.9758 -0.2961 -0.5052
 1510TIP3   OH226164   6.230   2.879   6.750 -0.4367  0.1760 -0.3484
 1510TIP3    H126165   6.162   2.841   6.806 -0.3919 -0.2070 -0.5512
 1510TIP3    H226166   6.183   2.911   6.673 -0.5110  0.7921 -0.0519
 1511TIP3   OH226167   5.631   5.892   2.940  0.0160  0.8094 -0.1324
 1511TIP3    H126168   5.720   5.867   2.964 -1.1845 -1.9913  1.8123
 1511TIP3    H226169   5.641   5.981   2.906  3.3237  1.2531  1.5182
 1512TIP3   OH226170   1.114   5.881   7.784 -0.1788  0.8015  0.3563
 1512TIP3    H126171   1.202   5.855   7.809 -0.7014 -1.4832  0.1086
 1512TIP3    H226172   1.126   5.944   7.713  1.2777 -0.6913 -0.7881
 1513TIP3   OH226173   6.798   3.225   7.161 -0.0840 -0.2697  0.4723
 1513TIP3    H126174   6.772   3.133   7.156 -0.6591 -0.0504 -1.6315
 1513TIP3    H226175   6.746   3.268   7.093 -1.7738  2.1182  3.0425
 1514TIP3   OH226176   0.026   0.939   0.273  0.7359 -0.0287  0.5376
 1514TIP3    H126177  -0.014   1.005   0.330  0.1276 -0.0953  0.1890
 1514TIP3    H226178   0.025   0.978   0.186 -0.9832 -1.0659  0.0539
 1515TIP3   OH226179   3.302   6.416   6.935  0.2023  0.0290  0.3158
 1515TIP3    H126180   3.351   6.457   7.007  0.9799  2.7646 -1.6180
 1515TIP3    H226181   3.370   6.384   6.876 -0.3136  1.3683 -1.0544
 1516TIP3   OH226182   3.063   1.135   0.953  0.1709 -0.1087  0.1591
 1516TIP3    H126183   3.098   1.046   0.964 -0.0837 -0.3564 -0.9372
 1516TIP3    H226184   2.980   1.122   0.908  0.1890  0.6961 -0.1062
 1517TIP3   OH226185   6.521   0.863   6.641 -0.0723  1.0611  0.2711
 1517TIP3    H126186   6.508   0.825   6.728 -3.7222  2.7541  0.6451
 1517TIP3    H226187   6.596   0.814   6.605 -0.9464 -2.5347  2.7378
 1518TIP3   OH226188   0.915   4.698   7.341 -0.6380 -0.0401 -0.3307
 1518TIP3    H126189   0.842   4.640   7.318 -0.0442 -0.6241 -0.7577
 1518TIP3    H226190   0.904   4.773   7.283  0.6724 -1.3675 -2.4295
 1519TIP3   OH226191   5.365   3.651   0.143  0.1358 -0.5539 -0.7146
 1519TIP3    H126192   5.459   3.632   0.145  0.1550 -0.5052 -1.0712
 1519TIP3    H226193   5.359   3.737   0.101  0.0146  0.0029  0.4069
 1520TIP3   OH226194   6.073   1.588   1.914 -0.0142  0.6904  0.3975
 1520TIP3    H126195   6.148   1.643   1.939  0.5149 -0.3235  1.1293
 1520TIP3    H226196   6.026   1.573   1.996  0.8593 -1.3874  0.5920
 1521TIP3   OH226197   0.587   4.636   2.237 -0.0948  0.2620  1.1038
 1521TIP3    H126198   0.593   4.543   2.215 -2.6930 -0.0875  1.5198
 1521TIP3    H226199   0.564   4.679   2.154 -1.4184  0.1444  1.3922
 1522TIP3   OH226200   6.975   6.944   7.850  0.5957 -0.7065  0.2720
 1522TIP3    H126201   7.001   6.854   7.867  0.5462 -0.8391 -0.3619
 1522TIP3    H226202   6.950   6.946   7.758 -0.8019 -0.3750  0.6394
 1523TIP3   OH226203   2.390   6.321   8.230  0.0507  0.3396 -0.0585
 1523TIP3    H126204   2.458   6.352   8.290  0.8505 -0.7643 -0.3739
 1523TIP3    H226205   2.420   6.350   8.143 -1.9450  3.4878  0.1068
 1524TIP3   OH226206   3.080   2.268   0.776  0.0781  0.5536 -0.6485
 1524TIP3    H126207   3.131   2.225   0.845  0.0040  0.9714 -0.3262
 1524TIP3    H226208   2.993   2.278   0.814  0.0025  0.6739 -0.8516
 1525TIP3   OH226209   6.420   1.735   6.541  0.0257  0.0889 -0.4783
 1525TIP3    H126210   6.346   1.720   6.600  0.7859 -0.4788  0.3512
 1525TIP3    H226211   6.497   1.717   6.594  0.7905  1.2397 -1.1661
 1526TIP3   OH226212   0.014   1.232   7.994  0.5835 -0.1118 -0.2607
 1526TIP3    H126213  -0.005   1.262   7.905  1.2364 -0.3681 -0.4967
 1526TIP3    H226214  -0.047   1.159   8.008 -0.9841  1.2415  0.3036
 1527TIP3   OH226215   3.160   0.789   8.109  0.1846 -0.1264 -0.3167
 1527TIP3    H126216   3.169   0.885   8.108 -0.1560 -0.0812  0.3255
 1527TIP3    H226217   3.250   0.757   8.108  0.2911  0.1892 -1.1871
 1528TIP3   OH226218   1.216   1.901   7.677  0.0546  0.0355  0.6710
 1528TIP3    H126219   1.279   1.843   7.720  1.5140  0.0113 -1.3472
 1528TIP3    H226220   1.137   1.849   7.670  0.2375 -0.4618  1.9592
 1529TIP3   OH226221   0.919   6.481   2.098 -0.3148  0.1545  0.4422
 1529TIP3    H126222   0.992   6.480   2.036 -1.0951 -0.2883 -0.4912
 1529TIP3    H226223   0.863   6.552   2.067 -0.7705 -0.1517  0.5653
 1530TIP3   OH226224   0.813   0.288   0.593  0.5645 -0.0635 -0.4335
 1530TIP3    H126225   0.900   0.314   0.565  1.2919  0.0608  1.7239
 1530TIP3    H226226   0.770   0.369   0.619  0.4082 -0.2875  0.0336
 1531TIP3   OH226227   2.284   6.066   0.019 -0.0930  0.1908  0.0497
 1531TIP3    H126228   2.302   6.085  -0.074  0.8982  0.9925  0.3910
 1531TIP3    H226229   2.357   6.106   0.066 -0.3151 -0.6664  1.1496
 1532TIP3   OH226230   1.619   4.604   7.588 -0.0932  0.2898 -0.1567
 1532TIP3    H126231   1.630   4.578   7.679 -2.0298 -1.0965 -0.2405
 1532TIP3    H226232   1.706   4.631   7.559  0.5345  0.8851  2.1218
 1533TIP3   OH226233   2.375   6.692   7.484  0.0254  0.3445 -0.0655
 1533TIP3    H126234   2.447   6.717   7.543  0.3837 -0.2510 -0.2340
 1533TIP3    H226235   2.353   6.773   7.437  1.5775  0.2472 -1.0565
 1534TIP3   OH226236   2.880   4.923   1.052  0.1885  0.0024 -0.0652
 1534TIP3    H126237   2.857   4.831   1.039  1.7856 -0.4932  0.4224
 1534TIP3    H226238   2.833   4.948   1.131  0.4464 -0.6759  0.3149
 1535TIP3   OH226239   1.483   3.350   0.436 -0.0130  0.2227 -0.5400
 1535TIP3    H126240   1.509   3.423   0.492 -0.9252  0.0442  0.1329
 1535TIP3    H226241   1.553   3.286   0.446 -0.7193 -0.3115  1.3349
 1536TIP3   OH226242   0.591   4.813   7.758  0.3973 -0.1897  0.1640
 1536TIP3    H126243   0.609   4.836   7.667  1.5438 -0.2706  0.3500
 1536TIP3    H226244   0.559   4.723   7.754  0.2116 -0.1096 -0.1761
 1537TIP3   OH226245   0.848   3.495   1.496 -0.0748  0.0271 -0.2031
 1537TIP3    H126246   0.774   3.528   1.548 -0.3208 -0.3313 -0.3171
 1537TIP3    H226247   0.832   3.528   1.408 -0.6673 -0.9049 -0.4623
 1538TIP3   OH226248   2.771   0.005   7.577  0.1178  0.0633 -0.1930
 1538TIP3    H126249   2.800   0.058   7.652  3.4135 -0.0415 -1.2387
 1538TIP3    H226250   2.805   0.051   7.501  1.2793 -2.4408 -1.2688
 1539TIP3   OH226251   0.364   1.952   0.714 -0.9329  0.2053  0.4486
 1539TIP3    H126252   0.434   1.964   0.778 -2.1294 -1.4271  2.1603
 1539TIP3    H226253   0.292   2.007   0.746 -1.8514 -1.2957  1.0738
 1540TIP3   OH226254   5.044   5.821   0.494 -0.1719 -0.7758 -0.2188
 1540TIP3    H126255   5.004   5.872   0.424 -1.5520  0.6724  1.5076
 1540TIP3    H226256   5.019   5.730   0.475 -0.1525 -0.4658 -1.7999
 1541TIP3   OH226257   4.666   1.944   0.561 -0.4344  0.4023 -0.6795
 1541TIP3    H126258   4.602   1.921   0.628  0.5442 -4.8921 -1.1056
 1541TIP3    H226259   4.744   1.969   0.611 -0.7288 -0.2118  0.1280
 1542TIP3   OH226260   4.339   0.177   1.209  0.4838 -0.0322  0.2701
 1542TIP3    H126261   4.277   0.116   1.249  1.1534 -0.8740  0.0313
 1542TIP3    H226262   4.315   0.178   1.117 -0.1992  0.8908  0.4378
 1543TIP3   OH226263   4.134   4.746   1.339  0.3853  0.4374 -0.1136
 1543TIP3    H126264   4.211   4.714   1.292 -1.3110 -0.2124 -2.6879
 1543TIP3    H226265   4.073   4.672   1.338 -0.1377  0.7442  2.3442
 1544TIP3   OH226266   6.192   3.964   0.413  0.0905 -0.3649  0.1206
 1544TIP3    H126267   6.163   3.875   0.435 -1.2506 -0.1826 -0.7878
 1544TIP3    H226268   6.257   3.985   0.480  1.0282 -2.3269 -0.1006
 1545TIP3   OH226269   6.017   3.172   1.433 -0.4333  0.2339 -0.2982
 1545TIP3    H126270   5.937   3.202   1.388  1.4820  0.4156 -3.9220
 1545TIP3    H226271   6.039   3.089   1.390  1.1695  0.0518  0.8093
 1546TIP3   OH226272   3.554   1.465   1.427  0.3761 -0.4384  0.2646
 1546TIP3    H126273   3.469   1.441   1.464  0.1843  1.0700  0.8687
 1546TIP3    H226274   3.573   1.397   1.363 -1.7861 -0.2542 -0.6338
 1547TIP3   OH226275   1.963   4.980   1.613 -0.3540 -0.1895  0.3479
 1547TIP3    H126276   1.869   4.986   1.630 -0.5846 -0.9580 -0.5498
 1547TIP3    H226277   1.974   4.896   1.567  0.3394  1.2410 -2.2979
 1548TIP3   OH226278   6.032   2.715   6.877 -0.2191 -0.5073  0.1653
 1548TIP3    H126279   5.947   2.738   6.917 -0.1768 -2.4308  1.4938
 1548TIP3    H226280   6.010   2.647   6.814  0.2965 -0.7969  0.2989
 1549TIP3   OH226281   2.748   1.672   0.372  0.3545  0.2871  0.5347
 1549TIP3    H126282   2.796   1.755   0.381 -0.3266  0.7804 -0.1783
 1549TIP3    H226283   2.669   1.696   0.323  0.3568 -0.8639 -0.0702
 1550TIP3   OH226284   4.622   1.659   6.783  0.0742 -0.3207  0.3223
 1550TIP3    H126285   4.590   1.613   6.861 -2.0936  0.1409 -0.2277
 1550TIP3    H226286   4.543   1.693   6.741  1.0844 -1.0776 -2.4387
 1551TIP3   OH226287   3.331   3.479   0.006 -0.3984  0.0699  0.2836
 1551TIP3    H126288   3.346   3.509   0.095  0.1863 -1.6144  0.8031
 1551TIP3    H226289   3.386   3.401  -0.002  0.3073  0.7362 -1.8814
 1552TIP3   OH226290   2.530   4.264   7.639  0.3114  0.0726  0.1072
 1552TIP3    H126291   2.446   4.218   7.646  0.7864 -1.2721 -2.0185
 1552TIP3    H226292   2.568   4.256   7.726  0.1748 -3.3761  0.0189
 1553TIP3   OH226293   1.925   0.686   7.868 -0.2101 -0.2584  0.5604
 1553TIP3    H126294   1.905   0.601   7.829 -1.6263 -0.0094  0.7094
 1553TIP3    H226295   1.843   0.715   7.907 -0.1322  1.8250 -0.6841
 1554TIP3   OH226296   1.062   1.493   6.801 -0.3964 -0.4880 -0.1616
 1554TIP3    H126297   0.981   1.473   6.849  0.3889 -0.5574  1.1852
 1554TIP3    H226298   1.086   1.581   6.830 -0.5700 -0.0090 -1.4157
 1555TIP3   OH226299   3.207   2.673   7.958 -0.2135 -0.0571 -0.3753
 1555TIP3    H126300   3.290   2.720   7.964 -0.4185  0.6603 -2.4307
 1555TIP3    H226301   3.228   2.584   7.984  1.0023  0.3243  0.0112
 1556TIP3   OH226302   1.110   4.919   1.496 -0.1020 -1.0460 -0.2391
 1556TIP3    H126303   1.065   4.967   1.566 -2.3418 -0.1576 -2.1497
 1556TIP3    H226304   1.200   4.911   1.526 -0.3312  1.7099  1.5430
 1557TIP3   OH226305   4.473   3.929   1.972  0.1428 -0.1057  0.3039
 1557TIP3    H126306   4.522   4.008   1.951  1.8918 -0.1206  3.5635
 1557TIP3    H226307   4.527   3.857   1.939  0.8002 -0.0107  1.1242
 1558TIP3   OH226308   1.398   6.477   7.315  0.1702  0.2107 -0.1302
 1558TIP3    H126309   1.470   6.514   7.263 -0.4799 -1.1551 -2.1227
 1558TIP3    H226310   1.420   6.384   7.323  0.9114  0.5365  3.3000
 1559TIP3   OH226311   2.120   3.714   1.915 -0.1478  0.7560 -0.0015
 1559TIP3    H126312   2.134   3.620   1.906  0.5833  0.7505  1.0560
 1559TIP3    H226313   2.170   3.739   1.993 -0.1197  2.0699 -0.4134
 1560TIP3   OH226314   0.921   5.588   1.638  0.2379 -0.4088  0.5238
 1560TIP3    H126315   0.862   5.536   1.583 -0.2567 -0.0928  0.7475
 1560TIP3    H226316   0.871   5.603   1.718  0.5900 -0.0568  0.6777
 1561TIP3   OH226317   3.556   0.159   6.968  0.0578 -0.2638  0.6623
 1561TIP3    H126318   3.594   0.158   7.056  1.6233 -0.1759  0.0334
 1561TIP3    H226319   3.518   0.246   6.959  1.2806  0.3055  0.7341
 1562TIP3   OH226320   2.527   6.741   1.441 -0.1772  0.1067 -0.2433
 1562TIP3    H126321   2.475   6.660   1.430 -2.3761  1.1418  1.6291
 1562TIP3    H226322   2.573   6.750   1.358 -3.4825 -0.6575 -2.3987
 1563TIP3   OH226323   1.305   0.712   2.068 -0.0320 -0.8339 -0.3189
 1563TIP3    H126324   1.330   0.620   2.074 -1.3110 -1.2055 -0.4695
 1563TIP3    H226325   1.303   0.742   2.159 -0.2041 -1.1215 -0.2268
 1564TIP3   OH226326   3.577   0.420   0.926  0.7571  0.2723 -0.9013
 1564TIP3    H126327   3.559   0.414   1.020  1.1250  0.0987 -0.8403
 1564TIP3    H226328   3.498   0.387   0.884 -0.1314  2.0133 -0.6865
 1565TIP3   OH226329   1.505   6.726   6.707  0.1782  0.1285 -0.2048
 1565TIP3    H126330   1.550   6.785   6.767  0.1790  0.8211 -0.8728
 1565TIP3    H226331   1.494   6.777   6.627 -1.4892 -0.1240 -0.1796
 1566TIP3   OH226332   4.561   0.137   7.970  0.0848 -0.2730  0.4946
 1566TIP3    H126333   4.645   0.097   7.989  0.5593  0.2383 -0.4619
 1566TIP3    H226334   4.524   0.158   8.056  0.5404 -1.2588  0.9510
 1567TIP3   OH226335   0.175   6.081   1.640 -0.0575  0.6209 -0.7667
 1567TIP3    H126336   0.179   6.125   1.555  0.1213 -0.0184 -1.1028
 1567TIP3    H226337   0.120   6.004   1.624  0.9528 -0.1593 -0.6303
 1568TIP3   OH226338   3.178   5.391   1.814  0.2875 -0.2241  1.1962
 1568TIP3    H126339   3.185   5.456   1.744  1.1940 -0.8198  0.7135
 1568TIP3    H226340   3.159   5.443   1.892 -1.0692  0.4207  0.4691
 1569TIP3   OH226341   5.480   2.852   1.525 -0.1215 -0.0986  0.6754
 1569TIP3    H126342   5.566   2.876   1.560 -0.1837  0.8972  0.1781
 1569TIP3    H226343   5.440   2.936   1.503 -0.5428 -0.6460 -0.6869
 1570TIP3   OH226344   2.311   5.574   2.853  0.1136 -0.1664 -0.4358
 1570TIP3    H126345   2.312   5.573   2.949  1.3431  0.1556 -0.4197
 1570TIP3    H226346   2.380   5.637   2.830 -0.5985  0.2293 -1.5316
 1571TIP3   OH226347   1.588   6.569   1.112  0.3091 -0.5257  0.2937
 1571TIP3    H126348   1.553   6.614   1.036 -0.0626 -0.7712  0.3152
 1571TIP3    H226349   1.510   6.545   1.164  0.4314 -1.8422 -0.0835
 1572TIP3   OH226350   6.468   2.441   0.548 -0.1192  0.0857  0.2819
 1572TIP3    H126351   6.542   2.497   0.567 -0.0141 -0.1137  0.4646
 1572TIP3    H226352   6.502   2.352   0.558 -0.4027 -0.0053  0.4434
 1573TIP3   OH226353   2.897   4.018   0.132 -0.0079 -0.0487  0.2956
 1573TIP3    H126354   2.846   4.030   0.052  1.2114 -0.3468 -0.5451
 1573TIP3    H226355   2.863   4.085   0.192  0.1134  1.2243 -0.9989
 1574TIP3   OH226356   5.192   1.366   6.698 -0.6044 -0.2555  0.1825
 1574TIP3    H126357   5.142   1.314   6.635 -0.9808  0.9431 -0.5548
 1574TIP3    H226358   5.134   1.440   6.719 -1.6132 -1.8826  3.9901
 1575TIP3   OH226359   0.601   6.261   2.269  0.2112  0.2002  0.0024
 1575TIP3    H126360   0.524   6.220   2.309 -0.0680 -1.3849 -1.9456
 1575TIP3    H226361   0.614   6.342   2.318 -2.1456  0.0723  0.9803
 1576TIP3   OH226362   1.983   3.808   2.573  0.2111  0.1628 -0.3072
 1576TIP3    H126363   1.985   3.714   2.588  2.4181  0.4608  1.9633
 1576TIP3    H226364   1.893   3.834   2.594  0.0665 -1.2033  0.9370
 1577TIP3   OH226365   6.647   4.666   7.427  0.1621 -0.2424  0.2210
 1577TIP3    H126366   6.710   4.738   7.429  0.5882 -0.4228 -2.7500
 1577TIP3    H226367   6.698   4.589   7.455  0.9051 -0.1463 -0.8311
 1578TIP3   OH226368   4.728   1.904   0.290 -0.7689 -0.1291 -0.4223
 1578TIP3    H126369   4.706   1.920   0.382  1.6279  1.2947 -0.0114
 1578TIP3    H226370   4.684   1.822   0.268 -1.2606 -0.5883  2.0479
 1579TIP3   OH226371   6.075   4.966   1.994 -0.0495 -0.3741  0.0548
 1579TIP3    H126372   6.097   4.880   2.031  2.3340  0.2524  0.2702
 1579TIP3    H226373   6.155   5.017   2.004 -1.5105  2.0160  0.2475
 1580TIP3   OH226374   1.383   6.762   8.072  0.2813 -0.1329 -0.5323
 1580TIP3    H126375   1.313   6.806   8.121 -1.3423 -2.6938 -0.3427
 1580TIP3    H226376   1.414   6.828   8.010 -2.5986  1.0251 -0.8928
 1581TIP3   OH226377   4.935   2.133   0.701 -0.0806  0.4505 -0.5442
 1581TIP3    H126378   4.925   2.049   0.745 -0.5609  1.0179  0.4510
 1581TIP3    H226379   4.980   2.189   0.765  0.4006  0.9057 -1.2616
 1582TIP3   OH226380   2.645   1.486   0.697  0.3418  0.5420 -0.7331
 1582TIP3    H126381   2.689   1.438   0.767  2.2875  1.9336 -0.9144
 1582TIP3    H226382   2.676   1.443   0.616  0.1152  0.5298 -0.8129
 1583TIP3   OH226383   5.963   1.597   2.937  0.4551  0.7969  0.0722
 1583TIP3    H126384   5.991   1.524   2.881  0.7705  0.7217  0.3252
 1583TIP3    H226385   5.868   1.599   2.928  0.5067  0.8239 -0.5171
 1584TIP3   OH226386   1.084   2.594   1.625 -0.2401 -0.4100  0.2034
 1584TIP3    H126387   1.087   2.607   1.720 -0.0723 -0.4063  0.1974
 1584TIP3    H226388   1.132   2.513   1.609 -0.5355 -0.5785  0.1509
 1585TIP3   OH226389   0.283   4.661   1.321 -0.4090 -0.1059  0.3491
 1585TIP3    H126390   0.351   4.728   1.314 -1.4195  1.0184  1.0778
 1585TIP3    H226391   0.297   4.605   1.244  1.1602  0.2540  0.3383
 1586TIP3   OH226392   3.062   6.561   3.130 -0.3841  0.5484  0.4862
 1586TIP3    H126393   3.082   6.510   3.208 -0.8507 -0.4772 -0.0514
 1586TIP3    H226394   2.969   6.548   3.115 -0.2086  0.3092 -0.5182
 1587TIP3   OH226395   6.269   0.119   0.088  0.0550  0.1166  0.5984
 1587TIP3    H126396   6.294   0.164   0.168  0.5146  0.3798  0.3117
 1587TIP3    H226397   6.348   0.071   0.062 -0.8773 -2.2094  1.7942
 1588TIP3   OH226398   6.780   5.751   1.346  0.0682  0.1396 -0.7121
 1588TIP3    H126399   6.787   5.671   1.294  1.2988  0.2041 -0.6731
 1588TIP3    H226400   6.763   5.720   1.435 -0.6331 -0.0226 -0.8943
 1589TIP3   OH226401   5.638   3.941   2.193  0.2851  0.2938  0.5489
 1589TIP3    H126402   5.593   3.859   2.212  1.2855  0.0701  2.1527
 1589TIP3    H226403   5.730   3.917   2.187  0.3980  1.0134 -0.9059
 1590TIP3   OH226404   3.786   1.351   2.200 -0.1237 -0.1545 -0.0394
 1590TIP3    H126405   3.841   1.373   2.125 -0.3885 -0.7624 -0.4192
 1590TIP3    H226406   3.798   1.424   2.261 -1.5123  1.4072 -1.5252
 1591TIP3   OH226407   5.465   3.904   0.717  0.1669  0.0212  0.5003
 1591TIP3    H126408   5.538   3.863   0.671  0.3516 -1.3070  1.9008
 1591TIP3    H226409   5.471   3.871   0.806 -1.3948  0.8990  0.9700
 1592TIP3   OH226410   6.690   4.944   2.562 -0.0979 -0.7360  0.3879
 1592TIP3    H126411   6.601   4.942   2.597 -0.1118 -1.1788  0.3329
 1592TIP3    H226412   6.746   4.944   2.640 -0.1482  1.1931  0.4670
 1593TIP3   OH226413   6.438   6.318   2.327  0.0830  0.7984  0.4634
 1593TIP3    H126414   6.530   6.345   2.326  0.4829 -0.4005  1.6026
 1593TIP3    H226415   6.414   6.317   2.419  0.0670 -2.4021  0.5349
 1594TIP3   OH226416   4.009   3.382   2.064  0.1598 -0.3129 -0.2747
 1594TIP3    H126417   4.102   3.370   2.083  0.1500 -0.6230 -0.4158
 1594TIP3    H226418   3.970   3.406   2.148  0.7224  2.0513 -0.6069
 1595TIP3   OH226419   0.647   4.108   0.408  0.5713  0.1216 -0.1326
 1595TIP3    H126420   0.658   4.047   0.336  0.8219  0.0750 -0.0560
 1595TIP3    H226421   0.718   4.171   0.397  1.2452 -0.4828  0.6758
 1596TIP3   OH226422   2.930   6.604   7.617  0.3344 -0.3848 -0.1435
 1596TIP3    H126423   2.993   6.559   7.561  0.2832  0.8080 -1.1956
 1596TIP3    H226424   2.846   6.590   7.574  0.1278 -0.4253  0.2706
 1597TIP3   OH226425   4.468   4.667   7.140  0.7261  0.1288  0.0164
 1597TIP3    H126426   4.399   4.726   7.170  0.3279  0.6180 -1.7411
 1597TIP3    H226427   4.533   4.724   7.099  1.4372 -0.4604  0.3047
 1598TIP3   OH226428   0.123   4.136   7.896  0.7142  0.2584 -0.3926
 1598TIP3    H126429   0.038   4.100   7.871  0.8734  0.0965 -0.7057
 1598TIP3    H226430   0.133   4.213   7.840  0.2029  1.0296  0.5397
 1599TIP3   OH226431   6.183   2.975   7.615  0.0185  0.3974 -0.1287
 1599TIP3    H126432   6.270   2.994   7.581  0.1063  0.0129 -0.1224
 1599TIP3    H226433   6.151   2.903   7.560 -1.0649  1.7695 -1.3930
 1600TIP3   OH226434   2.634   4.341   7.380  0.1728  0.2801 -0.6322
 1600TIP3    H126435   2.726   4.353   7.360  0.4030 -2.0325 -1.3113
 1600TIP3    H226436   2.633   4.309   7.470  0.1376 -0.3597 -0.8473
 1601TIP3   OH226437   5.427   3.476   8.276 -0.3763 -0.2539  0.2605
 1601TIP3    H126438   5.404   3.552   8.222  2.1905 -1.4612 -2.8780
 1601TIP3    H226439   5.344   3.449   8.315 -2.0038  2.1681 -1.2084
 1602TIP3   OH226440   2.014   6.882   1.898  0.4025 -0.8506  0.3236
 1602TIP3    H126441   2.054   6.955   1.849  0.2254 -0.1715  1.1698
 1602TIP3    H226442   1.974   6.828   1.830 -2.0587  1.4105 -0.2013
 1603TIP3   OH226443   6.079   4.044   8.173 -0.4408 -0.1406 -0.1792
 1603TIP3    H126444   6.119   4.128   8.198  0.9271 -1.2629  1.6887
 1603TIP3    H226445   6.110   4.029   8.084  1.2255  0.2827  0.2836
 1604TIP3   OH226446   3.803   0.677   7.486  0.3336 -0.0419  0.3341
 1604TIP3    H126447   3.710   0.672   7.463  0.3337  1.3480 -0.0552
 1604TIP3    H226448   3.804   0.705   7.578  0.3688 -1.5386  0.8055
 1605TIP3   OH226449   2.567   3.616   7.593 -0.5112 -0.1150  0.0782
 1605TIP3    H126450   2.555   3.555   7.666 -1.6444 -0.6189 -0.5074
 1605TIP3    H226451   2.531   3.570   7.517 -2.0855  1.5666 -0.2495
 1606TIP3   OH226452   5.054   6.363   0.966 -0.2093  0.4916 -0.3504
 1606TIP3    H126453   5.113   6.407   0.906  1.1895 -0.0190  0.6015
 1606TIP3    H226454   5.098   6.366   1.050 -1.7093  0.3901  0.4799
 1607TIP3   OH226455   4.376   2.159   0.777  0.5029 -0.7184  0.8260
 1607TIP3    H126456   4.369   2.204   0.861  1.7995 -0.4246  0.7946
 1607TIP3    H226457   4.458   2.191   0.739  0.2538 -1.3194 -0.2729
 1608TIP3   OH226458   0.138   6.114   2.253  0.1083  0.9616 -0.0138
 1608TIP3    H126459   0.079   6.189   2.252 -1.7780 -0.4486  0.1219
 1608TIP3    H226460   0.123   6.071   2.169  1.7159  1.0804 -0.4072
 1609TIP3   OH226461   1.317   0.625   7.672  0.4142 -0.1070  0.5892
 1609TIP3    H126462   1.409   0.650   7.669  0.2896  0.4261 -2.5308
 1609TIP3    H226463   1.316   0.538   7.711  2.3107 -0.3874  0.0805
 1610TIP3   OH226464   6.261   6.636   1.418  0.2533  0.1295 -0.4863
 1610TIP3    H126465   6.335   6.654   1.360  1.3319 -1.2127  0.3902
 1610TIP3    H226466   6.245   6.717   1.465  0.6928  0.6319 -1.1952
 1611TIP3   OH226467   3.151   0.153   1.573  0.0304  0.4717  0.5506
 1611TIP3    H126468   3.058   0.146   1.595 -0.2189 -1.0921 -0.8242
 1611TIP3    H226469   3.195   0.158   1.657 -1.1242 -1.6035  1.3620
 1612TIP3   OH226470   2.550   5.743   3.041 -0.3276 -0.0675  0.3404
 1612TIP3    H126471   2.569   5.699   2.958 -1.1927 -1.0652  0.6491
 1612TIP3    H226472   2.529   5.672   3.102  0.7772  0.6161  1.5678
 1613TIP3   OH226473   5.843   0.676   8.401 -0.2890  0.0343  0.2589
 1613TIP3    H126474   5.832   0.759   8.355  0.4034  0.2040  0.3884
 1613TIP3    H226475   5.803   0.691   8.487 -0.3813  0.1555  0.1950
 1614TIP3   OH226476   6.285   1.131   1.884 -0.6770  0.3228  0.3591
 1614TIP3    H126477   6.244   1.099   1.803 -0.3825  0.1109  0.2890
 1614TIP3    H226478   6.376   1.149   1.859 -0.8420  1.2434  0.3989
 1615TIP3   OH226479   5.243   4.856   6.684  0.0843 -0.2383  0.0558
 1615TIP3    H126480   5.248   4.782   6.746  0.0221  0.9005  1.4781
 1615TIP3    H226481   5.334   4.874   6.662  0.3471  0.9554  1.8695
 1616TIP3   OH226482   5.090   5.745   1.906 -0.2282  0.3417  0.9176
 1616TIP3    H126483   5.076   5.835   1.936  0.6464  0.6465  0.4383
 1616TIP3    H226484   5.182   5.727   1.927  0.0117  0.0779 -0.3048
 1617TIP3   OH226485   3.639   4.739   0.680  0.2964  0.2762  0.0118
 1617TIP3    H126486   3.603   4.651   0.674  0.3092  0.2380  0.5213
 1617TIP3    H226487   3.660   4.762   0.589 -1.9999  0.7248 -0.4605
 1618TIP3   OH226488   4.098   3.039   1.908 -0.1326 -0.4777 -0.0235
 1618TIP3    H126489   4.191   3.034   1.886 -0.0721 -0.4017  0.2088
 1618TIP3    H226490   4.069   3.124   1.875 -0.2393 -0.7100 -0.5394
 1619TIP3   OH226491   3.304   4.853   0.822 -0.7641  0.0384  0.1497
 1619TIP3    H126492   3.231   4.903   0.786 -1.4348 -0.2722  1.0370
 1619TIP3    H226493   3.262   4.786   0.876  0.2077  0.5694  1.5947
 1620TIP3   OH226494   1.972   1.549   1.682  0.6701 -0.5263 -0.1286
 1620TIP3    H126495   1.902   1.485   1.699  1.5103 -1.7486 -1.0160
 1620TIP3    H226496   1.930   1.634   1.694 -1.4700 -1.1418 -2.1910
 1621TIP3   OH226497   5.985   1.276   8.287  0.1241 -0.0596 -0.6234
 1621TIP3    H126498   5.964   1.241   8.374 -0.6645  0.7243 -0.4774
 1621TIP3    H226499   6.070   1.238   8.265  0.6724  0.2740  0.7988
 1622TIP3   OH226500   0.746   5.591   1.887 -0.3428 -0.1336 -0.0905
 1622TIP3    H126501   0.807   5.664   1.896 -1.2562  0.4472  1.9537
 1622TIP3    H226502   0.795   5.515   1.920  0.1453 -0.2212 -0.9677
 1623TIP3   OH226503   5.072   5.400   0.725  0.7540 -0.5048  0.4461
 1623TIP3    H126504   5.012   5.371   0.656 -0.4453 -0.1513  1.3138
 1623TIP3    H226505   5.015   5.438   0.792  1.6053 -3.0180  2.7789
 1624TIP3   OH226506   0.055   3.123   2.319  0.6597  0.0416 -0.2283
 1624TIP3    H126507   0.112   3.125   2.396  0.0026  0.0254  0.2699
 1624TIP3    H226508   0.053   3.214   2.289  1.4968 -0.0807 -0.6646
 1625TIP3   OH226509   0.150   3.100   7.273 -0.2144 -0.0968  0.2855
 1625TIP3    H126510   0.216   3.083   7.206  0.8451  0.1144  1.2563
 1625TIP3    H226511   0.091   3.165   7.232  0.8903  0.6606 -0.1519
 1626TIP3   OH226512   6.620   2.647   0.627 -0.3563  0.2195  0.2222
 1626TIP3    H126513   6.564   2.704   0.680  0.4989  1.4440 -0.1374
 1626TIP3    H226514   6.703   2.694   0.621  1.4003 -2.3090  2.2281
 1627TIP3   OH226515   3.774   3.827   2.696  0.4019 -0.4472  0.0419
 1627TIP3    H126516   3.733   3.784   2.771  1.0982 -2.3428 -0.6160
 1627TIP3    H226517   3.825   3.758   2.653 -1.2999  0.1135 -3.1801
 1628TIP3   OH226518   0.952   3.483   3.377 -0.0248 -0.1687  0.0026
 1628TIP3    H126519   1.004   3.547   3.427 -0.5662 -1.1527  1.9393
 1628TIP3    H226520   1.002   3.470   3.296  3.3817 -1.7624  2.1034
 1629TIP3   OH226521   2.946   1.954   6.977 -0.5500 -0.7043  0.3260
 1629TIP3    H126522   2.920   1.997   6.896  0.5438 -0.2075  0.2259
 1629TIP3    H226523   2.890   1.876   6.982 -1.1356 -0.3482 -0.5206
 1630TIP3   OH226524   6.488   6.896   7.508  0.3680 -0.4140  0.1312
 1630TIP3    H126525   6.400   6.933   7.515  0.6273 -0.0918  2.3856
 1630TIP3    H226526   6.487   6.821   7.567  0.8891 -2.0063 -1.7690
 1631TIP3   OH226527   4.551   2.531   7.245  0.0174 -0.0577  0.2703
 1631TIP3    H126528   4.599   2.495   7.171  0.0693  1.2653 -0.3732
 1631TIP3    H226529   4.482   2.467   7.263  0.0935 -0.4680 -0.8385
 1632TIP3   OH226530   2.668   4.921   7.936 -0.5327  0.1343  0.2311
 1632TIP3    H126531   2.742   4.966   7.896 -0.5242 -0.4576 -0.4392
 1632TIP3    H226532   2.633   4.984   7.999  1.4013 -0.0851  1.5929
 1633TIP3   OH226533   1.142   6.253   2.521  0.0506  0.2410  0.1028
 1633TIP3    H126534   1.054   6.250   2.557 -0.0930  0.1038 -0.2579
 1633TIP3    H226535   1.198   6.270   2.597 -0.1116 -1.3478  0.6222
 1634TIP3   OH226536   3.137   5.541   2.030  0.6873 -0.0356 -0.2372
 1634TIP3    H126537   3.225   5.539   2.068  0.3430 -1.1452  0.5695
 1634TIP3    H226538   3.081   5.504   2.099 -0.5008  1.1800 -0.5115
 1635TIP3   OH226539   1.728   5.253   1.045  0.7751  0.3275  0.5051
 1635TIP3    H126540   1.823   5.249   1.044  1.0240  3.1416  1.7189
 1635TIP3    H226541   1.706   5.319   0.978 -0.1158  1.1458  1.5573
 1636TIP3   OH226542   1.255   2.089   1.966 -0.1000 -0.1326 -0.2627
 1636TIP3    H126543   1.212   2.037   1.898  0.3327 -1.1628  0.2228
 1636TIP3    H226544   1.332   2.036   1.990 -0.4917 -0.0009  1.3407
 1637TIP3   OH226545   5.538   5.918   2.415  0.0368  0.0549  0.0735
 1637TIP3    H126546   5.531   5.853   2.344 -0.7427  1.2610 -1.0049
 1637TIP3    H226547   5.512   5.870   2.493 -0.4952 -0.9476 -0.6867
 1638TIP3   OH226548   3.017   0.063   2.252  0.0572 -0.6164  0.0209
 1638TIP3    H126549   3.086  -0.003   2.245  0.6179  0.0607 -1.3227
 1638TIP3    H226550   2.958   0.044   2.179 -0.3127 -0.2391  0.2161
 1639TIP3   OH226551   1.514   2.965   1.525  0.0780 -0.1981  0.0210
 1639TIP3    H126552   1.520   3.058   1.545  1.4226 -0.3684  0.5216
 1639TIP3    H226553   1.563   2.922   1.595 -1.3225 -1.3745  0.3264
 1640TIP3   OH226554   4.813   1.518   0.797  0.1692 -0.0210 -0.1203
 1640TIP3    H126555   4.768   1.580   0.739 -0.6250 -1.9684 -1.7423
 1640TIP3    H226556   4.905   1.528   0.777 -0.0186  0.1130 -0.9629
 1641TIP3   OH226557   0.820   0.753   1.431 -0.1065 -0.0291 -0.3081
 1641TIP3    H126558   0.860   0.840   1.423 -1.2200  0.4058 -1.6400
 1641TIP3    H226559   0.822   0.718   1.342 -2.8534  0.1347 -0.5300
 1642TIP3   OH226560   5.358   3.841   0.960 -0.0229  0.7403 -0.3610
 1642TIP3    H126561   5.379   3.782   1.033  0.6053  0.3909 -0.8162
 1642TIP3    H226562   5.314   3.786   0.896 -1.2819  1.2143  0.0699
 1643TIP3   OH226563   6.840   5.328   7.967 -0.1409  0.2343 -0.2859
 1643TIP3    H126564   6.772   5.386   7.932  0.9864  1.2350 -0.9140
 1643TIP3    H226565   6.834   5.338   8.062 -2.3722 -1.4935 -0.1540
 1644TIP3   OH226566   2.126   6.377   7.164 -0.0518 -0.4718  0.0593
 1644TIP3    H126567   2.174   6.423   7.234  1.2085 -3.0726  1.0471
 1644TIP3    H226568   2.191   6.363   7.096 -1.1493  1.5807 -1.5128
 1645TIP3   OH226569   4.474   2.978   8.044  0.4331  0.8020 -0.5643
 1645TIP3    H126570   4.526   2.907   8.082 -0.0490  0.8228  0.1529
 1645TIP3    H226571   4.433   2.938   7.967 -0.0462  0.2138 -0.0183
 1646TIP3   OH226572   1.630   6.642   8.312  0.0115 -0.6214 -0.5515
 1646TIP3    H126573   1.660   6.578   8.377  2.9245 -0.0436 -1.2176
 1646TIP3    H226574   1.590   6.589   8.243 -0.8939 -1.4029  0.5180
 1647TIP3   OH226575   4.770   2.779   1.110  0.0764 -0.2182  0.3912
 1647TIP3    H126576   4.842   2.817   1.159  0.5816  0.4521 -0.8363
 1647TIP3    H226577   4.763   2.832   1.031 -1.9952 -0.0401  0.6286
 1648TIP3   OH226578   0.462   6.039   1.591  0.4697 -0.7689  0.1452
 1648TIP3    H126579   0.370   6.061   1.603  1.2293  1.3459  3.2372
 1648TIP3    H226580   0.463   5.943   1.582 -2.0278 -0.7833 -0.6222
 1649TIP3   OH226581   2.620   4.725   3.147 -0.6525  0.2640 -0.4308
 1649TIP3    H126582   2.681   4.783   3.102 -0.6661 -0.9654 -2.1440
 1649TIP3    H226583   2.672   4.649   3.170 -1.0221  0.2008  0.2046
 1650TIP3   OH226584   0.260   6.825   7.660  0.0582 -0.0615  0.5040
 1650TIP3    H126585   0.316   6.796   7.588 -2.1491 -1.4462 -0.7962
 1650TIP3    H226586   0.293   6.779   7.737 -0.5279 -2.6478 -0.6565
 1651TIP3   OH226587   1.994   4.148   8.023  0.6338  0.3661  0.6135
 1651TIP3    H126588   1.959   4.236   8.038  1.5495  0.4662  2.4430
 1651TIP3    H226589   1.938   4.090   8.075 -0.8467 -0.3858 -1.6836
 1652TIP3   OH226590   0.083   5.103   2.126  0.4528 -0.5235  0.5347
 1652TIP3    H126591   0.111   5.121   2.216 -0.1771  0.3201  0.5777
 1652TIP3    H226592   0.038   5.018   2.132  2.0786 -1.4029  0.6403
 1653TIP3   OH226593   3.257   5.168   6.874 -1.1954  0.3653 -0.1226
 1653TIP3    H126594   3.220   5.162   6.786 -0.2762  1.7391 -0.6450
 1653TIP3    H226595   3.213   5.099   6.924  0.0051 -2.1175 -2.2566
 1654TIP3   OH226596   4.987   2.311   7.812  0.2930 -0.4652 -0.2229
 1654TIP3    H126597   4.953   2.267   7.735 -0.4854 -0.8591  0.3272
 1654TIP3    H226598   4.972   2.404   7.795 -0.5175 -0.5912 -0.2593
 1655TIP3   OH226599   5.696   1.397   2.502  0.5324  0.2719  0.7563
 1655TIP3    H126600   5.782   1.398   2.544  0.3962 -0.9667  1.0883
 1655TIP3    H226601   5.665   1.307   2.512 -0.6006  0.5847  0.2197
 1656TIP3   OH226602   2.865   3.724   7.358  0.7873 -0.6367  0.2668
 1656TIP3    H126603   2.773   3.724   7.329  1.0635 -0.9754 -0.6523
 1656TIP3    H226604   2.863   3.678   7.442  0.0634 -0.3342  0.4213
 1657TIP3   OH226605   5.390   5.124   0.728 -0.0910 -0.3621 -0.0392
 1657TIP3    H126606   5.449   5.199   0.731  1.4346 -1.5351  2.1272
 1657TIP3    H226607   5.354   5.124   0.640  2.5745  0.8613 -1.2068
 1658TIP3   OH226608   3.936   6.544   7.880 -0.2297  0.0736  0.5285
 1658TIP3    H126609   3.940   6.604   7.954  0.1738  1.9155 -0.9134
 1658TIP3    H226610   3.964   6.460   7.916 -0.2398  0.8486  2.4856
 1659TIP3   OH226611   3.102   3.980   0.418 -0.2967 -0.3667  0.2631
 1659TIP3    H126612   3.103   4.067   0.457 -2.0076 -0.0247 -0.3765
 1659TIP3    H226613   3.133   3.994   0.328  0.1318 -0.5465  0.3812
 1660TIP3   OH226614   3.535   2.110   0.711 -0.2472  0.1164 -1.1557
 1660TIP3    H126615   3.531   2.203   0.730  0.3230  0.0208 -0.5393
 1660TIP3    H226616   3.628   2.088   0.717 -0.3073 -0.3780 -1.8610
 1661TIP3   OH226617   3.886   5.404   0.159  0.0269 -0.0625 -0.2900
 1661TIP3    H126618   3.845   5.324   0.128 -0.6515  0.3718 -0.5487
 1661TIP3    H226619   3.940   5.433   0.085 -1.1621  0.6797 -0.9136
 1662TIP3   OH226620   0.559   5.383   7.116  0.3724 -0.2568 -0.2137
 1662TIP3    H126621   0.518   5.419   7.194  1.2832  2.7693 -0.9677
 1662TIP3    H226622   0.649   5.366   7.142  0.6775  0.7575 -0.5495
 1663TIP3   OH226623   3.782   4.946   1.220  0.5873  0.0043  0.3496
 1663TIP3    H126624   3.769   4.872   1.279  0.2291  0.0464  0.3224
 1663TIP3    H226625   3.729   4.926   1.144  0.9280  0.0244  0.1046
 1664TIP3   OH226626   1.521   2.206   1.608 -0.4628  0.7303 -0.0936
 1664TIP3    H126627   1.544   2.187   1.699 -1.4727  1.6790  0.3688
 1664TIP3    H226628   1.500   2.120   1.571 -1.4914  0.4915  0.9789
 1665TIP3   OH226629   6.015   3.940   0.749 -0.3157  0.2062  0.2629
 1665TIP3    H126630   6.046   3.871   0.690  0.9903  2.2014 -1.5497
 1665TIP3    H226631   6.023   3.903   0.836  1.2021 -1.6218 -0.5955
 1666TIP3   OH226632   2.967   3.952   1.430 -0.0392  0.2561  0.2221
 1666TIP3    H126633   2.926   4.024   1.478  0.8239  0.1818  1.1157
 1666TIP3    H226634   3.053   3.987   1.405 -0.4019  0.2234 -1.1190
 1667TIP3   OH226635   2.574   5.355   1.763  0.2658  0.0410 -0.1793
 1667TIP3    H126636   2.620   5.319   1.838 -0.5732 -0.5720  0.0579
 1667TIP3    H226637   2.636   5.416   1.723  0.8143  0.1621  0.8429
 1668TIP3   OH226638   1.229   4.619   2.071  0.1691  0.3513  0.6822
 1668TIP3    H126639   1.260   4.539   2.113 -0.2939 -0.5564 -0.6434
 1668TIP3    H226640   1.169   4.589   2.002  1.1708  1.7280 -0.8831
 1669TIP3   OH226641   6.898   5.585   1.788  0.1201  0.0497  0.6576
 1669TIP3    H126642   6.818   5.571   1.736 -0.6458  0.3981  1.7095
 1669TIP3    H226643   6.911   5.501   1.832  0.4445 -0.0638  0.3483
 1670TIP3   OH226644   1.771   4.341   0.136 -0.6704 -0.2600  0.5086
 1670TIP3    H126645   1.719   4.419   0.152 -0.8033 -0.1788 -0.2629
 1670TIP3    H226646   1.732   4.301   0.058  0.7009  0.0780 -0.3971
 1671TIP3   OH226647   3.523   3.404   2.236 -0.8993 -0.2151 -0.1490
 1671TIP3    H126648   3.578   3.415   2.159 -1.4452  0.6368 -0.4353
 1671TIP3    H226649   3.433   3.410   2.203 -1.1440 -0.0150  0.5249
 1672TIP3   OH226650   4.794   4.540   7.812 -0.5251 -0.1450  0.6413
 1672TIP3    H126651   4.878   4.506   7.844 -0.4465 -0.2525  0.3226
 1672TIP3    H226652   4.768   4.479   7.742  0.8509  1.7736 -1.7185
 1673TIP3   OH226653   6.476   0.057   8.345 -0.6948  0.5491  0.1254
 1673TIP3    H126654   6.471   0.105   8.262 -2.0397  0.5558  0.1869
 1673TIP3    H226655   6.564   0.075   8.377 -0.3160  0.9402 -1.0665
 1674TIP3   OH226656   5.483   5.916   1.096  0.2336 -0.2242  0.0613
 1674TIP3    H126657   5.556   5.969   1.066  2.7881 -2.4847  1.7926
 1674TIP3    H226658   5.487   5.836   1.043 -1.2010 -0.2968  0.0068
 1675TIP3   OH226659   3.635   1.367   1.128  0.5046 -0.5659 -0.5171
 1675TIP3    H126660   3.609   1.337   1.041 -2.5686  2.8017 -1.0301
 1675TIP3    H226661   3.685   1.447   1.113 -0.2887  0.2194  0.7291
 1676TIP3   OH226662   4.036   4.796   7.290  0.8284  0.3232  0.0437
 1676TIP3    H126663   3.983   4.747   7.227 -0.1064  0.9755  0.2982
 1676TIP3    H226664   3.979   4.803   7.367  1.5628  0.4353  0.5792
 1677TIP3   OH226665   5.270   2.793   8.166 -0.6182  0.3049  0.1896
 1677TIP3    H126666   5.205   2.731   8.200  1.3573 -1.7739  0.4191
 1677TIP3    H226667   5.340   2.793   8.231  0.5932  0.7748 -1.0659
 1678TIP3   OH226668   2.448   1.575   0.962 -0.4113 -0.3795 -0.0446
 1678TIP3    H126669   2.514   1.542   0.901  0.2441  1.6102 -0.5113
 1678TIP3    H226670   2.365   1.539   0.931  0.2559 -1.7162 -0.3410
 1679TIP3   OH226671   4.933   6.322   2.132  0.1367  0.2247  0.3888
 1679TIP3    H126672   4.895   6.409   2.146 -0.9067 -0.4515  1.9974
 1679TIP3    H226673   4.953   6.290   2.219  0.2501 -1.2742 -0.1565
 1680TIP3   OH226674   5.417   6.067   1.631  0.3879  0.1937  0.5860
 1680TIP3    H126675   5.378   6.029   1.552 -0.7789 -0.0141  1.2350
 1680TIP3    H226676   5.508   6.038   1.629  0.3539  0.1024 -0.6203
 1681TIP3   OH226677   2.550   0.133   8.233  0.2187 -0.5427 -0.2295
 1681TIP3    H126678   2.538   0.058   8.291  0.0962 -0.5860 -0.3111
 1681TIP3    H226679   2.541   0.209   8.291 -1.1545 -0.5514 -0.4007
 1682TIP3   OH226680   4.298   4.980   8.300 -0.8378 -0.3658  0.3775
 1682TIP3    H126681   4.311   4.904   8.245 -0.9628  0.2955 -0.5828
 1682TIP3    H226682   4.322   4.950   8.388  1.3330 -0.8844 -0.3299
 1683TIP3   OH226683   2.305   6.095   7.802 -0.3791 -0.5549  0.1847
 1683TIP3    H126684   2.268   6.170   7.849 -1.2544  0.2170 -1.6224
 1683TIP3    H226685   2.318   6.128   7.712  1.5800 -1.8373 -0.0500
 1684TIP3   OH226686   1.726   5.023   8.314 -0.3795 -0.1769  0.2408
 1684TIP3    H126687   1.732   4.928   8.315 -1.3268 -0.2401  0.8509
 1684TIP3    H226688   1.719   5.048   8.406 -1.0918  0.4110  0.0326
 1685TIP3   OH226689   4.676   5.281   1.251 -0.0516 -0.2745 -0.5082
 1685TIP3    H126690   4.585   5.287   1.281 -0.4087 -0.5252 -1.4793
 1685TIP3    H226691   4.682   5.345   1.180  0.3748 -0.6254 -0.7995
 1686TIP3   OH226692   0.854   6.848   7.956 -0.0493  0.2291  0.3413
 1686TIP3    H126693   0.859   6.909   8.030 -1.9601 -0.7471  1.3449
 1686TIP3    H226694   0.924   6.785   7.972 -0.3625  0.1060  1.2611
 1687TIP3   OH226695   4.229   4.191   2.384  1.0463 -0.6932 -0.0368
 1687TIP3    H126696   4.288   4.123   2.418 -0.9482 -2.0426  0.9102
 1687TIP3    H226697   4.180   4.221   2.460  0.7824  0.7234 -0.7278
 1688TIP3   OH226698   0.964   4.101   1.460 -0.1517 -0.0997  0.2004
 1688TIP3    H126699   0.971   4.141   1.547  0.4738  0.3751 -0.0575
 1688TIP3    H226700   1.017   4.157   1.404 -1.1915  0.0602 -0.6593
 1689TIP3   OH226701   5.086   4.003   1.021  0.5613  0.1820 -0.0176
 1689TIP3    H126702   5.140   3.959   1.087  2.0672  0.8187 -0.7925
 1689TIP3    H226703   5.005   4.024   1.068  1.1740 -0.3226  1.3289
 1690TIP3   OH226704   3.060   3.398   7.299 -0.0514 -0.4768  0.9604
 1690TIP3    H126705   3.035   3.411   7.208 -0.0487 -2.0839  0.7099
 1690TIP3    H226706   3.148   3.359   7.295  0.1473 -0.1265  1.6719
 1691TIP3   OH226707   0.971   5.523   0.779 -0.1438 -0.6238  0.0345
 1691TIP3    H126708   0.974   5.613   0.812  1.7849 -0.8567  0.6197
 1691TIP3    H226709   0.921   5.475   0.845 -0.6617 -0.1075  0.0245
 1692TIP3   OH226710   5.036   3.789   8.406 -0.1599 -0.0545  0.3836
 1692TIP3    H126711   4.951   3.818   8.438  0.6173  1.5183  1.1550
 1692TIP3    H226712   5.063   3.721   8.468  0.2081  1.2015  1.6692
 1693TIP3   OH226713   2.578   0.187   2.426  0.0991 -0.6823 -0.2685
 1693TIP3    H126714   2.633   0.260   2.399 -1.2109 -0.1714 -1.7143
 1693TIP3    H226715   2.634   0.135   2.484  2.2080 -0.3523 -1.8684
 1694TIP3   OH226716   6.096   6.543   2.910 -0.0040 -0.1342  0.3842
 1694TIP3    H126717   6.042   6.489   2.852 -1.3418  0.4065  1.0869
 1694TIP3    H226718   6.182   6.501   2.909 -0.6093 -1.3982 -0.2719
 1695TIP3   OH226719   3.241   4.625   8.282 -0.4129 -0.3155  0.3407
 1695TIP3    H126720   3.187   4.705   8.288 -0.3644 -0.1815 -0.7193
 1695TIP3    H226721   3.248   4.609   8.188 -0.1834 -1.4210  0.5372
 1696TIP3   OH226722   0.726   0.978   2.232 -0.2747 -0.5105  0.0263
 1696TIP3    H126723   0.762   0.985   2.144  0.4453 -1.0446  0.2593
 1696TIP3    H226724   0.785   0.917   2.277 -1.8205 -1.8906  0.2768
 1697TIP3   OH226725   6.615   5.018   0.163  0.2124  0.1390  0.3459
 1697TIP3    H126726   6.612   4.936   0.114 -1.3219 -0.5081  1.4240
 1697TIP3    H226727   6.607   4.991   0.254 -1.7331  1.5134  0.6500
 1698TIP3   OH226728   6.107   1.484   7.792 -0.4740  0.4892 -0.1036
 1698TIP3    H126729   6.026   1.533   7.810 -1.8862 -1.2543 -1.3789
 1698TIP3    H226730   6.079   1.393   7.790  1.3279 -0.0742 -1.6934
 1699TIP3   OH226731   1.836   3.238   0.800 -0.2061 -0.2380 -0.3057
 1699TIP3    H126732   1.745   3.213   0.814 -0.4740  1.2285  0.8785
 1699TIP3    H226733   1.832   3.331   0.779  0.8808 -0.6222 -2.4626
 1700TIP3   OH226734   1.364   2.311   1.827 -0.1842  0.5109 -0.6288
 1700TIP3    H126735   1.341   2.227   1.868  2.0086  0.7454  1.2516
 1700TIP3    H226736   1.282   2.360   1.826 -0.8759 -0.5206  1.1186
 1701TIP3   OH226737   1.138   3.411   7.106 -0.3409  0.4408  0.5065
 1701TIP3    H126738   1.153   3.487   7.162 -0.5535  0.5895  0.3642
 1701TIP3    H226739   1.162   3.441   7.018  0.4242  0.0740  0.5788
 1702TIP3   OH226740   6.991   3.505   1.136 -0.1226 -0.4396  0.4821
 1702TIP3    H126741   7.007   3.458   1.217 -2.7747 -1.0845  0.7498
 1702TIP3    H226742   6.895   3.513   1.132 -0.0840 -0.2806 -2.4779
 1703TIP3   OH226743   4.372   0.302   2.791  0.8935 -0.2598 -0.2516
 1703TIP3    H126744   4.378   0.223   2.739 -0.8230 -0.0575 -0.8298
 1703TIP3    H226745   4.460   0.315   2.826  1.2588 -2.2758 -0.3256
 1704TIP3   OH226746   6.796   3.084   2.474 -0.0752  0.1066  0.3260
 1704TIP3    H126747   6.751   3.001   2.457 -0.7261  0.6626 -0.7654
 1704TIP3    H226748   6.886   3.067   2.448  0.0512 -0.5724  1.1365
 1705TIP3   OH226749   3.005   0.022   1.264 -0.2293 -0.3935 -0.2941
 1705TIP3    H126750   3.002  -0.054   1.205  0.5100  0.4067 -1.3891
 1705TIP3    H226751   3.099   0.037   1.278 -0.3893 -0.1996  0.6201
 1706TIP3   OH226752   5.906   0.931   0.747 -0.1485  0.0560  0.3176
 1706TIP3    H126753   5.977   0.964   0.802 -0.5082 -0.5646  1.1899
 1706TIP3    H226754   5.839   0.903   0.810  0.0837 -2.1763 -0.3587
 1707TIP3   OH226755   1.284   6.393   8.000  0.3865  0.1401 -0.2642
 1707TIP3    H126756   1.201   6.382   7.954 -0.4198  3.0718  0.2881
 1707TIP3    H226757   1.260   6.426   8.086  2.1143  0.2181  0.2298
 1708TIP3   OH226758   5.772   4.443   7.295 -0.1073 -0.1091  0.5714
 1708TIP3    H126759   5.747   4.427   7.386  0.8996 -0.4689  0.8010
 1708TIP3    H226760   5.741   4.366   7.248  1.4247 -1.0565  1.0359
 1709TIP3   OH226761   1.592   3.134   7.694  0.4442  0.0917 -0.0521
 1709TIP3    H126762   1.523   3.131   7.760 -0.2638 -0.0840 -0.7855
 1709TIP3    H226763   1.546   3.124   7.611  0.9262  3.2827 -0.8316
 1710TIP3   OH226764   6.459   3.691   1.477 -0.5170 -0.1895 -0.2884
 1710TIP3    H126765   6.376   3.739   1.476 -0.0802  0.8102  2.6199
 1710TIP3    H226766   6.525   3.758   1.458  0.0992  0.5887  3.8011
 1711TIP3   OH226767   1.886   2.034   0.683  0.5008  0.3227 -0.0325
 1711TIP3    H126768   1.872   1.981   0.605 -0.3016 -0.1686  0.4352
 1711TIP3    H226769   1.840   2.116   0.665  0.5190  0.3008 -0.1752
 1712TIP3   OH226770   3.011   4.066   1.026  0.7016 -0.3295 -0.2491
 1712TIP3    H126771   2.992   4.046   0.934 -0.2231 -1.6157  0.1934
 1712TIP3    H226772   2.926   4.060   1.070  1.1190  0.3472  0.6869
 1713TIP3   OH226773   2.581   2.927   8.313 -0.3809  0.8266 -0.3105
 1713TIP3    H126774   2.560   2.908   8.404  1.1373  0.8575  0.0772
 1713TIP3    H226775   2.632   3.007   8.316 -0.9970  1.2786 -1.2866
 1714TIP3   OH226776   3.876   1.309   0.834 -0.5132  0.9361 -0.5903
 1714TIP3    H126777   3.876   1.304   0.738  0.0703  1.3500 -0.6212
 1714TIP3    H226778   3.784   1.301   0.859 -0.5929 -0.1131 -1.1321
 1715TIP3   OH226779   2.269   1.351   7.231 -0.2738  0.4151  0.2207
 1715TIP3    H126780   2.297   1.352   7.139  0.0292  0.7252  0.3134
 1715TIP3    H226781   2.182   1.391   7.229 -1.2949 -1.6740 -0.2385
 1716TIP3   OH226782   1.668   4.618   7.266  0.2449 -0.1879 -0.1089
 1716TIP3    H126783   1.574   4.623   7.281  0.1982  0.3005 -0.5325
 1716TIP3    H226784   1.680   4.652   7.178  0.8470  0.0039  0.0424
 1717TIP3   OH226785   4.323   5.737   2.516  0.0484 -0.7851 -0.6787
 1717TIP3    H126786   4.355   5.696   2.596  0.4347 -0.4836 -0.6704
 1717TIP3    H226787   4.375   5.697   2.446 -0.3300 -1.0918 -0.7860
 1718TIP3   OH226788   0.320   2.432   7.283  0.3650  0.6092 -0.2467
 1718TIP3    H126789   0.302   2.432   7.189  0.1289  1.8545 -0.2178
 1718TIP3    H226790   0.245   2.477   7.323  0.0227 -0.6858  0.6495
 1719TIP3   OH226791   5.307   1.897   1.866  0.2708  0.6404  0.8841
 1719TIP3    H126792   5.378   1.953   1.833  1.4397 -0.8980  0.6450
 1719TIP3    H226793   5.233   1.917   1.809  0.5870  2.0537  0.9213
 1720TIP3   OH226794   1.441   0.530   6.846 -0.1204 -0.0236  0.4370
 1720TIP3    H126795   1.399   0.443   6.840  1.3556 -0.7233 -0.1129
 1720TIP3    H226796   1.473   0.534   6.936  0.3307 -0.2960  0.2884
 1721TIP3   OH226797   2.323   3.106   8.087 -0.6159 -0.3166 -0.0152
 1721TIP3    H126798   2.239   3.078   8.123 -0.5632 -1.4732 -0.7428
 1721TIP3    H226799   2.313   3.095   7.993  0.6026 -1.2200 -0.0585
 1722TIP3   OH226800   3.563   4.616   2.157  0.5015 -0.5598  0.1467
 1722TIP3    H126801   3.565   4.612   2.253  2.3393 -1.8081  0.1202
 1722TIP3    H226802   3.621   4.545   2.129  1.6083  1.0277 -1.8549
 1723TIP3   OH226803   2.075   2.693   6.680  0.1519  0.3021  0.2341
 1723TIP3    H126804   2.134   2.640   6.626 -0.3334  0.6917 -0.7015
 1723TIP3    H226805   2.076   2.650   6.765  1.9728  0.4492  0.3184
 1724TIP3   OH226806   4.927   3.305   1.256 -0.1314 -0.3318  0.0725
 1724TIP3    H126807   4.867   3.295   1.330  0.3901 -2.5828  0.2393
 1724TIP3    H226808   5.013   3.282   1.291  0.6854  1.6000 -0.4945
 1725TIP3   OH226809   6.266   0.033   2.057  0.5642  0.1910 -0.1793
 1725TIP3    H126810   6.220  -0.047   2.033  1.7113 -0.1203 -1.4888
 1725TIP3    H226811   6.287   0.021   2.150 -0.7940 -0.2343  0.0960
 1726TIP3   OH226812   2.107   4.540   2.198  0.2913 -0.1193 -0.0293
 1726TIP3    H126813   2.148   4.531   2.284  1.2531  1.4591 -0.2929
 1726TIP3    H226814   2.045   4.613   2.207 -3.5994 -3.1515  0.7072
 1727TIP3   OH226815   1.222   6.955   8.237  0.1244 -0.0200 -0.2762
 1727TIP3    H126816   1.147   6.956   8.177  1.2253 -1.0069 -1.7670
 1727TIP3    H226817   1.225   7.043   8.274 -0.3397  0.7881 -2.0560
 1728TIP3   OH226818   1.672   4.257   8.000 -0.1999  0.3391 -0.3485
 1728TIP3    H126819   1.697   4.196   7.931  0.5181  1.0000 -0.6812
 1728TIP3    H226820   1.639   4.201   8.070  0.8271 -0.4639 -0.4869
 1729TIP3   OH226821   5.410   5.710   0.412 -0.2801  0.8993  0.0179
 1729TIP3    H126822   5.459   5.758   0.479 -2.2027  0.4989  1.8071
 1729TIP3    H226823   5.330   5.682   0.456 -0.2039 -2.1765 -1.5168
 1730TIP3   OH226824   6.392   0.999   0.400 -0.0221  0.4445 -0.4279
 1730TIP3    H126825   6.419   1.046   0.479  0.3127 -0.4168 -0.0114
 1730TIP3    H226826   6.317   1.048   0.366 -0.7209  0.3227  0.9154
 1731TIP3   OH226827   2.479   0.890   1.196  0.1450 -0.0366  0.1509
 1731TIP3    H126828   2.569   0.866   1.218  0.8000  2.9200  1.2032
 1731TIP3    H226829   2.424   0.837   1.254  1.2073 -1.3627 -0.0192
 1732TIP3   OH226830   5.437   5.309   1.054  0.3325 -0.1579 -0.2560
 1732TIP3    H126831   5.520   5.311   1.006  0.3936 -0.3070 -0.1605
 1732TIP3    H226832   5.370   5.326   0.988  0.5610  1.8362 -0.0301
 1733TIP3   OH226833   6.911   1.975   0.783 -0.0457 -0.0818 -0.2755
 1733TIP3    H126834   6.961   2.010   0.708 -1.8515  2.3395 -0.4483
 1733TIP3    H226835   6.832   2.028   0.786 -0.6228 -0.9502  2.6376
 1734TIP3   OH226836   0.866   2.751   7.421  0.4375  0.2211  0.3847
 1734TIP3    H126837   0.832   2.817   7.360  2.1376  1.7478  1.0238
 1734TIP3    H226838   0.936   2.708   7.373  1.0848  0.7089  0.8836
 1735TIP3   OH226839   3.427   4.491   1.276 -0.0585  0.4182 -0.2186
 1735TIP3    H126840   3.447   4.421   1.214 -0.9204  1.0698 -1.2815
 1735TIP3    H226841   3.459   4.571   1.234  0.3066  0.7512  0.6680
 1736TIP3   OH226842   0.654   5.461   7.757 -0.2567 -0.1560  0.9879
 1736TIP3    H126843   0.620   5.479   7.669  2.3198 -1.4263 -0.3929
 1736TIP3    H226844   0.670   5.548   7.794 -0.8523  0.4106 -0.0314
 1737TIP3   OH226845   6.356   4.408   0.724 -0.1103 -0.3803  0.7913
 1737TIP3    H126846   6.269   4.432   0.692 -1.2980 -2.0851  2.4796
 1737TIP3    H226847   6.341   4.331   0.778  2.4919 -0.7600  1.1132
 1738TIP3   OH226848   3.399   0.192   2.798  0.5245 -0.2894 -0.6017
 1738TIP3    H126849   3.454   0.269   2.816 -0.9392  1.1982 -2.1601
 1738TIP3    H226850   3.462   0.122   2.780  1.9218  0.9166 -0.6076
 1739TIP3   OH226851   2.718   1.928   8.201  0.1981  0.0971 -0.0218
 1739TIP3    H126852   2.773   1.977   8.263  0.2336 -2.1010  1.8106
 1739TIP3    H226853   2.781   1.877   8.149  0.0494 -1.1208  0.9304
 1740TIP3   OH226854   6.448   3.669   0.959  0.0636  0.1634 -0.6516
 1740TIP3    H126855   6.368   3.721   0.954 -0.5085 -0.7983 -2.6078
 1740TIP3    H226856   6.513   3.719   0.910  0.8333  1.1323  1.2643
 1741TIP3   OH226857   2.831   3.644   7.854 -0.1918  0.6172 -0.3969
 1741TIP3    H126858   2.830   3.642   7.950 -1.0717 -0.7873 -0.4075
 1741TIP3    H226859   2.766   3.710   7.830  0.1288  1.0693 -0.0293
 1742TIP3   OH226860   4.333   2.327   8.055 -0.0844 -0.6777 -0.4315
 1742TIP3    H126861   4.247   2.349   8.091 -0.7323 -1.2239 -1.5803
 1742TIP3    H226862   4.376   2.278   8.124 -1.0947 -1.2459 -0.1820
 1743TIP3   OH226863   6.996   0.676   0.334  0.4079 -0.4789 -0.0079
 1743TIP3    H126864   7.017   0.768   0.316 -1.4924 -0.0201 -0.0155
 1743TIP3    H226865   6.997   0.634   0.248  0.5490 -0.3165 -0.0860
 1744TIP3   OH226866   6.620   0.834   7.667 -0.4094 -0.9420 -0.2468
 1744TIP3    H126867   6.536   0.809   7.705 -1.2593  0.2752 -1.2633
 1744TIP3    H226868   6.670   0.752   7.665 -1.7250 -1.7900 -0.0686
 1745TIP3   OH226869   5.526   0.749   2.673  0.1680  0.4252 -0.7090
 1745TIP3    H126870   5.536   0.802   2.593  3.0508 -0.0825 -0.7834
 1745TIP3    H226871   5.584   0.791   2.736 -2.0212  0.7715  1.1901
 1746TIP3   OH226872   1.378   5.998   1.095  0.0146  0.4542 -0.2490
 1746TIP3    H126873   1.470   5.978   1.075  0.3217  0.9147  0.6367
 1746TIP3    H226874   1.381   6.088   1.128 -0.9685  1.0401 -1.6518
 1747TIP3   OH226875   3.449   2.520   0.473 -0.4492 -0.2251  0.3484
 1747TIP3    H126876   3.437   2.490   0.563  2.6662 -0.7100  0.7278
 1747TIP3    H226877   3.540   2.550   0.469 -1.2781  2.5445 -1.9237
 1748TIP3   OH226878   5.982   4.327   2.074  0.1339  0.2251 -0.1096
 1748TIP3    H126879   6.047   4.294   2.135 -0.4289  0.0750  0.4149
 1748TIP3    H226880   6.018   4.410   2.042  0.1178  0.6420  0.9428
 1749TIP3   OH226881   3.902   3.065   0.195 -0.1410 -0.4411  0.5946
 1749TIP3    H126882   3.807   3.053   0.197  0.0353 -2.1516  0.3330
 1749TIP3    H226883   3.929   3.054   0.286 -0.2645  0.9904  0.8270
 1750TIP3   OH226884   2.366   5.356   6.843 -0.0014 -0.4322  0.2154
 1750TIP3    H126885   2.397   5.270   6.870  1.1873  0.0582  0.4527
 1750TIP3    H226886   2.304   5.338   6.772  3.2213 -1.2976 -2.6020
 1751TIP3   OH226887   3.528   1.119   7.741 -0.0328 -0.3774  0.1509
 1751TIP3    H126888   3.440   1.108   7.776 -0.2702 -3.3207 -1.0422
 1751TIP3    H226889   3.585   1.119   7.818 -1.0478  2.7405  1.0177
 1752TIP3   OH226890   0.930   1.041   0.031 -0.1499  0.6558  0.1372
 1752TIP3    H126891   0.910   1.052   0.124  0.3438  0.1715  0.3082
 1752TIP3    H226892   0.853   1.076  -0.014 -1.4256 -1.1706  0.7620
 1753TIP3   OH226893   2.218   4.073   0.302 -0.6177 -0.0681 -0.0256
 1753TIP3    H126894   2.185   4.086   0.213 -0.6395 -1.2639 -0.2083
 1753TIP3    H226895   2.297   4.019   0.290 -1.7160 -1.9664  0.7873
 1754TIP3   OH226896   0.051   2.800   6.525  0.1473 -0.0938  0.3866
 1754TIP3    H126897  -0.014   2.804   6.455 -0.4105 -0.8997  0.8286
 1754TIP3    H226898   0.090   2.712   6.516  0.8103  0.1862  0.4499
 1755TIP3   OH226899   1.769   3.603   1.946  0.1058 -0.6084  0.4344
 1755TIP3    H126900   1.759   3.530   1.885 -1.2479 -0.6955  0.7474
 1755TIP3    H226901   1.857   3.590   1.984 -0.3689 -2.4900  1.0080
 1756TIP3   OH226902   1.675   0.360   2.347  0.0676  0.2929  0.2679
 1756TIP3    H126903   1.699   0.397   2.262  0.8803 -0.9328 -0.0553
 1756TIP3    H226904   1.581   0.343   2.339 -0.2162  1.7011  0.2270
 1757TIP3   OH226905   4.076   1.095   1.560  0.0245 -0.2821  0.4150
 1757TIP3    H126906   4.154   1.060   1.517 -0.1289  0.1407 -0.2224
 1757TIP3    H226907   4.099   1.099   1.653  1.5744  1.8695  0.0157
 1758TIP3   OH226908   2.859   4.194   7.550  0.2012  0.4433  0.0598
 1758TIP3    H126909   2.839   4.104   7.523 -1.3495  0.2675  1.6064
 1758TIP3    H226910   2.855   4.192   7.646  1.1890  1.9522  0.1649
 1759TIP3   OH226911   0.107   4.294   2.310  0.1198 -0.3512 -0.2771
 1759TIP3    H126912   0.073   4.251   2.388 -1.8116  2.3081  0.4962
 1759TIP3    H226913   0.045   4.272   2.241 -1.6687  2.0428  0.4301
 1760TIP3   OH226914   2.579   3.236   7.676  0.8325  0.5123 -0.3869
 1760TIP3    H126915   2.543   3.219   7.589 -0.9444 -0.0381  0.3988
 1760TIP3    H226916   2.509   3.281   7.722  1.1752 -0.4855  1.2003
 1761TIP3   OH226917   1.641   3.408   2.320 -0.2733  0.7120  0.0037
 1761TIP3    H126918   1.596   3.457   2.251  0.3927  0.6465 -0.4903
 1761TIP3    H226919   1.669   3.474   2.383  0.4869  0.9586 -0.5824
 1762TIP3   OH226920   2.302   0.489   1.555  0.4933 -0.1864  0.1496
 1762TIP3    H126921   2.235   0.426   1.582  0.3284  0.5056  1.4431
 1762TIP3    H226922   2.348   0.512   1.635  1.7332  0.0066 -0.5857
 1763TIP3   OH226923   0.003   4.797   2.644  1.1126  0.3180 -0.0343
 1763TIP3    H126924   0.002   4.722   2.703  0.4412  0.2142 -0.1638
 1763TIP3    H226925  -0.045   4.865   2.691 -0.8464 -0.2620 -1.0540
 1764TIP3   OH226926   2.441   5.509   1.947  0.1542  0.1793  0.7670
 1764TIP3    H126927   2.484   5.455   1.881  1.1966 -0.1262  1.6792
 1764TIP3    H226928   2.367   5.549   1.900 -0.3057 -1.5646 -0.0604
 1765TIP3   OH226929   2.668   3.478   8.203 -0.0715  0.0329  0.2393
 1765TIP3    H126930   2.695   3.555   8.253  1.9367 -1.2379  1.2424
 1765TIP3    H226931   2.676   3.405   8.265 -1.7897 -1.0359 -0.7224
 1766TIP3   OH226932   3.539   5.092   0.632 -0.2350  0.0289  0.4972
 1766TIP3    H126933   3.477   5.047   0.576 -0.4809  0.6726  0.2385
 1766TIP3    H226934   3.485   5.130   0.702 -0.3069  1.4627 -0.2854
 1767TIP3   OH226935   4.834   4.042   1.605  0.6369  0.2213  0.1756
 1767TIP3    H126936   4.848   4.109   1.671 -1.0287  0.4449  0.3226
 1767TIP3    H226937   4.752   4.000   1.629  0.6290 -0.5289 -1.0582
 1768TIP3   OH226938   4.708   4.379   1.202 -0.0189  0.4879  0.1953
 1768TIP3    H126939   4.676   4.469   1.197  1.1250  0.9842  1.0793
 1768TIP3    H226940   4.637   4.325   1.169 -1.0982  1.6509  0.5568
 1769TIP3   OH226941   1.083   3.720   0.751 -0.3412  0.0780  0.3275
 1769TIP3    H126942   1.088   3.781   0.677 -0.0750 -0.8927 -0.4609
 1769TIP3    H226943   0.989   3.710   0.767 -0.4444 -0.7810 -0.7807
 1770TIP3   OH226944   6.502   5.961   0.980 -0.3624 -0.0496 -0.0728
 1770TIP3    H126945   6.547   5.974   1.064 -0.5461  0.0797  0.0077
 1770TIP3    H226946   6.555   6.009   0.916 -0.3924  0.1161  0.0250
 1771TIP3   OH226947   3.401   5.151   1.668 -1.0317  0.5346 -0.3716
 1771TIP3    H126948   3.496   5.138   1.666 -1.1386 -0.3807 -0.2269
 1771TIP3    H226949   3.372   5.101   1.745 -1.7775 -0.3499 -1.2031
 1772TIP3   OH226950   0.748   0.045   2.127 -0.0509 -0.4745  0.2559
 1772TIP3    H126951   0.838   0.016   2.110 -0.0052 -0.6577  0.7948
 1772TIP3    H226952   0.725   0.003   2.210 -0.2435  0.4524  0.6840
 1773TIP3   OH226953   3.639   6.981   0.410  0.4426  0.3942 -0.1792
 1773TIP3    H126954   3.673   6.958   0.496  2.9903  0.1767 -1.1587
 1773TIP3    H226955   3.613   6.897   0.371 -0.1433  0.4274  0.1247
 1774TIP3   OH226956   4.552   6.975   1.235 -0.0937  0.2941 -0.3509
 1774TIP3    H126957   4.531   6.887   1.202 -0.2491 -0.0531  0.6380
 1774TIP3    H226958   4.466   7.015   1.252 -0.0092  0.2128  0.2774
 1775TIP3   OH226959   2.899   4.863   2.431 -0.6920 -0.2433  0.2285
 1775TIP3    H126960   2.872   4.911   2.509  1.2324 -0.6553  1.2089
 1775TIP3    H226961   2.880   4.923   2.359 -2.1904  0.2868  1.0092
 1776TIP3   OH226962   6.911   5.155   0.065  0.0103  0.0280 -0.0995
 1776TIP3    H126963   6.883   5.139   0.156  0.1492 -1.8274 -0.3454
 1776TIP3    H226964   6.832   5.189   0.022 -0.1961  0.4387  0.5799
 1777TIP3   OH226965   3.289   1.848   7.350  0.3754 -0.5168 -0.1049
 1777TIP3    H126966   3.364   1.873   7.296  0.5381  0.2680  0.4621
 1777TIP3    H226967   3.213   1.878   7.302  0.4831 -0.4125 -0.2096
 1778TIP3   OH226968   6.491   1.108   7.230  0.0902  0.1639  0.0146
 1778TIP3    H126969   6.475   1.117   7.136  1.7617 -2.4516 -0.6414
 1778TIP3    H226970   6.535   1.023   7.239  1.0119  0.8226  3.0487
 1779TIP3   OH226971   2.268   6.289   6.937  0.2984 -0.7243  0.6328
 1779TIP3    H126972   2.325   6.230   6.887 -1.9984 -1.6625 -1.0837
 1779TIP3    H226973   2.245   6.358   6.875  2.2897  1.7070  2.3763
 1780TIP3   OH226974   2.942   2.792   7.762  0.7480  0.5346 -0.5276
 1780TIP3    H126975   3.006   2.791   7.833  0.3588  0.8383 -0.1675
 1780TIP3    H226976   2.859   2.814   7.805  0.3882  0.0672 -0.9772
 1781TIP3   OH226977   0.338   4.563   0.523 -0.4692 -0.8558  0.3092
 1781TIP3    H126978   0.313   4.561   0.431 -1.6352 -2.1194  0.6281
 1781TIP3    H226979   0.411   4.625   0.526 -1.4203  0.4331 -1.2067
 1782TIP3   OH226980   1.243   4.900   6.633 -0.0554  0.3692  0.5742
 1782TIP3    H126981   1.304   4.826   6.642  0.0152  0.3626  0.0839
 1782TIP3    H226982   1.272   4.963   6.699  0.8578  0.6175 -0.0333
 1783TIP3   OH226983   0.566   3.511   1.275  0.3324 -0.0350  0.2804
 1783TIP3    H126984   0.540   3.478   1.361  4.6063  1.1238  2.2639
 1783TIP3    H226985   0.576   3.432   1.222 -0.7497 -0.9216  1.3292
 1784TIP3   OH226986   5.710   3.913   0.934  0.2618 -0.6436  0.3550
 1784TIP3    H126987   5.657   3.937   1.010  0.9376  0.5527  0.4736
 1784TIP3    H226988   5.715   3.994   0.883  0.8372 -1.1120 -0.3316
 1785TIP3   OH226989   4.695   1.451   7.706 -0.3044 -0.3836 -0.1030
 1785TIP3    H126990   4.677   1.360   7.682 -1.6682 -0.0494 -0.4242
 1785TIP3    H226991   4.612   1.496   7.693  0.0964  0.7246  0.9874
 1786TIP3   OH226992   0.684   0.430   0.005 -0.0475 -0.5955 -0.0669
 1786TIP3    H126993   0.779   0.420  -0.007  0.0495 -2.0531  1.5010
 1786TIP3    H226994   0.673   0.446   0.098 -1.1107  4.4692 -0.8012
 1787TIP3   OH226995   6.323   3.513   7.491  0.0562 -0.0070 -0.0663
 1787TIP3    H126996   6.287   3.435   7.531  0.8004 -0.1877  0.2644
 1787TIP3    H226997   6.274   3.585   7.531 -0.1818 -0.2621  0.1090
 1788TIP3   OH226998   4.603   0.767   8.393  0.2618 -0.3058  0.3770
 1788TIP3    H126999   4.567   0.853   8.373  0.5017 -0.3542 -0.3142
 1788TIP3    H227000   4.622   0.769   8.486  1.6486  0.9252  0.1061
 1789TIP3   OH227001   4.561   0.890   7.303  0.1849  0.0495 -0.7323
 1789TIP3    H127002   4.583   0.867   7.393  0.2371 -0.2875 -0.8281
 1789TIP3    H227003   4.622   0.838   7.250  0.4720  0.5922 -0.9517
 1790TIP3   OH227004   2.468   4.964   0.956 -0.4415 -0.3595 -0.8090
 1790TIP3    H127005   2.390   4.973   0.902  0.2359 -0.8687 -1.9061
 1790TIP3    H227006   2.475   4.870   0.973 -1.5713 -0.0930  1.6335
 1791TIP3   OH227007   3.306   5.417   7.067 -0.3180  0.1814  0.7658
 1791TIP3    H127008   3.240   5.486   7.059  0.1164  0.5086 -0.1819
 1791TIP3    H227009   3.284   5.355   6.998  1.3453  1.1759 -0.7636
 1792TIP3   OH227010   2.269   5.618   1.716  0.2649 -0.2247  0.6292
 1792TIP3    H127011   2.181   5.642   1.687  0.5297 -0.3327 -0.2908
 1792TIP3    H227012   2.298   5.552   1.653 -0.2485 -2.6894  2.7595
 1793TIP3   OH227013   2.269   5.250   3.254  0.3484  0.3644  0.0176
 1793TIP3    H127014   2.357   5.214   3.240 -0.0028 -0.2781 -0.6671
 1793TIP3    H227015   2.215   5.173   3.272 -0.6548  0.3197 -2.6334
 1794TIP3   OH227016   3.781   5.218   6.707  0.1649 -0.2188 -0.4071
 1794TIP3    H127017   3.722   5.290   6.731  1.3457  0.0872  1.8553
 1794TIP3    H227018   3.853   5.260   6.661  1.0605  0.1814  1.2770
 1795TIP3   OH227019   2.353   0.742   7.884 -0.4291 -0.0888  0.3132
 1795TIP3    H127020   2.378   0.813   7.825  0.5742  2.0420  3.0447
 1795TIP3    H227021   2.424   0.677   7.875 -0.5114 -0.0096 -1.0588
 1796TIP3   OH227022   6.704   3.770   1.599 -0.1580  0.3731 -0.0579
 1796TIP3    H127023   6.681   3.704   1.664  2.2977 -0.0613  0.4486
 1796TIP3    H227024   6.784   3.737   1.558  0.3732  2.3855 -0.7658
 1797TIP3   OH227025   4.702   6.160   1.627 -0.1702 -0.4690  0.4929
 1797TIP3    H127026   4.679   6.068   1.613 -1.0005 -0.1048 -0.6348
 1797TIP3    H227027   4.723   6.165   1.721  0.7155 -1.9637  0.4127
 1798TIP3   OH227028   2.127   0.796   7.451  0.4083 -0.4142  0.2339
 1798TIP3    H127029   2.220   0.791   7.473  0.1229 -0.0025  1.6727
 1798TIP3    H227030   2.125   0.822   7.359  1.7616  2.1196  0.8085
 1799TIP3   OH227031   2.432   3.445   7.379 -0.3853 -0.4308  0.3069
 1799TIP3    H127032   2.421   3.374   7.441 -0.7149 -0.9326 -0.3182
 1799TIP3    H227033   2.460   3.403   7.298  2.5764  0.4400  0.7778
 1800TIP3   OH227034   1.958   3.512   2.621  0.6533 -0.3182  0.1777
 1800TIP3    H127035   1.972   3.437   2.678 -2.0710 -0.4163  0.8846
 1800TIP3    H227036   1.907   3.476   2.548  2.2990  0.2174 -1.2994
 1801TIP3   OH227037   0.608   0.715   0.063  0.2789 -0.0969  0.2669
 1801TIP3    H127038   0.702   0.733   0.066  0.3906 -0.7696  0.9778
 1801TIP3    H227039   0.601   0.632   0.016  0.1738 -0.8802  1.6268
 1802TIP3   OH227040   4.544   3.714   1.251  0.3653 -0.6130 -0.0491
 1802TIP3    H127041   4.570   3.797   1.291  0.3043 -1.9803  3.1125
 1802TIP3    H227042   4.627   3.670   1.232  0.3853 -0.4646 -0.3115
 1803TIP3   OH227043   5.474   6.688   0.105  0.1390 -0.5259 -0.2582
 1803TIP3    H127044   5.494   6.705   0.013 -0.2522 -0.5767 -0.3542
 1803TIP3    H227045   5.384   6.720   0.117 -0.1741 -1.4033 -0.1457
 1804TIP3   OH227046   5.634   6.147   7.118 -0.5448 -0.2310 -0.5363
 1804TIP3    H127047   5.625   6.155   7.024  2.4643 -0.1037 -0.9236
 1804TIP3    H227048   5.726   6.122   7.131 -0.6699  0.4492  2.3758
 1805TIP3   OH227049   3.604   1.198   8.406  0.1624  0.1133  0.2344
 1805TIP3    H127050   3.542   1.141   8.451  0.4478  0.0333  0.5348
 1805TIP3    H227051   3.559   1.282   8.398 -0.3217 -0.1932 -0.3529
 1806TIP3   OH227052   5.143   5.784   7.100  0.3415  0.2879  0.2725
 1806TIP3    H127053   5.197   5.753   7.172  0.2313  0.4224  0.4140
 1806TIP3    H227054   5.161   5.723   7.028  0.5993  0.2708  0.3515
 1807TIP3   OH227055   2.112   6.978   0.322 -0.5778  0.6561 -0.1885
 1807TIP3    H127056   2.174   6.958   0.392  0.4033  1.3723 -0.8122
 1807TIP3    H227057   2.035   7.013   0.367 -1.4055 -2.0960  0.7555
 1808TIP3   OH227058   6.127   5.723   1.849  0.2010  0.4156 -0.0340
 1808TIP3    H127059   6.068   5.724   1.924  0.3503  1.5256  0.0740
 1808TIP3    H227060   6.204   5.675   1.880  0.9092  2.1671  1.0493
 1809TIP3   OH227061   4.622   4.758   6.924  0.8304 -0.2213 -0.1872
 1809TIP3    H127062   4.659   4.685   6.875  0.4759 -1.0482  0.7469
 1809TIP3    H227063   4.698   4.813   6.946  0.8829  0.7636 -2.5289
 1810TIP3   OH227064   3.161   5.937   8.027  0.5705 -0.6336  0.1449
 1810TIP3    H127065   3.094   5.998   7.998  1.0020  0.0376  0.5223
 1810TIP3    H227066   3.176   5.879   7.951 -0.8338 -1.1795  0.2537
 1811TIP3   OH227067   0.033   2.246   7.314  0.2809 -0.0376 -0.5092
 1811TIP3    H127068   0.028   2.340   7.294  1.4766  0.6773  2.0640
 1811TIP3    H227069   0.067   2.206   7.234  2.3823  2.1509 -0.8260
 1812TIP3   OH227070   0.825   1.997   2.945  0.0022  0.4854  0.0961
 1812TIP3    H127071   0.770   1.947   3.005  0.0152 -0.5050 -0.7065
 1812TIP3    H227072   0.764   2.038   2.884  0.0708  0.3915 -0.0368
 1813TIP3   OH227073   0.860   6.612   1.167  0.3778 -0.0523  0.0990
 1813TIP3    H127074   0.792   6.624   1.233 -0.7377  0.5565 -1.1123
 1813TIP3    H227075   0.885   6.701   1.141  2.3524 -0.2416  1.2012
 1814TIP3   OH227076   6.510   2.912   6.811 -0.0463  0.0451  0.4264
 1814TIP3    H127077   6.508   2.817   6.827 -0.9970 -0.1117 -0.5156
 1814TIP3    H227078   6.424   2.932   6.774  0.9329  0.8805 -1.5334
 1815TIP3   OH227079   0.013   4.120   1.731 -0.1307 -0.1418 -0.2395
 1815TIP3    H127080   0.043   4.073   1.809 -2.4487 -1.2187  0.0732
 1815TIP3    H227081  -0.063   4.071   1.701 -0.2629  1.1882 -2.2569
 1816TIP3   OH227082   2.410   0.547   1.832  1.0755 -0.2847 -0.2156
 1816TIP3    H127083   2.376   0.466   1.869 -1.1545  1.1345  1.0171
 1816TIP3    H227084   2.484   0.570   1.888  2.9935 -2.3575 -1.7138
 1817TIP3   OH227085   5.935   6.743   1.614  0.5626 -0.2165 -0.0982
 1817TIP3    H127086   5.927   6.650   1.592  3.2372 -0.8642  1.3020
 1817TIP3    H227087   5.915   6.748   1.707 -1.8968  1.0922 -0.5913
 1818TIP3   OH227088   4.981   4.788   6.685 -0.6698  0.3033 -0.1254
 1818TIP3    H127089   5.071   4.818   6.670 -0.2650 -0.3783  0.8434
 1818TIP3    H227090   4.986   4.693   6.680 -1.6720  0.2950 -1.7310
 1819TIP3   OH227091   2.385   2.250   0.225 -0.2047 -0.2944 -0.1114
 1819TIP3    H127092   2.371   2.288   0.138  0.3190  1.0348  0.3549
 1819TIP3    H227093   2.474   2.275   0.248 -0.1523 -1.0914  0.5946
 1820TIP3   OH227094   0.845   4.814   0.051 -0.2860  0.1669 -0.5024
 1820TIP3    H127095   0.805   4.751  -0.009 -0.8619  1.3001 -1.3441
 1820TIP3    H227096   0.877   4.884  -0.006 -2.2806  2.0707  0.5670
 1821TIP3   OH227097   5.620   3.921   8.346  0.2321 -0.1479 -0.4886
 1821TIP3    H127098   5.694   3.942   8.290 -0.0988 -1.1202 -1.3139
 1821TIP3    H227099   5.577   4.005   8.362  0.4634  0.1705 -1.5098
 1822TIP3   OH227100   3.384   6.970   6.839 -0.3738  0.7957  0.0578
 1822TIP3    H127101   3.451   7.031   6.871  1.3900 -0.6486 -0.7022
 1822TIP3    H227102   3.354   6.925   6.918  1.0859  0.0265  0.2223
 1823TIP3   OH227103   3.052   2.685   1.493 -0.1951  0.2406  0.0582
 1823TIP3    H127104   3.078   2.597   1.468  2.0382  0.8649 -0.0732
 1823TIP3    H227105   3.093   2.699   1.579 -0.1054  1.2916 -0.1336
 1824TIP3   OH227106   2.738   0.424   1.354  0.3912  0.3183  0.3625
 1824TIP3    H127107   2.729   0.518   1.370 -0.1050  0.0392  1.8161
 1824TIP3    H227108   2.823   0.400   1.389 -0.0874 -0.0270  1.3267
 1825TIP3   OH227109   4.160   6.268   7.704  0.3356 -0.3393 -0.5491
 1825TIP3    H127110   4.251   6.261   7.674  0.5396 -0.3145  0.0454
 1825TIP3    H227111   4.108   6.240   7.629  0.8903 -2.0401 -0.3437
 1826TIP3   OH227112   3.658   6.902   7.438  0.0731  0.0996  0.0761
 1826TIP3    H127113   3.699   6.970   7.384  0.5285  0.6468  1.0569
 1826TIP3    H227114   3.685   6.924   7.527  1.2498 -2.0784  0.3299
 1827TIP3   OH227115   5.849   1.344   1.343 -0.6247 -0.0211  0.3851
 1827TIP3    H127116   5.882   1.325   1.431 -1.8597 -0.2184  0.8199
 1827TIP3    H227117   5.869   1.265   1.292  2.0988  0.9050 -0.1552
 1828TIP3   OH227118   5.795   2.049   8.051  0.3514 -0.1035 -0.0584
 1828TIP3    H127119   5.710   2.066   8.092  0.9367  1.7673  0.4725
 1828TIP3    H227120   5.825   1.968   8.091 -1.3456 -1.0333 -0.5647
 1829TIP3   OH227121   3.197   0.669   6.929 -0.6648  0.0029 -0.0587
 1829TIP3    H127122   3.115   0.701   6.890  0.3876  0.8566 -1.6776
 1829TIP3    H227123   3.201   0.577   6.904 -1.9266 -0.5119  1.4932
 1830TIP3   OH227124   2.831   5.304   1.443  0.2353 -0.3000  0.3764
 1830TIP3    H127125   2.760   5.264   1.392 -1.2025  0.4607  1.7026
 1830TIP3    H227126   2.902   5.239   1.439  0.0343 -0.4795 -2.1406
 1831TIP3   OH227127   2.165   5.771   0.752 -0.4176  0.4359  0.2553
 1831TIP3    H127128   2.073   5.775   0.725  0.2448  0.1505 -2.3323
 1831TIP3    H227129   2.195   5.862   0.748 -0.0372  0.2757 -1.2591
 1832TIP3   OH227130   3.574   1.821   0.972  0.1253  0.0261  0.1870
 1832TIP3    H127131   3.482   1.846   0.979 -0.0153 -0.3449 -0.3034
 1832TIP3    H227132   3.571   1.728   0.951  0.6161  0.0190  0.1506
 1833TIP3   OH227133   5.087   1.561   7.450  0.1114 -0.0787  0.8073
 1833TIP3    H127134   5.145   1.595   7.381 -0.9779 -0.7435 -0.4909
 1833TIP3    H227135   5.128   1.589   7.531  1.3172  0.9666 -0.1095
 1834TIP3   OH227136   3.513   6.935   7.831 -0.6060 -0.9272  0.3115
 1834TIP3    H127137   3.483   7.023   7.808 -2.0688 -1.3480  0.4771
 1834TIP3    H227138   3.601   6.929   7.794 -1.1734 -0.0212 -1.3137
 1835TIP3   OH227139   3.093   3.524   0.818 -0.0526  0.2729  0.4936
 1835TIP3    H127140   3.179   3.551   0.787  0.5111 -0.5271  1.2943
 1835TIP3    H227141   3.031   3.578   0.769  0.9425  1.5653  0.6148
 1836TIP3   OH227142   6.672   6.592   8.228 -0.1132 -0.0238 -0.2501
 1836TIP3    H127143   6.581   6.623   8.234 -0.1753 -0.2655  0.1100
 1836TIP3    H227144   6.670   6.521   8.165 -0.0805  0.3022 -0.6239
 1837TIP3   OH227145   1.244   0.849   7.830  0.4316 -0.2574 -0.1160
 1837TIP3    H127146   1.316   0.893   7.874 -0.0167  0.4356 -0.0478
 1837TIP3    H227147   1.284   0.774   7.786  0.7264 -1.5997  2.3108
 1838TIP3   OH227148   0.038   5.236   2.375 -0.3973  0.6459  0.0416
 1838TIP3    H127149  -0.053   5.230   2.343 -0.2021 -4.1630 -0.3706
 1838TIP3    H227150   0.032   5.213   2.467  0.3532  1.0317  0.1877
 1839TIP3   OH227151   4.246   1.002   0.807 -0.7837 -0.2459  0.6681
 1839TIP3    H127152   4.313   0.986   0.740 -1.9873  0.3314 -0.7516
 1839TIP3    H227153   4.231   0.916   0.847 -0.1632 -0.6484  0.0672
 1840TIP3   OH227154   3.845   2.820   8.132 -0.1182  0.4284 -0.3912
 1840TIP3    H127155   3.890   2.879   8.072  0.4441  0.6568  0.2545
 1840TIP3    H227156   3.788   2.877   8.183  2.8603  1.0206  2.6003
 1841TIP3   OH227157   4.768   6.856   7.835 -0.3500 -0.1037 -0.1046
 1841TIP3    H127158   4.716   6.840   7.914  0.1095 -1.8530 -0.1128
 1841TIP3    H227159   4.844   6.800   7.845  0.9466  1.4634 -0.6864
 1842TIP3   OH227160   0.098   4.433   7.806 -0.3249 -0.4206  0.6247
 1842TIP3    H127161   0.007   4.409   7.820 -0.6293 -0.7319 -1.4854
 1842TIP3    H227162   0.094   4.514   7.754  0.5764 -0.7583  0.0050
 1843TIP3   OH227163   1.204   6.428   1.914 -0.6086  0.3662 -0.3722
 1843TIP3    H127164   1.293   6.399   1.938 -0.4760  0.0238 -1.2355
 1843TIP3    H227165   1.151   6.349   1.924 -0.5396  0.2011 -1.2314
 1844TIP3   OH227166   4.871   0.505   0.758  0.6686 -0.0267  0.1270
 1844TIP3    H127167   4.947   0.460   0.723  0.8302  0.2001  0.1874
 1844TIP3    H227168   4.835   0.554   0.684 -0.3236 -1.3421 -0.3035
 1845TIP3   OH227169   5.257   6.720   1.304  0.0601  0.1766 -0.3213
 1845TIP3    H127170   5.162   6.732   1.305  0.0424  0.0435 -0.3443
 1845TIP3    H227171   5.280   6.699   1.395  0.1633  0.9130 -0.1694
 1846TIP3   OH227172   3.030   1.071   6.678 -0.1974  0.0962 -0.0389
 1846TIP3    H127173   3.038   1.042   6.587  0.9741  1.0510 -0.2744
 1846TIP3    H227174   2.936   1.081   6.692 -0.3468  2.7318 -2.1075
 1847TIP3   OH227175   6.557   3.760   7.996  0.5591  0.3275 -0.1348
 1847TIP3    H127176   6.604   3.707   7.931  0.8797  1.5185 -0.9103
 1847TIP3    H227177   6.497   3.698   8.038  0.4226 -0.5119 -1.4956
 1848TIP3   OH227178   3.176   2.279   7.275 -0.2729  0.3391 -0.2583
 1848TIP3    H127179   3.187   2.326   7.192 -0.3756 -0.0875 -0.5179
 1848TIP3    H227180   3.235   2.324   7.336  0.9644 -0.2857 -0.9643
 1849TIP3   OH227181   4.181   4.415   7.837  0.3638  0.4806  0.1287
 1849TIP3    H127182   4.117   4.420   7.765 -0.8766  3.3344  1.2675
 1849TIP3    H227183   4.266   4.423   7.793 -0.2961  0.9796 -1.1235
 1850TIP3   OH227184   0.696   5.340   7.989 -0.3725  0.4669 -0.3216
 1850TIP3    H127185   0.686   5.391   7.908  3.6921  0.2081 -1.2114
 1850TIP3    H227186   0.688   5.249   7.961  1.2163  0.3700 -0.5529
 1851TIP3   OH227187   6.909   4.353   0.729 -0.0635 -0.1266 -0.0503
 1851TIP3    H127188   6.968   4.392   0.794 -0.8378  0.6711  0.1834
 1851TIP3    H227189   6.965   4.293   0.680  1.0756  0.9982 -0.1838
 1852TIP3   OH227190   2.596   3.688   0.707  0.0155 -0.4943 -0.6648
 1852TIP3    H127191   2.537   3.745   0.756 -1.2705 -2.1195 -0.2201
 1852TIP3    H227192   2.566   3.599   0.728  2.0638 -1.3598 -1.1550
 1853TIP3   OH227193   0.649   6.717   1.681 -0.5833  0.1723 -0.3625
 1853TIP3    H127194   0.673   6.642   1.626 -2.1653  0.6024 -1.7528
 1853TIP3    H227195   0.704   6.789   1.649 -0.0003 -0.0689  0.0793
 1854TIP3   OH227196   4.999   6.679   0.077 -0.4136  0.4463 -0.4965
 1854TIP3    H127197   5.081   6.725   0.096 -1.4536  1.3428  2.3007
 1854TIP3    H227198   5.011   6.592   0.117 -0.0568 -0.2403 -2.0236
 1855TIP3   OH227199   5.061   0.314   7.617  0.4227 -0.0209  0.0097
 1855TIP3    H127200   5.106   0.310   7.532 -1.8883 -0.7705 -1.2630
 1855TIP3    H227201   5.035   0.405   7.627  2.6800  0.5783  1.0914
 1856TIP3   OH227202   4.630   4.811   1.887 -0.4915 -0.7788  0.3618
 1856TIP3    H127203   4.700   4.829   1.823 -0.6201 -2.9495 -0.4836
 1856TIP3    H227204   4.660   4.732   1.932 -3.1455 -2.9200 -1.3159
 1857TIP3   OH227205   4.697   6.828   8.118  0.3288  0.3258  0.3056
 1857TIP3    H127206   4.624   6.830   8.181  0.6205 -3.0022  0.9618
 1857TIP3    H227207   4.766   6.778   8.163  1.4585 -0.1267 -1.7928
 1858TIP3   OH227208   0.624   1.777   1.320 -0.3888 -0.8081  0.1499
 1858TIP3    H127209   0.596   1.732   1.399 -1.1561 -1.5342 -0.5089
 1858TIP3    H227210   0.668   1.710   1.268 -1.9045 -0.9616 -1.0258
 1859TIP3   OH227211   0.437   5.101   1.168 -0.8214 -0.1411 -0.6663
 1859TIP3    H127212   0.532   5.088   1.168 -0.9756 -1.4833 -0.1615
 1859TIP3    H227213   0.418   5.147   1.086  0.1938 -0.3940 -1.0559
 1860TIP3   OH227214   1.353   6.408   2.667 -0.4280  0.4988  0.0650
 1860TIP3    H127215   1.447   6.417   2.684 -0.1161 -1.4133 -0.3404
 1860TIP3    H227216   1.312   6.476   2.720  1.2366  2.1192 -0.5998
 1861TIP3   OH227217   0.884   2.947   6.981 -0.3196 -0.2033  0.2601
 1861TIP3    H127218   0.800   2.901   6.981 -0.5501  0.2048 -0.3538
 1861TIP3    H227219   0.873   3.017   6.916  1.6226 -2.2566 -2.5491
 1862TIP3   OH227220   5.442   1.326   1.552  0.0158  0.0499 -0.0407
 1862TIP3    H127221   5.513   1.388   1.569 -0.3447  0.6370 -0.6564
 1862TIP3    H227222   5.483   1.240   1.562  0.7472  0.3797 -0.1187
 1863TIP3   OH227223   5.988   3.675   0.648 -0.3655  0.0236  0.0310
 1863TIP3    H127224   5.921   3.607   0.648 -0.1650 -0.1901  0.8733
 1863TIP3    H227225   6.020   3.677   0.558 -1.2936 -0.0746 -0.3104
 1864TIP3   OH227226   1.137   0.901   8.197 -0.4301 -0.2328 -0.1420
 1864TIP3    H127227   1.058   0.943   8.161  0.6269  0.5963 -1.6243
 1864TIP3    H227228   1.123   0.808   8.181 -1.1879 -0.1201 -0.2230
 1865TIP3   OH227229   1.960   2.113   2.879 -0.3593 -0.3157 -0.2538
 1865TIP3    H127230   2.029   2.147   2.937 -0.5844  0.0070 -0.1730
 1865TIP3    H227231   1.911   2.052   2.934 -0.4380 -0.1762 -0.1685
 1866TIP3   OH227232   5.317   1.678   2.612  0.2708 -0.0036 -0.0424
 1866TIP3    H127233   5.409   1.700   2.624  0.1909  1.5440 -1.7887
 1866TIP3    H227234   5.314   1.636   2.525 -0.8475  1.4200 -0.7330
 1867TIP3   OH227235   1.494   5.645   7.671  0.0717 -0.4251 -0.3142
 1867TIP3    H127236   1.497   5.590   7.750 -0.2175 -1.2130 -0.8341
 1867TIP3    H227237   1.583   5.677   7.661 -0.1006  0.5032  0.8878
 1868TIP3   OH227238   4.144   5.302   2.068 -0.4212  0.6196  0.3039
 1868TIP3    H127239   4.120   5.261   2.151 -0.6721  0.9425  0.3911
 1868TIP3    H227240   4.069   5.285   2.011  0.1486 -0.4459 -0.1675
 1869TIP3   OH227241   4.242   0.660   0.391 -0.7329  0.5749 -0.2845
 1869TIP3    H127242   4.224   0.664   0.485  4.6711  0.6587  1.0857
 1869TIP3    H227243   4.220   0.747   0.359 -0.2447  1.4267  1.5560
 1870TIP3   OH227244   4.036   5.674   2.505  0.2252  0.0689  0.3388
 1870TIP3    H127245   4.034   5.703   2.413 -0.4344 -1.6366 -0.2410
 1870TIP3    H227246   4.127   5.684   2.531  0.4068  0.6825 -0.4822
 1871TIP3   OH227247   5.284   0.782   1.774  0.3570  0.8453  0.0780
 1871TIP3    H127248   5.311   0.763   1.864  2.3106  0.0800 -0.6132
 1871TIP3    H227249   5.300   0.875   1.763 -1.0626  1.2052  0.8730
 1872TIP3   OH227250   5.894   4.198   1.089 -0.0472  0.3035 -0.6098
 1872TIP3    H127251   5.841   4.198   1.009 -1.0201 -0.1615  0.0059
 1872TIP3    H227252   5.947   4.119   1.083 -1.1182 -0.4703 -0.1823
 1873TIP3   OH227253   3.588   1.072   1.589 -0.1271 -0.2371 -0.0977
 1873TIP3    H127254   3.587   1.157   1.631 -1.7567 -0.3828  0.2369
 1873TIP3    H227255   3.499   1.038   1.600  0.2751 -1.6655 -0.8609
 1874TIP3   OH227256   1.566   3.590   7.118  0.1689 -0.0481  0.0894
 1874TIP3    H127257   1.605   3.504   7.134  0.3807  0.0792  0.2527
 1874TIP3    H227258   1.473   3.571   7.103  0.3252 -0.3706 -0.4897
 1875TIP3   OH227259   2.461   4.863   7.672 -0.0310 -0.0818 -0.0275
 1875TIP3    H127260   2.387   4.804   7.664  0.6300 -0.9109 -0.1622
 1875TIP3    H227261   2.538   4.806   7.670  0.6418  0.8060 -0.5187
 1876TIP3   OH227262   5.837   0.855   1.834  0.4667  0.4451  0.4333
 1876TIP3    H127263   5.826   0.834   1.741  2.5180 -0.4464  0.3167
 1876TIP3    H227264   5.767   0.808   1.878  1.1259 -1.5012 -0.4556
 1877TIP3   OH227265   0.193   4.843   6.687  0.5398  0.0870  0.6749
 1877TIP3    H127266   0.127   4.888   6.741 -0.3788 -1.8912  1.3107
 1877TIP3    H227267   0.254   4.807   6.751  1.4301  0.6656  0.1603
 1878TIP3   OH227268   1.029   0.392   0.487  0.1027 -0.7760  0.1611
 1878TIP3    H127269   1.065   0.314   0.529  0.4031 -0.7953 -0.1341
 1878TIP3    H227270   1.081   0.404   0.408  0.6460  0.2208  0.6425
 1879TIP3   OH227271   6.886   3.342   6.884 -0.1165 -0.2369  0.1895
 1879TIP3    H127272   6.853   3.289   6.812 -0.7538 -1.4424  1.3096
 1879TIP3    H227273   6.820   3.410   6.897  0.4252  0.5163 -0.8895
 1880TIP3   OH227274   1.432   6.537   6.930  0.4561 -0.7347 -0.2133
 1880TIP3    H127275   1.446   6.592   6.853  1.4341  1.6569  1.5467
 1880TIP3    H227276   1.418   6.449   6.895 -0.6695  0.5058 -3.1517
 1881TIP3   OH227277   0.418   6.663   2.214  0.1672  0.1579  0.5816
 1881TIP3    H127278   0.471   6.586   2.235 -0.0412  0.3314  1.7978
 1881TIP3    H227279   0.395   6.701   2.299 -0.3183  1.1693  0.0199
 1882TIP3   OH227280   2.180   5.867   8.017 -0.2022 -0.0747  0.1674
 1882TIP3    H127281   2.138   5.834   8.096 -0.3050 -0.9766 -0.2542
 1882TIP3    H227282   2.207   5.956   8.040 -1.5318  0.2049  0.7349
 1883TIP3   OH227283   2.951   6.812   1.093  0.6800 -0.5835 -0.2059
 1883TIP3    H127284   2.883   6.825   1.027  0.1896 -0.8752  0.2321
 1883TIP3    H227285   3.034   6.821   1.045  0.3351 -1.5172 -1.0095
 1884TIP3   OH227286   4.460   5.589   2.336  0.0452  0.5732  0.0840
 1884TIP3    H127287   4.450   5.657   2.269  0.8529  2.1697  1.4963
 1884TIP3    H227288   4.554   5.575   2.343  0.0124  0.7513  1.1605
 1885TIP3   OH227289   0.155   5.239   0.488  0.3250 -0.1936 -0.7462
 1885TIP3    H127290   0.217   5.168   0.504 -0.1142 -0.1535  1.4455
 1885TIP3    H227291   0.080   5.197   0.448 -0.7366 -1.4413  2.2495
 1886TIP3   OH227292   4.618   5.143   8.090  0.5144  0.0989  0.2877
 1886TIP3    H127293   4.564   5.192   8.029  0.3894  0.2803  0.5412
 1886TIP3    H227294   4.617   5.053   8.056 -0.7180 -0.1110  0.7856
 1887TIP3   OH227295   5.027   0.019   1.753 -0.4669  0.3399  0.4000
 1887TIP3    H127296   4.934  -0.002   1.745 -0.3794 -0.0911  0.5345
 1887TIP3    H227297   5.071  -0.046   1.698 -0.3768  1.6847 -1.1910
 1888TIP3   OH227298   6.825   2.593   1.034  0.0041 -0.3628  0.9438
 1888TIP3    H127299   6.735   2.571   1.012  0.4475 -1.4710  0.1316
 1888TIP3    H227300   6.825   2.605   1.129 -0.8415 -1.1278  1.0461
 1889TIP3   OH227301   2.378   0.093   7.808 -0.0109  0.5510 -0.3287
 1889TIP3    H127302   2.369   0.170   7.751  1.0980  1.5436  0.7600
 1889TIP3    H227303   2.299   0.094   7.862 -0.6455  0.1120 -1.2083
 1890TIP3   OH227304   1.420   0.116   2.445 -0.4401 -0.0350 -0.4787
 1890TIP3    H127305   1.350   0.165   2.402  0.6966  0.2109 -2.1185
 1890TIP3    H227306   1.421   0.031   2.400  0.3650 -0.0079 -0.5202
 1891TIP3   OH227307   1.706   3.216   1.308  0.3177  0.0056 -0.1796
 1891TIP3    H127308   1.727   3.182   1.395 -0.2910 -2.4670 -0.9219
 1891TIP3    H227309   1.790   3.247   1.273  0.9763 -1.0157  0.4609
 1892TIP3   OH227310   1.324   4.690   1.614 -0.0007 -0.3968 -0.3800
 1892TIP3    H127311   1.240   4.646   1.625 -0.0813 -0.5758 -1.6209
 1892TIP3    H227312   1.344   4.726   1.701 -0.3754 -2.0712  0.4337
 1893TIP3   OH227313   6.244   0.147   6.323  0.6860  0.1842 -0.2296
 1893TIP3    H127314   6.172   0.209   6.327  1.0911  0.6102  0.9846
 1893TIP3    H227315   6.323   0.201   6.328  1.0454 -0.4277  1.3685
 1894TIP3   OH227316   4.063   2.329   1.241 -0.2150 -0.2141  0.3290
 1894TIP3    H127317   4.029   2.310   1.154 -2.7294 -0.4891  1.2963
 1894TIP3    H227318   4.116   2.408   1.229 -0.0875 -0.5392 -1.5088
 1895TIP3   OH227319   1.466   0.607   0.874 -0.0429  0.0837 -0.7694
 1895TIP3    H127320   1.419   0.686   0.901 -1.6564 -0.4215 -1.9326
 1895TIP3    H227321   1.440   0.540   0.937  1.2999  0.4300  0.1976
 1896TIP3   OH227322   0.071   6.441   8.281  0.2018  0.1716 -0.2009
 1896TIP3    H127323   0.143   6.399   8.327 -0.3002  0.8642  1.2930
 1896TIP3    H227324   0.055   6.522   8.330 -0.7524  0.6609 -1.2610
 1897TIP3   OH227325   0.484   2.634   7.467  0.3842 -0.2951  0.3330
 1897TIP3    H127326   0.532   2.711   7.435  1.1484 -0.9694 -0.1774
 1897TIP3    H227327   0.392   2.656   7.453  0.6088  0.3892 -0.1381
 1898TIP3   OH227328   6.435   4.075   0.833  0.0540  0.2342 -0.0065
 1898TIP3    H127329   6.465   4.107   0.748  2.2850  1.0714  1.0203
 1898TIP3    H227330   6.430   4.152   0.888 -1.5668 -0.2709  0.6046
 1899TIP3   OH227331   6.434   2.405   2.146 -0.2732 -0.4848  0.6182
 1899TIP3    H127332   6.527   2.425   2.139 -0.5107  0.7493  0.7442
 1899TIP3    H227333   6.422   2.377   2.237 -0.1796  0.3168  0.8898
 1900TIP3   OH227334   6.159   1.093   2.415 -0.0807 -0.2947  0.3041
 1900TIP3    H127335   6.151   0.999   2.431  0.7988 -0.2666  0.9560
 1900TIP3    H227336   6.168   1.100   2.320 -0.7097 -0.8189  0.1933
 1901TIP3   OH227337   5.260   2.436   7.618 -0.3996 -0.4232 -0.1804
 1901TIP3    H127338   5.257   2.379   7.695  0.8506 -1.1605 -0.6622
 1901TIP3    H227339   5.308   2.514   7.648  1.1706 -1.2271 -0.5147
 1902TIP3   OH227340   2.200   5.998   3.209 -0.1344 -0.3515  0.0494
 1902TIP3    H127341   2.119   5.947   3.200  0.0484 -0.9862  1.7171
 1902TIP3    H227342   2.236   5.970   3.293  1.5452  0.3258 -0.4202
 1903TIP3   OH227343   1.498   6.223   7.314 -0.1390 -0.1715 -0.5969
 1903TIP3    H127344   1.481   6.139   7.271  0.3889 -0.8461  0.4860
 1903TIP3    H227345   1.589   6.218   7.342 -0.7789 -0.2150  1.6097
 1904TIP3   OH227346   2.466   6.127   6.832 -0.1578 -0.0175  0.4746
 1904TIP3    H127347   2.433   6.044   6.866 -0.5223 -0.0034  0.1629
 1904TIP3    H227348   2.491   6.108   6.742  1.8903 -0.3398  1.0662
 1905TIP3   OH227349   0.049   1.302   2.841  0.2179  0.2030  0.0739
 1905TIP3    H127350  -0.003   1.226   2.865  1.6717 -0.8422  0.0101
 1905TIP3    H227351  -0.004   1.347   2.775  0.2520 -1.9489 -1.5259
 1906TIP3   OH227352   6.307   1.724   2.050 -0.0486  0.1619  0.4592
 1906TIP3    H127353   6.363   1.775   2.109  0.3873 -0.3518  0.4893
 1906TIP3    H227354   6.366   1.689   1.984 -0.5652  0.9031 -0.4172
 1907TIP3   OH227355   4.170   6.847   6.932  0.1783 -0.3214 -0.4525
 1907TIP3    H127356   4.123   6.860   7.014 -0.9605  1.3007 -1.3085
 1907TIP3    H227357   4.257   6.884   6.948 -0.7038  1.9060 -0.5837
 1908TIP3   OH227358   6.740   1.459   2.384  0.2428 -0.2393 -0.3664
 1908TIP3    H127359   6.724   1.412   2.466 -0.5788  0.5407 -0.0686
 1908TIP3    H227360   6.726   1.551   2.406  0.4541  0.0216 -1.2839
 1909TIP3   OH227361   5.748   3.280   1.789  0.3921 -0.4453  0.8000
 1909TIP3    H127362   5.780   3.325   1.710 -0.2474  2.2659  1.9816
 1909TIP3    H227363   5.656   3.262   1.770  0.3018 -0.0162  0.8178
 1910TIP3   OH227364   4.841   5.724   1.767  0.6485  0.0839 -0.0532
 1910TIP3    H127365   4.779   5.766   1.828 -0.1460 -2.1009  0.7293
 1910TIP3    H227366   4.924   5.724   1.814  0.0349 -1.6018  1.0883
 1911TIP3   OH227367   5.308   5.537   1.988 -0.3495 -0.5279 -0.0481
 1911TIP3    H127368   5.328   5.477   1.917 -0.2405  1.0403 -1.3990
 1911TIP3    H227369   5.255   5.486   2.049 -0.0315 -2.0460 -1.0069
 1912TIP3   OH227370   1.538   0.403   7.389 -0.0300  0.4303  0.3127
 1912TIP3    H127371   1.583   0.328   7.427 -1.3809 -0.8821 -0.5373
 1912TIP3    H227372   1.493   0.367   7.313  0.8973  2.5180 -1.3446
 1913TIP3   OH227373   5.516   6.784   7.513  0.3001 -0.2086 -0.1982
 1913TIP3    H127374   5.478   6.866   7.483  1.7775  0.7862  0.5046
 1913TIP3    H227375   5.605   6.784   7.476  0.4141 -1.3439  0.0446
 1914TIP3   OH227376   6.014   2.974   6.590  0.4367  0.1747 -0.4434
 1914TIP3    H127377   5.954   2.921   6.643 -0.2443  0.3380 -1.0395
 1914TIP3    H227378   5.993   3.064   6.613  2.1802  0.2174  1.2115
 1915TIP3   OH227379   1.330   1.201   7.434 -0.3596 -0.1501  0.0754
 1915TIP3    H127380   1.371   1.278   7.473  1.2476 -1.4547  1.0959
 1915TIP3    H227381   1.247   1.192   7.481 -0.6944  1.0887 -0.2489
 1916TIP3   OH227382   4.819   0.382   7.127 -0.9477  0.3412  0.1466
 1916TIP3    H127383   4.914   0.371   7.119 -0.9910 -0.8717  0.9210
 1916TIP3    H227384   4.794   0.435   7.052 -0.1236 -2.1568 -2.0349
 1917TIP3   OH227385   1.867   3.078   0.195 -0.2795  0.0424  0.2786
 1917TIP3    H127386   1.786   3.039   0.161  0.0829 -0.2294 -0.2974
 1917TIP3    H227387   1.864   3.169   0.168 -0.0873 -0.1262 -0.3270
 1918TIP3   OH227388   6.459   3.025   7.514  0.0345 -0.0126 -0.1487
 1918TIP3    H127389   6.491   2.995   7.429  1.0237 -0.9148  0.5206
 1918TIP3    H227390   6.525   3.088   7.544  0.8942 -1.3881  0.9416
 1919TIP3   OH227391   4.304   4.857   7.276 -0.2698 -0.0204 -0.1187
 1919TIP3    H127392   4.327   4.930   7.334 -2.1034  1.3582 -1.0314
 1919TIP3    H227393   4.215   4.833   7.301  0.4072 -2.2391  0.3839
 1920TIP3   OH227394   1.694   4.273   7.222  0.4733 -0.5085  0.0669
 1920TIP3    H127395   1.634   4.302   7.291  0.0606 -0.8636 -0.1359
 1920TIP3    H227396   1.655   4.193   7.189  2.1448 -1.9331  1.3578
 1921TIP3   OH227397   2.788   4.791   8.218  0.2247 -0.5408  0.0318
 1921TIP3    H127398   2.761   4.815   8.130  0.1189 -1.1887 -0.1118
 1921TIP3    H227399   2.778   4.696   8.222  2.7935 -0.8823 -0.1490
 1922TIP3   OH227400   1.490   5.744   0.811 -0.1667 -0.0658  0.5627
 1922TIP3    H127401   1.483   5.651   0.787  0.7681 -0.7966  2.8221
 1922TIP3    H227402   1.407   5.764   0.853 -0.5023  0.2377 -0.2334
 1923TIP3   OH227403   0.835   4.322   0.400  0.0670  0.5061 -0.5124
 1923TIP3    H127404   0.929   4.333   0.387  0.3928 -0.8021  0.4880
 1923TIP3    H227405   0.816   4.370   0.480  0.3939 -1.2087  0.6537
 1924TIP3   OH227406   1.034   4.695   1.836  0.1610 -0.3750 -0.4385
 1924TIP3    H127407   0.945   4.729   1.850  0.2727 -0.7843  1.6043
 1924TIP3    H227408   1.027   4.601   1.853  0.7971 -0.6031 -1.3465
 1925TIP3   OH227409   3.492   0.008   2.053 -0.6405  0.1588  0.0139
 1925TIP3    H127410   3.558   0.077   2.055  0.1853 -0.5644  2.9940
 1925TIP3    H227411   3.523  -0.054   1.987  1.5953 -0.0192  1.1327
 1926TIP3   OH227412   3.628   6.214   0.726 -0.2119 -0.2802  0.6825
 1926TIP3    H127413   3.604   6.270   0.800 -0.6271 -0.0267  0.3615
 1926TIP3    H227414   3.553   6.156   0.714 -0.7065  0.5326 -0.3456
 1927TIP3   OH227415   5.104   5.512   1.060 -0.0713 -0.0183  0.0939
 1927TIP3    H127416   5.073   5.584   1.116 -0.8581 -0.7551  0.6287
 1927TIP3    H227417   5.025   5.477   1.019  0.2837 -0.6755 -0.0499
 1928TIP3   OH227418   3.075   0.193   7.737 -0.2411 -0.1394  0.3247
 1928TIP3    H127419   3.082   0.288   7.737  1.7972 -0.2208  1.3166
 1928TIP3    H227420   2.987   0.175   7.769 -0.6069  1.4075  0.2423
 1929TIP3   OH227421   1.809   4.347   1.699 -0.1548 -0.1276  0.0369
 1929TIP3    H127422   1.732   4.294   1.678  0.1687  0.2278 -2.3439
 1929TIP3    H227423   1.883   4.293   1.670  0.2089  1.2822 -1.9141
 1930TIP3   OH227424   4.309   0.803   0.100  0.0099  0.1003 -0.2861
 1930TIP3    H127425   4.220   0.808   0.135  0.1850  0.9134  0.0741
 1930TIP3    H227426   4.300   0.821   0.007 -0.2936 -0.6584 -0.4143
 1931TIP3   OH227427   5.044   4.021   2.878  0.4498 -0.0250  0.5096
 1931TIP3    H127428   5.096   4.101   2.873 -0.2955  0.4088 -0.7024
 1931TIP3    H227429   4.966   4.046   2.928  0.4901 -0.1518  0.6354
 1932TIP3   OH227430   0.328   6.792   7.182 -0.0317 -0.2334 -0.2746
 1932TIP3    H127431   0.268   6.844   7.128  1.4374  0.2906 -1.4810
 1932TIP3    H227432   0.356   6.720   7.125  1.4031  0.2145 -0.1817
 1933TIP3   OH227433   5.550   2.125   7.237  0.1701  0.6772 -0.5136
 1933TIP3    H127434   5.573   2.082   7.155 -1.2768  0.8458 -1.0199
 1933TIP3    H227435   5.589   2.212   7.231  3.0689 -0.4228  0.4912
 1934TIP3   OH227436   5.396   4.383   0.590  0.4785 -0.8904 -0.0300
 1934TIP3    H127437   5.330   4.397   0.657 -0.1651 -0.2759 -0.7661
 1934TIP3    H227438   5.375   4.297   0.553  0.5665 -1.0361  0.2593
 1935TIP3   OH227439   2.002   5.139   0.949  0.0438  0.4803 -0.5498
 1935TIP3    H127440   1.956   5.055   0.952 -2.1728  1.6301  0.6911
 1935TIP3    H227441   2.087   5.122   0.988 -1.4645 -0.6235  2.6170
 1936TIP3   OH227442   4.195   0.489   6.719  0.9564 -0.2410  0.2336
 1936TIP3    H127443   4.274   0.455   6.678  2.1530 -0.3501  2.4355
 1936TIP3    H227444   4.141   0.411   6.735  1.2959 -0.4310  0.4735
 1937TIP3   OH227445   5.442   2.048   7.921  0.1397  0.6049 -0.0627
 1937TIP3    H127446   5.401   2.109   7.859 -0.6819 -0.2162 -0.3540
 1937TIP3    H227447   5.503   1.997   7.867 -0.0056  0.4108 -0.0437
 1938TIP3   OH227448   3.163   2.652   7.503  0.4577  0.1488 -0.4769
 1938TIP3    H127449   3.087   2.594   7.507  0.8845 -0.3972  0.0424
 1938TIP3    H227450   3.220   2.611   7.438 -0.0299  0.9948 -1.4634
 1939TIP3   OH227451   5.724   1.121   1.112 -0.0662  0.0929 -0.5085
 1939TIP3    H127452   5.714   1.196   1.053  1.0285  0.0508 -0.7576
 1939TIP3    H227453   5.645   1.069   1.098  0.2771 -0.0509 -2.1362
 1940TIP3   OH227454   2.482   3.561   0.978  0.0721  0.8322 -0.0002
 1940TIP3    H127455   2.402   3.592   0.935 -0.1740  0.2550  0.0266
 1940TIP3    H227456   2.533   3.640   0.995 -0.4487  1.1952 -0.1134
 1941TIP3   OH227457   4.818   5.568   0.669 -0.4214 -0.6998  0.3044
 1941TIP3    H127458   4.814   5.489   0.615  0.1064 -0.4737 -0.0728
 1941TIP3    H227459   4.734   5.570   0.714 -0.3901 -1.5510  0.4230
 1942TIP3   OH227460   4.004   1.879   1.082  0.7997  0.1303 -0.3640
 1942TIP3    H127461   4.066   1.951   1.096  0.0839  1.0047 -1.5432
 1942TIP3    H227462   3.919   1.923   1.072 -0.2146 -1.0672  2.0208
 1943TIP3   OH227463   5.816   2.052   1.320 -0.3095 -0.5167  0.3653
 1943TIP3    H127464   5.907   2.025   1.318  0.0084  0.4497 -2.4355
 1943TIP3    H227465   5.770   1.991   1.263 -0.9919  0.2592  0.0467
 1944TIP3   OH227466   2.847   6.487   0.987  0.2001 -0.4444  0.1495
 1944TIP3    H127467   2.829   6.406   0.938  1.2242  0.3746 -1.6658
 1944TIP3    H227468   2.938   6.507   0.967 -0.1297  1.3169  0.3026
 1945TIP3   OH227469   2.467   1.407   1.235  0.2280  0.1201 -0.4480
 1945TIP3    H127470   2.398   1.360   1.282  0.7911 -0.0863  0.1784
 1945TIP3    H227471   2.483   1.354   1.157 -0.3566  0.1951 -0.6223
 1946TIP3   OH227472   2.840   4.416   1.522 -0.4904  0.2276  0.1426
 1946TIP3    H127473   2.782   4.457   1.458  0.5755 -0.6177 -1.4055
 1946TIP3    H227474   2.869   4.489   1.577 -1.1150  1.0407 -0.5745
 1947TIP3   OH227475   5.289   5.137   0.462  0.1368  0.5828  0.2255
 1947TIP3    H127476   5.275   5.223   0.500 -2.2302  0.2801  0.1743
 1947TIP3    H227477   5.214   5.085   0.492  0.7893 -1.0619 -0.8647
 1948TIP3   OH227478   6.007   3.200   7.650  0.4422 -0.0214 -0.8433
 1948TIP3    H127479   6.071   3.132   7.631 -0.4052 -1.7122  1.8080
 1948TIP3    H227480   5.931   3.153   7.684 -0.5467  2.1993  0.2486
 1949TIP3   OH227481   2.770   0.303   0.696  0.6316  0.7936 -0.6087
 1949TIP3    H127482   2.760   0.359   0.773  3.1377 -0.4654  0.7423
 1949TIP3    H227483   2.816   0.357   0.633  1.5053  0.8247  0.0386
 1950TIP3   OH227484   0.604   4.723   1.022 -0.3096  0.1937  0.1894
 1950TIP3    H127485   0.612   4.640   1.068  0.1227  1.0258  1.7058
 1950TIP3    H227486   0.622   4.702   0.930 -3.8380 -2.0142 -0.1547
 1951TIP3   OH227487   6.453   5.626   0.403 -0.6606  0.0043  0.0989
 1951TIP3    H127488   6.422   5.695   0.462  1.3650  1.4394 -0.3979
 1951TIP3    H227489   6.401   5.637   0.323 -0.4254  0.9147  0.0638
 1952TIP3   OH227490   1.220   4.176   8.083  0.0540  0.1945 -0.4140
 1952TIP3    H127491   1.137   4.134   8.061  0.2095  0.0573 -0.7464
 1952TIP3    H227492   1.201   4.270   8.081  0.0231  0.1786 -0.9656
 1953TIP3   OH227493   6.034   1.512   0.013 -0.4306 -0.0258  0.2033
 1953TIP3    H127494   5.964   1.506   0.078  2.5936 -2.6256  3.6766
 1953TIP3    H227495   6.015   1.442  -0.049 -1.5699  0.2224  0.2405
 1954TIP3   OH227496   4.296   5.174   1.582  0.6444 -1.0018  0.5104
 1954TIP3    H127497   4.308   5.089   1.624  1.3222 -0.4722  1.4195
 1954TIP3    H227498   4.382   5.196   1.548  0.5941 -0.4389  0.7395
 1955TIP3   OH227499   4.640   2.707   7.475  0.3701 -0.1135 -0.2411
 1955TIP3    H127500   4.732   2.728   7.456 -0.4501  1.9969 -2.4179
 1955TIP3    H227501   4.617   2.641   7.410  0.4948 -1.2316  0.8071
 1956TIP3   OH227502   6.633   2.851   7.353  0.2540 -0.2995  0.0497
 1956TIP3    H127503   6.583   2.771   7.332 -1.7822  1.2930 -1.7020
 1956TIP3    H227504   6.666   2.881   7.269  0.7919  0.8429  0.6474
 1957TIP3   OH227505   5.292   0.110   2.386 -0.2174  0.1775  0.5985
 1957TIP3    H127506   5.249   0.171   2.445 -3.4413 -1.5228  0.2540
 1957TIP3    H227507   5.370   0.081   2.433  0.5072  3.1796  1.4474
 1958TIP3   OH227508   3.993   6.312   0.306  0.0807  0.4610  0.2731
 1958TIP3    H127509   4.080   6.290   0.340  0.4419  0.3405 -0.6925
 1958TIP3    H227510   4.003   6.402   0.275  0.5415 -0.3077 -1.9496
 1959TIP3   OH227511   5.564   2.773   2.208  0.1243 -0.0736  0.0344
 1959TIP3    H127512   5.556   2.812   2.295  0.3922  1.9622 -0.7976
 1959TIP3    H227513   5.658   2.768   2.192  0.1339  2.8562 -1.4439
 1960TIP3   OH227514   6.208   0.272   1.942  0.1799  0.4786 -0.0322
 1960TIP3    H127515   6.221   0.186   1.982 -0.2332  0.7331  0.6526
 1960TIP3    H227516   6.202   0.333   2.015  1.7414  1.2947 -0.5377
 1961TIP3   OH227517   1.781   0.942   8.400 -0.1325  0.1628 -0.1618
 1961TIP3    H127518   1.844   0.871   8.408  0.3831  0.8151  2.2937
 1961TIP3    H227519   1.698   0.905   8.431 -0.7953 -0.3867 -2.4067
 1962TIP3   OH227520   5.341   0.445   2.461 -0.1679  0.4876  0.4721
 1962TIP3    H127521   5.302   0.532   2.450  0.0175  0.7431  1.7023
 1962TIP3    H227522   5.416   0.445   2.401 -0.4218  1.0164  0.1443
 1963TIP3   OH227523   4.221   4.471   8.326  0.1384 -0.0479  0.4786
 1963TIP3    H127524   4.243   4.558   8.295  1.1152 -1.3062 -2.7087
 1963TIP3    H227525   4.131   4.479   8.358  0.5991  2.3198  1.3673
 1964TIP3   OH227526   0.818   4.554   2.080  0.0749 -0.3584  0.0292
 1964TIP3    H127527   0.796   4.628   2.023  0.7065 -0.0109  0.2210
 1964TIP3    H227528   0.836   4.482   2.020 -1.7138 -0.7118 -0.1288
 1965TIP3   OH227529   1.634   5.294   7.790 -0.1757 -0.4982  0.4669
 1965TIP3    H127530   1.563   5.238   7.761 -0.5506  0.7050 -1.0542
 1965TIP3    H227531   1.593   5.355   7.851 -0.0428 -1.0221  1.0840
 1966TIP3   OH227532   5.353   5.714   8.195 -0.1122 -0.0401  0.3305
 1966TIP3    H127533   5.396   5.717   8.280  0.7534  0.4762 -0.1099
 1966TIP3    H227534   5.415   5.756   8.135 -0.0564 -1.6806 -0.8400
 1967TIP3   OH227535   6.278   0.255   6.715  0.4347 -0.2140 -0.0023
 1967TIP3    H127536   6.242   0.281   6.800 -2.3069  1.7281 -1.5911
 1967TIP3    H227537   6.282   0.337   6.665  2.1630 -1.2635 -1.7143
 1968TIP3   OH227538   4.261   1.810   1.268  0.4203 -0.0615 -0.1373
 1968TIP3    H127539   4.282   1.880   1.207  0.6807  0.0218  0.0469
 1968TIP3    H227540   4.224   1.855   1.344  1.3654 -0.0447  0.3309
 1969TIP3   OH227541   0.677   6.262   0.631 -0.0009 -0.2685 -0.8567
 1969TIP3    H127542   0.722   6.252   0.716 -0.5019 -3.4973 -0.8465
 1969TIP3    H227543   0.747   6.286   0.570  0.8998 -0.5993  0.0121
 1970TIP3   OH227544   3.679   0.273   0.674 -0.1009 -0.0514 -0.1069
 1970TIP3    H127545   3.683   0.251   0.767  0.0006 -0.6797 -0.2518
 1970TIP3    H227546   3.743   0.214   0.633  1.5126  1.7335 -0.2996
 1971TIP3   OH227547   1.047   5.530   0.501  0.3430  0.4740 -0.2813
 1971TIP3    H127548   1.030   5.620   0.471  0.3787  0.6608  0.2428
 1971TIP3    H227549   1.032   5.534   0.595  0.9613  0.0758 -0.1651
 1972TIP3   OH227550   3.170   6.481   8.339  0.4129  0.4428  0.3189
 1972TIP3    H127551   3.222   6.542   8.288  0.1902 -0.9500 -1.7264
 1972TIP3    H227552   3.227   6.404   8.350  0.5298  0.7773  2.4253
 1973TIP3   OH227553   5.460   0.582   1.399  0.5363  0.9305 -0.4102
 1973TIP3    H127554   5.491   0.665   1.361  2.0564 -0.4700 -2.4523
 1973TIP3    H227555   5.540   0.536   1.424 -0.3221  0.3508  1.3736
 1974TIP3   OH227556   2.081   5.721   2.214  0.3938  0.3732 -0.0112
 1974TIP3    H127557   2.044   5.681   2.293  1.5674 -0.4819  0.1286
 1974TIP3    H227558   2.024   5.692   2.143 -0.4561  0.8480  0.4518
 1975TIP3   OH227559   0.498   3.013   2.479  0.4625 -0.5376  0.3535
 1975TIP3    H127560   0.522   3.031   2.570  3.8472 -2.9774  0.1501
 1975TIP3    H227561   0.582   2.993   2.436 -1.3376 -2.9452 -2.4159
 1976TIP3   OH227562   5.591   5.675   2.073 -0.0589  0.1633 -0.6834
 1976TIP3    H127563   5.668   5.723   2.043  2.1144 -2.5307  0.1881
 1976TIP3    H227564   5.599   5.588   2.034 -1.2313 -1.0288  1.5091
 1977TIP3   OH227565   6.889   4.419   8.176  0.3604 -0.2595  0.8637
 1977TIP3    H127566   6.845   4.392   8.095  1.5593 -0.4171  0.2374
 1977TIP3    H227567   6.866   4.352   8.240 -1.2611  0.3000  0.8916
 1978TIP3   OH227568   6.375   0.381   7.086  0.7000  0.0692 -0.1704
 1978TIP3    H127569   6.430   0.311   7.122  1.8706  0.4987 -1.0476
 1978TIP3    H227570   6.313   0.336   7.029 -1.4309 -0.6678  2.5117
 1979TIP3   OH227571   0.672   6.740   0.928  0.1820  0.2339  0.0895
 1979TIP3    H127572   0.590   6.727   0.975 -0.5228  0.7715 -0.9507
 1979TIP3    H227573   0.722   6.800   0.983 -1.2438  2.0681 -0.5136
 1980TIP3   OH227574   0.916   5.332   0.359 -0.3775  0.3705 -1.0185
 1980TIP3    H127575   0.951   5.417   0.383  2.2454 -0.9859  0.4596
 1980TIP3    H227576   0.980   5.297   0.297  0.3957 -1.6940  0.7882
 1981TIP3   OH227577   3.785   4.282   8.127  0.2814  0.5212 -0.1416
 1981TIP3    H127578   3.846   4.209   8.143 -0.6655 -0.4607 -0.8441
 1981TIP3    H227579   3.822   4.327   8.051  0.1701 -0.0403 -0.5359
 1982TIP3   OH227580   2.901   0.863   0.605  0.1728 -0.0073  0.2761
 1982TIP3    H127581   2.840   0.806   0.559  0.4612 -0.3654  0.3379
 1982TIP3    H227582   2.932   0.810   0.679  0.4042  0.2437  0.3601
 1983TIP3   OH227583   1.738   2.436   1.914 -0.1630 -0.3532  0.1316
 1983TIP3    H127584   1.750   2.528   1.939 -1.7666  0.4380 -1.7308
 1983TIP3    H227585   1.646   2.418   1.933  0.1206 -1.5886  0.4195
 1984TIP3   OH227586   4.507   2.474   0.851 -0.3634 -0.0802  0.4279
 1984TIP3    H127587   4.478   2.425   0.774 -0.4141  2.6609 -1.4306
 1984TIP3    H227588   4.581   2.424   0.884 -0.3184 -1.3524 -1.4094
 1985TIP3   OH227589   6.366   5.933   1.409  0.2522 -0.8624 -0.9416
 1985TIP3    H127590   6.453   5.964   1.435  0.3152 -2.4609  0.9046
 1985TIP3    H227591   6.317   5.928   1.490 -1.2570 -1.0103 -1.8244
 1986TIP3   OH227592   4.196   4.616   8.026  0.4701 -0.5060 -0.0582
 1986TIP3    H127593   4.110   4.633   8.065  0.0723  2.2542 -1.8934
 1986TIP3    H227594   4.177   4.558   7.952  0.4299 -1.0000  0.3252
 1987TIP3   OH227595   4.167   0.140   6.622 -0.2538 -0.6241  0.3415
 1987TIP3    H127596   4.125   0.175   6.700 -0.5422  1.6213 -0.7496
 1987TIP3    H227597   4.260   0.139   6.642 -0.5056 -3.5118  1.9542
 1988TIP3   OH227598   5.999   2.985   6.919  0.0144 -0.0939 -0.3680
 1988TIP3    H127599   6.016   3.057   6.858 -0.8527  0.6408  0.2392
 1988TIP3    H227600   5.904   2.975   6.919 -0.0479  0.1847  1.1247
 1989TIP3   OH227601   1.761   3.491   0.716 -0.5577  0.0257 -0.0990
 1989TIP3    H127602   1.683   3.535   0.681 -0.4283 -0.0456 -0.4838
 1989TIP3    H227603   1.830   3.511   0.652  0.1524  1.4767  1.0718
 1990TIP3   OH227604   4.990   0.786   8.100 -0.4609 -0.5744 -0.4817
 1990TIP3    H127605   4.920   0.728   8.069 -1.2587 -0.2703  0.6908
 1990TIP3    H227606   4.952   0.831   8.176  1.0041 -0.3737  0.1579
 1991TIP3   OH227607   1.059   6.071   0.076  0.3242  0.1004 -0.5198
 1991TIP3    H127608   1.001   6.142   0.050 -0.0181 -0.0189 -0.0938
 1991TIP3    H227609   1.022   5.992   0.036 -1.1766 -0.3643  1.6443
 1992TIP3   OH227610   4.727   5.123   7.549  0.5481 -1.1200  0.1391
 1992TIP3    H127611   4.671   5.092   7.621  0.7632  0.2957  0.9499
 1992TIP3    H227612   4.710   5.061   7.478 -0.3214 -2.0613  1.1202
 1993TIP3   OH227613   6.444   5.127   7.824  0.2488  0.4624  0.4067
 1993TIP3    H127614   6.480   5.194   7.882  2.5353  1.9678 -2.5033
 1993TIP3    H227615   6.366   5.167   7.786 -0.2494  0.1565  1.0890
 1994TIP3   OH227616   5.908   4.693   6.896  0.8255 -0.2418 -0.0304
 1994TIP3    H127617   5.994   4.650   6.897  1.8177  1.6378  0.2523
 1994TIP3    H227618   5.876   4.685   6.986  1.7041  0.8693  0.4078
 1995TIP3   OH227619   5.446   0.019   0.974 -0.4681 -0.1506  1.0214
 1995TIP3    H127620   5.351   0.018   0.969 -0.4323  0.3027 -0.0020
 1995TIP3    H227621   5.472  -0.073   0.959 -0.7280 -0.2099  0.9396
 1996TIP3   OH227622   0.670   4.495   1.144 -0.2815 -0.4441  0.1751
 1996TIP3    H127623   0.726   4.452   1.208  2.0379  0.2867 -1.2545
 1996TIP3    H227624   0.649   4.427   1.080  0.3289 -0.3363 -0.1418
 1997TIP3   OH227625   0.818   4.320   0.752 -0.5832 -0.4914  0.0853
 1997TIP3    H127626   0.872   4.242   0.736  0.0446 -0.2000  0.7461
 1997TIP3    H227627   0.880   4.386   0.784 -0.9212  0.6065 -1.3883
 1998TIP3   OH227628   4.987   2.727   2.758  0.1213 -0.7558  0.1535
 1998TIP3    H127629   4.898   2.720   2.724  1.4508 -1.3178 -3.8480
 1998TIP3    H227630   5.004   2.642   2.799 -1.0920 -0.7166  0.7726
 1999TIP3   OH227631   2.424   3.156   2.093 -0.3545  0.1060  0.6413
 1999TIP3    H127632   2.499   3.110   2.055 -0.9563 -0.3782  0.0406
 1999TIP3    H227633   2.399   3.102   2.168 -1.0977 -0.5859 -0.0983
 2000TIP3   OH227634   1.038   0.589   2.249 -0.1552  0.4193  0.2438
 2000TIP3    H127635   1.045   0.494   2.236 -0.8341  0.5400 -1.2740
 2000TIP3    H227636   1.031   0.624   2.160 -0.4276  1.8523  0.8130
 2001TIP3   OH227637   0.323   5.075   7.996  0.1902  0.1807 -0.0278
 2001TIP3    H127638   0.358   5.119   7.919  2.5350  0.3629  1.0758
 2001TIP3    H227639   0.263   5.139   8.035  1.5627  1.4279  0.1148
 2002TIP3   OH227640   0.385   3.129   2.154 -0.3991 -0.5520 -0.6324
 2002TIP3    H127641   0.343   3.165   2.233 -0.2086  0.6139 -1.0534
 2002TIP3    H227642   0.460   3.186   2.139  0.5451 -1.7795 -0.7082
 2003TIP3   OH227643   5.848   0.084   6.379 -0.4100  0.1173 -0.6024
 2003TIP3    H127644   5.897   0.166   6.390 -1.0344  1.1975 -4.6153
 2003TIP3    H227645   5.908   0.026   6.332 -1.4832 -0.0845 -1.7697
 2004TIP3   OH227646   6.904   1.130   6.483 -0.5788  0.2584  0.0828
 2004TIP3    H127647   6.808   1.139   6.487 -0.6468 -0.1985 -0.3659
 2004TIP3    H227648   6.923   1.120   6.390 -0.4985 -3.5805  0.3310
 2005TIP3   OH227649   0.299   5.132   2.509  0.6395 -0.0754 -0.0764
 2005TIP3    H127650   0.310   5.037   2.512 -0.6971 -0.2897 -1.3157
 2005TIP3    H227651   0.206   5.146   2.528  0.7428  0.9670 -0.2923
 2006TIP3   OH227652   4.505   3.846   2.660 -0.0337  0.2704 -0.2966
 2006TIP3    H127653   4.567   3.784   2.697 -1.9075 -1.0591  0.8181
 2006TIP3    H227654   4.437   3.855   2.728 -1.3708  1.1655 -1.6833
 2007TIP3   OH227655   3.262   2.997   2.407  0.3021 -0.4695  0.3125
 2007TIP3    H127656   3.304   3.083   2.405 -1.0033  0.1824  0.0298
 2007TIP3    H227657   3.172   3.015   2.434 -0.1413 -1.6849 -0.2878
 2008TIP3   OH227658   4.171   2.824   8.185  0.4157 -0.1524  0.0982
 2008TIP3    H127659   4.130   2.906   8.212 -0.8489  0.4396 -3.1418
 2008TIP3    H227660   4.118   2.756   8.227 -2.2857  0.6664 -1.6935
 2009TIP3   OH227661   1.541   1.396   1.157 -0.2497 -0.1208 -0.6527
 2009TIP3    H127662   1.550   1.303   1.179  0.3675  0.2912  0.9620
 2009TIP3    H227663   1.467   1.425   1.210  0.7413  0.7242  0.2854
 2010TIP3   OH227664   2.175   5.494   8.317 -0.4068 -0.4067 -0.1163
 2010TIP3    H127665   2.249   5.467   8.371 -0.4772 -0.5946 -0.1120
 2010TIP3    H227666   2.210   5.496   8.228  0.1303  1.4264  0.0953
 2011TIP3   OH227667   0.173   4.551   2.245 -0.1870  0.0295 -0.1656
 2011TIP3    H127668   0.113   4.485   2.280 -0.3508  0.8742  1.2034
 2011TIP3    H227669   0.234   4.502   2.190 -2.6290 -0.7696 -2.3670
 2012TIP3   OH227670   4.967   3.771   7.940 -0.2101  0.4985 -0.0617
 2012TIP3    H127671   4.947   3.683   7.970 -3.3455  1.0670 -0.1900
 2012TIP3    H227672   4.911   3.784   7.863  2.1752  1.7101 -1.7414
 2013TIP3   OH227673   1.475   0.332   0.443 -0.4459  0.0007  0.3811
 2013TIP3    H127674   1.512   0.357   0.528  0.2059  0.7813 -0.1123
 2013TIP3    H227675   1.384   0.307   0.463 -0.3427  0.2968  1.2834
 2014TIP3   OH227676   6.268   2.483   7.704  0.0712  0.2353 -0.0906
 2014TIP3    H127677   6.325   2.424   7.655  0.3640  0.3631  0.0913
 2014TIP3    H227678   6.202   2.426   7.743  0.6414 -0.0450  0.4960
 2015TIP3   OH227679   0.832   0.706   1.161  0.1555  0.2972 -0.0483
 2015TIP3    H127680   0.868   0.763   1.093  1.2961  0.5289  0.7177
 2015TIP3    H227681   0.757   0.664   1.120 -0.1903  1.6897 -0.9135
 2016TIP3   OH227682   6.733   6.174   0.541  0.1423  0.3985  0.4295
 2016TIP3    H127683   6.761   6.142   0.455 -0.7444 -1.7494  0.8780
 2016TIP3    H227684   6.797   6.140   0.602 -0.4122  0.0986  0.8515
 2017TIP3   OH227685   0.141   1.798   1.652 -0.8711  0.0533  0.8507
 2017TIP3    H127686   0.085   1.738   1.700 -2.1166  0.3560 -0.1792
 2017TIP3    H227687   0.095   1.882   1.655 -0.8439  0.1517 -0.5750
 2018TIP3   OH227688   2.215   6.923   0.063  0.2231  0.2445  0.3255
 2018TIP3    H127689   2.291   6.941   0.118 -0.6176 -0.3682  1.7270
 2018TIP3    H227690   2.140   6.948   0.116 -0.6069 -0.0052 -0.6920
 2019TIP3   OH227691   1.807   6.181   1.649 -0.5596  0.3484  0.5912
 2019TIP3    H127692   1.836   6.160   1.561  1.9624 -0.1720  1.4793
 2019TIP3    H227693   1.851   6.117   1.705 -0.4953  1.9059  2.4139
 2020TIP3   OH227694   2.168   5.148   7.581  0.3596 -0.0138  0.0437
 2020TIP3    H127695   2.148   5.109   7.496  2.1172  2.2222 -1.5278
 2020TIP3    H227696   2.105   5.220   7.589  0.9951  0.5593  0.0093
 2021TIP3   OH227697   5.289   3.059   8.060 -0.1021 -0.1515 -0.5134
 2021TIP3    H127698   5.207   3.087   8.100  0.6536  0.9207  0.3424
 2021TIP3    H227699   5.303   2.970   8.094 -1.2479 -0.6193 -1.2315
 2022TIP3   OH227700   4.472   6.831   1.544 -0.0207 -0.2627 -0.2306
 2022TIP3    H127701   4.409   6.840   1.473  0.7120  1.2259 -0.7347
 2022TIP3    H227702   4.531   6.760   1.516 -2.2735 -2.8010  0.9518
 2023TIP3   OH227703   5.220   3.438   1.217 -0.2021 -0.2500 -0.0823
 2023TIP3    H127704   5.178   3.471   1.296 -1.5941 -1.1834 -0.3937
 2023TIP3    H227705   5.224   3.513   1.158  0.7475  0.4265  0.7974
 2024TIP3   OH227706   3.446   4.045   1.614  0.3340  0.6637  0.8629
 2024TIP3    H127707   3.514   3.994   1.570  1.0529  1.3064  1.2195
 2024TIP3    H227708   3.404   3.983   1.673 -0.9543 -0.3557 -0.9932
 2025TIP3   OH227709   1.903   3.374   1.457 -0.5209 -0.2437  0.6022
 2025TIP3    H127710   1.862   3.458   1.441 -0.0994  0.3886  2.5077
 2025TIP3    H227711   1.997   3.393   1.458 -0.4531 -0.5502  1.8397
 2026TIP3   OH227712   2.356   3.938   8.410 -0.0455 -0.3871 -0.0144
 2026TIP3    H127713   2.356   3.911   8.501 -1.5989 -0.8668 -0.1353
 2026TIP3    H227714   2.401   3.867   8.364 -0.3394 -0.7249  0.2200
 2027TIP3   OH227715   1.564   6.642   2.017 -0.2204  0.2522 -0.2337
 2027TIP3    H127716   1.639   6.586   2.038 -0.5386  0.2750  1.0659
 2027TIP3    H227717   1.566   6.651   1.922  1.9519  0.9848 -0.1528
 2028TIP3   OH227718   5.972   1.061   1.185  0.7072 -0.6979  0.2467
 2028TIP3    H127719   6.001   1.013   1.107  0.4825 -0.8052  0.2285
 2028TIP3    H227720   5.877   1.053   1.184  0.2697  2.6951 -1.7148
 2029TIP3   OH227721   2.186   1.057   2.471  0.5551  0.1345  0.0493
 2029TIP3    H127722   2.115   1.037   2.531 -0.9220 -0.2592 -1.7490
 2029TIP3    H227723   2.226   1.136   2.507 -1.6485  1.1611  0.4069
 2030TIP3   OH227724   5.739   5.562   0.581 -0.6530  0.0010 -0.8264
 2030TIP3    H127725   5.744   5.468   0.562  0.7692 -0.1125 -0.0035
 2030TIP3    H227726   5.793   5.574   0.659 -0.9271  1.4964 -0.8314
 2031TIP3   OH227727   3.158   5.825   7.366 -0.8657 -0.3724  0.3088
 2031TIP3    H127728   3.235   5.779   7.400 -0.7308 -0.9048 -0.6662
 2031TIP3    H227729   3.126   5.877   7.440  0.7440  0.2781  0.5934
 2032TIP3   OH227730   4.666   3.172   1.381 -0.3971 -0.2016 -0.0551
 2032TIP3    H127731   4.643   3.098   1.437 -0.1275  0.4385  0.9398
 2032TIP3    H227732   4.717   3.230   1.438  2.1318 -0.7017 -1.6459
 2033TIP3   OH227733   1.903   1.322   7.244  0.0732 -0.5879  0.5830
 2033TIP3    H127734   1.883   1.339   7.152  0.6964 -1.0702  0.3516
 2033TIP3    H227735   1.944   1.235   7.243  0.3729 -0.4524  1.2818
 2034TIP3   OH227736   3.388   3.301   1.943 -0.2248  0.1519 -0.3454
 2034TIP3    H127737   3.427   3.349   1.870 -1.1420  0.2922 -0.7464
 2034TIP3    H227738   3.294   3.305   1.928 -0.5504  1.4370  1.5899
 2035TIP3   OH227739   4.931   6.454   2.624  0.3075 -0.5233 -0.6053
 2035TIP3    H127740   4.905   6.428   2.712 -1.7017 -2.0315 -1.5390
 2035TIP3    H227741   5.009   6.403   2.606  1.3810  0.6069  0.6429
 2036TIP3   OH227742   1.831   2.594   0.655  0.2011  0.2674 -0.1890
 2036TIP3    H127743   1.826   2.502   0.630 -0.9042  0.7032 -1.7032
 2036TIP3    H227744   1.922   2.618   0.638  0.3211 -0.3659 -0.4703
 2037TIP3   OH227745   1.317   2.187   0.729 -0.4004  0.2704 -0.5753
 2037TIP3    H127746   1.239   2.183   0.675  0.5974 -2.3712 -1.9942
 2037TIP3    H227747   1.316   2.105   0.778  1.3726  0.2603 -0.4919
 2038TIP3   OH227748   2.620   5.639   1.699 -0.5727  0.8914  0.0681
 2038TIP3    H127749   2.695   5.656   1.757  0.7609 -0.4589 -1.1760
 2038TIP3    H227750   2.576   5.724   1.693  1.7281  2.1412 -0.3211
 2039TIP3   OH227751   2.944   0.854   7.388  1.1036  0.0087  0.1790
 2039TIP3    H127752   2.850   0.851   7.406  0.8108 -0.3173 -1.2894
 2039TIP3    H227753   2.978   0.917   7.452 -0.3743  1.3863 -0.3210
 2040TIP3   OH227754   0.696   0.366   7.094 -0.5227 -0.2798  0.2231
 2040TIP3    H127755   0.624   0.404   7.042 -0.6794  1.3196  1.5258
 2040TIP3    H227756   0.766   0.353   7.031 -0.8636  1.1933 -0.5113
 2041TIP3   OH227757   4.635   5.454   8.108  0.2688 -0.5417 -0.2835
 2041TIP3    H127758   4.543   5.479   8.098  0.7297  0.9025 -1.0801
 2041TIP3    H227759   4.641   5.422   8.198 -0.3830  2.3736  0.9088
 2042TIP3   OH227760   3.940   3.169   7.814 -0.5873 -0.3642  0.6096
 2042TIP3    H127761   4.009   3.160   7.879  0.6794 -0.0266 -0.6204
 2042TIP3    H227762   3.885   3.241   7.846 -0.9499 -1.2804  2.0873
 2043TIP3   OH227763   5.024   4.384   7.911 -0.2208  0.1440  0.5615
 2043TIP3    H127764   5.043   4.394   7.818  0.4355  2.0515  0.8671
 2043TIP3    H227765   4.996   4.293   7.920 -1.9427  0.3407 -1.7789
 2044TIP3   OH227766   2.399   3.837   2.089  0.2048  0.3555 -0.4112
 2044TIP3    H127767   2.400   3.780   2.166 -0.4586  1.2611  0.2910
 2044TIP3    H227768   2.468   3.901   2.105  0.4792  0.1784 -0.8665
 2045TIP3   OH227769   4.858   0.483   0.476  0.7110 -0.2873  1.1459
 2045TIP3    H127770   4.828   0.443   0.394  5.0409 -3.1962  0.5988
 2045TIP3    H227771   4.861   0.577   0.458  0.6015 -0.7502 -1.7233
 2046TIP3   OH227772   0.483   6.796   0.389 -0.4969 -0.0563  0.2875
 2046TIP3    H127773   0.406   6.813   0.334 -0.4154  2.1912  0.7668
 2046TIP3    H227774   0.464   6.713   0.431 -2.1629 -0.0999 -0.4660
 2047TIP3   OH227775   0.539   2.788   8.295  0.0270 -0.1256  0.2960
 2047TIP3    H127776   0.515   2.772   8.386 -2.2525  0.1322 -0.2069
 2047TIP3    H227777   0.555   2.700   8.259 -1.4997 -0.4689  0.3653
 2048TIP3   OH227778   1.259   2.871   1.886  0.2976 -0.1904  0.4618
 2048TIP3    H127779   1.193   2.802   1.898 -0.1883 -0.0107 -0.9016
 2048TIP3    H227780   1.336   2.824   1.856 -0.2283 -0.1297 -1.0974
 2049TIP3   OH227781   2.290   6.073   1.274  0.0809 -0.0689 -0.0104
 2049TIP3    H127782   2.203   6.031   1.274 -0.0273  0.1522 -0.2314
 2049TIP3    H227783   2.351   6.000   1.280 -0.1488 -0.1503  2.6931
 2050TIP3   OH227784   5.470   1.644   0.862  0.6518  0.3054 -0.6556
 2050TIP3    H127785   5.401   1.709   0.876  0.3308  0.0262 -0.9250
 2050TIP3    H227786   5.458   1.580   0.931  0.4027  0.0562 -0.9280
 2051TIP3   OH227787   3.039   1.262   6.864 -0.3859 -0.1354 -0.1374
 2051TIP3    H127788   3.053   1.221   6.779 -1.6654 -1.2488  0.1651
 2051TIP3    H227789   3.127   1.269   6.902 -0.0622 -2.0072 -0.4738
 2052TIP3   OH227790   4.177   2.184   7.728  0.2034 -0.0346  0.2569
 2052TIP3    H127791   4.242   2.135   7.679  1.1696  1.7628 -0.3663
 2052TIP3    H227792   4.094   2.141   7.707  1.0144 -1.5300 -0.0245
 2053TIP3   OH227793   1.456   1.913   1.998  1.0748 -0.3604  0.5003
 2053TIP3    H127794   1.485   1.835   1.951  0.2699 -0.3541 -0.0252
 2053TIP3    H227795   1.479   1.896   2.089 -1.1180 -2.2367  0.7933
 2054TIP3   OH227796   6.769   5.302   2.317  0.1574  0.7363 -0.0849
 2054TIP3    H127797   6.763   5.208   2.299  0.1833 -0.1016  3.6164
 2054TIP3    H227798   6.680   5.330   2.335  0.4376  0.8415  1.2010
 2055TIP3   OH227799   2.565   3.977   0.540  0.1187 -0.3289 -0.1985
 2055TIP3    H127800   2.659   3.971   0.553  0.0070  1.0756  1.7578
 2055TIP3    H227801   2.541   4.063   0.575 -1.9076 -0.7615 -0.3844
 2056TIP3   OH227802   5.287   0.720   0.507  0.8872  0.1078  0.1582
 2056TIP3    H127803   5.279   0.733   0.601 -3.1949 -0.7732  0.1023
 2056TIP3    H227804   5.274   0.626   0.494 -1.5820  0.5643 -1.3660
 2057TIP3   OH227805   5.267   5.759   2.369  0.1177 -0.1912  0.6192
 2057TIP3    H127806   5.185   5.727   2.331  0.6186  1.1282 -1.7716
 2057TIP3    H227807   5.268   5.852   2.348  1.2470  0.3086  2.5873
 2058TIP3   OH227808   4.836   4.294   2.340  0.4590  0.0297 -0.2352
 2058TIP3    H127809   4.772   4.285   2.269  0.0276  0.9218  0.0382
 2058TIP3    H227810   4.792   4.346   2.407  0.2956 -2.0564  1.3828
 2059TIP3   OH227811   1.784   3.572   1.004  0.2647 -0.0596 -0.1349
 2059TIP3    H127812   1.727   3.516   1.057  0.3761  0.0203  0.0702
 2059TIP3    H227813   1.784   3.531   0.917  0.4603 -0.4586  0.0542
 2060TIP3   OH227814   1.556   1.950   7.614  0.4442 -0.0968 -0.4895
 2060TIP3    H127815   1.491   1.903   7.666  0.1890  0.3613 -0.3818
 2060TIP3    H227816   1.622   1.884   7.591 -0.6676 -0.8552 -1.6222
 2061TIP3   OH227817   5.037   4.915   0.179  0.2075  0.2173 -0.4418
 2061TIP3    H127818   5.064   4.830   0.145 -0.6416 -0.7798  1.2139
 2061TIP3    H227819   5.092   4.929   0.256  0.5380  1.3161 -0.8630
 2062TIP3   OH227820   3.927   5.284   1.652 -0.0949 -0.6247  0.1975
 2062TIP3    H127821   3.891   5.371   1.635 -0.0606 -0.2184  1.9810
 2062TIP3    H227822   3.979   5.264   1.574 -0.7099  0.6144 -0.5740
 2063TIP3   OH227823   6.645   4.133   1.896  0.0988  0.3542  0.2617
 2063TIP3    H127824   6.616   4.122   1.987  0.3038  0.6575  0.3666
 2063TIP3    H227825   6.625   4.050   1.854  0.5915 -0.0129  0.7461
 2064TIP3   OH227826   3.968   5.377   2.495 -0.1212 -0.1894 -0.2564
 2064TIP3    H127827   4.059   5.355   2.511  0.3089  0.0617 -2.0978
 2064TIP3    H227828   3.967   5.472   2.485 -0.3411 -0.2957 -1.4254
 2065TIP3   OH227829   3.841   6.176   7.103  0.1699 -0.1082 -0.2553
 2065TIP3    H127830   3.812   6.092   7.066  0.6357  0.2916 -1.5973
 2065TIP3    H227831   3.876   6.224   7.028 -0.8124  1.6146  0.3355
 2066TIP3   OH227832   1.473   5.765   0.127 -0.0811  0.1362 -0.1057
 2066TIP3    H127833   1.422   5.813   0.063 -1.0834  0.6559  1.0475
 2066TIP3    H227834   1.440   5.794   0.212  2.1807  0.5547  0.7047
 2067TIP3   OH227835   3.338   3.012   8.033 -0.1250  0.0639  0.0810
 2067TIP3    H127836   3.423   3.055   8.021  0.6061 -1.0272  1.0659
 2067TIP3    H227837   3.289   3.034   7.955  1.1294  0.5765 -0.6025
 2068TIP3   OH227838   1.811   5.451   1.553  0.0969  0.0808  0.5958
 2068TIP3    H127839   1.785   5.363   1.578 -0.5014 -0.0334 -0.3439
 2068TIP3    H227840   1.878   5.439   1.486 -0.3424  0.3143  0.0995
 2069TIP3   OH227841   6.461   0.633   1.887  0.5850  0.1114  0.0212
 2069TIP3    H127842   6.446   0.723   1.914 -0.4109  0.2012 -0.8150
 2069TIP3    H227843   6.520   0.639   1.813 -2.5116  0.4139 -2.6197
 2070TIP3   OH227844   2.937   4.483   1.101 -0.1175  0.0588  0.4533
 2070TIP3    H127845   2.875   4.490   1.174 -1.9614  1.0967 -1.1222
 2070TIP3    H227846   2.999   4.415   1.129 -2.1037 -1.2472  2.0003
 2071TIP3   OH227847   4.905   3.461   6.921  0.2164 -0.2954 -0.2553
 2071TIP3    H127848   4.817   3.453   6.958 -0.2221  1.1119 -0.9109
 2071TIP3    H227849   4.936   3.371   6.912 -0.1681 -0.7578  2.2722
 2072TIP3   OH227850   3.640   0.621   0.087 -0.5808  0.0043 -0.0469
 2072TIP3    H127851   3.617   0.701   0.040 -1.2074 -0.4605 -0.5422
 2072TIP3    H227852   3.620   0.641   0.179  0.5440  0.8730  0.0237
 2073TIP3   OH227853   0.442   6.832   7.441  0.1391  0.1856 -0.0784
 2073TIP3    H127854   0.482   6.916   7.462 -1.1825  0.7660  0.1724
 2073TIP3    H227855   0.432   6.833   7.346  0.5325  0.1130 -0.1233
 2074TIP3   OH227856   3.245   4.018   1.846  0.2277 -0.1518 -0.4973
 2074TIP3    H127857   3.322   3.981   1.889  0.7040  2.4533  1.0946
 2074TIP3    H227858   3.176   4.009   1.912  0.3646  1.7096 -0.0573
 2075TIP3   OH227859   4.467   1.601   0.516  0.3184 -0.2962 -0.1441
 2075TIP3    H127860   4.558   1.626   0.528 -0.2152  2.0548 -0.4423
 2075TIP3    H227861   4.422   1.636   0.593 -0.0881 -3.4337  1.2138
 2076TIP3   OH227862   6.198   2.004   0.144 -0.5369  0.1259  0.2161
 2076TIP3    H127863   6.222   1.959   0.063  0.7569  1.4110 -0.1698
 2076TIP3    H227864   6.131   2.067   0.118  1.1242  1.7766 -0.2806
 2077TIP3   OH227865   5.059   2.111   7.419  0.0611  0.1484  0.4383
 2077TIP3    H127866   5.014   2.042   7.469  1.0379 -0.7629  0.0862
 2077TIP3    H227867   5.136   2.068   7.382 -1.3241  0.3578 -3.0671
 2078TIP3   OH227868   2.899   4.640   0.725  0.2138  0.0151 -0.2759
 2078TIP3    H127869   2.972   4.630   0.665 -0.2584  0.8389 -1.0189
 2078TIP3    H227870   2.829   4.679   0.672 -0.4325  0.1648  0.6481
 2079TIP3   OH227871   0.894   1.099   2.671  0.2811  0.3069  0.2271
 2079TIP3    H127872   0.964   1.153   2.708  0.7515  1.7116 -2.4414
 2079TIP3    H227873   0.822   1.107   2.733  1.3206  1.7220  1.3242
 2080TIP3   OH227874   0.212   4.363   8.148 -0.4532 -0.1083 -0.1032
 2080TIP3    H127875   0.212   4.267   8.148 -1.0170 -0.1105 -0.6741
 2080TIP3    H227876   0.169   4.387   8.066  0.0962  0.6344 -0.1823
 2081TIP3   OH227877   1.097   6.075   2.253  0.3588  0.3073  0.3870
 2081TIP3    H127878   1.155   6.152   2.259 -0.2335  0.7229  0.8546
 2081TIP3    H227879   1.009   6.112   2.249  0.0984 -0.3399  0.1286
 2082TIP3   OH227880   0.499   4.764   0.469  0.1243 -0.1402  0.1441
 2082TIP3    H127881   0.535   4.817   0.540 -0.4770 -1.6692  1.6371
 2082TIP3    H227882   0.557   4.781   0.395  2.1060 -0.2055  1.6186
 2083TIP3   OH227883   1.572   3.588   2.123  0.4009 -0.2965  0.6256
 2083TIP3    H127884   1.513   3.654   2.158 -2.1378 -1.8916 -0.3935
 2083TIP3    H227885   1.637   3.637   2.074 -1.6320  1.4546 -0.4490
 2084TIP3   OH227886   5.680   4.356   7.562  0.5346  0.2407  0.2858
 2084TIP3    H127887   5.599   4.307   7.545 -0.0023  1.3227 -0.4197
 2084TIP3    H227888   5.650   4.433   7.610  0.6133  2.3114 -2.7012
 2085TIP3   OH227889   2.214   4.786   2.813 -0.2878 -0.3979 -0.1747
 2085TIP3    H127890   2.292   4.765   2.864 -0.6090 -0.0650  0.4714
 2085TIP3    H227891   2.216   4.881   2.802 -0.7575 -0.3487  0.1200
 2086TIP3   OH227892   0.576   5.625   2.102  0.4971  0.4516  0.3516
 2086TIP3    H127893   0.595   5.543   2.147  0.0679  0.6328  0.8853
 2086TIP3    H227894   0.622   5.619   2.019  0.9588 -0.0768  0.6426
 2087TIP3   OH227895   0.320   6.584   1.969  0.2362 -0.5412  0.0424
 2087TIP3    H127896   0.364   6.641   2.032  0.6795 -1.6219  0.7497
 2087TIP3    H227897   0.335   6.495   2.003  0.1611 -1.1270 -1.3929
 2088TIP3   OH227898   5.884   5.394   8.126 -0.3228 -0.0500 -0.2838
 2088TIP3    H127899   5.928   5.477   8.107 -1.1050  0.0533 -1.8762
 2088TIP3    H227900   5.886   5.348   8.042 -1.9942 -0.6149 -0.0379
 2089TIP3   OH227901   3.258   1.312   0.985 -0.8019 -0.2681  0.4387
 2089TIP3    H127902   3.245   1.383   0.923 -0.6252 -0.7011 -0.0991
 2089TIP3    H227903   3.197   1.243   0.957  0.8487 -1.3520 -0.6350
 2090TIP3   OH227904   0.143   4.861   0.889  0.6153 -0.7303 -0.3767
 2090TIP3    H127905   0.237   4.840   0.886  0.4226 -2.0878  1.2325
 2090TIP3    H227906   0.138   4.953   0.866  2.5501 -0.1685  1.1765
 2091TIP3   OH227907   6.263   0.576   6.824 -0.6485  0.4103 -0.6196
 2091TIP3    H127908   6.204   0.515   6.870  0.4779 -0.8943 -0.8492
 2091TIP3    H227909   6.280   0.534   6.740 -1.6232  2.1511 -1.7466
 2092TIP3   OH227910   0.292   5.835   1.837 -0.4289  0.1949 -0.1343
 2092TIP3    H127911   0.242   5.801   1.763  1.0545 -1.4651 -0.4545
 2092TIP3    H227912   0.383   5.833   1.807  0.0781  0.7721  1.2779
 2093TIP3   OH227913   6.745   6.793   1.712  0.1596 -0.2487 -0.1411
 2093TIP3    H127914   6.724   6.886   1.709  1.7635  0.2778  1.9869
 2093TIP3    H227915   6.720   6.759   1.626 -0.3833  2.1523 -0.9986
 2094TIP3   OH227916   1.686   5.710   2.070  0.0316 -0.0771 -0.0474
 2094TIP3    H127917   1.610   5.764   2.091  1.8414  2.6939 -0.0704
 2094TIP3    H227918   1.699   5.657   2.148 -0.9822  0.5776  0.6068
 2095TIP3   OH227919   6.859   6.689   1.936 -0.6333  0.2463 -0.1134
 2095TIP3    H127920   6.845   6.740   1.856 -0.2873 -1.3158 -1.2284
 2095TIP3    H227921   6.934   6.730   1.978 -0.5006  0.7862 -0.8660
 2096TIP3   OH227922   5.754   4.764   1.817 -0.7962  0.0990  0.6957
 2096TIP3    H127923   5.667   4.786   1.848 -0.3515  1.0788  1.2887
 2096TIP3    H227924   5.800   4.848   1.812 -0.6081 -0.0682 -1.9338
 2097TIP3   OH227925   4.747   4.606   2.015  0.1172 -0.1319  0.0853
 2097TIP3    H127926   4.838   4.617   1.988  0.4182 -1.0473  0.6480
 2097TIP3    H227927   4.748   4.625   2.109 -0.5683  1.2995 -0.1787
 2098TIP3   OH227928   1.062   1.974   0.227  0.6457  0.3222  0.1267
 2098TIP3    H127929   1.066   1.893   0.278  0.9621  0.6694  0.6635
 2098TIP3    H227930   1.008   2.033   0.279 -1.5831 -0.2804 -1.3475
 2099TIP3   OH227931   1.059   6.416   7.590 -0.1400  0.0675 -0.6355
 2099TIP3    H127932   0.965   6.432   7.589 -0.9593 -2.6781  3.3881
 2099TIP3    H227933   1.071   6.342   7.531 -0.7354 -0.1839 -0.4544
 2100TIP3   OH227934   1.519   1.092   7.143 -0.1416  0.1032 -0.0669
 2100TIP3    H127935   1.471   1.093   7.061  0.8523 -2.0213 -0.7543
 2100TIP3    H227936   1.607   1.062   7.119 -0.1208 -1.6369  1.8498
 2101TIP3   OH227937   2.070   6.164   1.505 -0.0948 -0.5823 -0.0930
 2101TIP3    H127938   2.085   6.249   1.548 -0.0800 -0.9123  0.5692
 2101TIP3    H227939   2.140   6.108   1.539 -0.4627 -1.0277 -0.0624
 2102TIP3   OH227940   0.933   1.848   7.636  0.3224  0.3971 -0.3405
 2102TIP3    H127941   0.847   1.809   7.653 -0.0492  1.9621  1.7721
 2102TIP3    H227942   0.942   1.844   7.541 -0.3275 -3.3389 -0.4153
 2103TIP3   OH227943   2.216   3.821   1.014  0.0339  0.1115 -0.0430
 2103TIP3    H127944   2.168   3.746   1.048  0.4358 -0.2413 -0.2530
 2103TIP3    H227945   2.283   3.840   1.080  0.3220 -0.0951 -0.2749
 2104TIP3   OH227946   2.615   5.433   1.076 -0.3023 -0.0915 -0.1469
 2104TIP3    H127947   2.653   5.519   1.057  1.1190 -0.2430  1.6761
 2104TIP3    H227948   2.586   5.400   0.992 -0.2819  1.9064 -0.9780
 2105TIP3   OH227949   4.108   1.421   1.586 -0.1496  0.8546 -0.5940
 2105TIP3    H127950   4.155   1.487   1.535 -2.0511  2.5748 -0.2576
 2105TIP3    H227951   4.175   1.382   1.642  1.4982  0.7088 -2.5477
 2106TIP3   OH227952   5.387   1.273   0.566 -0.4560  0.2128 -0.2312
 2106TIP3    H127953   5.396   1.187   0.525 -0.8074  0.5958 -1.1495
 2106TIP3    H227954   5.293   1.281   0.581 -0.4895  0.6442 -0.6418
 2107TIP3   OH227955   1.936   4.483   7.258  0.3997  0.3043  0.8151
 2107TIP3    H127956   1.843   4.463   7.268  0.8328 -1.6135  1.5164
 2107TIP3    H227957   1.971   4.481   7.347  1.0542  1.4195  0.5996
 2108TIP3   OH227958   5.188   4.832   0.434 -0.6023 -0.1066  0.0751
 2108TIP3    H127959   5.162   4.810   0.524  0.3295 -0.7590  0.2030
 2108TIP3    H227960   5.209   4.747   0.395 -2.7732 -0.0565 -1.3687
 2109TIP3   OH227961   2.360   0.973   8.096 -0.0256  0.0066  0.2493
 2109TIP3    H127962   2.287   0.916   8.120 -2.1077  1.7037 -1.5313
 2109TIP3    H227963   2.382   0.947   8.007  2.6130 -1.4139  1.2260
 2110TIP3   OH227964   0.111   6.731   7.364  0.7507 -0.1922  0.2775
 2110TIP3    H127965   0.181   6.778   7.319 -0.2440  0.2169 -0.9099
 2110TIP3    H227966   0.109   6.645   7.321  1.2129 -0.6096  1.0519
 2111TIP3   OH227967   4.417   4.505   7.727  0.1128  0.5517 -0.2401
 2111TIP3    H127968   4.489   4.563   7.702 -0.9760  2.7788  1.3971
 2111TIP3    H227969   4.384   4.470   7.645  1.2798  1.7060 -1.2460
 2112TIP3   OH227970   0.133   0.399   7.190 -0.1401  0.9508  0.5402
 2112TIP3    H127971   0.155   0.357   7.107  0.9026  1.0224  0.7697
 2112TIP3    H227972   0.038   0.404   7.189 -0.1542  0.7771 -0.5675
 2113TIP3   OH227973   2.724   5.522   3.002  0.0282  0.6494 -0.1188
 2113TIP3    H127974   2.762   5.583   3.065 -0.9723  1.0356  0.1202
 2113TIP3    H227975   2.734   5.565   2.918  0.2928  0.6572 -0.0861
 2114TIP3   OH227976   2.969   4.112   7.813  0.2809 -0.8695  0.4570
 2114TIP3    H127977   2.970   4.091   7.906  1.4263 -0.8293  0.4667
 2114TIP3    H227978   2.965   4.026   7.769 -2.5334 -0.8691  0.5058
 2115TIP3   OH227979   4.505   5.790   7.952  0.3535  0.3740  0.1174
 2115TIP3    H127980   4.526   5.789   8.045  1.3502 -0.5519 -0.0994
 2115TIP3    H227981   4.581   5.751   7.909 -0.8749 -1.0173 -0.9138
 2116TIP3   OH227982   0.566   1.963   1.632  0.2151  1.1551  0.5140
 2116TIP3    H127983   0.485   2.000   1.596  0.2245  0.1214 -0.6361
 2116TIP3    H227984   0.551   1.960   1.727 -1.2920  0.5672  0.2873
 2117TIP3   OH227985   0.285   1.478   1.599 -0.1161 -0.0871  0.3412
 2117TIP3    H127986   0.228   1.478   1.522  0.9318 -1.1449 -0.4554
 2117TIP3    H227987   0.246   1.413   1.658  0.5960 -1.2782 -0.4743
 2118TIP3   OH227988   4.236   6.290   6.413 -0.0488 -0.2957 -0.2869
 2118TIP3    H127989   4.234   6.225   6.342 -0.0747  0.5671 -1.0823
 2118TIP3    H227990   4.254   6.373   6.370 -0.3811  0.2959  0.6801
 2119TIP3   OH227991   6.164   1.201   1.317 -0.7406  0.0941 -0.4938
 2119TIP3    H127992   6.235   1.145   1.286 -0.9852 -0.7058  0.3700
 2119TIP3    H227993   6.084   1.159   1.283 -1.0715 -1.1924  1.7269
 2120TIP3   OH227994   0.019   0.007   0.467 -0.0104 -0.3979 -0.4537
 2120TIP3    H127995   0.068  -0.050   0.408  0.5597  1.0942 -1.5112
 2120TIP3    H227996   0.019  -0.038   0.551  2.0122 -1.0855 -0.7729
 2121TIP3   OH227997   1.567   3.529   1.667  0.3494  0.1210 -0.5283
 2121TIP3    H127998   1.510   3.467   1.621 -0.0835  0.0602  0.0777
 2121TIP3    H227999   1.574   3.493   1.755  2.0110 -0.3161 -0.8168
 2122TIP3   OH228000   4.193   2.514   1.967 -0.2857  0.0241  0.4568
 2122TIP3    H128001   4.274   2.533   1.920 -0.9109 -0.3343 -0.8145
 2122TIP3    H228002   4.197   2.420   1.984 -1.1125 -0.2968 -0.9904
 2123TIP3   OH228003   6.264   1.362   2.513 -0.1491 -0.4476  0.2318
 2123TIP3    H128004   6.223   1.276   2.514  0.0085 -0.5141  0.7980
 2123TIP3    H228005   6.236   1.400   2.429 -0.7144 -0.8045  0.2526
 2124TIP3   OH228006   1.598   1.337   2.217  0.0929  0.2866  0.2952
 2124TIP3    H128007   1.560   1.358   2.131 -1.4586 -1.3086  0.5191
 2124TIP3    H228008   1.671   1.278   2.196 -1.0563 -1.1293  0.0594
 2125TIP3   OH228009   0.367   2.027   2.301 -0.2856  0.3068  0.0324
 2125TIP3    H128010   0.462   2.025   2.316 -0.0664  1.3882 -1.0085
 2125TIP3    H228011   0.348   1.944   2.258  0.2901  0.2867 -0.2030
 2126TIP3   OH228012   2.825   6.965   0.025 -0.3213 -0.2103 -0.1031
 2126TIP3    H128013   2.848   7.015  -0.053 -1.0773  0.1110 -0.1264
 2126TIP3    H228014   2.893   6.987   0.088  0.5810 -0.8619 -0.8266
 2127TIP3   OH228015   1.137   2.667   0.074  0.2348  0.0134  0.4417
 2127TIP3    H128016   1.225   2.694   0.048  0.0138  0.4943  0.1962
 2127TIP3    H228017   1.129   2.578   0.040  1.9752 -1.5073  3.5626
 2128TIP3   OH228018   3.670   3.385   2.004 -0.4370  0.0411 -0.3800
 2128TIP3    H128019   3.670   3.290   2.009  0.1032  0.1294  2.5269
 2128TIP3    H228020   3.760   3.411   2.025 -0.3757  1.2179 -1.8682
 2129TIP3   OH228021   2.033   1.966   2.661  0.0290  0.3416  0.2548
 2129TIP3    H128022   2.009   2.021   2.735 -1.2625  0.9280 -0.5737
 2129TIP3    H228023   1.954   1.916   2.641  0.7690 -0.8167  0.1152
 2130TIP3   OH228024   2.633   6.172   7.479 -0.7242 -0.7900  0.2507
 2130TIP3    H128025   2.547   6.172   7.522 -1.3193  0.8806 -0.8047
 2130TIP3    H228026   2.675   6.252   7.510 -0.6605 -0.2114 -1.2413
 2131TIP3   OH228027   1.788   5.844   8.099  0.3815 -0.9811  0.3814
 2131TIP3    H128028   1.817   5.799   8.020  0.1783  0.2068 -0.4021
 2131TIP3    H228029   1.694   5.826   8.104  0.3308 -0.7759  0.1619
 2132TIP3   OH228030   2.921   5.716   1.924  0.1413 -0.3664 -0.6229
 2132TIP3    H128031   2.922   5.770   1.845  3.5082  0.8441  0.0724
 2132TIP3    H228032   3.008   5.676   1.928 -1.3848 -4.0490  0.2088
 2133TIP3   OH228033   6.977   0.612   1.895  0.1819 -0.2721  0.3426
 2133TIP3    H128034   6.937   0.526   1.907 -0.0399 -0.2178 -0.0155
 2133TIP3    H228035   7.066   0.602   1.931  0.0378 -0.5471  0.6289
 2134TIP3   OH228036   1.903   1.538   0.154 -0.0408  0.9214  0.3320
 2134TIP3    H128037   1.903   1.570   0.244  0.4732  0.4262  0.5122
 2134TIP3    H228038   1.812   1.513   0.137 -0.3857  2.1358  0.2996
 2135TIP3   OH228039   1.698   1.813   7.943  0.2913  0.2702 -0.5244
 2135TIP3    H128040   1.779   1.765   7.959  0.3709  0.5761  0.0299
 2135TIP3    H228041   1.723   1.905   7.947 -0.1256  0.3715 -0.0677
 2136TIP3   OH228042   3.916   0.341   8.257 -0.5361 -0.4213  0.0681
 2136TIP3    H128043   3.858   0.350   8.333  0.2324 -0.3161  0.6633
 2136TIP3    H228044   3.999   0.380   8.286  0.5503 -2.5632  0.0585
 2137TIP3   OH228045   6.467   1.897   2.199  0.1603  0.1280  0.0549
 2137TIP3    H128046   6.417   1.970   2.235 -0.0663 -1.1265  2.4351
 2137TIP3    H228047   6.554   1.905   2.239  0.8673  0.3222 -1.4140
 2138TIP3   OH228048   2.097   2.609   0.650 -0.1880  0.8282  0.3579
 2138TIP3    H128049   2.164   2.647   0.594  0.2263  3.5654  2.5147
 2138TIP3    H228050   2.140   2.594   0.734 -1.2519 -1.4621  0.5963
 2139TIP3   OH228051   6.932   5.715   2.078  0.4411  0.0398  0.3247
 2139TIP3    H128052   6.935   5.661   1.999 -2.6773  2.0731 -1.3998
 2139TIP3    H228053   6.849   5.692   2.120 -0.2755  2.3471  0.3177
 2140TIP3   OH228054   3.414   4.326   8.080 -0.0847 -0.4379  0.6732
 2140TIP3    H128055   3.490   4.352   8.131 -0.9494  0.7406  1.4199
 2140TIP3    H228056   3.361   4.274   8.140 -0.1491 -0.7670  0.3372
 2141TIP3   OH228057   1.420   5.954   0.327 -0.6809 -0.6657 -0.1456
 2141TIP3    H128058   1.485   5.964   0.396 -0.8171 -2.8085  0.3792
 2141TIP3    H228059   1.464   5.983   0.247  0.8172 -1.7334  0.2484
 2142TIP3   OH228060   5.170   5.973   8.388  0.2365  0.2476  0.4173
 2142TIP3    H128061   5.132   5.890   8.360  0.2766  0.4795 -0.3423
 2142TIP3    H228062   5.239   5.991   8.325  0.4879  0.6703  0.7995
 2143TIP3   OH228063   1.870   3.716   2.281 -0.2043  0.1853  0.6372
 2143TIP3    H128064   1.815   3.672   2.345  0.9372 -0.4513  1.2154
 2143TIP3    H228065   1.917   3.646   2.236  0.0138  0.6932  0.0519
 2144TIP3   OH228066   5.763   6.762   0.143 -0.0537  0.2011 -0.5930
 2144TIP3    H128067   5.679   6.808   0.137  0.4820  1.6524  1.7879
 2144TIP3    H228068   5.741   6.678   0.182 -0.4377  0.4531 -0.2606
 2145TIP3   OH228069   3.977   6.568   1.615  0.0696 -0.0560 -0.4620
 2145TIP3    H128070   3.988   6.654   1.574 -0.8235 -0.0902 -0.8037
 2145TIP3    H228071   4.050   6.561   1.676  0.1284  0.9706 -0.3950
 2146TIP3   OH228072   5.084   6.070   0.950 -0.0029 -0.1171  0.1486
 2146TIP3    H128073   4.998   6.031   0.933 -0.6844  1.4325 -0.2202
 2146TIP3    H228074   5.066   6.164   0.954  1.6977  0.2419  0.0355
 2147TIP3   OH228075   3.199   6.878   1.006 -0.2671  0.1191  0.3418
 2147TIP3    H128076   3.264   6.881   0.936 -2.4897  1.4623 -1.8488
 2147TIP3    H228077   3.214   6.958   1.056  0.5549 -0.2332  0.6752
 2148TIP3   OH228078   0.297   5.476   7.945  0.5941  0.2336  0.4378
 2148TIP3    H128079   0.263   5.387   7.949  0.2295  0.3874  0.9425
 2148TIP3    H228080   0.252   5.522   8.016  1.2152  0.6721  0.5604
 2149TIP3   OH228081   5.970   5.206   0.508 -0.6081  0.5848  0.4626
 2149TIP3    H128082   6.047   5.203   0.450 -0.5399 -0.5395  0.5812
 2149TIP3    H228083   6.007   5.193   0.596 -1.0446 -1.9189  0.3655
 2150TIP3   OH228084   0.863   5.866   0.035  0.3121  0.3991 -0.4547
 2150TIP3    H128085   0.769   5.874   0.019  0.7421 -0.9963 -4.9891
 2150TIP3    H228086   0.875   5.778   0.071 -0.0847  0.1402 -0.9435
 2151TIP3   OH228087   6.451   2.638   8.097  0.2894 -0.8512  0.2288
 2151TIP3    H128088   6.538   2.624   8.132  0.4557 -0.8043 -0.1569
 2151TIP3    H228089   6.429   2.555   8.053 -1.0921 -1.9957  2.8542
 2152TIP3   OH228090   5.800   1.479   0.144 -0.4307  0.2561 -0.1352
 2152TIP3    H128091   5.782   1.558   0.194  1.3741  0.4142  0.3330
 2152TIP3    H228092   5.726   1.421   0.162  0.3873  0.0859  3.2461
 2153TIP3   OH228093   3.965   6.953   7.483 -0.2202 -0.7638  0.2108
 2153TIP3    H128094   3.962   6.909   7.568 -0.3695  0.8949  1.0981
 2153TIP3    H228095   3.953   7.045   7.503  0.9438 -0.1883 -1.4967
 2154TIP3   OH228096   2.357   6.505   1.382 -0.1652  0.1315 -0.3625
 2154TIP3    H128097   2.312   6.547   1.456  0.4255  0.2743 -0.0730
 2154TIP3    H228098   2.388   6.422   1.418 -0.8375 -0.2999 -0.7729
 2155TIP3   OH228099   4.207   5.698   0.796 -0.3630 -0.2593 -0.2236
 2155TIP3    H128100   4.279   5.741   0.843  0.1655 -1.6096  0.2600
 2155TIP3    H228101   4.216   5.728   0.706 -0.3306  1.0177  0.1856
 2156TIP3   OH228102   2.603   1.748   0.623  0.4498  0.3445 -0.2750
 2156TIP3    H128103   2.596   1.654   0.638 -0.5121  0.2369 -1.2899
 2156TIP3    H228104   2.612   1.757   0.528 -0.4052  1.3242 -0.2770
 2157TIP3   OH228105   6.621   5.286   1.214 -0.7363  0.1283  0.2491
 2157TIP3    H128106   6.574   5.286   1.130 -0.2993 -0.0746  0.0035
 2157TIP3    H228107   6.713   5.284   1.190 -0.6209 -1.2997  0.7290
 2158TIP3   OH228108   6.300   4.537   1.759  0.5890  0.2441 -0.8220
 2158TIP3    H128109   6.339   4.470   1.815 -1.0181 -0.3622 -0.3552
 2158TIP3    H228110   6.374   4.577   1.713  1.6517 -1.4071 -0.6253
 2159TIP3   OH228111   1.308   1.898   0.770 -0.7763 -0.0055 -0.4523
 2159TIP3    H128112   1.286   1.818   0.722  0.3421 -0.6702  0.0988
 2159TIP3    H228113   1.332   1.868   0.858  0.7530  0.7874 -0.5570
 2160TIP3   OH228114   6.657   1.082   1.463  0.0760  0.4031 -0.1341
 2160TIP3    H128115   6.575   1.104   1.507  0.0738 -0.5894  0.3908
 2160TIP3    H228116   6.630   1.050   1.377 -0.2076 -1.0854  0.4734
 2161TIP3   OH228117   2.594   2.717   0.959  0.6731  0.2388  0.0409
 2161TIP3    H128118   2.585   2.782   0.889  1.2284  1.5193  1.1260
 2161TIP3    H228119   2.686   2.690   0.954  0.7729  0.5055  0.4158
 2162TIP3   OH228120   2.541   0.891   2.888  0.6090  0.2373  0.4205
 2162TIP3    H128121   2.457   0.923   2.922 -0.0981  0.8676 -1.7794
 2162TIP3    H228122   2.585   0.970   2.855  1.1777 -0.3657 -0.2900
 2163TIP3   OH228123   4.944   2.903   1.305  0.1832  0.3584 -0.1714
 2163TIP3    H128124   4.942   2.966   1.233  1.0411  1.3685  0.6508
 2163TIP3    H228125   5.012   2.936   1.364  0.1382 -0.9451  0.6551
 2164TIP3   OH228126   1.001   0.832   0.984  0.1964  0.3213 -0.0631
 2164TIP3    H128127   1.076   0.813   0.928 -0.8910 -0.8418 -1.1890
 2164TIP3    H228128   1.018   0.920   1.019  1.0073  1.0053 -2.0598
 2165TIP3   OH228129   0.178   1.109   7.478  0.0785 -0.5981  0.6030
 2165TIP3    H128130   0.202   1.108   7.385  1.1857 -1.0506  0.8745
 2165TIP3    H228131   0.244   1.053   7.520  0.8626  1.2248  1.9634
 2166TIP3   OH228132   1.615   1.805   0.900 -0.0243 -0.6915 -0.1900
 2166TIP3    H128133   1.530   1.812   0.944 -0.0279  1.6628 -0.4240
 2166TIP3    H228134   1.679   1.823   0.969  0.2380 -1.4330 -0.2344
 2167TIP3   OH228135   1.144   3.982   2.801 -0.6132 -0.8975 -0.0503
 2167TIP3    H128136   1.079   3.916   2.823 -0.5948 -0.8626  0.1101
 2167TIP3    H228137   1.132   4.051   2.867 -0.3291 -0.9474  0.0561
 2168TIP3   OH228138   6.743   2.010   1.403  0.2988 -0.3579 -0.4230
 2168TIP3    H128139   6.836   2.023   1.383  0.3259 -0.1038 -0.1362
 2168TIP3    H228140   6.704   1.984   1.320  0.4703  0.3754 -0.7351
 2169TIP3   OH228141   0.136   2.920   7.748  0.5290  0.3665  0.0490
 2169TIP3    H128142   0.100   2.925   7.660 -1.8187  0.8644  0.9629
 2169TIP3    H228143   0.191   2.841   7.748  0.2151  0.1217 -1.7122
 2170TIP3   OH228144   6.586   6.846   1.040 -0.0367 -0.4052 -0.2224
 2170TIP3    H128145   6.572   6.940   1.053 -0.7421 -0.2583 -1.8762
 2170TIP3    H228146   6.671   6.841   0.996 -0.0192 -0.5461 -0.1723
 2171TIP3   OH228147   1.802   2.084   7.602 -0.1115 -0.5075  0.2144
 2171TIP3    H128148   1.718   2.042   7.622 -1.7541  1.6252 -1.6547
 2171TIP3    H228149   1.782   2.177   7.601  1.6208 -0.0334 -2.8392
 2172TIP3   OH228150   6.049   6.241   2.608 -0.3829 -0.0787 -0.3525
 2172TIP3    H128151   6.124   6.203   2.655  0.6220  0.7862 -1.1997
 2172TIP3    H228152   6.072   6.231   2.515 -0.5978  1.5632 -0.6080
 2173TIP3   OH228153   6.437   1.845   0.185  0.1006  0.1687 -0.2730
 2173TIP3    H128154   6.400   1.759   0.166 -0.3440 -0.1133  1.6337
 2173TIP3    H228155   6.361   1.904   0.187 -0.1863 -0.1697  2.3346
 2174TIP3   OH228156   3.842   3.790   7.480  0.6314 -0.1948  0.2444
 2174TIP3    H128157   3.815   3.719   7.422 -3.7613  2.3121 -1.1701
 2174TIP3    H228158   3.786   3.780   7.557 -0.8681  2.1562 -0.4340
 2175TIP3   OH228159   0.081   3.606   7.621  0.2427  0.2620 -0.1062
 2175TIP3    H128160   0.103   3.620   7.529  1.0074  2.0824  0.3093
 2175TIP3    H228161   0.165   3.598   7.665 -0.1083  0.0082  0.5420
 2176TIP3   OH228162   6.735   1.513   1.593 -0.3670  0.3385 -0.2248
 2176TIP3    H128163   6.709   1.605   1.601 -0.4189  0.2864  0.2667
 2176TIP3    H228164   6.691   1.482   1.514  1.1354  1.2249 -1.4545
 2177TIP3   OH228165   0.998   6.815   2.306 -0.0172  0.1910 -0.3003
 2177TIP3    H128166   1.060   6.855   2.244 -0.7173  1.3011 -0.2938
 2177TIP3    H228167   1.035   6.834   2.392  0.2803 -0.2323 -0.3319
 2178TIP3   OH228168   2.469   0.134   1.927 -0.6524 -0.6252 -0.1413
 2178TIP3    H128169   2.498   0.158   1.838  2.5009  1.6446  1.3096
 2178TIP3    H228170   2.410   0.204   1.952  0.1002 -0.1387  0.2816
 2179TIP3   OH228171   0.403   1.648   7.563  0.0588  0.2981  0.1134
 2179TIP3    H128172   0.478   1.617   7.512  0.0248  1.7496 -0.9132
 2179TIP3    H228173   0.361   1.712   7.505 -1.7001 -0.1341  0.8613
 2180TIP3   OH228174   1.527   2.832   2.136 -0.4734 -0.3036 -0.5482
 2180TIP3    H128175   1.518   2.912   2.084 -1.0715 -0.6617 -1.0159
 2180TIP3    H228176   1.451   2.834   2.195 -0.2092 -0.2745 -0.2083
 2181TIP3   OH228177   6.339   4.294   7.234  0.1619  0.1683  0.0478
 2181TIP3    H128178   6.266   4.280   7.173 -0.0616 -2.6945  0.8181
 2181TIP3    H228179   6.298   4.291   7.320  1.0586 -0.8391  0.4667
 2182TIP3   OH228180   5.911   3.394   1.576  0.0255  0.1335 -0.3642
 2182TIP3    H128181   5.959   3.473   1.602  2.6735 -1.8114  1.1961
 2182TIP3    H228182   5.977   3.340   1.533 -1.5195 -1.5243 -0.7290
 2183TIP3   OH228183   3.606   5.752   2.648  0.7336 -0.0648 -0.2040
 2183TIP3    H128184   3.531   5.704   2.613  0.7702  0.1665 -0.5993
 2183TIP3    H228185   3.577   5.843   2.651  0.4635 -0.1742  1.0754
 2184TIP3   OH228186   4.813   4.834   0.402 -0.3165 -0.0868 -0.3107
 2184TIP3    H128187   4.770   4.777   0.339 -2.0688 -1.8568  2.2847
 2184TIP3    H228188   4.905   4.808   0.399 -0.4969 -0.6547 -1.5649
 2185TIP3   OH228189   3.692   3.265   2.909 -0.5283  0.1515  0.1204
 2185TIP3    H128190   3.718   3.176   2.885  1.3655  0.6231  0.2658
 2185TIP3    H228191   3.608   3.279   2.865  0.8428 -0.4417 -2.8824
 2186TIP3   OH228192   4.017   3.859   0.601  0.2660 -0.3121 -0.5103
 2186TIP3    H128193   3.999   3.945   0.563  0.0002  0.3047  0.9610
 2186TIP3    H228194   4.037   3.876   0.693 -0.3683 -1.8808 -0.0369
 2187TIP3   OH228195   1.423   1.651   7.466 -0.4219 -0.2185 -0.0744
 2187TIP3    H128196   1.388   1.611   7.546  2.0870 -2.7862 -0.1299
 2187TIP3    H228197   1.515   1.669   7.487  0.0935 -0.2584 -2.1563
 2188TIP3   OH228198   3.577   5.381   1.318 -0.3497 -0.1962 -0.5282
 2188TIP3    H128199   3.654   5.325   1.326 -1.6797 -2.0890 -0.3522
 2188TIP3    H228200   3.551   5.400   1.408 -1.6254 -1.8545 -0.4992
 2189TIP3   OH228201   6.139   2.792   1.875 -0.3590  0.3013  0.0907
 2189TIP3    H128202   6.196   2.869   1.870  0.0260  0.0697  0.8962
 2189TIP3    H228203   6.158   2.753   1.960 -3.8126  1.8298  1.7605
 2190TIP3   OH228204   6.156   1.069   0.262 -0.5067 -0.4612 -0.0398
 2190TIP3    H128205   6.086   1.078   0.197 -0.9987  0.9539  0.6490
 2190TIP3    H228206   6.111   1.040   0.342 -0.0295 -1.3467 -0.0844
 2191TIP3   OH228207   5.215   2.709   7.866 -0.0436 -0.1168 -0.2558
 2191TIP3    H128208   5.125   2.678   7.859  0.8084 -3.0608  0.3552
 2191TIP3    H228209   5.224   2.740   7.956 -0.0764 -1.1785  0.1160
 2192TIP3   OH228210   6.207   4.519   7.549 -0.4970  0.0933 -0.5137
 2192TIP3    H128211   6.263   4.597   7.553  0.1015 -0.3787  1.8703
 2192TIP3    H228212   6.118   4.554   7.556 -0.2939  0.5981 -0.3683
 2193TIP3   OH228213   0.572   5.315   2.145 -0.0027  0.4841  0.5272
 2193TIP3    H128214   0.513   5.274   2.081  0.1214  0.0679  0.6767
 2193TIP3    H228215   0.513   5.357   2.208 -0.1547  2.9607 -1.1229
 2194TIP3   OH228216   1.457   4.148   7.420  0.2091  0.1601  0.3955
 2194TIP3    H128217   1.491   4.237   7.427  2.2334 -0.6244  1.3446
 2194TIP3    H228218   1.403   4.136   7.498  0.4366  0.3705  0.5863
 2195TIP3   OH228219   6.195   2.013   6.471 -0.1605  0.1389 -0.3805
 2195TIP3    H128220   6.103   2.020   6.444 -0.2063 -0.2155 -0.3189
 2195TIP3    H228221   6.213   1.919   6.469 -0.1363  0.1044  0.7245
 2196TIP3   OH228222   6.239   1.859   8.339 -0.0725 -0.1491  0.8173
 2196TIP3    H128223   6.295   1.894   8.271  0.5746 -2.1466  0.2635
 2196TIP3    H228224   6.176   1.804   8.293 -2.2670  1.6407  1.4682
 2197TIP3   OH228225   5.224   6.675   1.039 -0.9131  0.4445 -0.6440
 2197TIP3    H128226   5.204   6.697   1.130 -0.9765  1.5403 -0.9110
 2197TIP3    H228227   5.154   6.717   0.988 -1.3179 -0.7933 -1.1591
 2198TIP3   OH228228   3.862   5.377   1.087 -0.6983 -0.2728 -0.1296
 2198TIP3    H128229   3.806   5.450   1.059  0.5466  0.7678 -0.0026
 2198TIP3    H228230   3.832   5.303   1.035 -0.5898  0.8398 -1.8497
 2199TIP3   OH228231   0.627   1.893   7.673 -0.2069 -0.0024  0.2891
 2199TIP3    H128232   0.609   1.945   7.751 -0.7311 -0.3785  0.4214
 2199TIP3    H228233   0.650   1.806   7.706 -1.0185 -0.3316  0.0147
 2200TIP3   OH228234   2.683   5.337   2.025  0.4429 -0.8323 -0.7703
 2200TIP3    H128235   2.778   5.337   2.009  0.1866 -3.0082 -2.9862
 2200TIP3    H228236   2.669   5.262   2.083  0.0963 -0.4579 -0.3740
 2201TIP3   OH228237   2.475   4.542   8.174  0.2133  0.1276  0.6361
 2201TIP3    H128238   2.459   4.591   8.094  0.3409 -0.7875  0.0292
 2201TIP3    H228239   2.569   4.549   8.189  1.1027 -3.4437 -1.9166
 2202TIP3   OH228240   6.285   5.586   6.913 -0.1223  0.1873 -0.1903
 2202TIP3    H128241   6.189   5.588   6.912 -0.1362  2.0773  0.0376
 2202TIP3    H228242   6.308   5.493   6.918 -1.9625 -0.2578  0.9042
 2203TIP3   OH228243   2.521   6.680   0.873 -0.3115  0.8407 -0.3353
 2203TIP3    H128244   2.553   6.708   0.787 -1.0593 -0.6399 -1.1358
 2203TIP3    H228245   2.436   6.640   0.855  0.3387 -1.1894  0.8184
 2204TIP3   OH228246   3.453   4.971   1.368  0.6768  0.0202 -0.6376
 2204TIP3    H128247   3.456   4.897   1.307  3.6691  0.6137 -1.3786
 2204TIP3    H228248   3.464   4.932   1.454  1.2436 -0.4814 -0.9332
 2205TIP3   OH228249   3.300   0.858   7.662 -0.3725 -0.4228 -0.4774
 2205TIP3    H128250   3.307   0.845   7.567 -0.5495  0.8025 -0.6717
 2205TIP3    H228251   3.388   0.841   7.695 -0.2264 -0.5205 -0.9074
 2206TIP3   OH228252   5.260   0.981   7.282 -0.1705 -0.4411 -0.0944
 2206TIP3    H128253   5.311   1.061   7.292  0.6992 -0.7553 -1.6318
 2206TIP3    H228254   5.316   0.912   7.317 -0.4007 -0.5325  0.0971
 2207TIP3   OH228255   1.827   3.601   8.200 -0.2861  0.0113  0.2927
 2207TIP3    H128256   1.764   3.663   8.163 -1.7986 -1.8728 -0.4580
 2207TIP3    H228257   1.846   3.540   8.129 -0.5398 -1.6361  1.5473
 2208TIP3   OH228258   2.063   5.771   8.257 -0.3176 -0.4513  0.2317
 2208TIP3    H128259   2.125   5.721   8.311  0.5742 -0.3935 -0.7066
 2208TIP3    H228260   2.050   5.853   8.305  1.6196  0.2238 -0.3094
 2209TIP3   OH228261   2.618   2.336   0.500 -0.3759 -0.2875  0.2741
 2209TIP3    H128262   2.661   2.409   0.455 -0.8420 -0.8895 -1.1888
 2209TIP3    H228263   2.668   2.326   0.581 -1.3380  2.7826  1.4136
 2210TIP3   OH228264   3.210   6.182   7.827 -1.0287  0.2353 -0.6925
 2210TIP3    H128265   3.135   6.123   7.840  0.1429 -0.9326  1.3955
 2210TIP3    H228266   3.268   6.133   7.769 -0.1190 -0.7394  0.9317
 2211TIP3   OH228267   3.428   5.940   2.403  0.4935  0.0281 -0.0300
 2211TIP3    H128268   3.456   5.964   2.492  0.5801 -0.4901  0.0852
 2211TIP3    H228269   3.337   5.911   2.414  0.9829 -1.5531  0.1678
 2212TIP3   OH228270   5.378   4.227   7.488  0.0364  0.3838  0.1044
 2212TIP3    H128271   5.407   4.180   7.410  0.8933  0.8120  0.1516
 2212TIP3    H228272   5.310   4.286   7.457  0.3444  0.5226 -0.3171
 2213TIP3   OH228273   3.358   2.419   7.409  0.6660 -0.4714 -0.5322
 2213TIP3    H128274   3.401   2.495   7.370 -1.0616  1.1663  0.5993
 2213TIP3    H228275   3.405   2.404   7.491  0.5068 -0.1185 -0.3761
 2214TIP3   OH228276   0.660   1.791   7.363  0.1132 -0.0667 -0.0280
 2214TIP3    H128277   0.656   1.822   7.453  0.2919  2.3866 -0.7760
 2214TIP3    H228278   0.753   1.772   7.348 -0.2888 -3.8700  1.2171
 2215TIP3   OH228279   1.420   6.215   1.931 -0.1698  0.3814  0.5615
 2215TIP3    H128280   1.478   6.192   1.859  0.0192 -0.5936  0.9993
 2215TIP3    H228281   1.476   6.215   2.009 -0.5322  0.5493  0.8275
 2216TIP3   OH228282   3.379   0.942   7.087 -0.0274 -0.3316  0.4374
 2216TIP3    H128283   3.296   0.974   7.122 -0.8385  0.2168 -1.8365
 2216TIP3    H228284   3.441   1.012   7.106 -0.9656  1.0063 -1.1349
 2217TIP3   OH228285   2.785   1.570   1.902 -0.5002  0.5914  0.2795
 2217TIP3    H128286   2.724   1.547   1.973 -0.1876  0.7450  0.6026
 2217TIP3    H228287   2.834   1.489   1.887 -0.8831  0.4232 -0.0857
 2218TIP3   OH228288   3.870   2.594   7.950  0.2680 -0.4190  0.2068
 2218TIP3    H128289   3.961   2.572   7.965  0.1999  0.2085  1.7875
 2218TIP3    H228290   3.856   2.676   7.999 -0.9851 -0.1814 -0.4837
 2219TIP3   OH228291   6.849   1.622   7.587  0.1363 -0.3061 -0.5225
 2219TIP3    H128292   6.774   1.611   7.646 -0.4201  2.9177 -0.4751
 2219TIP3    H228293   6.812   1.663   7.509  1.4594 -1.2635 -1.7123
 2220TIP3   OH228294   2.504   5.969   7.965 -0.3168  0.1450  0.7119
 2220TIP3    H128295   2.428   6.000   7.915  0.6813  0.5365 -0.6117
 2220TIP3    H228296   2.579   6.006   7.920  0.7110 -0.8013  1.5977
 2221TIP3   OH228297   2.825   4.200   0.318 -0.4309 -0.4444  0.0563
 2221TIP3    H128298   2.784   4.171   0.400  0.7069 -0.7266  0.5481
 2221TIP3    H228299   2.886   4.268   0.346  0.1088 -0.6820 -0.5279
 2222TIP3   OH228300   1.541   1.114   1.201 -0.2708 -0.1467 -0.0077
 2222TIP3    H128301   1.515   1.108   1.293 -1.3360  1.8315 -0.1388
 2222TIP3    H228302   1.475   1.061   1.154 -0.6659  0.1354  0.2248
 2223TIP3   OH228303   4.392   1.451   0.956  0.0320  0.6342  0.2540
 2223TIP3    H128304   4.342   1.391   0.900 -0.8311 -0.0031  1.6504
 2223TIP3    H228305   4.460   1.396   0.994 -0.0807  0.7930  0.6867
 2224TIP3   OH228306   6.857   1.351   8.307 -0.0785  0.6670  0.2342
 2224TIP3    H128307   6.796   1.424   8.317 -0.0367  1.0548 -1.7967
 2224TIP3    H228308   6.942   1.394   8.292  0.3784  0.1588  1.3343
 2225TIP3   OH228309   4.674   0.682   1.285 -0.1937  0.6368  0.3223
 2225TIP3    H128310   4.761   0.707   1.252  1.0408 -1.4847  1.7194
 2225TIP3    H228311   4.668   0.723   1.371 -0.2711  0.2230  0.5165
 2226TIP3   OH228312   1.450   2.923   7.119 -0.2669  0.2297  0.1482
 2226TIP3    H128313   1.462   2.838   7.077 -3.5734  0.2043 -1.0873
 2226TIP3    H228314   1.372   2.960   7.077  0.5653  3.5602  1.1860
 2227TIP3   OH228315   4.735   6.008   2.866 -0.0654  0.5162 -0.5020
 2227TIP3    H128316   4.650   6.017   2.909 -0.3673 -0.8374 -0.7743
 2227TIP3    H228317   4.728   5.928   2.814  1.2496  0.5917 -0.8468
 2228TIP3   OH228318   4.882   6.857   2.183 -0.0128  0.0650 -0.2412
 2228TIP3    H128319   4.947   6.873   2.115  1.9002 -1.4127  1.1359
 2228TIP3    H228320   4.931   6.863   2.266 -1.5396 -1.3193  0.8390
 2229TIP3   OH228321   6.648   0.531   0.719 -0.3353  0.3015 -0.3645
 2229TIP3    H128322   6.601   0.492   0.646 -0.9256 -0.2513  0.2893
 2229TIP3    H228323   6.735   0.490   0.716 -0.2457  0.5245 -0.9387
 2230TIP3   OH228324   2.233   5.766   1.939  0.0232  0.0180 -0.3006
 2230TIP3    H128325   2.245   5.713   1.861  0.1582  0.9188 -0.9114
 2230TIP3    H228326   2.143   5.750   1.966  0.7301 -2.3138  0.9184
 2231TIP3   OH228327   5.939   2.224   2.804  0.3753  0.2289  0.1323
 2231TIP3    H128328   5.962   2.152   2.745 -0.9683  0.3988 -0.6291
 2231TIP3    H228329   6.004   2.292   2.784  1.7756 -0.8044  0.9921
 2232TIP3   OH228330   2.000   4.195   0.075 -0.5402  0.2737 -0.3366
 2232TIP3    H128331   2.019   4.244  -0.005 -1.4483  1.3233  0.0601
 2232TIP3    H228332   1.939   4.252   0.124 -0.5930 -0.6788  0.7454
 2233TIP3   OH228333   0.955   1.035   3.012 -0.3988 -0.5806  0.2053
 2233TIP3    H128334   0.988   1.121   3.039  0.2450 -0.6542 -0.2968
 2233TIP3    H228335   0.863   1.050   2.991  0.0957  0.3934 -1.5096
 2234TIP3   OH228336   0.942   6.773   0.641  0.2333 -0.0099  1.0582
 2234TIP3    H128337   0.924   6.757   0.548  0.2477  1.3515  0.7951
 2234TIP3    H228338   0.902   6.858   0.659 -0.9185 -0.8560  2.6615
 2235TIP3   OH228339   2.579   5.596   1.310 -0.0988  0.3971  0.3545
 2235TIP3    H128340   2.521   5.662   1.271 -0.1295 -0.5846 -1.3576
 2235TIP3    H228341   2.667   5.629   1.293 -0.0454  1.8825  2.9454
 2236TIP3   OH228342   3.634   5.359   0.347  0.3317 -0.1380 -0.1228
 2236TIP3    H128343   3.557   5.398   0.306  1.0009  0.0033 -1.3191
 2236TIP3    H228344   3.671   5.303   0.278  1.3801 -0.0712  0.3700
 2237TIP3   OH228345   6.612   4.904   0.418  0.3699  0.4123  0.3204
 2237TIP3    H128346   6.687   4.922   0.475  1.3654 -0.5903 -0.6213
 2237TIP3    H228347   6.535   4.921   0.473  1.2902  0.4144  1.6551
 2238TIP3   OH228348   5.004   6.424   0.181  0.0420  0.0136  0.1349
 2238TIP3    H128349   5.050   6.345   0.153 -0.5837  0.1399 -1.3283
 2238TIP3    H228350   5.021   6.430   0.275  1.9294 -0.6542 -0.1203
 2239TIP3   OH228351   0.096   6.803   2.334 -0.1600 -0.3962  0.3224
 2239TIP3    H128352   0.145   6.882   2.356  0.2953 -0.9754  1.5485
 2239TIP3    H228353   0.058   6.775   2.418 -3.5701  0.6158 -0.7434
 2240TIP3   OH228354   4.038   0.041   0.579 -0.0603  0.1372 -0.2512
 2240TIP3    H128355   4.008   0.053   0.489  1.4609  0.8345 -0.6947
 2240TIP3    H228356   4.121  -0.007   0.570  1.5409  2.5933  0.5455
 2241TIP3   OH228357   2.514   0.524   7.466  0.2258 -0.6635 -0.0175
 2241TIP3    H128358   2.609   0.526   7.482  0.2905  1.0604 -0.3363
 2241TIP3    H228359   2.506   0.484   7.379  0.7840  0.2605 -0.5179
 2242TIP3   OH228360   6.787   0.239   3.014 -0.4561  0.0477 -0.6378
 2242TIP3    H128361   6.874   0.200   3.012 -1.3143 -2.4658  2.2917
 2242TIP3    H228362   6.759   0.240   2.923  1.9755 -0.6264 -1.4745
 2243TIP3   OH228363   3.776   2.029   1.018  0.4583  0.7515  0.0372
 2243TIP3    H128364   3.698   1.975   1.007  2.4271 -2.3448  0.0229
 2243TIP3    H228365   3.782   2.079   0.936  0.1292 -1.3220 -1.3259
 2244TIP3   OH228366   0.396   3.620   2.460 -0.4147  0.1149 -0.4165
 2244TIP3    H128367   0.427   3.643   2.548 -1.7381 -0.3591  0.2087
 2244TIP3    H228368   0.471   3.635   2.403  1.3006 -1.9772  1.1462
 2245TIP3   OH228369   0.519   0.428   6.913 -0.4954  0.1807 -0.3371
 2245TIP3    H128370   0.555   0.376   6.841 -1.0638 -1.5260  0.5544
 2245TIP3    H228371   0.429   0.398   6.921  0.2020 -1.4765  2.6092
 2246TIP3   OH228372   0.359   4.593   1.622 -0.5306 -0.5104 -0.9112
 2246TIP3    H128373   0.334   4.558   1.536  0.0346  2.1357 -2.2591
 2246TIP3    H228374   0.454   4.602   1.617 -0.6432  1.0029 -0.5756
 2247TIP3   OH228375   0.382   5.418   7.313 -0.9643  0.8727 -0.5308
 2247TIP3    H128376   0.293   5.385   7.325 -0.0527 -1.4909  0.2049
 2247TIP3    H228377   0.414   5.435   7.402 -0.0429 -0.2018 -0.6301
 2248TIP3   OH228378   4.306   1.390   7.234  0.1292 -0.1846  0.1921
 2248TIP3    H128379   4.330   1.298   7.240 -0.6363 -0.4493 -0.7076
 2248TIP3    H228380   4.291   1.406   7.141  0.6901  0.9662  0.2716
 2249TIP3   OH228381   1.359   1.431   1.393  0.3840 -0.2315 -0.3198
 2249TIP3    H128382   1.335   1.516   1.357 -0.8297 -0.7146 -0.6825
 2249TIP3    H228383   1.356   1.443   1.488  0.1853  0.1305 -0.3720
 2250TIP3   OH228384   1.676   1.788   0.638  0.9386 -0.5324  0.5032
 2250TIP3    H128385   1.651   1.696   0.629 -0.5853 -0.1733  0.7156
 2250TIP3    H228386   1.627   1.819   0.714 -1.4718  1.3158 -1.5941
 2251TIP3   OH228387   0.354   5.196   2.023  0.1058 -0.6242 -0.0426
 2251TIP3    H128388   0.273   5.188   2.072  0.0259  2.2437  0.4881
 2251TIP3    H228389   0.327   5.228   1.937  0.6364  0.9732  0.3415
 2252TIP3   OH228390   2.401   5.707   1.087  0.7117 -0.0493 -0.3340
 2252TIP3    H128391   2.437   5.766   1.021 -1.5530 -0.6963 -2.2668
 2252TIP3    H228392   2.352   5.642   1.037  1.4406 -2.4307  1.8455
 2253TIP3   OH228393   6.296   6.786   1.831  0.1611 -0.0052 -0.2168
 2253TIP3    H128394   6.390   6.792   1.851  0.3963  0.9084 -1.5020
 2253TIP3    H228395   6.285   6.697   1.797  0.3677 -0.4286  0.7775
 2254TIP3   OH228396   5.770   4.596   7.824 -0.1866  0.1905  0.1023
 2254TIP3    H128397   5.709   4.610   7.752  0.0927  0.4948 -0.0799
 2254TIP3    H228398   5.741   4.656   7.892 -0.3382  0.0391  0.1693
 2255TIP3   OH228399   4.460   2.836   1.151 -0.0562  0.2217  0.6346
 2255TIP3    H128400   4.441   2.758   1.203  1.6452 -0.9454 -0.3905
 2255TIP3    H228401   4.554   2.852   1.165  0.1181  0.7361 -0.9214
 2256TIP3   OH228402   6.339   1.024   7.950  0.2790 -0.2429 -0.2028
 2256TIP3    H128403   6.396   0.951   7.975 -0.1234 -0.2370  0.7552
 2256TIP3    H228404   6.312   1.064   8.033  0.0511  0.6605 -0.6958
 2257TIP3   OH228405   6.417   4.578   1.377  0.0934  0.2494  0.1244
 2257TIP3    H128406   6.461   4.609   1.456  0.0128 -0.1089  0.3113
 2257TIP3    H228407   6.488   4.544   1.323  0.2765  1.3971 -0.3948
 2258TIP3   OH228408   0.566   0.914   6.930 -0.2499 -0.1484  0.2349
 2258TIP3    H128409   0.572   0.830   6.886 -0.1792 -1.2855  2.3070
 2258TIP3    H228410   0.543   0.976   6.860  1.6210 -1.4943 -1.7090
 2259TIP3   OH228411   1.345   1.605   2.184 -0.0915 -0.1751  0.1657
 2259TIP3    H128412   1.279   1.614   2.114  0.0513 -1.1322 -0.1047
 2259TIP3    H228413   1.379   1.694   2.195 -1.4713  0.3599  0.3605
 2260TIP3   OH228414   5.113   4.795   0.700  0.5926 -0.2067  0.4532
 2260TIP3    H128415   5.083   4.858   0.766 -1.3640  0.5066 -1.0180
 2260TIP3    H228416   5.081   4.711   0.731  0.2424  0.0270  0.7395
 2261TIP3   OH228417   0.295   1.154   2.664 -0.3345  0.0137 -0.6163
 2261TIP3    H128418   0.245   1.073   2.662 -0.7335  0.2615 -2.6358
 2261TIP3    H228419   0.374   1.136   2.613  1.0925  0.0258  1.4473
 2262TIP3   OH228420   4.566   4.977   7.729  0.0593 -0.1500 -0.4750
 2262TIP3    H128421   4.610   4.892   7.726 -0.5066 -0.4568 -0.0877
 2262TIP3    H228422   4.491   4.964   7.786 -0.0234  0.6195 -0.3983
 2263TIP3   OH228423   0.140   1.277   1.406  0.0092  0.3128  0.0435
 2263TIP3    H128424   0.202   1.246   1.472 -1.0163  0.8522  1.3201
 2263TIP3    H228425   0.054   1.255   1.442 -0.5939  0.9859 -0.9303
 2264TIP3   OH228426   1.516   2.249   0.548  0.0428  0.1835 -0.3318
 2264TIP3    H128427   1.444   2.235   0.609 -0.5592 -1.4741 -1.3477
 2264TIP3    H228428   1.486   2.320   0.491  0.4227  1.4219  0.9492
 2265TIP3   OH228429   0.900   3.645   2.190 -0.2172  0.4027  0.2016
 2265TIP3    H128430   0.995   3.654   2.176 -0.0743 -0.1563  0.7717
 2265TIP3    H228431   0.878   3.562   2.147 -0.3312  0.2098  0.6332
 2266TIP3   OH228432   1.814   6.476   1.422 -0.4692  0.1674  0.0561
 2266TIP3    H128433   1.810   6.396   1.370 -0.7617  1.0212 -1.2919
 2266TIP3    H228434   1.862   6.451   1.502  2.0420 -0.6988 -1.5949
 2267TIP3   OH228435   5.667   0.439   0.511 -0.1563 -0.1817  0.4948
 2267TIP3    H128436   5.753   0.475   0.532  1.6770 -2.7617 -1.8148
 2267TIP3    H228437   5.631   0.410   0.596  1.8856 -0.3126  1.3613
 2268TIP3   OH228438   1.006   3.439   6.712 -0.1789  0.9374  0.3637
 2268TIP3    H128439   0.922   3.396   6.693 -0.5972  0.6561  2.5454
 2268TIP3    H228440   0.981   3.520   6.758  0.7381  0.4002  1.8610
 2269TIP3   OH228441   0.873   0.751   0.680 -0.2825  1.0424  0.6659
 2269TIP3    H128442   0.920   0.824   0.722 -0.7922  3.2452 -2.2388
 2269TIP3    H228443   0.800   0.733   0.738  0.5468  1.9985  2.0786
 2270TIP3   OH228444   4.428   4.579   2.783 -0.5043 -0.0356  0.6134
 2270TIP3    H128445   4.509   4.536   2.810 -1.1873 -1.5600  0.3310
 2270TIP3    H228446   4.359   4.515   2.802 -1.4948  0.6828 -0.4278
 2271TIP3   OH228447   4.661   2.075   0.058  0.0825  0.4274 -0.0373
 2271TIP3    H128448   4.695   2.005   0.114  0.9561  2.0202  1.5399
 2271TIP3    H228449   4.666   2.040  -0.031  1.3751 -1.1612  0.6186
 2272TIP3   OH228450   3.271   4.859   7.940 -0.0935  0.5746  0.1210
 2272TIP3    H128451   3.176   4.848   7.932  0.0393  0.0183 -0.7432
 2272TIP3    H228452   3.305   4.770   7.945  0.5264  0.6995 -1.3698
 2273TIP3   OH228453   0.925   6.262   8.303 -0.4261 -0.0843  0.0724
 2273TIP3    H128454   0.931   6.355   8.322  0.1098 -0.3792  1.5197
 2273TIP3    H228455   0.985   6.248   8.230 -0.5228  0.6967 -0.1611
 2274TIP3   OH228456   5.143   5.351   2.079 -0.5058 -0.2554 -0.3801
 2274TIP3    H128457   5.185   5.330   2.163 -0.0027 -0.4512 -0.6779
 2274TIP3    H228458   5.168   5.280   2.021  2.5541  1.8262 -1.8738
 2275TIP3   OH228459   4.816   3.831   0.953 -0.2087  0.1514  0.6742
 2275TIP3    H128460   4.844   3.744   0.925  1.0116  1.3955 -2.5166
 2275TIP3    H228461   4.882   3.859   1.016 -1.1416 -1.4956  2.4984
 2276TIP3   OH228462   2.779   0.015   8.133  0.1105 -0.2457 -0.2672
 2276TIP3    H128463   2.759  -0.079   8.136  1.0346 -0.4183  1.0939
 2276TIP3    H228464   2.694   0.058   8.142 -0.3101 -0.9362 -0.8087
 2277TIP3   OH228465   2.102   1.656   1.197  0.7827  0.2839  0.0050
 2277TIP3    H128466   2.161   1.612   1.258 -1.0908 -1.6700  0.5213
 2277TIP3    H228467   2.017   1.617   1.214 -0.3730  1.8576 -1.8158
 2278TIP3   OH228468   3.204   3.308   6.836 -0.1278  0.0085  0.2958
 2278TIP3    H128469   3.274   3.283   6.896  0.0227  0.1401  0.1744
 2278TIP3    H228470   3.202   3.403   6.838 -0.1330  0.0139  0.1049
 2279TIP3   OH228471   4.098   6.268   0.636 -0.2455  0.0955  0.0462
 2279TIP3    H128472   4.100   6.343   0.577  0.6807  1.5597  1.8209
 2279TIP3    H228473   4.021   6.283   0.691 -0.2893 -0.4833  0.1490
 2280TIP3   OH228474   2.522   0.689   7.111 -0.1542 -0.4897 -0.4262
 2280TIP3    H128475   2.514   0.670   7.018  1.6062  0.4768 -0.8224
 2280TIP3    H228476   2.534   0.603   7.152 -1.4567 -0.9656 -0.9897
 2281TIP3   OH228477   4.114   1.258   7.990 -0.0092  0.0591  1.0699
 2281TIP3    H128478   4.140   1.308   7.912  0.2708  0.2351  1.2760
 2281TIP3    H228479   4.098   1.170   7.957  0.5562  0.0209  0.8910
 2282TIP3   OH228480   5.597   5.922   0.235  0.2376  0.2840  0.7556
 2282TIP3    H128481   5.517   5.890   0.276  0.8549  0.4312  2.1118
 2282TIP3    H228482   5.667   5.888   0.289  1.0263  1.6278  0.6180
 2283TIP3   OH228483   3.445   6.487   7.169  0.1967  0.3547  0.4822
 2283TIP3    H128484   3.473   6.578   7.176  0.6551  0.4273 -1.4669
 2283TIP3    H228485   3.523   6.436   7.191 -0.1286  0.4020  1.8146
 2284TIP3   OH228486   1.363   5.138   3.085  0.5082 -0.6000  0.5253
 2284TIP3    H128487   1.312   5.086   3.146 -0.0248 -1.1285 -0.3469
 2284TIP3    H228488   1.298   5.186   3.034  0.8683 -1.1311 -0.4655
 2285TIP3   OH228489   3.880   1.019   1.868  0.5269  0.0026  0.1464
 2285TIP3    H128490   3.904   0.992   1.957  0.0836  0.5318  0.4279
 2285TIP3    H228491   3.789   1.047   1.875  0.6490  0.5330 -0.3700
 2286TIP3   OH228492   4.902   1.964   1.048  0.3110 -0.2245 -0.1097
 2286TIP3    H128493   4.967   2.034   1.052  0.4221 -0.2216 -1.5312
 2286TIP3    H228494   4.825   2.000   1.091  0.8107  0.2576  0.3974
 2287TIP3   OH228495   4.322   1.621   1.555 -0.6594 -0.0441 -0.1402
 2287TIP3    H128496   4.325   1.648   1.463 -0.1954 -0.2261 -0.1807
 2287TIP3    H228497   4.333   1.702   1.604 -1.2206  0.0963 -0.2395
 2288TIP3   OH228498   4.781   6.576   7.253 -0.0578  0.0380  0.1592
 2288TIP3    H128499   4.835   6.510   7.296  1.2035  0.8914 -0.0570
 2288TIP3    H228500   4.813   6.578   7.162 -1.3589 -0.3631 -0.3252
 2289TIP3   OH228501   4.003   2.343   7.503  0.0244  0.4112  0.1821
 2289TIP3    H128502   3.918   2.379   7.476 -0.2372  2.2309  2.9879
 2289TIP3    H228503   4.009   2.364   7.597  3.3109 -0.2047  0.2261
 2290TIP3   OH228504   0.762   2.011   1.457  0.1137 -0.3455  0.0183
 2290TIP3    H128505   0.687   1.989   1.511  0.3102 -1.9637 -0.3344
 2290TIP3    H228506   0.794   1.928   1.423  1.1268  0.4476 -1.0978
 2291TIP3   OH228507   6.329   5.445   1.410 -0.0640 -0.3167  0.2004
 2291TIP3    H128508   6.267   5.400   1.353 -0.2513 -0.6515  0.6671
 2291TIP3    H228509   6.407   5.391   1.409 -0.0157 -0.2467  0.1482
 2292TIP3   OH228510   6.901   1.187   0.110 -0.1373  0.0901  0.1933
 2292TIP3    H128511   6.870   1.255   0.051  0.8128  2.0220  1.7971
 2292TIP3    H228512   6.822   1.141   0.137 -1.0810  1.8078  0.5035
 2293TIP3   OH228513   1.928   1.514   7.451  0.3530 -0.7283 -0.3840
 2293TIP3    H128514   1.945   1.590   7.395 -1.3628  0.0173  0.0068
 2293TIP3    H228515   1.901   1.445   7.391  1.4948 -0.8943 -0.7119
 2294TIP3   OH228516   4.305   6.723   6.497  0.2305 -0.0315  0.4419
 2294TIP3    H128517   4.241   6.771   6.551 -0.8414 -0.5553 -0.3449
 2294TIP3    H228518   4.364   6.792   6.465  1.2390  0.2534  2.6577
 2295TIP3   OH228519   4.420   2.997   7.648 -1.0452  0.0492  0.0036
 2295TIP3    H128520   4.515   3.005   7.647 -1.1678  2.9941  1.4079
 2295TIP3    H228521   4.402   2.934   7.718 -0.1487  0.3406  0.5118
 2296TIP3   OH228522   4.420   5.698   1.012 -0.4311  0.4911  0.4771
 2296TIP3    H128523   4.350   5.659   1.064  0.0198 -0.9815  0.0353
 2296TIP3    H228524   4.488   5.719   1.076 -0.1032 -0.8108  0.5994
 2297TIP3   OH228525   1.340   2.903   2.376  0.4091 -0.1734 -0.3069
 2297TIP3    H128526   1.365   2.990   2.407  0.8490 -0.0489 -0.9825
 2297TIP3    H228527   1.395   2.843   2.426 -0.7057 -0.1441  0.9817
 2298TIP3   OH228528   0.092   2.515   1.045  0.0995 -0.1055 -0.5262
 2298TIP3    H128529   0.061   2.430   1.015 -1.5366 -0.4674  1.9233
 2298TIP3    H228530   0.015   2.571   1.045  0.8327  0.9384 -0.5976
 2299TIP3   OH228531   2.855   5.158   1.937 -0.0122  0.0547 -0.7226
 2299TIP3    H128532   2.773   5.113   1.918 -1.4660  1.6722  1.3523
 2299TIP3    H228533   2.875   5.207   1.857 -1.0634 -0.3438 -1.2394
 2300TIP3   OH228534   5.847   2.299   8.206  0.5274 -0.6807  0.2207
 2300TIP3    H128535   5.897   2.380   8.217 -0.7969  0.0647  1.0264
 2300TIP3    H228536   5.914   2.230   8.203  1.7092  0.4645 -0.9466
 2301TIP3   OH228537   0.534   4.528   7.672  0.0144 -0.3699  0.7055
 2301TIP3    H128538   0.503   4.553   7.585  1.3776  1.2790  0.6499
 2301TIP3    H228539   0.470   4.464   7.702 -1.1183 -0.1361 -1.0403
 2302TIP3   OH228540   5.398   2.353   1.161  0.1079  0.5561  0.4021
 2302TIP3    H128541   5.360   2.274   1.200  0.0634 -0.0621 -0.8557
 2302TIP3    H228542   5.493   2.341   1.171  0.3119 -1.2577 -2.6262
 2303TIP3   OH228543   2.835   2.442   2.365 -0.2091 -0.3148 -0.2431
 2303TIP3    H128544   2.745   2.412   2.357 -0.1108 -0.2294 -1.9458
 2303TIP3    H228545   2.844   2.466   2.457 -1.2591 -2.4063  0.4690
 2304TIP3   OH228546   1.959   5.448   2.434  0.1056  0.6255  0.3542
 2304TIP3    H128547   1.871   5.418   2.410  0.0079  1.3657 -0.2449
 2304TIP3    H228548   2.008   5.446   2.352 -0.4781  4.0582 -0.2301
 2305TIP3   OH228549   5.153   4.435   2.281 -0.3878  0.2468  0.3888
 2305TIP3    H128550   5.184   4.503   2.341 -1.4741  0.6288  0.5371
 2305TIP3    H228551   5.060   4.425   2.302 -0.4290 -0.6958 -0.2012
 2306TIP3   OH228552   3.069   4.816   8.319 -0.0656 -0.2122 -0.0658
 2306TIP3    H128553   2.988   4.839   8.273  0.1823  1.5334  0.3003
 2306TIP3    H228554   3.040   4.783   8.404 -0.4179 -0.2930 -0.2177
 2307TIP3   OH228555   6.148   4.920   0.554  0.3567 -0.2108 -0.3299
 2307TIP3    H128556   6.225   4.917   0.496  0.4689  0.1670 -0.1990
 2307TIP3    H228557   6.184   4.933   0.641  0.1144  0.5001 -0.3327
 2308TIP3   OH228558   4.383   0.986   8.158 -0.6569  0.1224 -0.6611
 2308TIP3    H128559   4.365   0.896   8.186 -0.3834  0.4058  0.4906
 2308TIP3    H228560   4.414   1.030   8.237  1.4600  0.6305 -1.6989
 2309TIP3   OH228561   0.219   4.994   7.618 -0.0333  0.0429  0.0320
 2309TIP3    H128562   0.165   4.937   7.563  3.2254 -1.7162 -1.6378
 2309TIP3    H228563   0.254   4.936   7.686  0.6027  0.8450  0.4061
 2310TIP3   OH228564   5.450   2.600   0.850 -0.4692  0.5824 -0.0065
 2310TIP3    H128565   5.489   2.649   0.778 -0.5730 -0.6515 -0.9114
 2310TIP3    H228566   5.515   2.606   0.921  0.6902 -0.1804 -0.9828
 2311TIP3   OH228567   5.562   0.087   6.835 -0.1622 -0.5315  0.5391
 2311TIP3    H128568   5.571   0.108   6.928  0.8457 -1.5182  0.6877
 2311TIP3    H228569   5.498   0.151   6.802  0.3525  0.5899  1.6376
 2312TIP3   OH228570   5.958   3.273   0.092 -0.2036  0.4788  0.6382
 2312TIP3    H128571   5.993   3.281   0.180 -0.8717  0.6290  0.9012
 2312TIP3    H228572   5.863   3.287   0.103 -0.1308  1.8892 -0.2931
 2313TIP3   OH228573   3.645   4.006   2.528 -0.5082 -0.5920 -0.6958
 2313TIP3    H128574   3.671   4.090   2.565 -0.6344  0.2089 -2.3257
 2313TIP3    H228575   3.705   3.942   2.568 -0.5687  0.2157  0.7339
 2314TIP3   OH228576   3.029   2.968   8.028 -0.1329 -0.0293  0.3101
 2314TIP3    H128577   3.092   3.019   7.977  0.3039  0.5214  1.3651
 2314TIP3    H228578   3.041   2.878   7.998 -0.9746  0.4591 -1.6427
 2315TIP3   OH228579   1.121   5.904   8.231 -0.4550 -0.1243 -0.6925
 2315TIP3    H128580   1.056   5.842   8.197 -1.3221 -1.1154  2.4366
 2315TIP3    H228581   1.095   5.988   8.194 -1.4504 -1.0476 -2.1996
 2316TIP3   OH228582   6.347   2.797   1.588 -0.4880 -0.2907  0.4899
 2316TIP3    H128583   6.289   2.836   1.654 -0.4903 -2.0347  1.5762
 2316TIP3    H228584   6.384   2.720   1.631 -1.1380 -1.9923 -1.8183
 2317TIP3   OH228585   6.038   6.140   1.620  0.1014 -0.0397 -0.4858
 2317TIP3    H128586   6.096   6.072   1.587  0.8485  1.8117 -3.3715
 2317TIP3    H228587   5.988   6.169   1.543 -0.4293  2.3742  0.6583
 2318TIP3   OH228588   5.448   0.294   7.490  0.5470  0.3406 -0.5064
 2318TIP3    H128589   5.404   0.378   7.486  2.2307  1.2584 -0.6482
 2318TIP3    H228590   5.528   0.310   7.540  0.9734 -1.1354 -0.6477
 2319TIP3   OH228591   3.750   0.895   0.000 -0.7457 -0.5256  0.5496
 2319TIP3    H128592   3.844   0.904  -0.016 -0.7165  0.2466  1.0728
 2319TIP3    H228593   3.738   0.930   0.088 -1.5121 -0.7207  0.5256
 2320TIP3   OH228594   0.314   1.811   8.220 -0.2262 -0.5601  0.3499
 2320TIP3    H128595   0.384   1.769   8.270  0.3168 -0.9983 -0.7561
 2320TIP3    H228596   0.272   1.870   8.283  1.1112 -0.3112  1.0353
 2321TIP3   OH228597   5.339   4.345   1.242  0.5441  0.3247  0.3336
 2321TIP3    H128598   5.307   4.255   1.247  0.3966  0.2409 -1.4117
 2321TIP3    H228599   5.268   4.394   1.202  0.2320  1.4698  2.1677
 2322TIP3   OH228600   5.408   6.719   0.809 -0.1115  0.4600  0.3787
 2322TIP3    H128601   5.372   6.672   0.734  0.4311 -0.4007  0.6471
 2322TIP3    H228602   5.352   6.693   0.882 -0.1849  0.7137  0.4120
 2323TIP3   OH228603   4.076   6.649   2.764  0.3657  0.2453 -0.0996
 2323TIP3    H128604   4.145   6.583   2.775  1.0132  0.5150 -2.0460
 2323TIP3    H228605   4.121   6.733   2.771 -0.0436  0.4466  0.1468
 2324TIP3   OH228606   6.920   2.680   7.467  0.0331 -0.1006  0.1284
 2324TIP3    H128607   6.891   2.678   7.376  0.6130 -0.2038 -0.0518
 2324TIP3    H228608   6.838   2.684   7.517 -0.2829  0.2552 -0.4001
 2325TIP3   OH228609   4.301   3.841   0.817  0.4611 -0.1656 -0.6439
 2325TIP3    H128610   4.375   3.818   0.873  1.4683  0.9391 -1.4713
 2325TIP3    H228611   4.257   3.758   0.801  0.2138 -0.5357  1.6483
 2326TIP3   OH228612   5.187   4.665   2.913 -0.0300  0.0792 -0.2531
 2326TIP3    H128613   5.215   4.673   2.822  0.2664 -0.7227 -0.2428
 2326TIP3    H228614   5.259   4.620   2.956 -0.6213 -0.5092  0.1423
 2327TIP3   OH228615   4.007   0.119   1.827  0.0356  0.3290 -0.5398
 2327TIP3    H128616   3.996   0.025   1.833 -0.9594  0.4437 -0.4737
 2327TIP3    H228617   3.943   0.155   1.888  0.2544  1.0545 -0.7252
 2328TIP3   OH228618   5.145   3.889   2.296 -0.2541 -0.3132  0.9232
 2328TIP3    H128619   5.133   3.977   2.258 -0.7205 -1.4064 -1.7021
 2328TIP3    H228620   5.236   3.867   2.276 -0.2054 -0.5157  1.3727
 2329TIP3   OH228621   2.588   0.052   1.148 -0.2159  0.2144 -0.0695
 2329TIP3    H128622   2.652  -0.011   1.114 -0.5448  0.3824 -1.0269
 2329TIP3    H228623   2.503   0.015   1.126 -0.5622 -0.7559  2.5254
 2330TIP3   OH228624   2.435   5.815   1.470  0.2830 -0.4460 -0.3172
 2330TIP3    H128625   2.481   5.842   1.391  2.0428 -1.8675  0.1678
 2330TIP3    H228626   2.372   5.749   1.440 -1.4961  1.4212 -0.9604
 2331TIP3   OH228627   3.857   4.543   2.312 -0.1935  0.1159  0.7808
 2331TIP3    H128628   3.783   4.499   2.270  0.3084 -0.8372  0.8749
 2331TIP3    H228629   3.824   4.630   2.333 -1.0269 -0.0108  0.0678
 2332TIP3   OH228630   5.989   2.720   7.272 -0.0982 -0.0293  0.1124
 2332TIP3    H128631   5.913   2.714   7.214  0.9628  0.7013 -1.4068
 2332TIP3    H228632   6.064   2.701   7.216  0.8815 -0.5189  1.5325
 2333TIP3   OH228633   2.299   0.885   2.033  0.5647 -0.2722  0.2702
 2333TIP3    H128634   2.393   0.893   2.019  0.6453  1.2906  1.4540
 2333TIP3    H228635   2.288   0.880   2.128 -0.5957  0.9943  0.2422
 2334TIP3   OH228636   5.977   1.864   2.867 -0.1929 -0.2975  0.2667
 2334TIP3    H128637   6.034   1.910   2.929  1.9654 -0.4770 -1.4791
 2334TIP3    H228638   5.982   1.772   2.894  0.3636 -0.3126  0.1232
 2335TIP3   OH228639   0.236   0.063   0.207 -0.0723 -0.1914  0.0224
 2335TIP3    H128640   0.154   0.098   0.173  0.5751  2.1599  0.7090
 2335TIP3    H228641   0.257  -0.010   0.148 -2.4779 -0.6798 -0.3163
 2336TIP3   OH228642   4.732   1.759   1.443 -0.2371  0.5491 -0.1273
 2336TIP3    H128643   4.740   1.721   1.356 -2.1331 -0.2809  0.0010
 2336TIP3    H228644   4.804   1.722   1.493  1.5784  1.9308 -1.5950
 2337TIP3   OH228645   2.708   6.705   1.243  0.0711  0.1024  0.1719
 2337TIP3    H128646   2.746   6.698   1.156  1.7931  0.1529  0.8848
 2337TIP3    H228647   2.783   6.700   1.303 -0.9323  1.2794  1.6029
 2338TIP3   OH228648   0.846   2.587   0.183  0.2697 -0.2006 -0.4564
 2338TIP3    H128649   0.889   2.514   0.139  0.1296 -0.3612 -0.3287
 2338TIP3    H228650   0.913   2.655   0.187  0.4517 -0.3798 -0.4309
 2339TIP3   OH228651   3.646   6.072   7.391  0.0844 -0.5429 -0.6159
 2339TIP3    H128652   3.571   6.018   7.417 -2.2815  3.0026  0.7559
 2339TIP3    H228653   3.694   6.087   7.473  0.7021 -0.5510 -0.9712
 2340TIP3   OH228654   2.688   3.714   2.595  0.5511  0.2583  0.0396
 2340TIP3    H128655   2.671   3.786   2.656  0.4536  1.3290 -1.2268
 2340TIP3    H228656   2.709   3.756   2.512  0.2724 -1.1781 -0.7982
 2341TIP3   OH228657   0.517   6.403   0.801 -0.3602 -0.6424 -0.3653
 2341TIP3    H128658   0.566   6.333   0.757 -0.6466 -1.6705  0.8775
 2341TIP3    H228659   0.570   6.481   0.788  0.9278 -1.4536 -0.2436
 2342TIP3   OH228660   2.433   3.801   1.581 -0.4406  0.2905 -0.1487
 2342TIP3    H128661   2.430   3.786   1.675 -0.7999 -1.3277 -0.3914
 2342TIP3    H228662   2.342   3.793   1.553 -0.1856 -0.5004 -0.7908
 2343TIP3   OH228663   2.163   6.312   0.801  0.2472 -0.0182 -0.2668
 2343TIP3    H128664   2.129   6.399   0.781 -0.7912 -0.5056 -0.6838
 2343TIP3    H228665   2.230   6.327   0.867  0.8629  1.2119 -1.1282
 2344TIP3   OH228666   2.114   6.132   8.093 -0.0500 -0.1120  0.0980
 2344TIP3    H128667   2.137   6.194   8.024 -0.3231 -0.3064 -0.1689
 2344TIP3    H228668   2.132   6.179   8.175  2.4279 -0.6322 -0.0605
 2345TIP3   OH228669   1.733   0.745   0.596 -0.2808  0.1683  0.3947
 2345TIP3    H128670   1.744   0.835   0.565  0.2291  0.0727  0.2862
 2345TIP3    H228671   1.765   0.691   0.525 -2.1662 -0.1771 -0.2559
 2346TIP3   OH228672   4.265   5.144   7.956  0.4845 -1.1652 -0.5414
 2346TIP3    H128673   4.348   5.185   7.932  1.8681 -3.1008  0.6161
 2346TIP3    H228674   4.284   5.050   7.958 -1.2909 -1.5653  1.4047
 2347TIP3   OH228675   5.639   4.048   7.681 -0.4083  0.3414 -0.1781
 2347TIP3    H128676   5.632   3.955   7.704  0.4526  0.3952  0.3491
 2347TIP3    H228677   5.691   4.049   7.601  0.5051  0.4298  0.4113
 2348TIP3   OH228678   4.901   5.746   1.432  0.0245  0.4344 -0.2256
 2348TIP3    H128679   4.954   5.724   1.509  0.6560  0.2918 -0.6919
 2348TIP3    H228680   4.940   5.695   1.361 -2.4468 -1.9670 -0.0664
 2349TIP3   OH228681   1.981   6.091   2.359 -0.2469  0.1241  0.1880
 2349TIP3    H128682   2.064   6.132   2.333 -0.6918  1.0698  0.2139
 2349TIP3    H228683   1.954   6.140   2.436 -0.5842 -0.5148  0.4797
 2350TIP3   OH228684   0.611   2.670   0.586  0.4296  0.3199 -0.4845
 2350TIP3    H128685   0.638   2.589   0.543  0.8018  0.4917 -0.5804
 2350TIP3    H228686   0.665   2.737   0.546  0.0986  0.6236 -0.4292
 2351TIP3   OH228687   0.295   5.682   2.071  0.4275  0.0741  0.2702
 2351TIP3    H128688   0.293   5.735   1.991  0.9508 -0.4663 -0.1004
 2351TIP3    H228689   0.385   5.651   2.077  0.0299 -1.1389  0.2479
 2352TIP3   OH228690   2.427   1.893   7.975 -0.3344 -0.0771  0.2409
 2352TIP3    H128691   2.336   1.878   7.950  0.4506 -1.1206 -2.2633
 2352TIP3    H228692   2.421   1.953   8.050 -3.0645 -0.5456  0.5097
 2353TIP3   OH228693   5.558   6.454   1.348 -0.5393  0.2698 -0.0159
 2353TIP3    H128694   5.620   6.462   1.275  0.7928 -1.6367  0.8298
 2353TIP3    H228695   5.516   6.369   1.335 -1.6261  0.7079  0.4766
 2354TIP3   OH228696   0.798   3.811   2.641  0.4796 -0.7464  0.0472
 2354TIP3    H128697   0.882   3.784   2.679  1.2799 -0.3660 -1.3727
 2354TIP3    H228698   0.817   3.893   2.596 -0.8984 -0.1415  0.5193
 2355TIP3   OH228699   2.971   5.509   1.182 -0.2845  0.2955  0.1807
 2355TIP3    H128700   2.939   5.421   1.163  1.6047 -0.2804 -0.4952
 2355TIP3    H228701   3.020   5.499   1.263  1.2478  0.3789 -0.7121
 2356TIP3   OH228702   6.847   4.329   7.875 -0.3274  0.4498 -0.0638
 2356TIP3    H128703   6.821   4.242   7.846  0.7765  0.0318  0.1305
 2356TIP3    H228704   6.765   4.375   7.890 -0.9221 -0.1734 -1.2860
 2357TIP3   OH228705   4.043   1.650   0.226 -0.6104 -0.5390 -0.7298
 2357TIP3    H128706   4.083   1.665   0.312  1.0546 -0.5309 -1.4573
 2357TIP3    H228707   4.054   1.556   0.211  2.6715 -0.0256 -2.4986
 2358TIP3   OH228708   5.976   0.239   8.067 -0.1328 -0.1675 -0.8097
 2358TIP3    H128709   6.019   0.283   7.993 -0.6227 -0.1551 -1.0894
 2358TIP3    H228710   5.962   0.308   8.131 -0.5554  0.0142 -1.0917
 2359TIP3   OH228711   6.857   4.742   0.459  0.0640 -0.4961  0.4087
 2359TIP3    H128712   6.949   4.766   0.467  0.1539 -1.2154  1.8515
 2359TIP3    H228713   6.856   4.647   0.467 -0.8894 -0.4180  1.3877
 2360TIP3   OH228714   4.631   5.448   1.000  0.2463 -0.1395 -0.2603
 2360TIP3    H128715   4.547   5.428   0.958  1.0036  0.0549 -1.9459
 2360TIP3    H228716   4.608   5.506   1.072 -1.1494 -0.7764 -0.1483
 2361TIP3   OH228717   3.872   0.531   1.603  0.2605  0.5547 -0.0529
 2361TIP3    H128718   3.903   0.614   1.639 -0.6582  1.0412 -0.3704
 2361TIP3    H228719   3.837   0.484   1.679 -1.4188  1.4658 -0.2127
 2362TIP3   OH228720   3.799   4.175   1.074  0.6921  0.6542 -0.1084
 2362TIP3    H128721   3.839   4.260   1.090 -0.0971  0.7264  1.7299
 2362TIP3    H228722   3.825   4.122   1.149 -0.7695  0.0251 -0.0144
 2363TIP3   OH228723   6.508   6.410   1.526 -0.7122  0.0692  0.3842
 2363TIP3    H128724   6.465   6.406   1.612 -0.7502  2.0701  0.5099
 2363TIP3    H228725   6.543   6.499   1.521  1.3927 -0.7582 -0.7164
 2364TIP3   OH228726   6.906   0.476   2.190  0.2322  0.7805 -0.2565
 2364TIP3    H128727   6.899   0.442   2.101  1.4455 -2.0142  0.6054
 2364TIP3    H228728   6.888   0.400   2.246  1.4509  1.9551  1.8633
 2365TIP3   OH228729   4.650   4.511   0.918  0.4982 -0.1739 -0.0391
 2365TIP3    H128730   4.617   4.463   0.842 -0.0420 -1.1983  0.8240
 2365TIP3    H228731   4.588   4.583   0.929  1.1757  0.6123 -1.1906
 2366TIP3   OH228732   1.825   1.349   0.440 -0.4142 -0.0359  0.0968
 2366TIP3    H128733   1.770   1.417   0.478 -1.0697  0.7146 -2.0559
 2366TIP3    H228734   1.772   1.270   0.445 -0.0277 -0.2364  1.7264
 2367TIP3   OH228735   1.931   3.009   2.324 -0.3808 -0.5803  0.4728
 2367TIP3    H128736   1.940   2.989   2.231  1.2771  1.2035  0.1802
 2367TIP3    H228737   1.842   2.983   2.346 -0.8972 -0.8149 -1.6729
 2368TIP3   OH228738   0.347   2.182   6.756  0.2587 -0.2667 -0.1427
 2368TIP3    H128739   0.291   2.127   6.811 -1.2475  1.2293 -0.1165
 2368TIP3    H228740   0.420   2.125   6.731 -1.1272 -2.1931  0.0449
 2369TIP3   OH228741   6.043   4.874   0.213  0.1449  0.2856 -1.0532
 2369TIP3    H128742   5.952   4.900   0.210 -0.0826 -0.5470 -1.8985
 2369TIP3    H228743   6.044   4.795   0.267  0.6188  1.1623  0.2889
 2370TIP3   OH228744   1.781   6.508   0.540  0.3173 -0.0466  0.0663
 2370TIP3    H128745   1.860   6.455   0.531  0.3439  0.2430 -1.8533
 2370TIP3    H228746   1.727   6.461   0.604  2.1205 -0.0933  1.6642
 2371TIP3   OH228747   4.803   3.171   0.725  0.7399 -0.1850  0.2671
 2371TIP3    H128748   4.801   3.158   0.820 -0.2967  0.1685  0.2995
 2371TIP3    H228749   4.865   3.243   0.712 -0.5757  1.0978  0.8553
 2372TIP3   OH228750   5.205   6.723   8.252  0.0086  0.2323  0.2485
 2372TIP3    H128751   5.118   6.700   8.218 -0.4021  1.6206  0.3139
 2372TIP3    H228752   5.223   6.655   8.317 -0.2004 -1.1373 -1.0646
 2373TIP3   OH228753   2.597   4.723   1.383  0.3453  0.1448  0.0116
 2373TIP3    H128754   2.612   4.813   1.413  0.5320  0.5882 -1.3006
 2373TIP3    H228755   2.557   4.679   1.457  0.5046  1.2393  0.7815
 2374TIP3   OH228756   6.711   6.459   1.918  0.7419 -0.1369 -0.1114
 2374TIP3    H128757   6.760   6.533   1.954  0.5429 -0.3863  0.7023
 2374TIP3    H228758   6.760   6.432   1.841  1.2002  0.4067 -0.0109
 2375TIP3   OH228759   4.525   3.769   0.410 -0.5369 -0.0542 -0.3564
 2375TIP3    H128760   4.496   3.843   0.463 -0.4526 -0.7352  0.6664
 2375TIP3    H228761   4.517   3.799   0.319 -0.9098  1.0464  0.0336
 2376TIP3   OH228762   1.643   5.574   2.338 -0.5217  0.4768 -0.5209
 2376TIP3    H128763   1.547   5.571   2.333 -0.6200  1.1320  0.7203
 2376TIP3    H228764   1.662   5.645   2.399  0.8005  1.5293 -2.0682
 2377TIP3   OH228765   2.214   4.128   6.731 -0.3070  0.1043 -0.1211
 2377TIP3    H128766   2.269   4.138   6.653  0.0950 -1.9110 -0.1448
 2377TIP3    H228767   2.218   4.213   6.774 -0.3282  1.1889 -2.1497
 2378TIP3   OH228768   0.032   0.378   2.623  0.2776  0.7557  0.8268
 2378TIP3    H128769  -0.044   0.356   2.569 -0.1011 -0.0058  1.6334
 2378TIP3    H228770  -0.006   0.412   2.704  0.7621 -0.3225  1.5237
 2379TIP3   OH228771   5.593   4.443   0.284 -0.1901  0.3474 -0.0739
 2379TIP3    H128772   5.628   4.387   0.214 -0.0827  0.2448  0.0619
 2379TIP3    H228773   5.575   4.383   0.356  0.0207  0.5012  0.1090
 2380TIP3   OH228774   6.450   1.586   1.843 -0.3953 -0.5975  0.0898
 2380TIP3    H128775   6.442   1.535   1.762 -0.4420  0.5124 -0.6298
 2380TIP3    H228776   6.483   1.671   1.814  0.0509 -0.3416  1.3088
 2381TIP3   OH228777   1.474   2.891   0.379  0.4182 -0.0314  0.3717
 2381TIP3    H128778   1.560   2.888   0.421  1.6029  1.5642 -1.7506
 2381TIP3    H228779   1.469   2.809   0.330  1.1330  0.2312 -0.1645
 2382TIP3   OH228780   6.594   1.425   8.073 -0.1665  0.4258 -0.0301
 2382TIP3    H128781   6.546   1.379   8.004 -0.8766 -0.2166  0.8691
 2382TIP3    H228782   6.555   1.394   8.154 -0.4851  2.4293  0.6362
 2383TIP3   OH228783   2.413   1.396   0.372 -0.7679 -0.0897 -0.0640
 2383TIP3    H128784   2.455   1.324   0.419 -0.9486  0.2278  0.5914
 2383TIP3    H228785   2.385   1.457   0.440 -0.4626  0.6905 -0.6247
 2384TIP3   OH228786   6.554   3.798   0.032  0.4105 -0.4767  0.1633
 2384TIP3    H128787   6.586   3.879   0.070  0.8025  0.1157 -1.3576
 2384TIP3    H228788   6.471   3.781   0.077  0.9555  0.0621  1.4009
 2385TIP3   OH228789   2.503   1.803   7.490 -0.7949 -0.2327 -0.1865
 2385TIP3    H128790   2.449   1.726   7.511 -0.4318 -1.1142 -2.2482
 2385TIP3    H228791   2.575   1.768   7.439  2.4444  0.7314  3.2352
 2386TIP3   OH228792   0.164   5.293   1.206  0.3995  1.1609 -0.1938
 2386TIP3    H128793   0.216   5.250   1.273  0.2345  0.0277 -0.7793
 2386TIP3    H228794   0.226   5.311   1.135  0.3079  1.1818 -0.2701
 2387TIP3   OH228795   5.489   6.181   1.316  0.7768  0.3507 -0.2010
 2387TIP3    H128796   5.418   6.118   1.327  0.8399  0.3661  0.3238
 2387TIP3    H228797   5.560   6.130   1.276  1.1751 -0.1654  1.1069
 2388TIP3   OH228798   2.680   5.278   7.665  0.0191 -0.0337  0.5537
 2388TIP3    H128799   2.625   5.249   7.592  0.3145  0.2149  0.2208
 2388TIP3    H228800   2.630   5.348   7.706  0.4096  0.7305 -0.2328
 2389TIP3   OH228801   2.987   2.973   1.189  0.1406 -0.7986  0.0783
 2389TIP3    H128802   2.919   2.997   1.126 -1.7261 -3.6864  0.7677
 2389TIP3    H228803   2.973   3.030   1.264 -0.7606 -0.5490 -0.2737
 2390TIP3   OH228804   6.929   4.073   1.426  0.5150  0.0365 -0.1403
 2390TIP3    H128805   6.973   4.136   1.483  0.1923 -1.2835  1.6526
 2390TIP3    H228806   6.999   4.014   1.397  0.1836 -1.6063  2.1016
 2391TIP3   OH228807   1.674   6.843   6.897  0.0159 -0.4026  0.2953
 2391TIP3    H128808   1.659   6.901   6.972  0.4406  0.4329 -0.2572
 2391TIP3    H228809   1.767   6.821   6.902  0.2689  0.4362 -0.5264
 2392TIP3   OH228810   4.183   2.524   6.780 -0.6532 -0.4095 -0.0497
 2392TIP3    H128811   4.263   2.577   6.781 -0.9552  0.0778 -0.7290
 2392TIP3    H228812   4.215   2.434   6.767 -0.1613 -0.3509  0.7016
 2393TIP3   OH228813   4.155   2.597   7.987  0.4596 -0.2456  0.0745
 2393TIP3    H128814   4.208   2.676   7.996 -0.1184  0.1830 -0.2247
 2393TIP3    H228815   4.159   2.556   8.073  0.2342  0.4441  0.4202
 2394TIP3   OH228816   0.380   2.556   1.845 -0.1965 -0.2416  0.2323
 2394TIP3    H128817   0.414   2.499   1.914 -0.9799 -1.7864 -0.6151
 2394TIP3    H228818   0.446   2.552   1.776 -0.2945 -0.1901  0.1350
 2395TIP3   OH228819   3.334   1.530   2.134 -0.0115 -0.6045 -0.1791
 2395TIP3    H128820   3.365   1.586   2.205  2.0734 -1.8892  0.0199
 2395TIP3    H228821   3.335   1.586   2.056 -0.4625  0.2902  0.4400
 2396TIP3   OH228822   6.399   5.961   0.057  0.4321  0.3546  0.1406
 2396TIP3    H128823   6.353   5.992  -0.022  1.9392 -0.3188 -1.0592
 2396TIP3    H228824   6.330   5.920   0.110 -0.2814 -1.4934 -2.0411
 2397TIP3   OH228825   4.265   4.598   6.821  0.0273  0.3675  0.4466
 2397TIP3    H128826   4.214   4.531   6.777  1.0756 -1.2596  1.5893
 2397TIP3    H228827   4.291   4.558   6.904  3.3824  0.9427 -0.1592
 2398TIP3   OH228828   3.901   3.703   7.876 -0.1964  0.0683 -0.3791
 2398TIP3    H128829   3.877   3.649   7.802  0.0779 -0.6141  0.0245
 2398TIP3    H228830   3.874   3.653   7.953  1.6881 -0.3433  0.0653
 2399TIP3   OH228831   5.601   0.200   0.685  0.0299 -0.2426  0.1153
 2399TIP3    H128832   5.647   0.177   0.766 -0.8039  1.1902  1.0561
 2399TIP3    H228833   5.512   0.224   0.714 -0.3760  0.0213 -1.2581
 2400TIP3   OH228834   3.933   1.041   7.847  0.3489  0.4059  0.6654
 2400TIP3    H128835   3.945   0.995   7.930  1.5708  0.4565  0.5221
 2400TIP3    H228836   3.891   1.124   7.871 -1.0484 -0.3608  1.0200
 2401TIP3   OH228837   1.629   0.378   1.237 -0.2367 -0.4409  0.4543
 2401TIP3    H128838   1.683   0.300   1.249  0.0176 -0.0882  1.8278
 2401TIP3    H228839   1.688   0.451   1.255 -0.6038  0.0577 -0.2985
 2402TIP3   OH228840   6.444   4.932   2.692 -0.4544 -0.2786 -0.0851
 2402TIP3    H128841   6.493   4.896   2.766  0.4415 -1.4216 -1.1852
 2402TIP3    H228842   6.373   4.982   2.732  2.4527  2.8669  1.6555
 2403TIP3   OH228843   5.753   1.345   8.192 -0.3032  0.0717 -0.2626
 2403TIP3    H128844   5.833   1.301   8.220 -0.9848 -0.7925  0.4450
 2403TIP3    H228845   5.747   1.328   8.098 -1.5193 -3.1955  0.2389
 2404TIP3   OH228846   2.627   6.391   7.758 -0.1525 -0.3274 -1.0010
 2404TIP3    H128847   2.669   6.422   7.678  0.8893  0.7231 -0.0970
 2404TIP3    H228848   2.699   6.383   7.821 -0.8770 -1.5718 -0.2930
 2405TIP3   OH228849   1.073   3.880   0.543  0.1419 -0.1502 -0.0387
 2405TIP3    H128850   1.046   3.818   0.475 -0.2458  0.5168 -0.5102
 2405TIP3    H228851   1.158   3.911   0.513 -0.0342  0.1524 -0.2333
 2406TIP3   OH228852   2.980   4.755   0.240 -0.1180  1.1243  0.6603
 2406TIP3    H128853   2.901   4.700   0.240 -0.1339  0.9788 -2.3936
 2406TIP3    H228854   2.948   4.842   0.263 -1.2279  1.0817 -0.5965
 2407TIP3   OH228855   6.674   2.431   1.758  0.5108 -0.6741 -0.1460
 2407TIP3    H128856   6.691   2.360   1.697  0.3224 -1.8552  1.1128
 2407TIP3    H228857   6.694   2.511   1.709  3.3464 -1.6719 -0.7850
 2408TIP3   OH228858   3.801   4.964   0.678  0.3360  0.0322 -0.2612
 2408TIP3    H128859   3.739   4.908   0.726  0.5203 -0.7066 -0.8697
 2408TIP3    H228860   3.746   5.015   0.619  0.1246  0.8163  0.5847
 2409TIP3   OH228861   5.430   2.989   7.661  0.6481  0.5413 -0.1157
 2409TIP3    H128862   5.408   3.052   7.731  2.5894  2.4817 -1.1428
 2409TIP3    H228863   5.498   2.934   7.699 -2.1266 -2.2369  1.3527
 2410TIP3   OH228864   1.366   4.240   1.369 -0.2439  0.5308  0.1671
 2410TIP3    H128865   1.404   4.319   1.407 -0.5747  1.0011 -0.4433
 2410TIP3    H228866   1.415   4.227   1.287  1.7558 -1.5476  1.5743
 2411TIP3   OH228867   0.339   0.840   1.449  0.5362  0.3187 -0.2396
 2411TIP3    H128868   0.317   0.783   1.523  2.4618  0.7405  0.7171
 2411TIP3    H228869   0.408   0.793   1.403  0.4089  0.7609 -0.8899
 2412TIP3   OH228870   4.611   6.088   7.784  0.2255  0.7023  0.1791
 2412TIP3    H128871   4.652   6.169   7.815 -0.3661  0.1562  2.6293
 2412TIP3    H228872   4.683   6.025   7.779  0.3504  0.8330  0.3209
 2413TIP3   OH228873   2.441   4.844   1.720 -0.4201 -0.6368 -0.0327
 2413TIP3    H128874   2.413   4.872   1.633  1.5896  2.2931  0.1288
 2413TIP3    H228875   2.382   4.888   1.781  0.9954  1.1223  0.1425
 2414TIP3   OH228876   4.124   6.348   2.692 -0.0293  0.1455 -0.2518
 2414TIP3    H128877   4.148   6.416   2.630  0.5508  0.3570  0.2025
 2414TIP3    H228878   4.049   6.304   2.651  0.7924 -0.2042 -1.4581
 2415TIP3   OH228879   6.879   1.939   7.817 -0.2905  0.6036  0.1866
 2415TIP3    H128880   6.855   2.029   7.793 -0.8574  0.1690 -0.9360
 2415TIP3    H228881   6.887   1.893   7.734  0.3679 -0.3100  0.7331
 2416TIP3   OH228882   0.230   1.746   7.347  0.5725 -0.1787 -0.1891
 2416TIP3    H128883   0.277   1.697   7.280  1.1910  1.7177 -1.2163
 2416TIP3    H228884   0.198   1.824   7.302 -2.2647 -0.6227  0.8641
 2417TIP3   OH228885   6.637   0.514   1.534 -0.4238  0.2061  1.2199
 2417TIP3    H128886   6.664   0.592   1.584  1.7435  0.5475 -0.3502
 2417TIP3    H228887   6.692   0.444   1.568 -1.3817 -0.3516  1.6543
 2418TIP3   OH228888   6.178   1.497   1.673  0.7691  0.7046 -0.3710
 2418TIP3    H128889   6.155   1.525   1.761  0.7808 -0.1570 -0.0776
 2418TIP3    H228890   6.156   1.571   1.617 -2.3837  0.0866 -0.0914
 2419TIP3   OH228891   2.886   4.439   7.275  0.5231 -0.5628  0.0718
 2419TIP3    H128892   2.981   4.431   7.277  0.5359 -0.6625 -0.8029
 2419TIP3    H228893   2.870   4.533   7.264  0.5998 -0.8075 -2.9158
 2420TIP3   OH228894   1.880   2.350   2.761 -0.6040  0.1222  0.0440
 2420TIP3    H128895   1.927   2.281   2.807  0.6847  0.8491 -0.1520
 2420TIP3    H228896   1.948   2.403   2.719 -1.5744  1.3264 -0.0821
 2421TIP3   OH228897   6.320   1.796   1.234  0.6184  0.2534 -0.2867
 2421TIP3    H128898   6.358   1.744   1.163 -0.9029 -1.0029 -0.2504
 2421TIP3    H228899   6.376   1.779   1.310  0.0890 -1.5058 -0.2404
 2422TIP3   OH228900   5.145   1.148   6.992  0.2139 -0.1447 -0.2172
 2422TIP3    H128901   5.134   1.077   7.055 -1.0788 -0.7426 -1.0682
 2422TIP3    H228902   5.113   1.226   7.038 -0.3609 -0.5040  0.0088
 2423TIP3   OH228903   4.058   5.323   6.862  0.0225  0.6092 -0.4294
 2423TIP3    H128904   4.089   5.406   6.899  1.6464  0.3896 -1.2311
 2423TIP3    H228905   4.027   5.346   6.774  1.2267  0.2655 -0.9636
 2424TIP3   OH228906   1.189   1.329   2.124 -0.0926  0.5644  0.3136
 2424TIP3    H128907   1.227   1.415   2.144 -1.8455  1.5333 -0.2450
 2424TIP3    H228908   1.100   1.334   2.158 -0.8515 -0.3177 -1.4171
 2425TIP3   OH228909   1.476   5.573   2.915  0.0037 -0.3495 -0.1505
 2425TIP3    H128910   1.383   5.585   2.894 -0.4078  0.8643  2.0964
 2425TIP3    H228911   1.518   5.654   2.886  0.0992 -0.2863  0.1614
 2426TIP3   OH228912   0.292   0.461   2.377  0.0638 -0.1035 -0.0671
 2426TIP3    H128913   0.365   0.464   2.439 -1.4210 -0.6441  1.8344
 2426TIP3    H228914   0.276   0.367   2.364 -1.0430 -0.0160  0.5330
 2427TIP3   OH228915   2.106   3.338   0.773  0.1960  0.1734 -0.1916
 2427TIP3    H128916   2.045   3.278   0.815 -0.3998  0.4560 -0.6435
 2427TIP3    H228917   2.167   3.281   0.726 -0.0387 -0.0939 -0.1757
 2428TIP3   OH228918   4.616   6.077   8.351 -0.2318 -0.2640  0.3895
 2428TIP3    H128919   4.534   6.034   8.376  0.1920 -1.4416 -0.1583
 2428TIP3    H228920   4.594   6.125   8.271 -0.6333  0.2896  0.8276
 2429TIP3   OH228921   6.982   3.580   2.623  0.5570  0.3380  0.1069
 2429TIP3    H128922   7.022   3.650   2.675 -1.3222  0.3025  1.7002
 2429TIP3    H228923   6.897   3.615   2.597  0.6069 -0.4521 -1.1970
 2430TIP3   OH228924   4.680   2.368   7.485  0.0470  0.1294 -0.1527
 2430TIP3    H128925   4.594   2.327   7.488 -0.1061  0.4955  0.9726
 2430TIP3    H228926   4.714   2.347   7.398 -0.0493 -2.3304  0.3158
 2431TIP3   OH228927   1.292   6.836   0.946  0.6116  0.1977 -0.1937
 2431TIP3    H128928   1.372   6.876   0.978  1.1822  0.1572 -1.5129
 2431TIP3    H228929   1.235   6.910   0.926  0.4699  0.2391  0.3558
 2432TIP3   OH228930   4.701   6.500   0.254 -0.1858 -0.5633  0.1891
 2432TIP3    H128931   4.780   6.449   0.236 -1.0820 -2.5012  1.4215
 2432TIP3    H228932   4.631   6.453   0.208 -0.8423  0.3836  0.1885
 2433TIP3   OH228933   4.814   3.609   1.235  0.0228 -0.1649  0.5991
 2433TIP3    H128934   4.785   3.604   1.326 -0.8296 -0.9542  0.2884
 2433TIP3    H228935   4.857   3.525   1.218  1.3679  0.4783  0.6494
 2434TIP3   OH228936   0.159   5.470   8.217 -0.0149 -0.0903  0.2601
 2434TIP3    H128937   0.232   5.474   8.278 -0.6240  0.0604  0.9973
 2434TIP3    H228938   0.106   5.396   8.248  0.7377 -1.3479 -1.3279
 2435TIP3   OH228939   1.479   2.639   1.560 -0.3659  0.1659  0.4019
 2435TIP3    H128940   1.503   2.681   1.643  0.7711 -0.5825  0.4790
 2435TIP3    H228941   1.550   2.661   1.500 -1.0244  0.4365 -0.2983
 2436TIP3   OH228942   0.371   6.747   2.757  0.5082  0.0018  0.3052
 2436TIP3    H128943   0.367   6.674   2.820  1.2354  1.1845  1.7805
 2436TIP3    H228944   0.389   6.824   2.810  0.0563  1.2458 -1.2562
 2437TIP3   OH228945   1.119   5.363   1.616  0.1280  0.8502 -0.0014
 2437TIP3    H128946   1.097   5.454   1.634  0.4453  1.0150 -0.4540
 2437TIP3    H228947   1.146   5.361   1.524 -2.2244 -0.1160 -0.7704
 2438TIP3   OH228948   3.457   2.224   1.092  0.2078 -0.1815 -0.2595
 2438TIP3    H128949   3.477   2.231   0.999  0.5720 -0.4324 -0.1983
 2438TIP3    H228950   3.540   2.238   1.136  0.0146  0.0516  0.0344
 2439TIP3   OH228951   3.053   1.102   1.620  0.1508  0.0040 -0.4834
 2439TIP3    H128952   2.967   1.092   1.579  0.5048  0.4005 -1.3393
 2439TIP3    H228953   3.116   1.086   1.550  0.7789 -0.2573  0.1317
 2440TIP3   OH228954   4.076   4.711   0.038  0.1611 -0.3633 -0.0533
 2440TIP3    H128955   4.056   4.752  -0.046  1.9238 -0.1595 -0.4090
 2440TIP3    H228956   4.101   4.784   0.095  1.9060 -0.7502 -0.2685
 2441TIP3   OH228957   0.555   2.078   1.176  0.3030 -0.2457 -0.4571
 2441TIP3    H128958   0.598   2.122   1.250 -1.0569  0.8040 -0.2502
 2441TIP3    H228959   0.484   2.028   1.216  0.1549 -0.4401 -0.9580
 2442TIP3   OH228960   2.763   2.628   8.216  0.1518 -0.4217  0.1475
 2442TIP3    H128961   2.784   2.660   8.129  3.1643 -0.1032  0.8735
 2442TIP3    H228962   2.720   2.702   8.260  0.6723  0.1991 -0.3763
 2443TIP3   OH228963   3.067   5.501   6.899  0.3693 -0.1753 -0.1486
 2443TIP3    H128964   3.148   5.528   6.856  0.0675  0.8740 -0.0994
 2443TIP3    H228965   3.022   5.583   6.919 -1.1601 -0.7620 -1.0313
 2444TIP3   OH228966   6.799   3.542   1.404  0.3694  0.3790  0.9163
 2444TIP3    H128967   6.754   3.596   1.338  0.2442 -0.2403  0.4884
 2444TIP3    H228968   6.868   3.599   1.438  0.1069  0.8846  0.6241
 2445TIP3   OH228969   4.180   6.468   2.072 -0.0679  0.1784  0.0293
 2445TIP3    H128970   4.263   6.430   2.101  0.5481  0.5276 -1.2240
 2445TIP3    H228971   4.133   6.396   2.031  0.9091  0.6096 -1.9416
 2446TIP3   OH228972   4.561   0.568   0.711  0.0091 -0.4793  0.3412
 2446TIP3    H128973   4.593   0.607   0.792  1.3736 -0.6012 -0.1057
 2446TIP3    H228974   4.553   0.641   0.650 -0.4488 -0.4682  0.4139
 2447TIP3   OH228975   3.068   3.900   2.741 -0.4039  0.6006 -0.2059
 2447TIP3    H128976   2.974   3.888   2.737 -0.4890  0.0597  1.8873
 2447TIP3    H228977   3.080   3.984   2.786  0.0769  0.3239  0.2066
 2448TIP3   OH228978   2.881   4.365   7.855 -0.4563  0.1305 -0.5723
 2448TIP3    H128979   2.793   4.337   7.878 -0.2671 -0.4447 -0.5193
 2448TIP3    H228980   2.923   4.287   7.819  0.2831  0.1761  0.1408
 2449TIP3   OH228981   0.991   1.292   3.121 -0.1447 -0.3463 -0.4475
 2449TIP3    H128982   1.070   1.305   3.068 -0.2527  0.7397 -0.3772
 2449TIP3    H228983   0.962   1.381   3.141  0.3825 -0.6938  2.2057
 2450TIP3   OH228984   0.717   1.100   7.225  0.6092  0.2379  0.3891
 2450TIP3    H128985   0.639   1.149   7.199  0.7570  0.3115  0.0829
 2450TIP3    H228986   0.771   1.097   7.146  0.9493  0.2514  0.6192
 2451TIP3   OH228987   2.881   6.196   1.564  0.4486 -0.1608 -0.2494
 2451TIP3    H128988   2.925   6.164   1.643 -0.3493  2.1005  1.2034
 2451TIP3    H228989   2.884   6.291   1.572 -0.7463  0.1087 -2.3584
 2452TIP3   OH228990   5.672   2.635   7.496  0.1137 -0.3322 -0.0782
 2452TIP3    H128991   5.714   2.713   7.459  0.0945 -0.3703 -0.1815
 2452TIP3    H228992   5.588   2.630   7.451  0.5348 -0.9882 -0.8121
 2453TIP3   OH228993   1.988   0.758   2.740 -0.3890 -0.2103  0.2330
 2453TIP3    H128994   1.989   0.681   2.797  1.2144  0.2063  0.8287
 2453TIP3    H228995   1.964   0.831   2.798 -0.0695  0.0079  0.0970
 2454TIP3   OH228996   6.753   0.622   8.323 -0.3359 -0.1991 -0.5674
 2454TIP3    H128997   6.706   0.704   8.305 -1.2023 -0.4402  0.4885
 2454TIP3    H228998   6.688   0.554   8.306  0.3533 -0.6748 -1.3475
 2455TIP3   OH228999   2.091   0.705   6.387  0.5946  0.4127  0.9190
 2455TIP3    H129000   2.027   0.634   6.393  0.3613  0.0516 -3.1554
 2455TIP3    H229001   2.048   0.779   6.430 -0.3574 -1.1080  2.7288
 2456TIP3   OH229002   2.652   5.354   3.215 -0.0101  0.1578 -0.5398
 2456TIP3    H129003   2.679   5.408   3.141 -2.3917  0.3831 -1.3430
 2456TIP3    H229004   2.714   5.375   3.284  1.2906  1.1895 -1.9506
 2457TIP3   OH229005   2.213   2.442   8.072 -0.5028  0.4385 -0.0354
 2457TIP3    H129006   2.286   2.388   8.101  1.1544  2.0522 -0.9566
 2457TIP3    H229007   2.218   2.520   8.127 -1.8471  0.3667  0.2126
 2458TIP3   OH229008   5.615   0.018   1.740  0.1157  0.0150 -0.1222
 2458TIP3    H129009   5.661  -0.055   1.781 -0.6752 -1.5369 -1.8322
 2458TIP3    H229010   5.684   0.069   1.697  0.5669 -0.3982  0.1081
 2459TIP3   OH229011   2.680   4.001   7.991  0.3105  0.6141 -0.2955
 2459TIP3    H129012   2.701   3.932   7.928 -2.2574 -1.2198  0.6619
 2459TIP3    H229013   2.705   3.964   8.076 -0.7126  0.9741  0.1886
 2460TIP3   OH229014   0.333   6.873   0.048 -0.6200 -0.6443 -0.5112
 2460TIP3    H129015   0.415   6.910   0.015  0.8746 -2.6253  0.7925
 2460TIP3    H229016   0.278   6.865  -0.030 -0.0754  1.7624 -1.2440
 2461TIP3   OH229017   6.963   6.355   7.014 -0.2274  0.2211 -0.2118
 2461TIP3    H129018   7.009   6.321   7.090 -0.6410  0.6354  0.2303
 2461TIP3    H229019   6.880   6.306   7.012 -1.3707  1.9859  1.1405
 2462TIP3   OH229020   2.713   3.078   0.526 -0.1169 -0.1088  0.3122
 2462TIP3    H129021   2.696   3.116   0.440 -0.8751 -1.0703  0.0274
 2462TIP3    H229022   2.740   3.153   0.580 -0.5333  0.6527 -0.5108
 2463TIP3   OH229023   5.135   4.501   8.176 -0.2099 -0.4452 -0.7346
 2463TIP3    H129024   5.121   4.593   8.157  0.2640 -0.3893 -0.8217
 2463TIP3    H229025   5.093   4.455   8.104 -1.6911 -0.3523  0.0247
 2464TIP3   OH229026   4.491   0.985   0.632 -0.0821  0.6079  0.4544
 2464TIP3    H129027   4.539   1.020   0.557 -2.1767  1.3043 -0.6467
 2464TIP3    H229028   4.505   0.891   0.629 -0.3185  0.6076 -0.9607
 2465TIP3   OH229029   3.546   0.896   7.986 -0.0246 -0.5021 -0.1961
 2465TIP3    H129030   3.485   0.831   8.019 -0.2139 -0.3830 -0.3062
 2465TIP3    H229031   3.576   0.862   7.901 -1.3269  0.2804 -1.0025
 2466TIP3   OH229032   4.881   1.522   8.370  0.4096  0.2078  0.2459
 2466TIP3    H129033   4.807   1.581   8.352  1.7873  2.2629  0.8844
 2466TIP3    H229034   4.846   1.457   8.430 -1.7166 -0.9475 -2.0619
 2467TIP3   OH229035   6.197   2.069   7.905  0.9774  0.0511 -0.0702
 2467TIP3    H129036   6.162   1.982   7.884  0.0950  0.1250  0.9947
 2467TIP3    H229037   6.291   2.060   7.893  0.8387 -0.8835 -0.5689
 2468TIP3   OH229038   4.214   3.694   1.203  0.1352 -0.3123  0.0684
 2468TIP3    H129039   4.306   3.720   1.202  0.3381 -0.9240  1.0317
 2468TIP3    H229040   4.199   3.656   1.116  0.5514  0.5690 -0.3942
 2469TIP3   OH229041   0.193   3.521   6.731 -0.3727  0.3743 -0.4904
 2469TIP3    H129042   0.222   3.463   6.661  0.1303  0.8882 -0.7103
 2469TIP3    H229043   0.243   3.493   6.807 -0.2024  0.4524 -0.5726
 2470TIP3   OH229044   6.252   3.777   8.049 -0.2559  0.5747  0.2512
 2470TIP3    H129045   6.282   3.689   8.027 -1.1492  0.0548  1.0209
 2470TIP3    H229046   6.218   3.812   7.967  1.3334  0.7440 -0.3700
 2471TIP3   OH229047   1.311   2.405   1.269  0.5295 -0.6256 -0.0504
 2471TIP3    H129048   1.297   2.392   1.362  0.5763 -2.3643 -0.2604
 2471TIP3    H229049   1.394   2.453   1.264 -0.3840  1.1470  0.8241
 2472TIP3   OH229050   5.319   3.048   2.655  0.0827 -0.4736  0.2340
 2472TIP3    H129051   5.298   3.124   2.708  0.6736  0.1807 -0.4453
 2472TIP3    H229052   5.388   3.078   2.596 -0.7932 -1.0652 -1.1473
 2473TIP3   OH229053   3.955   0.645   1.363 -0.6813 -0.0849 -0.2414
 2473TIP3    H129054   3.913   0.728   1.383  1.0972  0.2860  2.3586
 2473TIP3    H229055   3.959   0.599   1.446 -0.2866 -2.1862 -1.3405
 2474TIP3   OH229056   1.895   5.853   0.641 -0.5646 -0.0658 -0.2116
 2474TIP3    H129057   1.806   5.822   0.625 -0.2619 -0.6441 -0.8567
 2474TIP3    H229058   1.948   5.808   0.575  0.6225 -1.8031  1.7652
 2475TIP3   OH229059   5.394   4.047   1.878 -0.4040 -0.1198 -0.4000
 2475TIP3    H129060   5.464   3.983   1.889 -1.2609 -0.9304  0.6210
 2475TIP3    H229061   5.331   4.005   1.819  0.7065  1.2833 -2.7225
 2476TIP3   OH229062   3.685   3.472   1.098  0.0831 -0.2805 -0.2725
 2476TIP3    H129063   3.655   3.543   1.155 -1.0492 -1.1875  0.3098
 2476TIP3    H229064   3.712   3.403   1.159 -2.6373 -1.8928 -0.7147
 2477TIP3   OH229065   4.162   1.028   1.863 -0.5092 -0.8744 -0.3397
 2477TIP3    H129066   4.069   1.044   1.848 -0.6375 -0.8104  0.5036
 2477TIP3    H229067   4.165   0.943   1.907 -0.0408 -1.7267 -1.9357
 2478TIP3   OH229068   2.202   3.187   7.284 -0.1999  0.2167  0.1453
 2478TIP3    H129069   2.187   3.119   7.350 -1.3405  1.4993  1.2645
 2478TIP3    H229070   2.151   3.158   7.208 -0.5603 -0.2545  0.5592
 2479TIP3   OH229071   0.851   4.666   0.666  0.1227  0.0611 -0.3210
 2479TIP3    H129072   0.887   4.604   0.602 -1.0768 -1.3768  0.3458
 2479TIP3    H229073   0.778   4.619   0.706  0.1238  1.3665  1.2964
 2480TIP3   OH229074   2.616   2.311   7.397  0.3569 -0.4386  0.4287
 2480TIP3    H129075   2.617   2.260   7.316 -0.1608 -1.3232  0.9749
 2480TIP3    H229076   2.607   2.246   7.467 -1.1540  0.4501  1.0927
 2481TIP3   OH229077   6.638   3.156   1.014 -0.3285  0.2718 -0.3693
 2481TIP3    H129078   6.622   3.070   1.052 -1.6520  1.3287  1.6141
 2481TIP3    H229079   6.651   3.139   0.921 -0.6165 -2.0490 -0.0377
 2482TIP3   OH229080   1.987   4.121   1.864 -0.0113 -0.5352 -0.5935
 2482TIP3    H129081   2.056   4.082   1.810 -0.4541 -0.0604 -1.5338
 2482TIP3    H229082   1.917   4.055   1.864  0.0430 -0.5928 -0.4873
 2483TIP3   OH229083   2.240   1.302   1.370  0.1236  0.1423 -0.4361
 2483TIP3    H129084   2.222   1.212   1.341  0.8003  0.1190 -0.7926
 2483TIP3    H229085   2.157   1.331   1.406 -0.0571 -0.6930 -0.1415
 2484TIP3   OH229086   3.738   0.364   7.349 -0.7847  0.3622  0.0422
 2484TIP3    H129087   3.833   0.347   7.348 -0.9612 -1.0394  1.6149
 2484TIP3    H229088   3.721   0.394   7.438 -2.2656 -2.7225  0.9364
 2485TIP3   OH229089   2.171   1.241   0.177 -0.0988 -0.0076  1.1381
 2485TIP3    H129090   2.240   1.295   0.138 -2.6795  1.7903 -1.3359
 2485TIP3    H229091   2.160   1.168   0.116 -2.3576  1.3906 -0.2630
 2486TIP3   OH229092   5.128   5.939   7.865 -0.6378  0.1251 -0.4995
 2486TIP3    H129093   5.120   5.862   7.921  1.0807 -1.4325 -2.2593
 2486TIP3    H229094   5.095   6.011   7.919  0.1857 -1.3860  2.1993
 2487TIP3   OH229095   6.825   2.336   1.206 -0.9281  0.0588  0.2138
 2487TIP3    H129096   6.907   2.288   1.211  0.2326  1.7096 -1.5760
 2487TIP3    H229097   6.772   2.288   1.142 -0.0494  0.6783 -1.0346
 2488TIP3   OH229098   0.361   6.101   1.877  0.7175  0.0643 -0.0912
 2488TIP3    H129099   0.415   6.109   1.798  0.3467 -0.0053 -0.3511
 2488TIP3    H229100   0.307   6.024   1.862  0.6444  0.0523  0.2299
 2489TIP3   OH229101   1.139   6.103   7.619  0.0505  0.2698  0.2848
 2489TIP3    H129102   1.220   6.142   7.587  0.6446 -0.2621  1.1193
 2489TIP3    H229103   1.099   6.171   7.673 -0.3496  0.7344 -0.5850
 2490TIP3   OH229104   2.721   1.415   7.805  0.4894 -0.4825 -0.6333
 2490TIP3    H129105   2.807   1.407   7.845  0.9591  0.9933 -1.2566
 2490TIP3    H229106   2.709   1.510   7.793 -1.3706 -0.6239 -0.2445
 2491TIP3   OH229107   5.908   1.668   7.889  0.3109 -0.6430 -0.2985
 2491TIP3    H129108   5.859   1.712   7.959  0.6334 -0.4254 -0.2069
 2491TIP3    H229109   5.841   1.636   7.829 -0.1275 -2.5870  1.1084
 2492TIP3   OH229110   5.873   4.843   7.523  0.4368  0.8593  0.1995
 2492TIP3    H129111   5.961   4.879   7.532  1.0642 -0.8450  1.5380
 2492TIP3    H229112   5.821   4.887   7.590  0.5065  1.1594  0.0587
 2493TIP3   OH229113   4.048   1.920   0.175  0.0655 -0.4190 -0.4623
 2493TIP3    H129114   4.056   1.827   0.199 -0.2737 -0.8282 -1.8289
 2493TIP3    H229115   4.093   1.926   0.090  1.4070  0.9996  0.3081
 2494TIP3   OH229116   5.478   3.441   0.779  0.1829  0.2381  0.0261
 2494TIP3    H129117   5.525   3.362   0.753 -0.3631 -0.1937  0.3340
 2494TIP3    H229118   5.543   3.494   0.826 -0.1314 -1.2588  2.2716
 2495TIP3   OH229119   1.735   4.378   2.360 -0.7617  0.2725  0.2816
 2495TIP3    H129120   1.655   4.344   2.399 -0.8035  0.8936  0.7555
 2495TIP3    H229121   1.798   4.380   2.433  0.7014 -3.1896 -0.6833
 2496TIP3   OH229122   2.381   6.257   1.469  0.6922 -0.1921  0.8212
 2496TIP3    H129123   2.459   6.205   1.491  0.8159 -0.9628 -1.2701
 2496TIP3    H229124   2.334   6.204   1.405 -0.5426  1.1512  0.5790
 2497TIP3   OH229125   0.273   3.712   0.553 -0.1072 -0.3081 -0.5008
 2497TIP3    H129126   0.264   3.740   0.644  2.2229 -0.3989 -0.1908
 2497TIP3    H229127   0.188   3.731   0.513 -1.2543 -0.4885  1.7403
 2498TIP3   OH229128   2.230   1.237   8.101 -0.2357  0.2595 -0.6106
 2498TIP3    H129129   2.222   1.247   8.006 -1.3696  0.6889 -0.4772
 2498TIP3    H229130   2.261   1.147   8.113  2.7299  1.0409 -1.4898
 2499TIP3   OH229131   5.304   0.287   0.143  0.6464 -0.4880 -0.2079
 2499TIP3    H129132   5.377   0.333   0.185 -0.5763  1.5611 -0.2298
 2499TIP3    H229133   5.240   0.355   0.123 -1.4171 -2.2399  0.0491
 2500TIP3   OH229134   2.323   3.298   1.647 -0.0503  0.3829 -0.3027
 2500TIP3    H129135   2.412   3.284   1.679 -0.3665 -0.3303  0.3090
 2500TIP3    H229136   2.276   3.217   1.671 -1.5803  1.8219  1.9657
 2501TIP3   OH229137   1.789   1.525   7.851 -0.0087  0.3068  1.0033
 2501TIP3    H129138   1.717   1.532   7.913  0.9016 -0.5363  2.2139
 2501TIP3    H229139   1.752   1.553   7.767 -1.1293  2.0694  2.0177
 2502TIP3   OH229140   6.998   5.068   1.461 -0.4027  0.8273  0.1976
 2502TIP3    H129141   6.952   5.014   1.397 -0.0704 -0.2905  0.8694
 2502TIP3    H229142   7.089   5.069   1.429 -0.2828  0.4569  0.5213
 2503TIP3   OH229143   0.694   1.104   2.843  0.3148  0.4798  0.0629
 2503TIP3    H129144   0.685   1.008   2.846 -1.1380  0.4573 -2.0855
 2503TIP3    H229145   0.605   1.136   2.857  1.0877  1.6626  2.7212
 2504TIP3   OH229146   2.266   1.145   1.667  0.4870 -0.9869  0.4471
 2504TIP3    H129147   2.211   1.213   1.628  1.0445 -1.3154 -0.9890
 2504TIP3    H229148   2.345   1.144   1.612  0.8473 -2.2201  0.9557
 2505TIP3   OH229149   6.751   6.855   7.598 -0.5027 -0.5222 -0.2175
 2505TIP3    H129150   6.824   6.917   7.599 -0.4459 -0.5766 -0.7839
 2505TIP3    H229151   6.687   6.893   7.539 -1.2898 -0.0928  0.8773
 2506TIP3   OH229152   6.448   6.301   0.925 -0.5882  0.5541  0.1902
 2506TIP3    H129153   6.492   6.218   0.906 -0.3798  0.4635  1.0179
 2506TIP3    H229154   6.414   6.330   0.841 -0.2014 -0.1063 -0.2030
 2507TIP3   OH229155   1.983   4.064   0.426 -0.0244 -0.0048 -0.2587
 2507TIP3    H129156   2.065   4.050   0.380  1.9132 -0.3343  2.9727
 2507TIP3    H229157   1.966   4.158   0.418 -0.9395 -0.3179 -3.2151
 2508TIP3   OH229158   4.103   6.587   8.265 -0.1626 -0.1905 -0.4911
 2508TIP3    H129159   4.014   6.554   8.254  0.5388 -1.8033 -1.8263
 2508TIP3    H229160   4.094   6.661   8.325 -2.3464 -0.4915 -0.3593
 2509TIP3   OH229161   6.573   6.083   1.476  0.4100 -0.2415 -0.3341
 2509TIP3    H129162   6.565   6.169   1.517  1.1930 -0.5843  0.5764
 2509TIP3    H229163   6.607   6.101   1.388  2.3907  0.2788  0.4982
 2510TIP3   OH229164   3.217   2.866   2.044  1.0367 -0.0614  0.4245
 2510TIP3    H129165   3.142   2.836   1.992 -0.1568 -0.7342  2.4460
 2510TIP3    H229166   3.284   2.886   1.979 -1.3670  2.1002 -1.6094
 2511TIP3   OH229167   5.496   6.751   1.115  0.3912 -0.4183 -0.1702
 2511TIP3    H129168   5.437   6.689   1.071  1.6802 -1.6864 -0.2232
 2511TIP3    H229169   5.470   6.749   1.207  0.4693 -1.1434 -0.1559
 2512TIP3   OH229170   6.654   5.700   0.116  0.1582  0.7370 -0.2556
 2512TIP3    H129171   6.715   5.668   0.182 -1.4376 -0.5008  0.6703
 2512TIP3    H229172   6.591   5.754   0.164 -0.7260  0.2416 -0.8136
 2513TIP3   OH229173   1.086   6.807   2.555 -0.2901  0.1822  0.1082
 2513TIP3    H129174   1.132   6.724   2.543 -2.1768 -0.8634 -0.3794
 2513TIP3    H229175   1.027   6.791   2.629 -1.3499  0.7331 -0.5862
 2514TIP3   OH229176   5.034   1.203   1.752 -0.3969  0.3279  0.4684
 2514TIP3    H129177   4.980   1.155   1.815 -1.2924 -1.1001 -1.2946
 2514TIP3    H229178   5.074   1.136   1.698  1.1695  1.4817  0.1225
 2515TIP3   OH229179   0.968   3.409   0.471 -0.5179 -0.0150  0.6593
 2515TIP3    H129180   0.977   3.498   0.505 -0.9074 -0.1918  1.2409
 2515TIP3    H229181   0.875   3.401   0.448 -0.6027 -0.4531  1.1371
 2516TIP3   OH229182   5.137   0.314   1.001 -1.0490  0.7341 -0.2753
 2516TIP3    H129183   5.173   0.402   1.000  1.4232 -0.1858 -0.2859
 2516TIP3    H229184   5.129   0.292   1.094 -0.5851  0.5813 -0.2691
 2517TIP3   OH229185   6.413   1.825   7.731  0.0490 -0.4033 -0.4219
 2517TIP3    H129186   6.453   1.898   7.779 -0.7700 -0.4229  0.3085
 2517TIP3    H229187   6.345   1.792   7.790  0.0442 -1.4091 -0.9756
 2518TIP3   OH229188   4.669   6.502   0.507 -0.1265  0.6074 -0.5563
 2518TIP3    H129189   4.589   6.453   0.528  0.2670 -0.0514 -0.6026
 2518TIP3    H229190   4.684   6.485   0.414  0.2760  0.4351 -0.4599
 2519TIP3   OH229191   0.836   0.215   7.532 -0.3331  0.1746  0.3077
 2519TIP3    H129192   0.897   0.229   7.604  0.2118  0.5284 -0.2103
 2519TIP3    H229193   0.846   0.293   7.477  0.2928 -0.7185 -0.8840
 2520TIP3   OH229194   3.371   2.865   2.740  0.4836 -0.3202 -0.3865
 2520TIP3    H129195   3.462   2.866   2.708  1.1522 -0.7772  1.3892
 2520TIP3    H229196   3.351   2.957   2.757  0.8645 -0.2876 -0.1122
 2521TIP3   OH229197   0.948   1.629   7.038 -0.0376  0.0276  0.1469
 2521TIP3    H129198   0.900   1.564   6.986 -2.2234  0.4162  1.5614
 2521TIP3    H229199   0.913   1.713   7.010  0.9133  0.4493  0.1745
 2522TIP3   OH229200   3.463   3.865   7.467  0.4984 -0.3503  0.3637
 2522TIP3    H129201   3.518   3.875   7.544  0.8685 -0.8054  0.1597
 2522TIP3    H229202   3.432   3.775   7.470  0.7523 -0.4592 -0.1757
 2523TIP3   OH229203   0.744   2.347   7.761 -0.6971  0.2185  0.1856
 2523TIP3    H129204   0.705   2.410   7.822  0.5657  0.8226  0.4068
 2523TIP3    H229205   0.740   2.391   7.676 -0.9268  0.0764  0.1212
 2524TIP3   OH229206   3.821   1.307   0.525  0.4585  0.0328  0.4490
 2524TIP3    H129207   3.871   1.247   0.469  0.9645 -0.2281  1.1692
 2524TIP3    H229208   3.748   1.255   0.556  1.4603 -0.5612  1.9110
 2525TIP3   OH229209   5.687   6.933   1.190 -0.4415 -0.4307  0.4628
 2525TIP3    H129210   5.655   6.924   1.280 -1.4556 -0.5767  0.0977
 2525TIP3    H229211   5.634   6.872   1.139 -0.1333 -0.0780 -0.2987
 2526TIP3   OH229212   3.245   0.510   0.329 -0.0052  0.1021 -0.1485
 2526TIP3    H129213   3.150   0.505   0.326 -0.1749  0.9759  1.8083
 2526TIP3    H229214   3.272   0.537   0.241 -1.2879 -2.9155 -1.6074
 2527TIP3   OH229215   2.458   5.398   3.411  0.1451  0.0160 -0.0714
 2527TIP3    H129216   2.396   5.362   3.349 -2.3905 -0.3500  2.4786
 2527TIP3    H229217   2.540   5.403   3.363 -1.8057  0.5899 -3.6722
 2528TIP3   OH229218   2.808   0.883   7.683  0.3771  0.2735  0.4551
 2528TIP3    H129219   2.735   0.870   7.743 -0.1611  2.2889  0.3234
 2528TIP3    H229220   2.814   0.978   7.673  3.6149  0.2499  1.1459
 2529TIP3   OH229221   2.514   4.571   7.438 -0.6059  0.0207 -0.1250
 2529TIP3    H129222   2.539   4.486   7.403 -2.1131 -0.5372  0.0656
 2529TIP3    H229223   2.576   4.633   7.399  0.5838 -1.1668 -0.1628
 2530TIP3   OH229224   2.653   3.010   1.254 -0.1581  0.2869  0.0960
 2530TIP3    H129225   2.643   3.104   1.265  1.5366  0.5433 -0.2372
 2530TIP3    H229226   2.567   2.979   1.226  0.0602  2.3001 -3.3740
 2531TIP3   OH229227   5.141   5.049   7.583  0.0527  0.2051 -0.2489
 2531TIP3    H129228   5.220   5.011   7.623  0.9085  3.0924  1.0261
 2531TIP3    H229229   5.122   5.126   7.636 -1.5989  1.5595 -2.6378
 2532TIP3   OH229230   1.537   2.752   1.272  0.4277 -0.0258 -0.4417
 2532TIP3    H129231   1.623   2.771   1.309  0.3606  1.0745 -0.8230
 2532TIP3    H229232   1.551   2.674   1.217  1.3022  0.4528 -0.9176
 2533TIP3   OH229233   5.457   1.667   1.718  0.3081  0.3907  0.0735
 2533TIP3    H129234   5.439   1.579   1.750  0.9406  0.5120  0.8052
 2533TIP3    H229235   5.521   1.702   1.780  0.4628  1.1711 -0.5117
 2534TIP3   OH229236   5.267   0.246   6.733  0.1975  0.2347  0.5505
 2534TIP3    H129237   5.205   0.312   6.701  1.1015  0.9423  0.2014
 2534TIP3    H229238   5.322   0.227   6.657 -0.5972 -1.6047  0.3913
 2535TIP3   OH229239   6.736   4.732   0.076  0.1789 -0.0452  0.3432
 2535TIP3    H129240   6.790   4.756   0.000 -0.3635  0.2554  0.0476
 2535TIP3    H229241   6.771   4.784   0.147 -0.2205  0.7394 -0.0266
 2536TIP3   OH229242   2.385   2.809   7.732  0.3492 -0.5613  0.5171
 2536TIP3    H129243   2.463   2.857   7.705  0.2789 -1.2303 -1.0271
 2536TIP3    H229244   2.414   2.754   7.805  1.2894 -0.6689  0.0770
 2537TIP3   OH229245   0.386   6.436   2.888 -0.8515  1.0545 -0.2281
 2537TIP3    H129246   0.455   6.502   2.897  1.1941 -1.0204  0.4583
 2537TIP3    H229247   0.376   6.401   2.977 -0.4319 -0.8484 -0.8909
 2538TIP3   OH229248   2.932   5.731   7.571  1.1495 -0.3328  0.2728
 2538TIP3    H129249   2.889   5.729   7.485 -1.9874 -0.9749  1.7305
 2538TIP3    H229250   2.922   5.642   7.605  0.0754  0.4929  2.2801
 2539TIP3   OH229251   1.780   0.442   1.705 -0.1121  0.0181 -0.1044
 2539TIP3    H129252   1.872   0.437   1.732 -0.7916  0.6836  2.6404
 2539TIP3    H229253   1.734   0.384   1.766 -1.9613  2.6223  1.1830
 2540TIP3   OH229254   3.065   4.715   2.606  0.0739 -0.4787  0.4503
 2540TIP3    H129255   3.040   4.739   2.695 -1.8070 -0.5151 -0.0313
 2540TIP3    H229256   3.003   4.763   2.550  1.3643 -0.2744 -0.8595
 2541TIP3   OH229257   3.560   1.584   0.766 -0.2991  0.2731 -0.3213
 2541TIP3    H129258   3.485   1.626   0.725 -0.5042 -0.6152 -0.9010
 2541TIP3    H229259   3.629   1.586   0.699 -0.6334 -1.1786 -0.7464
 2542TIP3   OH229260   0.902   4.630   2.321  0.2523 -0.3313  0.1593
 2542TIP3    H129261   0.827   4.589   2.365  1.1372 -1.8997  0.2695
 2542TIP3    H229262   0.886   4.614   2.228  0.8754 -1.4825  0.2320
 2543TIP3   OH229263   1.972   1.794   8.039  0.6848  0.7747 -0.1578
 2543TIP3    H129264   1.964   1.767   8.130  0.6924  0.2708 -0.3022
 2543TIP3    H229265   2.022   1.876   8.042  3.6250 -0.8852  0.1107
 2544TIP3   OH229266   6.924   1.000   7.304  0.2821 -0.0369  0.0455
 2544TIP3    H129267   6.974   0.920   7.291 -0.6301 -0.2918 -2.4521
 2544TIP3    H229268   6.832   0.971   7.304 -0.0135  0.7625  1.5815
 2545TIP3   OH229269   2.462   2.474   2.055  0.4826  0.2864 -0.1864
 2545TIP3    H129270   2.426   2.452   1.969 -0.3551 -0.5713  0.3631
 2545TIP3    H229271   2.557   2.466   2.045  0.4440  0.9484 -1.2220
 2546TIP3   OH229272   4.197   1.723   0.994 -0.8291  0.4983 -0.5898
 2546TIP3    H129273   4.170   1.631   0.997 -0.8936  0.4987  2.8442
 2546TIP3    H229274   4.124   1.771   1.033  0.0884  1.7142 -0.2848
 2547TIP3   OH229275   5.981   5.752   2.118  0.0018 -0.2250  0.7551
 2547TIP3    H129276   5.914   5.819   2.104  0.1947  0.0054  0.9213
 2547TIP3    H229277   5.938   5.669   2.097 -0.8052 -0.2489  2.3588
 2548TIP3   OH229278   4.691   6.679   1.412  0.0009  0.7517 -0.8763
 2548TIP3    H129279   4.759   6.624   1.452  1.2016  1.9315 -1.2093
 2548TIP3    H229280   4.655   6.624   1.342 -0.2564 -0.3346  0.0797
 2549TIP3   OH229281   2.041   1.802   0.566  0.6008 -0.1133  0.2238
 2549TIP3    H129282   2.115   1.811   0.506 -0.7198 -1.0115 -1.5994
 2549TIP3    H229283   2.035   1.708   0.583 -1.7728 -0.4414 -1.9086
 2550TIP3   OH229284   2.891   2.144   7.167 -1.1396 -0.4419  0.0271
 2550TIP3    H129285   2.900   2.232   7.132 -1.4520 -0.3979  0.0578
 2550TIP3    H229286   2.904   2.086   7.092 -0.5655 -0.3845  0.0737
 2551TIP3   OH229287   1.873   2.605   7.433 -0.8588  0.0028  0.3919
 2551TIP3    H129288   1.801   2.601   7.496 -1.0836 -1.5493  0.0725
 2551TIP3    H229289   1.935   2.539   7.464 -1.0849 -0.9515 -1.1311
 2552TIP3   OH229290   0.652   6.717   7.624  0.1326 -0.6241  0.2503
 2552TIP3    H129291   0.665   6.700   7.531 -0.9828  1.5862 -0.3695
 2552TIP3    H229292   0.592   6.648   7.652 -0.8649 -0.3395 -1.0903
 2553TIP3   OH229293   3.013   6.426   1.868 -0.5156  0.1172  0.1874
 2553TIP3    H129294   3.038   6.457   1.955 -0.4250  1.4055 -0.2680
 2553TIP3    H229295   2.947   6.489   1.839 -1.3365 -0.9087 -0.2656
 2554TIP3   OH229296   0.385   2.126   8.321  0.1038  0.1948  0.6500
 2554TIP3    H129297   0.447   2.067   8.279  0.1516  0.1125  0.8315
 2554TIP3    H229298   0.360   2.188   8.253  0.2800  0.1450  0.5393
 2555TIP3   OH229299   6.287   0.721   0.780 -0.3810  0.0247 -0.2291
 2555TIP3    H129300   6.354   0.753   0.720 -0.9071 -0.1652 -0.9210
 2555TIP3    H229301   6.220   0.683   0.724 -0.7711 -0.3639  0.4886
 2556TIP3   OH229302   6.952   2.437   8.386  0.4423 -0.2669 -0.6296
 2556TIP3    H129303   6.944   2.498   8.459  1.9300 -1.0761  0.2639
 2556TIP3    H229304   6.869   2.389   8.385  0.4583 -0.3432  0.6311
 2557TIP3   OH229305   6.248   5.857   7.035 -0.6614  0.1944 -0.2576
 2557TIP3    H129306   6.163   5.876   6.996 -0.1438 -2.0160 -2.6831
 2557TIP3    H229307   6.278   5.778   6.991  1.7761 -0.2728  1.9839
 2558TIP3   OH229308   2.173   1.578   0.088  0.4807  0.0264 -0.3095
 2558TIP3    H129309   2.085   1.574   0.125  0.8760 -1.0336  0.5673
 2558TIP3    H229310   2.184   1.494   0.043  1.7276 -0.6945  1.2464
 2559TIP3   OH229311   2.779   5.907   2.265  0.1500 -0.5249  0.0606
 2559TIP3    H129312   2.766   5.814   2.285  1.9330 -0.6182  0.9758
 2559TIP3    H229313   2.827   5.941   2.341  1.3898  0.6503 -1.2074
 2560TIP3   OH229314   2.955   4.845   7.355  0.6283 -0.3130 -0.0874
 2560TIP3    H129315   3.028   4.810   7.304  0.5342 -0.8539  0.1430
 2560TIP3    H229316   2.880   4.794   7.327  0.2484  0.5249 -0.6302
 2561TIP3   OH229317   4.552   0.743   1.548 -0.2730  0.0647 -0.2932
 2561TIP3    H129318   4.526   0.792   1.626 -1.4068 -0.0702 -0.5570
 2561TIP3    H229319   4.645   0.727   1.559 -0.4349 -0.0473  1.0773
 2562TIP3   OH229320   4.037   2.178   2.268  0.2270  0.5216 -0.0050
 2562TIP3    H129321   3.972   2.232   2.314  0.5495  1.0783 -0.1830
 2562TIP3    H229322   4.015   2.188   2.175 -0.0787 -0.1438 -0.0045
 2563TIP3   OH229323   6.605   3.099   0.767  0.1278  0.4398  0.2710
 2563TIP3    H129324   6.639   3.013   0.791 -0.8394  0.4555  1.9003
 2563TIP3    H229325   6.603   3.099   0.671 -1.0048 -1.8466  0.2264
 2564TIP3   OH229326   5.178   0.233   1.851 -0.8550  0.2233 -0.3311
 2564TIP3    H129327   5.204   0.200   1.937  1.2931  0.7146 -0.7283
 2564TIP3    H229328   5.093   0.193   1.834 -0.9835 -0.4550  1.6954
 2565TIP3   OH229329   4.987   2.931   1.856  0.6515  0.1970  0.1262
 2565TIP3    H129330   4.936   2.999   1.812  3.3621  1.5526 -1.1143
 2565TIP3    H229331   4.944   2.920   1.941 -0.2473  3.0459  0.1332
 2566TIP3   OH229332   0.112   0.186   7.742 -0.0575  0.3304  0.1857
 2566TIP3    H129333   0.205   0.207   7.732  0.3744 -0.4192  2.2251
 2566TIP3    H229334   0.103   0.099   7.702  0.0962  0.4224 -0.0554
 2567TIP3   OH229335   3.589   3.542   8.243 -0.1273 -0.1207  0.1985
 2567TIP3    H129336   3.560   3.589   8.322 -1.9384 -0.3253 -0.3020
 2567TIP3    H229337   3.582   3.449   8.267 -0.3112 -0.1780 -0.0770
 2568TIP3   OH229338   6.934   2.288   0.916  0.0648  0.2010  0.0850
 2568TIP3    H129339   6.896   2.375   0.933  0.5148  0.5033 -0.4224
 2568TIP3    H229340   6.867   2.227   0.947 -1.1719  0.7098 -1.4532
 2569TIP3   OH229341   0.472   0.399   1.398 -0.3494 -0.3390  0.0927
 2569TIP3    H129342   0.504   0.311   1.380 -0.5515 -0.3813 -0.0579
 2569TIP3    H229343   0.490   0.449   1.318  2.4074  0.5285  1.1309
 2570TIP3   OH229344   3.159   4.670   0.959 -0.1555 -0.4204  0.0985
 2570TIP3    H129345   3.085   4.648   1.016  0.1321 -2.6908 -0.3266
 2570TIP3    H229346   3.195   4.586   0.932  2.3612  0.6074 -0.0498
 2571TIP3   OH229347   1.105   0.366   7.009  0.2946 -0.9613  0.4035
 2571TIP3    H129348   1.040   0.435   7.022  0.2222 -0.8551 -0.4472
 2571TIP3    H229349   1.148   0.357   7.094  0.1719 -0.0086  0.5769
 2572TIP3   OH229350   0.587   2.222   7.550  0.0880 -0.0031 -0.1064
 2572TIP3    H129351   0.555   2.134   7.531  0.0433  0.3135 -1.5699
 2572TIP3    H229352   0.634   2.213   7.633 -0.3251 -1.3062 -0.0036
 2573TIP3   OH229353   4.130   5.033   6.403 -0.5797  0.0872 -0.0858
 2573TIP3    H129354   4.204   5.024   6.463 -1.2459  2.1501  1.1592
 2573TIP3    H229355   4.168   5.064   6.322 -0.0571  1.2973  0.5993
 2574TIP3   OH229356   1.782   3.999   7.097 -0.0582  0.2117  0.2881
 2574TIP3    H129357   1.694   4.036   7.103 -0.3645 -0.7170  2.4184
 2574TIP3    H229358   1.768   3.912   7.059  0.3024  1.0160 -1.8241
 2575TIP3   OH229359   3.124   4.007   8.391 -0.0594  0.0799  0.3404
 2575TIP3    H129360   3.181   3.937   8.423  1.8016  0.9600 -0.8983
 2575TIP3    H229361   3.064   4.025   8.464 -0.5715 -2.7272  0.7139
 2576TIP3   OH229362   6.477   0.728   6.894  0.1341  0.4131  0.2121
 2576TIP3    H129363   6.410   0.795   6.880  0.4084  0.3852 -1.4559
 2576TIP3    H229364   6.429   0.646   6.896  0.0200  0.4651 -0.1946
 2577TIP3   OH229365   4.448   3.457   1.385 -0.4590  0.2798 -0.3176
 2577TIP3    H129366   4.390   3.412   1.324 -0.0715  1.0407 -1.2851
 2577TIP3    H229367   4.467   3.541   1.342  3.0665 -0.7476 -1.1314
 2578TIP3   OH229368   2.149   2.742   0.935  0.5023  0.0521 -0.5549
 2578TIP3    H129369   2.185   2.809   0.876 -0.4143  3.7491  2.6424
 2578TIP3    H229370   2.223   2.717   0.990  0.7507 -1.4193 -1.4997
 2579TIP3   OH229371   6.331   3.174   6.856 -1.0224 -0.3792  0.2978
 2579TIP3    H129372   6.255   3.228   6.877 -0.9368  0.1086 -0.5755
 2579TIP3    H229373   6.343   3.185   6.762  0.4352 -0.0349  0.4953
 2580TIP3   OH229374   2.060   1.408   8.267 -0.0202 -0.0852 -0.5329
 2580TIP3    H129375   2.137   1.352   8.281 -0.6406 -1.2333 -1.5731
 2580TIP3    H229376   2.051   1.412   8.172 -2.5491 -1.8403 -0.4617
 2581TIP3   OH229377   1.760   3.363   7.668  0.4687 -0.2726  0.3867
 2581TIP3    H129378   1.670   3.331   7.656  0.4773  0.2068 -1.2153
 2581TIP3    H229379   1.814   3.284   7.660  0.2428 -0.4677  0.7276
 2582TIP3   OH229380   5.754   6.674   7.183  0.5311  0.0140  0.1162
 2582TIP3    H129381   5.846   6.683   7.159 -0.0555 -0.4028 -2.6830
 2582TIP3    H229382   5.742   6.580   7.199 -0.0387 -0.6088 -3.1631
 2583TIP3   OH229383   4.121   3.624   0.863  0.0841 -0.0396  0.0175
 2583TIP3    H129384   4.117   3.566   0.788  0.1450  1.9806 -1.6471
 2583TIP3    H229385   4.032   3.660   0.871  0.5592  1.3104 -0.4390
 2584TIP3   OH229386   6.070   0.638   7.796  0.2136  0.3725  0.1655
 2584TIP3    H129387   5.976   0.638   7.775  0.3299  1.6050 -0.4767
 2584TIP3    H229388   6.088   0.729   7.823  1.4796  0.4833 -0.9604
 2585TIP3   OH229389   4.247   6.844   2.907 -0.4921 -0.8071  0.3116
 2585TIP3    H129390   4.334   6.838   2.868 -1.3067 -1.0974 -1.5589
 2585TIP3    H229391   4.263   6.873   2.997  1.4455  0.1807 -0.3035
 2586TIP3   OH229392   0.551   0.564   8.228  0.3440 -0.0029 -0.0665
 2586TIP3    H129393   0.602   0.514   8.292  0.1145 -0.0156  0.1088
 2586TIP3    H229394   0.570   0.522   8.144  0.5568 -0.0587  0.0107
 2587TIP3   OH229395   1.532   5.747   8.137  0.0558  0.5037  0.6230
 2587TIP3    H129396   1.500   5.663   8.169  1.7232 -0.5833 -0.3820
 2587TIP3    H229397   1.462   5.808   8.156 -1.9323 -1.4125 -0.0689
 2588TIP3   OH229398   5.827   3.697   7.169  0.1656  0.1376  0.0938
 2588TIP3    H129399   5.744   3.685   7.123 -0.5775  1.4173  1.0178
 2588TIP3    H229400   5.802   3.698   7.262  1.3682 -0.5334  0.4437
 2589TIP3   OH229401   5.305   1.131   7.900  0.0958 -0.6867 -0.3217
 2589TIP3    H129402   5.320   1.051   7.851 -2.4774 -1.4431 -0.0450
 2589TIP3    H229403   5.380   1.187   7.880 -1.0521 -0.6040 -5.7183
 2590TIP3   OH229404   3.610   5.864   7.161 -0.0666 -0.3377  1.0367
 2590TIP3    H129405   3.669   5.884   7.233 -1.0506  1.6353  1.3576
 2590TIP3    H229406   3.653   5.902   7.084  0.2546 -1.1133  0.8210
 2591TIP3   OH229407   4.329   6.454   8.312 -1.2333  0.3551 -0.6373
 2591TIP3    H129408   4.312   6.418   8.225 -1.7712 -0.9081 -0.0395
 2591TIP3    H229409   4.244   6.487   8.341 -1.3943 -0.5563 -0.0251
 2592TIP3   OH229410   1.160   1.631   1.943  0.7505 -0.5514 -0.4457
 2592TIP3    H129411   1.070   1.598   1.933  1.0481 -1.7362  0.4541
 2592TIP3    H229412   1.211   1.578   1.882  0.9330 -0.3222 -0.4896
 2593TIP3   OH229413   6.998   5.543   0.633 -0.2251  0.0473  0.4193
 2593TIP3    H129414   7.049   5.611   0.678  0.4217 -0.5832  0.6567
 2593TIP3    H229415   7.058   5.507   0.568 -1.4966  1.7341 -1.8380
 2594TIP3   OH229416   6.696   6.248   2.647 -0.0750 -0.0928  0.0319
 2594TIP3    H129417   6.791   6.251   2.657 -0.1508 -0.4412  0.9456
 2594TIP3    H229418   6.663   6.309   2.713 -0.4186  1.7036 -1.7251
 2595TIP3   OH229419   5.907   6.521   6.853  0.1206 -0.9304 -0.1809
 2595TIP3    H129420   5.894   6.568   6.935 -1.2166 -0.6964 -0.4935
 2595TIP3    H229421   5.822   6.526   6.809  1.0491 -0.1412 -2.0495
 2596TIP3   OH229422   4.406   1.337   0.539  0.1220  0.2565  0.0087
 2596TIP3    H129423   4.408   1.433   0.533 -3.1297  0.4628  0.0390
 2596TIP3    H229424   4.347   1.319   0.612 -0.5164 -1.7030 -0.9099
 2597TIP3   OH229425   4.259   0.447   2.287  0.3673  0.2463 -0.5023
 2597TIP3    H129426   4.339   0.428   2.237  0.6464  0.9314 -0.3255
 2597TIP3    H229427   4.287   0.447   2.378 -0.2700 -1.6497 -0.2529
 2598TIP3   OH229428   0.033   4.988   6.874  0.2035 -0.2587  0.1014
 2598TIP3    H129429   0.029   4.997   6.970 -3.5003  0.1130  0.0735
 2598TIP3    H229430   0.018   5.077   6.842  2.7441 -0.1416 -0.9308
 2599TIP3   OH229431   4.985   1.198   6.584  0.1031 -0.3508 -1.0001
 2599TIP3    H129432   5.036   1.126   6.620 -0.9580 -0.4863  0.3366
 2599TIP3    H229433   4.910   1.156   6.542 -0.8969 -0.0584  0.4027
 2600TIP3   OH229434   0.759   1.726   1.941 -0.2066 -0.0732 -0.0213
 2600TIP3    H129435   0.690   1.790   1.923  0.4719  1.1559  1.5050
 2600TIP3    H229436   0.716   1.660   1.996 -0.6376 -0.3508 -0.6812
 2601TIP3   OH229437   2.267   0.193   1.484  0.1414 -0.0563  0.2172
 2601TIP3    H129438   2.208   0.206   1.411  0.1983  2.2349  0.4911
 2601TIP3    H229439   2.352   0.226   1.453  0.1982  0.8094  1.2399
 2602TIP3   OH229440   4.693   5.988   2.202 -0.0789  0.5945  0.2107
 2602TIP3    H129441   4.700   5.943   2.285  0.1259  0.0263 -0.1098
 2602TIP3    H229442   4.657   6.074   2.224 -0.3301  0.3302  0.8404
 2603TIP3   OH229443   2.205   3.530   1.509 -0.3303 -0.4399 -0.1906
 2603TIP3    H129444   2.252   3.453   1.541 -1.2693 -0.7672  0.4466
 2603TIP3    H229445   2.256   3.560   1.434  1.6935  0.0678  1.3058
 2604TIP3   OH229446   5.182   1.459   1.101  0.0908 -0.0980 -0.1469
 2604TIP3    H129447   5.171   1.552   1.122 -0.7857  0.3031 -2.2100
 2604TIP3    H229448   5.094   1.423   1.105  0.1021 -0.3197 -1.6032
 2605TIP3   OH229449   4.723   3.427   1.453  0.2071  0.2853  0.6133
 2605TIP3    H129450   4.627   3.425   1.454  0.2100  0.2169  0.8320
 2605TIP3    H229451   4.746   3.501   1.509  0.2752  0.6062  0.1691
 2606TIP3   OH229452   5.963   4.624   7.158 -0.4939  0.1910  0.8969
 2606TIP3    H129453   5.917   4.560   7.212 -1.1970  0.3517  0.5049
 2606TIP3    H229454   5.950   4.707   7.203  0.0132  0.1304  1.1551
 2607TIP3   OH229455   2.832   3.043   2.691 -0.0272 -0.5166  0.3758
 2607TIP3    H129456   2.774   2.991   2.747  0.2482 -1.5587 -0.2686
 2607TIP3    H229457   2.813   3.134   2.714 -0.0238 -0.9059  2.0445
 2608TIP3   OH229458   3.963   2.686   0.102  0.1576  0.8228 -0.1908
 2608TIP3    H129459   3.947   2.702   0.009  2.8324  0.7799 -0.7365
 2608TIP3    H229460   4.012   2.763   0.131  3.3811 -1.0855 -0.0639
 2609TIP3   OH229461   0.243   6.451   0.987 -0.6976  0.2588 -0.2055
 2609TIP3    H129462   0.250   6.492   0.900  2.5339 -0.6418 -0.4888
 2609TIP3    H229463   0.263   6.359   0.972  1.7240  0.3722  1.6337
 2610TIP3   OH229464   4.149   4.034   1.119 -0.5108 -0.5217 -0.1754
 2610TIP3    H129465   4.151   4.130   1.109 -1.0869 -0.6850 -2.2972
 2610TIP3    H229466   4.087   4.019   1.190 -0.6382  0.6743 -0.0097
 2611TIP3   OH229467   2.967   1.210   0.548 -0.2632  0.0289 -0.8072
 2611TIP3    H129468   2.993   1.143   0.611 -1.1854  0.3750 -0.0406
 2611TIP3    H229469   3.050   1.244   0.514  0.3118  0.9813  1.4310
 2612TIP3   OH229470   1.692   4.693   1.508  0.2058  0.1800 -0.0351
 2612TIP3    H129471   1.686   4.784   1.478  0.1639 -0.4455 -2.0471
 2612TIP3    H229472   1.781   4.666   1.485 -0.5837 -1.0471 -1.9028
 2613TIP3   OH229473   6.851   3.815   7.676  0.1966  0.4492  0.3505
 2613TIP3    H129474   6.773   3.766   7.701  0.9607  0.2709  2.5773
 2613TIP3    H229475   6.924   3.756   7.696  1.0297  1.6325  0.9302
 2614TIP3   OH229476   4.413   1.475   0.147  0.2001  0.4199  0.1720
 2614TIP3    H129477   4.379   1.558   0.115 -1.0323 -0.6820 -1.5715
 2614TIP3    H229478   4.335   1.425   0.172  0.9050 -0.2689  1.0647
 2615TIP3   OH229479   1.321   1.966   8.232 -0.4153 -0.0062 -0.1235
 2615TIP3    H129480   1.321   2.004   8.320  0.5052 -0.5396  0.1164
 2615TIP3    H229481   1.310   1.872   8.246 -0.1210 -0.1100 -0.5784
 2616TIP3   OH229482   3.548   2.820   7.763 -0.4224 -0.4170 -0.0407
 2616TIP3    H129483   3.615   2.886   7.780 -1.1975  0.3164  0.1826
 2616TIP3    H229484   3.527   2.784   7.849 -0.0885 -0.8804 -0.1483
 2617TIP3   OH229485   0.824   4.577   8.260 -0.2415  0.6093 -0.4002
 2617TIP3    H129486   0.797   4.604   8.172 -1.7544 -2.6968 -1.0997
 2617TIP3    H229487   0.826   4.481   8.256  1.0995  0.3830  2.7932
 2618TIP3   OH229488   4.843   5.639   7.190 -0.1917  0.4802  0.7094
 2618TIP3    H129489   4.854   5.733   7.171  1.1468  0.0434 -0.9492
 2618TIP3    H229490   4.930   5.602   7.176 -0.1806 -0.7314  3.4360
 2619TIP3   OH229491   4.714   6.914   1.734 -0.5465  0.1075  0.4031
 2619TIP3    H129492   4.723   6.933   1.640  3.2370  2.0146  0.9314
 2619TIP3    H229493   4.681   6.996   1.772  0.3626  0.2485  0.9384
 2620TIP3   OH229494   3.621   1.135   1.899 -0.8171 -0.1709 -0.6253
 2620TIP3    H129495   3.609   1.213   1.845  2.8516  1.2655  0.3141
 2620TIP3    H229496   3.592   1.162   1.986 -1.1538 -0.4424 -0.6541
 2621TIP3   OH229497   3.982   6.101   6.261  0.1845 -0.4717 -1.0177
 2621TIP3    H129498   4.076   6.081   6.263  0.1026 -0.8389 -0.8161
 2621TIP3    H229499   3.942   6.024   6.220 -0.0900 -0.5589 -0.5825
 2622TIP3   OH229500   2.855   0.243   1.604  0.1020 -0.4471  0.0572
 2622TIP3    H129501   2.862   0.332   1.638 -0.6876  0.0288 -0.9553
 2622TIP3    H229502   2.760   0.226   1.602 -0.1040  0.3065 -3.6260
 2623TIP3   OH229503   2.753   1.850   2.705 -0.4152 -0.2965 -0.3372
 2623TIP3    H129504   2.725   1.793   2.776 -2.6145 -0.5807 -1.3544
 2623TIP3    H229505   2.847   1.833   2.696 -0.3203 -1.1068  1.6900
 2624TIP3   OH229506   5.819   1.385   6.655  0.0882  0.2287 -0.2526
 2624TIP3    H129507   5.749   1.335   6.698 -0.8982  1.1586 -0.7233
 2624TIP3    H229508   5.780   1.471   6.641  0.9634  0.4233 -1.5466
 2625TIP3   OH229509   5.392   5.506   7.000  0.6293  0.0278  0.0740
 2625TIP3    H129510   5.332   5.475   6.932  0.4116 -0.6254  0.5421
 2625TIP3    H229511   5.477   5.470   6.975  0.4874 -0.4864  0.3068
 2626TIP3   OH229512   5.580   2.368   8.127 -0.3453  0.8986 -0.1303
 2626TIP3    H129513   5.556   2.285   8.086 -0.7888  1.0632 -0.2071
 2626TIP3    H229514   5.675   2.375   8.114 -0.4273  0.7791 -0.8142
 2627TIP3   OH229515   2.594   3.290   1.742  0.4016 -0.1137  0.2634
 2627TIP3    H129516   2.653   3.218   1.722  2.0202  1.9213 -3.1484
 2627TIP3    H229517   2.648   3.369   1.734 -2.0035  1.6873  0.5230
 2628TIP3   OH229518   1.298   6.540   7.573  0.0946  0.4023 -0.3554
 2628TIP3    H129519   1.301   6.554   7.478 -0.9011 -0.0532 -0.4715
 2628TIP3    H229520   1.207   6.518   7.591  0.0496  1.4343  0.8563
 2629TIP3   OH229521   0.168   5.485   7.085 -0.2786 -0.4823 -0.1379
 2629TIP3    H129522   0.168   5.390   7.068  0.1392 -0.3157 -1.1105
 2629TIP3    H229523   0.258   5.504   7.112 -1.1748 -0.9792  3.9594
 2630TIP3   OH229524   5.045   0.873   7.441  0.2505  0.3168 -1.0103
 2630TIP3    H129525   5.094   0.908   7.366  2.3589 -1.7033 -0.6946
 2630TIP3    H229526   5.094   0.904   7.518 -0.8567  0.8816 -0.5103
 2631TIP3   OH229527   2.776   5.571   7.983  0.3503  0.1893 -0.3588
 2631TIP3    H129528   2.757   5.661   8.010  1.0304  0.1132  0.3951
 2631TIP3    H229529   2.716   5.518   8.035  0.1488  0.1837 -0.5947
 2632TIP3   OH229530   6.672   2.083   2.913 -0.1225 -0.1214  0.0224
 2632TIP3    H129531   6.708   2.021   2.851  0.0642 -0.2982  0.3073
 2632TIP3    H229532   6.699   2.169   2.880 -2.7459  0.0770 -1.9881
 2633TIP3   OH229533   2.320   1.869   7.187 -0.1261 -0.1143 -0.2729
 2633TIP3    H129534   2.312   1.924   7.109 -0.2566  1.9997  1.1479
 2633TIP3    H229535   2.410   1.881   7.215 -0.3727  0.0023  0.4845
 2634TIP3   OH229536   3.648   1.980   1.379  0.2284 -0.1800 -0.0309
 2634TIP3    H129537   3.574   1.963   1.437 -1.1221  1.8819 -1.0384
 2634TIP3    H229538   3.650   1.905   1.319 -1.1631 -0.1752 -0.0945
 2635TIP3   OH229539   4.692   6.889   0.765 -0.3060 -0.4292 -0.1509
 2635TIP3    H129540   4.773   6.907   0.717  0.4915  2.1625  1.9404
 2635TIP3    H229541   4.629   6.951   0.729 -0.4033 -0.1969  0.4080
 2636TIP3   OH229542   2.890   0.788   1.098 -1.1309  0.2481  0.0736
 2636TIP3    H129543   2.832   0.819   1.028 -0.5100  0.6606 -0.2711
 2636TIP3    H229544   2.979   0.803   1.064 -0.8152  0.6787  1.0459
 2637TIP3   OH229545   4.011   4.473   0.152  0.2232  0.5539 -0.5876
 2637TIP3    H129546   3.917   4.478   0.173  0.1836  0.9449 -0.8349
 2637TIP3    H229547   4.029   4.556   0.108  1.1650  1.3892  1.2923
 2638TIP3   OH229548   3.774   2.453   1.724 -0.0530  0.3069 -0.6548
 2638TIP3    H129549   3.863   2.432   1.749 -0.5746 -0.7931  0.3393
 2638TIP3    H229550   3.764   2.415   1.637  0.6534  1.0673 -1.0851
 2639TIP3   OH229551   5.633   6.161   2.087 -0.2150  0.1320 -0.0851
 2639TIP3    H129552   5.545   6.174   2.051 -0.8569 -1.4999  0.7341
 2639TIP3    H229553   5.619   6.159   2.182  0.8210  0.4881  0.0864
 2640TIP3   OH229554   2.999   5.344   6.685 -0.3457  0.3168 -0.0615
 2640TIP3    H129555   3.021   5.382   6.770 -1.0080  0.0472  0.2287
 2640TIP3    H229556   3.063   5.383   6.625  0.7341 -0.2036  0.7122
 2641TIP3   OH229557   4.071   6.607   7.142  0.2417 -0.0727 -0.2167
 2641TIP3    H129558   4.050   6.701   7.139  1.0314  0.0935 -2.4041
 2641TIP3    H229559   4.011   6.567   7.079  2.1977 -0.4891 -1.8912
 2642TIP3   OH229560   6.143   5.085   2.575  0.3850  0.1691  0.3685
 2642TIP3    H129561   6.078   5.060   2.641  1.2625  0.1407  1.2302
 2642TIP3    H229562   6.106   5.054   2.492 -1.1848  1.0474  0.7020
 2643TIP3   OH229563   2.378   2.144   0.833 -0.5287  0.1440 -0.0991
 2643TIP3    H129564   2.290   2.130   0.798 -0.2282  0.1224 -0.8589
 2643TIP3    H229565   2.380   2.093   0.914 -1.3064  0.3725  0.0754
 2644TIP3   OH229566   2.075   4.595   7.474  0.6101  0.0257  0.0176
 2644TIP3    H129567   2.006   4.650   7.437  1.5125  1.8523  0.8946
 2644TIP3    H229568   2.147   4.656   7.493  2.2239 -1.6862 -0.2360
 2645TIP3   OH229569   6.432   2.326   7.163  0.1300 -0.1960 -0.5509
 2645TIP3    H129570   6.488   2.369   7.098  1.8699  0.3459  1.1978
 2645TIP3    H229571   6.488   2.316   7.239 -2.1501  0.2305  1.2856
 2646TIP3   OH229572   5.044   5.412   1.586 -0.2778  0.0578  0.0803
 2646TIP3    H129573   4.957   5.390   1.620 -0.2170  1.3424  1.1264
 2646TIP3    H229574   5.094   5.330   1.594 -1.0147 -0.3458  0.7025
 2647TIP3   OH229575   2.229   2.637   0.395 -0.2085  0.0933  0.3996
 2647TIP3    H129576   2.278   2.566   0.436 -2.5346 -0.3087  2.8180
 2647TIP3    H229577   2.165   2.592   0.339  0.6081  0.5025 -0.9056
 2648TIP3   OH229578   1.588   1.416   0.876 -0.1307  0.1421  0.1645
 2648TIP3    H129579   1.554   1.435   0.964 -0.1072  0.2210  0.1564
 2648TIP3    H229580   1.628   1.329   0.885  0.8204  0.6026  0.5020
 2649TIP3   OH229581   6.869   1.635   0.643  0.1145 -0.0645 -0.1600
 2649TIP3    H129582   6.801   1.630   0.710  1.3772 -0.1096  1.1474
 2649TIP3    H229583   6.926   1.560   0.660 -0.0775 -0.6487 -1.9043
 2650TIP3   OH229584   6.892   0.897   6.646 -0.2801 -0.0062 -0.0683
 2650TIP3    H129585   6.883   0.962   6.576  0.2782 -1.7496 -1.8782
 2650TIP3    H229586   6.845   0.820   6.613  0.8810 -1.2309  1.0072
 2651TIP3   OH229587   2.048   2.816   0.074  0.4255  0.4061  0.6544
 2651TIP3    H129588   2.126   2.762   0.085 -0.3104 -0.5291  1.6128
 2651TIP3    H229589   2.071   2.900   0.112  1.5132  0.7232 -0.6233
 2652TIP3   OH229590   6.310   3.839   0.647 -0.1704 -0.2028 -0.0557
 2652TIP3    H129591   6.297   3.844   0.742 -4.2058  0.4604 -0.4497
 2652TIP3    H229592   6.324   3.746   0.629 -1.5147 -0.6694  1.0970
 2653TIP3   OH229593   3.696   4.056   2.087 -0.7549 -0.1592  0.4641
 2653TIP3    H129594   3.631   4.100   2.033 -1.5864 -0.7915  0.9235
 2653TIP3    H229595   3.659   4.058   2.176 -0.8771 -1.8579  0.4844
 2654TIP3   OH229596   0.736   1.446   1.631 -0.2316 -0.2117  0.4985
 2654TIP3    H129597   0.712   1.536   1.607  2.8431  0.3261 -1.1280
 2654TIP3    H229598   0.684   1.391   1.572 -1.5190  0.4947  0.9348
 2655TIP3   OH229599   3.323   3.006   6.608 -0.1286  0.4183 -0.1625
 2655TIP3    H129600   3.391   3.068   6.580  1.6128 -1.4577 -0.3099
 2655TIP3    H229601   3.340   2.991   6.701  1.1679 -1.7642 -0.6894
 2656TIP3   OH229602   0.215   1.544   6.773  0.0671  0.0643 -0.0251
 2656TIP3    H129603   0.168   1.525   6.854  2.4945  2.5053  2.2138
 2656TIP3    H229604   0.178   1.626   6.742  1.0800  0.6984  0.3662
 2657TIP3   OH229605   5.423   5.352   8.179 -0.5026  0.8311 -0.4480
 2657TIP3    H129606   5.330   5.337   8.197 -0.8204  2.0571 -0.9490
 2657TIP3    H229607   5.444   5.293   8.107 -0.9833  0.7753 -0.5455
 2658TIP3   OH229608   2.319   6.213   1.790 -0.2234 -0.3585  0.5551
 2658TIP3    H129609   2.336   6.120   1.780  0.4657 -0.1740  0.0052
 2658TIP3    H229610   2.269   6.219   1.872  2.1841 -0.9318  2.1840
 2659TIP3   OH229611   3.565   2.700   1.915 -0.7463 -1.1215  0.2071
 2659TIP3    H129612   3.505   2.763   1.877 -1.3362 -1.5117  0.4762
 2659TIP3    H229613   3.580   2.731   2.004  0.2227 -0.4972 -0.1485
 2660TIP3   OH229614   4.164   2.686   2.546  0.2143  0.3828 -0.2005
 2660TIP3    H129615   4.186   2.703   2.637  0.7773  0.4847 -0.3488
 2660TIP3    H229616   4.072   2.657   2.547  0.4383 -0.3231  0.4673
 2661TIP3   OH229617   6.181   6.122   0.573  0.3721  0.5885  0.2544
 2661TIP3    H129618   6.144   6.202   0.610  1.4805  0.9114  0.6998
 2661TIP3    H229619   6.267   6.149   0.540 -0.1419  0.0855 -1.6414
 2662TIP3   OH229620   5.268   1.176   1.119  0.5765 -0.1351  0.1388
 2662TIP3    H129621   5.225   1.262   1.111  0.7420 -0.1266 -0.7420
 2662TIP3    H229622   5.345   1.193   1.173  0.3612  0.1823  0.3476
 2663TIP3   OH229623   0.237   6.208   1.421 -0.1361 -0.1164  0.0425
 2663TIP3    H129624   0.196   6.268   1.359 -0.2652 -0.4005 -0.1459
 2663TIP3    H229625   0.303   6.161   1.369 -0.4893 -0.6075  0.0365
 2664TIP3   OH229626   4.907   4.128   7.864  0.1869  0.0000  0.2596
 2664TIP3    H129627   4.856   4.094   7.937  1.0881 -1.9829  0.0127
 2664TIP3    H229628   4.848   4.120   7.789 -0.2195  0.6572  0.5012
 2665TIP3   OH229629   1.195   5.355   7.938  0.4361  0.6902 -0.2670
 2665TIP3    H129630   1.137   5.431   7.942 -2.1169 -1.1770  3.1249
 2665TIP3    H229631   1.283   5.392   7.940 -0.6738  3.6237  2.1767
 2666TIP3   OH229632   5.734   5.212   0.776 -0.4587 -0.3517  0.1499
 2666TIP3    H129633   5.709   5.235   0.687 -0.8825 -0.4690  0.2363
 2666TIP3    H229634   5.830   5.216   0.776 -0.4718  2.5366  0.4510
 2667TIP3   OH229635   1.448   5.276   8.154  0.2175 -0.2999  0.2969
 2667TIP3    H129636   1.384   5.232   8.210  0.3542 -0.3120  0.4421
 2667TIP3    H229637   1.489   5.206   8.105 -0.5802 -0.2073 -0.5286
 2668TIP3   OH229638   0.616   2.775   7.228 -0.6977  0.6351  0.1841
 2668TIP3    H129639   0.657   2.691   7.249  1.5597  1.8807  1.0645
 2668TIP3    H229640   0.640   2.792   7.137 -1.3579  0.2403 -0.0709
 2669TIP3   OH229641   6.799   0.153   0.391 -0.5427  0.1546  0.5450
 2669TIP3    H129642   6.875   0.101   0.417 -1.2858 -0.8068  0.8533
 2669TIP3    H229643   6.835   0.221   0.335  0.2810 -1.8036 -1.4546
 2670TIP3   OH229644   0.186   2.093   0.900 -0.2265  0.6461 -0.1517
 2670TIP3    H129645   0.192   2.120   0.991 -1.4826  0.1085  0.1194
 2670TIP3    H229646   0.102   2.047   0.894  1.3023 -2.3685 -0.7546
 2671TIP3   OH229647   3.859   3.844   1.690 -0.2295 -0.4927 -0.0740
 2671TIP3    H129648   3.951   3.868   1.688 -0.0376 -1.1795 -2.5553
 2671TIP3    H229649   3.838   3.835   1.783  1.8240  0.9876  0.5885
 2672TIP3   OH229650   0.492   3.654   7.326 -0.5626 -0.2190 -0.1199
 2672TIP3    H129651   0.490   3.748   7.310  1.5775  0.0622  0.9359
 2672TIP3    H229652   0.521   3.616   7.243  2.1768  0.4553  0.4167
 2673TIP3   OH229653   4.360   5.742   7.729 -0.2946  0.5436 -0.2331
 2673TIP3    H129654   4.420   5.766   7.799 -0.5070  0.3160  0.0318
 2673TIP3    H229655   4.416   5.712   7.657 -0.0397  1.6652 -0.5105
 2674TIP3   OH229656   2.960   1.737   6.781  0.2414  0.0343  0.9649
 2674TIP3    H129657   2.933   1.648   6.756 -0.0443  0.0210  1.3127
 2674TIP3    H229658   2.878   1.781   6.802  0.3181  0.5789  0.1785
 2675TIP3   OH229659   0.975   1.499   2.297  0.3163 -0.2267  0.0450
 2675TIP3    H129660   1.054   1.542   2.330 -0.9235  1.5967  0.8049
 2675TIP3    H229661   0.904   1.556   2.324 -1.2521 -1.5978 -0.9960
 2676TIP3   OH229662   3.363   0.925   2.768 -0.1859  0.3402  0.1558
 2676TIP3    H129663   3.350   0.948   2.860  0.0589 -0.4556  0.3943
 2676TIP3    H229664   3.410   1.000   2.731 -1.6910  1.3917  0.2788
 2677TIP3   OH229665   4.639   4.402   1.866 -0.6603  0.4872  0.2246
 2677TIP3    H129666   4.565   4.448   1.825 -1.2329 -1.0057 -0.4608
 2677TIP3    H229667   4.677   4.467   1.925 -0.9214  2.1321 -1.3291
 2678TIP3   OH229668   6.055   4.950   1.139 -0.3460 -0.4863 -0.5111
 2678TIP3    H129669   6.037   4.992   1.223 -0.3653 -0.1685 -0.6693
 2678TIP3    H229670   6.077   4.860   1.161 -0.1684 -0.3578 -0.1502
 2679TIP3   OH229671   0.914   4.685   7.815  0.1327  0.0188  0.2744
 2679TIP3    H129672   0.872   4.603   7.840  0.4470 -0.4777 -0.7417
 2679TIP3    H229673   0.841   4.746   7.802 -0.0635  0.1418  1.7794
 2680TIP3   OH229674   3.804   0.683   1.930  0.3025 -0.2056  0.1180
 2680TIP3    H129675   3.827   0.615   1.993 -0.2607 -0.0787  0.4693
 2680TIP3    H229676   3.708   0.681   1.927  0.3361 -0.5281 -1.0869
 2681TIP3   OH229677   2.320   4.183   1.784 -0.0757 -0.3520 -0.3409
 2681TIP3    H129678   2.271   4.101   1.779 -0.6682 -0.0686  0.6456
 2681TIP3    H229679   2.406   4.161   1.748  0.1732 -1.7274  0.9739
 2682TIP3   OH229680   6.297   0.871   7.252  0.1153 -0.1920 -0.1357
 2682TIP3    H129681   6.376   0.821   7.270 -0.5373 -1.5494 -0.8672
 2682TIP3    H229682   6.319   0.961   7.276  1.7907 -0.5800 -0.1242
 2683TIP3   OH229683   1.497   3.070   1.177 -0.2636  0.0043  0.5798
 2683TIP3    H129684   1.568   3.106   1.230  0.1683  0.4211 -0.2484
 2683TIP3    H229685   1.542   3.020   1.108 -0.6731  1.4229 -0.7927
 2684TIP3   OH229686   4.350   4.321   1.392 -0.1410 -0.1304  0.5120
 2684TIP3    H129687   4.274   4.290   1.442 -1.0334  0.5149 -0.4151
 2684TIP3    H229688   4.424   4.306   1.450 -0.9243 -1.1333  1.2917
 2685TIP3   OH229689   1.053   3.083   0.720 -0.0080  0.6762 -0.3399
 2685TIP3    H129690   1.108   3.092   0.641 -1.0660  0.8001 -1.0765
 2685TIP3    H229691   1.013   3.169   0.731 -1.2681  0.1675 -0.7403
 2686TIP3   OH229692   5.885   5.641   1.234  1.1219  0.2169 -0.2708
 2686TIP3    H129693   5.889   5.701   1.160  0.1036 -0.9412 -1.2856
 2686TIP3    H229694   5.906   5.555   1.198  1.2203 -0.2781  0.9042
 2687TIP3   OH229695   6.753   6.523   0.597 -0.3280 -0.3377  0.1159
 2687TIP3    H129696   6.802   6.532   0.679  0.2565 -0.2748 -0.2413
 2687TIP3    H229697   6.670   6.484   0.624 -0.7047  0.9524  0.9396
 2688TIP3   OH229698   4.636   3.155   8.327 -0.0866  0.5602 -0.2365
 2688TIP3    H129699   4.664   3.211   8.400  1.5041  1.4922 -1.5010
 2688TIP3    H229700   4.551   3.120   8.355 -0.0680  1.8111  1.5585
 2689TIP3   OH229701   6.727   2.769   7.649  0.4482 -0.5742  0.1856
 2689TIP3    H129702   6.707   2.862   7.639 -0.5102 -0.8471 -0.5795
 2689TIP3    H229703   6.645   2.730   7.679  0.6212 -1.2857 -0.2482
 2690TIP3   OH229704   0.794   3.922   2.190 -0.2277 -0.0541  0.6613
 2690TIP3    H129705   0.847   3.975   2.249  0.8410  0.7970 -0.9896
 2690TIP3    H229706   0.840   3.838   2.184  0.1620  0.1808  0.3457
 2691TIP3   OH229707   4.344   2.279   7.246 -0.6625  0.5318 -0.1482
 2691TIP3    H129708   4.321   2.188   7.263 -0.7685  0.6992  0.6288
 2691TIP3    H229709   4.430   2.275   7.205 -0.4327  0.1165  0.3708
 2692TIP3   OH229710   3.171   0.169   2.661 -0.4267  0.4575 -0.1968
 2692TIP3    H129711   3.203   0.173   2.571  0.3036 -0.6576 -0.0077
 2692TIP3    H229712   3.242   0.206   2.713 -0.5523  0.4327 -0.0095
 2693TIP3   OH229713   5.140   5.814   1.588  0.1121  0.3860 -0.6320
 2693TIP3    H129714   5.110   5.860   1.666  1.1683 -0.7110  0.4703
 2693TIP3    H229715   5.178   5.732   1.622  1.5376  0.3498 -2.2014
 2694TIP3   OH229716   0.941   2.207   0.097 -0.3567 -0.5445 -0.3474
 2694TIP3    H129717   0.849   2.228   0.110 -0.4941  0.4789 -2.6532
 2694TIP3    H229718   0.941   2.123   0.052 -0.2357  0.0420 -1.4699
 2695TIP3   OH229719   3.944   5.791   7.242 -0.9720  0.2517 -0.3306
 2695TIP3    H129720   4.004   5.865   7.251  0.6334 -1.0149 -0.1515
 2695TIP3    H229721   3.910   5.798   7.152 -2.2613  2.1692  0.2370
 2696TIP3   OH229722   0.402   0.067   7.727 -0.0547 -0.1388 -1.0920
 2696TIP3    H129723   0.357   0.009   7.665 -1.8709  0.8669 -0.7678
 2696TIP3    H229724   0.466   0.010   7.770 -0.8764 -1.5873 -1.7073
 2697TIP3   OH229725   3.861   2.093   1.747  0.3914  0.4250  0.0516
 2697TIP3    H129726   3.826   2.009   1.716 -0.3834  0.8247 -0.1897
 2697TIP3    H229727   3.826   2.157   1.685  1.0952  0.9111  0.1509
 2698TIP3   OH229728   4.308   6.907   0.577 -0.1470  0.3827 -0.1476
 2698TIP3    H129729   4.362   6.830   0.592 -1.4685 -0.3446  1.1794
 2698TIP3    H229730   4.356   6.979   0.618  0.6107  0.1011 -0.5134
 2699TIP3   OH229731   4.212   2.334   1.492  0.1637 -0.1665  0.0703
 2699TIP3    H129732   4.176   2.311   1.406  1.1221 -2.8817  0.3163
 2699TIP3    H229733   4.281   2.270   1.508  0.5283  0.7189  2.5656
 2700TIP3   OH229734   3.395   6.043   7.666 -0.0652  0.0950 -0.7798
 2700TIP3    H129735   3.477   6.090   7.655  0.4831 -0.5438  0.4176
 2700TIP3    H229736   3.405   5.963   7.615 -0.1571  0.2798 -1.0849
 2701TIP3   OH229737   3.029   5.866   1.050 -0.0325  0.0108 -0.1736
 2701TIP3    H129738   3.036   5.961   1.050 -2.0252  0.2403  1.5747
 2701TIP3    H229739   3.027   5.842   1.143 -1.0022 -1.5554 -0.5583
 2702TIP3   OH229740   2.245   1.041   7.816 -0.2172 -0.1099 -0.4211
 2702TIP3    H129741   2.178   1.004   7.759 -1.0110 -0.4157  0.6825
 2702TIP3    H229742   2.235   1.136   7.808 -1.3526 -0.1486  0.3671
 2703TIP3   OH229743   4.562   2.945   1.550  0.0996 -0.1039  0.2432
 2703TIP3    H129744   4.487   2.888   1.533  0.4237  0.1697 -2.5597
 2703TIP3    H229745   4.638   2.893   1.524  0.7761  0.1946  1.5417
 2704TIP3   OH229746   6.309   6.940   2.623  0.0750  0.7172  0.2973
 2704TIP3    H129747   6.347   7.027   2.608  1.1430  0.3773  0.9366
 2704TIP3    H229748   6.225   6.943   2.577  0.9971  1.3894 -1.4547
 2705TIP3   OH229749   3.534   4.413   2.516  0.0251  0.6223 -0.3885
 2705TIP3    H129750   3.605   4.406   2.579  1.6543 -0.7685 -2.2831
 2705TIP3    H229751   3.520   4.508   2.506  1.4528  0.9108  0.1510
 2706TIP3   OH229752   5.823   6.158   8.085 -0.1185 -0.2362 -0.1896
 2706TIP3    H129753   5.776   6.095   8.030 -0.0426 -0.1761 -0.3230
 2706TIP3    H229754   5.894   6.190   8.030  0.1299 -0.3885  0.0418
 2707TIP3   OH229755   5.276   3.422   0.499 -0.3496 -0.1576 -0.1771
 2707TIP3    H129756   5.271   3.517   0.503 -0.4036 -0.1886  0.8371
 2707TIP3    H229757   5.190   3.392   0.529  0.5135 -0.5365  2.0771
 2708TIP3   OH229758   5.608   0.597   7.506  0.3794  0.2699  0.4455
 2708TIP3    H129759   5.579   0.552   7.427  0.9752  1.0095 -0.2201
 2708TIP3    H229760   5.558   0.557   7.577  0.3318 -0.8794 -0.2155
 2709TIP3   OH229761   5.877   0.360   0.862 -0.6615 -0.0267  0.4781
 2709TIP3    H129762   5.902   0.452   0.858 -0.4643 -0.1224 -0.8751
 2709TIP3    H229763   5.942   0.321   0.921 -0.3583  0.5775  0.5549
 2710TIP3   OH229764   4.027   1.954   0.522  0.2651 -0.1869 -0.1491
 2710TIP3    H129765   4.067   2.023   0.575  1.9568 -0.8423 -0.4837
 2710TIP3    H229766   4.099   1.891   0.508 -0.9840 -1.5652 -0.5951
 2711TIP3   OH229767   0.349   0.059   0.530  0.5529 -0.0780 -0.0220
 2711TIP3    H129768   0.421   0.103   0.575  1.5056 -0.4117 -1.1502
 2711TIP3    H229769   0.341   0.106   0.447 -1.4051  0.7558  0.5728
 2712TIP3   OH229770   0.783   6.492   0.289 -0.4529  0.0767 -0.2820
 2712TIP3    H129771   0.788   6.431   0.215  0.6960 -1.5424  1.0457
 2712TIP3    H229772   0.695   6.481   0.324 -0.5315 -0.2153 -0.5711
 2713TIP3   OH229773   3.108   0.865   0.956  0.7814  0.8238 -0.6562
 2713TIP3    H129774   3.200   0.842   0.953  0.7757  0.5326  0.7400
 2713TIP3    H229775   3.065   0.800   0.900  1.1321 -0.7156  0.7948
 2714TIP3   OH229776   4.084   2.447   7.786  0.2873 -0.0854  0.0458
 2714TIP3    H129777   4.115   2.484   7.868  1.8278  0.9660 -0.9719
 2714TIP3    H229778   4.157   2.395   7.753  0.2778  0.7551 -1.3903
 2715TIP3   OH229779   0.672   1.155   7.884 -0.5901 -0.2609 -0.7379
 2715TIP3    H129780   0.663   1.069   7.925 -0.2614  0.7169  1.4964
 2715TIP3    H229781   0.671   1.217   7.956 -1.7968  1.7322 -2.3660
 2716TIP3   OH229782   6.826   4.730   0.873  0.1313 -0.2412  0.3103
 2716TIP3    H129783   6.889   4.713   0.942  0.0339  0.5219  0.5916
 2716TIP3    H229784   6.777   4.806   0.903  0.3739  0.3659 -0.7845
 2717TIP3   OH229785   2.577   2.589   7.612  0.0844 -0.8041 -0.1205
 2717TIP3    H129786   2.524   2.667   7.622  0.9084 -0.2323 -0.1515
 2717TIP3    H229787   2.537   2.524   7.670  0.8600  0.3966  1.8554
 2718TIP3   OH229788   3.547   4.316   0.267  0.0795  0.3199 -0.2345
 2718TIP3    H129789   3.502   4.239   0.234  2.4305 -1.2629  0.0378
 2718TIP3    H229790   3.483   4.357   0.326 -1.4006 -1.1013 -0.7725
 2719TIP3   OH229791   3.143   4.344   1.159  0.1010  1.2053  0.9750
 2719TIP3    H129792   3.176   4.352   1.249  0.3402 -0.7510  1.1024
 2719TIP3    H229793   3.115   4.253   1.151  2.7782  0.4459 -1.7886
 2720TIP3   OH229794   6.056   0.433   8.260  0.1712  0.5950  0.1705
 2720TIP3    H129795   6.020   0.517   8.287 -1.3293 -0.1326  0.5623
 2720TIP3    H229796   6.083   0.391   8.342 -0.1400  0.2364  0.0901
 2721TIP3   OH229797   2.171   2.349   2.837  0.5086 -0.4805  0.5932
 2721TIP3    H129798   2.162   2.430   2.786 -1.1168 -0.5605  0.6919
 2721TIP3    H229799   2.216   2.289   2.778  0.8689  0.1911  0.1644
 2722TIP3   OH229800   0.936   6.085   7.871 -0.3802  0.1337 -0.0264
 2722TIP3    H129801   0.984   6.004   7.851 -1.4667  0.1001 -3.0281
 2722TIP3    H229802   0.849   6.055   7.896 -0.9694  0.2770 -1.7123
 2723TIP3   OH229803   0.050   0.172   2.193  1.2197 -0.2194  0.6157
 2723TIP3    H129804   0.098   0.172   2.110  0.6379  3.5886  0.1158
 2723TIP3    H229805   0.119   0.175   2.260  1.6777 -1.0665  0.1960
 2724TIP3   OH229806   3.624   6.695   1.360 -0.7226  0.0904  0.4730
 2724TIP3    H129807   3.673   6.774   1.338 -1.2121  0.4228  0.5433
 2724TIP3    H229808   3.533   6.717   1.340 -0.9402 -0.2427  1.0637
 2725TIP3   OH229809   4.021   3.573   1.720 -0.3287  0.4740  0.1416
 2725TIP3    H129810   4.076   3.569   1.642  0.1906  0.1886  0.5136
 2725TIP3    H229811   3.940   3.529   1.695  0.4805 -1.1758  0.2674
 2726TIP3   OH229812   0.111   3.268   7.038 -0.5354  0.5678 -0.1447
 2726TIP3    H129813   0.183   3.329   7.022 -0.4548  0.7006  0.6785
 2726TIP3    H229814   0.033   3.315   7.008 -0.9111  2.4046  3.2058
 2727TIP3   OH229815   2.397   5.155   1.634  0.0561  0.2459 -0.5009
 2727TIP3    H129816   2.399   5.240   1.590 -0.2948 -0.4879 -1.9889
 2727TIP3    H229817   2.480   5.151   1.681 -1.1446  2.6586  2.1400
 2728TIP3   OH229818   0.943   1.350   1.435  0.2486  0.4370 -0.2693
 2728TIP3    H129819   0.925   1.286   1.504  0.3719 -1.2734 -1.7609
 2728TIP3    H229820   0.985   1.423   1.481 -1.2719  0.1563  1.7196
 2729TIP3   OH229821   4.938   6.781   7.577 -0.0043  0.2882 -0.2003
 2729TIP3    H129822   4.861   6.798   7.631  1.2857 -0.0562  1.8314
 2729TIP3    H229823   4.964   6.868   7.545 -0.6438  0.5284 -0.0811
 2730TIP3   OH229824   5.853   2.587   3.072  0.2236  0.5911  1.1284
 2730TIP3    H129825   5.788   2.518   3.082  0.0883  0.6750  0.8193
 2730TIP3    H229826   5.920   2.566   3.138 -1.0218  1.5712  2.7977
 2731TIP3   OH229827   0.325   0.060   1.474 -0.0629  0.4930  0.4416
 2731TIP3    H129828   0.248   0.078   1.419  1.0015  0.7142 -1.0248
 2731TIP3    H229829   0.334  -0.035   1.472 -1.3334  0.2760  2.1401
 2732TIP3   OH229830   3.797   1.614   7.425 -0.3798 -0.1252 -0.1310
 2732TIP3    H129831   3.838   1.554   7.362  0.9518  1.7969 -1.2134
 2732TIP3    H229832   3.743   1.672   7.371 -1.1023  0.0690  0.7944
 2733TIP3   OH229833   1.497   5.130   1.142 -0.1145 -0.0283  0.1315
 2733TIP3    H129834   1.487   5.169   1.229 -0.0791 -0.4801  0.3425
 2733TIP3    H229835   1.565   5.183   1.100 -1.1438  1.1055 -0.1675
 2734TIP3   OH229836   5.905   1.097   0.095  0.0370  0.0309  0.0033
 2734TIP3    H129837   5.843   1.058   0.033 -1.1073  0.6581  0.7115
 2734TIP3    H229838   5.857   1.098   0.178  1.4073 -0.4777  0.8361
 2735TIP3   OH229839   5.671   0.292   8.245  0.7233  0.6103 -0.1794
 2735TIP3    H129840   5.728   0.247   8.307 -0.1649  1.3768  1.2492
 2735TIP3    H229841   5.624   0.356   8.298 -0.7056  0.7103 -1.4963
 2736TIP3   OH229842   4.071   1.839   1.692  0.4912  0.4192 -0.2482
 2736TIP3    H129843   4.024   1.922   1.702  1.6085  0.9456  0.9470
 2736TIP3    H229844   4.145   1.860   1.635  0.4146  0.0833 -0.4704
 2737TIP3   OH229845   4.048   4.385   0.612  0.6563  0.7170  0.1619
 2737TIP3    H129846   4.036   4.342   0.696 -0.5595 -0.6161 -0.6476
 2737TIP3    H229847   4.125   4.440   0.624  0.1752  1.0120  2.3001
 2738TIP3   OH229848   2.749   1.977   1.989 -0.5418  0.4310 -0.4038
 2738TIP3    H129849   2.663   1.941   1.965 -0.2481 -0.7903  0.3189
 2738TIP3    H229850   2.792   1.907   2.037  1.7774  0.1959 -2.6513
 2739TIP3   OH229851   0.954   2.794   2.768 -0.4336  0.3842 -0.2835
 2739TIP3    H129852   1.026   2.774   2.708  1.4402  0.9610  1.6405
 2739TIP3    H229853   0.952   2.889   2.772 -2.5207  0.4491 -1.6177
 2740TIP3   OH229854   6.415   2.136   1.453 -0.1388  0.4989  0.0587
 2740TIP3    H129855   6.459   2.096   1.528  0.7433  0.7050 -0.3449
 2740TIP3    H229856   6.410   2.229   1.475  2.9342  1.1314 -1.4304
 2741TIP3   OH229857   0.939   5.782   0.911  0.1345 -0.3260  0.1902
 2741TIP3    H129858   0.890   5.835   0.849  0.5692 -1.6462 -1.3471
 2741TIP3    H229859   0.882   5.776   0.988 -1.2806 -0.2594 -0.8181
 2742TIP3   OH229860   6.510   6.658   0.124  0.2653  0.4820 -0.1782
 2742TIP3    H129861   6.465   6.703   0.053  0.7050  0.9171 -0.1804
 2742TIP3    H229862   6.572   6.722   0.159  1.1327 -0.2178 -0.4033
 2743TIP3   OH229863   0.766   1.552   0.924  0.1052  0.2774 -0.2776
 2743TIP3    H129864   0.815   1.482   0.881  1.9719  2.0725 -1.2994
 2743TIP3    H229865   0.686   1.561   0.873  0.2773 -0.4822 -0.7001
 2744TIP3   OH229866   2.323   3.771   0.542 -0.3301 -0.0263 -0.4480
 2744TIP3    H129867   2.407   3.814   0.528  0.6399 -1.3534  0.9193
 2744TIP3    H229868   2.288   3.810   0.622  0.4453 -1.4817  0.6679
 2745TIP3   OH229869   3.092   0.719   7.813  0.0168 -0.2501 -0.1345
 2745TIP3    H129870   3.141   0.778   7.755 -0.0973 -1.2881 -1.3211
 2745TIP3    H229871   3.156   0.689   7.877 -0.0386  1.5483  0.8544
 2746TIP3   OH229872   2.023   4.394   8.279 -0.3234  0.3539 -0.4910
 2746TIP3    H129873   1.932   4.421   8.270  0.2281  1.7973 -2.2220
 2746TIP3    H229874   2.073   4.466   8.241  1.5012 -0.8482 -0.4643
 2747TIP3   OH229875   0.217   6.478   7.242  0.2370 -0.0608  0.1742
 2747TIP3    H129876   0.182   6.396   7.278  1.5312 -0.3186  0.8901
 2747TIP3    H229877   0.306   6.482   7.274 -0.6263  3.1013  2.6125
 2748TIP3   OH229878   4.362   5.466   8.003 -0.0735  0.4996  0.7537
 2748TIP3    H129879   4.312   5.418   8.069  0.7587 -1.1181  0.2617
 2748TIP3    H229880   4.300   5.530   7.968 -2.0060 -1.6964 -0.1317
 2749TIP3   OH229881   3.184   0.723   6.398 -0.1840 -0.0303  0.8482
 2749TIP3    H129882   3.142   0.690   6.477 -0.6511 -0.1893  0.5378
 2749TIP3    H229883   3.173   0.652   6.334  0.1075  0.1347  0.6130
 2750TIP3   OH229884   6.761   1.055   7.605  0.1024  1.1992  0.4508
 2750TIP3    H129885   6.703   1.125   7.576 -0.4553  1.1229  1.3462
 2750TIP3    H229886   6.702   0.984   7.629  0.6923 -0.1639 -1.8336
 2751TIP3   OH229887   4.516   0.858   1.791  0.2739  0.2527  0.0293
 2751TIP3    H129888   4.437   0.814   1.823 -0.0976 -0.8122 -2.1457
 2751TIP3    H229889   4.539   0.920   1.860 -2.2483  0.3393  0.8830
 2752TIP3   OH229890   3.260   0.185   2.400  0.1500 -0.3002  0.0426
 2752TIP3    H129891   3.261   0.196   2.305  2.3316  1.8126  0.2234
 2752TIP3    H229892   3.327   0.120   2.418  1.0378  0.6438  0.2201
 2753TIP3   OH229893   1.869   4.339   7.498  0.0696 -0.0475  0.6885
 2753TIP3    H129894   1.825   4.260   7.466 -1.3883  0.8061  0.5084
 2753TIP3    H229895   1.863   4.332   7.594  0.8216 -0.6241  0.7000
 2754TIP3   OH229896   3.249   2.926   8.280  0.0684  0.5668 -0.3952
 2754TIP3    H129897   3.281   2.956   8.195  0.3762  1.3761 -0.0062
 2754TIP3    H229898   3.202   2.845   8.261 -0.1015  0.8842 -1.3763
 2755TIP3   OH229899   4.868   2.686   8.219  0.6110 -0.1257 -0.4186
 2755TIP3    H129900   4.858   2.639   8.302 -1.5337  1.2221  0.1590
 2755TIP3    H229901   4.867   2.617   8.152  0.4244 -1.0932  0.5456
 2756TIP3   OH229902   3.214   3.858   1.034  0.4980 -0.6116  0.2441
 2756TIP3    H129903   3.159   3.925   1.073  0.2999  0.1635 -1.2825
 2756TIP3    H229904   3.213   3.878   0.940  1.6670 -1.8456 -0.0633
 2757TIP3   OH229905   1.479   4.646   8.260  0.1663 -0.0094  0.5773
 2757TIP3    H129906   1.394   4.680   8.233  0.5771  0.4431 -0.1883
 2757TIP3    H229907   1.469   4.551   8.256 -0.2191  0.0431  0.2139
 2758TIP3   OH229908   6.385   0.885   1.072 -0.2004  0.4691  0.4061
 2758TIP3    H129909   6.406   0.817   1.007 -1.3833  1.0625 -0.6289
 2758TIP3    H229910   6.294   0.867   1.095 -0.5970  1.8203 -0.0453
 2759TIP3   OH229911   1.271   0.745   7.043 -0.1780 -0.4098 -0.3003
 2759TIP3    H129912   1.334   0.718   7.110  0.1195  0.1551 -0.3505
 2759TIP3    H229913   1.321   0.801   6.984 -0.3709 -1.1199 -1.1547
 2760TIP3   OH229914   2.595   3.616   1.461 -0.3304  0.4352  0.0026
 2760TIP3    H129915   2.642   3.578   1.536 -3.2445 -1.7600  0.9009
 2760TIP3    H229916   2.556   3.696   1.496 -0.9580 -0.1247  0.6194
 2761TIP3   OH229917   2.990   1.698   0.626 -0.0715 -0.7721  0.2288
 2761TIP3    H129918   3.050   1.655   0.565 -0.1986 -1.7055  0.7407
 2761TIP3    H229919   2.994   1.791   0.602  1.9622 -0.7153  0.5409
 2762TIP3   OH229920   5.381   1.248   7.329 -0.0279 -0.6373  0.4277
 2762TIP3    H129921   5.328   1.327   7.314  1.0847  0.2792  1.1561
 2762TIP3    H229922   5.460   1.262   7.276 -0.0295 -1.4886  0.1909
 2763TIP3   OH229923   4.048   6.821   8.011 -0.1284 -0.2105 -0.0703
 2763TIP3    H129924   4.133   6.780   8.023  0.8732  1.2184 -1.8137
 2763TIP3    H229925   4.030   6.864   8.095  0.1155 -1.7820  0.8155
 2764TIP3   OH229926   5.365   6.557   1.501 -0.0976 -0.4264  0.1882
 2764TIP3    H129927   5.418   6.521   1.430  1.5406  0.5066  0.8645
 2764TIP3    H229928   5.324   6.481   1.542 -0.7401 -1.0045 -1.4753
 2765TIP3   OH229929   0.790   1.493   0.584  0.0705 -0.7303 -0.0339
 2765TIP3    H129930   0.797   1.589   0.585 -2.9668 -0.3742 -1.2606
 2765TIP3    H229931   0.748   1.471   0.667 -2.4373 -0.5137 -1.1420
 2766TIP3   OH229932   1.143   2.781   2.217 -0.2737 -0.1493 -0.3258
 2766TIP3    H129933   1.060   2.826   2.233 -0.8407 -1.5152  0.6914
 2766TIP3    H229934   1.209   2.837   2.259 -0.5411  1.2679 -1.6656
 2767TIP3   OH229935   6.559   4.089   0.070 -0.4083  0.0553 -0.2094
 2767TIP3    H129936   6.469   4.107   0.093 -0.6893  0.6771 -1.6888
 2767TIP3    H229937   6.608   4.166   0.099 -0.5196  0.1808 -0.3568
 2768TIP3   OH229938   0.031   2.952   7.474  0.1858  0.9262  0.0312
 2768TIP3    H129939   0.036   2.995   7.389  1.2705  1.2605  0.2496
 2768TIP3    H229940  -0.027   2.877   7.460  0.0978  1.1620 -0.9143
 2769TIP3   OH229941   6.305   0.866   8.371 -0.1349 -0.4213  0.0329
 2769TIP3    H129942   6.380   0.840   8.424 -0.4820 -0.9567  0.2688
 2769TIP3    H229943   6.324   0.956   8.345  0.2040 -0.2727  0.7694
 2770TIP3   OH229944   3.771   0.397   3.039 -0.1282 -0.4732  0.2888
 2770TIP3    H129945   3.782   0.302   3.046 -0.6304 -0.5817 -0.3861
 2770TIP3    H229946   3.850   0.433   3.080  1.5206 -1.2182 -2.0404
 2771TIP3   OH229947   1.496   4.826   2.607  0.5343  0.2651 -0.0464
 2771TIP3    H129948   1.445   4.799   2.684  3.1490 -1.7008  1.1364
 2771TIP3    H229949   1.467   4.767   2.537 -0.5170  0.8216 -0.1082
 2772TIP3   OH229950   0.391   1.388   1.068 -0.3969 -0.4913  0.0265
 2772TIP3    H129951   0.300   1.361   1.082  0.0128 -1.7583  0.3103
 2772TIP3    H229952   0.388   1.439   0.987 -1.6089  0.8268  0.8348
 2773TIP3   OH229953   4.984   6.600   1.788  0.3696  0.4473 -0.4238
 2773TIP3    H129954   4.970   6.516   1.744 -0.6659  0.9054 -1.0024
 2773TIP3    H229955   5.046   6.580   1.858 -1.7363 -1.3717  1.0777
 2774TIP3   OH229956   2.419   1.305   2.911  0.1344 -0.0472 -0.3460
 2774TIP3    H129957   2.365   1.338   2.982  1.4072  0.3724  0.4612
 2774TIP3    H229958   2.415   1.373   2.843  1.3562  1.0055  0.5970
 2775TIP3   OH229959   3.673   6.611   0.528 -0.6179  0.0417 -0.3284
 2775TIP3    H129960   3.633   6.657   0.455  2.3933  1.2585 -1.3427
 2775TIP3    H229961   3.672   6.518   0.502  0.3360  0.4462 -1.9384
 2776TIP3   OH229962   1.812   6.010   1.228  0.1296 -0.2357  0.1226
 2776TIP3    H129963   1.749   5.968   1.169 -2.8971  1.8418  1.6413
 2776TIP3    H229964   1.814   5.953   1.305 -0.5502  0.1247  0.4087
 2777TIP3   OH229965   2.768   3.379   7.971 -0.5311  0.5138 -0.3195
 2777TIP3    H129966   2.734   3.405   8.057  1.1988  0.8498  0.3292
 2777TIP3    H229967   2.860   3.408   7.973 -0.3999  0.3482 -2.2205
 2778TIP3   OH229968   2.995   6.811   1.921  0.3482  0.2525  0.3348
 2778TIP3    H129969   2.938   6.747   1.963  0.2876  0.1290  0.0644
 2778TIP3    H229970   3.082   6.790   1.952  0.0775  1.4460  2.0412
 2779TIP3   OH229971   1.684   4.061   2.538 -0.0869 -0.1490  0.0719
 2779TIP3    H129972   1.626   3.984   2.529 -0.0857  0.0735 -2.6448
 2779TIP3    H229973   1.628   4.135   2.516  0.6542  0.3088 -0.2886
 2780TIP3   OH229974   5.165   2.672   7.458  0.0821 -0.6318  0.1866
 2780TIP3    H129975   5.213   2.751   7.432  0.0227 -0.0179  1.8680
 2780TIP3    H229976   5.228   2.621   7.509 -0.7385 -0.2354  1.6604
 2781TIP3   OH229977   1.922   3.799   1.338  0.0506 -0.0540 -0.1025
 2781TIP3    H129978   1.852   3.751   1.384 -0.3515 -2.0761 -2.5854
 2781TIP3    H229979   1.879   3.879   1.308 -1.0391 -0.8982 -0.9101
 2782TIP3   OH229980   4.147   3.958   1.479 -0.2371  0.0829  0.0579
 2782TIP3    H129981   4.151   3.977   1.573 -0.7905 -0.9598  0.3023
 2782TIP3    H229982   4.058   3.980   1.454 -0.2174 -0.0518 -0.1307
 2783TIP3   OH229983   0.538   6.477   0.430  0.3711 -0.2537  0.8674
 2783TIP3    H129984   0.502   6.460   0.343  1.9397 -0.8348  0.2977
 2783TIP3    H229985   0.498   6.411   0.486 -1.0197  0.4222  0.7118
 2784TIP3   OH229986   1.573   0.474   7.079 -0.5181 -0.3238 -0.3675
 2784TIP3    H129987   1.658   0.450   7.042 -0.3811 -0.9367  0.3045
 2784TIP3    H229988   1.532   0.390   7.100  0.0159 -0.0474  2.1714
 2785TIP3   OH229989   6.044   2.260   7.284 -0.0403 -0.1136 -0.7878
 2785TIP3    H129990   5.960   2.304   7.297  0.6969  0.7596  1.3862
 2785TIP3    H229991   6.089   2.313   7.218 -0.5648  0.3202 -0.8078
 2786TIP3   OH229992   1.923   4.864   0.917 -0.5711  0.0224  0.2963
 2786TIP3    H129993   1.929   4.798   0.847 -1.2640 -0.2054  0.4408
 2786TIP3    H229994   1.866   4.824   0.982  0.3366  0.1016  1.1557
 2787TIP3   OH229995   6.162   4.759   1.635  0.0633 -0.0456  0.1329
 2787TIP3    H129996   6.090   4.740   1.575  0.9659  0.4873 -1.1781
 2787TIP3    H229997   6.169   4.681   1.689 -2.5527  0.5248  1.4744
 2788TIP3   OH229998   0.117   0.369   1.711 -0.2368 -0.1746 -0.1390
 2788TIP3    H129999   0.090   0.278   1.706 -2.0003  0.1767  1.5082
 2788TIP3    H230000   0.168   0.375   1.793  2.0735 -0.1218 -1.4859
 2789TIP3   OH230001   4.280   2.598   0.301  0.0088  0.1886 -0.2215
 2789TIP3    H130002   4.233   2.661   0.246  0.1013  0.5049  0.0561
 2789TIP3    H230003   4.342   2.556   0.242  0.3434  0.7684 -0.2983
 2790TIP3   OH230004   5.896   6.913   0.321  0.0527  0.5176 -0.4732
 2790TIP3    H130005   5.829   6.872   0.267 -0.3696  0.8577 -0.2119
 2790TIP3    H230006   5.850   6.940   0.401  0.9815 -1.4305  0.8020
 2791TIP3   OH230007   4.269   1.270   1.763 -0.0096 -0.1444  0.1110
 2791TIP3    H130008   4.357   1.281   1.726  0.2425  0.2381  0.8122
 2791TIP3    H230009   4.264   1.177   1.786 -0.9569 -0.9323 -2.8258
 2792TIP3   OH230010   2.041   3.687   7.950  0.5623  0.7173  0.7478
 2792TIP3    H130011   2.065   3.696   8.042  0.3722 -1.7840  1.1084
 2792TIP3    H230012   1.953   3.649   7.952  0.2873  1.2478 -0.4929
 2793TIP3   OH230013   6.565   1.960   8.346 -0.1900  0.0280  0.5623
 2793TIP3    H130014   6.570   1.902   8.422  1.4700 -0.3220  0.2172
 2793TIP3    H230015   6.653   1.959   8.309 -1.2835 -1.0399 -2.2681
 2794TIP3   OH230016   6.670   5.543   1.511 -0.6774  0.2436  0.2795
 2794TIP3    H130017   6.703   5.453   1.510 -1.3711 -0.0198 -1.2414
 2794TIP3    H230018   6.609   5.547   1.438 -1.3322  1.7149  0.8668
 2795TIP3   OH230019   3.246   5.167   1.429 -0.4638  0.1351 -0.2058
 2795TIP3    H130020   3.280   5.164   1.518  1.1251 -0.0998 -0.8015
 2795TIP3    H230021   3.311   5.123   1.376 -1.8230 -0.5553 -1.3758
 2796TIP3   OH230022   5.792   2.696   0.302 -0.1877 -0.4882 -0.0901
 2796TIP3    H130023   5.711   2.732   0.263 -1.1016 -2.0964  0.2518
 2796TIP3    H230024   5.799   2.608   0.266  0.7175 -0.8318  0.8819
 2797TIP3   OH230025   0.306   6.307   8.357  0.0530  0.4590 -0.6201
 2797TIP3    H130026   0.311   6.213   8.340 -1.3737  0.2258  0.1308
 2797TIP3    H230027   0.368   6.322   8.428 -0.3831 -0.0870 -0.1152
 2798TIP3   OH230028   1.064   3.078   1.018 -0.0926 -0.3505  0.0459
 2798TIP3    H130029   1.080   3.163   1.058 -0.9583 -0.4460  0.6203
 2798TIP3    H230030   1.086   3.090   0.926  1.5012 -0.0043  0.4412
 2799TIP3   OH230031   2.280   5.061   8.233 -0.1875  0.2723  0.3876
 2799TIP3    H130032   2.316   5.115   8.163  0.6405 -1.0315 -0.2191
 2799TIP3    H230033   2.185   5.064   8.219 -0.2415  2.2344  0.8865
 2800TIP3   OH230034   6.646   2.857   0.975 -0.0602 -0.1894  0.0003
 2800TIP3    H130035   6.711   2.799   0.937 -0.5191 -0.1867 -0.8230
 2800TIP3    H230036   6.617   2.813   1.055  1.0438 -0.1177  0.4538
 2801TIP3   OH230037   1.551   6.375   0.732 -0.3547  0.2257  0.3641
 2801TIP3    H130038   1.610   6.412   0.797 -0.2344  2.3688 -0.8408
 2801TIP3    H230039   1.572   6.282   0.731  0.7797  0.4009  2.1881
 2802TIP3   OH230040   3.161   4.827   1.706  0.0607 -0.2595 -0.4283
 2802TIP3    H130041   3.223   4.846   1.777  1.2662  0.4384 -1.6182
 2802TIP3    H230042   3.076   4.848   1.743  0.3175 -2.5664  1.7237
 2803TIP3   OH230043   1.277   4.077   8.357  0.4337 -0.5692 -0.0235
 2803TIP3    H130044   1.357   4.030   8.333  0.6097  0.4134 -1.4576
 2803TIP3    H230045   1.249   4.120   8.277 -0.8179  0.1864  0.7803
 2804TIP3   OH230046   0.588   0.289   6.357 -0.3036  0.2697 -0.1077
 2804TIP3    H130047   0.499   0.254   6.358 -0.0028 -0.5057  1.0476
 2804TIP3    H230048   0.616   0.284   6.266 -0.2601 -2.5589  0.0014
 2805TIP3   OH230049   6.153   0.347   0.698 -0.2004  0.2450 -0.6009
 2805TIP3    H130050   6.200   0.307   0.771  1.0446 -0.4918 -1.7610
 2805TIP3    H230051   6.164   0.286   0.625 -4.0512 -0.6423 -0.6949
 2806TIP3   OH230052   2.303   6.961   7.451 -0.1838  0.3041  0.0395
 2806TIP3    H130053   2.351   7.042   7.462  1.2955 -0.5247 -0.1045
 2806TIP3    H230054   2.214   6.981   7.483  0.1440  1.9500 -0.0048
 2807TIP3   OH230055   2.592   2.978   8.032  0.3033  0.3107  0.2556
 2807TIP3    H130056   2.506   2.994   7.993 -0.5965 -0.9958  1.5912
 2807TIP3    H230057   2.574   2.964   8.125  2.2637  2.3295  1.0318
 2808TIP3   OH230058   3.472   6.097   2.163 -0.2646 -0.0924  0.0201
 2808TIP3    H130059   3.558   6.137   2.175 -0.0008  0.1577 -2.2298
 2808TIP3    H230060   3.464   6.034   2.234  0.3197  2.2202  2.2539
 2809TIP3   OH230061   0.339   3.684   1.045 -0.0656  0.3713  0.7017
 2809TIP3    H130062   0.314   3.720   1.130  2.4340 -1.4943  2.3166
 2809TIP3    H230063   0.286   3.605   1.036 -0.0915  0.3946  0.6443
 2810TIP3   OH230064   2.342   0.875   0.222 -0.8266  0.1291 -0.2462
 2810TIP3    H130065   2.265   0.908   0.176 -0.5431  2.1324  0.6271
 2810TIP3    H230066   2.409   0.942   0.209 -0.7553  0.8536  3.0759
 2811TIP3   OH230067   1.862   1.123   8.223 -0.2016  0.1752  0.6345
 2811TIP3    H130068   1.853   1.215   8.245 -1.2036  0.3097 -0.2605
 2811TIP3    H230069   1.812   1.076   8.289  1.0676  0.1743  1.6419
 2812TIP3   OH230070   2.807   1.529   8.220 -0.2142  0.7511 -0.2766
 2812TIP3    H130071   2.744   1.555   8.154 -0.9766  1.6173  0.7522
 2812TIP3    H230072   2.762   1.459   8.269  0.8902 -0.9041 -1.5147
 2813TIP3   OH230073   2.613   6.786   7.560 -0.6468  0.5188 -0.2675
 2813TIP3    H130074   2.663   6.732   7.498 -1.5022 -1.0085  0.3281
 2813TIP3    H230075   2.664   6.867   7.566  1.3606 -0.6644 -0.2615
 2814TIP3   OH230076   1.045   0.324   1.364  0.6009  0.2789 -0.3385
 2814TIP3    H130077   0.975   0.316   1.429  0.1159 -0.6636 -0.9518
 2814TIP3    H230078   1.025   0.406   1.318  0.7084  0.7317  0.4015
 2815TIP3   OH230079   5.283   5.975   1.412 -0.2124 -0.6066 -0.0031
 2815TIP3    H130080   5.249   5.899   1.459 -1.6104  0.4489  0.7657
 2815TIP3    H230081   5.223   5.988   1.339 -0.6868  0.4318  0.5414
 2816TIP3   OH230082   4.859   5.278   7.896  0.3729 -0.3957 -0.3441
 2816TIP3    H130083   4.793   5.280   7.965 -0.9215  0.3202 -1.5502
 2816TIP3    H230084   4.819   5.325   7.823  2.0800 -0.2683 -1.2538
 2817TIP3   OH230085   3.179   5.458   1.386  0.2398  0.0792  0.0444
 2817TIP3    H130086   3.210   5.373   1.418 -0.5432 -0.1191  0.3126
 2817TIP3    H230087   3.259   5.507   1.366  0.6979 -0.8866 -0.5723
 2818TIP3   OH230088   5.459   2.656   1.330  0.2114 -0.1484 -0.1220
 2818TIP3    H130089   5.546   2.619   1.315 -0.7864 -2.2426 -1.0863
 2818TIP3    H230090   5.472   2.751   1.325  2.0058 -0.4483 -2.7602
 2819TIP3   OH230091   1.792   6.445   8.077 -0.1746 -0.2473 -0.1995
 2819TIP3    H130092   1.857   6.510   8.048  0.3240 -0.0120  1.3244
 2819TIP3    H230093   1.709   6.491   8.073 -0.2999 -0.5564 -2.2001
 2820TIP3   OH230094   1.729   1.819   1.159  0.2928 -0.2068  0.2602
 2820TIP3    H130095   1.726   1.845   1.251  0.9372  1.1429 -0.0887
 2820TIP3    H230096   1.784   1.740   1.159  2.8296  1.4498  0.7052
 2821TIP3   OH230097   1.791   0.612   0.374  0.1289 -0.0299 -0.1195
 2821TIP3    H130098   1.821   0.528   0.408  2.4012  1.2330  1.3037
 2821TIP3    H230099   1.840   0.622   0.292  0.9846  0.5041  0.4424
 2822TIP3   OH230100   3.932   1.577   2.789 -0.0085  0.4841 -0.2161
 2822TIP3    H130101   3.842   1.606   2.797 -0.5118 -0.0070 -2.9302
 2822TIP3    H230102   3.930   1.483   2.808  0.4441  0.8882  2.1306
 2823TIP3   OH230103   4.587   3.188   0.563  0.3870 -0.1130 -0.6526
 2823TIP3    H130104   4.674   3.182   0.602  0.7859 -0.1853 -1.5510
 2823TIP3    H230105   4.528   3.158   0.633  1.1277 -0.6315 -0.2346
 2824TIP3   OH230106   2.254   6.101   7.198  0.0475 -0.5056 -0.2015
 2824TIP3    H130107   2.197   6.042   7.148  1.4250 -1.2804 -0.9026
 2824TIP3    H230108   2.247   6.185   7.153  0.4710 -0.9377 -1.1001
 2825TIP3   OH230109   0.173   6.043   8.029 -0.4476 -0.7784  0.3534
 2825TIP3    H130110   0.116   6.081   8.095  0.9176 -0.8660  1.6537
 2825TIP3    H230111   0.115   6.021   7.955 -1.7127  1.0440  0.7558
 2826TIP3   OH230112   1.262   6.614   2.842  0.4030 -0.4507 -0.2547
 2826TIP3    H130113   1.209   6.687   2.875  0.8728  0.3304 -1.2100
 2826TIP3    H230114   1.334   6.606   2.905 -0.4648 -1.0998  0.6932
 2827TIP3   OH230115   0.603   6.377   1.777  0.4251  0.0074  0.7855
 2827TIP3    H130116   0.556   6.364   1.859 -0.4225 -3.0368 -0.0329
 2827TIP3    H230117   0.536   6.402   1.714  0.6406 -0.1321  0.4981
 2828TIP3   OH230118   5.339   3.262   2.387 -0.2034 -0.4472 -0.3014
 2828TIP3    H130119   5.244   3.267   2.396 -0.2233 -0.4115 -0.5293
 2828TIP3    H230120   5.367   3.353   2.378 -0.1902 -0.4839 -0.6483
 2829TIP3   OH230121   5.512   5.528   2.913 -0.2240 -0.4307 -0.4529
 2829TIP3    H130122   5.438   5.499   2.965  1.1542 -0.8213  1.3994
 2829TIP3    H230123   5.515   5.623   2.926 -0.7634 -0.3214 -1.0705
 2830TIP3   OH230124   0.892   1.951   0.725 -0.1879  0.1526  0.3469
 2830TIP3    H130125   0.840   2.030   0.740  0.9623  0.8634  0.6538
 2830TIP3    H230126   0.972   1.964   0.774  0.7535 -0.4619 -0.9533
 2831TIP3   OH230127   6.563   6.688   0.476  0.4697 -0.2164 -0.0498
 2831TIP3    H130128   6.608   6.624   0.532 -0.5936 -2.2288 -1.3717
 2831TIP3    H230129   6.473   6.687   0.507  0.6488  1.4665  0.5804
 2832TIP3   OH230130   0.944   2.414   1.066 -0.0331  0.0453  0.4004
 2832TIP3    H130131   0.977   2.328   1.090  1.9120  0.2744 -1.1453
 2832TIP3    H230132   0.910   2.403   0.977  2.0826  1.2004 -0.6470
 2833TIP3   OH230133   4.706   1.930   7.755  0.4075 -0.3623  0.0820
 2833TIP3    H130134   4.617   1.903   7.732  0.0542  0.9671 -0.2086
 2833TIP3    H230135   4.756   1.848   7.759 -0.6192 -1.0528 -0.6390
 2834TIP3   OH230136   6.348   4.935   6.765  0.1976  0.5774 -0.0650
 2834TIP3    H130137   6.425   4.957   6.819 -1.4174  1.1541  2.1738
 2834TIP3    H230138   6.384   4.889   6.690  2.9342  2.6114 -0.1857
 2835TIP3   OH230139   5.834   4.401   7.993 -0.6274 -0.1978 -0.3445
 2835TIP3    H130140   5.819   4.470   7.929  0.0213  2.5520  2.2332
 2835TIP3    H230141   5.809   4.440   8.077  1.7286 -2.3663  1.5524
 2836TIP3   OH230142   6.076   3.830   2.593  0.6153 -0.4350 -0.6557
 2836TIP3    H130143   6.098   3.920   2.570  0.4219 -0.6609 -1.8150
 2836TIP3    H230144   5.987   3.817   2.561  0.4087 -0.8560  0.0573
 2837TIP3   OH230145   3.432   1.441   7.578  0.1737 -0.3276  0.3588
 2837TIP3    H130146   3.481   1.426   7.497 -0.0651  1.0360 -0.0688
 2837TIP3    H230147   3.348   1.478   7.548  0.2483  0.5962  1.2285
 2838TIP3   OH230148   3.603   4.441   0.679  0.3279 -0.6344 -0.4491
 2838TIP3    H130149   3.676   4.457   0.620  2.0285  1.5523  2.0086
 2838TIP3    H230150   3.632   4.366   0.732  0.3075 -0.5096 -0.2577
 2839TIP3   OH230151   4.135   3.433   7.864  0.0484 -0.1643  0.0986
 2839TIP3    H130152   4.173   3.413   7.949 -0.6798 -0.9079  0.2606
 2839TIP3    H230153   4.191   3.387   7.801  0.4746  0.2305  0.1842
 2840TIP3   OH230154   0.094   5.272   7.973  0.2236 -0.4070 -0.3100
 2840TIP3    H130155   0.006   5.302   7.948  0.1818 -0.0871  0.2099
 2840TIP3    H230156   0.094   5.276   8.069  0.9354 -0.0525 -0.3241
 2841TIP3   OH230157   4.276   2.474   7.452 -0.4716 -0.2656  0.3762
 2841TIP3    H130158   4.223   2.427   7.516 -0.9368 -0.4143 -0.1074
 2841TIP3    H230159   4.309   2.406   7.393 -1.8445  0.0776 -0.8303
 2842TIP3   OH230160   1.333   0.887   7.365 -0.2461  0.0865  0.6364
 2842TIP3    H130161   1.355   0.794   7.368  0.4635  0.2557  0.7628
 2842TIP3    H230162   1.263   0.897   7.429 -0.0890 -0.2983  0.8711
 2843TIP3   OH230163   1.784   3.143   1.689  0.3016 -0.1851  0.2963
 2843TIP3    H130164   1.826   3.179   1.768 -0.5210 -2.7484  2.0439
 2843TIP3    H230165   1.690   3.156   1.704  0.1612 -0.1563 -0.5606
 2844TIP3   OH230166   0.660   5.043   1.510 -0.1217  0.0853 -0.1337
 2844TIP3    H130167   0.681   5.059   1.418 -1.4060 -2.9874 -1.1079
 2844TIP3    H230168   0.693   4.954   1.526 -1.8503 -0.2886  1.6978
 2845TIP3   OH230169   0.100   5.978   0.728 -0.0457 -0.2098  0.0817
 2845TIP3    H130170   0.129   5.888   0.713 -1.8076 -1.4703  3.2201
 2845TIP3    H230171   0.010   5.979   0.697 -0.2498  0.2456  0.6750
 2846TIP3   OH230172   3.601   6.031   8.003  0.4403  0.0299 -0.7983
 2846TIP3    H130173   3.528   6.092   8.010  0.6206  0.2401 -0.7422
 2846TIP3    H230174   3.628   6.015   8.093 -0.7688 -1.5526 -0.6838
 2847TIP3   OH230175   4.495   1.910   0.760  0.2359  0.7485  0.1952
 2847TIP3    H130176   4.430   1.980   0.766 -0.3311  0.1895  0.6580
 2847TIP3    H230177   4.445   1.829   0.770  0.9563  0.2905  0.1987
 2848TIP3   OH230178   4.209   0.223   2.510 -0.2421 -0.3309  0.0333
 2848TIP3    H130179   4.231   0.308   2.548  2.2229 -0.3825 -1.0781
 2848TIP3    H230180   4.261   0.160   2.559 -0.8543 -1.0152 -0.1792
 2849TIP3   OH230181   2.853   5.356   0.866 -0.3971 -0.0093 -0.4671
 2849TIP3    H130182   2.763   5.383   0.850 -1.0083 -0.2768  2.0234
 2849TIP3    H230183   2.846   5.292   0.937  1.7097 -0.4964 -0.6358
 2850TIP3   OH230184   1.472   4.289   2.811 -0.3975 -0.0642 -0.0612
 2850TIP3    H130185   1.546   4.337   2.847 -0.8633  0.7671 -0.1771
 2850TIP3    H230186   1.396   4.343   2.832 -0.8415 -0.2942 -0.9993
 2851TIP3   OH230187   1.839   2.142   2.178 -0.0981  0.3396  0.4605
 2851TIP3    H130188   1.927   2.180   2.176  0.0419  0.1314  1.7764
 2851TIP3    H230189   1.844   2.067   2.119 -0.1779  1.8769 -1.6039
 2852TIP3   OH230190   2.432   0.662   0.072  0.3974  0.2673 -0.1381
 2852TIP3    H130191   2.505   0.634   0.127 -0.2072 -0.6896  0.2044
 2852TIP3    H230192   2.373   0.708   0.132 -0.4271 -1.0734  0.1247
 2853TIP3   OH230193   1.383   6.250   1.175 -0.1814  0.3996  0.0828
 2853TIP3    H130194   1.378   6.261   1.270  1.0679  0.7084  0.1321
 2853TIP3    H230195   1.357   6.335   1.139  0.2159  0.5645  0.1809
 2854TIP3   OH230196   4.774   0.736   6.817  0.0506 -0.1515 -0.1734
 2854TIP3    H130197   4.722   0.732   6.897 -2.3178  1.1547 -1.5402
 2854TIP3    H230198   4.861   0.765   6.846 -1.2255  2.1165  1.7791
 2855TIP3   OH230199   0.349   1.550   0.027 -0.8023 -0.1264  0.2793
 2855TIP3    H130200   0.364   1.643   0.046 -0.1662 -0.2415  0.3676
 2855TIP3    H230201   0.257   1.545   0.002 -0.5896  0.7012 -0.7588
 2856TIP3   OH230202   3.588   0.430   2.380 -0.6054  0.4894  0.2315
 2856TIP3    H130203   3.597   0.335   2.385  1.4144  0.7156  3.1496
 2856TIP3    H230204   3.493   0.445   2.383 -0.9268 -1.4228  2.3963
 2857TIP3   OH230205   0.853   2.761   0.967  0.4392 -0.7295 -0.3633
 2857TIP3    H130206   0.862   2.774   0.873 -1.3761  3.7150 -0.1697
 2857TIP3    H230207   0.942   2.754   1.000  1.2475  0.6557 -2.1401
 2858TIP3   OH230208   4.378   2.134   7.539 -0.0985  0.3177 -0.2771
 2858TIP3    H130209   4.318   2.104   7.471 -1.1744 -0.6267  1.0264
 2858TIP3    H230210   4.453   2.075   7.534 -0.1480  0.2892 -0.6667
 2859TIP3   OH230211   2.299   0.281   0.083  0.0190 -0.3664 -0.6559
 2859TIP3    H130212   2.378   0.303   0.133 -0.1070 -0.0997 -0.5728
 2859TIP3    H230213   2.324   0.293  -0.008  0.0225 -0.1174 -0.6209
 2860TIP3   OH230214   6.681   0.054   1.735  0.4841 -0.5204 -0.3505
 2860TIP3    H130215   6.615   0.124   1.737 -0.4034 -1.2457  3.5485
 2860TIP3    H230216   6.742   0.076   1.806  2.6980 -1.5519 -1.8153
 2861TIP3   OH230217   4.174   4.538   2.585  0.7013 -0.1927  0.1759
 2861TIP3    H130218   4.131   4.473   2.640  0.8584 -1.8619 -1.5994
 2861TIP3    H230219   4.263   4.506   2.575  1.0079  0.7127 -0.1139
 2862TIP3   OH230220   1.164   1.221   2.762  0.0645 -0.1510 -0.0727
 2862TIP3    H130221   1.189   1.229   2.854  1.4620 -1.1104 -0.3259
 2862TIP3    H230222   1.186   1.306   2.724  0.7919 -0.1967  0.2191
 2863TIP3   OH230223   2.256   1.905   2.493  0.2034  0.2156  0.3636
 2863TIP3    H130224   2.178   1.922   2.545  0.3669 -0.7935  0.9682
 2863TIP3    H230225   2.269   1.985   2.442 -0.3544  0.9629  1.3588
 2864TIP3   OH230226   1.430   0.742   8.179 -0.8127  0.4196  0.3425
 2864TIP3    H130227   1.340   0.770   8.197 -0.5349  1.4010  0.2897
 2864TIP3    H230228   1.444   0.668   8.238 -1.5351  0.4962  0.6240
 2865TIP3   OH230229   0.749   4.453   7.850  0.2139 -0.3884  0.4000
 2865TIP3    H130230   0.802   4.385   7.808 -0.6993 -0.9487  0.1304
 2865TIP3    H230231   0.674   4.464   7.792 -0.2905 -0.0578  1.1015
 2866TIP3   OH230232   3.014   0.170   1.872 -0.2724 -0.2587  0.2028
 2866TIP3    H130233   2.931   0.146   1.914 -1.1044 -0.8003 -1.6320
 2866TIP3    H230234   3.040   0.091   1.825  0.0845  0.5971 -1.0930
 2867TIP3   OH230235   5.356   5.445   1.311 -0.5016 -0.5021 -0.0545
 2867TIP3    H130236   5.354   5.394   1.229 -1.0611 -0.7169  0.0890
 2867TIP3    H230237   5.387   5.532   1.284  1.8289 -1.2698 -0.0995
 2868TIP3   OH230238   3.312   0.204   2.125 -0.3052  0.0805 -0.6743
 2868TIP3    H130239   3.391   0.150   2.122 -0.6595 -0.5927  1.0225
 2868TIP3    H230240   3.244   0.150   2.086 -0.3783 -0.2090 -0.1591
 2869TIP3   OH230241   2.859   3.762   0.190  0.4596  0.1401 -0.2393
 2869TIP3    H130242   2.911   3.712   0.253  0.4440  1.1837  0.6302
 2869TIP3    H230243   2.906   3.846   0.181 -0.3525  0.5822 -0.4611
 2870TIP3   OH230244   0.928   0.695   7.405  0.2277 -0.0269 -0.3010
 2870TIP3    H130245   0.950   0.690   7.312  0.9870 -0.6938 -0.0892
 2870TIP3    H230246   0.965   0.778   7.434  0.2028  0.0663 -0.5342
 2871TIP3   OH230247   2.527   4.932   7.332  0.1394  0.0374 -0.2250
 2871TIP3    H130248   2.470   4.969   7.265  1.5212  0.3970 -1.2540
 2871TIP3    H230249   2.578   4.865   7.287  2.3440  1.4740 -0.0477
 2872TIP3   OH230250   1.698   6.759   0.580  0.6618 -0.3407  0.1170
 2872TIP3    H130251   1.611   6.763   0.620 -0.0519 -0.5812 -1.3523
 2872TIP3    H230252   1.722   6.666   0.586  0.8966 -0.2472  0.6687
 2873TIP3   OH230253   6.015   0.781   1.370 -0.0585 -0.1225  0.0427
 2873TIP3    H130254   6.099   0.738   1.355  0.3710  1.2570 -1.9047
 2873TIP3    H230255   6.037   0.874   1.381 -1.0991 -0.0886  2.5209
 2874TIP3   OH230256   4.776   6.327   0.948 -0.2068 -0.1691 -0.1069
 2874TIP3    H130257   4.764   6.322   1.043 -1.2528 -0.4567 -0.2391
 2874TIP3    H230258   4.866   6.356   0.936 -0.1664  0.1719  0.9774
 2875TIP3   OH230259   2.203   5.517   0.956  0.2287 -0.1246 -0.3596
 2875TIP3    H130260   2.121   5.501   1.003  1.2848 -0.7579  1.3673
 2875TIP3    H230261   2.197   5.461   0.878 -0.0298 -1.9976  0.9341
 2876TIP3   OH230262   2.954   2.431   7.818 -0.3164  0.0090  0.0977
 2876TIP3    H130263   2.968   2.469   7.731  1.2859 -0.7680 -0.0091
 2876TIP3    H230264   3.002   2.488   7.878 -0.1061 -0.3391  0.2678
 2877TIP3   OH230265   5.719   5.280   0.530  0.1118 -0.1532  0.1680
 2877TIP3    H130266   5.670   5.256   0.451  1.2577 -0.5887 -0.4305
 2877TIP3    H230267   5.808   5.250   0.513  0.5159  0.3026  1.3836
 2878TIP3   OH230268   4.697   6.821   7.348  0.1772  0.0704  0.5156
 2878TIP3    H130269   4.746   6.741   7.331  1.3366  1.1657 -1.6451
 2878TIP3    H230270   4.628   6.822   7.281  0.6718  1.2599  0.0054
 2879TIP3   OH230271   5.757   3.358   0.857  0.2321  0.7559  0.1753
 2879TIP3    H130272   5.715   3.281   0.819  0.3193  0.7433  0.1047
 2879TIP3    H230273   5.796   3.403   0.782  0.0967  0.9204  0.2035
 2880TIP3   OH230274   3.161   1.262   8.340  0.5773 -0.3079 -0.0128
 2880TIP3    H130275   3.244   1.304   8.363  0.4722 -0.1549  0.0849
 2880TIP3    H230276   3.136   1.302   8.257  0.4078 -0.0765  0.1488
 2881TIP3   OH230277   1.491   5.050   7.987 -0.1516  0.1301 -0.6688
 2881TIP3    H130278   1.540   4.969   7.977  1.0624  0.9583 -1.7463
 2881TIP3    H230279   1.460   5.071   7.899 -2.3124 -0.2537 -0.0577
 2882TIP3   OH230280   5.277   6.361   7.379  0.0954  0.0105  0.0422
 2882TIP3    H130281   5.193   6.394   7.346 -0.2975 -0.6796  0.3243
 2882TIP3    H230282   5.271   6.266   7.368  0.6994 -0.0693  0.3951
 2883TIP3   OH230283   6.569   3.554   1.716  0.2464 -0.2630  0.2002
 2883TIP3    H130284   6.647   3.504   1.692  0.9926  0.8131  0.3061
 2883TIP3    H230285   6.528   3.576   1.633  0.4392 -0.2407  0.1101
 2884TIP3   OH230286   3.069   2.396   8.365 -0.2009  0.3922 -0.3665
 2884TIP3    H130287   3.023   2.333   8.421 -1.0825 -0.3341 -1.8261
 2884TIP3    H230288   3.081   2.473   8.420  0.0327 -0.6862  1.1750
 2885TIP3   OH230289   0.213   4.111   6.717  0.0125  0.0403 -0.4373
 2885TIP3    H130290   0.197   4.023   6.751  1.9273 -0.8001 -1.5215
 2885TIP3    H230291   0.126   4.144   6.693 -0.8828 -1.0035  1.2153
 2886TIP3   OH230292   5.647   4.425   8.392 -0.4382  0.4392  0.3206
 2886TIP3    H130293   5.607   4.466   8.315 -0.6551  2.2869  1.3547
 2886TIP3    H230294   5.687   4.498   8.440 -1.3464 -0.4468  2.5641
 2887TIP3   OH230295   1.729   0.235   7.554  0.3318  0.0619 -0.1604
 2887TIP3    H130296   1.768   0.265   7.472  2.6014  0.3030  0.9412
 2887TIP3    H230297   1.804   0.215   7.610 -1.1248  0.8673  2.2078
 2888TIP3   OH230298   3.706   3.619   1.572  0.0646  0.1287  0.0417
 2888TIP3    H130299   3.622   3.637   1.615  0.5785  0.2558  1.0153
 2888TIP3    H230300   3.747   3.704   1.562  0.7374 -0.0823  0.9594
 2889TIP3   OH230301   3.351   5.655   2.655  0.2419  0.0267  0.6875
 2889TIP3    H130302   3.359   5.652   2.751  0.9356 -3.1078  0.6427
 2889TIP3    H230303   3.286   5.589   2.634  1.8485 -1.1008 -1.0968
 2890TIP3   OH230304   3.767   5.194   1.318  0.0425 -0.0082 -0.0990
 2890TIP3    H130305   3.756   5.099   1.308  1.3105 -0.3600  1.4114
 2890TIP3    H230306   3.842   5.215   1.263  1.1156 -0.3060  1.1785
 2891TIP3   OH230307   1.300   0.880   1.226 -0.2498  0.1118  0.0081
 2891TIP3    H130308   1.235   0.913   1.165  1.4272 -0.3939 -2.1671
 2891TIP3    H230309   1.264   0.900   1.313 -1.7634  2.7859 -1.1178
 2892TIP3   OH230310   0.690   5.834   1.520  0.3118 -0.3350 -0.1251
 2892TIP3    H130311   0.647   5.751   1.498 -1.3097  0.6986 -1.0757
 2892TIP3    H230312   0.728   5.863   1.438  1.8825 -0.6627  0.4600
 2893TIP3   OH230313   5.281   0.967   0.173  0.2907  0.3439 -0.0383
 2893TIP3    H130314   5.227   1.037   0.211 -1.9002 -1.2202 -0.0548
 2893TIP3    H230315   5.270   0.977   0.079  1.4863  1.0600 -0.1196
 2894TIP3   OH230316   5.035   0.209   1.245 -0.7688  0.3633  0.1547
 2894TIP3    H130317   4.973   0.267   1.291 -1.5529 -0.7427  0.5197
 2894TIP3    H230318   5.042   0.132   1.301 -0.7286 -0.4554 -0.9395
 2895TIP3   OH230319   6.514   5.308   7.559  0.0270  0.7046  0.3341
 2895TIP3    H130320   6.455   5.321   7.634 -2.7139  0.3390 -1.5842
 2895TIP3    H230321   6.477   5.364   7.491  3.0188  1.7765 -0.5301
 2896TIP3   OH230322   3.838   4.816   1.740  0.3843 -0.5465  0.1992
 2896TIP3    H130323   3.777   4.863   1.796 -0.9494 -2.1300  0.1580
 2896TIP3    H230324   3.907   4.880   1.720 -0.6237  0.9249  1.2276
 2897TIP3   OH230325   2.638   4.257   7.898 -0.3187  0.3161  0.1337
 2897TIP3    H130326   2.548   4.255   7.932 -0.3861  0.6335 -0.0339
 2897TIP3    H230327   2.672   4.169   7.917 -0.1496  0.6725  1.5903
 2898TIP3   OH230328   3.090   6.478   2.169  0.6541 -0.3974  0.1255
 2898TIP3    H130329   3.014   6.420   2.178  2.1981 -2.3682  1.2239
 2898TIP3    H230330   3.072   6.550   2.229 -0.6923 -0.4145 -0.2256
 2899TIP3   OH230331   0.137   0.434   8.034  0.6413  0.2529  0.2217
 2899TIP3    H130332   0.209   0.374   8.055  1.6668  1.3562 -0.0258
 2899TIP3    H230333   0.106   0.465   8.119  2.0191  1.5338  0.2886
 2900TIP3   OH230334   6.700   5.974   1.208 -0.0263 -0.1074  0.1348
 2900TIP3    H130335   6.698   5.894   1.259 -1.7248  0.9060  1.7986
 2900TIP3    H230336   6.790   6.006   1.215  0.1552 -0.8123  1.1812
 2901TIP3   OH230337   6.115   0.316   7.561  0.2857 -0.8842  0.0799
 2901TIP3    H130338   6.090   0.257   7.491 -0.2637  0.3641 -0.8177
 2901TIP3    H230339   6.033   0.332   7.609  0.5864 -1.4464  0.8006
 2902TIP3   OH230340   5.712   2.925   6.795 -0.8463 -0.6664 -0.2653
 2902TIP3    H130341   5.624   2.937   6.759 -0.8834  0.3918  0.1508
 2902TIP3    H230342   5.739   2.838   6.764 -0.9616  0.0777 -2.6724
 2903TIP3   OH230343   3.347   1.461   1.611 -0.3518  0.3737  1.0243
 2903TIP3    H130344   3.293   1.419   1.678 -0.2696 -0.1038  0.7953
 2903TIP3    H230345   3.330   1.554   1.621  0.6016  0.4207  2.5447
 2904TIP3   OH230346   0.765   6.514   7.895  0.0171 -0.0480  0.5726
 2904TIP3    H130347   0.702   6.504   7.824 -0.2256  0.8327  0.6464
 2904TIP3    H230348   0.730   6.460   7.966  0.5491 -1.3796 -0.1289
 2905TIP3   OH230349   6.025   0.020   0.940 -0.2149 -0.3428 -0.3655
 2905TIP3    H130350   5.994   0.098   0.985 -0.2600  0.4294 -1.7079
 2905TIP3    H230351   6.086  -0.021   1.002 -0.3118  0.6616  0.4074
 2906TIP3   OH230352   4.898   0.968   2.633 -0.3417  0.0730  0.3221
 2906TIP3    H130353   4.874   1.028   2.562  0.2069 -0.3994 -0.2719
 2906TIP3    H230354   4.834   0.897   2.627 -0.7116  0.3637  0.7387
 2907TIP3   OH230355   3.981   2.096   1.407  0.0446  0.8288 -0.1150
 2907TIP3    H130356   3.891   2.065   1.406 -0.5496  2.2973  1.5770
 2907TIP3    H230357   3.974   2.191   1.395  1.6585  0.6690 -3.5609
 2908TIP3   OH230358   1.225   5.512   0.887  0.1094 -0.3456  0.7389
 2908TIP3    H130359   1.197   5.555   0.967 -1.2123 -1.9987  1.2052
 2908TIP3    H230360   1.144   5.492   0.840  0.7475 -1.2226 -0.0390
 2909TIP3   OH230361   6.126   6.272   0.189 -0.4195 -0.4589 -0.2906
 2909TIP3    H130362   6.164   6.191   0.156 -2.4026 -0.8666 -1.7503
 2909TIP3    H230363   6.032   6.256   0.190 -0.9158  1.9252 -0.9766
 2910TIP3   OH230364   4.822   0.836   2.953  0.5228 -0.0093  0.4110
 2910TIP3    H130365   4.767   0.802   2.882 -0.3783  0.2784  0.9523
 2910TIP3    H230366   4.893   0.772   2.960 -0.9254 -1.6469  1.1490
 2911TIP3   OH230367   3.571   3.728   7.681 -0.6666  0.5832 -0.4208
 2911TIP3    H130368   3.557   3.635   7.662  0.1424  0.4284 -0.3321
 2911TIP3    H230369   3.571   3.733   7.777  1.5469  0.2548 -0.3434
 2912TIP3   OH230370   5.235   5.983   2.176  0.1807 -0.5777 -0.2526
 2912TIP3    H130371   5.198   6.041   2.110 -0.9812 -0.4868  0.4479
 2912TIP3    H230372   5.324   6.015   2.189 -0.1453  0.4807 -0.5468
 2913TIP3   OH230373   2.250   1.929   2.102  0.6970  0.2818  0.1392
 2913TIP3    H130374   2.340   1.927   2.135 -0.1025 -0.8384  2.4289
 2913TIP3    H230375   2.212   2.007   2.141  0.4137  0.2661 -0.1043
 2914TIP3   OH230376   3.909   3.528   1.392 -0.2486 -0.2556  0.4574
 2914TIP3    H130377   3.914   3.599   1.329 -0.4408 -1.0915 -0.5380
 2914TIP3    H230378   3.850   3.560   1.460  0.5264  0.9351  0.5903
 2915TIP3   OH230379   3.666   3.929   1.498 -0.8105  0.4494  0.1541
 2915TIP3    H130380   3.690   3.950   1.408 -1.5996 -1.1429 -0.4615
 2915TIP3    H230381   3.747   3.940   1.547  0.2217 -0.9031 -1.1623
 2916TIP3   OH230382   1.361   0.750   1.796  0.1257 -0.2174 -0.1308
 2916TIP3    H130383   1.342   0.747   1.890  2.4637 -0.1716  0.4024
 2916TIP3    H230384   1.457   0.746   1.790  0.1029  0.7563 -2.4751
 2917TIP3   OH230385   4.154   5.026   0.931  0.0027 -0.7404 -0.3910
 2917TIP3    H130386   4.234   5.044   0.882 -0.0458  0.2834 -0.1267
 2917TIP3    H230387   4.092   5.093   0.901  0.0255  0.0164  1.1590
 2918TIP3   OH230388   4.164   1.855   0.778 -0.2249  0.0510  0.1271
 2918TIP3    H130389   4.147   1.783   0.716 -1.0270  0.4998 -0.1891
 2918TIP3    H230390   4.189   1.810   0.859 -0.3089 -0.5814 -0.1852
 2919TIP3   OH230391   5.192   5.055   7.934 -0.5139  0.7757 -0.3899
 2919TIP3    H130392   5.145   5.111   7.873 -0.8888  0.6441 -0.2258
 2919TIP3    H230393   5.275   5.036   7.891 -1.6195 -1.1105 -1.8690
 2920TIP3   OH230394   0.263   2.442   0.506  0.4337  0.0412  0.2815
 2920TIP3    H130395   0.243   2.536   0.499 -1.3228 -0.3756 -0.8437
 2920TIP3    H230396   0.212   2.412   0.580 -0.9054 -0.4482 -0.7936
 2921TIP3   OH230397   2.446   3.189   7.448 -0.2525  0.2304  0.4356
 2921TIP3    H130398   2.385   3.120   7.476  1.9530 -1.3966  1.4857
 2921TIP3    H230399   2.449   3.180   7.352 -0.2402 -0.9212  0.5335
 2922TIP3   OH230400   1.056   0.688   7.182  0.1526  0.0660  0.2920
 2922TIP3    H130401   1.149   0.691   7.158  0.3305  0.9712  1.0246
 2922TIP3    H230402   1.010   0.700   7.099  0.7240  1.0734  0.0984
 2923TIP3   OH230403   5.103   2.423   0.293  0.4353 -0.2314  0.1185
 2923TIP3    H130404   5.172   2.460   0.237  1.0042  0.5833  1.3122
 2923TIP3    H230405   5.134   2.439   0.382 -1.2285 -0.0028  0.6824
 2924TIP3   OH230406   6.410   6.983   0.470 -0.4509  0.5125  0.2354
 2924TIP3    H130407   6.444   7.033   0.396 -0.1009 -1.0643 -0.7205
 2924TIP3    H230408   6.360   6.913   0.430 -1.6343  0.5679  1.5611
 2925TIP3   OH230409   6.963   0.516   0.089 -0.0728  0.6440 -0.2128
 2925TIP3    H130410   6.924   0.452   0.149  0.4864  0.3542 -0.1462
 2925TIP3    H230411   6.890   0.549   0.038 -0.4953  0.5806  0.3422
 2926TIP3   OH230412   0.174   4.836   2.208 -0.3873 -0.1140  0.4492
 2926TIP3    H130413   0.258   4.840   2.162 -1.1932  1.0287 -1.0351
 2926TIP3    H230414   0.183   4.763   2.269  1.4819 -0.3619 -0.0682
 2927TIP3   OH230415   5.670   6.992   0.486  0.4718 -0.6361 -0.7802
 2927TIP3    H130416   5.646   6.930   0.555 -0.9908 -0.4264 -1.0554
 2927TIP3    H230417   5.664   7.078   0.527  0.6823 -0.5736 -0.8799
 2928TIP3   OH230418   1.308   2.416   1.550 -0.1099  0.4339 -0.0070
 2928TIP3    H130419   1.370   2.488   1.544 -0.3279  0.7186  0.9882
 2928TIP3    H230420   1.351   2.352   1.606  0.4097 -0.5827 -1.4844
 2929TIP3   OH230421   2.880   3.553   2.266 -0.3076  0.6939  0.3119
 2929TIP3    H130422   2.946   3.584   2.327 -0.3075 -1.9693  1.8169
 2929TIP3    H230423   2.806   3.614   2.278  0.5853  1.6628  1.1347
 2930TIP3   OH230424   5.363   6.014   6.888  0.6608 -0.3294 -0.0455
 2930TIP3    H130425   5.397   5.953   6.953  1.5714  1.7664  1.5655
 2930TIP3    H230426   5.440   6.065   6.861 -0.0182 -0.0211 -1.5111
 2931TIP3   OH230427   2.832   3.149   1.921 -0.3863 -0.3919 -0.1731
 2931TIP3    H130428   2.854   3.093   1.995  1.7241 -2.1524 -2.0093
 2931TIP3    H230429   2.799   3.089   1.854 -0.1655  0.8345 -1.4267
 2932TIP3   OH230430   2.620   4.226   7.133  0.0978 -0.0500  0.4330
 2932TIP3    H130431   2.671   4.285   7.078 -1.4360  0.3077 -0.6651
 2932TIP3    H230432   2.628   4.262   7.221  0.7844  0.6395  0.0995
 2933TIP3   OH230433   0.151   2.600   8.029  0.2001  0.7747  0.6663
 2933TIP3    H130434   0.182   2.622   7.941  1.3328 -0.1547  0.8167
 2933TIP3    H230435   0.123   2.684   8.066  1.0731  1.3976 -0.0532
 2934TIP3   OH230436   3.256   3.805   6.827  0.1570  0.2184  0.2692
 2934TIP3    H130437   3.337   3.832   6.784 -0.5680  0.5087 -0.9635
 2934TIP3    H230438   3.212   3.887   6.850 -0.3651  0.0904 -0.2294
 2935TIP3   OH230439   5.784   3.621   2.181 -0.0839  0.5042  0.0263
 2935TIP3    H130440   5.873   3.591   2.200  0.0519  0.3903 -0.7661
 2935TIP3    H230441   5.730   3.579   2.248  0.5069  0.9112  0.7824
 2936TIP3   OH230442   2.553   0.913   1.972 -0.3229  0.6647  0.2691
 2936TIP3    H130443   2.622   0.858   1.936  0.4619  1.5655  0.3694
 2936TIP3    H230444   2.577   1.002   1.946 -1.1763  1.0423  0.7356
 2937TIP3   OH230445   2.034   2.651   6.948  0.3932  0.4021 -0.0637
 2937TIP3    H130446   1.942   2.631   6.966  0.6804 -0.2440  0.7565
 2937TIP3    H230447   2.056   2.722   7.008  0.7537 -0.2689  0.6123
 2938TIP3   OH230448   3.406   6.303   1.917 -0.1370 -0.2703 -0.0688
 2938TIP3    H130449   3.392   6.283   2.010 -1.7246 -1.3852 -0.5106
 2938TIP3    H230450   3.447   6.224   1.881  0.2836  0.0804 -0.3691
 2939TIP3   OH230451   3.098   0.235   0.575 -0.1678  1.1571 -0.3809
 2939TIP3    H130452   3.069   0.147   0.596  0.1551  0.9838 -0.6421
 2939TIP3    H230453   3.021   0.279   0.541 -0.5571  1.2659  0.6156
 2940TIP3   OH230454   2.549   2.099   7.825 -0.2144  0.5755  0.5043
 2940TIP3    H130455   2.624   2.115   7.882  0.6648 -3.6568  0.8240
 2940TIP3    H230456   2.508   2.020   7.860 -0.7533 -1.1954 -3.5666
 2941TIP3   OH230457   3.379   4.428   0.452  0.4777  0.3015 -0.0063
 2941TIP3    H130458   3.318   4.491   0.414  1.2719  0.7116 -0.6300
 2941TIP3    H230459   3.431   4.480   0.514 -0.7815 -0.3493  1.6722
 2942TIP3   OH230460   4.791   0.635   1.576 -0.3946  0.0435  0.1803
 2942TIP3    H130461   4.766   0.570   1.643  1.0761 -1.1048 -0.3382
 2942TIP3    H230462   4.828   0.583   1.505 -0.1302  1.4009 -0.7065
 2943TIP3   OH230463   1.029   4.848   0.809  0.2470 -0.5664 -0.4153
 2943TIP3    H130464   0.961   4.914   0.795  0.5369 -0.2191 -0.2002
 2943TIP3    H230465   0.987   4.765   0.786 -0.3841 -0.4082  0.1170
 2944TIP3   OH230466   3.498   6.341   1.486 -0.3796  0.2715  0.5608
 2944TIP3    H130467   3.518   6.281   1.557  0.6757  0.6995  0.6387
 2944TIP3    H230468   3.509   6.428   1.525 -1.8691  0.5309  0.4492
 2945TIP3   OH230469   4.241   3.239   7.668 -0.1709  0.1811  0.4229
 2945TIP3    H130470   4.160   3.211   7.626 -0.2551 -0.1369  0.7964
 2945TIP3    H230471   4.301   3.166   7.654 -0.5870 -0.4855  1.9743
 2946TIP3   OH230472   6.191   2.403   1.343 -0.4641 -0.3472 -0.4840
 2946TIP3    H130473   6.256   2.473   1.334  0.8687 -1.2768  1.3629
 2946TIP3    H230474   6.219   2.336   1.281  0.6448 -0.9364  0.6213
 2947TIP3   OH230475   5.522   0.458   0.221 -0.0480 -0.5206 -0.7441
 2947TIP3    H130476   5.487   0.547   0.214  0.1045 -0.5271 -1.8643
 2947TIP3    H230477   5.595   0.465   0.282  0.4184  0.2791 -1.3817
 2948TIP3   OH230478   4.284   4.132   1.984  0.2872  0.2526  0.4705
 2948TIP3    H130479   4.317   4.046   2.010 -0.0006 -0.3600 -1.1074
 2948TIP3    H230480   4.357   4.172   1.936 -0.5232 -0.3041 -1.3033
 2949TIP3   OH230481   5.357   4.155   8.036 -0.5944  0.5665 -0.2247
 2949TIP3    H130482   5.445   4.185   8.059 -0.7198  1.2367 -0.5742
 2949TIP3    H230483   5.301   4.190   8.105 -0.6870  0.7880 -0.4119
 2950TIP3   OH230484   3.016   6.881   7.488 -0.0877  0.1888 -0.3083
 2950TIP3    H130485   2.965   6.836   7.420 -0.4522  0.4849 -0.2297
 2950TIP3    H230486   2.951   6.918   7.547  0.2269 -0.5335  0.5220
 2951TIP3   OH230487   5.846   5.127   2.198  0.5317 -0.3536  0.0612
 2951TIP3    H130488   5.811   5.146   2.111 -1.9675 -2.9691  0.3359
 2951TIP3    H230489   5.776   5.153   2.258  0.6014 -2.0921  0.9526
 2952TIP3   OH230490   4.359   4.190   0.337  0.5403 -0.1989  0.2585
 2952TIP3    H130491   4.299   4.264   0.337 -0.7500 -1.1574 -1.8591
 2952TIP3    H230492   4.434   4.219   0.284 -0.2353 -0.5719 -1.0772
 2953TIP3   OH230493   2.936   4.314   8.261 -0.0761  0.3509 -0.0242
 2953TIP3    H130494   2.984   4.397   8.265 -0.3313  0.4476  2.2584
 2953TIP3    H230495   2.866   4.324   8.326  0.3897 -1.9290  0.9083
 2954TIP3   OH230496   5.125   1.818   2.168 -0.6575  0.1751  0.1107
 2954TIP3    H130497   5.054   1.856   2.116  0.1036  1.5396  0.0427
 2954TIP3    H230498   5.088   1.736   2.202 -1.6500 -0.0436 -1.3888
 2955TIP3   OH230499   5.146   0.980   7.663  0.3533  0.2994  0.6390
 2955TIP3    H130500   5.087   0.951   7.733 -1.5264 -0.2587 -1.0514
 2955TIP3    H230501   5.140   1.076   7.665 -1.5915  0.2483 -0.1862
 2956TIP3   OH230502   0.043   6.942   7.541  0.5742  0.2669 -0.3980
 2956TIP3    H130503   0.030   6.913   7.450 -1.3884  0.4713 -0.2327
 2956TIP3    H230504   0.118   6.892   7.572  0.1030 -1.2318 -1.5511
 2957TIP3   OH230505   5.371   3.681   0.449  0.1738  0.0164  0.1057
 2957TIP3    H130506   5.361   3.676   0.354 -2.0114  2.0087  0.1571
 2957TIP3    H230507   5.401   3.770   0.466 -1.6582  0.4637  1.3600
 2958TIP3   OH230508   0.644   2.552   8.239  0.1511 -0.0677 -1.0059
 2958TIP3    H130509   0.673   2.462   8.250 -0.8248 -0.4315 -1.2818
 2958TIP3    H230510   0.685   2.582   8.158 -1.7553 -1.2412 -2.5057
 2959TIP3   OH230511   2.472   5.918   0.925  0.3692  0.3485 -0.0209
 2959TIP3    H130512   2.487   6.012   0.911 -0.8148  0.8640  1.6970
 2959TIP3    H230513   2.378   5.907   0.908  0.3527 -0.3593  0.4919
 2960TIP3   OH230514   6.138   1.994   1.607  0.8497  0.2264  0.3800
 2960TIP3    H130515   6.204   2.033   1.664 -1.2631  1.4211  2.1627
 2960TIP3    H230516   6.103   2.068   1.557  1.4974 -0.5537 -1.3045
 2961TIP3   OH230517   0.853   3.275   8.334  0.6605 -0.1799  0.3152
 2961TIP3    H130518   0.779   3.278   8.395  1.0969 -0.0356  0.8453
 2961TIP3    H230519   0.917   3.220   8.377 -0.9109 -4.4337 -2.1712
 2962TIP3   OH230520   3.351   2.256   0.024 -0.0636  0.1246  0.2820
 2962TIP3    H130521   3.304   2.333  -0.008 -0.0466  0.3030  0.6742
 2962TIP3    H230522   3.438   2.288   0.045 -0.4634  0.3180  1.7592
 2963TIP3   OH230523   4.265   4.993   7.014  0.2776  0.2111 -0.2352
 2963TIP3    H130524   4.268   4.933   7.088 -1.5803  0.2464 -0.1010
 2963TIP3    H230525   4.311   5.071   7.045  2.9955 -1.1572 -0.5200
 2964TIP3   OH230526   1.389   3.750   8.219 -0.1095  0.0101  0.1002
 2964TIP3    H130527   1.294   3.746   8.211 -0.2134  1.4270  0.4935
 2964TIP3    H230528   1.416   3.815   8.155  0.5700 -0.1294  0.2363
 2965TIP3   OH230529   3.287   4.092   7.488 -0.1428 -0.4024 -0.6211
 2965TIP3    H130530   3.364   4.037   7.477  0.3263  0.3388 -1.0899
 2965TIP3    H230531   3.286   4.148   7.411  0.2088  1.2562  0.5283
 2966TIP3   OH230532   1.384   4.735   7.539 -0.3726  0.5734  0.0604
 2966TIP3    H130533   1.477   4.713   7.540 -0.4419  0.2146 -0.5966
 2966TIP3    H230534   1.359   4.738   7.631  0.3487  0.9465  0.2501
 2967TIP3   OH230535   4.301   0.932   7.662 -0.1927  0.3025  0.2183
 2967TIP3    H130536   4.303   0.899   7.752  1.1195  0.0149  0.1059
 2967TIP3    H230537   4.276   0.856   7.610 -3.5319  1.0638  0.5312
 2968TIP3   OH230538   6.580   3.581   2.176  0.2023  0.1370 -0.5438
 2968TIP3    H130539   6.563   3.653   2.115 -0.5621  0.3850 -0.0460
 2968TIP3    H230540   6.537   3.608   2.257  1.0561 -0.2688  0.0635
 2969TIP3   OH230541   6.971   2.339   1.571 -0.0029 -0.6816  0.3897
 2969TIP3    H130542   6.977   2.381   1.657  0.1186 -2.3964  1.2547
 2969TIP3    H230543   7.056   2.354   1.531  1.6670 -3.6774  2.4536
 2970TIP3   OH230544   1.407   6.286   0.449  0.7249 -0.0106 -0.0357
 2970TIP3    H130545   1.447   6.372   0.456  1.6430 -0.3721 -0.5975
 2970TIP3    H230546   1.481   6.226   0.435  0.0144 -0.7384 -0.8297
 2971TIP3   OH230547   3.776   0.159   0.933 -0.3940  0.9481  0.0160
 2971TIP3    H130548   3.798   0.167   1.026  1.0698 -1.5307 -0.0044
 2971TIP3    H230549   3.857   0.183   0.888 -0.1005 -0.7203 -0.4302
 2972TIP3   OH230550   3.227   0.574   7.252  0.4667 -0.1474 -0.1044
 2972TIP3    H130551   3.317   0.601   7.233 -0.6008  1.8389 -3.3446
 2972TIP3    H230552   3.200   0.525   7.174 -1.7684  0.8959 -0.0779
 2973TIP3   OH230553   0.570   5.725   1.148  0.0823 -0.1144 -0.2934
 2973TIP3    H130554   0.479   5.737   1.173  0.4357  0.5295  0.7885
 2973TIP3    H230555   0.591   5.801   1.094  0.7757  1.3694  1.9438
 2974TIP3   OH230556   5.817   3.838   2.499  0.4664 -0.3307 -0.0444
 2974TIP3    H130557   5.855   3.871   2.418 -1.5703  0.8409 -0.5815
 2974TIP3    H230558   5.751   3.775   2.470  0.0031 -0.2075  0.7167
 2975TIP3   OH230559   5.295   3.637   0.789  0.4279 -0.3756 -0.1212
 2975TIP3    H130560   5.286   3.686   0.707  1.0866  0.4794  0.2993
 2975TIP3    H230561   5.362   3.571   0.770  2.3378  1.3110  0.3503
 2976TIP3   OH230562   2.312   1.518   8.107 -0.2559  0.1348 -0.0719
 2976TIP3    H130563   2.241   1.537   8.046 -0.2299 -0.0678 -0.1656
 2976TIP3    H230564   2.302   1.425   8.128  0.3770 -0.0642 -0.6040
 2977TIP3   OH230565   0.175   0.003   0.732 -0.0079  0.1226  0.4873
 2977TIP3    H130566   0.216   0.021   0.648  0.1962  1.2229  0.7988
 2977TIP3    H230567   0.109   0.072   0.741 -1.7389 -1.3961  0.1509
 2978TIP3   OH230568   6.934   6.223   0.767  0.3653 -0.1701  0.3428
 2978TIP3    H130569   7.012   6.187   0.726  0.1811 -1.9651  1.4358
 2978TIP3    H230570   6.933   6.315   0.741  2.4836 -0.2515 -0.2120
 2979TIP3   OH230571   6.325   0.539   1.091  0.6750 -0.1893 -0.5062
 2979TIP3    H130572   6.361   0.562   1.177 -1.2772 -1.7683  0.8233
 2979TIP3    H230573   6.402   0.525   1.036  1.9883  2.5164  0.4361
 2980TIP3   OH230574   1.629   6.894   2.243  0.1810 -0.1914 -0.0090
 2980TIP3    H130575   1.675   6.977   2.252  2.5666 -1.4704  0.3133
 2980TIP3    H230576   1.696   6.831   2.218 -1.5173 -2.0842 -0.1219
 2981TIP3   OH230577   4.566   4.083   2.234  0.1287  0.0808 -0.4033
 2981TIP3    H130578   4.605   4.038   2.308 -0.0051  0.3579 -0.1641
 2981TIP3    H230579   4.513   4.016   2.190  0.5515 -0.1922 -0.5012
 2982TIP3   OH230580   3.727   5.517   2.229  0.0213  0.6138  0.0533
 2982TIP3    H130581   3.711   5.556   2.315 -1.0245 -0.7997  0.5417
 2982TIP3    H230582   3.742   5.425   2.247 -0.8180  0.1755 -1.3195
 2983TIP3   OH230583   4.387   5.644   1.634  0.2303  0.0100 -0.6184
 2983TIP3    H130584   4.415   5.629   1.724  0.3615 -0.3498 -0.7162
 2983TIP3    H230585   4.321   5.576   1.618 -1.4280  1.4409 -0.0731
 2984TIP3   OH230586   2.801   6.458   3.076 -0.0528  0.1439  0.2467
 2984TIP3    H130587   2.811   6.394   3.005 -1.7777  2.4969 -2.3437
 2984TIP3    H230588   2.708   6.454   3.098 -0.1741  1.6527  0.0795
 2985TIP3   OH230589   6.621   1.257   2.934  0.1852  0.0032  0.5208
 2985TIP3    H130590   6.667   1.313   2.996  0.9236 -0.6029  0.5204
 2985TIP3    H230591   6.583   1.188   2.987 -0.6486  0.4345  0.5075
 2986TIP3   OH230592   1.398   5.474   2.278  0.5817 -0.2559  0.3895
 2986TIP3    H130593   1.373   5.490   2.369 -0.3196 -0.0553  0.1149
 2986TIP3    H230594   1.400   5.379   2.270  1.8194 -0.2913  0.9188
 2987TIP3   OH230595   0.402   4.525   2.745  0.0809 -0.6411  0.1397
 2987TIP3    H130596   0.452   4.602   2.773  1.3276 -0.9459 -1.1425
 2987TIP3    H230597   0.344   4.558   2.677 -2.2925 -0.0839  2.2977
 2988TIP3   OH230598   5.835   5.376   1.502 -0.3253  0.2010 -0.0134
 2988TIP3    H130599   5.881   5.450   1.539  1.1606 -0.3837 -0.6114
 2988TIP3    H230600   5.770   5.414   1.443  0.6402  1.0194 -0.5599
 2989TIP3   OH230601   0.036   5.037   1.727  0.1040 -1.0739  0.1807
 2989TIP3    H130602   0.030   5.056   1.634 -1.1490  0.1575  0.4664
 2989TIP3    H230603  -0.017   4.958   1.739  1.5846 -2.1892 -0.3538
 2990TIP3   OH230604   2.329   0.379   2.284 -0.5533  0.3751  0.7232
 2990TIP3    H130605   2.267   0.425   2.341  0.2997  0.5643  1.5153
 2990TIP3    H230606   2.414   0.392   2.325 -0.0249 -0.1920 -0.1542
 2991TIP3   OH230607   4.486   0.075   0.692 -0.3977 -0.1503  0.0867
 2991TIP3    H130608   4.470   0.092   0.785 -0.4770  0.8089 -0.0969
 2991TIP3    H230609   4.544   0.146   0.664 -1.1524  0.1157 -0.8339
 2992TIP3   OH230610   2.921   5.620   0.565  0.1348  0.0267 -0.0622
 2992TIP3    H130611   2.866   5.666   0.629  0.9553  1.0884 -0.0917
 2992TIP3    H230612   2.886   5.648   0.480  0.6302  0.6080 -0.0803
 2993TIP3   OH230613   1.520   6.526   8.093  0.8089  0.0346  0.0674
 2993TIP3    H130614   1.468   6.606   8.086  1.0810  0.5442  2.8062
 2993TIP3    H230615   1.462   6.457   8.061 -1.2394  0.7329  1.9537
 2994TIP3   OH230616   4.746   2.786   1.447 -0.5518  0.0415 -0.1164
 2994TIP3    H130617   4.794   2.708   1.473 -1.4108 -0.6248 -0.4640
 2994TIP3    H230618   4.807   2.835   1.392 -0.0335 -0.4197  0.0367
 2995TIP3   OH230619   1.433   4.822   2.140 -0.1060  0.1755 -0.1889
 2995TIP3    H130620   1.380   4.743   2.126 -0.2108  0.5254 -1.8886
 2995TIP3    H230621   1.473   4.808   2.226  0.1643 -1.8907 -0.6079
 2996TIP3   OH230622   5.803   6.582   7.911 -0.1374  0.6341  0.1915
 2996TIP3    H130623   5.749   6.503   7.917 -0.1353  0.5061 -1.3106
 2996TIP3    H230624   5.750   6.644   7.861  0.6371  0.9194 -0.2869
 2997TIP3   OH230625   4.837   0.944   1.236 -0.2090  0.5059  0.0670
 2997TIP3    H130626   4.892   0.972   1.164  1.4681  2.0830  1.8331
 2997TIP3    H230627   4.777   1.016   1.251  0.4735  0.8893  1.1521
 2998TIP3   OH230628   4.039   2.418   1.773  0.0969  0.3936 -0.3766
 2998TIP3    H130629   4.062   2.326   1.786  1.0113  0.5018 -1.1399
 2998TIP3    H230630   4.102   2.466   1.827  0.1031  0.5978 -0.5645
 2999TIP3   OH230631   1.215   2.316   8.173  0.2507 -0.1864  0.0225
 2999TIP3    H130632   1.238   2.245   8.112  0.1506 -0.5091  0.3538
 2999TIP3    H230633   1.289   2.376   8.168  1.1779 -1.1866  1.0401
 3000TIP3   OH230634   6.033   6.976   0.620  0.4891  0.3315  0.3043
 3000TIP3    H130635   5.998   7.063   0.599  0.3625 -0.0652 -1.2706
 3000TIP3    H230636   6.019   6.967   0.715 -1.2994  1.2520  0.1875
 3001TIP3   OH230637   2.322   1.251   6.936 -0.1420  0.0463 -0.4222
 3001TIP3    H130638   2.232   1.238   6.905  0.1170  1.4341 -1.8906
 3001TIP3    H230639   2.346   1.166   6.974 -1.8132 -0.5769 -0.6418
 3002TIP3   OH230640   2.040   4.156   0.753  0.2509  0.8407  0.2585
 3002TIP3    H130641   2.115   4.175   0.809  0.9596 -0.7542 -0.0910
 3002TIP3    H230642   2.038   4.229   0.690  2.4920  0.1600 -0.7162
 3003TIP3   OH230643   4.711   1.679   1.162 -0.2292 -0.6314 -0.2589
 3003TIP3    H130644   4.616   1.692   1.168 -0.3157 -0.5123 -1.5313
 3003TIP3    H230645   4.745   1.765   1.138  0.2606 -0.5757  0.6039
 3004TIP3   OH230646   3.738   0.368   1.806 -0.0034  0.3640 -0.0335
 3004TIP3    H130647   3.662   0.324   1.768 -0.2354 -0.1926  1.0286
 3004TIP3    H230648   3.772   0.306   1.870  1.0520  0.8176 -0.1283
 3005TIP3   OH230649   3.637   4.045   8.122  0.0137 -0.4896 -0.7599
 3005TIP3    H130650   3.568   4.083   8.069 -0.2084 -1.1158 -0.9308
 3005TIP3    H230651   3.693   4.119   8.146 -0.9837  0.1113 -0.2010
 3006TIP3   OH230652   6.042   1.232   0.685  0.1223 -0.0232  0.1012
 3006TIP3    H130653   6.027   1.224   0.779 -0.1619  0.1636  0.0732
 3006TIP3    H230654   5.954   1.229   0.646  0.3438 -3.1044 -0.3942
 3007TIP3   OH230655   1.560   5.312   0.136 -0.1883  0.2321  0.0044
 3007TIP3    H130656   1.481   5.257   0.135 -0.1841  0.2189 -1.3451
 3007TIP3    H230657   1.633   5.250   0.135 -0.1826  0.2136 -1.7956
 3008TIP3   OH230658   4.884   4.861   6.923 -0.1408  0.5908 -0.6645
 3008TIP3    H130659   4.891   4.844   6.829 -1.2322 -0.0568 -0.6514
 3008TIP3    H230660   4.963   4.822   6.960 -0.7007 -1.0602 -1.0975
 3009TIP3   OH230661   4.198   0.779   1.690  0.0681 -0.9004 -0.5637
 3009TIP3    H130662   4.108   0.749   1.680 -0.1739  0.3983 -2.9984
 3009TIP3    H230663   4.217   0.826   1.609  2.8699 -0.9183 -0.0232
 3010TIP3   OH230664   2.312   2.955   0.774 -0.2821  0.2556 -0.5536
 3010TIP3    H130665   2.247   3.009   0.818 -2.6665 -1.9516 -1.1211
 3010TIP3    H230666   2.272   2.933   0.690  1.1396 -1.2799 -0.8890
 3011TIP3   OH230667   4.002   5.454   7.679 -0.1572 -0.0219 -0.0283
 3011TIP3    H130668   3.907   5.446   7.683 -0.2234  1.0604  1.0087
 3011TIP3    H230669   4.019   5.517   7.609 -0.2367  0.2111  0.1612
 3012TIP3   OH230670   4.103   3.650   7.233 -0.0668 -0.2754 -0.5309
 3012TIP3    H130671   4.098   3.588   7.160 -0.6556  1.6584 -2.2295
 3012TIP3    H230672   4.074   3.600   7.309  1.6194 -2.6857 -1.3646
 3013TIP3   OH230673   4.751   0.409   1.373  0.4396  0.0499 -0.1639
 3013TIP3    H130674   4.662   0.374   1.384  0.5383 -0.2333 -0.2544
 3013TIP3    H230675   4.740   0.485   1.316  0.5254 -1.3464 -2.1434
 3014TIP3   OH230676   2.599   0.833   8.314  0.0804 -0.8505  0.6457
 3014TIP3    H130677   2.552   0.766   8.365  0.6523 -0.8810  1.1473
 3014TIP3    H230678   2.603   0.798   8.226  1.9899 -2.3786  1.2671
 3015TIP3   OH230679   3.817   0.707   0.391 -0.1098 -0.2050  0.2643
 3015TIP3    H130680   3.739   0.760   0.379 -0.3980 -0.4359  1.1092
 3015TIP3    H230681   3.785   0.622   0.421  0.1732 -1.5603 -2.8136
 3016TIP3   OH230682   0.847   3.381   2.161 -0.4686  0.6793  0.0339
 3016TIP3    H130683   0.752   3.373   2.151 -0.3809 -0.2763 -0.1856
 3016TIP3    H230684   0.869   3.319   2.230 -0.0602  1.2856  0.4579
 3017TIP3   OH230685   0.084   4.841   0.298 -0.1352  0.1446  0.2770
 3017TIP3    H130686   0.029   4.875   0.228 -0.8488  1.7547  1.5508
 3017TIP3    H230687   0.101   4.750   0.274 -3.1862 -0.3642 -0.2901
 3018TIP3   OH230688   2.502   3.697   8.314  0.1438 -0.5791  0.1053
 3018TIP3    H130689   2.565   3.694   8.385  0.1540  0.3312  0.1347
 3018TIP3    H230690   2.442   3.624   8.332  1.2491 -1.5325 -0.0009
 3019TIP3   OH230691   4.664   6.987   3.032 -0.4753  0.0425 -0.0267
 3019TIP3    H130692   4.659   7.068   2.981  0.7172  1.6808  2.2873
 3019TIP3    H230693   4.749   6.949   3.009 -0.2661  0.3768  0.1927
 3020TIP3   OH230694   2.774   3.571   1.197  0.3759 -0.3177 -0.1567
 3020TIP3    H130695   2.779   3.599   1.288  0.5170 -2.6804  0.6303
 3020TIP3    H230696   2.719   3.637   1.155 -1.3724 -0.2282  2.0942
 3021TIP3   OH230697   1.361   5.067   6.813  0.5043  0.0434  0.2467
 3021TIP3    H130698   1.436   5.098   6.762  1.0090 -0.5998  0.5845
 3021TIP3    H230699   1.395   5.058   6.902 -0.3871  1.2455  0.7407
 3022TIP3   OH230700   1.446   3.574   0.235 -0.6128 -0.3361 -0.4639
 3022TIP3    H130701   1.478   3.530   0.157  1.2219  0.2211 -0.0807
 3022TIP3    H230702   1.467   3.514   0.307  0.9195  0.5899 -0.0628
 3023TIP3   OH230703   4.367   3.958   8.084 -0.3570  0.0201 -0.3683
 3023TIP3    H130704   4.287   3.907   8.077  0.0072 -0.4904 -0.9747
 3023TIP3    H230705   4.341   4.048   8.064 -0.9575  0.0369  0.4502
 3024TIP3   OH230706   5.073   4.096   1.968  0.0208  0.2530  0.6976
 3024TIP3    H130707   5.092   4.186   1.939  0.4765  0.1144  0.5668
 3024TIP3    H230708   5.086   4.099   2.063  0.1396  0.2981  0.6801
 3025TIP3   OH230709   1.127   3.369   0.981  0.0829 -0.0722 -0.5371
 3025TIP3    H130710   1.215   3.342   1.005 -0.6171 -0.4699  1.7503
 3025TIP3    H230711   1.109   3.445   1.035 -1.4235 -0.7414 -0.0425
 3026TIP3   OH230712   5.363   6.999   0.349  0.6004 -0.6505  0.4935
 3026TIP3    H130713   5.382   7.087   0.383 -0.2922  0.0757 -0.7849
 3026TIP3    H230714   5.283   6.973   0.395 -1.0408  0.6445 -1.4042
 3027TIP3   OH230715   0.690   1.902   0.368 -0.6058 -0.2076  0.0793
 3027TIP3    H130716   0.673   1.809   0.349 -0.4240 -0.2713  0.2227
 3027TIP3    H230717   0.614   1.948   0.332  0.2586 -0.1952 -1.8948
 3028TIP3   OH230718   1.228   3.199   2.385  0.5531 -0.0204  0.5910
 3028TIP3    H130719   1.221   3.164   2.296 -2.3466  2.3670 -0.2702
 3028TIP3    H230720   1.166   3.146   2.436  0.2296  0.3210  0.5550
 3029TIP3   OH230721   2.441   2.947   2.338  0.2308  0.2249 -0.4487
 3029TIP3    H130722   2.422   2.864   2.294  0.8521  0.4049 -1.0752
 3029TIP3    H230723   2.376   2.952   2.409  1.1540 -1.5290  0.5809
 3030TIP3   OH230724   6.067   5.207   0.755  0.0741 -0.0118 -0.0455
 3030TIP3    H130725   6.116   5.276   0.800 -1.0143  0.5774  0.2779
 3030TIP3    H230726   6.094   5.126   0.799  1.2985  0.2097 -0.3694
 3031TIP3   OH230727   2.244   3.582   0.815  0.0643  0.0395 -0.4916
 3031TIP3    H130728   2.171   3.521   0.806 -1.1703  0.9296  2.5568
 3031TIP3    H230729   2.206   3.669   0.798  0.6879  0.4090 -0.0643
 3032TIP3   OH230730   4.809   3.094   2.492 -0.4463 -0.0748 -0.0544
 3032TIP3    H130731   4.886   3.070   2.543 -0.2350 -1.2507 -0.8728
 3032TIP3    H230732   4.799   3.188   2.504 -1.1372 -0.4535  3.1607
 3033TIP3   OH230733   0.839   5.426   7.158 -0.7608 -0.3963  0.1873
 3033TIP3    H130734   0.854   5.332   7.172 -0.1375 -0.0339  2.2178
 3033TIP3    H230735   0.888   5.469   7.228 -0.1719  1.5217 -1.3164
 3034TIP3   OH230736   4.576   3.494   7.600 -0.2847  0.0734  0.0195
 3034TIP3    H130737   4.597   3.507   7.693  0.7260  0.3635 -0.2397
 3034TIP3    H230738   4.647   3.439   7.567 -0.4780  0.2154 -0.6462
 3035TIP3   OH230739   0.553   2.672   0.190  0.6277  0.1852  0.0728
 3035TIP3    H130740   0.513   2.608   0.248  1.1506 -1.3615 -1.1905
 3035TIP3    H230741   0.644   2.644   0.183  0.8740  1.0935 -0.4796
 3036TIP3   OH230742   1.698   2.346   7.594  0.2479 -0.2764 -0.0127
 3036TIP3    H130743   1.634   2.368   7.526  0.3690  0.6265  0.1524
 3036TIP3    H230744   1.705   2.425   7.647 -0.7050 -1.3385  1.7593
 3037TIP3   OH230745   0.097   6.229   0.511 -0.1626  0.0223  0.0033
 3037TIP3    H130746   0.102   6.175   0.432 -1.2903 -0.1571  0.0375
 3037TIP3    H230747   0.088   6.318   0.479 -2.6407 -0.2154 -0.1515
 3038TIP3   OH230748   5.888   1.112   2.109  0.0835 -0.9322  0.2518
 3038TIP3    H130749   5.875   1.034   2.055  1.1303 -0.9376 -0.0157
 3038TIP3    H230750   5.841   1.093   2.190 -0.1955 -1.5817 -0.0579
 3039TIP3   OH230751   4.902   1.674   6.844  0.1012  0.0558 -0.4680
 3039TIP3    H130752   4.826   1.651   6.792  0.7170  0.2205 -1.4749
 3039TIP3    H230753   4.868   1.730   6.914 -0.6853  0.1701 -0.9372
 3040TIP3   OH230754   6.561   1.548   1.371 -0.2904  0.7798 -0.0925
 3040TIP3    H130755   6.515   1.544   1.286 -0.5809 -0.1746  0.0970
 3040TIP3    H230756   6.494   1.579   1.432  0.0101  1.7942 -0.2602
 3041TIP3   OH230757   3.458   4.889   2.106  0.0673 -0.0286  0.1335
 3041TIP3    H130758   3.481   4.798   2.088 -0.7295 -0.4891  1.2894
 3041TIP3    H230759   3.509   4.911   2.183  0.0772  0.4327 -0.0054
 3042TIP3   OH230760   2.443   0.334   0.564  0.2403 -0.5494  0.3389
 3042TIP3    H130761   2.492   0.408   0.600 -0.1963 -0.5816  1.0154
 3042TIP3    H230762   2.466   0.333   0.471  0.3182  0.3800  0.3432
 3043TIP3   OH230763   3.420   5.941   0.438 -0.1170  0.0108 -0.2311
 3043TIP3    H130764   3.429   5.855   0.396 -4.0787 -1.1424  0.8310
 3043TIP3    H230765   3.402   5.920   0.530 -1.0552  1.9602  0.0833
 3044TIP3   OH230766   2.067   5.963   7.781 -0.2504 -0.1581 -0.7171
 3044TIP3    H130767   2.149   6.006   7.759  0.6798 -1.2925  0.3843
 3044TIP3    H230768   2.070   5.954   7.877 -0.8169 -1.8130 -0.8345
 3045TIP3   OH230769   6.683   1.098   2.313  0.7147  0.2163 -0.0233
 3045TIP3    H130770   6.608   1.148   2.346  0.4117  0.4982 -1.0988
 3045TIP3    H230771   6.702   1.138   2.228  2.2212  0.2806  0.3262
 3046TIP3   OH230772   4.331   0.471   2.557 -0.3433 -0.5016  0.2139
 3046TIP3    H130773   4.405   0.531   2.559  0.4450 -1.4678  0.9917
 3046TIP3    H230774   4.278   0.494   2.633 -1.2498  0.6612 -0.7416
 3047TIP3   OH230775   1.767   2.395   1.640 -0.7836 -0.2987  0.4859
 3047TIP3    H130776   1.782   2.418   1.732 -0.9996 -0.6183  0.6005
 3047TIP3    H230777   1.707   2.462   1.608  0.9403  1.0792 -0.0111
 3048TIP3   OH230778   5.015   0.846   6.868  0.5609 -0.0906  0.0974
 3048TIP3    H130779   5.080   0.828   6.936  1.9720  0.3792 -1.0799
 3048TIP3    H230780   5.058   0.908   6.809 -1.0069  0.3251 -0.6723
 3049TIP3   OH230781   4.962   5.204   2.274  0.4923 -0.1988  0.4171
 3049TIP3    H130782   4.957   5.283   2.327  0.8044 -0.3908  0.7317
 3049TIP3    H230783   4.928   5.135   2.330 -0.7261 -0.1349 -0.1915
 3050TIP3   OH230784   2.370   5.412   2.194  0.1945 -0.6232 -0.0145
 3050TIP3    H130785   2.393   5.496   2.234 -0.5809 -1.1231  1.5678
 3050TIP3    H230786   2.400   5.420   2.103 -1.0180  1.8621 -0.3014
 3051TIP3   OH230787   3.866   3.374   7.954 -0.3290 -0.3039  0.5264
 3051TIP3    H130788   3.829   3.427   8.025  0.4093 -1.6436  1.9925
 3051TIP3    H230789   3.961   3.383   7.966 -0.2036 -1.1964  0.2163
 3052TIP3   OH230790   2.544   1.201   0.540  0.1098  0.1677  0.0330
 3052TIP3    H130791   2.556   1.107   0.527  0.6730 -0.1490  2.4125
 3052TIP3    H230792   2.618   1.241   0.493  1.0039 -0.7296  0.6287
 3053TIP3   OH230793   1.960   5.059   8.114 -0.3818  0.4322  0.2736
 3053TIP3    H130794   1.895   5.062   8.184 -1.4287  1.3560 -0.6933
 3053TIP3    H230795   1.909   5.069   8.034  0.7201 -1.1164 -0.6874
 3054TIP3   OH230796   2.479   1.051   7.070 -0.5385 -0.1734 -0.2940
 3054TIP3    H130797   2.528   0.972   7.048  2.7583  2.0140 -1.5381
 3054TIP3    H230798   2.472   1.050   7.165  1.9998 -0.6796 -0.0490
 3055TIP3   OH230799   5.507   0.233   1.158 -0.6481 -0.8088  0.1734
 3055TIP3    H130800   5.412   0.237   1.146 -0.6530 -1.7564 -0.1454
 3055TIP3    H230801   5.534   0.153   1.113  0.3378 -0.4268  0.0558
 3056TIP3   OH230802   6.872   1.006   1.990  0.4821 -0.0570 -0.0232
 3056TIP3    H130803   6.821   0.931   2.021  2.9561 -1.0151  2.0488
 3056TIP3    H230804   6.921   0.973   1.915 -1.7914  0.8929 -2.0824
 3057TIP3   OH230805   5.634   3.657   8.410  0.2713 -0.3470 -0.4525
 3057TIP3    H130806   5.566   3.645   8.343 -0.5134  0.0378  0.2617
 3057TIP3    H230807   5.641   3.752   8.420  0.3556 -0.4011  0.0305
 3058TIP3   OH230808   6.012   6.753   2.096 -0.2799 -0.0965 -0.1075
 3058TIP3    H130809   5.965   6.725   2.175  0.1146 -1.9055 -0.4744
 3058TIP3    H230810   5.957   6.721   2.024  0.5985 -0.6390 -0.5460
 3059TIP3   OH230811   2.418   3.293   1.075  0.0761 -0.6481  0.4289
 3059TIP3    H130812   2.322   3.298   1.075  0.0923  0.0749 -0.7512
 3059TIP3    H230813   2.445   3.364   1.016  1.2976 -1.4853 -0.0457
 3060TIP3   OH230814   3.327   6.058   1.751  0.3334 -0.5269 -0.6951
 3060TIP3    H130815   3.261   5.995   1.721 -0.7447  0.0226  0.4217
 3060TIP3    H230816   3.410   6.013   1.738 -0.4101 -2.2277  0.0933
 3061TIP3   OH230817   0.231   1.140   1.167  0.1183  0.5225  0.3371
 3061TIP3    H130818   0.199   1.212   1.222  1.2065  0.5902  0.9026
 3061TIP3    H230819   0.323   1.162   1.150 -0.1153  0.3402 -1.2704
 3062TIP3   OH230820   3.036   2.612   0.127 -0.4878 -0.2708  0.1113
 3062TIP3    H130821   2.948   2.577   0.116 -1.7688  2.9616 -0.8338
 3062TIP3    H230822   3.066   2.574   0.209 -2.9744 -1.0683  0.7386
 3063TIP3   OH230823   6.919   1.118   0.435  0.1083 -0.0590 -0.5208
 3063TIP3    H130824   6.923   1.212   0.449  0.2653 -0.2412  0.8970
 3063TIP3    H230825   6.827   1.095   0.444 -0.1506  0.1461 -2.4288
 3064TIP3   OH230826   0.593   3.682   2.249 -0.2195  0.5443 -0.2088
 3064TIP3    H130827   0.674   3.720   2.215  0.1903  0.2632  0.4365
 3064TIP3    H230828   0.540   3.666   2.171  0.6012  0.1559 -0.7045
 3065TIP3   OH230829   1.731   0.252   1.911  0.7413 -0.0465  0.6428
 3065TIP3    H130830   1.725   0.158   1.929 -3.1465 -0.1377 -0.1710
 3065TIP3    H230831   1.647   0.288   1.941  1.0755  2.7246 -1.3175
 3066TIP3   OH230832   2.295   2.868   1.585  0.4732  0.3052 -0.6350
 3066TIP3    H130833   2.218   2.814   1.605 -0.3444  0.4978 -2.9551
 3066TIP3    H230834   2.351   2.812   1.533  1.0460  0.7646 -0.5217
 3067TIP3   OH230835   5.518   4.639   0.551  0.8302 -0.2651 -0.2847
 3067TIP3    H130836   5.478   4.705   0.608  0.9277  0.3092 -0.8665
 3067TIP3    H230837   5.466   4.560   0.565  1.6900 -0.5452  1.6366
 3068TIP3   OH230838   5.946   6.128   1.165 -0.0487 -0.1952 -0.4297
 3068TIP3    H130839   6.041   6.118   1.165 -0.2103 -1.9856 -0.4003
 3068TIP3    H230840   5.921   6.122   1.257 -0.3725 -1.9959 -0.6114
 3069TIP3   OH230841   1.493   4.919   0.954 -0.4340 -0.1084  0.1568
 3069TIP3    H130842   1.499   4.995   1.012 -2.5935  0.0206  0.2969
 3069TIP3    H230843   1.454   4.953   0.873  0.1823 -0.7623 -0.4291
 3070TIP3   OH230844   5.428   4.225   0.944 -0.1870 -0.9204  0.4219
 3070TIP3    H130845   5.370   4.231   0.867  0.3195 -1.8036 -0.0408
 3070TIP3    H230846   5.415   4.308   0.989  1.8294  1.0655 -2.3033
 3071TIP3   OH230847   4.061   6.034   0.491 -0.4606 -0.3541 -0.3784
 3071TIP3    H130848   4.025   5.986   0.565 -2.6701  1.6916 -0.0014
 3071TIP3    H230849   4.099   6.113   0.529  1.7317 -0.9701 -1.1249
 3072TIP3   OH230850   6.799   1.734   2.136 -0.4713  0.2298 -0.1822
 3072TIP3    H130851   6.809   1.829   2.130 -0.5510  0.2940  0.6161
 3072TIP3    H230852   6.828   1.712   2.225 -0.8938 -0.4374 -0.2011
 3073TIP3   OH230853   0.301   3.878   2.340  0.4690 -0.4078 -0.0136
 3073TIP3    H130854   0.282   3.934   2.416  1.9057  0.8972 -0.5559
 3073TIP3    H230855   0.311   3.790   2.377 -0.0260 -0.0005  1.1431
 3074TIP3   OH230856   1.659   6.676   7.801  0.0388 -0.0268  0.0374
 3074TIP3    H130857   1.634   6.733   7.874  0.3247  1.0662 -0.6961
 3074TIP3    H230858   1.719   6.612   7.840 -1.7014 -0.9943  1.2516
 3075TIP3   OH230859   2.305   0.535   2.564 -0.1909  0.5432 -0.3869
 3075TIP3    H130860   2.315   0.621   2.606 -1.4661  0.5748 -0.1015
 3075TIP3    H230861   2.390   0.519   2.523  0.1173  1.8900 -0.3493
 3076TIP3   OH230862   5.660   3.288   7.920  0.5961  0.7400 -0.1961
 3076TIP3    H130863   5.568   3.264   7.922  1.4148 -3.2996 -1.5239
 3076TIP3    H230864   5.681   3.293   7.827  1.9981  0.1111  0.0602
 3077TIP3   OH230865   3.615   1.523   2.080  0.2726 -0.4083  0.9583
 3077TIP3    H130866   3.684   1.466   2.113  1.4373 -1.5720 -2.8950
 3077TIP3    H230867   3.542   1.464   2.062  0.1686 -0.1011  0.3121
 3078TIP3   OH230868   3.507   1.243   0.609  0.5329 -0.9848 -0.0088
 3078TIP3    H130869   3.481   1.173   0.550 -0.3705 -0.4169 -0.3056
 3078TIP3    H230870   3.494   1.323   0.558 -0.1832 -0.4928  0.9139
 3079TIP3   OH230871   3.401   5.864   1.464  0.2034 -0.1078 -0.2912
 3079TIP3    H130872   3.417   5.887   1.556  1.0059 -1.7485  0.0199
 3079TIP3    H230873   3.483   5.887   1.420 -0.1905  0.7014 -0.6145
 3080TIP3   OH230874   6.285   5.151   1.995  0.0968  0.0187 -0.0290
 3080TIP3    H130875   6.242   5.230   2.027  2.8849  1.6461  0.0098
 3080TIP3    H230876   6.327   5.114   2.072  0.7920 -0.1527 -0.4847
 3081TIP3   OH230877   4.343   1.386   8.041 -0.1098  0.2833 -0.3462
 3081TIP3    H130878   4.302   1.467   8.072  0.1893  0.0215  0.7543
 3081TIP3    H230879   4.271   1.324   8.034 -0.1425  0.2678  0.0908
 3082TIP3   OH230880   5.960   3.799   1.005 -0.2744  0.1191  0.4756
 3082TIP3    H130881   5.873   3.837   0.993 -0.3464 -0.2391 -0.1749
 3082TIP3    H230882   5.945   3.705   1.007 -0.2242  0.0846  3.0523
 3083TIP3   OH230883   6.278   3.034   1.830  0.0995  0.4256  0.5118
 3083TIP3    H130884   6.236   3.087   1.763  0.2430 -1.1864 -0.9333
 3083TIP3    H230885   6.337   3.094   1.876 -0.0876  1.6038 -0.7373
 3084TIP3   OH230886   5.277   0.504   7.503 -0.5025  0.5953 -0.2492
 3084TIP3    H130887   5.204   0.536   7.451 -0.6699  0.1928 -0.2706
 3084TIP3    H230888   5.277   0.559   7.581  2.2911  4.0026 -2.3863
 3085TIP3   OH230889   2.479   5.206   7.492 -0.1394 -0.3668  0.0304
 3085TIP3    H130890   2.408   5.161   7.536  1.4604 -2.3147  0.7674
 3085TIP3    H230891   2.521   5.139   7.439  0.7602  0.8871 -0.9158
 3086TIP3   OH230892   2.305   2.959   7.513  0.2842  0.4754  0.4988
 3086TIP3    H130893   2.284   2.893   7.579 -0.9290 -0.2409 -0.5403
 3086TIP3    H230894   2.315   2.909   7.432 -0.7376  1.5576 -0.3315
 3087TIP3   OH230895   2.566   6.023   2.046 -0.0006  0.0553 -0.5216
 3087TIP3    H130896   2.572   6.117   2.063  0.2181 -0.2905  1.4967
 3087TIP3    H230897   2.479   5.999   2.077  1.2321 -0.9987  2.5051
 3088TIP3   OH230898   3.901   1.259   2.632 -0.1099  0.1327  0.5936
 3088TIP3    H130899   3.950   1.182   2.605  0.7447  1.4443 -1.8848
 3088TIP3    H230900   3.809   1.234   2.621  0.1556 -0.5365 -0.1903
 3089TIP3   OH230901   0.829   5.411   2.062  0.3287 -0.3113  0.5550
 3089TIP3    H130902   0.886   5.435   2.135  1.7227  0.5406 -0.7574
 3089TIP3    H230903   0.759   5.360   2.103  2.0802 -1.5414  2.2344
 3090TIP3   OH230904   0.306   1.150   7.804  0.2053  0.3683  0.5798
 3090TIP3    H130905   0.285   1.179   7.893  2.0504  1.2834  0.7599
 3090TIP3    H230906   0.332   1.230   7.759 -2.2176  0.2072 -1.3190
 3091TIP3   OH230907   2.008   0.516   2.903 -0.2390 -0.4108  0.7629
 3091TIP3    H130908   1.969   0.439   2.862 -1.9032  0.8639 -0.1956
 3091TIP3    H230909   2.101   0.495   2.911 -0.0234 -1.2616 -2.5418
 3092TIP3   OH230910   2.147   3.063   1.328  0.2013 -0.5129 -0.2063
 3092TIP3    H130911   2.215   2.996   1.341 -0.6196 -1.4739 -0.7250
 3092TIP3    H230912   2.085   3.049   1.400 -0.0048 -0.3531 -0.3509
 3093TIP3   OH230913   3.119   2.909   7.594 -0.1891  0.4860 -0.0064
 3093TIP3    H130914   3.036   2.884   7.636 -0.2881 -0.0021 -0.4754
 3093TIP3    H230915   3.152   2.827   7.558  0.9629  0.4994  0.9562
 3094TIP3   OH230916   4.546   3.836   7.505 -0.0082  0.1279 -0.0293
 3094TIP3    H130917   4.533   3.837   7.410  0.4876  0.8441 -0.0916
 3094TIP3    H230918   4.547   3.743   7.528 -1.0047 -0.0429 -0.5965
 3095TIP3   OH230919   4.015   3.891   0.172 -0.1835 -0.3374  0.1273
 3095TIP3    H130920   3.981   3.819   0.119 -3.1711 -1.0462  2.7074
 3095TIP3    H230921   3.962   3.967   0.146  0.8994  0.2564 -0.4453
 3096TIP3   OH230922   0.400   3.361   0.831 -0.4653 -0.5789  0.3516
 3096TIP3    H130923   0.427   3.272   0.808 -0.5691 -0.5458  0.1041
 3096TIP3    H230924   0.373   3.400   0.749  1.5983  0.3993  0.0828
 3097TIP3   OH230925   4.343   2.095   2.677 -0.1687  0.3138  0.1666
 3097TIP3    H130926   4.374   2.186   2.672  1.3072 -0.2000 -0.7131
 3097TIP3    H230927   4.390   2.058   2.752 -1.5666  0.5327  1.1869
 3098TIP3   OH230928   1.931   0.062   8.259  0.3050 -0.4598 -0.2787
 3098TIP3    H130929   1.916  -0.021   8.305  0.1164 -0.4954 -0.4051
 3098TIP3    H230930   1.935   0.038   8.167  0.9057 -0.4193 -0.2651
 3099TIP3   OH230931   6.117   0.703   1.049  0.1078 -0.1267 -0.1103
 3099TIP3    H130932   6.051   0.634   1.053  0.2444 -0.2138  1.5535
 3099TIP3    H230933   6.201   0.656   1.045  0.2426 -0.1228  1.7796
 3100TIP3   OH230934   5.239   3.107   6.909 -0.1709  0.5164  0.4590
 3100TIP3    H130935   5.298   3.064   6.970  0.1375 -0.6689 -0.6504
 3100TIP3    H230936   5.168   3.044   6.895  0.9694 -0.3021 -2.2447
 3101TIP3   OH230937   3.477   4.794   0.074 -0.1304  0.0205  0.1018
 3101TIP3    H130938   3.473   4.827   0.164 -1.1831 -0.7181  0.3326
 3101TIP3    H230939   3.424   4.715   0.075  0.3638 -0.3408 -1.0339
 3102TIP3   OH230940   0.961   0.459   1.784 -0.2162 -0.4820  0.3595
 3102TIP3    H130941   1.029   0.492   1.725 -1.1969  1.1561  0.0843
 3102TIP3    H230942   0.985   0.492   1.870 -1.1493  0.9251  0.1001
 3103TIP3   OH230943   1.155   4.868   2.569  0.1081  0.1921 -0.2379
 3103TIP3    H130944   1.060   4.861   2.573  0.0520 -0.0052 -1.4916
 3103TIP3    H230945   1.186   4.805   2.634 -0.6061  1.7589  1.7195
 3104TIP3   OH230946   5.435   6.183   0.165  0.0723 -0.1473  0.2908
 3104TIP3    H130947   5.452   6.227   0.082 -0.7509 -3.5102 -1.8513
 3104TIP3    H230948   5.521   6.151   0.193  1.0247  3.8947  2.8118
 3105TIP3   OH230949   4.294   5.139   0.712 -0.0125  0.2310 -0.2692
 3105TIP3    H130950   4.239   5.105   0.641  0.3524  0.0457 -0.4617
 3105TIP3    H230951   4.380   5.100   0.697  0.9172  2.5795 -1.4964
 3106TIP3   OH230952   6.005   1.681   0.981 -0.2546 -0.4418 -0.9092
 3106TIP3    H130953   5.979   1.673   0.889 -0.7809  0.3444 -0.8413
 3106TIP3    H230954   6.033   1.593   1.006 -2.3965 -1.2414 -1.1431
 3107TIP3   OH230955   1.074   2.168   1.085  0.4297  0.2419 -0.0846
 3107TIP3    H130956   1.036   2.082   1.070  0.9430 -0.1466  0.7160
 3107TIP3    H230957   1.041   2.194   1.172  1.5542  0.1195  0.3963
 3108TIP3   OH230958   5.682   5.503   1.343 -0.2615 -0.1619 -0.3151
 3108TIP3    H130959   5.742   5.571   1.312  1.1589 -1.3400 -0.2588
 3108TIP3    H230960   5.597   5.547   1.348  0.4336  1.3649 -1.1139
 3109TIP3   OH230961   5.888   2.249   1.848 -0.3160  0.0762 -0.0667
 3109TIP3    H130962   5.921   2.176   1.797  1.0575  1.0073 -0.5627
 3109TIP3    H230963   5.830   2.296   1.789 -1.1444 -0.5465  0.2304
 3110TIP3   OH230964   2.755   5.722   0.086  0.1412  0.0474 -0.1924
 3110TIP3    H130965   2.824   5.686   0.030 -0.0492 -1.1752  0.3443
 3110TIP3    H230966   2.676   5.719   0.032  0.1222 -0.3480 -0.1405
 3111TIP3   OH230967   4.149   4.743   7.731  0.3628  0.0895 -0.2440
 3111TIP3    H130968   4.171   4.661   7.687  1.6665  0.9095 -1.1609
 3111TIP3    H230969   4.131   4.804   7.660  0.6336  0.9317  0.4000
 3112TIP3   OH230970   1.431   1.933   1.386 -0.5602 -0.5634 -0.0876
 3112TIP3    H130971   1.424   1.990   1.310 -0.4473  0.6788  0.7863
 3112TIP3    H230972   1.525   1.925   1.401 -0.5860 -0.4871  0.1265
 3113TIP3   OH230973   3.803   3.607   8.113  0.5091 -0.3312  0.8912
 3113TIP3    H130974   3.722   3.588   8.159  0.0268 -0.2399  0.0923
 3113TIP3    H230975   3.830   3.692   8.147 -0.3750  0.2039  0.2911
 3114TIP3   OH230976   2.524   1.981   2.662 -0.4118 -0.4757 -0.1391
 3114TIP3    H130977   2.519   1.997   2.567 -0.2365 -1.2989 -0.2965
 3114TIP3    H230978   2.611   1.943   2.675  0.4481  1.6455  0.6788
 3115TIP3   OH230979   6.859   6.587   1.132 -0.5782  0.5026  0.4041
 3115TIP3    H130980   6.901   6.567   1.215 -0.9898  2.4255  1.1268
 3115TIP3    H230981   6.813   6.670   1.147 -1.3853  0.4608 -1.4886
 3116TIP3   OH230982   5.450   6.738   0.393  0.3498  0.2639  0.4677
 3116TIP3    H130983   5.481   6.698   0.311 -0.0586 -0.1404  0.5029
 3116TIP3    H230984   5.422   6.826   0.368 -2.2232 -0.7009 -0.3806
 3117TIP3   OH230985   2.150   5.003   7.333  0.0946 -0.0516  0.2747
 3117TIP3    H130986   2.221   5.033   7.277  0.0808 -0.7346 -0.1176
 3117TIP3    H230987   2.087   4.963   7.273 -1.5835  2.2470  0.3466
 3118TIP3   OH230988   1.350   2.142   1.177 -0.7870 -0.3332  0.6065
 3118TIP3    H130989   1.335   2.227   1.218 -1.6975 -0.8312  1.3546
 3118TIP3    H230990   1.263   2.114   1.147 -0.3078 -0.4603 -0.7339
 3119TIP3   OH230991   0.986   4.403   8.006 -0.2414  0.0352 -0.5499
 3119TIP3    H130992   0.923   4.374   8.072  0.3866 -0.4263 -0.1342
 3119TIP3    H230993   0.960   4.357   7.926 -0.4933 -0.0754 -0.4052
 3120TIP3   OH230994   0.045   6.528   7.566 -0.0293 -0.3114  0.4969
 3120TIP3    H130995   0.115   6.491   7.620  0.0658 -1.8118 -0.5935
 3120TIP3    H230996   0.087   6.601   7.520  0.3032 -0.0151  1.2532
 3121TIP3   OH230997   3.294   4.571   2.210  0.6228  0.3317  0.4584
 3121TIP3    H130998   3.381   4.598   2.180  0.2365 -0.1912 -1.2122
 3121TIP3    H230999   3.271   4.636   2.277  1.2665  1.9800 -0.8429
 3122TIP3   OH231000   6.169   6.033   7.682  0.3476 -0.2592  0.3691
 3122TIP3    H131001   6.205   6.075   7.761  1.4985  0.1390 -0.3314
 3122TIP3    H231002   6.200   5.942   7.687 -0.0247 -0.3705  0.6397
 3123TIP3   OH231003   2.929   4.130   0.736 -0.0474 -0.1474  0.4126
 3123TIP3    H131004   2.914   4.212   0.783  0.2099 -0.1738  0.5455
 3123TIP3    H231005   2.985   4.154   0.662  3.3357 -0.7270  2.5097
 3124TIP3   OH231006   1.325   1.944   7.363 -0.0169  0.2837  0.0246
 3124TIP3    H131007   1.319   2.031   7.403 -0.8106  1.0586 -1.6778
 3124TIP3    H231008   1.342   1.885   7.436  0.4197  1.8510  1.2365
 3125TIP3   OH231009   5.885   3.824   7.739  0.1867  0.0710  0.2151
 3125TIP3    H131010   5.792   3.801   7.749  0.3710 -0.5573  0.5529
 3125TIP3    H231011   5.893   3.851   7.648 -0.1932 -0.5285 -0.0045
 3126TIP3   OH231012   0.455   6.336   7.486  0.2558 -0.4457  0.2347
 3126TIP3    H131013   0.367   6.310   7.458 -0.0745 -2.0385  2.5163
 3126TIP3    H231014   0.476   6.411   7.430 -1.0815 -2.1439 -2.8147
 3127TIP3   OH231015   4.198   6.554   1.804  0.6443  0.2703  0.0582
 3127TIP3    H131016   4.173   6.524   1.891  0.9140 -1.1043 -0.3079
 3127TIP3    H231017   4.293   6.568   1.810  0.8422 -0.8478 -0.2779
 3128TIP3   OH231018   3.310   1.280   6.935 -0.0743  0.4611 -0.4014
 3128TIP3    H131019   3.354   1.232   7.005  0.1118  0.1631 -0.7226
 3128TIP3    H231020   3.378   1.335   6.896  0.0815 -0.1652 -1.0440
 3129TIP3   OH231021   6.634   3.530   0.761  0.6077  0.3628  0.0063
 3129TIP3    H131022   6.723   3.497   0.744  0.1232 -0.8263 -0.3221
 3129TIP3    H231023   6.636   3.620   0.729  1.0385 -0.3826 -2.3006
 3130TIP3   OH231024   1.337   1.835   1.047  0.5826 -0.4294 -0.4145
 3130TIP3    H131025   1.248   1.799   1.057  0.1969  0.9260  1.3997
 3130TIP3    H231026   1.364   1.857   1.136  4.2619 -4.1487 -0.3334
 3131TIP3   OH231027   5.249   6.818   0.129 -0.0207  0.3075  0.3868
 3131TIP3    H131028   5.235   6.875   0.054  1.2328 -0.1841 -0.2519
 3131TIP3    H231029   5.212   6.866   0.203 -0.7377  1.0638 -0.4472
 3132TIP3   OH231030   1.007   2.063   2.584  0.8075 -0.0128  0.5082
 3132TIP3    H131031   1.027   2.121   2.510  1.6104 -1.1345 -0.1860
 3132TIP3    H231032   1.089   2.060   2.634  0.5781 -0.0789  0.8840
 3133TIP3   OH231033   3.821   5.907   2.392  0.3030 -0.3562 -0.0530
 3133TIP3    H131034   3.798   5.998   2.412 -1.1473 -0.3809 -1.4023
 3133TIP3    H231035   3.759   5.855   2.443  0.7603 -0.5844  0.2764
 3134TIP3   OH231036   0.152   5.295   0.139 -0.4213 -0.4749  0.2947
 3134TIP3    H131037   0.070   5.256   0.108  0.7255 -1.3418 -1.9204
 3134TIP3    H231038   0.214   5.281   0.067  0.6074  3.9183  0.0034
 3135TIP3   OH231039   5.259   2.561   1.161 -0.2196 -0.2514  0.3237
 3135TIP3    H131040   5.321   2.492   1.138  0.1441  0.3316 -0.5140
 3135TIP3    H231041   5.298   2.605   1.237  1.1114  0.9556 -0.9841
 3136TIP3   OH231042   1.143   1.019   0.356  0.1642  0.0823  0.1498
 3136TIP3    H131043   1.059   1.061   0.338  0.7904  1.1761 -0.3578
 3136TIP3    H231044   1.196   1.039   0.279  0.4887 -1.7199 -0.1304
 3137TIP3   OH231045   6.412   4.234   2.186 -0.5187  0.4271  0.4989
 3137TIP3    H131046   6.354   4.279   2.248 -1.7332  0.7920 -0.8427
 3137TIP3    H231047   6.370   4.247   2.101 -0.5942 -2.7060 -0.0558
 3138TIP3   OH231048   3.031   1.769   2.663 -0.0179 -0.6072 -0.8258
 3138TIP3    H131049   3.110   1.717   2.649  1.0524 -0.0422  2.3019
 3138TIP3    H231050   3.052   1.856   2.628  1.0334 -0.2848  0.5417
 3139TIP3   OH231051   2.651   6.493   2.348  0.2676  0.4671  0.2174
 3139TIP3    H131052   2.582   6.537   2.296 -0.9912 -1.3145  0.2954
 3139TIP3    H231053   2.614   6.487   2.436  0.6673 -0.1741  0.3462
 3140TIP3   OH231054   1.648   6.109   0.393 -0.1568  0.3765  0.2039
 3140TIP3    H131055   1.729   6.069   0.361 -0.8512 -1.3735  0.4873
 3140TIP3    H231056   1.622   6.169   0.323  0.3671 -0.4895 -0.7647
 3141TIP3   OH231057   6.017   4.671   0.775  0.5996  0.2733  1.0065
 3141TIP3    H131058   5.989   4.598   0.830 -1.7844  1.2044  1.1872
 3141TIP3    H231059   6.107   4.689   0.802  0.0486 -0.3093  3.5000
 3142TIP3   OH231060   3.863   4.430   1.073 -0.3099  0.1443 -0.5914
 3142TIP3    H131061   3.893   4.481   1.149  0.0415  0.1500 -0.7340
 3142TIP3    H231062   3.835   4.496   1.010  0.9917  0.2176 -1.1382
 3143TIP3   OH231063   5.568   1.429   0.721  0.6618  0.0020  0.6548
 3143TIP3    H131064   5.510   1.384   0.660  1.0051  0.4792 -0.0280
 3143TIP3    H231065   5.526   1.514   0.736  0.9534  0.1721  0.5102
 3144TIP3   OH231066   6.505   3.696   0.353  0.7728 -0.0950 -0.1031
 3144TIP3    H131067   6.448   3.756   0.304  1.1249 -0.2492 -0.7050
 3144TIP3    H231068   6.445   3.628   0.385  0.5205  0.0774 -0.2011
 3145TIP3   OH231069   6.059   2.255   0.089 -0.1577  0.1481 -0.0964
 3145TIP3    H131070   6.143   2.234   0.049 -0.8467  0.4362 -1.7519
 3145TIP3    H231071   6.063   2.350   0.104  1.1340 -0.2718  3.1117
 3146TIP3   OH231072   6.253   6.616   2.149 -0.2389 -0.0011 -0.5121
 3146TIP3    H131073   6.182   6.645   2.092 -0.4792 -0.1173 -0.2752
 3146TIP3    H231074   6.332   6.626   2.096 -0.6262 -1.7788 -1.5212
 3147TIP3   OH231075   0.709   1.156   1.981 -0.0965 -0.2982 -0.7370
 3147TIP3    H131076   0.796   1.187   1.956  1.3933 -1.1312  2.7602
 3147TIP3    H231077   0.655   1.235   1.985  0.7480  0.3738 -1.9503
 3148TIP3   OH231078   2.378   0.939   0.640 -1.1246 -0.1217  0.1209
 3148TIP3    H131079   2.400   0.885   0.716  0.5050  1.8803  1.1821
 3148TIP3    H231080   2.383   0.878   0.565  2.3149 -1.1975  1.0313
 3149TIP3   OH231081   4.364   4.667   0.199  0.2504 -0.2502  0.0906
 3149TIP3    H131082   4.325   4.651   0.113  0.6372 -0.8181  0.0156
 3149TIP3    H231083   4.415   4.747   0.188 -0.3069  0.0979 -0.0026
 3150TIP3   OH231084   4.488   0.912   0.262 -0.8067  0.6361 -0.2590
 3150TIP3    H131085   4.433   0.876   0.193 -1.4027 -0.5423  0.7929
 3150TIP3    H231086   4.447   0.995   0.285 -0.6942  0.9587 -1.1965
 3151TIP3   OH231087   4.200   5.848   1.705  0.2264  0.1011  0.6281
 3151TIP3    H131088   4.142   5.814   1.773  1.4957 -0.0997  1.6464
 3151TIP3    H231089   4.240   5.770   1.667  0.2895  0.2717  0.3383
 3152TIP3   OH231090   3.354   2.824   0.327 -0.4362  0.1527 -0.2176
 3152TIP3    H131091   3.328   2.757   0.390  0.7796 -2.2903 -2.1255
 3152TIP3    H231092   3.279   2.833   0.269 -1.1565  1.6284  0.8707
 3153TIP3   OH231093   5.989   1.861   0.292 -0.0128 -0.4602 -0.1911
 3153TIP3    H131094   6.076   1.891   0.263 -0.4725  3.4068  1.8366
 3153TIP3    H231095   5.976   1.904   0.376 -4.2340 -0.1911 -0.7906
 3154TIP3   OH231096   1.156   5.211   8.188 -0.3406  0.3901 -0.5359
 3154TIP3    H131097   1.185   5.268   8.117  0.5886 -0.2630 -0.7007
 3154TIP3    H231098   1.120   5.271   8.254  1.0553  1.2220 -0.4941
 3155TIP3   OH231099   0.053   3.583   7.017 -0.6373 -0.2246  0.0547
 3155TIP3    H131100   0.128   3.524   7.009 -0.4652 -0.1776  1.1446
 3155TIP3    H231101   0.071   3.653   6.954  1.8810  1.4570  2.3828
 3156TIP3   OH231102   2.171   3.751   8.189  0.1533 -0.6568 -0.6264
 3156TIP3    H131103   2.238   3.805   8.231  0.9467 -1.2327 -1.1297
 3156TIP3    H231104   2.155   3.680   8.252 -2.9418  1.5474  1.3643
 3157TIP3   OH231105   2.028   3.534   8.394  0.4567 -0.2085  0.1892
 3157TIP3    H131106   2.011   3.563   8.484 -1.3912  0.2415 -0.2619
 3157TIP3    H231107   1.961   3.578   8.342  0.7246 -1.4345 -1.2437
 3158TIP3   OH231108   2.226   1.743   0.309 -0.7790 -0.6007  0.0103
 3158TIP3    H131109   2.229   1.681   0.236 -1.4228  0.5052 -0.9908
 3158TIP3    H231110   2.140   1.784   0.302  0.0281  1.1477  0.0182
 3159TIP3   OH231111   4.381   5.948   2.338  0.0787  0.6919  0.1199
 3159TIP3    H131112   4.303   5.903   2.371  1.1600 -0.7691  0.8228
 3159TIP3    H231113   4.383   5.926   2.245 -0.0464  0.2563  0.2160
 3160TIP3   OH231114   2.954   2.156   7.735 -0.0143 -0.1169 -0.0927
 3160TIP3    H131115   2.982   2.230   7.788 -0.0591  0.2874 -0.6336
 3160TIP3    H231116   3.008   2.160   7.656  0.2791 -0.9075  0.0571
 3161TIP3   OH231117   1.388   6.854   2.357  0.4291 -0.0876 -0.2369
 3161TIP3    H131118   1.357   6.770   2.323  2.2000 -0.9464  0.1553
 3161TIP3    H231119   1.483   6.851   2.346  0.5967  1.5856  0.4301
 3162TIP3   OH231120   5.359   5.299   7.831 -0.2439  0.3001 -0.0752
 3162TIP3    H131121   5.269   5.290   7.801  0.0444  0.1979 -0.9480
 3162TIP3    H231122   5.391   5.378   7.786 -0.1106  0.7517  0.7849
 3163TIP3   OH231123   4.952   4.431   0.137 -0.0916 -0.2083 -0.5100
 3163TIP3    H131124   4.903   4.431   0.055 -2.0362  1.2392  0.5626
 3163TIP3    H231125   4.907   4.366   0.191 -1.1626  1.3751  0.6062
 3164TIP3   OH231126   0.444   2.267   1.573  0.4092 -0.0676 -0.2399
 3164TIP3    H131127   0.380   2.322   1.528  0.5877  0.9211  0.6708
 3164TIP3    H231128   0.400   2.183   1.585 -0.0596  0.0267 -1.1943
 3165TIP3   OH231129   4.136   1.625   1.866  0.3070 -0.6076 -0.3072
 3165TIP3    H131130   4.121   1.706   1.819  0.6880 -0.6547 -0.5127
 3165TIP3    H231131   4.163   1.562   1.799 -2.1571 -1.5530 -0.5327
 3166TIP3   OH231132   5.170   1.139   1.408  0.2867 -0.9987  0.3207
 3166TIP3    H131133   5.181   1.122   1.314 -0.0413  1.0480 -0.1383
 3166TIP3    H231134   5.079   1.116   1.426  0.3035 -1.2428  0.0952
 3167TIP3   OH231135   3.187   3.117   7.095 -0.3664 -0.2829 -0.1886
 3167TIP3    H131136   3.246   3.167   7.151 -0.7008 -1.2368  1.0747
 3167TIP3    H231137   3.108   3.169   7.090 -0.6492 -0.5634  0.9724
 3168TIP3   OH231138   5.486   5.770   6.966  0.6827 -0.4991  0.3528
 3168TIP3    H131139   5.420   5.701   6.974 -0.1818  0.4459  1.8074
 3168TIP3    H231140   5.569   5.726   6.986  0.0331 -0.9510  2.2574
 3169TIP3   OH231141   3.457   0.209   0.038 -0.0036 -0.0906 -0.1681
 3169TIP3    H131142   3.552   0.200   0.049 -0.1482 -0.4113  0.8865
 3169TIP3    H231143   3.420   0.173   0.118 -1.0245  0.0308 -0.5741
 3170TIP3   OH231144   4.897   0.853   8.355 -0.0684 -0.7738 -0.2859
 3170TIP3    H131145   4.890   0.944   8.386  0.2329 -0.6045 -0.7063
 3170TIP3    H231146   4.806   0.825   8.344 -0.1628 -0.2310 -0.9784
 3171TIP3   OH231147   5.502   2.696   0.567 -0.3900  0.0038  0.9929
 3171TIP3    H131148   5.440   2.711   0.495  0.5603 -1.3001 -0.1515
 3171TIP3    H231149   5.544   2.613   0.546  0.6656  0.0969  2.5409
 3172TIP3   OH231150   3.346   3.495   0.359  0.2201 -0.2039 -0.3291
 3172TIP3    H131151   3.407   3.556   0.401  0.5988 -0.3729 -0.6202
 3172TIP3    H231152   3.266   3.501   0.410  1.4729 -2.3891  2.1041
 3173TIP3   OH231153   5.102   2.195   1.962  0.1088 -0.0474 -0.5230
 3173TIP3    H131154   5.077   2.185   2.054 -0.0019  0.8023 -0.4500
 3173TIP3    H231155   5.019   2.213   1.918  0.2097 -0.1161 -0.7369
 3174TIP3   OH231156   4.468   6.557   1.842  0.0712 -0.2681 -0.9491
 3174TIP3    H131157   4.474   6.551   1.746  1.2565  1.3011 -1.0224
 3174TIP3    H231158   4.559   6.566   1.870 -0.3859  2.0947  0.0601
 3175TIP3   OH231159   5.431   5.022   2.341  0.0267  0.7992  0.4335
 3175TIP3    H131160   5.525   5.036   2.353 -0.1858  1.5019  1.3761
 3175TIP3    H231161   5.400   4.996   2.428 -0.4315 -0.7993 -0.1781
 3176TIP3   OH231162   1.242   4.252   2.066 -0.3055  0.3064  0.2117
 3176TIP3    H131163   1.249   4.161   2.095 -1.9448  0.3717  0.9268
 3176TIP3    H231164   1.266   4.303   2.142  0.2657  0.5001 -0.0871
 3177TIP3   OH231165   0.365   4.282   0.439 -0.2006 -0.1977  0.0107
 3177TIP3    H131166   0.426   4.356   0.431  0.3977 -0.5907  0.8796
 3177TIP3    H231167   0.420   4.206   0.452 -0.8322 -0.7689 -0.5680
 3178TIP3   OH231168   0.084   2.905   1.530  0.5076  0.2837  0.1276
 3178TIP3    H131169   0.157   2.853   1.564  0.0179 -0.2870  0.3310
 3178TIP3    H231170   0.106   2.995   1.552  1.8516  0.2817 -1.0876
 3179TIP3   OH231171   3.942   0.909   2.355 -0.0026  0.9564  0.0790
 3179TIP3    H131172   3.917   0.999   2.375  1.4284  1.4135 -0.0662
 3179TIP3    H231173   3.994   0.881   2.430 -1.9407 -0.4314  0.9917
 3180TIP3   OH231174   2.036   3.636   1.142 -0.0921  0.3514 -0.2021
 3180TIP3    H131175   1.949   3.622   1.106 -0.5684  2.4730  0.0166
 3180TIP3    H231176   2.023   3.693   1.218  1.5809  2.1233 -1.1313
 3181TIP3   OH231177   3.558   6.878   1.809 -0.2160 -0.1019  0.0000
 3181TIP3    H131178   3.641   6.879   1.855 -0.4929  1.1834  0.5164
 3181TIP3    H231179   3.567   6.808   1.744  0.7061 -0.9698  1.0315
 3182TIP3   OH231180   0.480   0.739   7.575  0.0420  0.0210 -0.4222
 3182TIP3    H131181   0.385   0.750   7.564  0.0038  0.6454  0.4244
 3182TIP3    H231182   0.518   0.817   7.535  0.1612  0.0796 -0.1961
 3183TIP3   OH231183   3.214   6.827   0.430  0.3955 -0.0949 -0.2658
 3183TIP3    H131184   3.208   6.739   0.393  2.0300  0.6214 -2.4443
 3183TIP3    H231185   3.159   6.823   0.509  0.0993 -2.9221 -0.4850
 3184TIP3   OH231186   6.006   5.599   6.723  0.4142  0.1338  0.2873
 3184TIP3    H131187   6.025   5.519   6.675  1.6541 -0.1485  1.2192
 3184TIP3    H231188   6.039   5.669   6.666 -0.0443 -0.0438 -0.2116
 3185TIP3   OH231189   3.573   5.805   1.998  0.2447  0.0130 -0.3768
 3185TIP3    H131190   3.494   5.837   2.042  0.4838  0.3267 -0.1721
 3185TIP3    H231191   3.554   5.713   1.978 -0.0758  0.0198 -0.1035
 3186TIP3   OH231192   5.367   4.722   8.382 -0.1897 -0.6433 -0.5483
 3186TIP3    H131193   5.362   4.797   8.322 -1.1837 -1.1741 -1.1609
 3186TIP3    H231194   5.413   4.654   8.332 -0.0141 -0.7159 -0.2896
 3187TIP3   OH231195   3.353   4.926   7.634 -0.2163  0.1321  0.7567
 3187TIP3    H131196   3.321   4.977   7.708  1.8344  0.1664  1.6952
 3187TIP3    H231197   3.443   4.904   7.657 -0.3322 -2.0890 -0.5839
 3188TIP3   OH231198   4.572   2.356   7.023  1.0683  0.2280  0.4519
 3188TIP3    H131199   4.593   2.398   6.939 -0.1615  0.0449  0.0376
 3188TIP3    H231200   4.635   2.284   7.029  0.8582 -0.0583 -0.5523
 3189TIP3   OH231201   3.189   3.778   6.245  0.1406  0.4212  0.6224
 3189TIP3    H131202   3.256   3.737   6.299 -0.7874  0.2978  1.7391
 3189TIP3    H231203   3.161   3.854   6.296  0.8482  1.6774 -0.7694
 3190TIP3   OH231204   3.849   1.788   7.677  0.4372 -0.3658  0.0969
 3190TIP3    H131205   3.839   1.718   7.741  1.0151 -0.8008 -0.2824
 3190TIP3    H231206   3.831   1.746   7.593  1.8665 -0.3345 -0.2505
 3191TIP3   OH231207   3.376   6.186   8.057  0.2024 -0.3113 -0.1945
 3191TIP3    H131208   3.326   6.129   8.115 -0.4617  1.6712  1.2798
 3191TIP3    H231209   3.326   6.188   7.976 -0.5831 -0.5851  0.2757
 3192TIP3   OH231210   3.240   6.052   2.023  0.6145 -0.2183 -0.9879
 3192TIP3    H131211   3.324   6.070   2.065 -0.6301  2.2068  0.6696
 3192TIP3    H231212   3.256   6.070   1.930  1.6466  1.3675 -0.5450
 3193TIP3   OH231213   4.877   2.950   8.323  0.0148 -0.2185  0.5282
 3193TIP3    H131214   4.873   2.860   8.290 -1.9260  0.8176 -2.5236
 3193TIP3    H231215   4.786   2.972   8.342  0.2536  1.5112 -0.1712
 3194TIP3   OH231216   4.123   1.786   2.735 -0.6611  0.8166  0.2293
 3194TIP3    H131217   4.058   1.718   2.751 -0.4944  0.7584  0.6633
 3194TIP3    H231218   4.073   1.868   2.731 -0.8889  0.6500 -0.5114
 3195TIP3   OH231219   2.456   5.042   2.917 -0.2378  0.2819  0.7238
 3195TIP3    H131220   2.514   5.060   2.843  2.6157 -0.5170  2.5857
 3195TIP3    H231221   2.367   5.050   2.881  0.9833  0.0899 -2.6938
 3196TIP3   OH231222   0.575   2.351   8.014  0.3740 -0.1721 -0.9030
 3196TIP3    H131223   0.489   2.386   8.038 -0.0078 -1.6724  0.1131
 3196TIP3    H231224   0.622   2.346   8.097  0.5705 -1.5404 -1.0718
 3197TIP3   OH231225   5.869   6.268   8.352  0.1183 -0.1144 -0.3699
 3197TIP3    H131226   5.817   6.191   8.329 -0.7970 -0.1982  1.6743
 3197TIP3    H231227   5.862   6.273   8.448  1.1557  1.8160 -0.3440
 3198TIP3   OH231228   3.422   3.724   0.732  0.2355  0.2280  0.0552
 3198TIP3    H131229   3.384   3.812   0.727 -0.2159  0.1057  1.0325
 3198TIP3    H231230   3.363   3.670   0.679 -1.7270 -0.1789  2.4288
 3199TIP3   OH231231   4.257   1.601   8.181  0.3842  0.1467  0.3333
 3199TIP3    H131232   4.305   1.666   8.232  1.6532  0.0657 -0.6792
 3199TIP3    H231233   4.174   1.643   8.160  0.5072  0.7882  1.0903
 3200TIP3   OH231234   6.399   6.918   6.804 -0.4346 -0.3365  0.0289
 3200TIP3    H131235   6.472   6.855   6.811  0.0435  0.0943 -0.8454
 3200TIP3    H231236   6.387   6.929   6.709 -0.4526  0.9543  0.1719
 3201TIP3   OH231237   6.832   5.324   1.869 -0.0458 -0.3818 -0.1010
 3201TIP3    H131238   6.851   5.258   1.803  1.9947 -0.7468  0.7738
 3201TIP3    H231239   6.755   5.290   1.915  0.1736 -1.4918 -0.5167
 3202TIP3   OH231240   6.888   2.107   2.601  0.0670 -0.3982  0.2381
 3202TIP3    H131241   6.880   2.185   2.657  1.8809  0.1415 -0.1673
 3202TIP3    H231242   6.831   2.042   2.641  0.5414  0.3012  2.1544
 3203TIP3   OH231243   3.276   1.480   8.012 -0.1178  0.3052  0.4715
 3203TIP3    H131244   3.286   1.454   7.921 -1.8694  0.5475  0.1793
 3203TIP3    H231245   3.364   1.473   8.049  0.8453  1.2397 -1.4898
 3204TIP3   OH231246   6.675   3.249   1.773 -0.0721 -0.4467  0.2263
 3204TIP3    H131247   6.687   3.265   1.679  0.4315 -1.7293  0.0528
 3204TIP3    H231248   6.758   3.212   1.802  0.0422  0.6322  1.3637
 3205TIP3   OH231249   2.864   2.666   0.917  0.0056  0.2722  0.2530
 3205TIP3    H131250   2.912   2.658   0.834 -2.3055 -2.2962 -0.9801
 3205TIP3    H231251   2.867   2.759   0.937  1.5502  0.8355 -2.1442
 3206TIP3   OH231252   0.762   4.763   1.917  0.8613 -0.2048 -0.6452
 3206TIP3    H131253   0.672   4.733   1.912  0.5222  0.4519  0.9001
 3206TIP3    H231254   0.761   4.850   1.879  0.6410  0.1739  0.2101
 3207TIP3   OH231255   2.651   1.704   7.281  0.0641  0.0588  0.0761
 3207TIP3    H131256   2.585   1.689   7.213  0.3921 -0.3315 -0.1554
 3207TIP3    H231257   2.729   1.731   7.233  0.5779 -1.1324  0.2234
 3208TIP3   OH231258   6.111   0.979   0.918 -0.4599 -0.6531  0.2526
 3208TIP3    H131259   6.195   1.023   0.929 -0.9496 -0.1219  2.3995
 3208TIP3    H231260   6.132   0.886   0.923  0.1251 -0.5552 -0.3102
 3209TIP3   OH231261   1.972   6.611   2.358 -0.2822 -0.1587  0.3923
 3209TIP3    H131262   2.011   6.632   2.443 -0.7491  0.4923  0.4496
 3209TIP3    H231263   1.886   6.573   2.379  0.3844 -1.8360  0.2767
 3210TIP3   OH231264   5.050   0.209   0.355 -0.8689 -0.4864  0.1816
 3210TIP3    H131265   5.096   0.130   0.326  0.0804  0.1857 -0.1941
 3210TIP3    H231266   4.991   0.231   0.284 -0.3028 -0.2181 -0.2128
 3211TIP3   OH231267   1.482   5.914   2.453  0.1083 -0.2668 -0.5730
 3211TIP3    H131268   1.531   5.838   2.485  1.8887  0.4621 -1.4156
 3211TIP3    H231269   1.550   5.977   2.428 -1.3110  1.5593 -0.0407
 3212TIP3   OH231270   3.092   1.051   7.536  0.1227 -0.2379 -0.5041
 3212TIP3    H131271   3.055   1.136   7.513  0.3780 -0.3802 -1.4538
 3212TIP3    H231272   3.134   1.066   7.621  1.8499  1.1014 -1.5190
 3213TIP3   OH231273   3.038   0.157   8.347  0.2503  0.1329 -0.1989
 3213TIP3    H131274   3.024   0.177   8.255  0.3245 -1.3893 -0.5719
 3213TIP3    H231275   3.082   0.234   8.382  0.6471  0.5440 -1.5408
 3214TIP3   OH231276   6.187   1.868   0.634  0.1034 -0.0861  0.8700
 3214TIP3    H131277   6.256   1.894   0.573  1.3606 -0.4066  2.0929
 3214TIP3    H231278   6.165   1.949   0.680  0.5429 -0.2116  1.3119
 3215TIP3   OH231279   5.658   5.855   0.842 -0.0446  0.6655  0.6105
 3215TIP3    H131280   5.621   5.938   0.810 -1.5912 -0.1268  0.2251
 3215TIP3    H231281   5.582   5.808   0.877  1.0570  0.0456  2.2817
 3216TIP3   OH231282   4.008   3.493   7.437 -0.2837  0.4879  0.2145
 3216TIP3    H131283   3.980   3.412   7.395 -0.5117 -0.0952  1.4503
 3216TIP3    H231284   3.979   3.485   7.528  0.3145  1.6474  0.5350
 3217TIP3   OH231285   1.792   6.345   7.547 -0.1128  0.2130  0.4448
 3217TIP3    H131286   1.760   6.266   7.503 -0.2094 -1.1625  2.8337
 3217TIP3    H231287   1.714   6.397   7.564 -0.0241  1.0135 -1.3529
 3218TIP3   OH231288   3.696   6.332   6.561 -0.3690  0.0407 -0.3680
 3218TIP3    H131289   3.765   6.294   6.506  1.4120 -0.3440  1.9797
 3218TIP3    H231290   3.726   6.422   6.577 -0.9054  0.1724 -0.0925
 3219TIP3   OH231291   6.520   1.640   2.315  0.2284 -0.2755 -0.3971
 3219TIP3    H131292   6.571   1.715   2.286  0.2567  0.1241  0.6662
 3219TIP3    H231293   6.512   1.585   2.236  0.4829  0.6689 -1.1007
 3220TIP3   OH231294   2.623   0.932   0.379  0.1585 -0.1116  0.1598
 3220TIP3    H131295   2.716   0.911   0.375 -0.0098 -0.7013 -1.0667
 3220TIP3    H231296   2.612   1.002   0.314 -0.2679 -0.1019  0.2401
 3221TIP3   OH231297   0.727   3.838   0.491  0.1355  0.4681 -0.2349
 3221TIP3    H131298   0.654   3.805   0.440  0.0850 -1.1174  0.7706
 3221TIP3    H231299   0.706   3.929   0.509 -1.3042  0.1913 -0.4554
 3222TIP3   OH231300   0.148   1.469   7.622  0.2148 -0.1054  0.1148
 3222TIP3    H131301   0.093   1.392   7.633  0.2629 -0.3303 -1.0599
 3222TIP3    H231302   0.169   1.497   7.711 -0.1917 -1.1642  0.5572
 3223TIP3   OH231303   2.755   2.358   8.255 -0.2959 -0.4561  0.3829
 3223TIP3    H131304   2.771   2.448   8.228  0.2609 -0.2300  1.4186
 3223TIP3    H231305   2.839   2.314   8.243 -0.3477 -0.6320  0.6557
 3224TIP3   OH231306   6.025   2.465   8.032 -0.2216  0.2015 -0.1568
 3224TIP3    H131307   5.990   2.383   7.999 -1.3865  0.0123  1.4482
 3224TIP3    H231308   5.948   2.518   8.052  0.4770  1.0523  0.3681
 3225TIP3   OH231309   6.896   3.407   0.501 -0.4758 -0.2170  0.1159
 3225TIP3    H131310   6.945   3.397   0.419  0.8616 -0.8613  0.9592
 3225TIP3    H231311   6.868   3.499   0.502  0.8095  0.1961 -0.3614
 3226TIP3   OH231312   0.601   0.214   8.248  0.0088 -0.2295 -0.1494
 3226TIP3    H131313   0.653   0.204   8.168 -0.1049  1.0904 -0.4078
 3226TIP3    H231314   0.656   0.264   8.307 -0.4506  0.0328  0.0627
 3227TIP3   OH231315   2.063   3.347   7.952 -0.0873 -0.1497 -0.3251
 3227TIP3    H131316   2.088   3.360   8.044  0.4609  0.6923 -0.5806
 3227TIP3    H231317   2.017   3.262   7.951 -2.5874  1.0579  1.2184
 3228TIP3   OH231318   5.418   6.048   7.556  0.5882 -0.4158  0.6964
 3228TIP3    H131319   5.368   5.967   7.550  0.2145 -0.1086 -0.7159
 3228TIP3    H231320   5.351   6.116   7.565  0.6426  0.0750 -1.9656
 3229TIP3   OH231321   3.691   4.211   0.822  0.5606 -0.3650  0.1023
 3229TIP3    H131322   3.710   4.187   0.913  0.2543 -1.1649 -0.0325
 3229TIP3    H231323   3.733   4.142   0.770 -2.0074 -1.7842 -0.2369
 3230TIP3   OH231324   5.457   4.655   1.232 -0.1476 -0.2883 -0.0108
 3230TIP3    H131325   5.462   4.619   1.144  1.5533 -0.8887  0.2760
 3230TIP3    H231326   5.457   4.578   1.290  2.6410  0.0400  0.5809
 3231TIP3   OH231327   3.237   3.958   0.754 -0.0106  0.6228 -0.1907
 3231TIP3    H131328   3.301   4.012   0.709  0.2028  0.2900 -0.2912
 3231TIP3    H231329   3.157   3.967   0.703  0.4051 -0.2836 -1.0433
 3232TIP3   OH231330   5.655   3.088   7.160  0.1342 -0.3084 -0.3741
 3232TIP3    H131331   5.610   3.136   7.230  2.1416  1.5059 -0.2266
 3232TIP3    H231332   5.595   3.092   7.086 -0.7118  0.4622  0.3261
 3233TIP3   OH231333   3.408   1.112   8.096  0.7393 -0.2157 -0.3671
 3233TIP3    H131334   3.335   1.131   8.038 -0.1739 -1.5798  0.2776
 3233TIP3    H231335   3.452   1.037   8.056  0.7232 -0.5100  0.1549
 3234TIP3   OH231336   6.555   4.218   0.652  0.3711  0.5389  0.2084
 3234TIP3    H131337   6.595   4.305   0.656  1.5237  0.1055 -1.0334
 3234TIP3    H231338   6.623   4.163   0.613 -0.7751 -0.6661 -0.1324
 3235TIP3   OH231339   1.575   1.454   8.073  0.5131  0.4215 -0.0960
 3235TIP3    H131340   1.571   1.507   8.152 -0.0903  0.7280 -0.3232
 3235TIP3    H231341   1.540   1.369   8.099  0.4309  0.4838 -0.0041
 3236TIP3   OH231342   5.403   6.655   6.460  0.1818 -0.2737 -0.2092
 3236TIP3    H131343   5.482   6.681   6.508  0.8018 -1.7778 -0.3520
 3236TIP3    H231344   5.345   6.730   6.467  0.5826 -0.1094  2.1738
 3237TIP3   OH231345   5.468   2.113   1.792 -0.1529 -0.3464  0.7459
 3237TIP3    H131346   5.503   2.110   1.703 -0.5702 -2.0436  0.6092
 3237TIP3    H231347   5.381   2.152   1.782 -0.1445 -0.4068  0.4317
 3238TIP3   OH231348   1.332   3.929   0.816 -0.5334 -0.6976 -0.3224
 3238TIP3    H131349   1.287   3.989   0.756 -1.4756 -1.5646 -0.5208
 3238TIP3    H231350   1.263   3.899   0.875  0.1157 -0.8789  0.3479
 3239TIP3   OH231351   1.537   1.333   1.951 -0.0133  0.3203 -0.6833
 3239TIP3    H131352   1.496   1.252   1.981 -0.5250  1.2847  1.4349
 3239TIP3    H231353   1.465   1.383   1.912  0.3389 -0.2789 -2.1619
 3240TIP3   OH231354   0.996   5.622   7.014 -0.2152  0.3238 -0.0302
 3240TIP3    H131355   0.963   5.687   7.077 -0.3375  0.2357 -0.0033
 3240TIP3    H231356   0.928   5.555   7.011 -0.0447  0.1481  0.0139
 3241TIP3   OH231357   7.000   0.142   0.077 -0.3600  0.0670  0.2135
 3241TIP3    H131358   6.935   0.193   0.126  0.7207  0.9357  0.7612
 3241TIP3    H231359   7.033   0.203   0.010  0.0398 -0.3114  0.0639
 3242TIP3   OH231360   1.915   0.999   2.848  0.4486 -0.4338  0.1193
 3242TIP3    H131361   1.836   1.003   2.902 -0.7833 -0.0045 -1.6408
 3242TIP3    H231362   1.978   1.053   2.895 -1.2443  1.6496  0.1615
 3243TIP3   OH231363   0.650   4.240   0.105 -1.1023  0.2622 -0.2477
 3243TIP3    H131364   0.727   4.290   0.134 -1.0640 -0.5269  1.0978
 3243TIP3    H231365   0.576   4.296   0.129 -1.0894 -0.5167  1.8129
 3244TIP3   OH231366   3.715   4.710   0.058 -0.2796 -0.6879  0.2871
 3244TIP3    H131367   3.626   4.742   0.040  0.1986  2.1577  2.3475
 3244TIP3    H231368   3.767   4.790   0.067  1.8017 -2.1721  2.3378
 3245TIP3   OH231369   5.953   4.209   7.802  0.7620  0.1983  1.0213
 3245TIP3    H131370   5.960   4.236   7.710  0.1614 -2.2631  0.1734
 3245TIP3    H231371   5.911   4.283   7.846  0.0019  0.9846 -0.9297
 3246TIP3   OH231372   5.950   2.972   1.671  0.0647 -0.6529  0.4273
 3246TIP3    H131373   5.984   3.058   1.644  0.5995 -1.2859 -1.0449
 3246TIP3    H231374   5.982   2.961   1.760 -0.3852  0.8541  0.8094
 3247TIP3   OH231375   0.708   3.532   0.392  0.1741 -0.1220 -0.2032
 3247TIP3    H131376   0.754   3.576   0.320  1.2345 -1.2095 -0.2265
 3247TIP3    H231377   0.631   3.586   0.408  1.4284  1.7292 -0.2063
 3248TIP3   OH231378   3.544   3.753   0.106  0.5713 -0.0803 -0.5940
 3248TIP3    H131379   3.600   3.811   0.157  1.9107 -1.1025 -0.8330
 3248TIP3    H231380   3.567   3.665   0.137 -2.0743 -0.5168  0.4562
 3249TIP3   OH231381   0.732   0.134   0.244  0.0517  0.0534  0.3655
 3249TIP3    H131382   0.711   0.103   0.332  1.3849  0.3429  0.7999
 3249TIP3    H231383   0.647   0.139   0.200 -0.3925 -2.8470  0.6975
 3250TIP3   OH231384   0.831   3.697   6.711 -0.8365  0.0231  0.1246
 3250TIP3    H131385   0.832   3.699   6.807  1.0357  0.7949  0.1160
 3250TIP3    H231386   0.787   3.614   6.690  0.3612 -1.0708  1.6777
 3251TIP3   OH231387   4.033   2.064   7.393 -0.3916 -0.3432  0.3352
 3251TIP3    H131388   4.124   2.054   7.364 -1.2703  0.9502 -3.4650
 3251TIP3    H231389   4.025   2.156   7.416 -0.7696 -0.4347  0.5802
 3252TIP3   OH231390   0.409   5.773   1.496 -0.3957 -0.6133 -0.2662
 3252TIP3    H131391   0.371   5.718   1.564  0.0358 -1.3436 -0.5981
 3252TIP3    H231392   0.345   5.772   1.425 -2.2847  2.5726  1.1750
 3253TIP3   OH231393   6.064   6.909   6.286 -0.0794 -0.3456 -0.4523
 3253TIP3    H131394   6.114   6.840   6.242  0.8045 -2.9841  4.0172
 3253TIP3    H231395   6.128   6.978   6.304  0.6628 -1.2164  0.3651
 3254TIP3   OH231396   2.527   6.176   0.900 -0.2116 -0.0774 -0.1014
 3254TIP3    H131397   2.468   6.248   0.878 -0.0806  0.5323  1.4338
 3254TIP3    H231398   2.615   6.211   0.882 -0.2476 -0.6700 -1.5250
 3255TIP3   OH231399   6.802   3.357   2.452  0.2231 -0.9102 -0.3180
 3255TIP3    H131400   6.721   3.374   2.500  0.4700  0.1596 -0.2577
 3255TIP3    H231401   6.824   3.266   2.473  0.2029 -0.5487  1.4225
 3256TIP3   OH231402   4.916   2.555   1.471 -0.4870  0.3596 -0.1528
 3256TIP3    H131403   4.927   2.465   1.503  1.3488  0.2074 -1.0776
 3256TIP3    H231404   4.966   2.608   1.533  2.4310  0.1497 -2.1310
 3257TIP3   OH231405   5.169   6.147   0.187 -0.0569 -0.4383 -0.0073
 3257TIP3    H131406   5.172   6.087   0.112  1.3066 -0.6562  0.1983
 3257TIP3    H231407   5.258   6.181   0.194  0.2300 -1.4312  2.3138
 3258TIP3   OH231408   0.364   0.715   0.226  0.4204 -0.5704  0.3063
 3258TIP3    H131409   0.450   0.714   0.183  0.0614 -0.4170 -0.4374
 3258TIP3    H231410   0.303   0.737   0.156 -0.0476  0.9745  1.1382
 3259TIP3   OH231411   2.300   0.975   2.997  0.3470  0.0090  0.4350
 3259TIP3    H131412   2.257   0.998   2.914  2.2073 -0.9043 -0.8752
 3259TIP3    H231413   2.284   1.049   3.054 -2.6676 -0.1531 -0.0279
 3260TIP3   OH231414   4.711   1.362   0.110 -0.2788  0.7681  0.2663
 3260TIP3    H131415   4.617   1.373   0.126 -0.1968  1.3811  0.3587
 3260TIP3    H231416   4.750   1.366   0.197 -0.1185  1.0488  0.1822
 3261TIP3   OH231417   0.793   2.842   0.462 -0.2144 -0.0641  0.2539
 3261TIP3    H131418   0.743   2.914   0.424 -1.9504 -1.5985 -0.4946
 3261TIP3    H231419   0.868   2.831   0.403 -0.9421 -0.0849 -0.6707
 3262TIP3   OH231420   2.002   1.715   6.628 -0.1697 -0.4261 -0.1939
 3262TIP3    H131421   2.063   1.777   6.590 -1.6444  0.4415 -1.2138
 3262TIP3    H231422   1.997   1.740   6.721 -0.2468  0.5558 -0.4568
 3263TIP3   OH231423   0.368   4.349   2.417 -0.0648 -0.0654 -0.5017
 3263TIP3    H131424   0.279   4.328   2.386 -0.2199  0.3463 -0.3477
 3263TIP3    H231425   0.385   4.286   2.487 -0.4473  0.1902 -0.1735
 3264TIP3   OH231426   5.902   5.075   1.330  0.3458  0.1218  0.4936
 3264TIP3    H131427   5.822   5.102   1.285  0.6485 -1.9921 -1.5590
 3264TIP3    H231428   5.906   5.130   1.408 -1.8811  1.8714 -0.5044
 3265TIP3   OH231429   5.051   6.994   6.729 -0.0165 -0.1100 -0.1975
 3265TIP3    H131430   5.130   7.014   6.680  0.2850 -1.4372 -0.2796
 3265TIP3    H231431   5.054   6.900   6.742 -2.1409 -0.3605 -1.1639
 3266TIP3   OH231432   0.563   4.300   8.014  0.0949 -0.1968  0.3218
 3266TIP3    H131433   0.484   4.301   7.961  3.0842 -0.4712 -4.8437
 3266TIP3    H231434   0.604   4.385   7.998  2.4411 -1.3332 -0.1327
 3267TIP3   OH231435   6.468   3.811   7.251  0.5543 -0.1970 -0.1281
 3267TIP3    H131436   6.551   3.794   7.295 -0.6033 -0.7554  1.9665
 3267TIP3    H231437   6.426   3.878   7.305 -1.3417 -1.6052  0.2628
 3268TIP3   OH231438   3.306   1.065   0.761 -0.0949  0.3805 -0.9641
 3268TIP3    H131439   3.341   1.005   0.827 -2.7265  0.0840  0.3025
 3268TIP3    H231440   3.294   1.147   0.808  0.4763  0.9583 -1.8182
 3269TIP3   OH231441   3.592   4.375   8.299  0.6050 -0.3853 -0.3031
 3269TIP3    H131442   3.595   4.463   8.263 -0.7447 -0.3897 -0.4810
 3269TIP3    H231443   3.680   4.341   8.287  1.3541  1.1847  0.4374
 3270TIP3   OH231444   3.212   3.076   7.806 -0.5249  0.1707  0.3064
 3270TIP3    H131445   3.231   3.156   7.757  0.1364  0.1213  0.4752
 3270TIP3    H231446   3.157   3.024   7.746 -1.3749  0.9503  0.3826
 3271TIP3   OH231447   4.076   1.469   0.979 -0.1569  0.1515  0.2592
 3271TIP3    H131448   4.081   1.498   0.888  1.0556 -1.3103 -0.1815
 3271TIP3    H231449   4.072   1.374   0.974 -0.6811  0.0733  1.7349
 3272TIP3   OH231450   1.394   3.047   7.453  0.0717  0.6215  0.0321
 3272TIP3    H131451   1.347   3.085   7.379 -1.6667  1.6248  1.5633
 3272TIP3    H231452   1.330   2.989   7.494  0.1488  1.8987  2.0944
 3273TIP3   OH231453   0.477   1.292   8.221  0.2548  0.8772 -0.3514
 3273TIP3    H131454   0.416   1.316   8.151  0.6274  1.5138 -0.4681
 3273TIP3    H231455   0.427   1.303   8.302 -0.2522 -0.0990 -0.5273
 3274TIP3   OH231456   6.180   3.027   8.281  0.2437 -0.2644 -0.4048
 3274TIP3    H131457   6.224   2.978   8.211 -2.0271 -1.9427 -0.8095
 3274TIP3    H231458   6.147   3.106   8.237  0.7611 -0.1878 -0.6657
 3275TIP3   OH231459   3.916   3.359   0.325  0.5122  0.0868 -0.1758
 3275TIP3    H131460   3.885   3.338   0.413 -0.2045 -1.3409 -0.7338
 3275TIP3    H231461   3.928   3.454   0.326 -1.7305  0.4340  0.7606
 3276TIP3   OH231462   1.040   1.802   8.069 -0.1622  0.0744 -0.2281
 3276TIP3    H131463   1.018   1.872   8.008  0.3193  0.6414  0.2467
 3276TIP3    H231464   0.956   1.758   8.086 -0.6847  1.2718  0.3874
 3277TIP3   OH231465   6.260   4.405   0.344 -0.0255 -0.1517 -0.5804
 3277TIP3    H131466   6.305   4.473   0.294 -1.7632  0.7566 -0.9992
 3277TIP3    H231467   6.310   4.325   0.327  2.0337  0.9619 -0.1443
 3278TIP3   OH231468   2.886   2.607   2.147 -0.7551  0.0047  0.2202
 3278TIP3    H131469   2.881   2.700   2.170 -1.1018  0.3483 -1.1583
 3278TIP3    H231470   2.862   2.561   2.228  0.6095  1.0598  1.2815
 3279TIP3   OH231471   6.473   1.217   6.366  0.3912 -0.5814 -0.0351
 3279TIP3    H131472   6.428   1.268   6.434  1.6868  1.4165 -0.6162
 3279TIP3    H231473   6.537   1.165   6.414  1.3363  0.8606  0.2937
 3280TIP3   OH231474   1.181   0.523   0.028 -0.0722 -0.2666  0.3299
 3280TIP3    H131475   1.174   0.583   0.102  1.1067  1.0728 -0.5735
 3280TIP3    H231476   1.272   0.532  -0.002 -0.3258 -1.2836 -0.8342
 3281TIP3   OH231477   5.081   4.194   1.665 -0.1237 -0.3517 -0.0680
 3281TIP3    H131478   5.008   4.162   1.718 -0.6057 -0.7016 -0.9275
 3281TIP3    H231479   5.111   4.273   1.710 -1.7971  0.4828 -0.3258
 3282TIP3   OH231480   0.886   0.757   0.063 -0.1259 -0.4216  0.0343
 3282TIP3    H131481   0.958   0.726   0.118  0.0462  0.1980  0.1669
 3282TIP3    H231482   0.918   0.840   0.026 -0.8905  0.0254  0.3442
 3283TIP3   OH231483   0.320   0.309   1.891  0.3937  0.0780  0.0635
 3283TIP3    H131484   0.293   0.266   1.972 -0.6298 -0.3132 -0.4710
 3283TIP3    H231485   0.366   0.241   1.841 -0.6884 -0.2559 -0.5146
 3284TIP3   OH231486   2.411   0.836   7.333 -0.8229  0.0845 -0.2689
 3284TIP3    H131487   2.436   0.787   7.255  0.0530 -0.1568  0.1660
 3284TIP3    H231488   2.387   0.923   7.299 -0.0357  0.1163 -0.7587
 3285TIP3   OH231489   1.225   2.452   7.857  0.3568 -0.2148  0.0491
 3285TIP3    H131490   1.316   2.438   7.832  0.4830 -0.4242  0.6339
 3285TIP3    H231491   1.218   2.547   7.867  0.5199 -0.2028  0.0547
 3286TIP3   OH231492   4.676   5.834   6.801  0.1228 -0.4229  0.2495
 3286TIP3    H131493   4.744   5.877   6.749  0.9597 -2.0516 -0.1074
 3286TIP3    H231494   4.721   5.807   6.881 -0.7262  0.5515  1.0711
 3287TIP3   OH231495   2.718   6.475   0.562  0.0329 -0.7606 -0.4156
 3287TIP3    H131496   2.712   6.403   0.499  1.3238 -1.2610 -0.0013
 3287TIP3    H231497   2.798   6.522   0.538 -0.4934  0.2078 -0.3276
 3288TIP3   OH231498   3.122   5.305   8.338  0.4192 -0.2500 -0.0289
 3288TIP3    H131499   3.122   5.323   8.244  0.3557 -0.0566  0.0085
 3288TIP3    H231500   3.212   5.322   8.366 -0.4448  4.1896  0.8084
 3289TIP3   OH231501   0.573   5.402   3.281 -0.0825  0.2263 -0.0552
 3289TIP3    H131502   0.615   5.449   3.353  1.0159 -0.4118 -0.2695
 3289TIP3    H231503   0.636   5.405   3.209  0.3066 -2.0652  0.1147
 3290TIP3   OH231504   3.595   2.175   7.400 -0.0033 -0.0662 -0.2996
 3290TIP3    H131505   3.626   2.228   7.473 -0.0741  0.1047 -0.3950
 3290TIP3    H231506   3.623   2.222   7.321  0.7918 -0.6582 -0.3863
 3291TIP3   OH231507   2.953   2.858   8.356  0.3169 -0.2185 -0.0212
 3291TIP3    H131508   2.998   2.773   8.356 -1.1391 -1.0586 -1.5171
 3291TIP3    H231509   2.943   2.880   8.264 -2.1035  0.0088  0.2231
 3292TIP3   OH231510   6.946   0.880   7.704  0.1370 -0.1755 -0.0348
 3292TIP3    H131511   7.035   0.911   7.721 -0.2876  0.3865  1.3290
 3292TIP3    H231512   6.903   0.953   7.660 -0.0269  0.0596  0.5139
 3293TIP3   OH231513   0.655   1.505   7.309  0.2072 -0.5289  0.2128
 3293TIP3    H131514   0.634   1.598   7.314 -4.3182 -1.3491  0.8238
 3293TIP3    H231515   0.654   1.484   7.216  2.5410  0.1663 -0.0211
 3294TIP3   OH231516   3.659   5.345   0.676  0.2477 -0.0786  0.1079
 3294TIP3    H131517   3.617   5.262   0.701 -0.1926 -0.1891 -0.9484
 3294TIP3    H231518   3.670   5.339   0.582  1.0884  0.6851  0.1389
 3295TIP3   OH231519   3.274   4.180   3.220 -0.1042  0.3421  0.3983
 3295TIP3    H131520   3.362   4.153   3.245 -0.1082 -0.0517 -0.0089
 3295TIP3    H231521   3.287   4.263   3.174  0.0886  0.1319  0.0674
 3296TIP3   OH231522   6.256   5.184   7.374 -0.0093 -0.4996  0.8563
 3296TIP3    H131523   6.321   5.167   7.306 -0.8711  2.1361 -0.7649
 3296TIP3    H231524   6.282   5.269   7.411 -2.1871  0.3621  0.5164
 3297TIP3   OH231525   5.575   4.482   2.039  0.6567  0.4592  0.5951
 3297TIP3    H131526   5.574   4.439   1.953 -1.8240 -0.4061  0.9778
 3297TIP3    H231527   5.484   4.506   2.055  1.2344  1.5717  2.5334
 3298TIP3   OH231528   1.367   6.087   0.821 -0.1308 -0.0522 -0.1821
 3298TIP3    H131529   1.353   5.997   0.850  3.1294 -0.3229  0.9503
 3298TIP3    H231530   1.401   6.132   0.898 -0.1775  1.7653 -1.1642
 3299TIP3   OH231531   6.000   3.646   1.351 -0.4802  0.2088 -0.1488
 3299TIP3    H131532   5.937   3.705   1.391 -1.1030 -1.6596  1.8136
 3299TIP3    H231533   6.085   3.677   1.382 -0.7208  0.7021  0.0205
 3300TIP3   OH231534   1.145   5.326   3.001 -0.4454  0.5347  0.2855
 3300TIP3    H131535   1.149   5.422   3.007 -2.3306  0.9232 -2.5492
 3300TIP3    H231536   1.059   5.304   3.036  0.0218 -0.1786  1.0144
 3301TIP3   OH231537   6.827   2.848   1.609 -0.3771 -0.1230 -0.0538
 3301TIP3    H131538   6.782   2.920   1.566  2.0447  1.6788  0.2010
 3301TIP3    H231539   6.919   2.860   1.585  0.4492 -1.6637  2.0431
 3302TIP3   OH231540   2.589   6.880   7.827  0.1736  0.2160  0.4310
 3302TIP3    H131541   2.525   6.949   7.806  1.2844  1.6060  1.4365
 3302TIP3    H231542   2.589   6.824   7.749 -0.2044  1.8051 -0.7770
 3303TIP3   OH231543   5.283   5.554   1.626  0.7043  0.3840  0.6960
 3303TIP3    H131544   5.323   5.504   1.554  2.4386 -1.2443  2.6711
 3303TIP3    H231545   5.193   5.522   1.630  0.2514  1.2425 -1.3437
 3304TIP3   OH231546   1.698   1.594   2.063  0.7925  0.0306  0.1616
 3304TIP3    H131547   1.636   1.626   1.997  2.4546  0.5296 -1.2455
 3304TIP3    H231548   1.679   1.647   2.141  1.3006  2.2443 -1.1130
 3305TIP3   OH231549   4.139   4.315   1.083 -0.1302 -0.1017  0.3101
 3305TIP3    H131550   4.215   4.317   1.025  0.6161  0.9105  1.2848
 3305TIP3    H231551   4.113   4.406   1.091 -1.6953 -0.4689 -0.2964
 3306TIP3   OH231552   2.165   1.937   0.091  0.2486  0.9089  0.1058
 3306TIP3    H131553   2.203   2.016   0.129 -2.4819  2.5799 -0.3649
 3306TIP3    H231554   2.235   1.901   0.037  1.7090  2.8508  0.5894
 3307TIP3   OH231555   4.309   4.326   7.540 -0.0616  0.8519 -0.2757
 3307TIP3    H131556   4.341   4.313   7.451  0.0917 -0.0980 -0.0966
 3307TIP3    H231557   4.282   4.239   7.569 -1.1221  1.3293  0.2303
 3308TIP3   OH231558   1.640   5.919   1.006  0.8895  0.1987 -0.0797
 3308TIP3    H131559   1.709   5.959   0.954  2.1328 -2.7592 -0.9015
 3308TIP3    H231560   1.588   5.868   0.943 -2.1334  2.2969  0.5130
 3309TIP3   OH231561   3.525   2.389   7.906  0.6432 -0.0952  0.7850
 3309TIP3    H131562   3.536   2.449   7.979  1.1354 -0.0600  0.6870
 3309TIP3    H231563   3.463   2.323   7.937 -0.6921  0.9911  0.5669
 3310TIP3   OH231564   4.809   5.643   8.041  0.0646 -0.1849  0.4012
 3310TIP3    H131565   4.828   5.654   8.134 -0.2223  0.0015  0.4374
 3310TIP3    H231566   4.755   5.564   8.036  2.7373 -2.1640  0.0671
 3311TIP3   OH231567   1.396   2.391   0.018 -0.2954 -0.2493  0.3549
 3311TIP3    H131568   1.341   2.468   0.001 -0.2062 -0.3664 -0.5360
 3311TIP3    H231569   1.456   2.389  -0.056 -1.0033 -1.7951 -0.2188
 3312TIP3   OH231570   6.791   2.335   2.795 -0.1821  0.2603 -0.5384
 3312TIP3    H131571   6.718   2.397   2.796 -0.6110 -0.2473  0.4392
 3312TIP3    H231572   6.867   2.387   2.821 -0.9490 -0.0513  2.8152
 3313TIP3   OH231573   2.173   3.951   1.767  0.0288  0.6541 -0.4547
 3313TIP3    H131574   2.154   3.880   1.828 -0.0115  0.0042 -1.2057
 3313TIP3    H231575   2.158   3.912   1.681  0.2346  1.5114 -0.8802
 3314TIP3   OH231576   4.158   5.680   8.232  0.8026  0.3133  0.4461
 3314TIP3    H131577   4.117   5.675   8.145 -3.0013  0.1677  2.0807
 3314TIP3    H231578   4.157   5.774   8.253  0.1996  0.1995  0.9499
 3315TIP3   OH231579   6.162   4.371   1.490  0.6670 -0.3388 -0.0915
 3315TIP3    H131580   6.094   4.314   1.527  0.2665  0.0161 -0.2708
 3315TIP3    H231581   6.174   4.439   1.556  1.0929 -0.5886  0.0896
 3316TIP3   OH231582   1.047   1.579   1.548 -0.6180  0.0298  0.0161
 3316TIP3    H131583   0.971   1.613   1.596 -0.6403  1.4725 -0.9782
 3316TIP3    H231584   1.117   1.578   1.613 -0.3492  3.0115 -0.0725
 3317TIP3   OH231585   6.978   6.297   7.788  0.3045 -0.3046  0.1286
 3317TIP3    H131586   7.021   6.326   7.869  1.8078  0.5107 -0.9196
 3317TIP3    H231587   7.043   6.311   7.719 -0.9437 -0.9549 -1.2491
 3318TIP3   OH231588   5.441   0.822   7.437 -0.1577  0.0774  0.5965
 3318TIP3    H131589   5.531   0.832   7.404 -0.4342  1.1879  0.1259
 3318TIP3    H231590   5.452   0.781   7.523  0.7185 -0.8907  0.0558
 3319TIP3   OH231591   6.619   3.922   0.520 -0.2386  0.0090 -0.2139
 3319TIP3    H131592   6.639   3.977   0.444 -0.7634  2.7979  1.5272
 3319TIP3    H231593   6.535   3.880   0.497  0.4971 -0.6790 -1.8391
 3320TIP3   OH231594   6.651   2.775   0.373 -0.4058  0.2904 -0.1798
 3320TIP3    H131595   6.619   2.756   0.285  2.1314 -0.0593 -1.0890
 3320TIP3    H231596   6.650   2.690   0.418 -0.4239  0.2306 -0.2948
 3321TIP3   OH231597   6.376   5.844   0.778 -0.5610  0.1031  0.4332
 3321TIP3    H131598   6.417   5.883   0.855 -1.5179 -1.9910  2.0916
 3321TIP3    H231599   6.421   5.886   0.704  1.2083  1.3474  2.0903
 3322TIP3   OH231600   6.181   2.642   7.085 -0.0513 -0.4760 -0.1141
 3322TIP3    H131601   6.231   2.724   7.094  0.3538 -0.7524  0.2142
 3322TIP3    H231602   6.152   2.641   6.994 -0.4820  0.2712  0.0070
 3323TIP3   OH231603   2.332   3.369   7.734 -0.1215 -0.2026  0.0808
 3323TIP3    H131604   2.396   3.409   7.793 -0.8840 -0.9265  1.4388
 3323TIP3    H231605   2.260   3.432   7.731  0.6726  0.6948 -1.5873
 3324TIP3   OH231606   5.281   0.680   7.725 -0.4868  0.4629 -0.0889
 3324TIP3    H131607   5.268   0.654   7.817  1.4520  1.8557  0.6279
 3324TIP3    H231608   5.246   0.769   7.720  1.0979  1.1019 -0.2003
 3325TIP3   OH231609   2.120   1.852   1.470  0.2541 -1.1256  0.6115
 3325TIP3    H131610   2.144   1.761   1.452  0.2179 -1.4379  2.0401
 3325TIP3    H231611   2.160   1.871   1.555 -0.7687 -0.2116  0.9106
 3326TIP3   OH231612   3.310   5.491   2.884  0.0584 -0.0644  0.3845
 3326TIP3    H131613   3.243   5.440   2.838  1.2838 -1.7793  0.4451
 3326TIP3    H231614   3.281   5.492   2.975 -0.1096 -0.4022  0.3337
 3327TIP3   OH231615   2.814   2.819   0.532  0.5418  0.0193  0.3402
 3327TIP3    H131616   2.909   2.807   0.541  0.2661 -0.6112  4.1466
 3327TIP3    H231617   2.802   2.914   0.541  0.7638 -0.0887  2.4689
 3328TIP3   OH231618   0.146   2.808   0.025 -0.7629 -0.0135  0.0705
 3328TIP3    H131619   0.055   2.784   0.042 -0.4335 -1.8322 -0.5133
 3328TIP3    H231620   0.191   2.725   0.013  0.7748  0.8813 -0.7302
 3329TIP3   OH231621   4.750   2.937   0.893 -0.0497  0.2832  0.1740
 3329TIP3    H131622   4.658   2.929   0.868 -0.0131 -2.6432  0.5820
 3329TIP3    H231623   4.791   2.982   0.819 -1.9357  2.7108  0.4974
 3330TIP3   OH231624   5.405   6.326   8.130  0.0487 -0.0744 -0.4120
 3330TIP3    H131625   5.323   6.290   8.165 -0.9246  2.2951  0.0105
 3330TIP3    H231626   5.449   6.363   8.206  1.1730 -0.6918 -0.7547
 3331TIP3   OH231627   3.271   1.126   0.488  0.0346  0.1192 -0.1694
 3331TIP3    H131628   3.270   1.090   0.576 -0.1673  0.6135  0.0314
 3331TIP3    H231629   3.277   1.050   0.431 -0.2981 -0.2270  0.2545
 3332TIP3   OH231630   0.515   3.752   2.666  0.1150 -0.1087  0.0172
 3332TIP3    H131631   0.491   3.767   2.757 -0.9130 -1.8445  0.0755
 3332TIP3    H231632   0.597   3.800   2.654  0.1660  0.2955  1.7840
 3333TIP3   OH231633   4.465   2.584   7.979 -0.5022 -0.4416  0.4746
 3333TIP3    H131634   4.532   2.544   7.924  0.1360  0.6112  0.4521
 3333TIP3    H231635   4.406   2.512   8.002 -0.3569 -1.0383 -0.9471
 3334TIP3   OH231636   4.619   5.845   1.906 -0.0750  0.1720 -0.3403
 3334TIP3    H131637   4.607   5.852   2.001 -0.2831 -0.6311 -0.2994
 3334TIP3    H231638   4.620   5.936   1.875 -0.1160  0.4371  0.4156
 3335TIP3   OH231639   2.482   6.484   8.020 -0.4191 -0.2189 -0.4845
 3335TIP3    H131640   2.460   6.575   8.036  2.4212  0.3112  0.9924
 3335TIP3    H231641   2.527   6.484   7.935  3.6058  0.6797  1.4294
 3336TIP3   OH231642   5.490   3.949   0.267  0.0894 -0.8897  0.2120
 3336TIP3    H131643   5.573   3.996   0.267 -0.9331  1.0635 -0.6696
 3336TIP3    H231644   5.446   3.978   0.187 -1.9085 -0.9482  1.2100
 3337TIP3   OH231645   3.507   4.104   8.349 -0.0619  0.0958  0.3075
 3337TIP3    H131646   3.506   4.197   8.327 -1.9331  0.0615  0.1203
 3337TIP3    H231647   3.529   4.060   8.267 -2.6569  0.2188 -0.5391
 3338TIP3   OH231648   2.376   2.108   1.849 -0.3833 -0.2082  0.2891
 3338TIP3    H131649   2.393   2.163   1.925  1.0485 -0.9495  0.5337
 3338TIP3    H231650   2.375   2.169   1.775  2.0243  0.1043  0.4494
 3339TIP3   OH231651   4.748   0.867   0.230 -0.8529  0.0057 -0.3963
 3339TIP3    H131652   4.660   0.902   0.243 -0.3639  1.6334 -1.3099
 3339TIP3    H231653   4.800   0.942   0.202  0.3264 -1.3706 -2.0698
 3340TIP3   OH231654   2.493   5.141   3.170 -0.3817 -0.3112  0.2936
 3340TIP3    H131655   2.497   5.118   3.077  1.0218 -0.1087  0.2904
 3340TIP3    H231656   2.549   5.218   3.179 -0.6444 -0.2142  1.2795
 3341TIP3   OH231657   5.006   4.882   2.555  0.1202 -0.2974 -0.1144
 3341TIP3    H131658   4.941   4.903   2.488 -2.3031 -0.2729  2.0700
 3341TIP3    H231659   5.002   4.956   2.616  2.1536 -0.3620  0.1756
 3342TIP3   OH231660   2.663   4.877   0.035 -0.4294 -0.0116  0.4741
 3342TIP3    H131661   2.721   4.913   0.102  0.4942 -0.9006  0.1599
 3342TIP3    H231662   2.718   4.866  -0.042 -1.3776  0.5752 -0.3195
 3343TIP3   OH231663   6.939   5.943   1.558 -0.5838  0.1081 -0.2684
 3343TIP3    H131664   6.911   5.982   1.476  0.0543  1.0738 -0.0415
 3343TIP3    H231665   6.858   5.914   1.600 -0.7905 -2.5426 -2.2375
 3344TIP3   OH231666   2.802   1.327   0.844  0.0194 -0.0406 -0.2396
 3344TIP3    H131667   2.887   1.370   0.851  0.3859 -0.8322  0.3059
 3344TIP3    H231668   2.819   1.247   0.794 -0.9585  1.1947 -2.7226
 3345TIP3   OH231669   6.736   1.125   7.885 -0.3658 -0.0461 -0.5862
 3345TIP3    H131670   6.683   1.204   7.879  1.1064  1.0895  0.5155
 3345TIP3    H231671   6.765   1.108   7.795 -1.7655 -0.1554 -1.0499
 3346TIP3   OH231672   0.339   4.428   8.397 -0.2946  0.0410  0.2642
 3346TIP3    H131673   0.265   4.376   8.427 -1.8412  1.1441 -1.4104
 3346TIP3    H231674   0.338   4.419   8.302  1.4545  0.4494  0.1753
 3347TIP3   OH231675   0.892   0.130   0.025  0.5169 -0.0528 -0.2352
 3347TIP3    H131676   0.836   0.139   0.103  0.1912  0.7161 -0.5507
 3347TIP3    H231677   0.909   0.220  -0.003  2.0255 -0.2717 -0.0814
 3348TIP3   OH231678   3.361   5.382   1.081  0.0061  0.1716  0.5198
 3348TIP3    H131679   3.287   5.421   1.127 -0.0853 -0.7946  1.2378
 3348TIP3    H231680   3.416   5.346   1.151  0.3856 -0.4435 -0.0782
 3349TIP3   OH231681   0.607   0.049   7.453 -0.3521 -0.2769 -0.8996
 3349TIP3    H131682   0.548   0.124   7.443 -0.5893 -0.2020  0.8190
 3349TIP3    H231683   0.691   0.087   7.477 -0.1072 -0.4962 -1.3969
 3350TIP3   OH231684   1.193   4.329   6.885 -0.6223 -0.0718 -0.4247
 3350TIP3    H131685   1.180   4.279   6.966 -0.9623  1.8934  0.8069
 3350TIP3    H231686   1.285   4.357   6.888 -0.5872 -0.1354 -0.8123
 3351TIP3   OH231687   3.377   4.529   0.082  0.2313  0.2627 -0.7304
 3351TIP3    H131688   3.328   4.547   0.002 -0.8593 -1.8041 -0.5942
 3351TIP3    H231689   3.452   4.478   0.053 -0.6149 -1.2333 -0.4123
 3352TIP3   OH231690   4.689   2.305   1.674 -0.1591  0.2040 -0.2392
 3352TIP3    H131691   4.632   2.238   1.711  1.3971 -0.1145  1.8110
 3352TIP3    H231692   4.637   2.347   1.605 -3.0630  0.2947  1.8237
 3353TIP3   OH231693   6.253   3.844   0.926 -0.2946 -0.4964 -0.0491
 3353TIP3    H131694   6.258   3.937   0.949  0.3846 -0.4250 -0.4348
 3353TIP3    H231695   6.162   3.820   0.939 -0.3460  0.0598  0.6895
 3354TIP3   OH231696   5.743   6.328   0.366  0.6613  0.0857 -0.0908
 3354TIP3    H131697   5.683   6.364   0.301  0.7011  1.0749  0.3982
 3354TIP3    H231698   5.789   6.405   0.401 -1.0529 -0.0803  2.8228
 3355TIP3   OH231699   6.005   4.712   8.358 -0.1211 -0.2730  0.3029
 3355TIP3    H131700   6.038   4.787   8.309  0.5048 -2.0844 -2.3126
 3355TIP3    H231701   6.083   4.661   8.380 -0.5745 -0.4786  1.4994
 3356TIP3   OH231702   1.219   2.960   0.440  0.0710 -0.1811  0.3793
 3356TIP3    H131703   1.300   2.979   0.392 -0.1933  0.9286  0.3611
 3356TIP3    H231704   1.155   3.021   0.405 -0.2309  0.3887  1.8448
 3357TIP3   OH231705   4.070   5.190   8.183  0.3960 -0.5917  0.2915
 3357TIP3    H131706   4.014   5.120   8.217 -1.7010  0.2390 -1.2510
 3357TIP3    H231707   4.123   5.148   8.114  1.7160 -1.3657  1.7180
 3358TIP3   OH231708   2.550   4.854   2.655  0.5208  0.2020 -0.3101
 3358TIP3    H131709   2.545   4.794   2.729 -1.5214  1.4490  0.6654
 3358TIP3    H231710   2.635   4.896   2.663  0.3301  0.3348  1.3771
 3359TIP3   OH231711   4.962   3.702   2.625 -0.9419 -0.6069 -0.5939
 3359TIP3    H131712   4.995   3.614   2.608  2.2269  0.3832 -0.1277
 3359TIP3    H231713   4.876   3.703   2.583 -0.2007 -3.2534 -2.4762
 3360TIP3   OH231714   2.755   0.744   2.231  0.4736  0.4199  0.1574
 3360TIP3    H131715   2.844   0.765   2.201  1.1743 -2.1680  0.1382
 3360TIP3    H231716   2.769   0.689   2.308 -1.2040  1.9512  1.6284
 3361TIP3   OH231717   3.537   0.883   1.819 -0.4737 -0.0504  0.0199
 3361TIP3    H131718   3.577   0.969   1.832  0.6108 -0.6692  1.0094
 3361TIP3    H231719   3.605   0.831   1.777 -1.7980  0.0965 -2.4460
 3362TIP3   OH231720   3.579   4.705   7.089 -0.0771 -0.4404  0.0739
 3362TIP3    H131721   3.518   4.778   7.083 -0.0192 -0.3868  0.1389
 3362TIP3    H231722   3.525   4.631   7.116 -0.0147 -0.2634  0.7025
 3363TIP3   OH231723   6.635   0.540   2.135  0.8025 -0.0982 -0.4710
 3363TIP3    H131724   6.728   0.536   2.159  0.8115 -1.8293 -0.6752
 3363TIP3    H231725   6.618   0.456   2.094 -1.0032 -0.0166  0.0506
 3364TIP3   OH231726   5.084   3.615   1.037  0.2718 -0.2101  0.3159
 3364TIP3    H131727   5.001   3.593   0.996  0.6779 -0.5276 -0.3569
 3364TIP3    H231728   5.142   3.638   0.964 -0.0096  2.8191  0.9308
 3365TIP3   OH231729   1.398   4.812   0.508 -0.1479 -0.6156 -0.2051
 3365TIP3    H131730   1.492   4.823   0.525 -0.4344  0.3111  0.8811
 3365TIP3    H231731   1.359   4.802   0.595 -1.2937  1.0698 -0.4811
 3366TIP3   OH231732   4.009   6.131   1.021  0.6177 -0.1068  0.1224
 3366TIP3    H131733   3.920   6.117   0.991  0.7297  1.1691 -0.9223
 3366TIP3    H231734   4.059   6.057   0.987 -0.3811 -2.0585  2.6041
 3367TIP3   OH231735   1.334   1.399   0.661 -0.4343  0.3240 -0.6274
 3367TIP3    H131736   1.399   1.376   0.727 -1.8152 -0.4428  0.5210
 3367TIP3    H231737   1.385   1.427   0.585  1.2063  0.2879  0.4281
 3368TIP3   OH231738   0.321   3.376   1.086 -0.6931 -0.0357 -0.2578
 3368TIP3    H131739   0.382   3.324   1.138  0.3238  2.4634  1.2637
 3368TIP3    H231740   0.358   3.378   0.998 -0.7035 -1.7116 -0.3202
 3369TIP3   OH231741   4.016   5.209   7.463  0.3874 -0.0029 -0.1449
 3369TIP3    H131742   4.063   5.281   7.505 -1.3721  0.9802  0.2719
 3369TIP3    H231743   4.034   5.219   7.370  1.1703  0.2011  0.0236
 3370TIP3   OH231744   6.818   4.886   2.070 -0.0136 -0.2258  0.5403
 3370TIP3    H131745   6.761   4.881   1.993  1.4345  0.4207 -0.6141
 3370TIP3    H231746   6.874   4.809   2.062  1.0869  0.6006  0.1491
 3371TIP3   OH231747   2.593   3.740   0.161 -0.7888 -0.3048  0.2189
 3371TIP3    H131748   2.581   3.647   0.181 -2.0126  0.0178  1.0647
 3371TIP3    H231749   2.682   3.759   0.190 -0.2896 -1.3493 -0.5629
 3372TIP3   OH231750   6.525   2.259   0.185  0.0472 -0.0867  0.3746
 3372TIP3    H131751   6.463   2.290   0.251  2.2583  1.2010  1.9746
 3372TIP3    H231752   6.549   2.171   0.214  1.1097  0.5267  1.3760
 3373TIP3   OH231753   5.385   4.881   8.120 -0.3998 -0.3598 -0.0349
 3373TIP3    H131754   5.466   4.924   8.150  0.5622 -1.3513 -1.1062
 3373TIP3    H231755   5.318   4.911   8.182  0.2161  2.5276 -0.6416
 3374TIP3   OH231756   5.815   1.891   0.076  0.4171 -0.1863 -0.3535
 3374TIP3    H131757   5.881   1.884   0.145  0.8086 -1.1043 -0.7876
 3374TIP3    H231758   5.808   1.984   0.058 -1.8637  0.4475  2.9386
 3375TIP3   OH231759   0.520   4.846   1.257  0.3344  0.4735  0.9421
 3375TIP3    H131760   0.563   4.810   1.180 -0.0032  1.9278  0.0402
 3375TIP3    H231761   0.464   4.916   1.224 -0.6384  0.4433  2.3904
 3376TIP3   OH231762   6.712   0.340   8.096  0.4386  0.0909  0.0091
 3376TIP3    H131763   6.741   0.355   8.006  0.1899 -1.2660 -0.3140
 3376TIP3    H231764   6.645   0.272   8.089  1.4409 -1.0919  1.3572
 3377TIP3   OH231765   0.832   6.984   6.873  0.6352 -0.3515 -0.0492
 3377TIP3    H131766   0.904   6.930   6.840  0.5427  0.3385 -1.4934
 3377TIP3    H231767   0.753   6.935   6.851  0.4767  0.7856 -2.4658
 3378TIP3   OH231768   5.023   5.765   0.784  0.1124  0.4319 -0.3771
 3378TIP3    H131769   4.987   5.844   0.743 -1.1988  0.1754  0.2378
 3378TIP3    H231770   4.970   5.694   0.748 -0.5543  0.1203  1.1484
 3379TIP3   OH231771   3.822   4.548   1.487 -0.1777  0.2270  0.2886
 3379TIP3    H131772   3.889   4.511   1.544 -1.0496 -0.2321  1.0409
 3379TIP3    H231773   3.748   4.488   1.494 -1.0803  1.3186  0.3573
 3380TIP3   OH231774   2.846   5.370   0.231 -0.2129 -0.4990 -0.7597
 3380TIP3    H131775   2.786   5.438   0.263 -0.1516 -0.8490  0.1238
 3380TIP3    H231776   2.888   5.336   0.310 -0.8076 -2.1129 -1.1025
 3381TIP3   OH231777   6.135   0.619   0.597 -0.0533 -0.2480 -0.0700
 3381TIP3    H131778   6.157   0.530   0.624  2.6884  0.9613  2.1302
 3381TIP3    H231779   6.202   0.643   0.534  0.0231  0.6869  0.3453
 3382TIP3   OH231780   5.036   4.470   2.663 -0.0378  0.0098 -0.0122
 3382TIP3    H131781   4.951   4.450   2.623  0.5594  0.8352 -1.7655
 3382TIP3    H231782   5.080   4.527   2.600  2.0230 -0.7851  0.6220
 3383TIP3   OH231783   5.522   4.169   8.329  0.3474 -0.3084  0.1170
 3383TIP3    H131784   5.568   4.247   8.361 -0.1073 -0.4063  1.0291
 3383TIP3    H231785   5.429   4.188   8.344  0.0871 -0.2670 -1.3717
 3384TIP3   OH231786   1.067   4.086   7.397  0.7559 -0.0045 -0.3440
 3384TIP3    H131787   1.085   4.174   7.430 -2.0038  0.7818 -0.7469
 3384TIP3    H231788   0.975   4.086   7.374  0.7388 -2.9173 -0.7463
 3385TIP3   OH231789   6.389   4.734   7.531  0.3704  0.8200 -0.2603
 3385TIP3    H131790   6.403   4.829   7.537  2.9816  0.5177 -0.1167
 3385TIP3    H231791   6.459   4.704   7.473 -0.2150 -1.0511 -0.0460
 3386TIP3   OH231792   0.356   1.363   0.237 -0.6724 -0.0085 -0.2079
 3386TIP3    H131793   0.357   1.429   0.168 -1.7308  0.0336 -0.2009
 3386TIP3    H231794   0.371   1.280   0.191 -0.6895  0.0949 -0.4000
 3387TIP3   OH231795   2.634   3.782   1.028  0.1657  0.0342  0.4510
 3387TIP3    H131796   2.599   3.835   1.099  1.6858  1.3727  0.2654
 3387TIP3    H231797   2.646   3.843   0.956 -0.7714 -1.1763 -0.7938
 3388TIP3   OH231798   0.277   2.788   1.699  0.1981  0.0206 -0.3143
 3388TIP3    H131799   0.256   2.849   1.769 -0.1221 -1.4534  0.9251
 3388TIP3    H231800   0.316   2.712   1.743 -1.8008 -1.7876 -1.4692
 3389TIP3   OH231801   4.065   4.234   1.436 -0.0039  0.2205  0.0492
 3389TIP3    H131802   3.986   4.192   1.403 -0.0447  0.7453 -0.5569
 3389TIP3    H231803   4.132   4.166   1.432 -0.7658 -0.7286  2.1250
 3390TIP3   OH231804   5.852   0.456   1.730 -0.3945 -0.2915  0.0822
 3390TIP3    H131805   5.913   0.401   1.778  0.1391 -1.0300 -1.3655
 3390TIP3    H231806   5.765   0.425   1.757 -0.1578  0.5186  1.8743
 3391TIP3   OH231807   1.190   6.321   7.098  0.4626 -0.2222 -0.0233
 3391TIP3    H131808   1.277   6.345   7.065  0.8038 -1.9005 -0.4433
 3391TIP3    H231809   1.132   6.389   7.065  1.7475  1.5183  1.1187
 3392TIP3   OH231810   4.967   5.562   2.081 -0.0133  0.3675  0.0656
 3392TIP3    H131811   5.022   5.600   2.013  1.3268  1.5322  1.7233
 3392TIP3    H231812   5.000   5.473   2.092 -1.0420 -0.2725 -1.5828
 3393TIP3   OH231813   6.886   0.233   0.965  0.5358  0.0509 -0.1357
 3393TIP3    H131814   6.956   0.275   1.014  0.0403  0.4881  0.2014
 3393TIP3    H231815   6.908   0.248   0.873  0.1133  1.4964 -0.0247
 3394TIP3   OH231816   3.349   4.241   7.271  0.2506 -0.0067 -0.0626
 3394TIP3    H131817   3.335   4.334   7.288 -0.7145 -0.1123 -0.2114
 3394TIP3    H231818   3.410   4.238   7.197  0.5937  0.4989  0.2000
 3395TIP3   OH231819   3.713   3.507   7.445 -1.1879 -0.1782 -0.1242
 3395TIP3    H131820   3.631   3.458   7.438 -0.2706 -1.5762 -2.4826
 3395TIP3    H231821   3.774   3.458   7.390  2.0355 -0.7095  3.5418
 3396TIP3   OH231822   2.908   1.807   1.219  0.6302 -0.3850  0.5170
 3396TIP3    H131823   2.972   1.746   1.254  0.6442 -0.4491  0.3816
 3396TIP3    H231824   2.825   1.778   1.257  0.8425  0.4123  1.6207
 3397TIP3   OH231825   6.724   2.795   7.976  0.5855  0.4070 -0.6025
 3397TIP3    H131826   6.792   2.850   7.936  0.2752  0.1771 -1.4821
 3397TIP3    H231827   6.646   2.810   7.922  0.7753 -1.7166 -1.5914
 3398TIP3   OH231828   2.911   5.529   7.752 -0.6108 -0.3062 -0.0575
 3398TIP3    H131829   2.965   5.461   7.793  1.5985  2.0031  1.1606
 3398TIP3    H231830   2.844   5.548   7.818 -1.0951 -1.1011 -0.3069
 3399TIP3   OH231831   0.210   3.614   7.319 -0.4635  0.2595 -0.2875
 3399TIP3    H131832   0.305   3.615   7.333 -0.3815 -0.7435 -0.6316
 3399TIP3    H231833   0.195   3.682   7.253  0.0484  0.2930 -0.3784
 3400TIP3   OH231834   4.581   0.863   7.590 -0.2170  0.3840  0.1298
 3400TIP3    H131835   4.610   0.942   7.634 -2.1470  2.2230 -1.6829
 3400TIP3    H231836   4.502   0.836   7.637 -0.7543  0.7826 -0.5305
 3401TIP3   OH231837   2.632   6.272   1.238  0.0940  0.4110 -0.8080
 3401TIP3    H131838   2.652   6.318   1.156  2.7024 -0.4378 -0.7348
 3401TIP3    H231839   2.657   6.181   1.221 -0.5600 -0.0346  0.5229
 3402TIP3   OH231840   1.970   6.806   7.564 -0.0497 -0.2995  0.3042
 3402TIP3    H131841   1.982   6.743   7.494 -1.5423 -0.8387  0.4923
 3402TIP3    H231842   2.021   6.882   7.538 -0.3121 -0.6174 -1.1978
 3403TIP3   OH231843   6.789   0.860   2.331  0.1613  0.0415 -0.6339
 3403TIP3    H131844   6.763   0.848   2.240 -0.3278  1.6675 -0.7475
 3403TIP3    H231845   6.789   0.955   2.343 -0.5672 -0.1529  1.2787
 3404TIP3   OH231846   1.909   4.868   7.071  0.4664  0.2771  0.0308
 3404TIP3    H131847   1.923   4.957   7.040  0.6775  0.5653  0.9098
 3404TIP3    H231848   1.997   4.834   7.088  0.6296 -1.1935 -3.1133
 3405TIP3   OH231849   1.226   3.065   2.133  0.2974 -0.1142  0.3153
 3405TIP3    H131850   1.144   3.028   2.165  0.8292 -1.7505 -0.1215
 3405TIP3    H231851   1.244   3.018   2.052  0.1438  2.3565 -1.2639
 3406TIP3   OH231852   0.396   1.898   1.313 -0.3973 -0.3536 -0.1186
 3406TIP3    H131853   0.484   1.861   1.323 -0.6240 -0.7586  0.4673
 3406TIP3    H231854   0.349   1.833   1.260 -0.3403 -0.1337 -0.4383
 3407TIP3   OH231855   1.907   4.817   0.128  0.6611 -0.8522 -0.2593
 3407TIP3    H131856   1.870   4.792   0.043  0.3932 -0.2586 -0.3198
 3407TIP3    H231857   1.840   4.790   0.192 -0.7291  1.7594 -0.4783
 3408TIP3   OH231858   3.490   5.585   0.828  0.0959 -0.2287  0.4853
 3408TIP3    H131859   3.563   5.568   0.887  0.9397 -0.8050 -0.6912
 3408TIP3    H231860   3.412   5.565   0.880  0.6959  1.2816  2.0530
 3409TIP3   OH231861   1.659   5.751   0.585 -1.0126  0.5978  0.0178
 3409TIP3    H131862   1.623   5.721   0.501 -0.7850  0.1509  0.0769
 3409TIP3    H231863   1.593   5.727   0.649 -0.5760 -0.3314  0.1420
 3410TIP3   OH231864   5.285   3.932   0.007 -0.2957  0.3655  0.0412
 3410TIP3    H131865   5.271   4.026   0.004  0.7649  0.4994 -1.8045
 3410TIP3    H231866   5.201   3.896   0.037 -0.5699  1.8868  1.1977
 3411TIP3   OH231867   6.009   1.962   2.635 -0.4809  0.4778  0.2845
 3411TIP3    H131868   6.009   1.884   2.580  0.4156 -0.1195  1.1091
 3411TIP3    H231869   5.972   1.933   2.718 -0.2987  0.9784  0.5455
 3412TIP3   OH231870   2.504   1.853   2.157 -0.1994 -0.3105  0.3326
 3412TIP3    H131871   2.493   1.782   2.220  1.6359 -1.1431 -0.2372
 3412TIP3    H231872   2.477   1.815   2.073 -2.0056  0.5985  0.4415
 3413TIP3   OH231873   3.696   0.655   1.201 -0.0318  0.5999  0.4967
 3413TIP3    H131874   3.679   0.733   1.252 -2.9868  0.5590 -0.2291
 3413TIP3    H231875   3.641   0.587   1.241  0.1668 -0.3026 -0.6915
 3414TIP3   OH231876   0.435   0.117   1.759  0.3364  0.6333 -0.1725
 3414TIP3    H131877   0.524   0.086   1.780  1.6293  2.9852 -1.6980
 3414TIP3    H231878   0.422   0.093   1.667  0.5225  2.5483 -0.7497
 3415TIP3   OH231879   2.602   5.762   8.133  0.0569  0.5479  0.1276
 3415TIP3    H131880   2.544   5.765   8.210  0.1471  2.1303  0.1678
 3415TIP3    H231881   2.564   5.826   8.072  0.5488  0.0275 -0.7447
 3416TIP3   OH231882   1.466   3.243   0.069 -0.2450  0.8659 -0.5203
 3416TIP3    H131883   1.529   3.315   0.073 -1.2727  1.7608  2.2232
 3416TIP3    H231884   1.381   3.285   0.072 -0.8963 -0.2784  3.1991
 3417TIP3   OH231885   5.583   4.590   7.631  0.2709  0.0314 -0.1750
 3417TIP3    H131886   5.575   4.663   7.570  0.0093 -0.1216 -0.3312
 3417TIP3    H231887   5.493   4.558   7.640 -0.0268  1.2576  1.7984
 3418TIP3   OH231888   6.752   0.312   0.141 -0.4286 -0.0471 -0.1748
 3418TIP3    H131889   6.785   0.317   0.051 -1.1697  0.6645 -0.4173
 3418TIP3    H231890   6.658   0.325   0.133 -0.6660 -1.0975  0.6054
 3419TIP3   OH231891   4.301   3.132   2.614 -0.4780  0.4631  0.6636
 3419TIP3    H131892   4.295   3.174   2.700  1.1575  0.0744  1.0012
 3419TIP3    H231893   4.351   3.052   2.630 -1.0673 -0.1569 -0.4774
 3420TIP3   OH231894   1.263   1.335   6.743  0.1928  0.5551 -0.0234
 3420TIP3    H131895   1.329   1.403   6.733  0.2789  0.9106  2.2585
 3420TIP3    H231896   1.181   1.382   6.759 -0.6891  0.1193 -2.7174
 3421TIP3   OH231897   2.565   6.462   8.384 -0.5032 -0.0638  0.4845
 3421TIP3    H131898   2.498   6.471   8.451 -0.4026  0.7522  0.4825
 3421TIP3    H231899   2.590   6.552   8.361 -0.0508 -0.3373 -0.1565
 3422TIP3   OH231900   4.234   6.735   2.368  0.2467 -0.0664 -0.5346
 3422TIP3    H131901   4.266   6.647   2.386  0.4314  0.2530  0.7856
 3422TIP3    H231902   4.258   6.786   2.446 -0.3296  1.0219 -1.0466
 3423TIP3   OH231903   4.950   4.482   1.768 -0.5549  0.4780  0.8236
 3423TIP3    H131904   5.025   4.443   1.813 -0.6841  0.7708  1.2994
 3423TIP3    H231905   4.879   4.420   1.782 -0.9882  1.2679  2.3211
 3424TIP3   OH231906   0.891   1.981   8.368 -0.9349 -0.2578  1.0016
 3424TIP3    H131907   0.934   1.904   8.402  0.5515  0.8459  1.7146
 3424TIP3    H231908   0.941   2.004   8.290 -0.9494  0.3651  1.1710
 3425TIP3   OH231909   2.269   2.070   7.604  0.6913 -0.2039 -1.0258
 3425TIP3    H131910   2.224   2.125   7.667 -0.5329 -2.1603 -0.0885
 3425TIP3    H231911   2.361   2.074   7.630  0.5895  1.1030 -0.7968
 3426TIP3   OH231912   5.446   6.837   7.182  0.4639 -0.4242  0.1820
 3426TIP3    H131913   5.534   6.798   7.182  1.9747  2.6810 -1.4915
 3426TIP3    H231914   5.398   6.788   7.115  1.9816 -0.1054 -1.2033
 3427TIP3   OH231915   6.670   4.779   0.655 -0.2743  0.2497  0.5320
 3427TIP3    H131916   6.735   4.754   0.720  0.1845 -2.0659 -0.7138
 3427TIP3    H231917   6.711   4.759   0.571 -1.7318  0.9271 -0.3812
 3428TIP3   OH231918   2.246   6.648   1.584  0.3363  0.2423 -0.3849
 3428TIP3    H131919   2.204   6.734   1.579  1.8204  1.0144 -0.1106
 3428TIP3    H231920   2.332   6.665   1.621 -0.1252 -1.6610  1.8415
 3429TIP3   OH231921   0.896   0.612   6.975 -0.1397 -0.5054 -0.7639
 3429TIP3    H131922   0.824   0.667   7.006 -0.6501 -0.6515 -1.6502
 3429TIP3    H231923   0.883   0.606   6.881 -0.7182 -2.9687 -0.6162
 3430TIP3   OH231924   4.838   1.672   7.423  0.0322 -0.9392 -0.0122
 3430TIP3    H131925   4.909   1.609   7.412 -0.5552 -1.7360  0.6188
 3430TIP3    H231926   4.832   1.684   7.518  1.3107  1.4684 -0.1549
 3431TIP3   OH231927   3.246   0.946   0.293  0.1293 -0.0325  0.3520
 3431TIP3    H131928   3.194   0.988   0.225  1.9071 -1.0836 -1.7975
 3431TIP3    H231929   3.242   0.853   0.272  1.1877 -0.3264  1.3486
 3432TIP3   OH231930   0.270   1.594   7.123  0.1656 -0.1873  0.3838
 3432TIP3    H131931   0.346   1.603   7.066  0.4527 -3.0219  0.2090
 3432TIP3    H231932   0.197   1.577   7.063 -0.3438  0.9361  0.6543
 3433TIP3   OH231933   3.914   4.221   1.735  0.8159  0.6585 -0.0608
 3433TIP3    H131934   3.821   4.220   1.711  0.5593  0.0806  0.9153
 3433TIP3    H231935   3.950   4.295   1.685  0.4975 -0.8946 -2.7694
 3434TIP3   OH231936   6.967   4.733   8.003  0.5307  0.4788 -0.3075
 3434TIP3    H131937   6.895   4.673   8.022  0.1975  1.4790  1.8897
 3434TIP3    H231938   6.925   4.813   7.971  0.8291  0.3174 -1.1261
 3435TIP3   OH231939   6.073   2.145   8.170  0.1805 -0.3462 -0.1699
 3435TIP3    H131940   6.096   2.055   8.194 -0.8886 -1.0188 -1.5123
 3435TIP3    H231941   6.117   2.160   8.087 -0.1342  0.1501 -0.2525
 3436TIP3   OH231942   5.263   2.771   2.559  0.0865  0.3586  0.2120
 3436TIP3    H131943   5.313   2.852   2.551 -0.3092  0.5900  0.0811
 3436TIP3    H231944   5.270   2.747   2.652  0.4857  0.3556  0.1841
 3437TIP3   OH231945   3.606   5.264   1.890 -0.2264  0.3674 -0.0911
 3437TIP3    H131946   3.618   5.187   1.834  1.3611 -0.2037  0.9842
 3437TIP3    H231947   3.523   5.248   1.935 -1.2240  0.5449 -1.7452
 3438TIP3   OH231948   5.805   5.291   8.348  0.6331  0.1133 -0.5341
 3438TIP3    H131949   5.711   5.304   8.357  0.5908  1.5401 -2.3755
 3438TIP3    H231950   5.828   5.339   8.268  2.4476 -2.5535 -1.7438
 3439TIP3   OH231951   2.351   5.986   7.408 -0.6654  0.1508 -0.5742
 3439TIP3    H131952   2.364   6.070   7.451  0.2585 -1.0173  1.6013
 3439TIP3    H231953   2.318   6.008   7.321  1.8651  2.8589 -1.0003
 3440TIP3   OH231954   0.336   6.748   2.487 -0.3058 -0.9044  0.1158
 3440TIP3    H131955   0.328   6.834   2.446  0.4574 -1.3753 -1.0844
 3440TIP3    H231956   0.364   6.766   2.577  0.7060  0.0784 -0.3764
 3441TIP3   OH231957   2.950   0.085   0.762  0.6475 -0.5315 -0.2874
 3441TIP3    H131958   2.947   0.084   0.858  2.8783  0.1167 -0.1431
 3441TIP3    H231959   2.869   0.129   0.736 -1.5011 -3.3018  1.0841
 3442TIP3   OH231960   6.392   3.251   0.610 -0.0623  0.2825 -0.7155
 3442TIP3    H131961   6.353   3.165   0.591  3.6575 -1.5491 -1.0606
 3442TIP3    H231962   6.429   3.241   0.698 -0.8042  2.0931 -0.1641
 3443TIP3   OH231963   0.069   1.794   7.637  0.2038 -0.1707  0.1946
 3443TIP3    H131964   0.103   1.880   7.664 -0.9080 -0.1011  1.5099
 3443TIP3    H231965   0.068   1.743   7.718 -0.1959 -1.0675 -0.3641
 3444TIP3   OH231966   3.624   6.653   7.313  0.3380  0.1510 -0.2608
 3444TIP3    H131967   3.664   6.734   7.345  0.3581  0.1241 -0.2180
 3444TIP3    H231968   3.676   6.583   7.354 -0.2531  0.1025  0.4409
 3445TIP3   OH231969   2.683   6.037   0.193 -0.0762  0.6406 -0.0913
 3445TIP3    H131970   2.756   6.023   0.253  0.6428  1.8808 -0.6420
 3445TIP3    H231971   2.679   5.958   0.140  0.9826  0.6284 -0.1623
 3446TIP3   OH231972   4.930   0.595   1.213 -0.3755 -0.0140 -0.1134
 3446TIP3    H131973   5.003   0.537   1.197 -0.1206 -0.0280  0.9998
 3446TIP3    H231974   4.873   0.585   1.137  0.6414 -0.2018 -0.8614
 3447TIP3   OH231975   0.808   1.381   7.508  0.1922 -0.0311  0.1524
 3447TIP3    H131976   0.769   1.409   7.590  2.4462  0.8199  1.0038
 3447TIP3    H231977   0.750   1.416   7.440 -1.8002 -0.9075  1.3141
 3448TIP3   OH231978   3.286   3.503   8.143  0.2099 -0.1644  0.4300
 3448TIP3    H131979   3.225   3.577   8.147  0.1664 -0.1858  0.1407
 3448TIP3    H231980   3.324   3.499   8.231  0.7198  0.6335  0.2637
 3449TIP3   OH231981   5.746   4.819   1.197  0.8362 -0.5332 -0.3080
 3449TIP3    H131982   5.706   4.828   1.284 -2.2380  0.2542 -1.6556
 3449TIP3    H231983   5.829   4.866   1.204  1.1075 -1.2479  2.4090
 3450TIP3   OH231984   3.885   3.862   2.390 -0.4126  0.1135 -0.1620
 3450TIP3    H131985   3.890   3.789   2.452  0.3167  0.2939 -0.0039
 3450TIP3    H231986   3.802   3.849   2.345 -0.9729  0.0002  0.8769
 3451TIP3   OH231987   0.647   6.557   6.836 -0.2048 -0.4539 -0.0718
 3451TIP3    H131988   0.694   6.475   6.826 -0.0440 -0.2637 -0.9759
 3451TIP3    H231989   0.563   6.532   6.875 -0.7621 -1.2604 -1.6865
 3452TIP3   OH231990   1.176   6.587   0.625 -0.6102 -0.4446 -0.0122
 3452TIP3    H131991   1.087   6.577   0.659 -1.3712  1.1823 -1.3790
 3452TIP3    H231992   1.189   6.681   0.619  2.1560 -0.5350  2.4105
 3453TIP3   OH231993   0.745   5.005   1.764  0.0554  0.1322 -0.6795
 3453TIP3    H131994   0.777   5.095   1.756  0.6796  0.2274  1.8392
 3453TIP3    H231995   0.693   4.991   1.686 -0.9890  3.0903 -0.6476
 3454TIP3   OH231996   4.116   2.923   7.412  0.3191 -0.0185 -0.0148
 3454TIP3    H131997   4.095   2.857   7.479 -2.8280 -0.6611 -1.4840
 3454TIP3    H231998   4.090   3.006   7.451 -0.6841 -0.2910 -0.0837
 3455TIP3   OH231999   3.793   6.960   0.706  0.5192  0.7608  0.5771
 3455TIP3    H132000   3.805   7.000   0.792  0.8206 -0.1688  0.9784
 3455TIP3    H232001   3.880   6.961   0.667  0.1278  2.5314 -0.3479
 3456TIP3   OH232002   6.033   2.987   2.086 -0.3018 -0.4743 -0.0245
 3456TIP3    H132003   6.029   2.907   2.035 -1.1844 -1.2592  1.2316
 3456TIP3    H232004   6.078   2.962   2.167 -0.2273  0.3929  0.2206
 3457TIP3   OH232005   0.033   6.675   0.360 -0.0910 -0.6710 -0.1538
 3457TIP3    H132006  -0.036   6.723   0.314 -0.8126  0.2097  1.7128
 3457TIP3    H232007   0.106   6.673   0.299 -0.5920  1.4319 -0.8974
 3458TIP3   OH232008   2.699   6.007   0.680 -0.7358  0.0099 -0.1479
 3458TIP3    H132009   2.720   6.057   0.760 -0.9395  0.0056 -0.0915
 3458TIP3    H232010   2.734   5.920   0.696 -0.4458  0.1121 -0.2151
 3459TIP3   OH232011   6.787   2.593   7.234 -0.7840 -0.4504  0.2090
 3459TIP3    H132012   6.780   2.520   7.172 -3.0313  0.3964 -0.6346
 3459TIP3    H232013   6.790   2.671   7.179  2.4136  0.1565  1.0656
 3460TIP3   OH232014   1.119   3.997   1.978  0.4573 -0.2878 -0.1258
 3460TIP3    H132015   1.121   3.917   1.925 -1.8158  0.6245 -1.7322
 3460TIP3    H232016   1.125   4.068   1.915 -1.2530  0.8411  0.8885
 3461TIP3   OH232017   0.386   1.626   7.832 -0.4779  0.0394  0.0584
 3461TIP3    H132018   0.422   1.710   7.858 -0.1921  0.7047 -2.3121
 3461TIP3    H232019   0.383   1.629   7.737  0.6296 -3.0803 -0.1830
 3462TIP3   OH232020   2.211   1.242   1.015 -0.4152 -0.2325 -0.4973
 3462TIP3    H132021   2.286   1.203   0.969  0.5087  0.3565  0.4753
 3462TIP3    H232022   2.180   1.173   1.073 -0.5098 -0.4047 -0.7472
 3463TIP3   OH232023   3.940   5.976   0.253 -0.6791 -0.2013 -0.5362
 3463TIP3    H132024   3.853   5.940   0.270 -0.4144 -0.3997  0.4494
 3463TIP3    H232025   3.974   5.999   0.339  0.1973 -0.0044 -0.9225
 3464TIP3   OH232026   5.386   4.044   2.164  0.2534 -0.5829 -0.2936
 3464TIP3    H132027   5.375   4.071   2.073 -0.2148  2.4486  0.5722
 3464TIP3    H232028   5.479   4.027   2.174  0.2682 -1.2126 -1.3729
 3465TIP3   OH232029   5.143   1.268   0.825  0.6604 -0.2838 -0.0376
 3465TIP3    H132030   5.163   1.356   0.858  0.6179 -0.5726  0.7680
 3465TIP3    H232031   5.085   1.284   0.750 -0.0202  0.3536  0.5966
 3466TIP3   OH232032   4.835   3.127   1.690 -0.4631  0.1176 -0.0333
 3466TIP3    H132033   4.880   3.211   1.703 -2.4893  1.4327 -0.9427
 3466TIP3    H232034   4.743   3.146   1.708 -0.7725 -2.3918  1.4906
 3467TIP3   OH232035   1.323   5.279   0.405 -0.2446  0.4157 -0.2188
 3467TIP3    H132036   1.288   5.364   0.429  0.1142  0.5784 -0.2601
 3467TIP3    H232037   1.247   5.226   0.382 -0.4400  0.8365 -0.5367
 3468TIP3   OH232038   6.720   6.128   8.085  0.9195 -0.0347  0.3672
 3468TIP3    H132039   6.789   6.139   8.150  0.2462 -0.7379  1.2257
 3468TIP3    H232040   6.747   6.183   8.012  3.0715 -1.3436  0.0996
 3469TIP3   OH232041   1.231   4.206   7.132  0.1033  0.0208 -0.5197
 3469TIP3    H132042   1.237   4.283   7.188  0.3945  0.0213 -0.5531
 3469TIP3    H232043   1.204   4.136   7.191 -0.3342  0.1804 -0.5204
 3470TIP3   OH232044   5.407   6.033   8.279 -0.1093 -0.3755  0.3622
 3470TIP3    H132045   5.450   6.023   8.194 -1.4060  0.3478 -0.4124
 3470TIP3    H232046   5.479   6.048   8.341  0.8569 -0.9725 -0.5846
 3471TIP3   OH232047   6.947   1.763   1.445  0.2090  0.4956  0.1838
 3471TIP3    H132048   7.008   1.837   1.448  0.7689  0.0465  0.0343
 3471TIP3    H232049   6.899   1.768   1.528  1.6313 -0.1309  1.0838
 3472TIP3   OH232050   5.848   6.201   1.431  0.9800 -0.2512  0.0338
 3472TIP3    H132051   5.788   6.148   1.483  1.2720 -0.6386 -0.0179
 3472TIP3    H232052   5.813   6.289   1.436  0.7715 -0.3598  0.5467
 3473TIP3   OH232053   3.539   6.810   1.085 -0.2914  0.0755  0.0848
 3473TIP3    H132054   3.472   6.742   1.088  0.1068 -0.3692 -0.7895
 3473TIP3    H232055   3.564   6.816   0.993  2.6043 -1.5043  0.6229
 3474TIP3   OH232056   0.129   2.204   0.325 -0.2972 -0.0292  0.5191
 3474TIP3    H132057   0.151   2.233   0.236 -0.6692 -3.5797 -0.8857
 3474TIP3    H232058   0.211   2.169   0.360 -0.7596 -1.2105  0.4513
 3475TIP3   OH232059   0.561   1.609   0.740 -0.1005 -0.1665  0.8865
 3475TIP3    H132060   0.525   1.529   0.702 -0.7734  1.6828 -3.0188
 3475TIP3    H232061   0.485   1.653   0.779 -0.2660 -0.2750  0.6887
 3476TIP3   OH232062   4.402   2.982   0.313 -0.2335  0.1616  0.0618
 3476TIP3    H132063   4.434   3.063   0.274 -3.0182  1.6122  0.5457
 3476TIP3    H232064   4.477   2.949   0.363  1.4598  1.5467 -1.4206
 3477TIP3   OH232065   0.190   0.915   0.994  0.5544  0.4588  0.2166
 3477TIP3    H132066   0.195   0.975   1.068 -0.5849 -0.4780  1.0797
 3477TIP3    H232067   0.106   0.871   1.004  1.0879 -0.8407 -0.7379
 3478TIP3   OH232068   1.258   4.736   0.727 -0.4938  0.7249 -0.2139
 3478TIP3    H132069   1.297   4.702   0.808 -0.2914 -0.0580 -0.6366
 3478TIP3    H232070   1.191   4.798   0.757  0.0570  0.9728  0.5427
 3479TIP3   OH232071   3.409   5.673   7.245  0.3268 -0.2113  0.5095
 3479TIP3    H132072   3.469   5.746   7.228 -1.3818  0.8265 -1.6472
 3479TIP3    H232073   3.377   5.648   7.158 -2.6918 -0.3403  1.5445
 3480TIP3   OH232074   0.625   0.720   0.851 -0.1532 -0.2576  0.0397
 3480TIP3    H132075   0.559   0.789   0.843  0.4371  0.4912  1.1224
 3480TIP3    H232076   0.593   0.665   0.922  0.2963  0.0266  0.4715
 3481TIP3   OH232077   4.406   1.596   1.205  0.3855  0.4076  0.5689
 3481TIP3    H132078   4.394   1.573   1.113  1.0228  1.4204  0.2152
 3481TIP3    H232079   4.354   1.676   1.217 -1.2369 -0.7539  1.5907
 3482TIP3   OH232080   3.730   5.660   7.621 -0.0362  0.1374 -0.0502
 3482TIP3    H132081   3.731   5.565   7.618  0.7464  0.0625  1.4860
 3482TIP3    H232082   3.815   5.684   7.659  0.1163  1.4950 -1.1486
 3483TIP3   OH232083   2.001   1.396   6.387 -0.1983  0.1965  0.0728
 3483TIP3    H132084   1.974   1.465   6.327  1.6117 -0.4312 -1.5849
 3483TIP3    H232085   1.966   1.316   6.349 -0.9964  0.0097  1.1599
 3484TIP3   OH232086   5.591   6.152   6.841  0.1407 -0.0610 -0.4770
 3484TIP3    H132087   5.558   6.160   6.751 -0.2342 -0.7429 -0.4152
 3484TIP3    H232088   5.654   6.080   6.836  1.2841  0.9146 -0.4915
 3485TIP3   OH232089   0.386   2.743   6.545  0.7423  0.2176 -0.4173
 3485TIP3    H132090   0.333   2.665   6.558  1.6199 -0.1770  1.0617
 3485TIP3    H232091   0.450   2.741   6.617  2.1046  1.2042 -1.5366
 3486TIP3   OH232092   2.480   2.404   0.864 -0.3892  0.1935  0.3525
 3486TIP3    H132093   2.449   2.422   0.953  1.8591 -1.5778  1.5942
 3486TIP3    H232094   2.454   2.314   0.847 -0.1820  0.2844 -0.5307
 3487TIP3   OH232095   0.628   4.566   1.625 -0.1208 -0.2340 -0.0133
 3487TIP3    H132096   0.671   4.481   1.615  0.4927  0.3028 -2.7236
 3487TIP3    H232097   0.682   4.626   1.574 -2.0218  1.2532 -0.3930
 3488TIP3   OH232098   5.198   5.502   0.489 -0.0523  0.7273 -0.3469
 3488TIP3    H132099   5.138   5.432   0.462 -0.1839  1.0694 -0.9533
 3488TIP3    H232100   5.157   5.540   0.566  0.7639 -0.8366  0.9235
 3489TIP3   OH232101   1.543   3.759   1.294 -0.1304  0.1449  0.3125
 3489TIP3    H132102   1.522   3.790   1.206 -1.0926  0.2791  0.5762
 3489TIP3    H232103   1.458   3.741   1.333  0.3263 -0.8005  0.9006
 3490TIP3   OH232104   1.397   4.551   0.415 -0.2291  0.3911 -0.3512
 3490TIP3    H132105   1.429   4.506   0.493  0.2475  0.6761 -0.3810
 3490TIP3    H232106   1.400   4.644   0.438 -0.1931  0.4696 -0.6676
 3491TIP3   OH232107   3.094   5.480   8.107  0.1445  0.5518  0.0629
 3491TIP3    H132108   3.046   5.559   8.132  1.7001  1.5665 -0.0326
 3491TIP3    H232109   3.186   5.507   8.104  1.0571 -1.7986  2.3715
 3492TIP3   OH232110   1.196   0.486   0.693 -0.3557 -0.2514 -0.2079
 3492TIP3    H132111   1.239   0.534   0.622 -0.3121 -1.9005 -1.3527
 3492TIP3    H232112   1.103   0.504   0.681 -0.2920  0.1642 -0.1248
 3493TIP3   OH232113   4.074   0.744   6.693  0.0954 -0.0371 -0.0306
 3493TIP3    H132114   4.100   0.652   6.688  1.8217  0.1881  2.6789
 3493TIP3    H232115   4.156   0.792   6.700 -0.8203  1.4947  0.9152
 3494TIP3   OH232116   0.629   4.883   7.434 -0.2302  0.2303 -0.0777
 3494TIP3    H132117   0.652   4.791   7.419 -1.9049 -0.1269 -0.6375
 3494TIP3    H232118   0.687   4.932   7.375 -0.7199 -0.6056 -1.2864
 3495TIP3   OH232119   2.066   6.245   7.515 -0.0773 -0.1373  0.4628
 3495TIP3    H132120   2.046   6.220   7.424 -0.8406  0.5572  0.4258
 3495TIP3    H232121   1.980   6.266   7.553  0.1637 -1.0238  1.5397
 3496TIP3   OH232122   6.624   2.015   0.310 -0.0257 -0.0951  0.2051
 3496TIP3    H132123   6.579   1.942   0.268  0.6496  0.0980 -0.9170
 3496TIP3    H232124   6.682   1.975   0.374 -2.6598 -0.2881  2.6340
 3497TIP3   OH232125   5.167   6.122   7.045 -0.0955 -0.4683 -0.5229
 3497TIP3    H132126   5.207   6.084   6.966  0.3204  0.8374 -0.9677
 3497TIP3    H232127   5.235   6.113   7.112 -1.0790 -3.2100  0.2427
 3498TIP3   OH232128   3.121   2.800   0.580 -0.5240  0.4320  0.2216
 3498TIP3    H132129   3.082   2.713   0.589 -0.0031  0.2030  0.3000
 3498TIP3    H232130   3.165   2.815   0.664  2.7157 -0.8906 -1.0654
 3499TIP3   OH232131   6.454   2.504   0.097 -0.2747  0.0016 -0.4645
 3499TIP3    H132132   6.434   2.507   0.003  1.8892 -1.0748 -1.0137
 3499TIP3    H232133   6.480   2.414   0.113  1.3739  0.6426  0.7149
 3500TIP3   OH232134   6.298   0.711   1.419 -0.3179  0.4922 -0.2242
 3500TIP3    H132135   6.281   0.706   1.513  0.6420 -0.8976 -0.0817
 3500TIP3    H232136   6.357   0.786   1.409 -0.2477  0.5125  0.3240
 3501TIP3   OH232137   6.234   2.832   0.037 -0.0092  0.3253 -0.3948
 3501TIP3    H132138   6.239   2.746  -0.007  2.1758  0.2447 -0.0756
 3501TIP3    H232139   6.203   2.891  -0.031 -2.1006 -0.7621 -0.4827
 3502TIP3   OH232140   1.684   3.196   8.054 -0.1513  0.1769  0.3163
 3502TIP3    H132141   1.708   3.144   7.977 -1.5944 -0.9846  0.6080
 3502TIP3    H232142   1.679   3.286   8.021 -1.2150 -0.3479 -1.1022
 3503TIP3   OH232143   6.133   0.648   2.572  0.0744 -0.3710  0.4518
 3503TIP3    H132144   6.117   0.664   2.665  1.7196 -0.9860  0.8680
 3503TIP3    H232145   6.045   0.640   2.534 -0.6450 -1.6082  2.2306
 3504TIP3   OH232146   0.305   4.440   1.878 -0.2192  0.0330  0.3252
 3504TIP3    H132147   0.281   4.450   1.785 -1.2963 -1.6228  0.3918
 3504TIP3    H232148   0.228   4.473   1.925  0.2571  0.7009  0.6504
 3505TIP3   OH232149   4.770   0.364   8.187  0.6752  0.0850 -0.2305
 3505TIP3    H132150   4.838   0.388   8.125 -0.0262  0.4600 -0.8636
 3505TIP3    H232151   4.747   0.274   8.163  1.6327 -0.4212  0.6308
 3506TIP3   OH232152   0.383   2.851   0.678  0.2576  0.6182 -0.1374
 3506TIP3    H132153   0.333   2.807   0.747  1.5801 -0.9506 -0.1297
 3506TIP3    H232154   0.451   2.788   0.653  4.1413  3.5414  1.8334
 3507TIP3   OH232155   6.668   2.852   2.430 -0.2398 -0.1783  0.7173
 3507TIP3    H132156   6.669   2.762   2.462  1.1068 -0.1278  0.8904
 3507TIP3    H232157   6.724   2.851   2.353  0.5689  0.6785  1.2662
 3508TIP3   OH232158   6.325   3.442   0.913  0.1108  0.0549  0.0513
 3508TIP3    H132159   6.381   3.518   0.931  0.5781  0.0161 -1.1551
 3508TIP3    H232160   6.253   3.478   0.861  2.0074 -0.7324 -3.4899
 3509TIP3   OH232161   5.783   3.043   0.328  0.5907 -0.1668  0.0147
 3509TIP3    H132162   5.720   2.971   0.328 -0.1128  0.4337  0.5542
 3509TIP3    H232163   5.868   3.000   0.320  0.2894 -1.1575  1.6534
 3510TIP3   OH232164   1.897   3.920   7.638 -0.1085 -0.0840 -0.4130
 3510TIP3    H132165   1.988   3.913   7.665  0.0822 -0.9557 -1.2236
 3510TIP3    H232166   1.901   3.949   7.547 -0.6503  0.1656 -0.3630
 3511TIP3   OH232167   3.826   1.177   1.176  0.1125 -0.0219 -0.1145
 3511TIP3    H132168   3.761   1.247   1.169  0.6549  0.3039 -3.2413
 3511TIP3    H232169   3.875   1.196   1.256 -0.9922  2.0393  0.1207
 3512TIP3   OH232170   5.381   2.818   1.004  0.1048 -0.0880  0.2319
 3512TIP3    H132171   5.338   2.735   0.983 -0.0417 -0.0464  0.3612
 3512TIP3    H232172   5.378   2.822   1.100  1.9004 -0.8859  0.3477
 3513TIP3   OH232173   1.853   4.431   1.419  0.3547 -0.8226 -0.4924
 3513TIP3    H132174   1.783   4.370   1.396  1.4673 -2.1138 -0.5974
 3513TIP3    H232175   1.858   4.428   1.514  0.5057 -1.0190 -0.5056
 3514TIP3   OH232176   4.823   4.506   1.445 -0.2549 -0.1233  0.7806
 3514TIP3    H132177   4.903   4.512   1.498  0.3921  1.5098 -0.3370
 3514TIP3    H232178   4.841   4.435   1.383 -0.0575 -0.3971  1.1433
 3515TIP3   OH232179   2.408   3.674   1.831  0.2576 -0.1514  0.0554
 3515TIP3    H132180   2.431   3.581   1.831  1.9938  0.2272  1.0380
 3515TIP3    H232181   2.389   3.693   1.923  0.1032  0.5078 -0.1108
 3516TIP3   OH232182   4.233   4.106   0.700 -0.2477 -0.0919 -0.8175
 3516TIP3    H132183   4.248   4.024   0.747 -0.0437 -0.6115 -1.7660
 3516TIP3    H232184   4.137   4.116   0.701 -0.2677 -0.2964 -0.6113
 3517TIP3   OH232185   3.806   5.909   2.115  0.2195 -0.4233  0.2586
 3517TIP3    H132186   3.773   5.895   2.204  0.4476  1.4271  0.6703
 3517TIP3    H232187   3.732   5.888   2.058 -0.1546 -0.9178  0.9118
 3518TIP3   OH232188   0.640   2.085   7.851 -0.4775 -0.0015 -0.1372
 3518TIP3    H132189   0.652   2.180   7.847 -1.0563  0.0477 -1.1250
 3518TIP3    H232190   0.561   2.073   7.904 -0.7092  0.1078 -0.4506
 3519TIP3   OH232191   5.602   1.712   0.154 -0.1759  0.0021 -0.0516
 3519TIP3    H132192   5.566   1.710   0.242  1.1945 -1.7427  0.5182
 3519TIP3    H232193   5.669   1.780   0.156 -0.7333  0.5626 -0.0235
 3520TIP3   OH232194   4.650   1.125   0.802  0.0044 -1.3782 -0.1087
 3520TIP3    H132195   4.607   1.114   0.887 -0.2399 -1.7587 -0.2740
 3520TIP3    H232196   4.597   1.072   0.742 -0.8573  0.2572 -0.8532
 3521TIP3   OH232197   5.626   2.468   0.470  0.0471  0.2359  0.2581
 3521TIP3    H132198   5.707   2.462   0.418 -0.5437  1.5057 -0.8577
 3521TIP3    H232199   5.585   2.382   0.459  0.5339  0.0723 -0.3730
 3522TIP3   OH232200   5.357   1.098   2.572  0.7935 -0.2061  0.6831
 3522TIP3    H132201   5.348   1.193   2.570  1.3925 -0.1465 -1.3323
 3522TIP3    H232202   5.451   1.083   2.574  0.6989 -0.7907  1.8817
 3523TIP3   OH232203   2.418   5.969   1.712  0.6646  0.2792  0.1474
 3523TIP3    H132204   2.490   6.000   1.656  1.9569 -1.9320  0.4737
 3523TIP3    H232205   2.397   5.882   1.677 -1.0063  0.3781  0.8589
 3524TIP3   OH232206   5.291   5.255   2.293  0.1803 -0.1166 -0.5204
 3524TIP3    H132207   5.312   5.311   2.368 -1.1285 -1.2062  0.7137
 3524TIP3    H232208   5.311   5.167   2.323 -1.6673 -0.7062 -0.9275
 3525TIP3   OH232209   6.024   5.123   8.275 -0.0826  0.1861 -0.6356
 3525TIP3    H132210   5.951   5.177   8.305 -0.5803 -0.4002 -0.7842
 3525TIP3    H232211   5.984   5.042   8.243  0.6817 -0.4801  0.0266
 3526TIP3   OH232212   5.247   2.485   2.764 -0.4565 -0.2011 -0.6382
 3526TIP3    H132213   5.303   2.434   2.823  0.1553  0.5105 -0.5944
 3526TIP3    H232214   5.161   2.485   2.806 -0.5921 -1.5733 -0.8657
 3527TIP3   OH232215   6.040   2.993   1.224  0.5633 -0.6118 -0.2170
 3527TIP3    H132216   6.011   3.032   1.142  0.2929 -0.2265  0.0586
 3527TIP3    H232217   6.014   2.901   1.217  0.7213 -0.6228 -0.6463
 3528TIP3   OH232218   4.498   1.869   1.075  0.5252 -0.4786 -0.1040
 3528TIP3    H132219   4.432   1.800   1.065 -1.1397  0.8145  1.3711
 3528TIP3    H232220   4.499   1.913   0.990 -0.8060 -0.3063 -0.0595
 3529TIP3   OH232221   1.364   0.286   0.796  0.4460  0.4131 -0.1121
 3529TIP3    H132222   1.369   0.286   0.892 -1.2978  0.4667  0.0167
 3529TIP3    H232223   1.305   0.359   0.776  1.2388  0.7584 -1.2762
 3530TIP3   OH232224   3.436   5.622   1.741 -0.0991 -0.2767 -0.2621
 3530TIP3    H132225   3.480   5.568   1.676  1.7687 -0.1878  0.8728
 3530TIP3    H232226   3.465   5.589   1.825 -0.4748  1.2140  0.4993
 3531TIP3   OH232227   4.009   4.926   8.245 -0.1040 -0.3238  0.3467
 3531TIP3    H132228   4.098   4.933   8.281  0.3375  1.3697 -0.9244
 3531TIP3    H232229   4.021   4.932   8.150 -1.6992  2.5016  0.2007
 3532TIP3   OH232230   6.051   0.104   7.388 -0.1135 -0.3737 -0.2286
 3532TIP3    H132231   5.956   0.091   7.391 -0.6534  3.0686  1.1732
 3532TIP3    H232232   6.071   0.108   7.294 -1.4410 -0.4748 -0.5415
 3533TIP3   OH232233   3.917   2.369   2.503 -0.0504 -0.4598  1.0349
 3533TIP3    H132234   3.941   2.383   2.594 -1.0726  0.1864  1.2179
 3533TIP3    H232235   3.827   2.401   2.496 -0.9316 -2.8468  0.4035
 3534TIP3   OH232236   4.334   4.308   2.822  0.3672 -0.2701 -0.4966
 3534TIP3    H132237   4.267   4.261   2.771  0.8037  0.3442 -1.6820
 3534TIP3    H232238   4.416   4.292   2.774  0.7937  0.3307  0.0223
 3535TIP3   OH232239   1.454   0.621   1.403 -0.6838 -0.1618  0.2964
 3535TIP3    H132240   1.434   0.572   1.324 -0.4417 -0.1158  0.2039
 3535TIP3    H232241   1.532   0.672   1.380 -0.5734 -0.1988  0.5830
 3536TIP3   OH232242   0.328   2.407   8.165  0.4715 -0.1013 -0.3885
 3536TIP3    H132243   0.251   2.351   8.177  0.8264 -0.4172  0.5447
 3536TIP3    H232244   0.296   2.481   8.114 -1.4629  1.7349  3.0636
 3537TIP3   OH232245   1.506   4.210   1.103 -0.2401 -0.4791 -0.1988
 3537TIP3    H132246   1.552   4.157   1.038 -0.3258 -0.5606 -0.1934
 3537TIP3    H232247   1.442   4.260   1.053 -0.4031 -0.6467 -0.1630
 3538TIP3   OH232248   2.396   5.789   7.009  0.4129 -0.3708 -0.4554
 3538TIP3    H132249   2.454   5.806   6.935  0.7215  1.1405  0.0928
 3538TIP3    H232250   2.310   5.816   6.977  0.5859  0.5112 -0.2073
 3539TIP3   OH232251   3.128   0.300   0.896  0.1604 -0.1001  0.0498
 3539TIP3    H132252   3.051   0.244   0.889 -1.5681  2.1824 -0.6780
 3539TIP3    H232253   3.130   0.326   0.988  0.3713 -0.5504  0.1752
 3540TIP3   OH232254   2.621   5.441   8.303  0.3191  0.7405 -0.2573
 3540TIP3    H132255   2.561   5.432   8.377  1.0677  0.3667  0.3163
 3540TIP3    H232256   2.574   5.401   8.230  0.1068 -0.0885  0.3181
 3541TIP3   OH232257   0.161   3.406   1.373 -0.1946 -0.2186 -0.3127
 3541TIP3    H132258   0.252   3.437   1.370 -0.5555  0.8560 -0.7799
 3541TIP3    H232259   0.164   3.320   1.332  0.8548 -0.8720  1.0315
 3542TIP3   OH232260   0.270   0.631   0.996  0.2660 -0.1347  0.7848
 3542TIP3    H132261   0.362   0.630   1.022  1.7629  1.0403 -3.7125
 3542TIP3    H232262   0.247   0.723   0.989 -1.4800 -0.3978  2.1626
 3543TIP3   OH232263   3.130   1.042   7.209  0.4612 -0.1627 -0.6198
 3543TIP3    H132264   3.075   1.007   7.279  0.1759 -0.6910 -1.1003
 3543TIP3    H232265   3.069   1.061   7.138  0.4754  2.1008 -0.1158
 3544TIP3   OH232266   3.335   3.842   2.675  0.3503  0.3412  0.1412
 3544TIP3    H132267   3.242   3.832   2.697  0.3531 -1.8343 -0.5621
 3544TIP3    H232268   3.371   3.754   2.685  2.1529  0.9760 -0.4216
 3545TIP3   OH232269   6.570   4.473   8.351  0.1538 -0.0579  0.5441
 3545TIP3    H132270   6.577   4.421   8.271  1.7685 -2.0989  1.9045
 3545TIP3    H232271   6.634   4.543   8.341 -1.2177  1.0591 -0.8231
 3546TIP3   OH232272   6.725   5.874   7.262 -0.0911  0.5058  0.2636
 3546TIP3    H132273   6.795   5.809   7.260 -1.9853 -1.6133 -1.2821
 3546TIP3    H232274   6.738   5.926   7.183  0.8354  1.4251  0.9903
 3547TIP3   OH232275   3.765   2.138   7.860 -0.2406  0.1910 -0.2917
 3547TIP3    H132276   3.754   2.233   7.857  0.1155  0.1973 -2.5067
 3547TIP3    H232277   3.849   2.125   7.904 -0.1521  0.9008 -0.2477
 3548TIP3   OH232278   2.779   3.265   0.741 -0.5407  0.0263 -0.3100
 3548TIP3    H132279   2.740   3.204   0.805 -0.8772  1.0924  0.5311
 3548TIP3    H232280   2.780   3.349   0.786  0.7231  0.4790 -1.1388
 3549TIP3   OH232281   6.933   0.558   2.824 -0.4356 -0.3504  0.2083
 3549TIP3    H132282   6.844   0.579   2.855 -0.9587 -2.5853  0.3752
 3549TIP3    H232283   6.963   0.639   2.782 -2.8348  0.2606 -0.5012
 3550TIP3   OH232284   4.245   0.336   7.556 -0.2799 -0.7970 -0.2610
 3550TIP3    H132285   4.308   0.319   7.626 -0.4141 -0.4125 -0.0457
 3550TIP3    H232286   4.193   0.410   7.588 -2.3021 -2.4892  0.5488
 3551TIP3   OH232287   0.589   6.353   8.065 -0.4468  0.4937 -0.3440
 3551TIP3    H132288   0.593   6.286   8.133 -0.6589 -0.4774 -1.2556
 3551TIP3    H232289   0.545   6.427   8.106 -0.2121  0.0815  0.6877
 3552TIP3   OH232290   1.622   0.449   2.984 -0.2243 -0.0076  0.1210
 3552TIP3    H132291   1.556   0.478   2.921 -0.5864 -0.7779  0.1364
 3552TIP3    H232292   1.658   0.531   3.020 -1.8368  0.4357  0.8120
 3553TIP3   OH232293   0.742   2.490   7.534 -0.1028  0.0157  0.3677
 3553TIP3    H132294   0.724   2.491   7.440  0.8893 -2.1778  0.0905
 3553TIP3    H232295   0.771   2.579   7.554  0.5127  0.3089 -1.5833
 3554TIP3   OH232296   3.660   2.675   0.885  0.1439 -0.2753  0.1111
 3554TIP3    H132297   3.613   2.758   0.882  0.9239  0.1724 -0.0497
 3554TIP3    H232298   3.672   2.651   0.793 -1.6751 -1.5201  0.1378
 3555TIP3   OH232299   2.474   2.364   7.838 -0.1732 -0.2681  0.2167
 3555TIP3    H132300   2.428   2.296   7.887  0.1852  0.1560  1.1552
 3555TIP3    H232301   2.567   2.341   7.845  0.2257  1.6161  2.7061
 3556TIP3   OH232302   0.752   5.357   7.458  0.3399  0.3308  0.2033
 3556TIP3    H132303   0.787   5.294   7.521  1.3000 -0.9016 -1.4998
 3556TIP3    H232304   0.708   5.305   7.392  0.3899  1.4945 -0.7911
 3557TIP3   OH232305   1.418   2.748   7.392 -0.0415 -0.0706  0.9825
 3557TIP3    H132306   1.401   2.682   7.459 -0.6635  0.5841  1.4806
 3557TIP3    H232307   1.334   2.760   7.348  0.5363 -1.0841 -0.4814
 3558TIP3   OH232308   3.382   3.300   1.634  0.0098 -0.1145 -0.3632
 3558TIP3    H132309   3.398   3.344   1.551  1.1827  1.4802  0.6506
 3558TIP3    H232310   3.462   3.249   1.650  0.8168  1.4404  0.8483
 3559TIP3   OH232311   3.316   2.297   1.761  0.1912  0.1957  0.4372
 3559TIP3    H132312   3.378   2.354   1.806 -0.4770  0.0459  1.5919
 3559TIP3    H232313   3.336   2.308   1.668  1.7388  0.3786  0.7561
 3560TIP3   OH232314   2.853   3.146   8.171 -0.4903 -0.2118 -0.2339
 3560TIP3    H132315   2.896   3.217   8.124  1.3656 -0.3971  1.0880
 3560TIP3    H232316   2.892   3.066   8.134 -1.1319 -0.4793 -0.3528
 3561TIP3   OH232317   2.200   3.581   0.365  0.2625 -0.1609  0.3105
 3561TIP3    H132318   2.248   3.636   0.426  1.1617  0.7359 -1.1522
 3561TIP3    H232319   2.143   3.641   0.318  2.3623 -0.1059 -2.3940
 3562TIP3   OH232320   5.090   0.327   2.427  0.0220 -0.5601 -0.1190
 3562TIP3    H132321   5.172   0.372   2.450 -1.5527  0.7568  3.8187
 3562TIP3    H232322   5.031   0.397   2.401 -0.8113 -1.0700  0.3743
 3563TIP3   OH232323   0.753   3.725   0.141  0.0928  0.2702  0.1995
 3563TIP3    H132324   0.734   3.659   0.074  0.7879 -1.3060  1.4804
 3563TIP3    H232325   0.667   3.752   0.173 -0.2141  0.3771 -0.6980
 3564TIP3   OH232326   4.826   6.783   0.347 -0.0436 -0.1972  0.4521
 3564TIP3    H132327   4.774   6.851   0.305  0.5164 -0.4586 -0.7156
 3564TIP3    H232328   4.844   6.720   0.277  1.0207 -0.5900  1.0495
 3565TIP3   OH232329   5.802   6.620   2.916  0.4483  0.3140  0.2153
 3565TIP3    H132330   5.824   6.669   2.836  0.6717 -2.6321 -1.6670
 3565TIP3    H232331   5.717   6.582   2.898  0.7814 -0.9208  1.1288
 3566TIP3   OH232332   3.651   4.255   1.622 -0.5377  0.0319 -0.1145
 3566TIP3    H132333   3.567   4.211   1.608 -0.8777  0.6518 -0.0093
 3566TIP3    H232334   3.687   4.266   1.534 -0.8630  0.3594 -0.2050
 3567TIP3   OH232335   0.815   4.353   1.874  0.4609 -0.1802  0.0890
 3567TIP3    H132336   0.806   4.304   1.793  2.5941 -1.4566  0.5613
 3567TIP3    H232337   0.729   4.344   1.917 -1.4676  2.2507 -2.8058
 3568TIP3   OH232338   2.990   2.021   8.296 -0.4631 -0.0906 -0.3316
 3568TIP3    H132339   2.984   1.926   8.284 -0.4916  0.1653 -2.8030
 3568TIP3    H232340   3.079   2.035   8.327 -0.0827 -0.8566 -1.0365
 3569TIP3   OH232341   5.079   5.620   7.738  0.3705 -0.2311 -0.5080
 3569TIP3    H132342   5.016   5.647   7.670  1.1440 -1.9447 -1.9786
 3569TIP3    H232343   5.144   5.568   7.691  1.0415 -1.3425  1.5370
 3570TIP3   OH232344   2.748   1.361   6.493 -0.1838  0.0919 -0.1879
 3570TIP3    H132345   2.791   1.377   6.577 -0.7476  0.5360  0.0192
 3570TIP3    H232346   2.812   1.309   6.443 -0.1154 -0.7879  0.7694
 3571TIP3   OH232347   2.511   2.738   1.423  0.7147  0.4530  0.4164
 3571TIP3    H132348   2.473   2.802   1.363  1.2544  1.8997  1.5584
 3571TIP3    H232349   2.561   2.680   1.366 -0.6541  0.3695 -0.7635
 3572TIP3   OH232350   1.656   2.797   2.746 -0.1143 -0.2925 -0.1531
 3572TIP3    H132351   1.649   2.861   2.817 -0.4383  0.9353 -1.2566
 3572TIP3    H232352   1.623   2.715   2.784 -0.7729  0.4615  0.9404
 3573TIP3   OH232353   0.616   3.352   1.828 -0.2861 -0.5392 -0.3316
 3573TIP3    H132354   0.557   3.412   1.782 -1.7366 -2.0740 -0.5896
 3573TIP3    H232355   0.668   3.311   1.758 -0.1677 -0.4766 -0.2799
 3574TIP3   OH232356   3.135   5.492   2.599  0.4515 -0.2280  0.2074
 3574TIP3    H132357   3.121   5.522   2.509  0.8557 -1.8710 -0.4253
 3574TIP3    H232358   3.055   5.444   2.620  0.7217 -0.5978  0.3996
 3575TIP3   OH232359   5.838   6.560   8.230  0.2244  0.0812 -0.0797
 3575TIP3    H132360   5.803   6.577   8.142 -0.3235  0.6707  0.2365
 3575TIP3    H232361   5.817   6.469   8.247 -3.6871  1.0081  1.1368
 3576TIP3   OH232362   2.981   0.064   0.243  0.3946 -0.2413 -0.2689
 3576TIP3    H132363   2.961   0.009   0.320 -0.4106  0.3426 -0.0493
 3576TIP3    H232364   3.075   0.053   0.230  0.9651  1.1784  2.0311
 3577TIP3   OH232365   3.803   4.490   0.477  0.4928  0.2226  0.8517
 3577TIP3    H132366   3.787   4.491   0.383 -0.9442 -4.1749  0.8093
 3577TIP3    H232367   3.894   4.460   0.485 -0.0902 -1.7008  0.7423
 3578TIP3   OH232368   6.268   5.069   8.037  0.5383 -0.1428  0.4147
 3578TIP3    H132369   6.217   5.146   8.012  2.0879  0.8617  0.1815
 3578TIP3    H232370   6.322   5.049   7.960  0.4273 -1.2368  0.6022
 3579TIP3   OH232371   3.917   4.599   2.794  0.2979  0.6299  0.7432
 3579TIP3    H132372   3.838   4.545   2.793  1.2824 -0.8858  1.1188
 3579TIP3    H232373   3.974   4.556   2.857  1.1428  2.1291  1.0275
 3580TIP3   OH232374   0.030   3.159   6.688  0.7238  0.3085  0.4778
 3580TIP3    H132375  -0.004   3.173   6.777  0.6071  0.4937  0.4037
 3580TIP3    H232376   0.080   3.239   6.669 -1.4502  1.4683 -0.6554
 3581TIP3   OH232377   0.689   4.700   6.730 -0.4736  0.6742  0.0834
 3581TIP3    H132378   0.740   4.707   6.649 -1.0476 -1.9767 -0.6229
 3581TIP3    H232379   0.662   4.608   6.732 -0.9267  0.7980  3.0519
 3582TIP3   OH232380   3.609   3.361   0.519 -0.0476  0.5762 -0.1194
 3582TIP3    H132381   3.513   3.361   0.510 -0.0340  0.8868 -0.2700
 3582TIP3    H232382   3.625   3.399   0.606 -0.1245 -1.1543  0.6926
 3583TIP3   OH232383   1.025   6.264   2.828  0.7290  0.5746  0.3369
 3583TIP3    H132384   0.979   6.348   2.822 -0.6910 -0.1067  1.2395
 3583TIP3    H232385   1.034   6.248   2.922  0.4304 -0.5681  0.1844
 3584TIP3   OH232386   2.264   1.358   0.769  1.0131 -0.0294  0.3461
 3584TIP3    H132387   2.307   1.279   0.736  0.2454 -0.5016  0.4540
 3584TIP3    H232388   2.219   1.330   0.848  0.2687  0.3868  0.0807
 3585TIP3   OH232389   1.032   3.575   1.125 -0.0269  0.2338 -0.3968
 3585TIP3    H132390   1.034   3.666   1.094 -1.3625 -0.7687 -4.0154
 3585TIP3    H232391   0.944   3.565   1.162  0.1285  0.4089  0.0237
 3586TIP3   OH232392   3.782   2.481   7.481 -0.0927  0.0192 -0.3973
 3586TIP3    H132393   3.758   2.538   7.555 -1.5151 -1.0735  0.0250
 3586TIP3    H232394   3.732   2.515   7.407  0.7225  0.6291 -0.6729
 3587TIP3   OH232395   6.197   0.036   8.203 -0.1783 -0.3056  0.3633
 3587TIP3    H132396   6.270   0.091   8.231  0.2763 -0.3659 -0.6524
 3587TIP3    H232397   6.123   0.097   8.192  1.1137  0.8125 -3.9328
 3588TIP3   OH232398   0.207   3.581   1.939  0.3723 -0.1464 -0.1532
 3588TIP3    H132399   0.165   3.507   1.983  0.2895 -0.1899 -0.3040
 3588TIP3    H232400   0.141   3.650   1.938  0.1945 -0.3166 -0.6591
 3589TIP3   OH232401   6.791   1.308   1.747 -0.1695 -0.1622  0.1827
 3589TIP3    H132402   6.868   1.319   1.802 -0.1066 -0.4559  0.1558
 3589TIP3    H232403   6.778   1.394   1.706  0.1653 -0.1225  0.1579
 3590TIP3   OH232404   1.062   2.425   8.393 -0.4431 -0.2015  0.4315
 3590TIP3    H132405   1.119   2.393   8.323 -0.4261 -0.7964  0.7119
 3590TIP3    H232406   1.016   2.347   8.424 -0.6589  0.1048  0.8960
 3591TIP3   OH232407   4.088   6.265   1.930 -0.2569  0.2978 -0.5701
 3591TIP3    H132408   4.105   6.238   1.840  0.6895 -1.2006  0.0350
 3591TIP3    H232409   4.062   6.185   1.976  0.8852  0.7062  0.8685
 3592TIP3   OH232410   2.732   5.935   1.767  0.6680 -0.1561  0.3508
 3592TIP3    H132411   2.757   5.912   1.678 -0.7095  0.6255 -0.2728
 3592TIP3    H232412   2.704   6.026   1.761 -1.3235 -0.6666  1.1512
 3593TIP3   OH232413   0.625   3.940   1.263  0.2519  0.0629 -0.0584
 3593TIP3    H132414   0.693   3.905   1.321 -1.1501 -0.6383  1.2221
 3593TIP3    H232415   0.673   3.970   1.186  1.6755 -3.7527 -0.8549
 3594TIP3   OH232416   6.097   2.297   7.758 -0.3765  0.0486 -0.0417
 3594TIP3    H132417   6.159   2.231   7.789  0.0113  0.4278  0.0080
 3594TIP3    H232418   6.016   2.279   7.806  0.0847  0.3577  0.8718
 3595TIP3   OH232419   0.099   0.751   7.480  0.2644 -0.1000 -0.0677
 3595TIP3    H132420   0.074   0.807   7.554  0.1067 -0.2527 -0.0027
 3595TIP3    H232421   0.130   0.671   7.521 -0.6376 -0.5172 -0.1783
 3596TIP3   OH232422   0.980   2.306   7.896 -0.2043  0.5482 -0.1353
 3596TIP3    H132423   0.897   2.340   7.864 -0.3722 -0.1689 -0.4923
 3596TIP3    H232424   1.041   2.380   7.889 -0.5909  0.8161 -0.7469
 3597TIP3   OH232425   2.759   4.540   8.206  0.0436  0.4763  0.5788
 3597TIP3    H132426   2.778   4.560   8.114 -0.1246 -1.0482  0.1838
 3597TIP3    H232427   2.763   4.444   8.211 -0.8166  0.4855  1.9672
 3598TIP3   OH232428   0.095   5.707   1.624  0.5933 -0.7109 -0.9111
 3598TIP3    H132429   0.031   5.643   1.655 -0.6232  1.1373  0.6467
 3598TIP3    H232430   0.043   5.783   1.598  1.9781 -0.3009 -2.6508
 3599TIP3   OH232431   6.512   4.243   8.176  0.8108 -0.1731  0.6145
 3599TIP3    H132432   6.538   4.210   8.261  0.2046 -0.7594  0.5742
 3599TIP3    H232433   6.470   4.169   8.132 -0.0579  0.4860  0.3110
 3600TIP3   OH232434   5.708   2.878   0.596  0.1861  0.3413  0.1947
 3600TIP3    H132435   5.798   2.847   0.607 -0.4660 -0.7002  4.7110
 3600TIP3    H232436   5.659   2.800   0.569  0.3753  0.5767 -0.8755
 3601TIP3   OH232437   6.813   0.284   0.634  0.2493  0.0447 -0.1514
 3601TIP3    H132438   6.733   0.239   0.660 -0.2151 -0.3225 -2.0620
 3601TIP3    H232439   6.817   0.273   0.539  1.9777  1.0369 -0.2381
 3602TIP3   OH232440   5.915   4.511   6.631  0.0355 -0.2944  0.5216
 3602TIP3    H132441   5.965   4.520   6.712  2.2838  1.4552 -0.9361
 3602TIP3    H232442   5.973   4.463   6.572 -1.2377 -0.8555 -0.3347
 3603TIP3   OH232443   6.996   0.126   1.736  0.0459 -0.3988 -0.1736
 3603TIP3    H132444   6.953   0.092   1.815 -0.4348  0.4114 -0.0808
 3603TIP3    H232445   7.032   0.048   1.694 -2.1114 -1.2561 -0.6198
 3604TIP3   OH232446   6.278   6.818   0.275 -0.2776 -0.2104  0.1444
 3604TIP3    H132447   6.207   6.787   0.331  0.6030 -0.1534  1.3285
 3604TIP3    H232448   6.260   6.778   0.189 -0.9629 -1.3306  0.7848
 3605TIP3   OH232449   6.858   4.471   7.520 -0.0350 -0.0137 -0.3249
 3605TIP3    H132450   6.903   4.549   7.554  1.1662 -1.2692  1.1544
 3605TIP3    H232451   6.918   4.399   7.539 -1.9390 -1.5635  0.1337
 3606TIP3   OH232452   4.260   6.029   6.900 -0.4221 -0.0506 -0.4564
 3606TIP3    H132453   4.219   6.090   6.838  0.1480 -0.4228 -1.2142
 3606TIP3    H232454   4.348   6.064   6.913 -0.1816 -0.5540 -0.6919
 3607TIP3   OH232455   4.287   1.060   2.444 -0.2204 -0.6313 -0.0527
 3607TIP3    H132456   4.376   1.097   2.444 -0.0416 -0.8962 -2.1012
 3607TIP3    H232457   4.282   1.012   2.361 -2.2107 -0.8342  0.1401
 3608TIP3   OH232458   2.660   2.765   2.390 -0.0810  0.2826  0.1223
 3608TIP3    H132459   2.756   2.774   2.387 -0.0778  0.1100 -0.4146
 3608TIP3    H232460   2.644   2.700   2.458  0.2495 -0.5589 -0.5952
 3609TIP3   OH232461   5.841   5.115   7.350 -0.2344  0.1109  0.3395
 3609TIP3    H132462   5.768   5.056   7.366 -0.3173 -0.5722 -2.2052
 3609TIP3    H232463   5.886   5.078   7.274 -0.3097  3.3367 -1.4228
 3610TIP3   OH232464   6.417   1.106   6.983 -0.8469 -0.1768  0.3997
 3610TIP3    H132465   6.398   1.183   6.928 -0.5368 -0.4159 -0.0483
 3610TIP3    H232466   6.365   1.036   6.943 -0.1267 -0.5036  0.0177
 3611TIP3   OH232467   3.932   4.176   1.997  0.4291 -0.0581 -0.2088
 3611TIP3    H132468   3.848   4.143   2.029  1.2509 -2.6847 -0.4546
 3611TIP3    H232469   3.920   4.183   1.902  0.4234 -0.2427 -0.2223
 3612TIP3   OH232470   0.042   0.959   1.493  0.4029 -0.3391 -0.8557
 3612TIP3    H132471   0.093   0.887   1.457  1.0047 -0.5752  0.4056
 3612TIP3    H232472   0.101   1.000   1.556 -0.7601 -0.2617  0.2152
 3613TIP3   OH232473   3.485   1.922   1.837 -0.2747  0.0633 -0.1811
 3613TIP3    H132474   3.471   2.015   1.819 -1.1945  0.2428  1.2179
 3613TIP3    H232475   3.562   1.898   1.786 -0.4838  1.3972 -1.1690
 3614TIP3   OH232476   5.937   5.760   2.442  0.0374 -0.3296  0.0565
 3614TIP3    H132477   5.982   5.768   2.358 -0.0950  0.2808  0.0391
 3614TIP3    H232478   6.000   5.791   2.507  0.5095 -1.7356  0.3156
 3615TIP3   OH232479   4.511   5.953   1.198 -0.1933 -0.0333 -0.0213
 3615TIP3    H132480   4.590   5.974   1.248 -0.3095 -0.4870  0.3673
 3615TIP3    H232481   4.464   5.891   1.254 -0.8145  0.2144 -0.2600
 3616TIP3   OH232482   1.518   2.632   0.296  0.2259 -0.0744 -0.0185
 3616TIP3    H132483   1.467   2.589   0.365  0.7458  0.9408  1.0302
 3616TIP3    H232484   1.607   2.599   0.308  0.2660 -0.1123 -0.4037
 3617TIP3   OH232485   2.580   2.902   0.756 -0.3594 -0.4581 -0.3410
 3617TIP3    H132486   2.492   2.938   0.756 -1.0672 -2.0435  0.9205
 3617TIP3    H232487   2.622   2.941   0.679 -1.8056  1.1063 -0.4001
 3618TIP3   OH232488   3.058   2.932   1.834 -0.1612 -0.0271  0.8152
 3618TIP3    H132489   2.966   2.931   1.806  0.6197 -1.3318 -2.0446
 3618TIP3    H232490   3.094   3.012   1.795  0.3337 -0.5017  0.2788
 3619TIP3   OH232491   6.054   2.732   1.488 -0.6992  0.1790 -0.6610
 3619TIP3    H132492   6.149   2.727   1.499 -0.6063  1.5745 -0.7176
 3619TIP3    H232493   6.019   2.683   1.562  0.0558 -1.6814 -1.4755
 3620TIP3   OH232494   0.787   2.684   1.549 -0.0851  0.7219 -0.3613
 3620TIP3    H132495   0.878   2.663   1.569 -0.0392  2.4756  1.5084
 3620TIP3    H232496   0.788   2.706   1.455  1.2839  0.1595 -0.5010
 3621TIP3   OH232497   6.484   6.442   0.640 -0.2440 -0.0310 -0.6371
 3621TIP3    H132498   6.431   6.521   0.634  0.2665  0.4541  0.9436
 3621TIP3    H232499   6.442   6.381   0.578  0.3809  1.9820 -3.2456
 3622TIP3   OH232500   4.484   5.066   0.352  0.2443 -0.4054  0.0725
 3622TIP3    H132501   4.487   5.141   0.412  0.9103  0.5897 -1.1617
 3622TIP3    H232502   4.561   5.014   0.373 -0.6365 -1.2109  1.4708
 3623TIP3   OH232503   5.151   2.061   2.528  0.3780  0.0267  0.5645
 3623TIP3    H132504   5.069   2.110   2.523  0.0206 -0.5996  0.1162
 3623TIP3    H232505   5.187   2.084   2.613  0.2047  1.0317  0.3815
 3624TIP3   OH232506   1.220   0.135   1.203 -0.5193  0.1441  0.6904
 3624TIP3    H132507   1.197   0.204   1.266  3.5881 -1.1286  3.9650
 3624TIP3    H232508   1.267   0.181   1.133  1.2084  0.9311  2.2885
 3625TIP3   OH232509   3.842   4.779   6.890  0.4870 -0.3903  0.3297
 3625TIP3    H132510   3.748   4.759   6.887 -0.0308  1.8422 -1.0730
 3625TIP3    H232511   3.873   4.736   6.970 -2.1949  0.5500  2.0279
 3626TIP3   OH232512   4.422   4.662   2.134 -0.0012  0.5358 -1.0166
 3626TIP3    H132513   4.494   4.678   2.195 -0.2078  0.0705 -0.6480
 3626TIP3    H232514   4.390   4.575   2.156 -0.7232  0.7660 -1.1310
 3627TIP3   OH232515   3.599   5.254   0.971  0.1035 -0.8672  0.3082
 3627TIP3    H132516   3.560   5.341   0.978  0.5649 -0.4288 -1.7510
 3627TIP3    H232517   3.524   5.195   0.959 -0.1248 -0.4910 -0.1562
 3628TIP3   OH232518   3.860   4.532   8.304  0.2738  0.6298 -0.3437
 3628TIP3    H132519   3.800   4.598   8.339 -0.8699 -0.3192 -0.4378
 3628TIP3    H232520   3.875   4.558   8.214  0.6611  1.3212 -0.0847
 3629TIP3   OH232521   5.368   1.132   2.261 -0.6346 -0.1264 -0.3579
 3629TIP3    H132522   5.370   1.187   2.339 -0.4532 -1.6264  0.7390
 3629TIP3    H232523   5.444   1.160   2.210 -0.7645  0.8869 -0.0169
 3630TIP3   OH232524   4.232   1.847   2.153 -0.4447 -0.0151 -0.1013
 3630TIP3    H132525   4.158   1.787   2.138 -1.8910  1.7733 -0.4997
 3630TIP3    H232526   4.296   1.822   2.086 -2.2301  0.6739 -2.2188
 3631TIP3   OH232527   1.964   1.835   0.238 -0.2276 -0.3122  0.4028
 3631TIP3    H132528   2.026   1.872   0.176 -0.0674 -1.3822 -0.0906
 3631TIP3    H232529   1.889   1.895   0.235 -0.5489 -0.7414 -1.4140
 3632TIP3   OH232530   5.729   4.600   1.587 -0.0161  0.3845 -0.1725
 3632TIP3    H132531   5.765   4.635   1.669  0.3055  0.1552 -0.2166
 3632TIP3    H232532   5.638   4.631   1.586  0.4666  1.8204 -0.5637
 3633TIP3   OH232533   2.854   6.630   2.194 -0.3009 -0.5054  0.9903
 3633TIP3    H132534   2.864   6.700   2.259 -1.0611 -0.0795  0.6622
 3633TIP3    H232535   2.805   6.562   2.240 -1.4412  0.0802  0.6782
 3634TIP3   OH232536   6.245   4.713   0.928  0.4627  0.5547  0.3349
 3634TIP3    H132537   6.323   4.662   0.907  1.0255  0.9501  1.3977
 3634TIP3    H232538   6.215   4.677   1.011  0.6552  1.6775  0.9079
 3635TIP3   OH232539   4.216   5.427   1.696  0.0669 -0.3168 -0.4180
 3635TIP3    H132540   4.153   5.475   1.643  0.7850  0.1860 -0.8356
 3635TIP3    H232541   4.206   5.335   1.670  0.8546 -0.0014 -1.9108
 3636TIP3   OH232542   4.647   4.879   8.047 -0.3793 -0.6781 -0.2681
 3636TIP3    H132543   4.734   4.863   8.009 -0.7789  0.5405 -1.7913
 3636TIP3    H232544   4.590   4.816   8.003 -0.4800 -0.6998 -0.1063
 3637TIP3   OH232545   4.286   3.351   1.157 -0.2081  0.2839 -0.3368
 3637TIP3    H132546   4.272   3.374   1.066 -0.1537 -1.9165 -0.9750
 3637TIP3    H232547   4.199   3.358   1.198 -0.7490 -1.0889 -1.1896
 3638TIP3   OH232548   2.041   5.684   7.664 -0.5106 -0.6352 -0.7441
 3638TIP3    H132549   2.043   5.638   7.749  1.5785  1.5156  0.4906
 3638TIP3    H232550   1.955   5.726   7.662  0.0394  0.7543  1.2349
 3639TIP3   OH232551   0.894   4.132   7.071  0.4520  0.4119  0.0711
 3639TIP3    H132552   0.961   4.067   7.093 -0.5462 -0.4566  0.6431
 3639TIP3    H232553   0.886   4.127   6.976 -0.9789 -1.7836  0.2269
 3640TIP3   OH232554   5.353   6.675   6.990 -0.3432  0.1256 -0.0805
 3640TIP3    H132555   5.320   6.587   7.008  0.1016  0.0486  0.3869
 3640TIP3    H232556   5.290   6.712   6.928 -0.1373 -0.7799 -0.8480
 3641TIP3   OH232557   6.779   2.997   6.713  0.2960 -0.1116 -0.4420
 3641TIP3    H132558   6.691   2.959   6.711 -0.2771  1.1749 -0.3815
 3641TIP3    H232559   6.766   3.091   6.700  1.4878  0.3773  1.4487
 3642TIP3   OH232560   3.020   2.194   7.473 -0.1071 -0.0109  0.1386
 3642TIP3    H132561   3.081   2.210   7.400 -1.3380 -0.2101 -0.9784
 3642TIP3    H232562   2.950   2.142   7.434 -1.1777  0.5246  1.2927
 3643TIP3   OH232563   3.799   6.186   1.344 -0.0803 -0.5975 -0.1556
 3643TIP3    H132564   3.862   6.153   1.280 -0.0016 -0.8937  0.0704
 3643TIP3    H232565   3.819   6.279   1.352  0.9851 -0.8665  0.6436
 3644TIP3   OH232566   1.514   1.053   0.750  0.2645 -0.5066 -0.3220
 3644TIP3    H132567   1.499   0.989   0.681  1.6833 -0.5086 -0.6484
 3644TIP3    H232568   1.598   1.029   0.788  0.7839  1.0776 -0.3701
 3645TIP3   OH232569   2.678   1.709   0.086 -1.1607  1.3392 -0.1924
 3645TIP3    H132570   2.760   1.721   0.135 -1.4285 -1.4940  1.1865
 3645TIP3    H232571   2.705   1.712  -0.006  0.5187  0.5419  0.2261
 3646TIP3   OH232572   4.426   0.545   7.789  0.1457 -0.0151  0.6007
 3646TIP3    H132573   4.462   0.534   7.701  2.0962  2.0920  1.0679
 3646TIP3    H232574   4.406   0.455   7.818  1.9856 -0.9915 -0.9505
 3647TIP3   OH232575   1.776   4.682   0.333  0.8700  0.3633  0.3140
 3647TIP3    H132576   1.740   4.615   0.392  0.2375  0.5102  0.1034
 3647TIP3    H232577   1.842   4.727   0.386  1.1582 -0.2879  0.5260
 3648TIP3   OH232578   2.914   6.255   7.655 -0.0614 -0.3273  0.0164
 3648TIP3    H132579   2.846   6.321   7.639  0.5750  0.5689  0.8566
 3648TIP3    H232580   2.991   6.288   7.609 -0.0849 -1.1549 -0.6301
 3649TIP3   OH232581   4.666   6.702   0.965  0.2545  0.1211  0.1143
 3649TIP3    H132582   4.651   6.781   0.912 -0.1545 -0.6745 -0.9862
 3649TIP3    H232583   4.755   6.674   0.942 -0.3208 -0.8508 -1.0353
 3650TIP3   OH232584   4.801   0.407   7.413  0.4282  0.4096  0.1582
 3650TIP3    H132585   4.835   0.318   7.411  0.3343  0.3322  1.3500
 3650TIP3    H232586   4.807   0.437   7.323 -2.0586 -1.7176 -0.8169
 3651TIP3   OH232587   3.671   4.581   7.930 -0.1598  0.2086 -0.0838
 3651TIP3    H132588   3.731   4.604   7.859 -0.5763 -0.5791 -0.7111
 3651TIP3    H232589   3.633   4.497   7.903 -1.7826  0.8300  0.1138
 3652TIP3   OH232590   2.892   2.885   1.556  0.6403 -0.2808 -0.6164
 3652TIP3    H132591   2.833   2.873   1.482 -0.1804 -1.7319  0.2360
 3652TIP3    H232592   2.964   2.826   1.539  0.1236 -1.1167  0.0548
 3653TIP3   OH232593   6.323   5.267   2.454 -0.0886 -0.0642 -0.6195
 3653TIP3    H132594   6.277   5.340   2.412  1.3449  0.5591 -1.1357
 3653TIP3    H232595   6.257   5.230   2.514 -1.7125 -0.0751 -2.3123
 3654TIP3   OH232596   5.571   0.361   1.853 -0.1518 -0.2863  0.1638
 3654TIP3    H132597   5.562   0.318   1.938 -0.5889 -0.3960  0.0653
 3654TIP3    H232598   5.522   0.306   1.793  0.1894 -0.2304 -0.1704
 3655TIP3   OH232599   4.839   4.571   7.065 -0.0659 -0.3490 -0.2115
 3655TIP3    H132600   4.932   4.554   7.049 -0.2000  0.2649 -1.7432
 3655TIP3    H232601   4.794   4.493   7.032 -0.1034 -0.8836  1.0077
 3656TIP3   OH232602   5.313   4.768   2.228 -0.7836  0.0164  0.5820
 3656TIP3    H132603   5.312   4.864   2.233  1.1490  0.0736  0.7380
 3656TIP3    H232604   5.377   4.741   2.293  0.2868 -1.2490 -0.9125
 3657TIP3   OH232605   3.110   5.978   0.178  0.7423 -0.2282 -0.0127
 3657TIP3    H132606   3.204   5.986   0.160  0.4278  2.1178 -1.0414
 3657TIP3    H232607   3.068   5.999   0.095 -0.7347 -2.6358  0.0440
 3658TIP3   OH232608   0.960   1.919   1.085  0.0446  0.0712 -0.3451
 3658TIP3    H132609   0.870   1.906   1.057 -0.2107 -0.9225  0.8622
 3658TIP3    H232610   0.962   1.889   1.176  1.5654  0.1371 -0.3266
 3659TIP3   OH232611   5.888   4.545   1.916 -0.1358  0.0681  0.3202
 3659TIP3    H132612   5.817   4.521   1.857  0.5152 -0.6590 -0.1825
 3659TIP3    H232613   5.866   4.633   1.946 -0.9366  0.0844 -0.2973
 3660TIP3   OH232614   6.858   4.606   1.289 -0.5441  0.2353 -0.3343
 3660TIP3    H132615   6.870   4.631   1.380 -0.8677 -0.4068 -0.1044
 3660TIP3    H232616   6.944   4.619   1.249 -0.4746  0.7952 -0.0114
 3661TIP3   OH232617   2.234   4.603   1.215  0.1775 -0.2986  0.0958
 3661TIP3    H132618   2.228   4.566   1.303  0.1154 -0.9964 -0.1927
 3661TIP3    H232619   2.144   4.629   1.194  0.5321  1.9577  1.0912
 3662TIP3   OH232620   0.930   1.012   0.665 -0.1936 -0.5676  0.3502
 3662TIP3    H132621   0.942   1.096   0.709  0.2261  0.2705 -1.2847
 3662TIP3    H232622   0.838   1.011   0.639  0.5430  1.1477 -2.8737
 3663TIP3   OH232623   2.438   6.031   8.208 -0.0460 -0.6615  0.2039
 3663TIP3    H132624   2.460   6.124   8.214 -0.1976 -0.7067  1.8701
 3663TIP3    H232625   2.457   6.008   8.117  1.0185  0.7391  0.0338
 3664TIP3   OH232626   3.791   0.613   0.928  0.3372 -0.1047 -0.4893
 3664TIP3    H132627   3.728   0.545   0.905  1.0028 -0.8627 -0.1254
 3664TIP3    H232628   3.746   0.668   0.992  0.2603 -1.0095  0.2409
 3665TIP3   OH232629   2.259   1.916   1.705 -0.4821 -0.4488  0.0781
 3665TIP3    H132630   2.297   1.973   1.772 -0.1129 -0.9171  0.2768
 3665TIP3    H232631   2.287   1.828   1.731 -2.3873 -0.9140  0.6892
 3666TIP3   OH232632   0.592   3.330   2.098  0.5676  0.6151  0.1628
 3666TIP3    H132633   0.621   3.338   2.007  1.3081  0.4412  0.3773
 3666TIP3    H232634   0.524   3.396   2.108 -0.5558 -0.3162 -0.9227
 3667TIP3   OH232635   0.822   0.034   0.700  0.1960  0.4163 -0.3879
 3667TIP3    H132636   0.802   0.106   0.640  2.3549  0.7141 -0.8353
 3667TIP3    H232637   0.841   0.077   0.783  2.6886  0.5727 -0.9534
 3668TIP3   OH232638   3.365   4.218   0.656  0.2840 -0.7537 -0.6495
 3668TIP3    H132639   3.347   4.309   0.681 -0.8656 -1.1492  0.0200
 3668TIP3    H232640   3.406   4.225   0.570  0.6376  0.4260 -0.4019
 3669TIP3   OH232641   5.220   2.713   1.515 -0.1189 -0.2146  0.1806
 3669TIP3    H132642   5.193   2.681   1.429 -0.3195 -1.8008  0.7910
 3669TIP3    H232643   5.314   2.728   1.508 -0.0772 -0.6735 -0.2154
 3670TIP3   OH232644   6.030   5.561   7.501  0.1419  0.3429 -0.3063
 3670TIP3    H132645   6.014   5.638   7.447  1.5660  0.1032 -1.1140
 3670TIP3    H232646   5.966   5.497   7.472  0.0622  0.6551 -0.8271
 3671TIP3   OH232647   0.945   6.948   1.958  0.2434  0.3322 -0.4380
 3671TIP3    H132648   0.953   7.041   1.938 -0.0016  0.5048  0.2296
 3671TIP3    H232649   1.029   6.925   1.998  0.6037  0.0703 -1.3264
 3672TIP3   OH232650   4.330   0.997   2.149 -0.4645 -0.5304 -0.1381
 3672TIP3    H132651   4.278   0.951   2.083  1.8875 -0.4682 -2.1716
 3672TIP3    H232652   4.405   0.940   2.163  1.4362  1.5946 -1.1004
 3673TIP3   OH232653   2.849   6.545   8.188 -0.2612  0.0600  0.1600
 3673TIP3    H132654   2.762   6.585   8.196 -0.6670 -0.8327  0.2767
 3673TIP3    H232655   2.909   6.620   8.186 -1.0693  0.7220 -0.5800
 3674TIP3   OH232656   6.891   5.995   7.542  0.0188  0.0171 -0.3835
 3674TIP3    H132657   6.843   6.051   7.480 -0.4767 -1.2039 -1.1222
 3674TIP3    H232658   6.835   5.993   7.620 -0.2451  0.0762 -0.5714
 3675TIP3   OH232659   5.090   6.886   0.391 -0.0741 -0.5812 -0.1569
 3675TIP3    H132660   5.091   6.911   0.484  0.2533 -0.4626 -0.1926
 3675TIP3    H232661   4.998   6.865   0.373 -0.6017  1.7021 -0.4294
 3676TIP3   OH232662   3.677   0.966   0.313 -0.1983 -0.0431 -0.3434
 3676TIP3    H132663   3.752   1.018   0.339 -0.1458  0.1275 -0.8328
 3676TIP3    H232664   3.636   0.940   0.395 -0.2263  0.7677 -0.0974
 3677TIP3   OH232665   0.405   3.770   7.761 -0.2268 -0.4158 -0.6563
 3677TIP3    H132666   0.418   3.676   7.767 -1.4696 -0.5029  3.1388
 3677TIP3    H232667   0.488   3.808   7.792 -0.4317 -0.3465 -0.1803
 3678TIP3   OH232668   5.016   6.759   7.297  0.5368 -0.2957 -0.1697
 3678TIP3    H132669   5.105   6.769   7.331  0.2224  0.6049  0.4019
 3678TIP3    H232670   4.960   6.766   7.374 -0.1196  0.6220 -0.7088
 3679TIP3   OH232671   1.874   3.243   1.996 -0.0437 -0.8559  0.0035
 3679TIP3    H132672   1.958   3.255   2.041 -0.5852  0.9634  0.6055
 3679TIP3    H232673   1.874   3.311   1.928 -0.7074 -1.3475 -0.4984
 3680TIP3   OH232674   4.905   5.692   6.634  0.2932  0.3265 -0.6838
 3680TIP3    H132675   4.901   5.642   6.715  2.1692  0.7624 -0.2790
 3680TIP3    H232676   4.909   5.625   6.565 -1.2106 -0.0397 -0.4482
 3681TIP3   OH232677   6.042   2.958   7.891  0.7295 -0.1312  0.6251
 3681TIP3    H132678   6.065   2.911   7.811  1.1545  0.3721  0.4442
 3681TIP3    H232679   5.966   2.911   7.925  0.8139 -0.6191  0.1646
 3682TIP3   OH232680   4.221   6.603   8.017 -0.7562  0.3930  0.6967
 3682TIP3    H132681   4.176   6.599   8.102 -2.8465 -2.0211 -0.3828
 3682TIP3    H232682   4.177   6.537   7.964  2.4932 -0.3435 -1.3554
 3683TIP3   OH232683   1.833   0.766   1.091  0.4003  0.5158  0.2268
 3683TIP3    H132684   1.786   0.720   1.022 -1.5191  1.6491  0.7205
 3683TIP3    H232685   1.876   0.839   1.047  1.8110 -0.5613 -0.2370
 3684TIP3   OH232686   5.582   5.241   7.993  0.5361  0.2673  0.2261
 3684TIP3    H132687   5.514   5.272   7.932 -0.0953 -1.0563  0.2268
 3684TIP3    H232688   5.664   5.275   7.957  0.1258 -0.1139 -1.1209
 3685TIP3   OH232689   4.519   5.562   0.662 -0.8023  0.5170  0.6352
 3685TIP3    H132690   4.462   5.633   0.695 -1.1783  0.6577 -0.2928
 3685TIP3    H232691   4.502   5.489   0.722 -0.6534  1.1032  1.4133
 3686TIP3   OH232692   5.974   1.306   2.351  0.0810 -0.1410  0.9065
 3686TIP3    H132693   5.984   1.213   2.369  0.6682 -0.1668  0.4626
 3686TIP3    H232694   5.916   1.311   2.276  0.0841 -0.1521  0.9034
 3687TIP3   OH232695   4.608   6.851   2.235 -0.6461 -0.8695  1.0614
 3687TIP3    H132696   4.617   6.891   2.321 -1.2435  0.5819  0.4800
 3687TIP3    H232697   4.698   6.845   2.202 -0.5906  1.1514  0.6930
 3688TIP3   OH232698   0.111   3.150   1.652  0.3242  0.1090 -0.1788
 3688TIP3    H132699   0.167   3.143   1.730 -0.7656  0.5975  0.6777
 3688TIP3    H232700   0.095   3.243   1.643 -2.6364 -0.1290  1.3337
 3689TIP3   OH232701   6.148   6.836   1.122  0.0410 -0.2134 -0.3920
 3689TIP3    H132702   6.187   6.749   1.132  0.4084 -0.3612 -2.6720
 3689TIP3    H232703   6.115   6.857   1.209  0.0845 -2.5650  0.2667
 3690TIP3   OH232704   2.593   5.827   6.824 -0.2474  0.2416 -0.8303
 3690TIP3    H132705   2.663   5.860   6.881  1.0578 -2.6229 -0.6312
 3690TIP3    H232706   2.637   5.807   6.741 -0.9522 -0.9487 -0.9395
 3691TIP3   OH232707   6.555   3.930   1.770 -0.3590 -0.3529  0.0490
 3691TIP3    H132708   6.467   3.953   1.741  0.0951 -0.1556 -1.2379
 3691TIP3    H232709   6.595   3.888   1.694  1.2951  1.2304 -0.0127
 3692TIP3   OH232710   2.817   0.615   1.728  0.2842 -0.2706 -0.8349
 3692TIP3    H132711   2.904   0.578   1.743  0.6698  0.7562 -0.4698
 3692TIP3    H232712   2.760   0.539   1.721  1.1825 -0.9519 -0.9027
 3693TIP3   OH232713   0.276   5.140   1.395  0.1990 -0.5218 -0.3882
 3693TIP3    H132714   0.337   5.102   1.332 -0.5125 -2.2348 -0.1183
 3693TIP3    H232715   0.322   5.135   1.479 -0.7420 -3.1938  0.0792
 3694TIP3   OH232716   6.657   1.836   7.266 -0.5735  0.5863 -0.0445
 3694TIP3    H132717   6.641   1.811   7.357  0.0939 -0.5914 -0.2296
 3694TIP3    H232718   6.748   1.868   7.265  0.1797 -1.4226 -0.6554
 3695TIP3   OH232719   2.147   3.305   2.061 -0.8426  0.0877 -0.1745
 3695TIP3    H132720   2.144   3.245   2.136 -1.7332 -1.5373 -1.4434
 3695TIP3    H232721   2.238   3.304   2.033 -0.5078  0.6727  0.8096
 3696TIP3   OH232722   1.027   3.150   0.383  0.3500  0.2802  0.5593
 3696TIP3    H132723   1.077   3.219   0.427  0.8283  0.2296  0.0985
 3696TIP3    H232724   0.941   3.153   0.425  0.6710  0.5021  1.2252
 3697TIP3   OH232725   2.881   5.678   7.278  0.1679 -0.2790  0.3470
 3697TIP3    H132726   2.971   5.672   7.245 -0.1009 -1.7900 -0.1726
 3697TIP3    H232727   2.826   5.662   7.202 -0.4881 -1.5267  1.0498
 3698TIP3   OH232728   3.251   1.621   7.477 -0.4179 -0.0135  0.7373
 3698TIP3    H132729   3.229   1.566   7.401 -1.1193 -0.5530  1.3220
 3698TIP3    H232730   3.258   1.710   7.440 -1.9418 -0.0789  0.2263
 3699TIP3   OH232731   5.426   1.412   7.833 -0.0849 -0.3345 -0.4839
 3699TIP3    H132732   5.333   1.411   7.811 -0.1125 -1.3389 -0.3634
 3699TIP3    H232733   5.451   1.504   7.825 -1.6904  0.4213  2.1047
 3700TIP3   OH232734   6.809   6.374   1.638 -0.0302  0.4844  0.0139
 3700TIP3    H132735   6.751   6.450   1.641 -0.8065 -0.0037 -1.6085
 3700TIP3    H232736   6.875   6.396   1.573 -1.4871 -0.9795 -2.1034
 3701TIP3   OH232737   6.811   2.041   2.155  0.1133  0.3463 -0.1500
 3701TIP3    H132738   6.731   2.084   2.125  0.3856  1.3978  0.5522
 3701TIP3    H232739   6.865   2.113   2.189  1.3965 -0.3297 -0.7038
 3702TIP3   OH232740   2.840   2.920   0.946 -0.4293  0.1586  0.9591
 3702TIP3    H132741   2.900   2.989   0.918  0.5236 -1.2453 -0.6654
 3702TIP3    H232742   2.755   2.946   0.911  0.1662 -0.0541 -0.7530
 3703TIP3   OH232743   6.627   1.921   1.151  0.0607  0.2431  0.4731
 3703TIP3    H132744   6.688   1.866   1.200 -0.3293 -0.5794  0.0550
 3703TIP3    H232745   6.587   1.862   1.087 -0.4796  0.9802  0.1110
 3704TIP3   OH232746   1.667   5.070   0.159 -0.2979  0.1422  0.0600
 3704TIP3    H132747   1.734   5.081   0.226 -0.9818  1.8074  0.5249
 3704TIP3    H232748   1.609   5.003   0.193  0.6285 -0.6739  0.0580
 3705TIP3   OH232749   2.809   2.309   0.788  0.1056  0.1250 -0.0683
 3705TIP3    H132750   2.762   2.367   0.848  0.7119  1.2313 -0.6324
 3705TIP3    H232751   2.757   2.229   0.787 -0.8484  0.7097  0.6040
 3706TIP3   OH232752   6.298   4.153   0.184  0.0587  0.3939 -0.1895
 3706TIP3    H132753   6.362   4.132   0.253  0.7073 -1.3069 -1.2478
 3706TIP3    H232754   6.255   4.070   0.166 -0.3591  0.8954 -1.5913
 3707TIP3   OH232755   5.124   1.989   1.392  0.0689  0.2850  0.1423
 3707TIP3    H132756   5.163   1.903   1.407  0.6445  0.2789 -1.2300
 3707TIP3    H232757   5.183   2.031   1.330 -0.8551  1.2104 -0.1311
 3708TIP3   OH232758   6.472   5.697   2.341 -0.2394  0.1005  0.5548
 3708TIP3    H132759   6.518   5.726   2.420 -1.2754 -0.1419  1.2621
 3708TIP3    H232760   6.419   5.772   2.314  1.1730  0.6873 -0.7703
 3709TIP3   OH232761   3.529   0.555   0.346  0.1428  0.1999 -0.1387
 3709TIP3    H132762   3.434   0.540   0.337 -0.0675  1.7193 -0.7940
 3709TIP3    H232763   3.546   0.544   0.440 -1.1214  2.0106  0.3579
 3710TIP3   OH232764   0.882   5.735   7.682 -0.6756  0.1862 -0.3643
 3710TIP3    H132765   0.974   5.754   7.699 -0.6389 -0.0069 -0.3486
 3710TIP3    H232766   0.839   5.820   7.690 -0.6223  0.1416  0.4631
 3711TIP3   OH232767   4.729   6.343   2.422  0.3594 -0.0171 -0.0576
 3711TIP3    H132768   4.803   6.361   2.481 -1.3364 -1.4549  2.7565
 3711TIP3    H232769   4.707   6.251   2.439 -2.5872  0.5905 -0.0873
 3712TIP3   OH232770   2.891   6.896   1.474  0.1966 -0.2528  0.4474
 3712TIP3    H132771   2.914   6.950   1.399  0.8084  0.7121  1.3196
 3712TIP3    H232772   2.949   6.820   1.467  0.0503 -0.3125 -0.2061
 3713TIP3   OH232773   0.395   1.333   7.590 -0.1225 -0.1754  0.1404
 3713TIP3    H132774   0.332   1.398   7.560  0.9117  0.3907 -0.8864
 3713TIP3    H232775   0.349   1.249   7.580 -0.6334  0.1997 -0.8389
 3714TIP3   OH232776   6.753   6.749   7.247 -0.1519 -0.7492  0.4881
 3714TIP3    H132777   6.773   6.719   7.336  0.2956 -0.4034  0.5072
 3714TIP3    H232778   6.723   6.670   7.201  0.7939 -1.1884  0.6011
 3715TIP3   OH232779   2.203   0.131   8.001  0.5559  0.2736  0.2928
 3715TIP3    H132780   2.244   0.094   8.080  0.9057 -0.0660 -0.0443
 3715TIP3    H232781   2.208   0.226   8.014 -1.3795  0.2409  1.6933
 3716TIP3   OH232782   3.337   3.881   7.965  0.6637  0.1763 -0.0579
 3716TIP3    H132783   3.322   3.973   7.946  0.2717 -0.2392 -1.9724
 3716TIP3    H232784   3.296   3.834   7.892 -0.9633 -1.6368  1.8656
 3717TIP3   OH232785   5.119   3.578   1.444  0.5462 -0.6716  0.5788
 3717TIP3    H132786   5.082   3.597   1.530  0.7207 -0.4465  0.6063
 3717TIP3    H232787   5.210   3.609   1.450 -0.1454  1.8049 -0.5152
 3718TIP3   OH232788   5.481   1.533   7.509  0.3796 -0.0607  0.4256
 3718TIP3    H132789   5.421   1.579   7.568  0.8802 -0.2950  1.1311
 3718TIP3    H232790   5.429   1.516   7.430 -0.3920 -0.0032  0.9134
 3719TIP3   OH232791   3.924   6.501   2.448  0.2238  0.3496 -0.3240
 3719TIP3    H132792   3.891   6.539   2.530  0.4950 -0.4700  0.1909
 3719TIP3    H232793   3.934   6.408   2.469 -1.0916 -0.1343 -1.7472
 3720TIP3   OH232794   1.303   4.063   6.809  0.4475 -0.2058 -0.1156
 3720TIP3    H132795   1.244   4.133   6.838  0.4215  0.0156 -0.6859
 3720TIP3    H232796   1.390   4.104   6.808  0.7036 -0.6888  1.2580
 3721TIP3   OH232797   2.966   2.393   1.433 -0.0747  0.2352 -0.2873
 3721TIP3    H132798   2.943   2.306   1.400 -1.0344 -0.2664  1.5845
 3721TIP3    H232799   2.927   2.454   1.370 -1.3476 -0.6766 -0.4152
 3722TIP3   OH232800   6.056   6.997   1.345 -0.0233  0.3701 -0.0492
 3722TIP3    H132801   6.091   6.953   1.422  0.4115 -2.1014 -1.5392
 3722TIP3    H232802   6.002   7.068   1.380  0.4429 -0.4204  2.4794
 3723TIP3   OH232803   6.553   3.569   8.278  0.5614 -0.1136 -0.3525
 3723TIP3    H132804   6.553   3.517   8.359 -1.2411 -1.5607 -1.2102
 3723TIP3    H232805   6.544   3.659   8.308 -1.3209 -0.7166  1.0643
 3724TIP3   OH232806   0.496   0.689   1.765 -0.3520  0.2112  0.2670
 3724TIP3    H132807   0.560   0.626   1.732 -2.1566 -0.9174 -1.3012
 3724TIP3    H232808   0.549   0.763   1.796  1.6990 -0.8266 -0.5615
 3725TIP3   OH232809   1.764   2.061   0.256 -0.2974  0.1439  0.0046
 3725TIP3    H132810   1.690   2.107   0.215  0.1443  1.2453  0.4000
 3725TIP3    H232811   1.725   2.017   0.332 -0.6574  0.2078 -0.1407
 3726TIP3   OH232812   6.340   3.551   7.893  0.1731 -0.1716  0.9118
 3726TIP3    H132813   6.250   3.552   7.862  0.1008 -0.7342  1.0958
 3726TIP3    H232814   6.344   3.477   7.954  1.4692 -2.0227 -1.2527
 3727TIP3   OH232815   0.601   6.870   7.848  0.1618 -0.0136 -0.4340
 3727TIP3    H132816   0.611   6.848   7.755  0.4515  1.6853 -0.8456
 3727TIP3    H232817   0.679   6.836   7.890  0.7408  0.4775 -1.0913
 3728TIP3   OH232818   6.552   6.708   1.916 -0.1937 -0.7618 -0.0301
 3728TIP3    H132819   6.542   6.615   1.892  0.2650 -0.3801 -1.8329
 3728TIP3    H232820   6.624   6.739   1.861 -0.1073  0.5857  0.8204
 3729TIP3   OH232821   0.815   3.718   0.712 -0.0930 -0.2319  0.0865
 3729TIP3    H132822   0.752   3.646   0.716  0.3397 -0.6183  0.0683
 3729TIP3    H232823   0.804   3.754   0.624 -0.6507  0.0362  0.2667
 3730TIP3   OH232824   5.485   2.583   7.306  0.4168 -0.1074  0.2420
 3730TIP3    H132825   5.427   2.507   7.310 -0.7765  0.7826  0.4951
 3730TIP3    H232826   5.467   2.622   7.220 -0.8327  1.2511  1.0636
 3731TIP3   OH232827   0.199   2.258   1.211  0.1889 -0.6990 -0.4243
 3731TIP3    H132828   0.278   2.276   1.161 -0.6109 -1.5286 -2.0569
 3731TIP3    H232829   0.200   2.322   1.282  1.2268  0.7141 -1.6581
 3732TIP3   OH232830   6.007   6.470   1.336  0.1399 -0.2188  0.0459
 3732TIP3    H132831   6.066   6.544   1.325 -1.3059  1.0920  0.6431
 3732TIP3    H232832   6.028   6.434   1.422  0.8658 -0.5301 -0.2583
 3733TIP3   OH232833   4.794   1.712   2.513 -0.0216  0.1370 -0.0534
 3733TIP3    H132834   4.883   1.726   2.547 -0.3629 -2.7528  2.5347
 3733TIP3    H232835   4.737   1.742   2.584 -0.8577 -3.1641  0.8646
 3734TIP3   OH232836   2.465   4.425   1.259 -0.7443 -0.6039  0.4542
 3734TIP3    H132837   2.389   4.477   1.233 -1.5773 -1.6244  0.7777
 3734TIP3    H232838   2.494   4.465   1.341 -2.3007 -1.5283  1.4987
 3735TIP3   OH232839   0.110   4.715   1.693  0.0510 -0.4807  0.0297
 3735TIP3    H132840   0.099   4.663   1.614 -1.2003  1.6160 -1.2512
 3735TIP3    H232841   0.205   4.729   1.699  0.0873  0.4300 -1.8881
 3736TIP3   OH232842   0.169   3.937   1.403 -0.3708 -0.2165  0.1394
 3736TIP3    H132843   0.177   3.934   1.498  0.1362  3.2117  0.3583
 3736TIP3    H232844   0.240   3.881   1.372  0.8556  0.2759  1.8527
 3737TIP3   OH232845   4.427   4.923   0.118 -0.4899 -0.7221 -0.2192
 3737TIP3    H132846   4.425   4.972   0.200 -0.8094 -1.2686  0.1051
 3737TIP3    H232847   4.498   4.964   0.068 -1.1475  0.4656 -0.2193
 3738TIP3   OH232848   1.990   3.182   1.148 -0.5032  0.4556  0.1846
 3738TIP3    H132849   2.054   3.247   1.121  0.8190 -0.3033  1.3809
 3738TIP3    H232850   2.036   3.127   1.211 -1.5089 -1.7064 -0.8376
 3739TIP3   OH232851   3.178   1.729   8.113  0.4033 -0.2099 -0.4918
 3739TIP3    H132852   3.167   1.652   8.057 -0.0057 -1.5687  1.3754
 3739TIP3    H232853   3.246   1.704   8.176  0.4425  1.0567  0.0000
 3740TIP3   OH232854   6.340   6.449   7.942 -0.3772  1.4160  0.2373
 3740TIP3    H132855   6.248   6.475   7.941 -0.5323  1.1534  2.4629
 3740TIP3    H232856   6.377   6.496   8.017  0.5573 -0.7870  1.2292
 3741TIP3   OH232857   1.979   4.151   1.514 -0.0406 -0.3306  0.8245
 3741TIP3    H132858   2.064   4.113   1.491 -0.7713 -0.6985 -1.4200
 3741TIP3    H232859   1.928   4.149   1.434 -2.3191 -0.3693  2.1829
 3742TIP3   OH232860   2.188   5.526   3.390  0.0452  0.4863 -0.3677
 3742TIP3    H132861   2.280   5.509   3.413 -0.0315  0.2633 -0.2260
 3742TIP3    H232862   2.148   5.439   3.386 -0.1494  0.5807 -0.4788
 3743TIP3   OH232863   5.114   5.817   2.616 -0.7540 -0.1378  0.3270
 3743TIP3    H132864   5.093   5.813   2.709 -1.8145 -0.9039  0.0720
 3743TIP3    H232865   5.152   5.731   2.597  1.0459  0.6061  0.3958
 3744TIP3   OH232866   3.417   5.693   0.344  0.2572  0.1492 -0.5784
 3744TIP3    H132867   3.423   5.635   0.421  0.7965 -1.6986 -1.9514
 3744TIP3    H232868   3.324   5.691   0.320 -0.1853  1.7800  0.7027
 3745TIP3   OH232869   1.655   0.816   1.298  0.6582  0.0336 -0.4142
 3745TIP3    H132870   1.691   0.870   1.368 -0.1032 -0.0206  0.0226
 3745TIP3    H232871   1.716   0.829   1.225  1.0504  0.6692  0.0141
 3746TIP3   OH232872   0.023   6.748   2.602  0.2514  0.3449 -0.1839
 3746TIP3    H132873  -0.030   6.672   2.627  1.1663 -1.0288 -2.2308
 3746TIP3    H232874   0.069   6.772   2.683  0.4471 -1.7108  0.3768
 3747TIP3   OH232875   3.654   3.065   1.935 -0.3576 -0.0532  0.1120
 3747TIP3    H132876   3.724   3.004   1.961 -0.6655 -0.6077 -0.3283
 3747TIP3    H232877   3.589   3.058   2.004 -0.7941 -0.8991 -0.3618
 3748TIP3   OH232878   5.803   2.105   7.643 -0.0727  0.0241 -0.3828
 3748TIP3    H132879   5.757   2.076   7.564 -0.2141 -0.7615 -0.0214
 3748TIP3    H232880   5.895   2.088   7.624 -0.1139 -0.2354 -0.3498
 3749TIP3   OH232881   5.552   5.346   2.069 -0.3635  0.7770 -0.3005
 3749TIP3    H132882   5.470   5.382   2.034 -2.4919 -0.7139  2.6764
 3749TIP3    H232883   5.568   5.397   2.148  0.1402 -0.5945  0.5108
 3750TIP3   OH232884   0.951   3.929   1.083  0.1759 -0.0618  0.1067
 3750TIP3    H132885   0.933   4.008   1.134 -1.0196 -0.4938  0.3640
 3750TIP3    H232886   0.886   3.930   1.013  2.7545  1.3863 -2.5133
 3751TIP3   OH232887   2.113   0.239   1.241  0.1248  0.2172  0.3894
 3751TIP3    H132888   2.171   0.306   1.205 -1.7758  1.3549 -0.7007
 3751TIP3    H232889   2.051   0.287   1.296  0.1179 -0.9599  1.4761
 3752TIP3   OH232890   5.269   6.698   7.396  0.4943  0.1716 -0.2504
 3752TIP3    H132891   5.281   6.655   7.480  0.5712  1.2253  0.2938
 3752TIP3    H232892   5.352   6.743   7.379 -0.2147  1.6961  0.1449
 3753TIP3   OH232893   3.895   6.691   7.398 -0.1665  0.2328 -0.3992
 3753TIP3    H132894   3.925   6.771   7.441  0.6835 -0.2342 -0.1127
 3753TIP3    H232895   3.842   6.647   7.464  1.1738 -0.5049  0.2199
 3754TIP3   OH232896   3.043   2.988   0.401  0.0838 -0.2863 -0.0661
 3754TIP3    H132897   3.078   2.955   0.318  1.8363  0.4212  0.3425
 3754TIP3    H232898   3.053   2.915   0.462 -1.3499 -0.8599 -0.4753
 3755TIP3   OH232899   3.225   3.556   6.923  0.0010 -0.4425  0.3431
 3755TIP3    H132900   3.233   3.636   6.873  0.8260 -1.4254 -1.1622
 3755TIP3    H232901   3.146   3.568   6.975 -1.0378  0.5324 -1.3805
 3756TIP3   OH232902   6.805   0.573   1.027  0.0989 -1.0235  0.6139
 3756TIP3    H132903   6.801   0.480   1.051  0.7802 -1.0052  0.8086
 3756TIP3    H232904   6.883   0.580   0.973 -1.6753 -1.1656 -2.1301
 3757TIP3   OH232905   6.814   5.186   0.858  0.4291  0.0399  0.0085
 3757TIP3    H132906   6.897   5.160   0.819  1.2136  1.0406  0.9542
 3757TIP3    H232907   6.787   5.110   0.910  1.6397  0.3191  1.0868
 3758TIP3   OH232908   3.783   5.513   1.637 -0.5141  0.1008 -0.1040
 3758TIP3    H132909   3.784   5.552   1.724  0.2855  0.1247 -0.1177
 3758TIP3    H232910   3.815   5.583   1.579  4.0620 -1.3793  0.2473
 3759TIP3   OH232911   6.024   2.419   2.033 -0.6214 -0.6299  0.3725
 3759TIP3    H132912   6.006   2.373   2.115  1.0474 -2.6356 -0.3003
 3759TIP3    H232913   5.987   2.363   1.965  0.1210 -0.2180 -0.3904
 3760TIP3   OH232914   5.999   0.270   1.112  0.5201 -0.5820 -0.1390
 3760TIP3    H132915   6.087   0.257   1.148  0.8930 -0.0078 -0.7846
 3760TIP3    H232916   5.969   0.351   1.152  1.2425  0.4725 -1.5962
 3761TIP3   OH232917   3.554   0.536   1.948 -0.2976 -0.4892 -0.4584
 3761TIP3    H132918   3.631   0.495   1.908 -0.9394 -0.9395 -1.2661
 3761TIP3    H232919   3.498   0.462   1.972 -1.5953 -0.1217 -2.1681
 3762TIP3   OH232920   2.417   1.127   0.856 -0.1963 -0.0579 -0.0966
 3762TIP3    H132921   2.473   1.107   0.781  1.1709 -1.4799  1.2251
 3762TIP3    H232922   2.373   1.044   0.876  0.5467 -0.0867  1.5179
 3763TIP3   OH232923   2.464   4.121   1.069 -0.2965 -0.2022 -0.2230
 3763TIP3    H132924   2.512   4.194   1.109  0.6693  0.1939 -2.0316
 3763TIP3    H232925   2.448   4.061   1.142  0.8737  0.7677  0.8776
 3764TIP3   OH232926   2.751   1.073   6.689 -0.7584  0.3036  0.1064
 3764TIP3    H132927   2.669   1.026   6.701 -1.1392  0.8934 -0.1115
 3764TIP3    H232928   2.728   1.165   6.702  0.1884  0.3619  1.6368
 3765TIP3   OH232929   5.030   5.075   0.606  0.0561  0.9898  0.3770
 3765TIP3    H132930   4.961   5.066   0.540  1.4023  2.0322 -1.2720
 3765TIP3    H232931   5.002   5.019   0.678 -0.9627 -1.0590 -1.5051
 3766TIP3   OH232932   2.806   6.604   1.845  0.2510 -0.5797 -0.1410
 3766TIP3    H132933   2.739   6.671   1.851  0.3462 -0.5654  1.4067
 3766TIP3    H232934   2.838   6.608   1.755  1.3714  2.5528  0.2746
 3767TIP3   OH232935   3.411   3.868   7.181  0.8427 -0.3031 -0.0893
 3767TIP3    H132936   3.451   3.921   7.251  2.0282 -2.1389  0.7081
 3767TIP3    H232937   3.450   3.902   7.100 -0.9648  2.2211  0.0001
 3768TIP3   OH232938   6.372   6.918   2.281  0.0355 -0.1177 -1.0495
 3768TIP3    H132939   6.428   6.841   2.282 -0.9750 -0.8828  0.2357
 3768TIP3    H232940   6.296   6.893   2.334 -0.9486  1.2971 -1.7263
 3769TIP3   OH232941   1.407   2.582   2.735  0.4548  0.5034 -0.1694
 3769TIP3    H132942   1.447   2.501   2.705  0.9634  0.5542  0.3617
 3769TIP3    H232943   1.457   2.607   2.812  0.6939  1.6377 -0.6698
 3770TIP3   OH232944   1.468   3.811   2.238  0.4569 -0.3876  0.2479
 3770TIP3    H132945   1.380   3.847   2.228  0.8899  0.4204 -0.7874
 3770TIP3    H232946   1.484   3.812   2.332 -0.5364 -0.2968  0.4241
 3771TIP3   OH232947   6.970   3.125   0.244 -0.4902 -0.4362 -0.2367
 3771TIP3    H132948   7.055   3.101   0.207 -0.3873  1.2142 -1.1339
 3771TIP3    H232949   6.910   3.058   0.211  0.0190 -0.2583 -1.6038
 3772TIP3   OH232950   4.706   3.136   8.063 -0.0782 -0.0291  0.1460
 3772TIP3    H132951   4.693   3.150   8.157  0.2165 -0.9765  0.3420
 3772TIP3    H232952   4.629   3.085   8.036 -0.8672  1.4143 -0.4320
 3773TIP3   OH232953   0.378   4.099   8.067  0.6613 -0.0329 -0.4166
 3773TIP3    H132954   0.468   4.108   8.098  0.8891  0.0640 -1.0802
 3773TIP3    H232955   0.377   4.146   7.983 -0.2890  0.8911  0.0952
 3774TIP3   OH232956   3.578   1.674   7.579 -0.0882 -0.0681  0.4306
 3774TIP3    H132957   3.651   1.617   7.554  1.1788  1.4399  0.5689
 3774TIP3    H232958   3.502   1.616   7.580  1.4120 -2.1437  2.2370
 3775TIP3   OH232959   1.604   6.057   7.842  0.1240 -0.0672 -0.3484
 3775TIP3    H132960   1.637   6.097   7.922 -1.2783  1.9166 -0.7030
 3775TIP3    H232961   1.675   6.068   7.779  0.9391 -0.9638  0.3646
 3776TIP3   OH232962   1.087   5.262   0.167 -0.4037  0.1779  0.3154
 3776TIP3    H132963   1.173   5.221   0.175 -1.1726 -1.3569  1.0553
 3776TIP3    H232964   1.057   5.239   0.079 -1.4559 -2.2132  1.2281
 3777TIP3   OH232965   2.083   2.589   1.576  0.1398  0.2331 -0.2049
 3777TIP3    H132966   2.083   2.508   1.627  0.7117  0.2909 -0.1080
 3777TIP3    H232967   2.104   2.561   1.487  1.4580  0.3968  0.0418
 3778TIP3   OH232968   0.086   4.028   7.387  0.2668  0.2171 -0.1207
 3778TIP3    H132969   0.127   3.978   7.458  0.4366  1.1939  0.4871
 3778TIP3    H232970   0.046   4.103   7.430 -1.1315 -0.0692 -0.8602
 3779TIP3   OH232971   5.512   5.750   1.422  0.3852  0.3346 -0.9506
 3779TIP3    H132972   5.548   5.837   1.437 -1.0172  0.9437 -0.9899
 3779TIP3    H232973   5.428   5.765   1.379 -0.3114 -0.9860 -0.1355
 3780TIP3   OH232974   0.352   4.347   7.825  0.0137 -0.3547 -0.3050
 3780TIP3    H132975   0.278   4.405   7.843  0.9396  0.9421 -0.5288
 3780TIP3    H232976   0.328   4.302   7.744 -0.9436 -0.6940  0.1496
 3781TIP3   OH232977   6.227   4.899   7.018  0.7133  0.2539  0.1491
 3781TIP3    H132978   6.270   4.980   7.044  0.3414  0.4731  0.0880
 3781TIP3    H232979   6.206   4.912   6.925  0.9361 -0.0357  0.0577
 3782TIP3   OH232980   5.452   2.251   0.404  0.1937  0.0836  1.0336
 3782TIP3    H132981   5.515   2.181   0.387 -1.2934 -1.2760  0.9427
 3782TIP3    H232982   5.433   2.287   0.317  0.4005  0.1171  1.0001
 3783TIP3   OH232983   5.244   6.824   2.309  0.2612 -0.2999  0.4650
 3783TIP3    H132984   5.274   6.909   2.340  0.1047 -0.0770  0.0211
 3783TIP3    H232985   5.285   6.814   2.223 -0.1710 -0.4167  0.2674
 3784TIP3   OH232986   4.514   6.486   0.918 -0.2077  0.1478  0.2129
 3784TIP3    H132987   4.575   6.418   0.890 -0.4583  0.2182 -0.5222
 3784TIP3    H232988   4.570   6.561   0.937  0.0297 -0.1264  0.6000
 3785TIP3   OH232989   5.933   4.284   7.497  0.1304 -0.2469  0.1957
 3785TIP3    H132990   5.927   4.379   7.484  1.3756 -0.3334 -1.2967
 3785TIP3    H232991   5.843   4.254   7.497 -0.2442  0.8310 -0.1796
 3786TIP3   OH232992   2.116   3.940   7.826  0.0452 -0.0261  0.7681
 3786TIP3    H132993   2.119   3.850   7.857  0.5602 -0.0297  0.7108
 3786TIP3    H232994   2.099   3.993   7.904  0.5158 -0.1061  0.9244
 3787TIP3   OH232995   5.667   1.227   7.255 -0.4857  0.5602 -0.7376
 3787TIP3    H132996   5.663   1.153   7.316 -0.5503  0.2696 -1.0863
 3787TIP3    H232997   5.639   1.189   7.171  0.9571  0.6226 -1.2624
 3788TIP3   OH232998   4.128   0.524   2.056  0.3396  0.5161  0.0394
 3788TIP3    H132999   4.045   0.479   2.077  1.0214 -0.1913  1.3705
 3788TIP3    H233000   4.182   0.511   2.134  1.8375  0.6805 -0.9334
 3789TIP3   OH233001   5.287   6.949   8.130  0.2164  0.4479  0.0701
 3789TIP3    H133002   5.265   6.872   8.182  2.7733 -1.2616 -1.1570
 3789TIP3    H233003   5.290   7.021   8.193 -2.7179 -0.2686  1.1714
 3790TIP3   OH233004   0.391   4.843   8.102 -0.3274  0.9899  0.3423
 3790TIP3    H133005   0.355   4.928   8.076 -0.1250  1.5294  1.7234
 3790TIP3    H233006   0.458   4.864   8.167 -0.7115 -0.2610  1.1760
 3791TIP3   OH233007   5.220   4.648   1.765  0.2338 -0.7017  0.2727
 3791TIP3    H133008   5.129   4.639   1.738  0.4081 -0.0212 -0.5808
 3791TIP3    H233009   5.236   4.742   1.764  0.2295 -0.5918  2.8877
 3792TIP3   OH233010   5.049   3.270   2.398 -0.4150 -0.0735  0.6208
 3792TIP3    H133011   4.966   3.276   2.445 -1.0900  1.1137 -0.6795
 3792TIP3    H233012   5.041   3.190   2.345  0.5419 -1.7015  2.7616
 3793TIP3   OH233013   2.082   4.666   0.462  0.0151 -0.0344 -0.0289
 3793TIP3    H133014   2.098   4.629   0.375 -2.2749 -1.8673  0.2223
 3793TIP3    H233015   2.059   4.757   0.445 -0.3885 -0.3562 -1.3718
 3794TIP3   OH233016   6.679   5.629   1.070  0.2323 -0.2202 -0.0938
 3794TIP3    H133017   6.612   5.695   1.090 -0.5340 -1.1179  0.3790
 3794TIP3    H233018   6.656   5.554   1.125  2.0428 -0.3114  0.6177
 3795TIP3   OH233019   1.475   6.722   0.268 -0.9705 -0.3638  0.4677
 3795TIP3    H133020   1.489   6.796   0.327  1.1968 -1.0369  0.8898
 3795TIP3    H233021   1.561   6.706   0.230 -1.8682 -1.3311 -1.2501
 3796TIP3   OH233022   0.199   3.099   0.831  0.6603  0.2872 -0.7282
 3796TIP3    H133023   0.136   3.031   0.856  0.0375  1.1500  0.1112
 3796TIP3    H233024   0.187   3.109   0.737  0.3157 -0.3295 -0.7544
 3797TIP3   OH233025   6.069   6.662   7.351  0.4684  0.0720 -0.7378
 3797TIP3    H133026   5.983   6.626   7.369 -0.0099  0.9683 -1.1936
 3797TIP3    H233027   6.126   6.622   7.418 -0.4856  0.2620  0.2117
 3798TIP3   OH233028   3.707   4.464   6.983  0.1425  0.0852  0.0586
 3798TIP3    H133029   3.677   4.540   7.033  0.7584  1.0048 -0.9257
 3798TIP3    H233030   3.793   4.443   7.020 -0.2488 -0.4603  0.6689
 3799TIP3   OH233031   4.236   5.526   1.950  0.0291  0.4923  0.1297
 3799TIP3    H133032   4.257   5.486   1.866  0.7361  0.2567  0.4158
 3799TIP3    H233033   4.221   5.453   2.009  1.6206  0.6135  0.7276
 3800TIP3   OH233034   0.404   1.706   1.681 -0.0603  0.1365  0.2018
 3800TIP3    H133035   0.332   1.769   1.681  0.1931  0.4294  0.4382
 3800TIP3    H233036   0.363   1.623   1.657 -0.6529  0.1035  1.2541
 3801TIP3   OH233037   6.317   6.347   7.676  0.0391 -0.0407 -0.1546
 3801TIP3    H133038   6.339   6.393   7.757 -0.4879  0.3348 -0.2182
 3801TIP3    H233039   6.365   6.265   7.681  1.5070  0.7793 -0.3210
 3802TIP3   OH233040   5.739   5.886   1.992  0.1526 -0.1818  0.1335
 3802TIP3    H133041   5.787   5.927   1.920 -0.6508 -0.2656 -0.4589
 3802TIP3    H233042   5.671   5.949   2.015  1.6539  0.7948  2.2484
 3803TIP3   OH233043   4.659   1.678   8.315  0.1690  0.2791 -0.4560
 3803TIP3    H133044   4.620   1.622   8.248  0.9555 -0.9333  0.0631
 3803TIP3    H233045   4.587   1.703   8.371 -0.0923 -0.8221 -0.2832
 3804TIP3   OH233046   0.947   3.854   7.440 -0.7835  0.1608  0.0600
 3804TIP3    H133047   1.013   3.923   7.435  0.2870 -0.8585 -0.2597
 3804TIP3    H233048   0.886   3.885   7.508  1.5844 -0.1490  2.4917
 3805TIP3   OH233049   0.444   6.249   0.182  0.3567 -0.4303 -0.0596
 3805TIP3    H133050   0.427   6.231   0.274 -0.8060 -1.6940 -0.4875
 3805TIP3    H233051   0.441   6.163   0.140 -3.6698  0.4319 -1.9791
 3806TIP3   OH233052   5.509   1.647   2.073 -0.0354 -0.5015 -0.0986
 3806TIP3    H133053   5.515   1.677   2.164 -0.4174  0.7801 -0.4716
 3806TIP3    H233054   5.599   1.626   2.049 -0.0356 -1.6119  0.8079
 3807TIP3   OH233055   5.710   2.433   2.083 -0.1026 -0.1584 -0.7011
 3807TIP3    H133056   5.786   2.376   2.070 -1.3312 -2.7318  2.0192
 3807TIP3    H233057   5.648   2.406   2.015  0.5125  0.2749 -1.4468
 3808TIP3   OH233058   1.140   4.324   0.423  0.0508 -0.1403  0.4074
 3808TIP3    H133059   1.216   4.382   0.420 -0.4112  0.4220 -0.8927
 3808TIP3    H233060   1.126   4.296   0.333 -0.1481 -1.7657  0.9045
 3809TIP3   OH233061   6.901   5.313   8.227  0.1453 -0.2100 -0.1759
 3809TIP3    H133062   6.924   5.231   8.269 -0.4681 -0.3666 -0.1412
 3809TIP3    H233063   6.851   5.361   8.293  0.9370  0.4175 -0.0100
 3810TIP3   OH233064   3.566   6.530   2.521  0.5587  0.6742 -0.2384
 3810TIP3    H133065   3.639   6.565   2.573  0.3699  1.3409 -0.4212
 3810TIP3    H233066   3.560   6.438   2.548  1.8919  0.4240 -0.6846
 3811TIP3   OH233067   1.160   2.319   0.312 -0.3152  0.0370  0.0158
 3811TIP3    H133068   1.096   2.276   0.255  1.4712 -2.2045 -0.4124
 3811TIP3    H233069   1.127   2.304   0.401 -0.7014 -0.5609 -0.2215
 3812TIP3   OH233070   4.011   2.867   1.397  0.3974  0.1228  0.0674
 3812TIP3    H133071   3.968   2.933   1.450 -3.7280 -0.2428 -2.3935
 3812TIP3    H233072   3.982   2.784   1.434  3.5884 -0.4667  1.6330
 3813TIP3   OH233073   4.702   3.574   7.259  0.5926  0.0524  0.0043
 3813TIP3    H133074   4.702   3.517   7.181  0.1265 -0.1980  0.1827
 3813TIP3    H233075   4.642   3.645   7.236 -0.9185 -0.9286  0.7716
 3814TIP3   OH233076   1.721   6.983   1.737 -0.0017  0.2548  0.6950
 3814TIP3    H133077   1.771   7.040   1.678  0.9795 -0.7812  0.5054
 3814TIP3    H233078   1.764   6.898   1.731 -2.5438 -1.0631 -0.4783
 3815TIP3   OH233079   4.296   3.855   2.882 -0.0706 -0.4005 -0.7692
 3815TIP3    H133080   4.299   3.939   2.929 -0.5567 -0.6088 -0.3627
 3815TIP3    H233081   4.205   3.827   2.888  0.5764 -2.2997  1.4642
 3816TIP3   OH233082   4.695   1.161   7.724 -0.1992  0.5759  0.6234
 3816TIP3    H133083   4.688   1.101   7.799 -1.4901  1.2838  1.0954
 3816TIP3    H233084   4.752   1.115   7.663 -0.0099 -0.5127  1.5735
 3817TIP3   OH233085   3.205   6.071   8.268  0.2968  0.4963  0.2737
 3817TIP3    H133086   3.139   6.129   8.303  0.4336  0.3690  0.7435
 3817TIP3    H233087   3.168   6.039   8.185 -0.4263  0.0599  0.7598
 3818TIP3   OH233088   0.014   3.766   1.890  0.1194 -0.4143  0.8672
 3818TIP3    H133089  -0.073   3.730   1.908 -1.5929  2.7718 -0.1533
 3818TIP3    H233090   0.005   3.859   1.907  2.6574  0.4193 -1.5364
 3819TIP3   OH233091   4.365   5.016   6.541  0.4374  0.5553 -0.2685
 3819TIP3    H133092   4.381   5.007   6.635  0.6805  0.7191 -0.2926
 3819TIP3    H233093   4.452   5.013   6.502  0.2779 -0.4374 -0.5688
 3820TIP3   OH233094   3.862   0.440   2.109  0.6779  0.1658 -0.2284
 3820TIP3    H133095   3.839   0.437   2.202 -0.0230 -0.8425 -0.4131
 3820TIP3    H233096   3.823   0.360   2.072  0.0655  1.0540 -1.5853
 3821TIP3   OH233097   3.463   2.844   0.068 -0.1353 -0.2248 -0.4493
 3821TIP3    H133098   3.442   2.830   0.160  0.7974 -0.6651 -0.2871
 3821TIP3    H233099   3.385   2.887   0.031 -0.8055 -0.7107  0.3682
 3822TIP3   OH233100   0.969   5.084   0.532 -0.0308  0.1903 -0.0682
 3822TIP3    H133101   0.917   5.148   0.484  0.1718  1.6798  1.6253
 3822TIP3    H233102   0.905   5.025   0.572 -0.2736  0.2016 -0.4324
 3823TIP3   OH233103   1.216   0.569   7.416  0.0623 -0.4005 -0.1456
 3823TIP3    H133104   1.239   0.592   7.506  1.7378 -1.9356 -0.1204
 3823TIP3    H233105   1.125   0.596   7.407 -0.0245  0.1709  1.8639
 3824TIP3   OH233106   6.141   6.886   7.206 -0.1960 -0.3115  0.2511
 3824TIP3    H133107   6.112   6.821   7.270  1.8096 -0.7535  0.7830
 3824TIP3    H233108   6.202   6.838   7.150 -1.3753  0.2550 -1.5907
 3825TIP3   OH233109   3.218   1.100   7.832  0.1405  0.3606  0.2816
 3825TIP3    H133110   3.251   1.018   7.797 -1.2440 -0.9238  1.8098
 3825TIP3    H233111   3.147   1.074   7.891  0.0782  2.6139  1.3054
 3826TIP3   OH233112   3.518   4.998   0.297 -0.1185 -0.5773  0.0891
 3826TIP3    H133113   3.449   5.007   0.363  0.4002  1.4980  0.4046
 3826TIP3    H233114   3.585   4.944   0.339 -0.5716 -0.7530  0.5918
 3827TIP3   OH233115   2.039   3.026   0.452  0.2121 -0.6617 -0.4194
 3827TIP3    H133116   2.002   3.111   0.475  3.4679  0.5910  0.8572
 3827TIP3    H233117   2.008   3.010   0.363 -2.9057  0.3303  0.3543
 3828TIP3   OH233118   6.970   3.401   0.226  0.1976 -0.3780  0.0703
 3828TIP3    H133119   6.905   3.457   0.185  1.4562  0.3105 -1.0768
 3828TIP3    H233120   6.945   3.312   0.203 -0.5403 -0.1482 -0.0287
 3829TIP3   OH233121   3.497   0.538   1.400  0.3774  0.4230  0.4813
 3829TIP3    H133122   3.513   0.480   1.474  1.7843  0.8516  0.5411
 3829TIP3    H233123   3.442   0.608   1.436  1.7699  1.1034  1.3819
 3830TIP3   OH233124   5.506   2.467   1.580  0.2033  0.0821  0.0011
 3830TIP3    H133125   5.488   2.527   1.653 -1.9855 -0.4748  0.0030
 3830TIP3    H233126   5.475   2.514   1.502 -0.5469 -0.6013 -0.1248
 3831TIP3   OH233127   4.885   5.392   0.927  0.4948 -0.2847 -0.3085
 3831TIP3    H133128   4.894   5.297   0.937  2.2468 -0.0861  0.2704
 3831TIP3    H233129   4.800   5.412   0.968 -0.0119 -1.6125 -0.6583
 3832TIP3   OH233130   1.944   5.518   1.776  0.4004  0.3964 -0.0076
 3832TIP3    H133131   2.019   5.470   1.741 -0.8565 -0.3964 -1.7699
 3832TIP3    H233132   1.889   5.535   1.700 -1.1804  1.0075  1.2185
 3833TIP3   OH233133   4.244   5.725   2.141  0.2171  1.0831 -0.1882
 3833TIP3    H133134   4.272   5.652   2.086  0.2526  1.9622 -1.3682
 3833TIP3    H233135   4.158   5.699   2.174  0.6640  0.0819  0.2481
 3834TIP3   OH233136   2.567   3.667   8.022 -0.4444 -0.4207  0.1438
 3834TIP3    H133137   2.614   3.598   8.068  0.1032 -1.2658 -1.5700
 3834TIP3    H233138   2.537   3.727   8.090  3.6088  0.5176  1.3733
 3835TIP3   OH233139   5.646   3.347   0.082  0.0970  0.1738 -0.5436
 3835TIP3    H133140   5.638   3.405   0.006  0.3250 -0.3082 -0.9433
 3835TIP3    H233141   5.587   3.384   0.147 -1.3336 -0.2795 -1.5189
 3836TIP3   OH233142   4.627   5.080   7.024  0.6301  0.5557 -0.6122
 3836TIP3    H133143   4.543   5.088   6.979  0.0894 -0.5412  0.1547
 3836TIP3    H233144   4.662   5.169   7.024 -0.5947  1.0631 -0.8203
 3837TIP3   OH233145   6.374   5.223   0.583 -0.4789  0.0439 -0.0940
 3837TIP3    H133146   6.425   5.303   0.592 -0.2248 -0.0811 -0.3923
 3837TIP3    H233147   6.376   5.183   0.670 -0.7723  0.4574  0.1036
 3838TIP3   OH233148   6.305   5.069   2.945 -0.2297 -0.6008 -0.1008
 3838TIP3    H133149   6.277   5.160   2.945 -1.0598 -0.8238  1.3880
 3838TIP3    H233150   6.224   5.019   2.938  0.2072 -1.2360 -0.7852
 3839TIP3   OH233151   6.516   6.717   0.808 -0.2951  0.2360 -0.2072
 3839TIP3    H133152   6.505   6.736   0.901  1.4544  1.2245 -0.1615
 3839TIP3    H233153   6.448   6.653   0.789 -0.4513 -0.2899  1.8458
 3840TIP3   OH233154   6.795   0.726   0.510  0.3400 -0.0640  0.1242
 3840TIP3    H133155   6.871   0.701   0.457  2.1182  0.9135  2.0364
 3840TIP3    H233156   6.767   0.810   0.473  0.3492 -0.3077 -0.4405
 3841TIP3   OH233157   6.672   1.905   2.375  0.0535 -0.4642  0.2999
 3841TIP3    H133158   6.681   2.001   2.378 -0.8505 -0.4045  2.3839
 3841TIP3    H233159   6.761   1.873   2.391  0.1977  0.0210  0.4991
 3842TIP3   OH233160   1.075   4.828   7.644 -0.0246  0.4319 -0.0702
 3842TIP3    H133161   1.011   4.773   7.690  1.6820 -1.5987  0.0292
 3842TIP3    H233162   1.159   4.805   7.683  1.0462  1.3192 -1.7359
 3843TIP3   OH233163   0.870   5.477   8.160 -0.3592  0.1897 -0.0552
 3843TIP3    H133164   0.832   5.421   8.093  2.8617 -0.5642 -1.4843
 3843TIP3    H233165   0.863   5.566   8.125  0.9337 -0.1587 -1.2845
 3844TIP3   OH233166   1.204   0.079   7.430  0.1183 -0.0687 -0.8012
 3844TIP3    H133167   1.197   0.172   7.410  0.6890 -0.3710 -2.6016
 3844TIP3    H233168   1.266   0.045   7.365  0.8235 -1.4923  0.5490
 3845TIP3   OH233169   6.228   3.780   1.661  0.1040  0.1123  0.1997
 3845TIP3    H133170   6.295   3.761   1.727 -0.3570  0.3264  0.7347
 3845TIP3    H233171   6.158   3.717   1.678 -0.1547  0.3768  0.1203
 3846TIP3   OH233172   1.517   4.408   7.432 -0.6757 -0.2813  0.1042
 3846TIP3    H133173   1.571   4.463   7.488  0.3987 -1.3540  0.1566
 3846TIP3    H233174   1.474   4.470   7.372  0.5656  0.6086  0.1019
 3847TIP3   OH233175   3.810   1.949   0.355  0.2398 -0.0841 -0.4125
 3847TIP3    H133176   3.756   2.015   0.398 -0.1729 -0.0668 -0.9404
 3847TIP3    H233177   3.893   1.952   0.402  1.1540  2.5905 -1.9480
 3848TIP3   OH233178   1.510   2.218   8.107 -0.3516  0.1661 -0.3939
 3848TIP3    H133179   1.443   2.159   8.073  0.2700 -0.2266 -0.9686
 3848TIP3    H233180   1.469   2.304   8.105 -1.1913 -0.2044  0.2260
 3849TIP3   OH233181   1.813   4.003   8.170  0.7612  0.2754 -0.0270
 3849TIP3    H133182   1.867   3.979   8.246 -0.6531  2.2649  1.7368
 3849TIP3    H233183   1.762   3.924   8.151  1.4046 -0.3758  0.8362
 3850TIP3   OH233184   2.967   3.260   7.006  0.0310 -0.7131  0.2252
 3850TIP3    H133185   2.876   3.263   6.975 -0.6505 -1.9925  1.9763
 3850TIP3    H233186   3.019   3.275   6.927 -1.6833 -0.6616 -0.9511
 3851TIP3   OH233187   6.357   0.758   7.661  0.1331  0.3938  0.4058
 3851TIP3    H133188   6.268   0.775   7.692  0.2010 -0.5453  1.1283
 3851TIP3    H233189   6.358   0.666   7.636  1.1083  0.1844  1.1405
 3852TIP3   OH233190   4.036   1.199   1.009 -0.6921 -0.2207  0.1595
 3852TIP3    H133191   3.966   1.173   1.068 -1.7591  2.0450 -0.0138
 3852TIP3    H233192   3.992   1.232   0.931  0.6610 -1.5766 -1.2677
 3853TIP3   OH233193   5.628   0.665   1.903 -0.2183  0.1195  0.3845
 3853TIP3    H133194   5.655   0.585   1.947 -2.4999 -0.9626 -0.0480
 3853TIP3    H233195   5.621   0.640   1.810  0.1655  1.1485  0.0604
 3854TIP3   OH233196   4.980   0.577   7.590  0.1670  0.3956  0.2544
 3854TIP3    H133197   4.929   0.539   7.518 -0.3035  0.1804  0.7018
 3854TIP3    H233198   5.009   0.662   7.556 -0.1357  0.3377 -0.1555
 3855TIP3   OH233199   2.638   1.971   1.731  0.2403  0.0952  0.3342
 3855TIP3    H133200   2.579   2.046   1.730  1.4229  1.0979  1.7302
 3855TIP3    H233201   2.706   1.995   1.793  0.3969 -2.3389  1.2038
 3856TIP3   OH233202   1.269   0.034   0.230 -0.2213  0.3651  0.4311
 3856TIP3    H133203   1.361   0.010   0.243  0.0270  0.8616 -0.3665
 3856TIP3    H233204   1.222  -0.018   0.296  0.4446 -1.1240 -0.2172
 3857TIP3   OH233205   5.386   2.335   7.389  0.2647  0.1588  0.6464
 3857TIP3    H133206   5.325   2.363   7.458 -0.3041 -2.1506  1.1482
 3857TIP3    H233207   5.460   2.298   7.437 -0.7775 -2.8307  0.1109
 3858TIP3   OH233208   5.215   1.913   8.291  0.5995  0.2134 -0.3200
 3858TIP3    H133209   5.295   1.921   8.343 -0.9012  1.0127  1.9964
 3858TIP3    H233210   5.160   1.852   8.340 -1.5420  2.2934  0.0329
 3859TIP3   OH233211   5.326   4.613   0.274  0.0484 -0.0267 -0.0948
 3859TIP3    H133212   5.342   4.639   0.184 -0.5724 -1.1634 -0.5519
 3859TIP3    H233213   5.409   4.573   0.303  0.0244 -0.2935 -0.3950
 3860TIP3   OH233214   1.304   4.295   0.113  0.8564  0.0523 -0.2276
 3860TIP3    H133215   1.344   4.238   0.180  1.9084  0.1434 -0.7538
 3860TIP3    H233216   1.297   4.240   0.036 -1.0703 -0.2817  0.1331
 3861TIP3   OH233217   6.596   5.176   8.254 -0.1150 -0.6328  0.1474
 3861TIP3    H133218   6.571   5.190   8.345  0.9208  1.3705  0.1637
 3861TIP3    H233219   6.649   5.096   8.256 -0.7278 -1.0280  1.1605
 3862TIP3   OH233220   6.832   3.522   8.203 -0.1252  0.5656 -0.0150
 3862TIP3    H133221   6.839   3.603   8.152 -1.6234  0.9224  0.2944
 3862TIP3    H233222   6.738   3.513   8.221  0.2472 -0.0517  1.8693
 3863TIP3   OH233223   5.039   6.503   7.175  0.3157 -0.1432  0.4120
 3863TIP3    H133224   5.050   6.565   7.247 -0.9181 -0.7420  1.1494
 3863TIP3    H233225   4.982   6.548   7.112 -0.2834 -0.3771  0.7788
 3864TIP3   OH233226   5.869   1.784   7.053 -0.0492 -0.2012  0.1972
 3864TIP3    H133227   5.870   1.875   7.082 -0.3004  0.1070 -0.7182
 3864TIP3    H233228   5.922   1.784   6.973  2.1129 -1.3483  1.5148
 3865TIP3   OH233229   4.174   2.163   0.241 -0.1912 -0.5186  0.2727
 3865TIP3    H133230   4.084   2.135   0.224 -1.1174  1.0884  2.0676
 3865TIP3    H233231   4.218   2.084   0.271 -1.5102 -1.0039  1.0204
 3866TIP3   OH233232   6.269   5.657   0.157  0.1053 -0.1392  0.1140
 3866TIP3    H133233   6.238   5.739   0.118  1.8898  0.5498  0.0790
 3866TIP3    H233234   6.249   5.590   0.092 -1.9014  0.1204  0.3816
 3867TIP3   OH233235   6.984   1.820   0.453  0.7450 -0.4392 -0.0167
 3867TIP3    H133236   6.957   1.752   0.515  0.3957 -0.7213 -0.4668
 3867TIP3    H233237   7.051   1.778   0.399  1.6540  0.0661  0.6959
 3868TIP3   OH233238   3.608   6.728   0.771 -0.1324 -0.4421 -0.1080
 3868TIP3    H133239   3.697   6.747   0.799 -0.1355 -0.3870 -0.1351
 3868TIP3    H233240   3.616   6.706   0.678 -0.1294 -0.5680 -0.0782
 3869TIP3   OH233241   0.179   0.394   8.403 -0.3562  0.1500  0.7684
 3869TIP3    H133242   0.227   0.476   8.389 -0.0723  0.0844  1.3396
 3869TIP3    H233243   0.095   0.421   8.440 -0.6153  0.2380  0.1313
 3870TIP3   OH233244   0.017   3.817   0.844 -0.2922 -0.3024  0.4778
 3870TIP3    H133245   0.006   3.800   0.938 -0.4380  0.4485  0.6079
 3870TIP3    H233246   0.020   3.731   0.804 -0.2901 -0.6330  1.1711
 3871TIP3   OH233247   3.092   5.406   7.367 -0.1498  0.1297 -0.3713
 3871TIP3    H133248   3.111   5.486   7.317  0.2779  1.2368  1.4363
 3871TIP3    H233249   3.176   5.383   7.407  0.0342 -2.0153 -1.8468
 3872TIP3   OH233250   4.105   6.827   1.759  0.7020 -0.2075 -0.4514
 3872TIP3    H133251   4.117   6.732   1.765  1.5344 -0.0609  0.3916
 3872TIP3    H233252   4.193   6.863   1.772  0.6493  0.6443 -2.1357
 3873TIP3   OH233253   4.092   0.148   2.812  0.3384 -0.4518 -0.2919
 3873TIP3    H133254   4.139   0.065   2.804  0.5584 -0.2754 -0.7978
 3873TIP3    H233255   4.143   0.198   2.876  0.3092 -0.6282 -0.1271
 3874TIP3   OH233256   0.774   2.628   1.871 -0.3010  0.6950 -0.0414
 3874TIP3    H133257   0.770   2.716   1.833 -0.6856  1.6563  2.0904
 3874TIP3    H233258   0.684   2.596   1.863 -0.3834  0.8968  0.0528
 3875TIP3   OH233259   1.464   5.298   7.379  0.3976  0.5049 -0.0579
 3875TIP3    H133260   1.516   5.231   7.423  1.2763  0.2168 -1.4777
 3875TIP3    H233261   1.414   5.340   7.450  2.1171  0.4143  1.2735
 3876TIP3   OH233262   1.655   2.945   2.386  0.7851  0.2845  0.4856
 3876TIP3    H133263   1.647   3.024   2.334  3.3452  0.4949  0.3024
 3876TIP3    H233264   1.623   2.875   2.329  0.2708  0.9347 -0.0342
 3877TIP3   OH233265   4.248   6.268   8.128  0.9174  0.7253 -0.2540
 3877TIP3    H133266   4.301   6.203   8.082  0.7303  0.6958 -0.4290
 3877TIP3    H233267   4.194   6.216   8.188  0.3393  0.6646 -0.8163
 3878TIP3   OH233268   3.530   2.436   1.854 -0.6114  0.1913  0.1973
 3878TIP3    H133269   3.545   2.516   1.903  0.3641  0.4012 -0.4325
 3878TIP3    H233270   3.608   2.424   1.801 -0.7390 -1.1743  0.2662
 3879TIP3   OH233271   5.933   0.248   0.589 -0.3807 -0.3938  0.2922
 3879TIP3    H133272   5.979   0.301   0.654  0.2665  0.5231 -0.8752
 3879TIP3    H233273   5.843   0.282   0.590 -0.4512 -0.5742  0.8764
 3880TIP3   OH233274   5.303   4.899   2.563 -0.3084  0.1781  0.2017
 3880TIP3    H133275   5.336   4.887   2.652 -0.4797 -1.0805  0.1205
 3880TIP3    H233276   5.208   4.898   2.573 -0.3303  1.3000  0.1468
 3881TIP3   OH233277   3.794   1.967   2.185 -0.0188 -0.0751  0.0564
 3881TIP3    H133278   3.788   1.917   2.104 -0.5521 -0.3493  0.2616
 3881TIP3    H233279   3.872   1.933   2.228  0.1340 -0.0917 -0.2324
 3882TIP3   OH233280   1.483   3.576   0.644  0.1379 -0.0030  0.1741
 3882TIP3    H133281   1.395   3.542   0.663 -0.0316  0.3142 -0.0280
 3882TIP3    H233282   1.470   3.670   0.632  0.2075 -0.1863 -1.5784
 3883TIP3   OH233283   2.891   6.271   2.165 -0.6819 -0.0186 -0.3797
 3883TIP3    H133284   2.942   6.191   2.147 -0.1910 -0.0393  1.0004
 3883TIP3    H233285   2.801   6.240   2.176 -0.5240 -0.3634 -0.0392
 3884TIP3   OH233286   2.135   0.710   0.718 -0.3753 -0.2071 -0.0574
 3884TIP3    H133287   2.106   0.633   0.767  0.3475 -1.3855 -1.3748
 3884TIP3    H233288   2.230   0.712   0.731 -0.4269  0.6819  0.2473
 3885TIP3   OH233289   0.899   3.453   7.692 -0.3796 -0.2092  0.1551
 3885TIP3    H133290   0.823   3.397   7.708  0.3454 -1.3565 -0.3012
 3885TIP3    H233291   0.868   3.518   7.629 -0.6293 -1.5447 -1.1611
 3886TIP3   OH233292   2.773   2.776   1.279  0.1581  0.0353 -0.1980
 3886TIP3    H133293   2.863   2.770   1.248  0.2891  2.1492 -0.4344
 3886TIP3    H233294   2.744   2.862   1.249 -2.3421 -1.0383 -1.0907
 3887TIP3   OH233295   6.092   6.776   8.206  0.0858  0.0396  0.1250
 3887TIP3    H133296   6.081   6.739   8.119  0.1275 -0.0806  0.1698
 3887TIP3    H233297   6.095   6.871   8.192  0.3782  0.0070 -0.0363
 3888TIP3   OH233298   0.268   5.798   7.327 -0.2858  0.2368  0.5912
 3888TIP3    H133299   0.297   5.706   7.325  0.4316  0.4668 -0.8114
 3888TIP3    H233300   0.349   5.848   7.337 -0.7122  0.7330  1.8119
 3889TIP3   OH233301   1.760   5.381   0.546 -0.0767  0.1905 -0.3792
 3889TIP3    H133302   1.694   5.409   0.483  0.0536  1.6892  0.1200
 3889TIP3    H233303   1.843   5.410   0.509  0.3175 -1.4560 -0.8776
 3890TIP3   OH233304   5.621   0.519   8.373  1.0253 -0.5003 -0.3815
 3890TIP3    H133305   5.707   0.558   8.384  0.0820  1.1968  1.7741
 3890TIP3    H233306   5.584   0.515   8.462 -0.5636 -2.5770 -1.0258
 3891TIP3   OH233307   5.791   6.863   8.273  0.8027  0.5457 -0.6114
 3891TIP3    H133308   5.800   6.947   8.319  1.3842 -0.6313  1.5779
 3891TIP3    H233309   5.808   6.884   8.181 -1.4921  3.2373 -0.5584
 3892TIP3   OH233310   3.012   3.425   7.833  0.3379 -0.1716  0.0150
 3892TIP3    H133311   2.930   3.474   7.825  0.9545  1.0709  0.9665
 3892TIP3    H233312   3.062   3.450   7.755  1.1976  1.9025  1.1181
 3893TIP3   OH233313   3.658   3.713   1.239 -0.4429 -0.3220 -0.4432
 3893TIP3    H133314   3.752   3.720   1.225 -0.2106  2.2672  1.5934
 3893TIP3    H233315   3.622   3.792   1.197 -1.3676 -0.0312  0.8427
 3894TIP3   OH233316   0.385   0.203   7.114  0.1331  0.0457  0.2668
 3894TIP3    H133317   0.335   0.264   7.060  1.5184 -0.6106 -1.8501
 3894TIP3    H233318   0.474   0.238   7.113  0.0883  0.4217  2.8016
 3895TIP3   OH233319   6.097   0.076   2.356 -0.2073  0.1551 -0.3845
 3895TIP3    H133320   6.068   0.006   2.414  1.7769  0.1160  0.6459
 3895TIP3    H233321   6.110   0.152   2.413  0.5633  0.4801 -0.9593
 3896TIP3   OH233322   3.235   2.122   0.948  0.1141  0.2044  0.0383
 3896TIP3    H133323   3.295   2.163   1.009  0.8780 -1.0653  0.1850
 3896TIP3    H233324   3.219   2.035   0.985 -2.5250  0.7855  0.4663
 3897TIP3   OH233325   1.938   6.115   2.988 -0.1850  0.2404 -0.0189
 3897TIP3    H133326   1.926   6.094   2.895 -0.4569 -0.5977  0.1933
 3897TIP3    H233327   1.928   6.031   3.033  2.5122  0.1489  0.5807
 3898TIP3   OH233328   4.688   5.424   7.472 -0.2440  0.2223  0.3165
 3898TIP3    H133329   4.594   5.411   7.459 -0.5306  1.7946  0.6075
 3898TIP3    H233330   4.727   5.396   7.389 -0.9738 -0.3562  0.1553
 3899TIP3   OH233331   4.801   1.346   0.391 -0.0173  0.4292 -0.2907
 3899TIP3    H133332   4.785   1.322   0.482 -1.4367  0.4786 -0.5086
 3899TIP3    H233333   4.852   1.427   0.396 -0.5946  0.7567  0.4733
 3900TIP3   OH233334   0.303   6.433   2.619 -0.1195 -0.0828 -0.2778
 3900TIP3    H133335   0.278   6.525   2.614  0.1691 -0.0089 -0.4032
 3900TIP3    H233336   0.308   6.414   2.713 -2.4183 -0.5984 -0.1935
 3901TIP3   OH233337   6.562   3.272   7.913  0.2345 -0.0363 -0.1010
 3901TIP3    H133338   6.533   3.356   7.877 -1.4847  0.0879  1.3873
 3901TIP3    H233339   6.653   3.286   7.936 -0.1756  1.6759  0.6817
 3902TIP3   OH233340   3.818   1.556   1.070 -0.1609 -0.5103  0.0397
 3902TIP3    H133341   3.841   1.593   1.155 -0.2406  1.2630 -0.6534
 3902TIP3    H233342   3.901   1.529   1.032  0.0818  0.2421  0.0193
 3903TIP3   OH233343   2.255   5.258   3.579 -0.4659 -0.2306  0.2837
 3903TIP3    H133344   2.301   5.310   3.515 -1.3887 -0.6453 -0.7493
 3903TIP3    H233345   2.164   5.257   3.549 -0.4638 -2.5208  0.1823
 3904TIP3   OH233346   1.421   1.927   0.282  0.3322 -0.5640 -0.3597
 3904TIP3    H133347   1.389   1.994   0.221  0.4967 -0.0890  0.0736
 3904TIP3    H233348   1.485   1.972   0.336  0.1221 -0.9623  0.2306
 3905TIP3   OH233349   3.540   1.806   0.237 -0.1064  0.5709  0.6047
 3905TIP3    H133350   3.614   1.749   0.216 -1.5339 -0.4208 -2.1963
 3905TIP3    H233351   3.562   1.843   0.322  3.2099 -0.3008  0.2633
 3906TIP3   OH233352   2.706   3.283   2.745 -0.5411  0.2993  0.3999
 3906TIP3    H133353   2.666   3.324   2.821 -0.5534  1.3365 -0.1412
 3906TIP3    H233354   2.725   3.356   2.686 -0.3084 -0.4567 -0.4866
 3907TIP3   OH233355   4.772   2.939   2.038 -0.1652 -0.7936 -0.8212
 3907TIP3    H133356   4.724   2.900   1.965 -3.1365  0.3907  0.3457
 3907TIP3    H233357   4.769   2.873   2.108 -1.2442 -0.2548 -0.3385
 3908TIP3   OH233358   1.689   3.399   7.291  0.2791  0.0918  0.1084
 3908TIP3    H133359   1.724   3.354   7.215  0.1759  0.5821 -0.2349
 3908TIP3    H233360   1.730   3.355   7.366 -1.4035 -1.9571 -0.0993
 3909TIP3   OH233361   3.509   6.926   0.083  0.1540 -0.6030  0.2702
 3909TIP3    H133362   3.574   6.965   0.141  0.2034  0.4723 -0.4824
 3909TIP3    H233363   3.427   6.970   0.105  0.1651 -0.2150 -0.4406
 3910TIP3   OH233364   3.007   5.080   0.105  0.6217  0.8570  0.7905
 3910TIP3    H133365   3.098   5.059   0.085  1.3278  3.0351  1.3852
 3910TIP3    H233366   2.972   5.114   0.023  0.8992  1.6841  1.0075
 3911TIP3   OH233367   1.244   5.073   7.547 -0.5378  0.3240  0.0633
 3911TIP3    H133368   1.267   5.162   7.518  1.1236 -0.3971 -1.0207
 3911TIP3    H233369   1.184   5.086   7.620 -0.7026  2.3326 -0.3730
 3912TIP3   OH233370   4.932   6.230   7.137  0.1701 -0.6316 -0.2403
 3912TIP3    H133371   5.003   6.187   7.090  2.1083  1.1703  0.8698
 3912TIP3    H233372   4.964   6.318   7.155 -1.3408 -0.5280  2.4974
 3913TIP3   OH233373   2.196   1.134   0.551 -0.3866 -0.1632 -0.1221
 3913TIP3    H133374   2.263   1.180   0.501 -0.7123 -0.3204 -0.7166
 3913TIP3    H233375   2.233   1.047   0.566 -0.0441  0.0709  0.4326
 3914TIP3   OH233376   3.792   5.967   7.755 -0.1469  0.3625  0.1733
 3914TIP3    H133377   3.775   6.062   7.756 -0.2186  0.3787 -0.9115
 3914TIP3    H233378   3.758   5.936   7.838 -1.4363  1.0931 -0.0409
 3915TIP3   OH233379   0.906   6.764   2.759 -0.3860 -0.0839  0.1286
 3915TIP3    H133380   0.817   6.792   2.737 -1.0830 -0.2087  2.5281
 3915TIP3    H233381   0.895   6.674   2.790  0.2749  0.4522  2.0504
 3916TIP3   OH233382   4.393   0.431   7.341  0.1812 -0.5426 -0.8839
 3916TIP3    H133383   4.436   0.507   7.381 -1.4185  1.0802 -2.0659
 3916TIP3    H233384   4.330   0.401   7.406 -2.6111  2.2558 -2.0605
 3917TIP3   OH233385   4.909   1.687   7.723  0.4050  0.2568 -0.0333
 3917TIP3    H133386   4.904   1.597   7.689  1.2452  0.3754 -0.5083
 3917TIP3    H233387   4.949   1.677   7.809  0.1536  0.1408  0.0709
 3918TIP3   OH233388   1.011   4.234   0.068 -0.0263 -0.3105  0.0200
 3918TIP3    H133389   0.966   4.150   0.072 -2.3071  0.8725  1.6714
 3918TIP3    H233390   1.098   4.217   0.104  0.2680 -2.3179 -1.5183
 3919TIP3   OH233391   1.685   2.915   7.546 -0.3007  0.2937  0.3157
 3919TIP3    H133392   1.698   2.833   7.594 -1.9056  0.1250  0.5190
 3919TIP3    H233393   1.672   2.981   7.613  0.9487  0.7274  0.1498
 3920TIP3   OH233394   5.736   1.766   1.892  0.3340  0.7060 -0.4270
 3920TIP3    H133395   5.785   1.698   1.939  0.6250  0.1275 -1.5294
 3920TIP3    H233396   5.799   1.800   1.829 -0.7200 -0.2281 -2.0467
 3921TIP3   OH233397   4.864   4.786   7.908  0.5142 -0.1315  0.1588
 3921TIP3    H133398   4.893   4.851   7.844 -1.6113  0.7430  0.0069
 3921TIP3    H233399   4.819   4.719   7.856  1.7794 -1.2200  0.4221
 3922TIP3   OH233400   2.538   3.254   1.345  0.0909 -0.0286 -0.5450
 3922TIP3    H133401   2.480   3.287   1.277  0.7026  0.0106 -1.0529
 3922TIP3    H233402   2.481   3.243   1.421  0.0291  3.3748  0.0835
 3923TIP3   OH233403   3.058   0.440   8.205 -0.4051  0.1678 -0.3356
 3923TIP3    H133404   3.026   0.371   8.147 -0.1192 -0.9596  0.7845
 3923TIP3    H233405   3.147   0.458   8.175 -0.6441  0.4097 -0.9250
 3924TIP3   OH233406   5.300   5.274   1.529  0.1766  0.0037 -0.6450
 3924TIP3    H133407   5.328   5.331   1.457  1.4363  0.7291  0.3918
 3924TIP3    H233408   5.380   5.254   1.576 -0.7866  0.6014  1.3451
 3925TIP3   OH233409   6.475   2.047   7.867  0.2838 -0.2043  0.3119
 3925TIP3    H133410   6.563   2.071   7.835 -0.4400  1.1278 -0.8080
 3925TIP3    H233411   6.464   2.099   7.946 -0.1594  1.0554 -0.5405
 3926TIP3   OH233412   5.499   6.989   2.491 -0.1581 -0.4466 -0.3756
 3926TIP3    H133413   5.551   6.916   2.457 -2.2096 -1.8213 -0.7127
 3926TIP3    H233414   5.543   7.012   2.573  1.2367 -1.2388 -0.8576
 3927TIP3   OH233415   2.029   5.728   0.423 -0.1101  0.3529 -0.3370
 3927TIP3    H133416   2.086   5.669   0.473 -1.1009  0.5128  1.0491
 3927TIP3    H233417   2.005   5.678   0.345  1.2737 -0.0049 -0.5628
 3928TIP3   OH233418   6.892   3.203   1.250 -0.1874 -0.5574  0.2381
 3928TIP3    H133419   6.849   3.141   1.309  0.8591 -2.8702 -1.3069
 3928TIP3    H233420   6.986   3.186   1.260  0.1060  0.3758 -0.6678
 3929TIP3   OH233421   0.671   5.499   0.584  0.1120  0.4893 -0.1237
 3929TIP3    H133422   0.631   5.413   0.578 -0.9473  1.0640 -2.2279
 3929TIP3    H233423   0.759   5.483   0.619 -1.3487 -0.9491  3.3867
 3930TIP3   OH233424   5.250   4.063   0.756  0.2422 -0.9406 -0.4399
 3930TIP3    H133425   5.224   4.043   0.845  1.5436 -1.4420 -0.1496
 3930TIP3    H233426   5.332   4.015   0.743  1.0149  0.5105 -1.2904
 3931TIP3   OH233427   4.494   5.965   3.068 -0.4820 -0.2218  0.0316
 3931TIP3    H133428   4.453   5.898   3.013 -1.6345  1.2192 -0.9605
 3931TIP3    H233429   4.575   5.925   3.099 -0.7722 -1.7947 -1.1329
 3932TIP3   OH233430   4.833   5.471   6.473 -0.0405  0.1555 -0.2196
 3932TIP3    H133431   4.808   5.427   6.555 -0.7138 -0.3609 -0.6852
 3932TIP3    H233432   4.775   5.432   6.407  1.4757 -0.5166 -1.2183
 3933TIP3   OH233433   4.736   2.862   0.237 -0.1911  0.2666  0.0456
 3933TIP3    H133434   4.698   2.794   0.182  2.1980 -2.4803  1.5668
 3933TIP3    H233435   4.686   2.858   0.319  0.0117  0.3234  0.1717
 3934TIP3   OH233436   4.720   1.987   2.399  0.1593 -0.2158 -0.1404
 3934TIP3    H133437   4.726   1.896   2.430  0.5488  0.3062  1.4006
 3934TIP3    H233438   4.778   2.036   2.457  1.3997  0.7599 -2.1210
 3935TIP3   OH233439   2.517   3.991   2.479 -0.4583 -0.1783 -0.0916
 3935TIP3    H133440   2.573   4.039   2.540 -2.0443  0.0363  1.2382
 3935TIP3    H233441   2.444   3.959   2.532 -3.7821  2.8987 -2.3039
 3936TIP3   OH233442   2.147   5.850   6.833  0.0673  0.1028 -0.2800
 3936TIP3    H133443   2.065   5.805   6.854  0.1729 -0.1509 -0.4050
 3936TIP3    H233444   2.120   5.939   6.809  0.1057  1.0528  2.8268
 3937TIP3   OH233445   3.941   3.737   1.211 -0.1407 -0.0291 -0.4663
 3937TIP3    H133446   4.035   3.750   1.202  0.1939  0.4796  2.6170
 3937TIP3    H233447   3.909   3.819   1.248 -1.5686 -0.6761 -0.1998
 3938TIP3   OH233448   0.044   1.193   6.714 -0.0476  0.6763 -0.1820
 3938TIP3    H133449   0.016   1.173   6.625 -1.6015 -1.0345  0.6255
 3938TIP3    H233450  -0.038   1.206   6.762  0.6004 -1.2285  1.5664
 3939TIP3   OH233451   4.498   3.017   1.958 -0.0772  0.7851  0.2266
 3939TIP3    H133452   4.489   3.074   1.883 -0.8879 -1.8250 -1.8194
 3939TIP3    H233453   4.532   2.935   1.923 -0.2413 -0.4865  2.7380
 3940TIP3   OH233454   0.686   5.181   0.321 -0.3882  0.3546  0.2416
 3940TIP3    H133455   0.642   5.204   0.403 -0.9191 -0.1701  0.1089
 3940TIP3    H233456   0.763   5.237   0.319 -0.7311  0.8574  0.7707
 3941TIP3   OH233457   5.140   0.957   2.466 -0.0304  0.1756 -0.0089
 3941TIP3    H133458   5.198   0.994   2.532 -2.3464  1.0137  1.7020
 3941TIP3    H233459   5.088   1.031   2.435 -3.4362 -1.0959  2.0690
 3942TIP3   OH233460   2.880   1.541   2.541  0.6483 -0.4175  0.1005
 3942TIP3    H133461   2.929   1.611   2.585 -0.0785 -0.6715  1.3608
 3942TIP3    H233462   2.810   1.587   2.495  0.1103 -0.2894  1.0100
 3943TIP3   OH233463   2.236   5.425   7.735 -0.5096  0.0563 -0.2987
 3943TIP3    H133464   2.198   5.351   7.783  0.8226 -0.0271  0.6921
 3943TIP3    H233465   2.243   5.394   7.645 -0.7772 -0.7007 -0.0675
 3944TIP3   OH233466   1.787   1.890   8.253 -0.2319  0.0265 -0.2053
 3944TIP3    H133467   1.817   1.910   8.164 -0.1877  1.6820  0.1521
 3944TIP3    H233468   1.790   1.794   8.258  2.2189 -0.0084 -1.1255
 3945TIP3   OH233469   0.945   1.986   7.870 -0.4492 -0.5300 -0.7647
 3945TIP3    H133470   0.872   2.046   7.885 -2.5935 -3.2748  0.8905
 3945TIP3    H233471   0.922   1.941   7.788  0.6373  0.1904 -1.4818
 3946TIP3   OH233472   0.066   0.421   3.023 -0.1576  0.2318  0.3954
 3946TIP3    H133473  -0.019   0.436   2.982 -0.2694  0.5916  0.7505
 3946TIP3    H233474   0.091   0.506   3.058  0.6495  0.2732 -0.2589
 3947TIP3   OH233475   6.188   1.474   0.751  0.1846  0.0473 -0.4082
 3947TIP3    H133476   6.145   1.403   0.702 -0.6856  1.2879 -1.5177
 3947TIP3    H233477   6.281   1.449   0.752  0.1690 -0.2447 -2.3615
 3948TIP3   OH233478   6.194   2.631   8.234 -0.1734  0.1352 -0.0349
 3948TIP3    H133479   6.161   2.556   8.186 -1.6272  1.0318 -0.4944
 3948TIP3    H233480   6.279   2.650   8.194  0.6631 -1.7654  0.6902
 3949TIP3   OH233481   6.061   2.222   1.517  0.4228  0.2629  0.1176
 3949TIP3    H133482   6.115   2.296   1.490  2.0451 -0.9481 -0.0946
 3949TIP3    H233483   5.976   2.260   1.536  0.7559  1.9631 -1.4873
 3950TIP3   OH233484   0.563   3.973   0.164  0.0658 -0.5148  0.5413
 3950TIP3    H133485   0.486   3.927   0.130 -0.1850 -0.7944  1.4350
 3950TIP3    H233486   0.557   4.061   0.129  0.0947 -0.9271 -0.5219
 3951TIP3   OH233487   3.291   4.999   8.270  0.2574 -0.1096 -0.1968
 3951TIP3    H133488   3.213   4.954   8.302 -1.5520  1.1609 -2.5332
 3951TIP3    H233489   3.320   5.051   8.345 -1.6291 -0.0009  0.5170
 3952TIP3   OH233490   1.011   4.800   0.290  0.1236  0.3455 -0.3754
 3952TIP3    H133491   0.977   4.797   0.201 -1.2201 -0.1923  0.1266
 3952TIP3    H233492   1.073   4.873   0.290  0.7742 -0.1637 -1.9439
 3953TIP3   OH233493   1.800   0.905   1.905  0.4619 -0.5966 -0.1416
 3953TIP3    H133494   1.865   0.972   1.923  0.0315  0.3114 -1.7397
 3953TIP3    H233495   1.798   0.852   1.984  0.3985  1.6135  1.4447
 3954TIP3   OH233496   6.755   4.187   1.247  0.0882  0.3600 -1.0798
 3954TIP3    H133497   6.806   4.158   1.323  1.1707  1.0274 -1.5259
 3954TIP3    H233498   6.712   4.108   1.215 -1.0255  0.1967  0.6761
 3955TIP3   OH233499   2.185   3.145   2.297  0.0260 -0.2454 -0.3250
 3955TIP3    H133500   2.236   3.123   2.374  1.5308  0.1747 -1.1716
 3955TIP3    H233501   2.112   3.082   2.297 -1.0650  0.8628  2.3946
 3956TIP3   OH233502   0.057   0.274   0.749  0.2302 -0.7930 -0.0697
 3956TIP3    H133503   0.133   0.315   0.708 -0.0967  0.3097  0.3791
 3956TIP3    H233504  -0.018   0.303   0.697 -0.1112  0.0477  0.8473
 3957TIP3   OH233505   5.254   2.044   0.806 -0.3122 -0.1033 -0.3982
 3957TIP3    H133506   5.313   2.029   0.731 -0.9424 -1.4624 -0.6411
 3957TIP3    H233507   5.202   2.120   0.780  1.0588  0.8900 -0.3410
 3958TIP3   OH233508   0.714   4.114   7.870 -0.7573 -0.3440  0.2574
 3958TIP3    H133509   0.707   4.166   7.790 -0.3180  0.7188  0.8780
 3958TIP3    H233510   0.664   4.163   7.935 -0.5307 -0.8295  0.8075
 3959TIP3   OH233511   4.361   5.254   8.268  0.0265  0.0035  0.1404
 3959TIP3    H133512   4.341   5.242   8.361 -0.4007  0.3551  0.0999
 3959TIP3    H233513   4.370   5.165   8.233  0.4125 -0.1245  0.5616
 3960TIP3   OH233514   1.007   5.370   1.235 -0.2164  0.3263 -0.1383
 3960TIP3    H133515   1.097   5.388   1.262 -0.4580  1.2898  0.0572
 3960TIP3    H233516   0.958   5.361   1.317 -0.3650  0.1483 -0.2440
 3961TIP3   OH233517   4.484   4.029   8.391  0.0903  0.0164  0.1760
 3961TIP3    H133518   4.500   4.102   8.452  1.3084  0.1604 -0.2969
 3961TIP3    H233519   4.455   4.072   8.310  3.0707  0.2191 -0.8939
 3962TIP3   OH233520   4.482   2.722   0.678 -0.3625  0.1374  0.3474
 3962TIP3    H133521   4.501   2.785   0.748  1.7475  0.1240 -0.1591
 3962TIP3    H233522   4.481   2.637   0.722 -0.0751  0.2234  0.5191
 3963TIP3   OH233523   0.559   0.707   1.377  0.0751  0.5170 -0.4747
 3963TIP3    H133524   0.640   0.717   1.426 -0.9360  0.5494  1.2631
 3963TIP3    H233525   0.583   0.653   1.302  1.3470 -0.9547  0.9324
 3964TIP3   OH233526   4.588   6.528   1.209  0.2330 -0.3375 -0.3029
 3964TIP3    H133527   4.516   6.588   1.191  1.0565  0.9012  0.3421
 3964TIP3    H233528   4.561   6.445   1.171 -1.4711  0.1277 -0.1759
 3965TIP3   OH233529   1.583   3.418   1.176 -0.8088 -0.5661  0.4554
 3965TIP3    H133530   1.598   3.496   1.230 -0.0416  0.6662 -1.4385
 3965TIP3    H233531   1.626   3.347   1.224 -0.3391  0.4241  1.5542
 3966TIP3   OH233532   3.906   5.263   1.918  0.1652  0.2357 -0.1846
 3966TIP3    H133533   3.909   5.268   1.822  0.7865  1.9640 -0.1148
 3966TIP3    H233534   3.818   5.230   1.937  0.1069 -0.3446 -1.3475
 3967TIP3   OH233535   3.511   5.253   6.843 -0.2481 -0.3993 -0.4110
 3967TIP3    H133536   3.425   5.218   6.866 -0.8109  0.1484 -1.5618
 3967TIP3    H233537   3.502   5.348   6.856  0.4595 -0.4069  0.2487
 3968TIP3   OH233538   2.570   4.558   7.726 -0.6479  0.0911 -0.1055
 3968TIP3    H133539   2.569   4.463   7.740  1.5927 -0.0741 -0.7139
 3968TIP3    H233540   2.566   4.569   7.631 -0.2812  0.5692 -0.0726
 3969TIP3   OH233541   3.693   4.310   1.346 -0.6946  0.1443 -0.3992
 3969TIP3    H133542   3.625   4.291   1.281 -0.2507  1.9089 -1.4447
 3969TIP3    H233543   3.758   4.241   1.332 -2.4157 -1.8570  0.9501
 3970TIP3   OH233544   1.093   4.852   2.162 -0.3872 -0.5558 -0.1434
 3970TIP3    H133545   1.133   4.767   2.142  0.0720 -0.3091 -0.2853
 3970TIP3    H233546   1.119   4.908   2.089  0.1242 -0.0246  0.4413
 3971TIP3   OH233547   6.303   2.968   1.166 -0.1593 -0.9348 -0.0180
 3971TIP3    H133548   6.291   3.039   1.103 -0.9327 -0.4984  0.5901
 3971TIP3    H233549   6.218   2.962   1.211  0.9010  0.0876  2.3119
 3972TIP3   OH233550   3.182   6.835   1.669  0.5827 -0.4906  0.1710
 3972TIP3    H133551   3.251   6.773   1.647  0.1766 -1.4371  1.4570
 3972TIP3    H233552   3.125   6.787   1.729 -0.4165  0.7341  0.2377
 3973TIP3   OH233553   3.782   1.664   1.894  0.2082 -0.1647  0.4469
 3973TIP3    H133554   3.709   1.633   1.947 -1.1263 -0.8944 -1.6861
 3973TIP3    H233555   3.794   1.595   1.828  2.7122  0.0291  0.6025
 3974TIP3   OH233556   0.082   3.845   6.826  0.4316  0.1156  0.3890
 3974TIP3    H133557   0.037   3.784   6.766 -0.4918  0.3135  0.8616
 3974TIP3    H233558   0.017   3.913   6.843  0.9522  0.4529  1.0315
 3975TIP3   OH233559   0.827   0.207   1.196 -0.3174  0.5253  0.1622
 3975TIP3    H133560   0.744   0.225   1.240 -1.1758 -2.0714 -0.2193
 3975TIP3    H233561   0.890   0.264   1.240 -1.9455  1.2444  1.7100
 3976TIP3   OH233562   2.723   1.752   2.459  0.3141 -0.5808 -0.1863
 3976TIP3    H133563   2.713   1.812   2.532 -2.3625  0.4495 -1.2357
 3976TIP3    H233564   2.633   1.736   2.429  1.0356 -3.8773 -0.9748
 3977TIP3   OH233565   4.080   4.934   7.991 -0.1974 -0.2358 -0.1386
 3977TIP3    H133566   4.041   4.971   7.912 -0.1189 -0.3313 -0.2234
 3977TIP3    H233567   4.168   4.908   7.964  0.1655  0.5800  0.2220
 3978TIP3   OH233568   1.185   2.452   0.705  0.2338  0.0483 -0.2809
 3978TIP3    H133569   1.201   2.543   0.732 -0.0490 -0.4237  1.6014
 3978TIP3    H233570   1.217   2.400   0.779 -2.0697 -1.2597 -0.1362
 3979TIP3   OH233571   2.318   0.982   6.551 -0.2550  0.1585 -0.3020
 3979TIP3    H133572   2.376   1.057   6.542  0.7315 -0.4507  0.7664
 3979TIP3    H233573   2.233   1.019   6.576  0.2194  0.9055  0.2058
 3980TIP3   OH233574   6.241   4.256   8.183 -0.5927 -0.0121 -0.5665
 3980TIP3    H133575   6.213   4.323   8.120 -1.7131  1.8404  1.7301
 3980TIP3    H233576   6.289   4.304   8.250  0.0501 -1.7918  0.3139
 3981TIP3   OH233577   2.709   2.216   2.154 -0.7971  0.7923  0.3767
 3981TIP3    H133578   2.704   2.126   2.122 -2.2405  0.6967  0.7955
 3981TIP3    H233579   2.618   2.241   2.170 -0.3325  1.8902  1.4924
 3982TIP3   OH233580   1.606   3.018   0.125  0.2766  0.1183  0.0625
 3982TIP3    H133581   1.559   2.988   0.203 -0.1143 -1.8225 -0.8645
 3982TIP3    H233582   1.554   3.092   0.094  0.9800  1.5690  2.1451
 3983TIP3   OH233583   6.368   3.350   1.434  0.0612 -0.1894  0.0508
 3983TIP3    H133584   6.394   3.431   1.391 -0.4877 -0.3972 -0.7048
 3983TIP3    H233585   6.309   3.308   1.371  1.8903 -2.1594 -0.4884
 3984TIP3   OH233586   4.469   0.666   2.247  0.5061  0.1762  0.2467
 3984TIP3    H133587   4.395   0.683   2.305 -0.1779  1.4606 -0.9742
 3984TIP3    H233588   4.535   0.731   2.272  1.7393 -1.6410  2.0743
 3985TIP3   OH233589   6.386   1.964   8.146  0.1383  0.3265  0.0217
 3985TIP3    H133590   6.382   2.060   8.147  2.6716  0.5164 -0.3570
 3985TIP3    H233591   6.452   1.943   8.212  0.4726 -1.0680 -0.7242
 3986TIP3   OH233592   2.681   3.041   2.419  0.0565  0.1340  0.3013
 3986TIP3    H133593   2.680   3.050   2.515  3.9767 -0.4585  0.5744
 3986TIP3    H233594   2.634   2.959   2.403 -0.1046 -0.1103  1.8015
 3987TIP3   OH233595   2.100   1.079   1.239 -0.7519 -0.1247 -0.4238
 3987TIP3    H133596   2.114   1.010   1.303 -1.2370  1.2790  1.2723
 3987TIP3    H233597   2.006   1.092   1.238 -0.5883  1.2781  0.1717
 3988TIP3   OH233598   3.253   4.747   2.402  0.4381  0.5626 -0.0808
 3988TIP3    H133599   3.342   4.727   2.434 -0.0243 -2.5025 -0.3569
 3988TIP3    H233600   3.200   4.750   2.482  0.0332 -2.7473 -0.0696
 3989TIP3   OH233601   0.225   6.742   0.717 -0.0803  0.0384  0.3673
 3989TIP3    H133602   0.208   6.835   0.731  1.1038  0.4543 -0.7272
 3989TIP3    H233603   0.316   6.730   0.746 -0.4724 -0.9550  1.2342
 3990TIP3   OH233604   4.847   5.157   1.101 -0.8824 -0.3479  0.4829
 3990TIP3    H133605   4.806   5.218   1.162  3.2261  2.9032  0.4057
 3990TIP3    H233606   4.906   5.105   1.156  1.6021  1.4714 -0.2865
 3991TIP3   OH233607   4.853   1.336   2.050  0.3380 -0.4394  0.1406
 3991TIP3    H133608   4.795   1.392   1.999 -0.2731 -0.9832  0.2230
 3991TIP3    H233609   4.930   1.390   2.067  0.1308  0.0770 -0.5154
 3992TIP3   OH233610   1.520   1.063   2.018  0.3962  0.1214  0.0186
 3992TIP3    H133611   1.449   1.016   2.063  0.5159 -0.3490 -0.2672
 3992TIP3    H233612   1.590   1.067   2.082  0.9503 -1.4660 -0.4198
 3993TIP3   OH233613   4.546   1.180   7.298  0.4022  0.0858  0.7451
 3993TIP3    H133614   4.512   1.218   7.379 -0.0853  0.7802  0.2285
 3993TIP3    H233615   4.561   1.088   7.319  1.6483  0.5450  2.0435
 3994TIP3   OH233616   0.707   1.478   2.091 -0.2423  0.1984 -0.3504
 3994TIP3    H133617   0.632   1.489   2.032 -0.7306 -0.7081  0.0806
 3994TIP3    H233618   0.676   1.416   2.157  1.3982 -1.4090 -1.0276
 3995TIP3   OH233619   6.477   4.181   0.361 -0.0793  0.0818 -0.1243
 3995TIP3    H133620   6.460   4.183   0.455  3.8673 -2.3922  0.8727
 3995TIP3    H233621   6.552   4.239   0.349 -1.3669  1.4484 -2.0650
 3996TIP3   OH233622   6.761   2.599   1.324  0.3714  0.3632  0.4057
 3996TIP3    H133623   6.853   2.624   1.323  0.6387 -0.5847  0.4726
 3996TIP3    H233624   6.759   2.511   1.288 -0.7972  1.2298 -1.8317
 3997TIP3   OH233625   5.397   4.805   0.744  0.1187 -0.5158  0.1342
 3997TIP3    H133626   5.336   4.817   0.817  0.7529  0.8235  0.4635
 3997TIP3    H233627   5.391   4.887   0.694 -0.3819 -1.4436 -1.4062
 3998TIP3   OH233628   5.610   2.265   6.796 -0.4694 -0.5138 -0.1094
 3998TIP3    H133629   5.562   2.292   6.875  0.3387 -0.5898  0.4197
 3998TIP3    H233630   5.697   2.302   6.808 -0.9545  1.5064 -2.0634
 3999TIP3   OH233631   1.090   4.165   1.720 -0.3126  0.5270  0.2096
 3999TIP3    H133632   1.069   4.240   1.776  1.1271 -0.5390  2.2846
 3999TIP3    H233633   1.182   4.178   1.697  0.2424 -1.0367  1.3928
 4000TIP3   OH233634   3.079   6.300   8.128 -0.0985  0.1175  0.3442
 4000TIP3    H133635   3.085   6.363   8.200  1.4243 -0.0548  0.3980
 4000TIP3    H233636   3.100   6.351   8.050 -1.2167  0.1824  0.0711
 4001TIP3   OH233637   6.775   0.423   1.282 -0.9146  0.1798  0.3666
 4001TIP3    H133638   6.717   0.471   1.340 -1.5763 -0.8706  0.5988
 4001TIP3    H233639   6.863   0.455   1.304 -1.2780  0.7941  0.9629
 4002TIP3   OH233640   0.806   2.855   7.663  0.2524 -0.1593  0.0983
 4002TIP3    H133641   0.830   2.948   7.665 -0.9792  0.1661  0.3628
 4002TIP3    H233642   0.830   2.826   7.575 -1.9600  1.1599 -1.0279
 4003TIP3   OH233643   4.397   0.149   1.627  0.8732  0.1513  0.0351
 4003TIP3    H133644   4.364   0.215   1.688 -1.9013 -1.2576  0.1630
 4003TIP3    H233645   4.413   0.072   1.680 -0.5103 -0.7441 -0.7941
 4004TIP3   OH233646   1.696   1.708   7.490  0.5995  0.0675  0.2700
 4004TIP3    H133647   1.733   1.624   7.518 -0.0231 -0.4256 -0.3749
 4004TIP3    H233648   1.734   1.723   7.403  1.0011  0.6444  0.5387
 4005TIP3   OH233649   0.335   4.514   1.113  0.3564  0.1683 -0.0345
 4005TIP3    H133650   0.402   4.516   1.044 -0.0127 -1.8381 -0.5276
 4005TIP3    H233651   0.261   4.469   1.073 -1.1538  1.9644  0.6483
 4006TIP3   OH233652   4.236   3.920   0.357  0.2384  0.5206  0.0243
 4006TIP3    H133653   4.286   4.001   0.362  0.6837  0.2624 -0.1327
 4006TIP3    H233654   4.173   3.935   0.287  0.0147  0.8922  0.3025
 4007TIP3   OH233655   6.193   5.799   6.723 -0.5059  0.7000  0.5250
 4007TIP3    H133656   6.137   5.841   6.788  0.1734  0.3026  1.3934
 4007TIP3    H233657   6.239   5.731   6.772 -1.6870 -1.1977 -0.8689
 4008TIP3   OH233658   5.732   0.074   0.882  0.0702  0.7109  0.2947
 4008TIP3    H133659   5.826   0.059   0.877 -0.0151 -0.1631  1.0762
 4008TIP3    H233660   5.716   0.099   0.974 -0.7926 -1.8611  0.9271
 4009TIP3   OH233661   1.811   1.251   0.959  0.3776  0.0321 -0.0419
 4009TIP3    H133662   1.853   1.249   1.045 -0.3743  1.8724  0.4298
 4009TIP3    H233663   1.884   1.249   0.897  0.9964 -0.1546  0.6696
 4010TIP3   OH233664   3.262   0.640   0.072 -0.2960  0.2857 -0.3785
 4010TIP3    H133665   3.187   0.699   0.079  0.1231  0.6483  2.1183
 4010TIP3    H233666   3.329   0.692   0.027 -0.2998  1.3854  0.8129
 4011TIP3   OH233667   5.681   5.300   7.684 -0.3186 -0.3953  0.3373
 4011TIP3    H133668   5.630   5.380   7.700  0.0671  0.2330 -1.3705
 4011TIP3    H233669   5.644   5.263   7.604  0.2069 -1.3561  0.5214
 4012TIP3   OH233670   0.985   0.025   0.314  0.0892 -0.1557  0.5491
 4012TIP3    H133671   0.926  -0.051   0.320  0.1427 -0.2172  0.2916
 4012TIP3    H233672   0.957   0.071   0.235 -0.3880  0.4683  1.0663
 4013TIP3   OH233673   0.129   0.351   1.069 -0.1311  0.3168 -0.3210
 4013TIP3    H133674   0.158   0.263   1.095  0.6304  0.1779 -1.5754
 4013TIP3    H233675   0.205   0.407   1.087  0.5114  0.1828 -2.3390
 4014TIP3   OH233676   1.683   2.025   1.829  0.7209  0.1925 -0.1395
 4014TIP3    H133677   1.603   2.045   1.877  0.4056  0.7605 -0.8810
 4014TIP3    H233678   1.745   1.999   1.896 -0.0243 -0.0706  0.4699
 4015TIP3   OH233679   6.945   2.256   2.368  0.5128 -0.5511  0.3657
 4015TIP3    H133680   6.907   2.204   2.439  2.1319 -1.5862  0.5354
 4015TIP3    H233681   6.930   2.347   2.394 -2.2122 -0.8567  0.1581
 4016TIP3   OH233682   0.909   1.456   7.929 -0.0068  0.3263 -0.3685
 4016TIP3    H133683   0.848   1.403   7.878 -1.5191  1.5479  0.0993
 4016TIP3    H233684   0.855   1.521   7.972  1.3894  0.2266  1.7109
 4017TIP3   OH233685   4.654   5.887   1.613 -0.3857 -0.2333 -1.4071
 4017TIP3    H133686   4.599   5.847   1.681  0.2888 -0.1336 -0.7956
 4017TIP3    H233687   4.731   5.831   1.609  0.4480  0.8185 -0.7378
 4018TIP3   OH233688   2.989   6.722   7.855 -0.4612 -0.3474  0.4118
 4018TIP3    H133689   2.944   6.695   7.775  0.1523 -1.7967  0.5246
 4018TIP3    H233690   3.054   6.786   7.825 -0.9294 -0.1017 -0.1001
 4019TIP3   OH233691   1.198   3.755   7.836  0.0724  0.1640 -0.4032
 4019TIP3    H133692   1.213   3.671   7.880 -1.7420  0.0655  0.1406
 4019TIP3    H233693   1.284   3.797   7.832  0.4991 -0.2748  2.3396
 4020TIP3   OH233694   2.309   2.372   0.456  0.6467  0.4141  0.3655
 4020TIP3    H133695   2.386   2.404   0.504  1.6604  0.3300 -1.1127
 4020TIP3    H233696   2.346   2.324   0.382 -0.7959  1.5919 -1.2041
 4021TIP3   OH233697   1.614   3.888   7.632 -0.0617  0.2009  0.0395
 4021TIP3    H133698   1.703   3.917   7.652 -0.1223  1.2717 -1.1832
 4021TIP3    H233699   1.613   3.875   7.537 -1.2462  0.3332  0.0181
 4022TIP3   OH233700   1.005   3.261   7.284  0.2929  0.2232 -0.2171
 4022TIP3    H133701   1.061   3.291   7.356 -0.8884  1.6341  0.1569
 4022TIP3    H233702   1.042   3.302   7.206  2.1382 -2.0398 -0.6481
 4023TIP3   OH233703   3.449   0.364   6.822  0.0527  0.0828  0.2362
 4023TIP3    H133704   3.472   0.330   6.735  2.3788  0.2668  0.6956
 4023TIP3    H233705   3.354   0.359   6.826 -0.0614 -0.6559 -2.0227
 4024TIP3   OH233706   1.987   1.109   0.403 -0.7634 -0.2803  0.2005
 4024TIP3    H133707   2.054   1.112   0.472 -0.8945 -2.0175  0.4467
 4024TIP3    H233708   2.000   1.024   0.362 -2.9125 -0.7265  0.3487
 4025TIP3   OH233709   3.936   6.230   2.523 -0.5784  0.2338  0.2380
 4025TIP3    H133710   4.002   6.180   2.474  0.8656  1.9018  0.3699
 4025TIP3    H233711   3.855   6.181   2.510  0.9611 -3.0138  1.6391
 4026TIP3   OH233712   1.806   3.890   1.878 -0.5336 -0.7262 -0.3114
 4026TIP3    H133713   1.769   3.892   1.790 -0.5231 -2.1675 -0.3652
 4026TIP3    H233714   1.843   3.802   1.887 -1.5074 -0.9935  1.5314
 4027TIP3   OH233715   1.564   3.707   6.785 -0.0168 -0.5967  1.3643
 4027TIP3    H133716   1.563   3.632   6.725  1.5777  0.9158 -0.7016
 4027TIP3    H233717   1.473   3.738   6.785 -0.5213 -1.9898  1.6077
 4028TIP3   OH233718   5.250   0.444   1.258 -0.0542 -0.0744  0.1476
 4028TIP3    H133719   5.224   0.364   1.303  1.9147 -0.5285  0.5535
 4028TIP3    H233720   5.298   0.494   1.325  0.1422  0.6994 -0.5633
 4029TIP3   OH233721   6.685   1.479   7.758  0.7653 -0.3677 -0.1442
 4029TIP3    H133722   6.762   1.490   7.814  1.8729  1.0817 -1.8508
 4029TIP3    H233723   6.613   1.512   7.811  1.8278  1.2741  0.3550
 4030TIP3   OH233724   2.838   2.169   0.390  0.8061 -0.7346 -0.5768
 4030TIP3    H133725   2.912   2.202   0.442  0.8002  1.1330 -1.6641
 4030TIP3    H233726   2.762   2.217   0.424  0.5117 -0.8217 -1.1015
 4031TIP3   OH233727   1.570   2.487   1.198  0.4736  0.4807  0.8411
 4031TIP3    H133728   1.625   2.413   1.225 -0.6732  0.0001  1.9281
 4031TIP3    H233729   1.539   2.462   1.111  0.2762 -0.2188  1.1062
 4032TIP3   OH233730   4.623   4.702   7.653  0.0295  0.0235 -0.8089
 4032TIP3    H133731   4.702   4.660   7.688  0.2608  0.3079 -0.9835
 4032TIP3    H233732   4.650   4.735   7.568 -0.0625  0.7957 -0.5428
 4033TIP3   OH233733   2.994   6.314   1.299 -0.2010  0.0048 -0.0655
 4033TIP3    H133734   3.080   6.315   1.342 -0.9511  0.5253  1.4865
 4033TIP3    H233735   2.975   6.406   1.281  0.5083 -0.2379 -2.5021
 4034TIP3   OH233736   2.157   3.117   3.159 -0.3703  0.4016 -0.1561
 4034TIP3    H133737   2.144   3.024   3.178  0.3799  0.3069 -0.0663
 4034TIP3    H233738   2.147   3.124   3.064 -0.0095  0.1580 -0.2107
 4035TIP3   OH233739   0.506   5.721   0.374  0.0391 -0.6632  0.0101
 4035TIP3    H133740   0.558   5.643   0.357 -0.5912 -0.9457 -0.6022
 4035TIP3    H233741   0.561   5.793   0.342  1.7424 -0.5396  2.7602
 4036TIP3   OH233742   2.891   5.962   2.503  0.4803  0.4357  0.0151
 4036TIP3    H133743   2.921   6.040   2.549  0.8733  0.0700  0.3922
 4036TIP3    H233744   2.812   5.935   2.549  0.6978  0.2503  0.2797
 4037TIP3   OH233745   5.444   0.670   0.835 -0.7758  0.0551 -0.4562
 4037TIP3    H133746   5.489   0.638   0.757  0.2801 -0.2364  0.2498
 4037TIP3    H233747   5.414   0.590   0.879 -2.0249  0.2457 -0.9250
 4038TIP3   OH233748   5.178   0.288   7.847  0.0523  0.9486  0.4956
 4038TIP3    H133749   5.141   0.289   7.759  0.8664 -0.9111  0.1010
 4038TIP3    H233750   5.163   0.200   7.880  3.9184  0.0470  0.3450
 4039TIP3   OH233751   5.484   0.976   1.084 -0.3953 -0.4270  0.1980
 4039TIP3    H133752   5.401   0.931   1.100 -0.4058  0.1563  1.9901
 4039TIP3    H233753   5.466   1.034   1.009 -1.6537 -0.2094  0.6513
 4040TIP3   OH233754   0.701   5.555   1.433 -0.0341  0.4351 -0.2725
 4040TIP3    H133755   0.745   5.473   1.409 -1.1762 -0.0906 -0.6230
 4040TIP3    H233756   0.666   5.588   1.350 -1.9538 -0.1629  0.2512
 4041TIP3   OH233757   6.709   4.132   2.214 -0.3955  0.4836  0.2203
 4041TIP3    H133758   6.625   4.170   2.239 -0.9385 -0.9492  0.6551
 4041TIP3    H233759   6.752   4.111   2.296  1.7410  3.7990  0.1654
 4042TIP3   OH233760   5.036   3.178   8.325  0.4222 -0.3458  0.8115
 4042TIP3    H133761   5.025   3.238   8.252 -0.9082 -0.7358  0.6734
 4042TIP3    H233762   4.973   3.108   8.308  1.7069 -1.6343  1.1285
 4043TIP3   OH233763   0.347   3.062   7.081 -0.6978  0.7635 -0.5298
 4043TIP3    H133764   0.397   3.022   7.010  1.8102  1.5141  0.7224
 4043TIP3    H233765   0.357   3.156   7.068 -0.8090  0.9176  0.4188
 4044TIP3   OH233766   6.862   3.345   7.408  0.0583 -0.3457 -0.2146
 4044TIP3    H133767   6.804   3.302   7.346 -1.9040  0.4279  1.0083
 4044TIP3    H233768   6.884   3.429   7.368  0.6564 -0.7873 -0.8348
 4045TIP3   OH233769   3.388   0.279   7.292  0.4322 -0.2129  0.5882
 4045TIP3    H133770   3.383   0.353   7.231 -2.8831 -0.9224 -0.2108
 4045TIP3    H233771   3.435   0.313   7.368 -0.1392  2.4110 -0.1326
 4046TIP3   OH233772   0.776   1.560   1.231 -0.4090 -0.3562  0.3023
 4046TIP3    H133773   0.759   1.547   1.138  1.5327  0.4155 -0.2253
 4046TIP3    H233774   0.797   1.473   1.264 -1.6666 -0.7272  0.1829
 4047TIP3   OH233775   4.764   2.259   0.333 -0.2438  0.1511  0.0372
 4047TIP3    H133776   4.759   2.180   0.279 -0.8025 -0.9465  1.6496
 4047TIP3    H233777   4.854   2.260   0.366 -0.0716  0.5153 -0.4237
 4048TIP3   OH233778   2.409   3.988   7.989  0.2701 -0.3096 -0.0044
 4048TIP3    H133779   2.497   4.024   7.992 -0.0303  0.6159 -1.2837
 4048TIP3    H233780   2.352   4.064   7.983 -0.5521 -0.9281 -0.2861
 4049TIP3   OH233781   5.979   1.668   0.725 -0.4326  0.0478 -0.3214
 4049TIP3    H133782   6.066   1.708   0.718  0.4530 -1.4516  1.3756
 4049TIP3    H233783   5.977   1.602   0.655 -0.3763  0.3678 -0.6272
 4050TIP3   OH233784   0.830   5.737   8.077  0.5385 -0.6944 -0.1814
 4050TIP3    H133785   0.836   5.791   8.156 -0.9449 -2.8748  1.5117
 4050TIP3    H233786   0.755   5.773   8.029 -0.0048 -0.8139  0.5728
 4051TIP3   OH233787   6.979   1.311   1.947 -0.2880 -0.2790 -0.2524
 4051TIP3    H133788   6.981   1.226   1.990 -1.8252 -0.4455 -0.4302
 4051TIP3    H233789   6.939   1.370   2.011  0.4724  0.2378 -0.2455
 4052TIP3   OH233790   3.150   3.674   0.575  0.0662  0.2871 -0.4764
 4052TIP3    H133791   3.072   3.690   0.629  0.0375 -0.1434 -0.3848
 4052TIP3    H233792   3.166   3.757   0.531 -0.5737  0.3188 -0.6564
 4053TIP3   OH233793   4.649   1.705   7.202  1.2368 -0.3739  0.2344
 4053TIP3    H133794   4.695   1.680   7.283  1.0623 -0.0376  0.4406
 4053TIP3    H233795   4.567   1.744   7.232  1.1901 -0.2074 -0.1063
 4054TIP3   OH233796   1.880   3.398   1.780  0.0468 -0.8158 -0.2383
 4054TIP3    H133797   1.873   3.370   1.689 -0.1375 -1.3887 -0.0512
 4054TIP3    H233798   1.972   3.423   1.790  0.1204 -0.9734 -0.5118
 4055TIP3   OH233799   0.277   3.078   0.350 -0.9355  0.3587 -0.3604
 4055TIP3    H133800   0.298   3.141   0.281 -2.2937  0.7962 -0.4101
 4055TIP3    H233801   0.356   3.024   0.359 -0.5527  0.6384 -1.8639
 4056TIP3   OH233802   6.649   1.134   6.585 -0.7905  0.5621  0.1643
 4056TIP3    H133803   6.702   1.174   6.654  0.1907 -1.5404  0.7489
 4056TIP3    H233804   6.593   1.071   6.631 -1.1292  0.1217 -0.8188
 4057TIP3   OH233805   2.655   5.002   1.243  0.1573  0.3334 -0.7462
 4057TIP3    H133806   2.645   5.096   1.261 -0.6220 -0.0569  1.0932
 4057TIP3    H233807   2.565   4.969   1.237  0.3102 -0.7338  1.4879
 4058TIP3   OH233808   1.211   0.980   2.637  0.2579 -0.1208  0.1510
 4058TIP3    H133809   1.209   1.063   2.686 -0.7547  0.9017 -1.5028
 4058TIP3    H233810   1.303   0.958   2.629  0.5153  0.5808  1.0363
 4059TIP3   OH233811   2.050   6.493   2.124 -0.0957 -0.1198 -0.7095
 4059TIP3    H133812   2.043   6.537   2.209 -0.2902  1.8765 -1.6920
 4059TIP3    H233813   2.129   6.529   2.085  0.6821 -1.9457 -0.9109
 4060TIP3   OH233814   6.086   5.171   7.814 -0.3126  0.8213 -0.1368
 4060TIP3    H133815   6.073   5.147   7.722  0.8232  1.6681 -0.5309
 4060TIP3    H233816   6.052   5.260   7.820  2.6557  2.0943 -0.5833
 4061TIP3   OH233817   5.703   1.159   1.778  0.0652 -0.9357  0.0333
 4061TIP3    H133818   5.743   1.078   1.810 -1.1806 -0.9435  1.7455
 4061TIP3    H233819   5.756   1.229   1.817 -0.0328 -0.9531  0.2040
 4062TIP3   OH233820   2.847   5.069   7.773  0.0721 -0.2387  0.5086
 4062TIP3    H133821   2.810   5.129   7.710 -2.7220  1.4888  3.4830
 4062TIP3    H233822   2.919   5.118   7.813  0.5944 -0.5902  0.0133
 4063TIP3   OH233823   0.572   2.055   0.902  0.4652 -0.6485  0.2035
 4063TIP3    H133824   0.640   1.988   0.897  1.2591  0.2051 -0.6725
 4063TIP3    H233825   0.556   2.065   0.996  0.5663 -1.8209  0.3611
 4064TIP3   OH233826   5.097   6.862   1.983  0.7199  0.0539  0.0196
 4064TIP3    H133827   5.067   6.909   1.905 -0.7534  0.3082  0.7000
 4064TIP3    H233828   5.183   6.899   2.002  0.4968  0.9783 -0.6869
 4065TIP3   OH233829   0.303   1.808   0.111 -0.5113  0.3718  0.7482
 4065TIP3    H133830   0.253   1.883   0.079  2.9134  2.4318 -0.3214
 4065TIP3    H233831   0.326   1.831   0.201  0.7409  0.7799  0.3437
 4066TIP3   OH233832   2.088   3.980   6.930 -0.3626 -0.1001  0.0991
 4066TIP3    H133833   2.018   4.040   6.957 -1.0709 -1.1839  0.7608
 4066TIP3    H233834   2.136   4.028   6.862  0.1110  1.8400  1.7097
 4067TIP3   OH233835   4.694   6.186   2.630 -0.0650  0.2910 -0.1466
 4067TIP3    H133836   4.600   6.203   2.625 -0.3402 -0.5531  1.5303
 4067TIP3    H233837   4.701   6.092   2.614  0.6788  0.6054 -1.8478
 4068TIP3   OH233838   2.557   5.218   0.086  0.2045 -0.2655  0.5934
 4068TIP3    H133839   2.543   5.213   0.181 -0.1412 -0.5617  0.5339
 4068TIP3    H233840   2.651   5.227   0.075  0.2578 -0.3656  0.9647
 4069TIP3   OH233841   6.535   4.079   2.611  0.2950 -0.1228  0.3421
 4069TIP3    H133842   6.498   4.026   2.682  1.4815 -2.2214 -0.5403
 4069TIP3    H233843   6.627   4.089   2.634  0.4570  0.1074 -0.3797
 4070TIP3   OH233844   6.526   3.251   0.300 -0.2660 -0.5594  0.8169
 4070TIP3    H133845   6.540   3.240   0.394  1.8446 -0.3167  0.5890
 4070TIP3    H233846   6.452   3.194   0.279  0.0415 -1.5921  2.4037
 4071TIP3   OH233847   4.049   3.947   2.716 -0.6265  0.3229 -0.7173
 4071TIP3    H133848   3.969   3.906   2.683  0.7651 -2.4046 -0.9929
 4071TIP3    H233849   4.046   3.934   2.811 -0.1454 -0.5296 -0.8131
 4072TIP3   OH233850   4.088   2.333   2.755 -1.1154 -0.2104  0.5946
 4072TIP3    H133851   4.017   2.377   2.801 -0.6479 -0.1026  1.2391
 4072TIP3    H233852   4.164   2.392   2.767 -0.4415 -1.2533  1.6062
 4073TIP3   OH233853   5.113   4.535   1.233 -0.9259  0.4140  0.0579
 4073TIP3    H133854   5.065   4.465   1.190 -2.2396  1.0485  0.4230
 4073TIP3    H233855   5.068   4.615   1.206 -0.0716  1.0390  0.4308
 4074TIP3   OH233856   2.750   0.589   0.889  0.5283 -0.1595  0.4493
 4074TIP3    H133857   2.659   0.617   0.874  0.7759  0.9354  0.9861
 4074TIP3    H233858   2.741   0.512   0.946 -0.1197 -0.8743 -0.5745
 4075TIP3   OH233859   4.048   5.204   7.187 -0.2771 -0.0417 -0.5253
 4075TIP3    H133860   4.036   5.137   7.119  1.8804 -0.5484 -0.4570
 4075TIP3    H233861   4.119   5.259   7.154 -0.0486  0.4570  0.7686
 4076TIP3   OH233862   1.879   0.557   6.343 -0.1584 -0.3089 -0.5128
 4076TIP3    H133863   1.819   0.609   6.290 -0.6378 -0.9514 -0.6034
 4076TIP3    H233864   1.823   0.509   6.404  0.1767 -1.4902 -1.0926
 4077TIP3   OH233865   1.289   0.587   1.149  0.1451 -0.2506  0.5225
 4077TIP3    H133866   1.201   0.551   1.143  0.2827 -0.3323 -1.6667
 4077TIP3    H233867   1.278   0.675   1.185 -0.8554 -0.1797  0.0493
 4078TIP3   OH233868   0.480   1.109   6.765 -0.3558 -0.1856  0.1331
 4078TIP3    H133869   0.561   1.153   6.741 -0.5713 -0.6601 -1.6580
 4078TIP3    H233870   0.415   1.179   6.774  0.5076  0.3583  3.1175
 4079TIP3   OH233871   5.981   5.636   8.236 -0.0920 -0.5182  0.1985
 4079TIP3    H133872   6.037   5.586   8.295  0.7886 -0.8266 -0.8745
 4079TIP3    H233873   5.894   5.599   8.249  0.4316 -1.9371 -0.1356
 4080TIP3   OH233874   1.372   6.227   7.593  0.3776  0.0212 -0.1796
 4080TIP3    H133875   1.355   6.320   7.605  0.7587  0.0528  0.1674
 4080TIP3    H233876   1.454   6.224   7.542  0.1372 -0.1233 -0.5610
 4081TIP3   OH233877   4.467   4.969   6.794 -0.5270 -0.5986 -0.0552
 4081TIP3    H133878   4.382   4.963   6.837  1.1865 -0.5285  3.7333
 4081TIP3    H233879   4.511   4.887   6.817  1.4278  0.5780  0.6606
 4082TIP3   OH233880   0.849   5.057   0.813 -0.2658 -0.6477  0.0160
 4082TIP3    H133881   0.851   5.147   0.779  0.9585 -1.0539 -1.0948
 4082TIP3    H233882   0.818   5.066   0.903 -0.1841  0.8914 -0.0783
 4083TIP3   OH233883   6.019   4.428   1.264  0.0863 -0.2227  0.0117
 4083TIP3    H133884   6.070   4.404   1.341  3.4447  0.8637 -1.6936
 4083TIP3    H233885   5.991   4.345   1.227  1.8141 -0.9607  0.2893
 4084TIP3   OH233886   6.897   1.944   1.882 -0.0624  0.1624 -0.2314
 4084TIP3    H133887   6.847   1.993   1.947  0.2424 -1.2010  1.0847
 4084TIP3    H233888   6.982   1.929   1.924 -0.1837 -1.5614 -0.5249
 4085TIP3   OH233889   1.539   5.000   2.338 -0.3235 -0.3370 -0.4280
 4085TIP3    H133890   1.510   4.981   2.428  0.9136  1.5238  0.4123
 4085TIP3    H233891   1.481   5.070   2.308  0.5808  0.4920 -0.2827
 4086TIP3   OH233892   2.361   2.387   7.356 -0.1337  0.3907 -0.2692
 4086TIP3    H133893   2.451   2.375   7.388  0.5171  1.2643 -1.6273
 4086TIP3    H233894   2.324   2.299   7.354  0.4471  0.1036  0.9754
 4087TIP3   OH233895   2.826   3.458   0.922  0.4196  0.3634  0.2503
 4087TIP3    H133896   2.780   3.496   0.997  1.4287  0.4431  0.8433
 4087TIP3    H233897   2.916   3.447   0.952  0.7874  0.1703 -0.8779
 4088TIP3   OH233898   3.388   5.488   0.572  0.2941 -0.1600 -0.2479
 4088TIP3    H133899   3.459   5.467   0.632 -0.1506 -1.0488 -0.0219
 4088TIP3    H233900   3.328   5.542   0.624  0.7607  0.5360 -0.4202
 4089TIP3   OH233901   5.240   2.358   1.479 -0.1837 -0.6794  0.1091
 4089TIP3    H133902   5.312   2.339   1.540 -0.1794  0.3084  0.4295
 4089TIP3    H233903   5.162   2.362   1.535 -0.5022 -1.7250 -0.2341
 4090TIP3   OH233904   3.476   3.514   1.364 -0.2171 -0.2373  0.2240
 4090TIP3    H133905   3.508   3.602   1.384 -2.5673  0.3371  1.8186
 4090TIP3    H233906   3.417   3.526   1.290 -0.2632 -0.5522  0.2065
 4091TIP3   OH233907   1.432   2.169   7.725  0.2621 -0.0287 -0.1907
 4091TIP3    H133908   1.486   2.227   7.779  0.0149  1.2477 -1.2630
 4091TIP3    H233909   1.495   2.112   7.680  0.5045 -0.6473  0.8877
 4092TIP3   OH233910   2.462   2.075   1.350  0.1900 -0.0200 -0.2136
 4092TIP3    H133911   2.463   2.161   1.308 -0.9353  0.2633  0.2841
 4092TIP3    H233912   2.471   2.094   1.443  0.7316 -0.5069 -0.1599
 4093TIP3   OH233913   2.815   4.374   6.993  0.4048 -0.7026  0.1067
 4093TIP3    H133914   2.846   4.323   6.919  1.5604  0.7935 -0.5036
 4093TIP3    H233915   2.885   4.438   7.009 -0.4072 -0.1376  1.6438
 4094TIP3   OH233916   2.784   5.723   0.364 -0.1373  0.5177  0.5146
 4094TIP3    H133917   2.800   5.817   0.366  2.9586  0.1934 -1.8632
 4094TIP3    H233918   2.785   5.700   0.271 -0.4643 -1.9461  1.0419
 4095TIP3   OH233919   2.894   5.087   7.484 -0.2262  0.2133 -0.2393
 4095TIP3    H133920   2.970   5.113   7.536 -1.8059  2.4909  1.0645
 4095TIP3    H233921   2.910   4.995   7.464  2.1820  0.2326  1.1778
 4096TIP3   OH233922   5.161   1.041   6.722  0.1228 -0.2786  0.2373
 4096TIP3    H133923   5.174   1.101   6.795  0.7389 -1.6906  1.3248
 4096TIP3    H233924   5.249   1.010   6.700 -0.0048  0.3575 -1.3515
 4097TIP3   OH233925   1.118   3.487   1.601 -0.2599 -0.0679  0.2426
 4097TIP3    H133926   1.044   3.446   1.556  0.3639 -0.5204 -0.3806
 4097TIP3    H233927   1.086   3.575   1.623 -0.5101  0.2656 -1.3045
 4098TIP3   OH233928   6.907   1.764   2.407 -0.1393  0.4050 -0.6166
 4098TIP3    H133929   6.934   1.734   2.494 -0.5504 -0.0055 -0.6265
 4098TIP3    H233930   6.988   1.796   2.366  0.0732  0.5038 -0.1240
 4099TIP3   OH233931   6.354   0.486   2.477 -0.0385  0.0289  0.1395
 4099TIP3    H133932   6.324   0.571   2.507  0.1511  0.1679 -0.0680
 4099TIP3    H233933   6.435   0.470   2.527 -0.6748 -0.5364  1.0174
 4100TIP3   OH233934   6.342   0.709   0.436 -0.6284  0.2073  0.8216
 4100TIP3    H133935   6.428   0.707   0.478  0.4721  1.9109 -1.1765
 4100TIP3    H233936   6.328   0.801   0.414 -1.8600 -0.3865 -1.0939
 4101TIP3   OH233937   4.602   0.516   0.306  0.2813 -0.3962 -0.8733
 4101TIP3    H133938   4.544   0.487   0.237  1.1692 -1.3657 -1.2430
 4101TIP3    H233939   4.681   0.545   0.261  0.2911  0.4440 -0.3505
 4102TIP3   OH233940   3.901   4.147   2.309  0.0904  0.6792 -0.1536
 4102TIP3    H133941   3.874   4.058   2.331 -1.1092  0.9012 -0.6512
 4102TIP3    H233942   3.878   4.199   2.387  0.0544  0.6915 -0.1725
 4103TIP3   OH233943   3.738   6.749   8.258 -0.1542 -0.2165 -0.2007
 4103TIP3    H133944   3.695   6.664   8.273  0.6962 -0.8179 -1.0658
 4103TIP3    H233945   3.819   6.744   8.310  0.5112 -0.4535 -1.2260
 4104TIP3   OH233946   2.115   5.123   2.193  0.1672 -0.0798  0.4593
 4104TIP3    H133947   2.042   5.104   2.133  0.1369 -0.0919  0.5003
 4104TIP3    H233948   2.103   5.061   2.265  0.5258 -0.4466  0.2045
 4105TIP3   OH233949   0.521   5.184   2.667 -0.2644  0.4431  0.8637
 4105TIP3    H133950   0.573   5.106   2.648 -0.0960  0.5277  0.9842
 4105TIP3    H233951   0.452   5.183   2.600 -0.6670 -0.1760  1.2795
 4106TIP3   OH233952   1.751   0.990   1.484 -0.0438 -0.7001 -0.2639
 4106TIP3    H133953   1.818   0.939   1.529  3.8358  3.5048 -0.6187
 4106TIP3    H233954   1.691   1.018   1.554 -0.1895 -2.6241  0.4444
 4107TIP3   OH233955   6.374   1.105   0.107  0.1525 -0.3326  0.0081
 4107TIP3    H133956   6.314   1.053   0.161  0.2667 -0.4063  0.0662
 4107TIP3    H233957   6.320   1.140   0.037  0.1819 -0.9970 -0.3529
 4108TIP3   OH233958   6.272   2.417   1.727 -0.5382  0.4372  0.5848
 4108TIP3    H133959   6.281   2.420   1.631  0.8065 -2.6278  0.5024
 4108TIP3    H233960   6.315   2.497   1.757 -0.0527  0.9616 -1.3491
 4109TIP3   OH233961   5.675   6.873   1.466 -0.7125  0.4240  0.1732
 4109TIP3    H133962   5.719   6.958   1.473  0.3263 -0.2274  2.2452
 4109TIP3    H233963   5.739   6.811   1.500 -1.1100 -1.3687 -2.0827
 4110TIP3   OH233964   5.709   6.022   7.890 -0.4341 -0.1540  0.3613
 4110TIP3    H133965   5.621   6.046   7.861 -1.0353 -1.9655  0.5548
 4110TIP3    H233966   5.761   6.020   7.810 -0.4685  1.2133  0.2805
 4111TIP3   OH233967   6.992   0.158   8.029 -0.3735  0.0722 -0.0832
 4111TIP3    H133968   7.003   0.118   7.942  0.7318 -0.8672  0.4548
 4111TIP3    H233969   7.036   0.242   8.022 -2.6089  1.2532 -1.1932
 4112TIP3   OH233970   1.191   1.645   0.702 -0.3346 -0.2143 -0.7420
 4112TIP3    H133971   1.171   1.652   0.796  1.9932  1.1158 -0.2656
 4112TIP3    H233972   1.221   1.555   0.690  0.8217  0.0350  0.1397
 4113TIP3   OH233973   2.014   3.495   2.182  0.6122  0.2110 -0.1996
 4113TIP3    H133974   2.007   3.442   2.262  1.6667  0.2576 -0.0620
 4113TIP3    H233975   2.083   3.453   2.132 -0.2299  0.0195 -1.2439
 4114TIP3   OH233976   5.036   5.324   0.385 -0.2089  0.3407  0.0082
 4114TIP3    H133977   5.020   5.270   0.308 -1.1459  1.5465 -0.6766
 4114TIP3    H233978   4.979   5.286   0.453  0.5363 -0.6528  0.0958
 4115TIP3   OH233979   1.931   0.844   1.642 -0.0584  0.4231 -0.6327
 4115TIP3    H133980   1.878   0.859   1.721 -0.1617 -0.4423 -0.5272
 4115TIP3    H233981   2.020   0.832   1.675  0.2138  1.7746 -0.8025
 4116TIP3   OH233982   6.423   0.480   1.371 -0.1264  0.1573 -0.0940
 4116TIP3    H133983   6.493   0.494   1.435  0.3450 -0.0470 -0.5668
 4116TIP3    H233984   6.365   0.555   1.383 -2.1142 -1.6761  3.2375
 4117TIP3   OH233985   4.160   6.142   1.681  0.0114 -0.2059  0.1126
 4117TIP3    H133986   4.182   6.056   1.717 -0.2189 -0.8439 -1.1766
 4117TIP3    H233987   4.068   6.134   1.655 -0.5159  1.0001  1.4908
 4118TIP3   OH233988   1.650   0.441   8.189 -0.0489  0.1363 -0.2039
 4118TIP3    H133989   1.721   0.400   8.240 -1.6531  0.2954  2.3254
 4118TIP3    H233990   1.636   0.381   8.116  2.2279 -0.2254 -0.4206
 4119TIP3   OH233991   3.458   4.792   1.132 -0.1607  0.1419 -0.3699
 4119TIP3    H133992   3.504   4.832   1.057 -1.3399  0.9960 -0.6639
 4119TIP3    H233993   3.385   4.744   1.093  0.0804 -0.6634  0.1426
 4120TIP3   OH233994   4.332   5.211   1.077 -0.1140 -0.0905  0.1111
 4120TIP3    H133995   4.362   5.282   1.133  1.9300 -0.8616  0.0940
 4120TIP3    H233996   4.238   5.207   1.090 -0.3797  2.9530 -0.3020
 4121TIP3   OH233997   2.409   6.431   7.385  0.1502 -0.0986 -0.1219
 4121TIP3    H133998   2.421   6.448   7.292  0.9961  0.9037  0.1535
 4121TIP3    H233999   2.440   6.510   7.428 -0.2545 -0.5392  1.0174
 4122TIP3   OH234000   0.819   6.526   0.814 -0.9031 -0.4019 -0.8069
 4122TIP3    H134001   0.788   6.603   0.861 -2.1217 -0.4669 -1.4597
 4122TIP3    H234002   0.827   6.555   0.723 -1.9663 -1.1702 -1.1713
 4123TIP3   OH234003   3.008   5.633   2.357  0.1761 -0.3341 -0.2714
 4123TIP3    H134004   2.953   5.613   2.433  0.1602  1.9460  0.4034
 4123TIP3    H234005   2.949   5.623   2.282 -0.0544 -1.7350  0.0715
 4124TIP3   OH234006   4.096   4.021   1.741 -0.6959 -0.0910 -0.4383
 4124TIP3    H134007   4.036   4.095   1.740 -1.1539 -0.3935  1.1077
 4124TIP3    H234008   4.162   4.045   1.806 -0.4964 -0.7619 -0.3858
 4125TIP3   OH234009   1.642   0.724   1.772  0.2631 -0.0218 -0.3573
 4125TIP3    H134010   1.691   0.791   1.820  0.2804 -0.1029 -0.2589
 4125TIP3    H234011   1.705   0.653   1.759  0.5184  0.3789 -1.3157
 4126TIP3   OH234012   1.266   4.167   7.633 -0.8449  0.1426  0.3899
 4126TIP3    H134013   1.204   4.228   7.592 -1.5200 -0.4344  0.5266
 4126TIP3    H234014   1.217   4.085   7.641  0.1752 -0.5308 -0.1331
 4127TIP3   OH234015   2.825   6.078   1.276  0.2878  0.1300  0.0115
 4127TIP3    H134016   2.870   6.156   1.308  1.8193 -0.8725  0.4064
 4127TIP3    H234017   2.884   6.005   1.296 -1.1260 -1.1628 -0.2590
 4128TIP3   OH234018   6.218   5.535   2.562  0.1251 -0.6682 -0.2578
 4128TIP3    H134019   6.135   5.563   2.599  0.6486  2.1327 -0.9369
 4128TIP3    H234020   6.283   5.590   2.606  1.2966 -0.8271 -1.7207
 4129TIP3   OH234021   3.289   6.184   0.473 -0.4666  0.6623 -0.3674
 4129TIP3    H134022   3.345   6.114   0.440 -1.4460  0.7462 -2.3516
 4129TIP3    H234023   3.210   6.139   0.504 -0.8836  0.8204 -1.1701
 4130TIP3   OH234024   5.535   1.425   0.206  0.0456  0.1805  0.0895
 4130TIP3    H134025   5.497   1.493   0.150  2.3613  1.1347 -0.4334
 4130TIP3    H234026   5.498   1.343   0.173  0.3264  0.8433 -1.9843
 4131TIP3   OH234027   3.342   2.995   6.890 -0.5901 -0.1492 -0.0238
 4131TIP3    H134028   3.389   3.078   6.881 -1.4784  0.2480 -1.3033
 4131TIP3    H234029   3.272   3.015   6.952  1.7911 -1.1961  3.2877
 4132TIP3   OH234030   3.329   1.680   1.900 -0.0649 -0.5140 -0.1956
 4132TIP3    H134031   3.288   1.710   1.818  0.9261  0.2523 -0.4311
 4132TIP3    H234032   3.411   1.729   1.905 -0.2834 -0.2721  1.4613
 4133TIP3   OH234033   4.185   6.897   1.017 -0.0792 -0.3240  0.4515
 4133TIP3    H134034   4.185   6.866   0.927  1.3502  0.0681  0.2930
 4133TIP3    H234035   4.167   6.991   1.011  0.6940 -0.1595  0.4915
 4134TIP3   OH234036   1.035   6.237   0.835 -0.0892  0.0269 -0.2018
 4134TIP3    H134037   1.105   6.220   0.773 -0.4880  1.1087 -0.9741
 4134TIP3    H234038   1.056   6.323   0.872  0.5531 -0.9169  1.7547
 4135TIP3   OH234039   6.177   3.580   2.492 -0.0675  0.4546  0.2348
 4135TIP3    H134040   6.129   3.657   2.523  2.0502  1.4183  1.3139
 4135TIP3    H234041   6.237   3.615   2.425 -0.0447 -0.5118 -0.2632
 4136TIP3   OH234042   5.728   5.152   2.635  0.5207 -0.3842  0.0632
 4136TIP3    H134043   5.804   5.098   2.657  0.7601  0.7121  2.2011
 4136TIP3    H234044   5.704   5.194   2.717 -1.5663  0.3796 -0.8701
 4137TIP3   OH234045   4.944   4.972   0.866  0.1847 -0.3305 -0.1775
 4137TIP3    H134046   4.858   4.932   0.857 -0.8120  1.9699 -2.0459
 4137TIP3    H234047   4.942   5.017   0.950  0.2498 -1.7249  0.5861
 4138TIP3   OH234048   2.146   3.805   1.527  0.2115  0.8738 -0.3498
 4138TIP3    H134049   2.154   3.712   1.544  1.5920  1.0891  0.3506
 4138TIP3    H234050   2.081   3.812   1.457 -0.6177 -0.5305  0.2576
 4139TIP3   OH234051   3.256   2.224   7.768 -0.1915  0.3810 -0.1689
 4139TIP3    H134052   3.324   2.282   7.734 -0.9615  2.2036  1.1994
 4139TIP3    H234053   3.183   2.233   7.707 -1.4551  3.4034  1.5273
 4140TIP3   OH234054   1.468   4.030   8.092  0.4327  0.1220  0.2025
 4140TIP3    H134055   1.503   4.024   8.003 -1.6492 -0.9896 -0.6075
 4140TIP3    H234056   1.415   4.110   8.092  1.4734  0.8418  0.8832
 4141TIP3   OH234057   3.010   3.058   2.456  0.0036  0.0048 -0.1589
 4141TIP3    H134058   2.953   3.040   2.531  0.2660  2.5046  0.7425
 4141TIP3    H234059   2.990   3.148   2.432  0.2214 -0.5757 -2.9035
 4142TIP3   OH234060   5.514   1.793   8.303 -0.3250 -0.5568 -0.2030
 4142TIP3    H134061   5.535   1.817   8.393  0.1695  2.2292 -0.9837
 4142TIP3    H234062   5.592   1.745   8.273  0.1606 -0.1698  0.4042
 4143TIP3   OH234063   6.950   6.506   1.453 -0.2534  0.0189 -0.1714
 4143TIP3    H134064   7.017   6.557   1.500  0.0104 -0.0826 -0.4323
 4143TIP3    H234065   6.997   6.468   1.379 -0.8708  0.9037 -1.0416
 4144TIP3   OH234066   0.277   4.400   0.738 -0.2195 -0.0331  0.0927
 4144TIP3    H134067   0.253   4.466   0.673  0.3747  0.4385  0.3439
 4144TIP3    H234068   0.309   4.326   0.687  0.0583  0.2585 -0.1542
 4145TIP3   OH234069   1.707   4.725   7.001 -0.4366 -0.1466 -0.3478
 4145TIP3    H134070   1.779   4.781   7.030  0.0334 -1.6820  1.7178
 4145TIP3    H234071   1.692   4.749   6.909  2.4419  0.5163 -0.7285
 4146TIP3   OH234072   2.463   6.756   8.049 -0.1268 -0.1917  0.5601
 4146TIP3    H134073   2.383   6.802   8.026 -0.2600 -0.9275 -0.5083
 4146TIP3    H234074   2.530   6.795   7.994 -0.2273 -1.2042 -0.3001
 4147TIP3   OH234075   4.902   5.905   7.057  0.1287  0.8815  0.6530
 4147TIP3    H134076   4.948   5.965   6.997  1.3520 -0.6368 -0.0214
 4147TIP3    H234077   4.972   5.853   7.095 -0.9815 -1.2921 -0.1261
 4148TIP3   OH234078   0.392   4.862   0.742  0.6690 -0.5762  0.4954
 4148TIP3    H134079   0.331   4.899   0.678  0.7796 -0.1613  0.6262
 4148TIP3    H234080   0.459   4.930   0.754  1.0910 -0.9814  0.4422
 4149TIP3   OH234081   5.800   4.883   8.257 -0.5662  0.1262 -0.5188
 4149TIP3    H134082   5.717   4.928   8.239 -0.8806  0.1705  0.9271
 4149TIP3    H234083   5.821   4.907   8.347  0.5106 -0.6885 -0.5367
 4150TIP3   OH234084   1.929   4.738   2.776 -0.3422  0.0536  0.3706
 4150TIP3    H134085   1.934   4.651   2.735  1.3828  1.2087 -2.1531
 4150TIP3    H234086   2.016   4.753   2.812 -0.8556  0.4583  1.4863
 4151TIP3   OH234087   1.108   1.882   1.851  0.0591  0.8809 -0.0062
 4151TIP3    H134088   1.131   1.804   1.901 -1.1077  0.9626  0.6947
 4151TIP3    H234089   1.170   1.883   1.778  1.1640  0.2289  0.8948
 4152TIP3   OH234090   6.396   4.584   0.211  0.0182 -0.1988  0.2103
 4152TIP3    H134091   6.482   4.601   0.247 -0.2208  1.8070 -0.0410
 4152TIP3    H234092   6.356   4.670   0.203 -1.6546 -0.9972 -0.5730
 4153TIP3   OH234093   6.388   3.053   7.921  0.3346 -0.0745  0.0991
 4153TIP3    H134094   6.460   3.115   7.913  0.5214 -0.5081 -3.1240
 4153TIP3    H234095   6.309   3.106   7.910  0.2700  0.0510  1.0777
 4154TIP3   OH234096   3.775   4.805   1.451  0.0105 -0.2434 -1.1524
 4154TIP3    H134097   3.787   4.710   1.439 -2.1398 -0.6636 -0.5158
 4154TIP3    H234098   3.777   4.817   1.546 -1.9062 -0.0524 -1.0968
 4155TIP3   OH234099   2.825   1.129   2.232 -0.4293 -0.5131 -0.4871
 4155TIP3    H134100   2.805   1.195   2.166 -0.3420 -0.2011 -0.2062
 4155TIP3    H234101   2.867   1.059   2.184 -1.4194 -0.8087 -0.9533
 4156TIP3   OH234102   3.603   5.521   1.955  0.0608 -0.4127  0.7972
 4156TIP3    H134103   3.600   5.425   1.949  1.2346 -0.4384  0.3640
 4156TIP3    H234104   3.629   5.538   2.046  0.4137 -0.5232  0.7186
 4157TIP3   OH234105   1.713   5.448   8.054  0.2519  0.0933  0.0335
 4157TIP3    H134106   1.775   5.521   8.052 -0.1608  0.4667  0.4733
 4157TIP3    H234107   1.730   5.404   8.137  0.9360 -0.7109 -0.5170
 4158TIP3   OH234108   1.213   0.306   7.286 -0.0870 -0.0675  0.1535
 4158TIP3    H134109   1.299   0.300   7.244 -0.2166 -1.1625  0.0047
 4158TIP3    H234110   1.207   0.396   7.317  0.9695  0.1165 -0.1471
 4159TIP3   OH234111   2.961   1.301   1.967  0.1788  0.1519  0.3497
 4159TIP3    H134112   2.998   1.324   2.052  2.8217 -0.0584 -0.6570
 4159TIP3    H234113   2.971   1.206   1.960  0.7702  0.2679 -0.5303
 4160TIP3   OH234114   5.340   1.586   0.027 -0.0412 -0.1136 -0.3105
 4160TIP3    H134115   5.399   1.656  -0.001  0.1858 -0.0348  0.3444
 4160TIP3    H234116   5.326   1.534  -0.052 -0.7817  1.0586 -0.9741
 4161TIP3   OH234117   1.829   0.564   0.106  0.1536 -0.1876 -0.2703
 4161TIP3    H134118   1.820   0.472   0.079  0.2911  0.2593 -1.9222
 4161TIP3    H234119   1.889   0.602   0.041 -1.3304  1.5157 -0.7106
 4162TIP3   OH234120   2.961   6.302   0.645  0.0354 -0.1736 -0.6155
 4162TIP3    H134121   2.908   6.260   0.577  0.2768  0.1309 -0.9982
 4162TIP3    H234122   2.999   6.379   0.602  0.3458 -0.0825 -0.1896
 4163TIP3   OH234123   3.136   5.881   2.396  0.1413  0.4100  0.4352
 4163TIP3    H134124   3.096   5.796   2.376  0.6735  0.3052 -0.2121
 4163TIP3    H234125   3.066   5.931   2.439  0.1858 -0.7781  1.9798
 4164TIP3   OH234126   4.611   0.769   7.026  0.8611 -0.3670  0.9211
 4164TIP3    H134127   4.571   0.850   6.996  1.8756 -0.8171 -1.9841
 4164TIP3    H234128   4.537   0.711   7.045  0.1117  0.3268  0.2052
 4165TIP3   OH234129   3.064   3.458   0.003  0.7619  0.2478 -0.0313
 4165TIP3    H134130   3.040   3.374  -0.036  0.4694  0.8663 -1.2106
 4165TIP3    H234131   3.160   3.455   0.009  0.6446 -1.2699  2.5175
 4166TIP3   OH234132   2.387   5.615   0.686 -0.1265  0.0793 -0.1764
 4166TIP3    H134133   2.315   5.568   0.644  0.5031 -0.6835 -0.4297
 4166TIP3    H234134   2.346   5.694   0.723 -1.2148 -0.6626  0.2661
 4167TIP3   OH234135   3.920   6.564   2.162 -0.1200 -0.6768  0.0047
 4167TIP3    H134136   3.925   6.573   2.257  0.4447 -0.0312 -0.0821
 4167TIP3    H234137   4.008   6.582   2.131 -0.5539  0.2945 -0.7313
 4168TIP3   OH234138   0.667   1.037   0.707 -0.5145  0.0220  0.5063
 4168TIP3    H134139   0.621   1.045   0.624  0.3502 -0.9308 -0.0856
 4168TIP3    H234140   0.608   0.986   0.762 -0.7307 -0.0593  0.2000
 4169TIP3   OH234141   5.199   0.928   8.322 -0.0560 -0.2645 -0.3263
 4169TIP3    H134142   5.247   0.992   8.269  0.9874 -0.9262 -0.2089
 4169TIP3    H234143   5.112   0.926   8.284 -0.4833  2.0659  0.3704
 4170TIP3   OH234144   3.445   2.447   2.817 -0.0033  0.2432  0.1139
 4170TIP3    H134145   3.465   2.377   2.879  0.9935  2.0099  1.8926
 4170TIP3    H234146   3.349   2.453   2.817 -0.1063 -1.1712 -0.1640
 4171TIP3   OH234147   2.818   6.386   7.957  0.0924 -0.2049 -0.0178
 4171TIP3    H134148   2.909   6.399   7.932 -0.0207  0.7838  0.0562
 4171TIP3    H234149   2.808   6.436   8.038 -0.3485 -0.8538  0.3415
 4172TIP3   OH234150   4.284   0.786   2.409 -0.0860 -0.2276 -0.3182
 4172TIP3    H134151   4.199   0.789   2.452 -0.0543 -0.8923 -0.2010
 4172TIP3    H234152   4.346   0.768   2.480  0.3258  1.5551 -0.1848
 4173TIP3   OH234153   2.149   3.446   1.822  0.3224  0.7326 -0.2012
 4173TIP3    H134154   2.188   3.417   1.739 -0.2378  0.4595 -0.3777
 4173TIP3    H234155   2.187   3.387   1.887 -1.1717 -0.7928 -0.6226
 4174TIP3   OH234156   2.366   4.442   0.150 -0.2973 -0.0925  0.5323
 4174TIP3    H134157   2.354   4.365   0.095 -0.2032 -1.3528  2.1937
 4174TIP3    H234158   2.435   4.492   0.108  1.3027 -2.1138  0.6200
 4175TIP3   OH234159   2.214   6.183   2.255 -0.6178 -0.5030 -0.3011
 4175TIP3    H134160   2.237   6.194   2.162  0.2044 -0.7230 -0.1343
 4175TIP3    H234161   2.243   6.264   2.296  0.1947 -0.9177 -0.0305
 4176TIP3   OH234162   5.034   3.623   0.528  0.2642  0.0209  0.2765
 4176TIP3    H134163   5.094   3.696   0.541 -0.1421  0.9996 -2.6658
 4176TIP3    H234164   4.973   3.653   0.460 -0.2040 -2.8596 -0.7236
 4177TIP3   OH234165   3.250   1.487   7.199 -0.3908 -0.0951 -0.3712
 4177TIP3    H134166   3.329   1.537   7.178  0.1287 -0.6545  0.1737
 4177TIP3    H234167   3.203   1.479   7.116  0.0620  0.3584 -0.6742
 4178TIP3   OH234168   4.914   0.847   2.300  0.4211 -0.3929 -0.5881
 4178TIP3    H134169   4.908   0.943   2.304  0.7977 -0.4094  2.0006
 4178TIP3    H234170   4.911   0.819   2.391  0.7463 -2.8476 -1.2630
 4179TIP3   OH234171   2.473   1.517   7.446 -0.1545  0.4267 -0.7152
 4179TIP3    H134172   2.444   1.427   7.430  0.6837 -0.1015  0.6003
 4179TIP3    H234173   2.509   1.546   7.362 -1.0542 -0.2054 -1.3430
 4180TIP3   OH234174   5.339   6.143   0.985  0.3109 -0.1941  0.4863
 4180TIP3    H134175   5.251   6.115   0.961  0.4328 -1.0769  1.0415
 4180TIP3    H234176   5.364   6.086   1.057  1.5369 -0.2946  0.0155
 4181TIP3   OH234177   1.398   2.525   7.638 -0.0984 -0.2954  0.2383
 4181TIP3    H134178   1.476   2.579   7.653 -0.8220  1.0195 -0.6437
 4181TIP3    H234179   1.426   2.459   7.574  1.2663 -2.1154  2.5450
 4182TIP3   OH234180   2.856   1.555   7.034 -0.5600  0.0578  0.2872
 4182TIP3    H134181   2.945   1.575   7.004 -0.0289  0.3176  1.9700
 4182TIP3    H234182   2.803   1.629   7.004 -0.1382  0.1073 -0.3618
 4183TIP3   OH234183   3.792   6.341   0.115  0.1348 -0.1677  0.1925
 4183TIP3    H134184   3.846   6.276   0.160 -0.4659 -1.4378 -0.8538
 4183TIP3    H234185   3.705   6.331   0.155 -0.7489 -2.2290 -2.0028
 4184TIP3   OH234186   3.549   4.255   1.981 -0.2581 -0.1316  0.4917
 4184TIP3    H134187   3.564   4.333   1.929  0.9976  0.3555  1.5270
 4184TIP3    H234188   3.454   4.252   1.994 -0.2774  1.6103  0.9947
 4185TIP3   OH234189   6.213   3.690   7.236  0.5440  0.1507  0.0398
 4185TIP3    H134190   6.307   3.709   7.239  0.5436  0.0756  2.0628
 4185TIP3    H234191   6.183   3.701   7.327 -1.3557 -0.0959 -0.5039
 4186TIP3   OH234192   1.865   2.326   0.920 -0.2290  0.3751  0.0482
 4186TIP3    H134193   1.836   2.309   0.831 -0.8338  0.0331  0.3080
 4186TIP3    H234194   1.867   2.422   0.927 -1.8341  0.4226  0.1880
 4187TIP3   OH234195   5.866   3.535   1.031 -0.2530 -0.0060 -0.2010
 4187TIP3    H134196   5.895   3.500   1.115 -0.6435 -1.9143 -0.8004
 4187TIP3    H234197   5.811   3.466   0.994  0.5970  0.3928 -2.3936
 4188TIP3   OH234198   3.043   6.195   1.022 -0.3741  0.1652  0.4938
 4188TIP3    H134199   3.135   6.205   0.996 -0.6162 -0.7466 -0.8020
 4188TIP3    H234200   3.038   6.234   1.109  1.0735  0.9315  0.2640
 4189TIP3   OH234201   2.057   0.763   6.692 -0.6035 -0.6972  0.3907
 4189TIP3    H134202   2.030   0.826   6.626  2.0418 -0.0250 -0.1540
 4189TIP3    H234203   1.976   0.716   6.715 -1.9973  0.5390 -1.6814
 4190TIP3   OH234204   5.542   2.059   8.174  0.5087 -0.0934 -0.0574
 4190TIP3    H134205   5.519   1.981   8.224  2.0941 -0.2585  0.4784
 4190TIP3    H234206   5.502   2.046   8.088 -1.3038 -0.3343  0.7925
 4191TIP3   OH234207   6.031   2.082   7.495  0.0295  0.0167 -0.2034
 4191TIP3    H134208   6.024   2.151   7.429 -1.7400 -1.5348 -1.7514
 4191TIP3    H234209   6.015   2.001   7.447 -0.0068 -1.3066  1.9200
 4192TIP3   OH234210   0.660   3.324   7.773  0.1244 -0.2430 -0.9918
 4192TIP3    H134211   0.576   3.277   7.769 -0.3769  0.6758 -1.7021
 4192TIP3    H234212   0.677   3.333   7.867 -0.0532 -1.3373 -0.8440
 4193TIP3   OH234213   1.338   6.975   0.526  0.0374 -1.1317 -0.1882
 4193TIP3    H134214   1.259   7.030   0.529 -0.0396 -1.1735 -1.3490
 4193TIP3    H234215   1.379   6.989   0.612 -0.3291  0.2169 -0.2097
 4194TIP3   OH234216   6.871   3.117   0.568  0.5958 -0.2235  0.6062
 4194TIP3    H134217   6.947   3.084   0.519 -0.0884 -2.6137  1.0434
 4194TIP3    H234218   6.861   3.207   0.538  2.3387 -0.4949 -0.9972
 4195TIP3   OH234219   4.851   1.090   0.083 -0.6877 -0.0444  0.2436
 4195TIP3    H134220   4.876   1.122   0.169  1.1768  1.1010 -0.6424
 4195TIP3    H234221   4.785   1.153   0.052 -1.3246 -0.4314  0.8089
 4196TIP3   OH234222   4.220   1.293   0.796  0.3282 -0.5009 -0.2169
 4196TIP3    H134223   4.223   1.232   0.869  1.8930 -0.9926 -0.6600
 4196TIP3    H234224   4.157   1.255   0.735 -1.2588  0.0880  0.9714
 4197TIP3   OH234225   3.985   0.210   0.768 -0.0008 -0.1011  0.0003
 4197TIP3    H134226   3.993   0.290   0.716 -0.3485 -0.9766 -1.4527
 4197TIP3    H234227   4.031   0.144   0.717  0.7995 -0.7291  1.4698
 4198TIP3   OH234228   1.286   2.066   0.077  0.0253  0.0947 -0.4657
 4198TIP3    H134229   1.205   2.037   0.119  0.3193  0.2982  0.2474
 4198TIP3    H234230   1.289   2.160   0.092  0.4915  0.0602 -0.3221
 4199TIP3   OH234231   6.482   1.920   6.757  0.1670 -0.7902  0.0328
 4199TIP3    H134232   6.419   1.887   6.821 -1.0722 -0.3159 -0.8968
 4199TIP3    H234233   6.455   1.880   6.674 -0.6400  1.5118 -0.9033
 4200TIP3   OH234234   5.619   1.240   6.793  0.0391 -0.1365  0.6769
 4200TIP3    H134235   5.648   1.151   6.813  0.3177 -0.3226 -0.4954
 4200TIP3    H234236   5.571   1.267   6.871 -1.3704 -1.8788  0.4747
 4201TIP3   OH234237   6.536   2.150   7.542  0.1100 -0.0110  0.2509
 4201TIP3    H134238   6.511   2.238   7.512 -0.9562 -0.2527  0.4084
 4201TIP3    H234239   6.453   2.107   7.563  0.5015 -1.5899 -1.2556
 4202TIP3   OH234240   2.065   0.082   7.538  0.2805  0.4733  0.0808
 4202TIP3    H134241   2.008   0.080   7.461 -0.4109 -1.8586  0.5602
 4202TIP3    H234242   2.021   0.141   7.599 -0.7351  0.0199 -0.1984
 4203TIP3   OH234243   5.144   6.264   0.439  0.4552 -0.2680  0.2196
 4203TIP3    H134244   5.105   6.185   0.475  0.0340 -0.1676 -0.0085
 4203TIP3    H234245   5.082   6.334   0.462 -0.0450 -0.2585 -1.0389
 4204TIP3   OH234246   6.824   5.198   7.567  0.8746 -0.0380 -0.0110
 4204TIP3    H134247   6.745   5.237   7.603  0.4782 -0.4330 -0.4419
 4204TIP3    H234248   6.896   5.249   7.604  0.3443  1.5488 -1.0945
 4205TIP3   OH234249   0.223   0.699   1.664 -0.1069  0.5758 -0.2870
 4205TIP3    H134250   0.168   0.625   1.691  0.5309  0.3609  0.4518
 4205TIP3    H234251   0.305   0.687   1.711  0.3591  1.2308 -0.9102
 4206TIP3   OH234252   1.347   3.805   1.653 -0.4831  0.0108  0.3195
 4206TIP3    H134253   1.354   3.761   1.568 -0.0466  0.5919  0.0445
 4206TIP3    H234254   1.292   3.748   1.706 -2.0347  0.3711 -0.8413
 4207TIP3   OH234255   5.704   3.468   6.996  0.1295  0.0915 -0.0416
 4207TIP3    H134256   5.643   3.510   6.937  0.0146  1.6370  1.1256
 4207TIP3    H234257   5.776   3.438   6.940 -1.4877 -1.5102 -1.3943
 4208TIP3   OH234258   1.531   4.818   0.237 -0.0911  0.3080  0.1494
 4208TIP3    H134259   1.471   4.814   0.311  0.2021  0.0686  0.3769
 4208TIP3    H234260   1.608   4.770   0.266  1.2721  2.7916  0.8382
 4209TIP3   OH234261   5.305   0.033   1.446 -0.5686 -0.5856  0.4264
 4209TIP3    H134262   5.305  -0.011   1.531  0.3302 -0.4604  0.4994
 4209TIP3    H234263   5.306  -0.038   1.382  1.5865 -0.7267  0.5429
 4210TIP3   OH234264   6.708   0.808   2.078 -0.0326  0.3700 -0.0118
 4210TIP3    H134265   6.671   0.721   2.094  1.4830 -0.5265 -1.1953
 4210TIP3    H234266   6.643   0.851   2.022  0.0738 -0.6860 -0.9668
 4211TIP3   OH234267   0.234   3.856   7.540  0.1463  0.3228  0.5827
 4211TIP3    H134268   0.301   3.844   7.608  0.0674  2.0695  1.0079
 4211TIP3    H234269   0.283   3.854   7.458  0.7923  1.7760  0.8959
 4212TIP3   OH234270   3.791   0.091   8.177  0.2941 -0.5052 -0.9597
 4212TIP3    H134271   3.814   0.168   8.228 -1.4311 -0.6227  0.0377
 4212TIP3    H234272   3.871   0.037   8.178  1.1952  0.7841 -0.8513
 4213TIP3   OH234273   1.423   5.688   6.952  0.3307 -0.3688 -0.0431
 4213TIP3    H134274   1.502   5.702   7.004 -0.4760 -1.9761  1.7127
 4213TIP3    H234275   1.412   5.770   6.904  1.4181  1.0043  1.8993
 4214TIP3   OH234276   4.960   1.586   2.787 -0.0448  0.2289  0.1895
 4214TIP3    H134277   4.937   1.523   2.855  0.4283 -1.1072 -0.8272
 4214TIP3    H234278   4.959   1.534   2.706  0.7166  1.4639 -0.6440
 4215TIP3   OH234279   3.898   0.905   6.887 -0.1364  0.0554  0.1701
 4215TIP3    H134280   3.994   0.904   6.885 -0.1319  0.1239  0.3575
 4215TIP3    H234281   3.872   0.859   6.807  0.0546 -0.5877  0.4726
 4216TIP3   OH234282   0.279   5.810   0.257  0.1259 -0.0593 -0.0047
 4216TIP3    H134283   0.223   5.742   0.219  1.4816 -0.9135 -0.5422
 4216TIP3    H234284   0.339   5.762   0.313  0.7203  0.7699  0.0782
 4217TIP3   OH234285   4.717   5.923   7.494  0.1138  0.0432  0.3186
 4217TIP3    H134286   4.689   5.962   7.412 -1.0545 -0.4799  0.4555
 4217TIP3    H234287   4.752   5.997   7.545 -0.9064  0.6951  0.0926
 4218TIP3   OH234288   3.238   1.134   1.981 -0.0397  0.0010  0.0515
 4218TIP3    H134289   3.223   1.085   1.900  1.7999  0.3156 -0.5326
 4218TIP3    H234290   3.223   1.070   2.051 -0.2763 -0.6636 -0.5897
 4219TIP3   OH234291   6.450   0.882   1.995 -0.2004  0.3000  0.4033
 4219TIP3    H134292   6.375   0.862   2.051 -0.3760  3.0618  1.2899
 4219TIP3    H234293   6.442   0.976   1.977  2.4758  0.4548 -0.3457
 4220TIP3   OH234294   0.222   4.360   7.356 -0.6777  0.2350 -0.2311
 4220TIP3    H134295   0.301   4.394   7.314  0.0024 -0.5800  0.3553
 4220TIP3    H234296   0.191   4.293   7.295  0.1027 -0.6901  0.3606
 4221TIP3   OH234297   1.658   5.613   1.026  0.0882  1.0720  0.0904
 4221TIP3    H134298   1.607   5.692   1.047  0.2131  1.4741 -1.0376
 4221TIP3    H234299   1.623   5.584   0.942  0.9529  0.6993 -0.1520
 4222TIP3   OH234300   6.754   3.663   0.484 -0.2218  0.2777 -0.7804
 4222TIP3    H134301   6.668   3.635   0.451 -0.6541  0.0038  0.5505
 4222TIP3    H234302   6.744   3.757   0.499 -1.0999 -0.1473  1.6766
 4223TIP3   OH234303   1.928   3.266   2.444 -0.0688  0.3613  0.8708
 4223TIP3    H134304   1.887   3.210   2.379 -0.5197  1.6102  0.0499
 4223TIP3    H234305   1.953   3.206   2.514 -1.0969 -0.7763  0.3101
 4224TIP3   OH234306   4.139   1.502   1.289 -0.1775  0.4539 -0.0368
 4224TIP3    H134307   4.120   1.448   1.212  0.4692 -0.6941  0.5768
 4224TIP3    H234308   4.235   1.506   1.291 -0.0480 -1.6845  2.0992
 4225TIP3   OH234309   0.133   2.838   8.166  0.2074  0.1174 -0.1429
 4225TIP3    H134310   0.189   2.914   8.152 -0.8825  1.1377  0.7292
 4225TIP3    H234311   0.126   2.832   8.261 -1.1991  0.0735 -0.2314
 4226TIP3   OH234312   6.990   4.718   1.950 -0.4685 -0.0274  0.1223
 4226TIP3    H134313   7.058   4.785   1.941  1.0848 -1.5408 -0.0283
 4226TIP3    H234314   6.992   4.671   1.866 -1.2475 -0.5028  0.3615
 4227TIP3   OH234315   0.469   0.205   0.193 -0.8410  0.8011 -0.3646
 4227TIP3    H134316   0.467   0.295   0.161 -3.2479  0.9138 -0.0846
 4227TIP3    H234317   0.383   0.170   0.170 -0.3452 -1.0873  0.4977
 4228TIP3   OH234318   1.029   3.627   7.272  0.1305 -0.3182 -0.3352
 4228TIP3    H134319   1.026   3.708   7.323  1.0430  0.4225 -1.4229
 4228TIP3    H234320   0.941   3.591   7.280 -0.1496  0.5138  0.5690
 4229TIP3   OH234321   3.915   6.442   1.346  0.4421 -0.4140  0.5855
 4229TIP3    H134322   3.937   6.437   1.439  1.1925 -0.3215  0.4189
 4229TIP3    H234323   3.992   6.482   1.305  0.7366 -1.7959 -0.2808
 4230TIP3   OH234324   2.587   5.208   0.666  0.6308  0.5718  0.2141
 4230TIP3    H134325   2.497   5.240   0.663  0.8094  1.0759  0.1475
 4230TIP3    H234326   2.602   5.170   0.579  0.5984  0.8104  0.1029
 4231TIP3   OH234327   5.069   4.172   2.240  0.6573 -0.2197  0.2206
 4231TIP3    H134328   5.138   4.228   2.274  0.6683 -0.0947 -0.0067
 4231TIP3    H234329   4.988   4.214   2.269  0.5869  1.0450 -1.6217
 4232TIP3   OH234330   1.779   1.139   2.164  0.5570 -0.1005  0.3856
 4232TIP3    H134331   1.766   1.058   2.212 -1.1210  0.6676  1.3447
 4232TIP3    H234332   1.861   1.127   2.116  0.2623 -2.3920  0.3756
 4233TIP3   OH234333   4.331   3.775   7.796  0.5373 -0.5355 -0.0687
 4233TIP3    H134334   4.277   3.791   7.873  0.9462  0.8073 -0.0258
 4233TIP3    H234335   4.271   3.739   7.731 -0.3169  0.5091  0.1233
 4234TIP3   OH234336   3.762   5.577   8.292  0.1245 -0.4600  0.0193
 4234TIP3    H134337   3.673   5.585   8.258 -0.2209  0.4912  1.0711
 4234TIP3    H234338   3.800   5.503   8.244 -0.4177  0.5936 -2.1647
 4235TIP3   OH234339   1.734   3.747   6.979 -0.5786 -0.3863  0.1613
 4235TIP3    H134340   1.693   3.690   7.045  0.0429 -1.0307  0.0051
 4235TIP3    H234341   1.679   3.737   6.901 -0.7608 -0.3725  0.2869
 4236TIP3   OH234342   0.062   1.802   0.922 -0.1824  0.2275 -0.1492
 4236TIP3    H134343   0.021   1.865   0.863  0.2105 -1.3429 -2.2385
 4236TIP3    H234344   0.008   1.723   0.913  1.4388 -0.8780 -0.4828
 4237TIP3   OH234345   3.529   3.149   2.354 -0.3445  0.3880 -0.3836
 4237TIP3    H134346   3.544   3.243   2.348 -1.3814  0.7767  1.9551
 4237TIP3    H234347   3.571   3.123   2.436 -0.7863 -1.0401 -0.5709
 4238TIP3   OH234348   0.518   6.199   1.283  1.4743  0.5994 -0.0921
 4238TIP3    H134349   0.465   6.132   1.237 -0.1590  0.5216  1.7658
 4238TIP3    H234350   0.535   6.265   1.216  0.7680 -0.3762 -1.2930
 4239TIP3   OH234351   0.332   1.119   1.559  0.3329  0.3075  0.2975
 4239TIP3    H134352   0.340   1.114   1.654 -0.1326 -1.4357  0.2599
 4239TIP3    H234353   0.349   1.030   1.528 -0.6433  0.5985 -1.1725
 4240TIP3   OH234354   0.286   0.273   2.952  0.0535 -0.3869  0.5842
 4240TIP3    H134355   0.219   0.334   2.983  0.2285 -0.1364  0.4752
 4240TIP3    H234356   0.361   0.288   3.010  0.4610  0.2450 -0.0808
 4241TIP3   OH234357   6.294   4.530   8.354 -0.1747  0.0831 -0.6702
 4241TIP3    H134358   6.379   4.536   8.399  0.8665 -1.5278 -2.2894
 4241TIP3    H234359   6.308   4.576   8.271 -1.5450  1.5287 -0.1497
 4242TIP3   OH234360   2.880   4.092   1.825  0.3839  0.8947  0.5265
 4242TIP3    H134361   2.817   4.103   1.897  1.0105 -1.2782  1.4943
 4242TIP3    H234362   2.958   4.057   1.867  1.6091  1.7933 -0.9325
 4243TIP3   OH234363   2.314   2.216   7.011 -0.0088  0.0586 -0.3352
 4243TIP3    H134364   2.250   2.276   6.972 -0.1043  1.7280  2.1424
 4243TIP3    H234365   2.277   2.129   6.997 -1.6384  0.8160 -1.0637
 4244TIP3   OH234366   6.806   2.819   1.883 -0.0613 -0.1778  0.4426
 4244TIP3    H134367   6.714   2.838   1.871  0.1659  0.5728 -0.1466
 4244TIP3    H234368   6.843   2.819   1.795  0.0479 -3.0210  0.3919
 4245TIP3   OH234369   0.105   6.373   1.232  0.5535  0.6320 -0.2018
 4245TIP3    H134370   0.061   6.302   1.187  0.4637 -0.4009  1.4360
 4245TIP3    H234371   0.145   6.425   1.162 -0.8170 -0.0280 -1.5339
 4246TIP3   OH234372   4.464   0.917   1.006 -0.3836  0.4026 -0.4162
 4246TIP3    H134373   4.411   0.997   1.000 -1.1013 -0.1484 -1.6933
 4246TIP3    H234374   4.417   0.863   1.069 -1.8315 -0.3866 -2.0732
 4247TIP3   OH234375   5.011   1.208   8.049  1.1418  0.0788  0.2007
 4247TIP3    H134376   5.020   1.154   7.971 -0.1344 -0.8795  0.6763
 4247TIP3    H234377   5.087   1.185   8.103  0.7820 -1.0489  0.2564
 4248TIP3   OH234378   1.720   5.311   2.336 -0.2414  0.0801  0.0744
 4248TIP3    H134379   1.677   5.393   2.309  0.8557  0.3649 -0.8801
 4248TIP3    H234380   1.685   5.294   2.423 -1.3702  0.9456 -0.1800
 4249TIP3   OH234381   2.478   6.958   0.260  0.2359  0.2260  0.3344
 4249TIP3    H134382   2.490   7.048   0.291 -0.7737 -0.0800  1.6761
 4249TIP3    H234383   2.431   6.914   0.330 -0.1496 -1.1100 -0.7208
 4250TIP3   OH234384   3.630   1.416   2.988  0.0511  0.0123 -0.4039
 4250TIP3    H134385   3.679   1.464   2.920 -0.1288  1.1924  0.2747
 4250TIP3    H234386   3.639   1.470   3.066 -0.5109 -0.8783  0.2890
 4251TIP3   OH234387   5.999   2.282   2.279 -0.3420 -0.6186 -0.0006
 4251TIP3    H134388   5.922   2.229   2.259 -0.7859 -0.1324  0.3913
 4251TIP3    H234389   6.022   2.259   2.369 -0.7305  0.0759  0.2855
 4252TIP3   OH234390   5.152   2.956   7.606 -0.1051  0.6897 -0.1541
 4252TIP3    H134391   5.118   2.866   7.611 -1.1156  0.9000 -2.1916
 4252TIP3    H234392   5.247   2.946   7.611 -0.2437 -0.3275  1.1843
 4253TIP3   OH234393   4.603   3.669   7.842 -0.7169 -0.4559 -0.3296
 4253TIP3    H134394   4.522   3.712   7.817  0.3391  1.6858 -0.2873
 4253TIP3    H234395   4.595   3.655   7.936 -0.7917  0.3390 -0.2137
 4254TIP3   OH234396   3.956   3.368   0.824  0.2515  0.2779  0.0213
 4254TIP3    H134397   3.955   3.399   0.734  1.2602  0.7817  0.1777
 4254TIP3    H234398   4.012   3.429   0.871 -1.2554  0.7701  1.2739
 4255TIP3   OH234399   2.514   6.390   1.706 -0.5894 -0.9465  0.0649
 4255TIP3    H134400   2.443   6.330   1.727  0.7798 -2.3799  0.8112
 4255TIP3    H234401   2.533   6.375   1.613 -0.1498 -1.7943  0.2896
 4256TIP3   OH234402   1.696   5.115   0.644 -0.5697 -0.3874 -0.8597
 4256TIP3    H134403   1.602   5.108   0.660 -1.0447 -0.3285 -3.3245
 4256TIP3    H234404   1.717   5.206   0.664 -0.5670 -0.8538  1.6185
 4257TIP3   OH234405   6.736   3.970   8.115  0.1370  0.2228 -0.2022
 4257TIP3    H134406   6.646   3.940   8.128  0.7604 -0.3720  4.2592
 4257TIP3    H234407   6.789   3.891   8.117  0.9120  0.6458 -1.8744
 4258TIP3   OH234408   3.019   2.581   0.700 -0.2419 -0.9782 -0.2679
 4258TIP3    H134409   3.076   2.534   0.761 -0.3003 -0.5816  0.1009
 4258TIP3    H234410   2.947   2.520   0.682 -0.1143 -1.1774 -0.1066
 4259TIP3   OH234411   5.651   3.433   7.257 -0.1685 -0.0055  0.1957
 4259TIP3    H134412   5.583   3.498   7.278 -1.1893 -1.0127  0.0884
 4259TIP3    H234413   5.675   3.452   7.166 -0.5383  0.1536  0.1309
 4260TIP3   OH234414   5.262   4.439   0.809  0.1961  0.4513  0.0506
 4260TIP3    H134415   5.270   4.520   0.859  1.9697 -0.0589  0.6841
 4260TIP3    H234416   5.200   4.386   0.859 -1.1673  1.4672 -0.4976
 4261TIP3   OH234417   3.476   6.356   6.727 -0.0273  0.5007 -0.0510
 4261TIP3    H134418   3.402   6.356   6.667  0.1150  3.5135 -0.3763
 4261TIP3    H234419   3.550   6.324   6.674 -0.8097 -1.5143 -0.0122
 4262TIP3   OH234420   1.582   4.149   1.792  0.2447  0.0143 -0.1996
 4262TIP3    H134421   1.546   4.126   1.706  1.8279 -1.1501 -0.5906
 4262TIP3    H234422   1.572   4.069   1.844  1.9725 -0.2627 -0.2462
 4263TIP3   OH234423   1.973   5.266   0.022 -0.0120 -0.6851  0.7006
 4263TIP3    H134424   2.038   5.328  -0.013  0.0010 -1.4512 -0.6915
 4263TIP3    H234425   1.908   5.257  -0.047 -0.7785 -1.1564  1.4570
 4264TIP3   OH234426   3.095   4.330   1.436  0.4530 -0.5946  0.3545
 4264TIP3    H134427   3.006   4.298   1.449 -0.1290  0.4898 -0.7619
 4264TIP3    H234428   3.140   4.308   1.517 -1.0154 -0.5697  1.2174
 4265TIP3   OH234429   5.611   0.279   7.076 -0.5292  0.0990  0.1010
 4265TIP3    H134430   5.696   0.317   7.051 -1.8771  1.7237 -2.5255
 4265TIP3    H234431   5.631   0.220   7.148  2.6470  1.3337  0.3962
 4266TIP3   OH234432   2.396   0.497   8.271 -0.1523 -0.5860  0.0541
 4266TIP3    H134433   2.404   0.551   8.349 -0.5390 -1.4679  0.7233
 4266TIP3    H234434   2.486   0.477   8.245  0.0190  1.0389 -0.6952
 4267TIP3   OH234435   6.541   5.946   7.944  0.0865  0.3454  0.0113
 4267TIP3    H134436   6.559   6.040   7.946  0.6168  0.2289  0.7453
 4267TIP3    H234437   6.592   5.909   8.016 -0.0108 -0.5277 -0.3492
 4268TIP3   OH234438   5.055   5.531   1.330 -0.3773 -0.0905  0.1236
 4268TIP3    H134439   5.103   5.475   1.269 -1.0073  0.8142 -1.2311
 4268TIP3    H234440   5.047   5.478   1.409 -1.2313 -2.0548 -1.2133
 4269TIP3   OH234441   0.136   0.687   7.919 -0.7357 -0.5814  0.2240
 4269TIP3    H134442   0.135   0.617   7.984 -1.8289  0.0648  0.9324
 4269TIP3    H234443   0.085   0.758   7.959  0.4054  0.6556 -0.4399
 4270TIP3   OH234444   3.982   4.123   0.498 -0.5380  0.1283  0.1829
 4270TIP3    H134445   4.070   4.160   0.485 -1.0721  1.1356 -0.7742
 4270TIP3    H234446   3.933   4.150   0.420 -1.8241 -0.0257  0.9043
 4271TIP3   OH234447   3.270   1.025   6.782  0.0803 -0.0213 -0.4423
 4271TIP3    H134448   3.301   1.111   6.813  0.5031 -0.6405  0.9432
 4271TIP3    H234449   3.183   1.043   6.746 -0.0989  0.8973  0.3873
 4272TIP3   OH234450   0.813   1.639   8.116 -0.3309  0.1055  0.3705
 4272TIP3    H134451   0.847   1.571   8.175 -0.7704 -0.7580 -0.3500
 4272TIP3    H234452   0.725   1.657   8.147  0.2709  1.4152  1.4435
 4273TIP3   OH234453   5.556   3.527   6.759  0.1140 -0.3284  0.1568
 4273TIP3    H134454   5.491   3.525   6.829  1.6000  0.9423  1.6660
 4273TIP3    H234455   5.543   3.445   6.712 -2.1310 -0.3932  0.7619
 4274TIP3   OH234456   2.792   1.788   0.823 -0.3738 -0.2153 -0.0045
 4274TIP3    H134457   2.850   1.716   0.797  0.2517  0.6846 -1.1771
 4274TIP3    H234458   2.726   1.792   0.754 -0.1103  0.6499 -0.2150
 4275TIP3   OH234459   0.479   3.559   2.019  0.0595 -1.1392  0.2632
 4275TIP3    H134460   0.396   3.535   1.976  0.1921 -0.7344 -0.2211
 4275TIP3    H234461   0.505   3.641   1.978 -0.9091  0.4459  2.6258
 4276TIP3   OH234462   5.151   0.253   8.202  0.0625  0.3432  0.0131
 4276TIP3    H134463   5.214   0.324   8.193  0.0819  0.1044 -2.2893
 4276TIP3    H234464   5.082   0.274   8.139 -0.4051 -1.1903 -0.0304
 4277TIP3   OH234465   6.951   6.820   0.690 -0.3607 -0.1231  0.2189
 4277TIP3    H134466   7.040   6.788   0.707 -0.0066 -0.1757 -1.5023
 4277TIP3    H234467   6.897   6.741   0.686 -0.4640 -0.1033  1.0962
 4278TIP3   OH234468   2.957   1.384   7.930 -0.5177  0.1827  0.6015
 4278TIP3    H134469   3.017   1.365   7.858 -2.1723 -0.6247 -0.6363
 4278TIP3    H234470   2.973   1.476   7.952 -0.2125  0.5358 -1.0335
 4279TIP3   OH234471   5.997   5.187   1.639  0.5783 -0.4319 -0.3940
 4279TIP3    H134472   5.928   5.251   1.624 -0.3332 -1.4568 -0.6916
 4279TIP3    H234473   5.954   5.115   1.687  1.9790 -0.0550  1.5595
 4280TIP3   OH234474   2.123   0.788   1.407 -0.3808  0.1915 -0.4153
 4280TIP3    H134475   2.164   0.703   1.423  0.2823  0.5534 -0.1063
 4280TIP3    H234476   2.064   0.800   1.481  0.7889  0.7339  0.4726
 4281TIP3   OH234477   0.048   2.702   1.353  0.3356 -0.4146  0.2648
 4281TIP3    H134478   0.029   2.778   1.408  0.8413 -0.6068  0.7155
 4281TIP3    H234479   0.106   2.737   1.285  0.6427 -0.4135  0.5245
 4282TIP3   OH234480   6.984   3.337   2.765 -0.1147  0.1282  0.8585
 4282TIP3    H134481   6.898   3.318   2.802 -0.6527  2.7511  1.1680
 4282TIP3    H234482   6.966   3.402   2.697  1.4362 -0.8009 -0.5128
 4283TIP3   OH234483   1.036   0.802   0.472 -0.3710 -0.0297 -0.4456
 4283TIP3    H134484   1.062   0.893   0.466  0.9366 -0.4779 -2.5298
 4283TIP3    H234485   0.990   0.795   0.556  2.4787  1.7774  1.4162
 4284TIP3   OH234486   4.872   5.722   8.304  0.1459  0.3481 -0.3597
 4284TIP3    H134487   4.816   5.662   8.354  0.2301  0.4571 -0.1348
 4284TIP3    H234488   4.961   5.692   8.321  0.1263 -0.4451 -1.5087
 4285TIP3   OH234489   1.485   5.251   1.404  0.3209 -0.1018 -0.4633
 4285TIP3    H134490   1.553   5.230   1.468 -0.3271 -0.4544  0.1205
 4285TIP3    H234491   1.517   5.330   1.360  0.0869  1.0906  1.3825
 4286TIP3   OH234492   6.126   5.652   1.438  0.7496  0.7698 -0.4555
 4286TIP3    H134493   6.129   5.678   1.345 -0.6433 -0.1947 -0.7933
 4286TIP3    H234494   6.200   5.592   1.448  0.7311  0.6453 -1.0226
 4287TIP3   OH234495   6.321   3.756   2.326  0.1433 -0.2780 -0.1501
 4287TIP3    H134496   6.335   3.832   2.383 -0.3441  0.0886 -0.5152
 4287TIP3    H234497   6.372   3.686   2.366 -2.1426 -0.7598  2.2216
 4288TIP3   OH234498   4.518   4.648   1.677 -0.0114 -0.0382 -0.3605
 4288TIP3    H134499   4.491   4.703   1.603  1.1726  1.1360  0.0393
 4288TIP3    H234500   4.525   4.709   1.750 -1.1176 -1.1777  0.7428
 4289TIP3   OH234501   3.506   4.486   1.835 -0.1348  0.2717  0.1419
 4289TIP3    H134502   3.598   4.511   1.843 -0.1021 -0.1166  1.0589
 4289TIP3    H234503   3.495   4.463   1.742  0.3674  1.5369 -0.2441
 4290TIP3   OH234504   4.057   5.619   6.930 -0.0725  0.2140  0.1203
 4290TIP3    H134505   4.134   5.672   6.953 -1.1602  1.6570  0.6423
 4290TIP3    H234506   3.987   5.684   6.918 -1.4043 -1.1048  0.5003
 4291TIP3   OH234507   1.841   3.809   0.822 -0.0167  0.1777  0.0898
 4291TIP3    H134508   1.812   3.734   0.873  1.1866 -0.6944 -0.4668
 4291TIP3    H234509   1.817   3.885   0.876 -0.3741 -0.6308  1.1070
 4292TIP3   OH234510   1.825   0.343   0.501  0.3441 -0.0702  0.2024
 4292TIP3    H134511   1.750   0.355   0.560  0.9354 -2.5338  1.6254
 4292TIP3    H234512   1.898   0.324   0.560  2.2125  2.3795 -1.1360
 4293TIP3   OH234513   5.061   3.864   1.535  0.1460 -0.1425 -0.0013
 4293TIP3    H134514   5.025   3.804   1.470 -1.6824  1.0724 -0.1661
 4293TIP3    H234515   4.987   3.918   1.563  1.7858  2.4798 -0.3135
 4294TIP3   OH234516   2.218   4.491   7.952 -0.5948 -0.2480  0.1724
 4294TIP3    H134517   2.245   4.549   8.023 -0.2517  0.5077 -0.5514
 4294TIP3    H234518   2.129   4.519   7.930 -0.5963 -0.2931  0.1206
 4295TIP3   OH234519   4.523   1.220   1.036  0.5439  0.3891  0.0038
 4295TIP3    H134520   4.605   1.266   1.051  0.0872  1.1737  0.1461
 4295TIP3    H234521   4.514   1.162   1.112  1.4516 -0.4619 -0.5041
 4296TIP3   OH234522   2.456   3.932   0.306  0.4154 -0.0137  0.1363
 4296TIP3    H134523   2.500   3.925   0.390  1.1133 -1.0888 -0.2931
 4296TIP3    H234524   2.493   3.862   0.253 -2.0864 -1.2536 -0.1448
 4297TIP3   OH234525   3.231   6.937   0.703  0.9948  0.2196 -0.2707
 4297TIP3    H134526   3.158   6.996   0.720 -0.3399 -0.8787 -1.9014
 4297TIP3    H234527   3.290   6.987   0.648  0.3294  0.3485 -0.8739
 4298TIP3   OH234528   5.181   2.215   8.289 -0.8004  0.9091 -0.3086
 4298TIP3    H134529   5.206   2.122   8.289  0.0937  1.1339  0.0906
 4298TIP3    H234530   5.088   2.215   8.310 -0.9464  0.0739 -0.9140
 4299TIP3   OH234531   1.977   2.369   2.066  0.3218  0.4222 -0.2208
 4299TIP3    H134532   2.048   2.416   2.023  0.2110  2.1635  1.3701
 4299TIP3    H234533   1.901   2.383   2.009  0.7858  0.3014 -0.8725
 4300TIP3   OH234534   3.190   4.132   2.233 -0.1734 -0.1052  0.3655
 4300TIP3    H134535   3.223   4.183   2.307  0.8345 -1.1991  0.7195
 4300TIP3    H234536   3.193   4.193   2.159 -0.7737  0.8753  1.1262
 4301TIP3   OH234537   5.629   5.467   0.862 -0.1897  0.5316 -0.1674
 4301TIP3    H134538   5.671   5.382   0.854 -0.8480  0.0831  0.9939
 4301TIP3    H234539   5.599   5.487   0.773 -0.8294 -0.8731 -0.2933
 4302TIP3   OH234540   4.494   1.781   7.647  0.0007 -0.1503 -0.9773
 4302TIP3    H134541   4.402   1.802   7.633  0.0516  1.5023  0.7151
 4302TIP3    H234542   4.495   1.726   7.725  0.4999  1.1197 -0.0425
 4303TIP3   OH234543   3.159   2.866   0.155  0.2508  0.2587 -0.7839
 4303TIP3    H134544   3.107   2.785   0.152 -0.7337  0.6905  1.8256
 4303TIP3    H234545   3.141   2.909   0.071 -1.4209 -0.9345 -1.0973
 4304TIP3   OH234546   2.547   2.163   7.193 -0.5249  0.4106  0.0641
 4304TIP3    H134547   2.567   2.075   7.163  1.8045  0.8074  0.2193
 4304TIP3    H234548   2.462   2.183   7.154 -0.7754 -1.6198 -0.5581
 4305TIP3   OH234549   0.119   4.521   1.495  0.3663  0.1233 -0.0956
 4305TIP3    H134550   0.166   4.588   1.445  1.6481  0.4630  1.4530
 4305TIP3    H234551   0.151   4.438   1.459 -0.2192  0.3249 -1.1267
 4306TIP3   OH234552   1.072   6.708   8.016 -0.2299  0.1327  0.7064
 4306TIP3    H134553   1.029   6.664   8.090  0.6053 -0.8409  0.6294
 4306TIP3    H234554   1.094   6.637   7.956 -0.3078  0.8482 -0.1806
 4307TIP3   OH234555   3.381   3.501   7.619 -0.0221  0.2476 -0.2019
 4307TIP3    H134556   3.410   3.459   7.538  2.4288  0.6887  0.3792
 4307TIP3    H234557   3.432   3.458   7.687  1.4151  3.0101  0.5857
 4308TIP3   OH234558   1.906   5.562   0.199  0.3198 -0.3521 -0.2755
 4308TIP3    H134559   1.920   5.504   0.124 -1.2018  2.8180 -3.2852
 4308TIP3    H234560   1.812   5.555   0.218  0.3361  0.2814  0.0868
 4309TIP3   OH234561   2.260   2.862   0.525 -0.1405  0.4682  0.6806
 4309TIP3    H134562   2.274   2.777   0.484 -0.4036 -0.0293  1.5967
 4309TIP3    H234563   2.175   2.892   0.490 -1.0279 -0.5776  1.8744
 4310TIP3   OH234564   0.044   3.713   0.445 -0.0300 -0.0976  0.6144
 4310TIP3    H134565  -0.049   3.707   0.470 -0.0056  0.3185  0.8311
 4310TIP3    H234566   0.043   3.758   0.360 -0.0004  0.4845  0.9126
 4311TIP3   OH234567   3.632   6.194   1.750  0.0436  0.2494  0.0132
 4311TIP3    H134568   3.686   6.259   1.705 -0.5366  0.1641 -0.8283
 4311TIP3    H234569   3.644   6.114   1.699 -0.4047  0.0759  0.1731
 4312TIP3   OH234570   4.351   5.522   8.350  0.6259 -0.2495  0.5180
 4312TIP3    H134571   4.364   5.437   8.308  1.7592 -0.6421  1.6156
 4312TIP3    H234572   4.276   5.560   8.304  0.6452 -1.4614 -0.5706
 4313TIP3   OH234573   4.935   6.058   0.295  0.2699 -0.0861  0.0580
 4313TIP3    H134574   4.901   6.076   0.207  0.6738  0.0906 -0.0663
 4313TIP3    H234575   5.025   6.090   0.292  0.6751 -1.1609  0.1553
 4314TIP3   OH234576   3.381   2.898   1.825 -0.0998 -0.0223  0.3537
 4314TIP3    H134577   3.339   2.928   1.744 -1.0018  0.8221  1.1117
 4314TIP3    H234578   3.447   2.965   1.844  1.3011 -1.0795 -0.5521
 4315TIP3   OH234579   0.810   6.032   7.632 -0.5886 -0.5119 -0.3871
 4315TIP3    H134580   0.825   6.077   7.715 -0.4127 -2.6606  0.8245
 4315TIP3    H234581   0.794   6.102   7.569 -0.9113  1.1821  1.4797
 4316TIP3   OH234582   5.723   2.839   8.098  0.3562  0.2091 -0.0924
 4316TIP3    H134583   5.740   2.930   8.075 -0.4899  0.3037 -0.3965
 4316TIP3    H234584   5.628   2.836   8.115  0.5280 -0.4159  0.8257
 4317TIP3   OH234585   1.300   3.586   6.947 -0.0836  0.0503 -0.2298
 4317TIP3    H134586   1.303   3.654   6.879 -1.2720  0.4145  0.0578
 4317TIP3    H234587   1.299   3.635   7.029 -0.1049 -0.3471  0.0089
 4318TIP3   OH234588   2.766   1.655   1.551 -0.1195  0.3175  0.0309
 4318TIP3    H134589   2.858   1.643   1.574 -0.2130  1.2823  0.9784
 4318TIP3    H234590   2.761   1.746   1.521 -0.5941 -0.0106 -0.9281
 4319TIP3   OH234591   4.250   0.298   8.230  0.0721  0.0851  0.3513
 4319TIP3    H134592   4.194   0.354   8.284  1.0552  0.2765  1.2050
 4319TIP3    H234593   4.242   0.211   8.268  0.0655  0.0420  0.2512
 4320TIP3   OH234594   5.180   0.241   7.389  0.3547  0.0448 -0.4745
 4320TIP3    H134595   5.266   0.280   7.407  1.1550 -1.8006  0.0011
 4320TIP3    H234596   5.195   0.185   7.313 -0.5456  0.0703 -0.6747
 4321TIP3   OH234597   6.537   5.407   2.346  0.2895  0.2590  0.5460
 4321TIP3    H134598   6.497   5.481   2.300 -1.9479 -0.4707  1.1968
 4321TIP3    H234599   6.482   5.394   2.423  1.3524 -1.3163  1.0864
 4322TIP3   OH234600   4.237   0.731   0.928  0.1331  0.1045  0.2470
 4322TIP3    H134601   4.165   0.716   0.990  0.3400  1.1243  0.7391
 4322TIP3    H234602   4.316   0.718   0.979  0.3142  1.8235  0.4487
 4323TIP3   OH234603   3.124   5.388   2.285 -0.1261 -0.0697  0.1394
 4323TIP3    H134604   3.056   5.323   2.304 -0.3380  0.4375  1.1804
 4323TIP3    H234605   3.075   5.468   2.263  0.1406  0.1094  0.1945
 4324TIP3   OH234606   6.328   3.493   0.134  0.1882  0.1011  0.1654
 4324TIP3    H134607   6.385   3.419   0.157 -0.5623 -0.7633 -0.6527
 4324TIP3    H234608   6.385   3.570   0.141  2.0733 -0.8873 -2.4378
 4325TIP3   OH234609   3.976   2.645   0.593  0.3201 -0.1267 -0.1918
 4325TIP3    H134610   3.986   2.550   0.590  0.8698 -0.0829  0.0197
 4325TIP3    H234611   4.064   2.678   0.576 -0.0484  0.3673 -1.1941
 4326TIP3   OH234612   1.731   1.353   1.406 -0.3379  0.0920  0.4515
 4326TIP3    H134613   1.743   1.397   1.322  2.1380 -0.5463  0.3791
 4326TIP3    H234614   1.662   1.288   1.390 -0.8685  0.8978 -0.6779
 4327TIP3   OH234615   2.327   1.825   0.701 -0.0919 -0.0123  0.7969
 4327TIP3    H134616   2.334   1.834   0.796  0.4445 -2.2935  1.0439
 4327TIP3    H234617   2.417   1.808   0.672  0.0237  2.2175 -0.3853
 4328TIP3   OH234618   0.116   2.854   0.983  0.2234  0.0469 -0.0767
 4328TIP3    H134619   0.128   2.780   0.923 -0.3023  0.3493 -0.5656
 4328TIP3    H234620   0.183   2.842   1.050  0.6704 -0.4267 -0.5995
 4329TIP3   OH234621   4.468   3.948   0.622  0.1250 -0.6707 -0.0960
 4329TIP3    H134622   4.397   4.010   0.606  0.0067 -0.6209  0.6174
 4329TIP3    H234623   4.447   3.907   0.706 -0.7119 -2.9445 -1.3326
 4330TIP3   OH234624   4.337   6.926   2.201  0.3890 -1.0957  0.2291
 4330TIP3    H134625   4.296   6.866   2.263 -0.5974 -1.3328 -0.6227
 4330TIP3    H234626   4.429   6.898   2.197  0.7668 -0.3218  2.4478
 4331TIP3   OH234627   1.539   1.682   1.866  0.3864 -0.1823  0.1384
 4331TIP3    H134628   1.452   1.654   1.837  0.1958 -0.4276  0.9009
 4331TIP3    H234629   1.598   1.654   1.797 -0.0961 -0.3809 -0.1988
 4332TIP3   OH234630   4.784   5.901   0.664 -0.7989 -0.2099  0.0939
 4332TIP3    H134631   4.707   5.847   0.681 -1.6563  0.1635 -2.1554
 4332TIP3    H234632   4.801   5.889   0.570  0.8272  1.0709  0.1773
 4333TIP3   OH234633   3.623   3.511   0.206 -0.1145  0.4673 -0.0347
 4333TIP3    H134634   3.603   3.503   0.299 -1.0451  1.3440 -0.1344
 4333TIP3    H234635   3.653   3.424   0.180  0.3853  0.2758  1.1270
 4334TIP3   OH234636   0.392   5.896   8.091  0.7599  0.2724  0.0545
 4334TIP3    H134637   0.354   5.856   8.169  0.3183 -1.6694 -1.0745
 4334TIP3    H234638   0.328   5.960   8.062  0.1151 -0.2350  0.3379
 4335TIP3   OH234639   2.288   4.481   6.523 -0.0301  0.5657  0.0042
 4335TIP3    H134640   2.230   4.483   6.599  0.1342  1.6171  0.1162
 4335TIP3    H234641   2.280   4.568   6.484  1.1993  0.6209 -0.1809
 4336TIP3   OH234642   4.789   5.350   7.214 -0.3552  0.0544  0.1459
 4336TIP3    H134643   4.774   5.308   7.129 -2.5226 -0.7285  0.8522
 4336TIP3    H234644   4.803   5.442   7.192  2.9676 -0.6244 -1.3073
 4337TIP3   OH234645   6.326   1.382   6.973  0.2621  0.1490 -0.4007
 4337TIP3    H134646   6.392   1.388   6.905  0.1005  1.5161 -0.4804
 4337TIP3    H234647   6.254   1.436   6.941 -0.7404 -1.0011 -0.1406
 4338TIP3   OH234648   2.140   6.999   1.689  0.1501  0.2802  0.0893
 4338TIP3    H134649   2.067   6.984   1.629  0.8142  0.1510 -0.7065
 4338TIP3    H234650   2.209   7.034   1.633  1.0343 -0.5297  0.6502
 4339TIP3   OH234651   5.471   3.090   1.044 -0.1409 -0.0994  0.1912
 4339TIP3    H134652   5.475   3.130   1.131  0.6544 -0.1755  0.1981
 4339TIP3    H234653   5.415   3.013   1.056 -0.0167 -0.1257  0.6461
 4340TIP3   OH234654   0.183   2.711   7.458  0.4489  0.0953 -0.1583
 4340TIP3    H134655   0.090   2.701   7.436  0.2233 -1.6685  1.3090
 4340TIP3    H234656   0.225   2.731   7.375 -1.2377  0.9799 -0.8560
 4341TIP3   OH234657   3.811   4.118   7.570  0.1340 -0.3675 -0.2434
 4341TIP3    H134658   3.802   4.074   7.654 -2.7757  0.9585  0.2538
 4341TIP3    H234659   3.723   4.115   7.532  1.2206 -0.4023 -3.0076
 4342TIP3   OH234660   0.480   6.881   0.782 -0.1134 -0.3287 -0.2947
 4342TIP3    H134661   0.565   6.853   0.815  0.2874  2.4959  1.4001
 4342TIP3    H234662   0.493   6.972   0.757 -3.0999  0.9200  2.1178
 4343TIP3   OH234663   1.992   1.759   0.961  0.1455 -0.3628  0.1763
 4343TIP3    H134664   1.912   1.741   1.010 -0.0842  0.1250 -0.0124
 4343TIP3    H234665   2.062   1.722   1.015 -0.0518  0.6331  1.1438
 4344TIP3   OH234666   0.215   6.752   8.175 -0.0014  0.3890  0.7352
 4344TIP3    H134667   0.232   6.835   8.131  0.7329  0.5641  1.3182
 4344TIP3    H234668   0.121   6.739   8.167 -0.0628  1.0700  0.2719
 4345TIP3   OH234669   3.191   6.665   1.993 -0.0913 -0.0316 -0.1097
 4345TIP3    H134670   3.276   6.634   1.962  0.0868 -0.0752  0.4196
 4345TIP3    H234671   3.169   6.607   2.065 -0.4919  0.0877 -0.1360
 4346TIP3   OH234672   4.018   3.146   7.545  0.7837  0.6282  0.2225
 4346TIP3    H134673   3.936   3.152   7.497  0.3396 -0.8411  0.7264
 4346TIP3    H234674   3.995   3.173   7.634  1.3140  2.1158 -0.0699
 4347TIP3   OH234675   3.276   0.119   1.127  0.5944 -0.9518  0.2186
 4347TIP3    H134676   3.351   0.097   1.073  0.5710 -1.6946  0.4678
 4347TIP3    H234677   3.309   0.185   1.188  0.6226 -0.1327 -0.6771
 4348TIP3   OH234678   4.343   0.291   6.927 -0.1938 -0.4436  0.2888
 4348TIP3    H134679   4.379   0.214   6.882 -1.5936 -1.8620  1.5099
 4348TIP3    H234680   4.249   0.286   6.912 -0.1744  2.2630 -1.4063
 4349TIP3   OH234681   3.788   1.165   8.210 -0.0209 -0.5566  0.3931
 4349TIP3    H134682   3.714   1.178   8.270 -0.2818  0.2113 -0.0849
 4349TIP3    H234683   3.862   1.147   8.268  0.0596  1.6662  1.0833
 4350TIP3   OH234684   6.921   4.432   0.424 -0.5163 -0.0518  0.0251
 4350TIP3    H134685   6.988   4.376   0.463 -1.9896 -1.5962  0.4417
 4350TIP3    H234686   6.953   4.449   0.335  0.7299 -0.1838  0.4209
 4351TIP3   OH234687   4.394   5.962   0.035 -0.2046 -0.2067  0.6478
 4351TIP3    H134688   4.312   5.954  -0.013 -0.4455 -0.2422  1.0697
 4351TIP3    H234689   4.369   5.966   0.127  0.1858  1.0759  0.7194
 4352TIP3   OH234690   5.621   5.546   8.023  0.2359  0.2910 -0.1665
 4352TIP3    H134691   5.611   5.630   8.068 -3.4217 -0.4800  0.8301
 4352TIP3    H234692   5.586   5.481   8.084 -0.4345 -1.4397 -2.2562
 4353TIP3   OH234693   1.396   4.640   0.974  0.0890  0.7926 -0.4479
 4353TIP3    H134694   1.433   4.625   1.062 -1.3579  1.6062  0.3280
 4353TIP3    H234695   1.401   4.554   0.932  0.4241  0.2894  0.5713
 4354TIP3   OH234696   3.864   1.541   2.392 -0.2822  0.3083 -0.0929
 4354TIP3    H134697   3.889   1.631   2.410 -0.7589  0.2652  0.8409
 4354TIP3    H234698   3.793   1.523   2.453  0.0075 -0.7911 -0.0581
 4355TIP3   OH234699   2.260   5.008   0.581  0.1983 -0.0709 -0.0732
 4355TIP3    H134700   2.298   5.092   0.556  0.7780 -1.0691 -2.9368
 4355TIP3    H234701   2.169   5.014   0.552  0.7861 -1.1188 -2.3353
 4356TIP3   OH234702   0.970   2.777   1.328  0.0768 -0.1353 -0.4889
 4356TIP3    H134703   1.030   2.817   1.390 -0.8583  1.3801 -0.4968
 4356TIP3    H234704   1.022   2.710   1.283  0.8758 -0.9994  1.6165
 4357TIP3   OH234705   4.024   2.966   0.442 -0.2375 -0.1679  0.4001
 4357TIP3    H134706   4.115   2.947   0.421 -0.2933 -1.7318  1.4778
 4357TIP3    H234707   4.028   3.022   0.519 -0.1900 -0.8881  0.9280
 4358TIP3   OH234708   2.676   0.842   7.421  0.5870 -0.0240 -0.2309
 4358TIP3    H134709   2.686   0.863   7.514  1.7223  1.4206 -0.6523
 4358TIP3    H234710   2.583   0.819   7.412  0.7096 -1.3868  1.4632
 4359TIP3   OH234711   0.002   2.072   1.334 -0.0922 -0.1287  0.0342
 4359TIP3    H134712   0.040   2.019   1.263  0.1261  0.3705 -0.2230
 4359TIP3    H234713   0.056   2.151   1.336  0.1836 -0.3343  1.0625
 4360TIP3   OH234714   3.859   3.613   0.935 -0.4683  0.2232 -0.0603
 4360TIP3    H134715   3.805   3.557   0.991 -2.6633  0.0441 -2.2124
 4360TIP3    H234716   3.832   3.702   0.956 -1.1142  0.1687 -0.6504
 4361TIP3   OH234717   0.337   2.799   7.246 -0.3133 -0.3696  0.3969
 4361TIP3    H134718   0.431   2.798   7.266 -0.9277 -1.3199  3.9310
 4361TIP3    H234719   0.325   2.876   7.191  2.0516  2.1091  3.0223
 4362TIP3   OH234720   5.776   6.740   2.651  0.3850  0.2251  0.1172
 4362TIP3    H134721   5.730   6.708   2.574  2.1362  1.0876 -1.3618
 4362TIP3    H234722   5.733   6.823   2.673  1.2017  1.0576 -1.2917
 4363TIP3   OH234723   6.943   6.909   6.527  0.7011  0.0040  0.3380
 4363TIP3    H134724   6.952   6.829   6.580  1.5404 -1.4938 -1.9042
 4363TIP3    H234725   7.030   6.948   6.527  0.6068  0.2135  0.3896
 4364TIP3   OH234726   4.880   2.207   8.240 -0.1153  0.5928 -0.1003
 4364TIP3    H134727   4.892   2.160   8.158  0.5479  0.4185  0.0921
 4364TIP3    H234728   4.871   2.139   8.306  0.2175  0.7315  0.0912
 4365TIP3   OH234729   1.243   5.495   6.977  0.1975 -0.2484  0.0004
 4365TIP3    H134730   1.171   5.557   6.982  0.4748  0.3558 -2.4276
 4365TIP3    H234731   1.322   5.550   6.978  0.5871 -0.8031  1.1189
 4366TIP3   OH234732   3.830   2.895   7.738 -0.2714 -0.3226  0.0206
 4366TIP3    H134733   3.878   2.814   7.723  0.7370  0.5652 -1.8151
 4366TIP3    H234734   3.898   2.963   7.742 -1.1907  0.6276 -0.0128
 4367TIP3   OH234735   6.337   0.143   7.296  0.0734  0.2016 -0.0213
 4367TIP3    H134736   6.254   0.098   7.311 -0.2891  0.7032 -0.4896
 4367TIP3    H234737   6.355   0.130   7.202  0.1729  0.6779 -0.0713
 4368TIP3   OH234738   4.831   6.171   7.583 -0.5560  0.4154  0.0327
 4368TIP3    H134739   4.790   6.255   7.565 -0.9997  0.5846  1.6814
 4368TIP3    H234740   4.852   6.174   7.676  1.3263 -0.4927 -0.3059
 4369TIP3   OH234741   5.358   0.675   2.006  0.3318 -0.0914 -0.3423
 4369TIP3    H134742   5.330   0.583   2.009  1.1236 -0.3254  0.5203
 4369TIP3    H234743   5.448   0.671   1.974 -0.5159  0.6501 -3.0944
 4370TIP3   OH234744   2.331   1.557   0.594  0.1983  0.0304 -0.2408
 4370TIP3    H134745   2.304   1.644   0.624 -3.6730 -0.2067 -2.2606
 4370TIP3    H234746   2.312   1.499   0.668 -0.7776  0.4948 -0.1049
 4371TIP3   OH234747   0.640   5.097   0.071 -0.4212  0.2080 -0.1658
 4371TIP3    H134748   0.657   5.106   0.165  1.0281 -2.1652 -0.1349
 4371TIP3    H234749   0.716   5.136   0.029 -0.8924  0.9261 -0.3662
 4372TIP3   OH234750   2.748   6.797   6.684  0.1436 -0.5036  0.4044
 4372TIP3    H134751   2.694   6.722   6.710 -0.4631 -1.6003 -3.4259
 4372TIP3    H234752   2.687   6.854   6.637  1.4671  0.2679 -0.4241
 4373TIP3   OH234753   4.242   1.797   0.462  0.1187  0.6519  0.0452
 4373TIP3    H134754   4.311   1.732   0.468  0.5851  1.2859  3.2072
 4373TIP3    H234755   4.281   1.869   0.411  0.3468 -0.5659 -1.5718
 4374TIP3   OH234756   0.010   3.765   1.124  0.0066 -0.0733  0.1513
 4374TIP3    H134757  -0.064   3.803   1.172  0.3013  1.0068 -0.2111
 4374TIP3    H234758   0.005   3.671   1.142 -1.4804 -0.0216  0.0873
 4375TIP3   OH234759   5.577   4.271   1.833 -0.6521 -0.5212  0.3408
 4375TIP3    H134760   5.518   4.219   1.887 -0.1895 -0.7956  0.5922
 4375TIP3    H234761   5.665   4.251   1.867 -0.5436  1.6887  1.5825
 4376TIP3   OH234762   4.979   6.723   2.754  1.0562  0.6152 -0.3573
 4376TIP3    H134763   5.053   6.664   2.768  1.3729  1.0715 -0.0669
 4376TIP3    H234764   4.907   6.666   2.728  1.5059  0.1644 -0.6265
 4377TIP3   OH234765   1.698   4.235   8.279 -0.3880 -0.5783  0.1127
 4377TIP3    H134766   1.625   4.193   8.325 -0.1612  0.5941  1.6242
 4377TIP3    H234767   1.767   4.169   8.279 -0.7532 -0.9752  0.5445
 4378TIP3   OH234768   2.810   0.152   7.785 -0.1695 -0.7896 -0.8686
 4378TIP3    H134769   2.758   0.101   7.847 -0.5413 -1.3814 -1.6537
 4378TIP3    H234770   2.767   0.238   7.784  0.5439 -0.3784  0.5640
 4379TIP3   OH234771   3.515   5.867   0.057  0.0349  0.4401 -0.2381
 4379TIP3    H134772   3.441   5.809   0.038  0.5890  0.3419 -2.3694
 4379TIP3    H234773   3.577   5.812   0.104  0.1854 -0.5110 -1.4797
 4380TIP3   OH234774   5.142   5.005   2.166 -0.4850  0.6535 -0.3526
 4380TIP3    H134775   5.070   5.061   2.196 -0.3209  0.9512 -0.5134
 4380TIP3    H234776   5.221   5.054   2.186 -0.2686 -0.0496  0.6331
 4381TIP3   OH234777   6.583   2.478   0.988  0.2720 -0.1206 -0.7102
 4381TIP3    H134778   6.492   2.480   1.016  0.2359 -1.9398 -0.5731
 4381TIP3    H234779   6.584   2.417   0.914  1.3786 -0.0936 -0.7369
 4382TIP3   OH234780   1.253   5.591   2.772  0.1138 -0.0605  0.2579
 4382TIP3    H134781   1.215   5.679   2.764  1.7512  0.5773 -1.0332
 4382TIP3    H234782   1.177   5.533   2.774 -1.0063  1.3427  0.9003
 4383TIP3   OH234783   6.471   6.787   7.166  0.1810 -0.1577 -0.2136
 4383TIP3    H134784   6.557   6.826   7.184  1.2007 -1.5668 -1.7129
 4383TIP3    H234785   6.453   6.732   7.243 -0.0570  1.1746  0.7239
 4384TIP3   OH234786   6.979   1.060   0.764  0.0051  0.2667 -0.4242
 4384TIP3    H134787   6.980   1.065   0.668  1.4899 -1.0861 -0.5118
 4384TIP3    H234788   6.951   0.970   0.783  3.2656 -0.7225  0.2691
 4385TIP3   OH234789   2.232   5.706   0.129  0.1720  0.6611  0.5335
 4385TIP3    H134790   2.241   5.651   0.206  3.2750  1.1358  0.6612
 4385TIP3    H234791   2.206   5.646   0.059 -0.9415 -0.0855  1.5526
 4386TIP3   OH234792   4.014   6.937   2.561 -0.3847  0.4756 -0.0996
 4386TIP3    H134793   3.993   7.008   2.623  0.5084  0.4240  0.2811
 4386TIP3    H234794   4.107   6.920   2.576 -0.0484  0.7229 -1.7340
 4387TIP3   OH234795   6.779   2.957   0.159  0.3689  0.5619 -0.0358
 4387TIP3    H134796   6.727   2.985   0.084  0.4712  0.2347 -0.2306
 4387TIP3    H234797   6.716   2.944   0.230  0.0198 -1.0259 -0.6057
 4388TIP3   OH234798   6.175   6.871   1.562  0.1967  0.6795 -0.3065
 4388TIP3    H134799   6.090   6.854   1.602 -0.5293 -0.4981 -2.2236
 4388TIP3    H234800   6.234   6.887   1.636 -1.2697 -0.4337  1.1658
 4389TIP3   OH234801   3.318   0.281   1.363 -0.1182  0.0968 -0.5807
 4389TIP3    H134802   3.362   0.293   1.447 -0.0320 -0.4616 -0.5450
 4389TIP3    H234803   3.224   0.280   1.384 -0.1330  0.7033 -0.5875
 4390TIP3   OH234804   5.119   6.808   1.599 -0.0580  0.5252  0.1811
 4390TIP3    H134805   5.202   6.820   1.644 -0.9168 -0.1568  2.0228
 4390TIP3    H234806   5.075   6.738   1.647 -1.1939  0.0061 -1.5096
 4391TIP3   OH234807   6.358   1.452   7.673 -0.1352 -0.3794 -0.1738
 4391TIP3    H134808   6.267   1.479   7.660 -0.5413 -1.8051 -0.5565
 4391TIP3    H234809   6.388   1.503   7.748 -1.0832  0.4836 -0.3507
 4392TIP3   OH234810   0.818   0.776   2.595 -0.0856 -0.1678 -0.7005
 4392TIP3    H134811   0.750   0.735   2.542 -0.3531  1.4072 -1.6631
 4392TIP3    H234812   0.770   0.832   2.657  0.2823  0.6877 -1.1615
 4393TIP3   OH234813   3.746   3.985   7.805  0.3860  0.0828  0.4911
 4393TIP3    H134814   3.755   3.890   7.806 -1.7243 -0.2232 -1.4297
 4393TIP3    H234815   3.672   4.003   7.864  1.6545  0.7411  1.9712
 4394TIP3   OH234816   1.727   5.574   7.459 -0.3744  0.2471  0.2506
 4394TIP3    H134817   1.712   5.479   7.454 -0.6174  0.2651  0.6002
 4394TIP3    H234818   1.756   5.598   7.371 -1.2819  0.0057 -0.1343
 4395TIP3   OH234819   5.643   6.793   7.756 -0.6085  0.0845  0.6638
 4395TIP3    H134820   5.604   6.741   7.685 -1.4467 -0.1723  1.2939
 4395TIP3    H234821   5.571   6.807   7.817 -0.2042  1.3642  0.8710
 4396TIP3   OH234822   5.020   1.720   1.097 -0.3674 -0.2519  0.4316
 4396TIP3    H134823   4.948   1.672   1.138  1.3590 -0.6338  3.2921
 4396TIP3    H234824   4.991   1.811   1.096 -0.7219 -0.3097  2.1091
 4397TIP3   OH234825   0.037   1.670   7.888 -0.2127  0.4688 -0.4773
 4397TIP3    H134826  -0.053   1.643   7.903 -0.2558  0.1749 -1.2093
 4397TIP3    H234827   0.088   1.621   7.953 -0.6375  1.1240  0.3637
 4398TIP3   OH234828   5.542   2.369   2.283  0.4995  0.5166 -0.7330
 4398TIP3    H134829   5.456   2.367   2.240  0.6064  0.2276 -0.9395
 4398TIP3    H234830   5.601   2.405   2.217  1.2378 -2.6081 -1.9214
 4399TIP3   OH234831   3.116   2.405   2.311 -0.3531 -0.0553 -0.7390
 4399TIP3    H134832   3.126   2.310   2.318  0.9388  0.1346  0.4954
 4399TIP3    H234833   3.022   2.419   2.312 -0.5583 -1.3122 -0.5906
 4400TIP3   OH234834   6.376   2.354   7.437  0.5005 -0.1204  0.4517
 4400TIP3    H134835   6.285   2.366   7.408  1.2274 -1.3589 -2.8079
 4400TIP3    H234836   6.424   2.426   7.396  1.1550 -0.0385  1.3398
 4401TIP3   OH234837   5.050   4.983   1.207 -0.4339  0.3275  0.3709
 4401TIP3    H134838   5.132   5.017   1.170 -0.9126  0.1882 -0.8829
 4401TIP3    H234839   5.068   4.974   1.300  0.7430  0.9921  0.2372
 4402TIP3   OH234840   5.792   4.933   0.616  0.0122  0.1564  0.0949
 4402TIP3    H134841   5.800   5.027   0.603 -0.8867  0.3060  0.5577
 4402TIP3    H234842   5.703   4.921   0.650  0.6588 -0.6933  1.5779
 4403TIP3   OH234843   3.966   5.068   6.943 -0.6768  0.5965 -0.0362
 4403TIP3    H134844   4.047   5.021   6.926 -0.2653  0.1278  2.8519
 4403TIP3    H234845   3.981   5.155   6.906  0.2421 -0.1415 -1.4912
 4404TIP3   OH234846   3.852   5.179   2.640 -0.0002  0.1226  0.0123
 4404TIP3    H134847   3.870   5.202   2.731  0.4008 -1.1388  0.2746
 4404TIP3    H234848   3.889   5.251   2.590 -0.6057  1.0413  0.8591
 4405TIP3   OH234849   5.623   1.983   1.988  0.1033 -0.6276  0.3524
 4405TIP3    H134850   5.669   1.909   1.948  0.3991 -1.6011  2.4000
 4405TIP3    H234851   5.578   2.025   1.914  2.1288 -1.1850 -1.3115
 4406TIP3   OH234852   2.755   4.007   8.300  0.0577 -0.0062  0.0176
 4406TIP3    H134853   2.670   4.049   8.301  0.2676  0.4634 -0.7933
 4406TIP3    H234854   2.736   3.914   8.284 -0.2531  0.2878 -1.5068
 4407TIP3   OH234855   2.597   4.498   1.841 -0.6059 -0.2453 -0.1323
 4407TIP3    H134856   2.575   4.419   1.890 -2.1002  0.4822  0.4148
 4407TIP3    H234857   2.515   4.546   1.834 -0.0231  0.6011 -1.6925
 4408TIP3   OH234858   4.104   0.737   7.916 -0.6993 -0.0736  0.8854
 4408TIP3    H134859   4.193   0.728   7.950 -0.0716  0.9674 -0.4133
 4408TIP3    H234860   4.067   0.810   7.966 -0.1144  0.8145  0.0519
 4409TIP3   OH234861   1.938   1.364   2.793  0.2384 -0.4134 -0.1189
 4409TIP3    H134862   1.910   1.345   2.883  0.7760 -1.5925 -0.1707
 4409TIP3    H234863   1.932   1.459   2.785 -0.7330 -0.3708  0.8543
 4410TIP3   OH234864   1.979   1.270   0.679  0.4713  0.3003  0.3913
 4410TIP3    H134865   1.939   1.248   0.595  0.8078  1.4871 -0.0976
 4410TIP3    H234866   2.058   1.217   0.683 -0.0034 -0.4222  0.3684
 4411TIP3   OH234867   3.628   6.488   2.165 -0.3039  0.0201  0.0531
 4411TIP3    H134868   3.638   6.395   2.185  1.4406 -0.3715 -2.1926
 4411TIP3    H234869   3.713   6.526   2.184 -1.3980  1.5405  2.3139
 4412TIP3   OH234870   6.861   6.618   6.683 -0.0053  0.1661  0.3341
 4412TIP3    H134871   6.788   6.579   6.732  0.9149 -3.0085 -0.5698
 4412TIP3    H234872   6.897   6.684   6.742  0.1355 -2.4012  3.3886
 4413TIP3   OH234873   0.290   1.288   6.773 -0.0416 -0.3884  0.0386
 4413TIP3    H134874   0.207   1.252   6.742  1.6836 -2.2562 -2.7856
 4413TIP3    H234875   0.277   1.383   6.771 -2.5163 -0.6344  1.0805
 4414TIP3   OH234876   1.916   3.238   0.534  0.3208 -0.1926 -0.3023
 4414TIP3    H134877   1.910   3.231   0.629 -0.6762 -0.6946 -0.3921
 4414TIP3    H234878   1.926   3.332   0.518  0.7758 -0.1290  0.3023
 4415TIP3   OH234879   0.263   4.934   0.519 -0.0235  0.1583 -0.0534
 4415TIP3    H134880   0.333   4.894   0.468 -0.4938  0.9708 -1.3534
 4415TIP3    H234881   0.182   4.904   0.477 -0.3965  2.0937 -0.8105
 4416TIP3   OH234882   6.279   5.528   1.953 -0.8627 -0.1983  0.0381
 4416TIP3    H134883   6.369   5.508   1.978 -0.4094 -1.2622 -2.1177
 4416TIP3    H234884   6.241   5.442   1.931 -1.1171  0.5280 -2.7949
 4417TIP3   OH234885   0.281   2.780   1.208  0.3092  0.0111 -0.8317
 4417TIP3    H134886   0.360   2.821   1.242  0.0220  1.1109 -1.4125
 4417TIP3    H234887   0.307   2.691   1.184  1.2554  0.2290 -0.6270
 4418TIP3   OH234888   6.727   0.946   8.097 -0.0301 -0.0364  0.0906
 4418TIP3    H134889   6.738   0.989   8.181  2.0747 -0.8592  0.2939
 4418TIP3    H234890   6.727   1.017   8.033 -0.1392  0.4945  0.6701
 4419TIP3   OH234891   0.448   4.795   6.786  0.1249  0.1380 -0.0873
 4419TIP3    H134892   0.539   4.787   6.758 -0.0027  1.1132 -0.8519
 4419TIP3    H234893   0.414   4.871   6.737 -0.5229  1.0725  1.6901
 4420TIP3   OH234894   0.072   3.020   6.970  0.1266 -0.6542  0.7679
 4420TIP3    H134895   0.148   2.999   6.916 -0.2068 -0.5171  0.2444
 4420TIP3    H234896   0.089   3.110   7.000 -1.0778  0.4128 -1.5459
 4421TIP3   OH234897   3.377   5.788   0.682  0.2419 -0.2257  0.4448
 4421TIP3    H134898   3.418   5.714   0.727 -0.6884  0.1363  1.9595
 4421TIP3    H234899   3.283   5.776   0.697 -0.1785 -0.3813 -1.9183
 4422TIP3   OH234900   5.688   4.159   1.296 -0.3075 -0.2951 -0.2538
 4422TIP3    H134901   5.618   4.127   1.240 -0.8116  0.9116 -0.3442
 4422TIP3    H234902   5.759   4.181   1.235  0.4443 -2.1716 -0.1048
 4423TIP3   OH234903   5.214   4.666   0.977 -0.5046  0.4204 -0.0926
 4423TIP3    H134904   5.119   4.677   0.981 -0.2748  3.1160 -0.6991
 4423TIP3    H234905   5.245   4.692   1.064 -0.2852 -0.7828  0.2199
 4424TIP3   OH234906   5.520   4.041   1.102  0.4936  0.5502  0.2570
 4424TIP3    H134907   5.509   4.111   1.038 -0.5889 -0.3291 -0.5475
 4424TIP3    H234908   5.440   3.989   1.095  1.7746 -1.4894 -0.0815
 4425TIP3   OH234909   1.131   1.879   6.766  0.0552 -0.4295 -0.1793
 4425TIP3    H134910   1.168   1.828   6.693  0.2557 -2.3097  1.1584
 4425TIP3    H234911   1.196   1.948   6.782  1.1050 -1.3353 -0.3795
 4426TIP3   OH234912   6.987   2.095   0.527 -0.4832 -0.2137 -0.6080
 4426TIP3    H134913   7.071   2.124   0.492 -1.2735  0.6442 -1.9084
 4426TIP3    H234914   6.973   2.009   0.488  0.0096 -0.5762  0.0059
 4427TIP3   OH234915   0.831   2.407   1.448  0.1477 -0.7667  0.0775
 4427TIP3    H134916   0.753   2.431   1.398  0.8449 -0.6380 -0.9592
 4427TIP3    H234917   0.796   2.364   1.526 -1.0606  1.2694  0.7611
 4428TIP3   OH234918   4.677   1.050   1.620  0.2465  0.1038  0.3177
 4428TIP3    H134919   4.596   1.007   1.648  0.5992 -1.2488 -0.6258
 4428TIP3    H234920   4.706   1.099   1.697 -1.7452  1.1135  0.5147
 4429TIP3   OH234921   2.764   5.598   3.365 -0.0805  0.0278  0.2041
 4429TIP3    H134922   2.769   5.668   3.300  0.9511 -0.4797 -0.2723
 4429TIP3    H234923   2.710   5.635   3.435  1.7377  1.8954  0.6964
 4430TIP3   OH234924   2.994   4.607   1.929 -0.2302  0.1215  0.5348
 4430TIP3    H134925   3.061   4.578   1.867 -0.7337  1.5809 -0.7776
 4430TIP3    H234926   2.999   4.546   2.002  0.9949 -1.1351 -0.5641
 4431TIP3   OH234927   2.132   5.862   2.803  0.0970  0.0113 -0.3958
 4431TIP3    H134928   2.196   5.902   2.861  1.0002 -0.0562 -1.3257
 4431TIP3    H234929   2.070   5.932   2.784  2.0340  1.2634 -2.5595
 4432TIP3   OH234930   5.506   0.667   1.652  0.3331  0.4309 -0.1272
 4432TIP3    H134931   5.432   0.709   1.696  0.5481 -0.0665  0.7380
 4432TIP3    H234932   5.467   0.625   1.575 -0.2177  0.5280  0.0918
 4433TIP3   OH234933   2.392   0.203   0.940  0.1522  0.3308  0.1784
 4433TIP3    H134934   2.359   0.293   0.932 -1.0393  0.0223  1.2351
 4433TIP3    H234935   2.322   0.156   0.987 -0.4312 -1.8134 -2.5654
 4434TIP3   OH234936   4.311   3.523   0.037  0.2731 -0.2610  0.1986
 4434TIP3    H134937   4.287   3.580   0.110  1.1169 -0.1036  0.3595
 4434TIP3    H234938   4.267   3.440   0.056 -0.6194  0.2022  0.1764
 4435TIP3   OH234939   6.624   3.385   0.065 -0.6276 -0.2809 -0.3460
 4435TIP3    H134940   6.679   3.329   0.010 -0.9959 -0.5102 -0.4953
 4435TIP3    H234941   6.602   3.330   0.140 -2.4926 -1.0256 -1.3673
 4436TIP3   OH234942   0.637   5.905   8.215  0.1649 -0.5232 -0.8776
 4436TIP3    H134943   0.548   5.909   8.179 -0.4590  0.7747  0.6608
 4436TIP3    H234944   0.643   5.817   8.253 -1.0001 -0.1744  0.1976
 4437TIP3   OH234945   3.492   1.070   7.470 -0.1418  0.3140  0.3295
 4437TIP3    H134946   3.413   1.098   7.422 -1.3224 -2.6983  0.2980
 4437TIP3    H234947   3.479   1.104   7.559 -2.8899 -2.2145  1.0592
 4438TIP3   OH234948   2.533   1.142   0.173 -1.0497  0.2478  0.1783
 4438TIP3    H134949   2.517   1.129   0.080  0.3273 -0.0537 -0.0393
 4438TIP3    H234950   2.552   1.235   0.182  2.3200 -0.2526 -0.4779
 4439TIP3   OH234951   6.154   3.745   7.573 -0.4531 -0.1385  0.0538
 4439TIP3    H134952   6.119   3.667   7.617 -2.1553  0.1701 -0.6609
 4439TIP3    H234953   6.207   3.788   7.640 -3.2503  0.5087  2.0489
 4440TIP3   OH234954   3.554   5.436   2.743  0.0048 -0.3239  0.0256
 4440TIP3    H134955   3.474   5.469   2.783  1.5638  2.0766  1.4248
 4440TIP3    H234956   3.604   5.400   2.816  0.1924 -1.9215 -0.8470
 4441TIP3   OH234957   2.075   1.788   7.302  0.1277  0.1966 -0.3680
 4441TIP3    H134958   2.144   1.840   7.261 -0.9891  2.0152 -0.0377
 4441TIP3    H234959   2.093   1.794   7.396 -0.2654  0.3714 -0.3015
 4442TIP3   OH234960   1.730   1.392   1.751 -0.6360 -0.6014 -0.4948
 4442TIP3    H134961   1.698   1.341   1.677 -1.4986  1.1483 -1.4084
 4442TIP3    H234962   1.668   1.375   1.822 -0.6377 -1.1706 -0.6355
 4443TIP3   OH234963   0.354   3.079   1.085  0.3071  0.3652 -0.6196
 4443TIP3    H134964   0.302   3.059   1.006 -0.4564  0.4616 -0.1474
 4443TIP3    H234965   0.289   3.099   1.152  0.9049 -0.7339  0.3227
 4444TIP3   OH234966   6.067   5.167   0.244 -0.3098 -0.0617 -0.0563
 4444TIP3    H134967   5.978   5.152   0.276 -1.5039  0.6858 -2.6796
 4444TIP3    H234968   6.095   5.082   0.211  0.5535 -0.6166  1.9979
 4445TIP3   OH234969   6.492   1.929   1.707  0.5818 -0.2877  0.2832
 4445TIP3    H134970   6.522   1.906   1.795 -0.7443  1.1442  1.1614
 4445TIP3    H234971   6.429   2.000   1.721 -0.3632 -0.6507 -1.7432
 4446TIP3   OH234972   0.459   5.184   1.630  0.1319  0.2988 -0.4188
 4446TIP3    H134973   0.521   5.118   1.599  1.2973 -0.2484  2.6984
 4446TIP3    H234974   0.512   5.262   1.644 -0.3655  0.5761 -0.0279
 4447TIP3   OH234975   5.026   6.534   7.582 -0.0146  0.1476  0.0179
 4447TIP3    H134976   4.976   6.615   7.579 -1.6939 -0.6571  2.5131
 4447TIP3    H234977   5.075   6.538   7.664 -0.8726 -1.6798  0.6911
 4448TIP3   OH234978   1.107   2.600   1.181 -0.7810 -0.2505  0.5405
 4448TIP3    H134979   1.040   2.544   1.140  0.9837 -1.4360 -0.8782
 4448TIP3    H234980   1.173   2.539   1.214 -0.4574  0.8825  2.0663
 4449TIP3   OH234981   4.013   6.863   0.335 -0.9009  0.4563  0.1926
 4449TIP3    H134982   4.108   6.855   0.320 -1.2058 -0.7328 -1.3736
 4449TIP3    H234983   3.986   6.778   0.369 -1.7578 -0.0929 -1.7288
 4450TIP3   OH234984   2.346   6.980   0.515 -0.2059  0.3038  0.0951
 4450TIP3    H134985   2.317   7.044   0.581 -2.2671 -1.2110  0.7836
 4450TIP3    H234986   2.376   6.905   0.566 -0.7349 -0.4521 -0.6804
 4451TIP3   OH234987   1.766   5.718   7.672 -0.1292  0.3187  0.4144
 4451TIP3    H134988   1.772   5.656   7.744  0.2995 -2.5418 -1.9168
 4451TIP3    H234989   1.743   5.665   7.596 -1.1812  3.2598 -1.4995
 4452TIP3   OH234990   2.159   0.071   1.045  0.5147  0.6571 -0.7846
 4452TIP3    H134991   2.143   0.133   1.116 -0.6947  0.4917 -0.8850
 4452TIP3    H234992   2.108  -0.007   1.068 -0.2337  0.7449 -1.9926
 4453TIP3   OH234993   2.970   3.866   7.730 -0.2275  0.2126 -0.3069
 4453TIP3    H134994   2.984   3.804   7.801 -2.3460 -1.5083 -1.2959
 4453TIP3    H234995   3.039   3.846   7.666  1.9409  2.0347  1.2990
 4454TIP3   OH234996   2.539   2.412   0.024  1.0599 -0.3463  0.3866
 4454TIP3    H134997   2.614   2.400  -0.034  1.6049  0.6271  0.8646
 4454TIP3    H234998   2.465   2.429  -0.035  1.1623 -1.4625 -0.0904
 4455TIP3   OH234999   5.964   5.571   1.640  0.1877  0.1067  0.0209
 4455TIP3    H135000   6.017   5.625   1.700  0.7972 -0.1156 -0.3135
 4455TIP3    H235001   6.023   5.548   1.569 -0.1377 -0.8058  0.0300
 4456TIP3   OH235002   4.493   0.125   8.248  0.5686  0.0562 -0.2058
 4456TIP3    H135003   4.521   0.092   8.333  1.6208  2.1031  0.2803
 4456TIP3    H235004   4.484   0.219   8.259 -0.8301  0.2042 -1.9587
 4457TIP3   OH235005   3.831   6.882   1.260 -0.3553 -0.2226 -0.2553
 4457TIP3    H135006   3.853   6.973   1.284 -1.8521  0.1659 -0.2750
 4457TIP3    H235007   3.850   6.877   1.166 -0.0342 -0.0036 -0.2048
 4458TIP3   OH235008   4.617   0.903   2.302  0.1777 -0.3392 -0.3032
 4458TIP3    H135009   4.593   0.981   2.353 -0.6057 -0.7810  0.0322
 4458TIP3    H235010   4.669   0.850   2.363  1.7861  0.4630 -0.9239
 4459TIP3   OH235011   6.023   0.881   2.302 -0.3888  0.1927  0.5914
 4459TIP3    H135012   5.958   0.889   2.373 -0.3809 -0.0023  0.6194
 4459TIP3    H235013   5.979   0.827   2.236 -1.2442  2.1077 -0.5150
 4460TIP3   OH235014   2.079   0.547   1.923  0.1912 -0.4008  0.5161
 4460TIP3    H135015   2.149   0.598   1.880  0.1423 -1.4517 -0.8709
 4460TIP3    H235016   2.077   0.581   2.013  0.1871  1.9972 -0.3243
 4461TIP3   OH235017   0.585   4.429   0.341  0.2225 -0.2035 -0.0795
 4461TIP3    H135018   0.628   4.504   0.301  0.1438  0.7921  1.6005
 4461TIP3    H235019   0.655   4.365   0.355  0.2529 -0.5729 -1.7108
 4462TIP3   OH235020   3.919   0.477   2.406  0.1030 -0.2170  0.0441
 4462TIP3    H135021   3.989   0.475   2.341  0.0329 -2.3507 -0.0417
 4462TIP3    H235022   3.962   0.502   2.487  0.6677 -0.0376 -0.3032
 4463TIP3   OH235023   3.999   0.674   1.073 -0.5430 -0.0047  0.2080
 4463TIP3    H135024   3.932   0.640   1.013 -0.4545 -0.9472  0.6186
 4463TIP3    H235025   3.960   0.664   1.160  0.5287 -1.5930  0.5447
 4464TIP3   OH235026   3.484   0.224   7.766 -0.2002 -0.3080  0.6343
 4464TIP3    H135027   3.477   0.317   7.745  1.1877  0.0498  1.6107
 4464TIP3    H235028   3.552   0.220   7.833 -0.2781 -2.0272  0.6457
 4465TIP3   OH235029   6.280   0.532   0.247 -0.2424  0.7108 -0.2779
 4465TIP3    H135030   6.253   0.590   0.319 -0.7520 -0.7097  0.7131
 4465TIP3    H235031   6.234   0.566   0.171 -1.6156  0.8162  0.5640
 4466TIP3   OH235032   0.766   1.828   0.933  0.0141  0.0874  0.3337
 4466TIP3    H135033   0.756   1.733   0.945 -2.9053  0.3380  0.5983
 4466TIP3    H235034   0.836   1.837   0.868 -0.1213 -2.2949 -0.2340
 4467TIP3   OH235035   2.159   1.500   2.065 -0.3723  0.7336 -0.0558
 4467TIP3    H135036   2.070   1.470   2.045 -0.0419  0.7429 -1.5962
 4467TIP3    H235037   2.213   1.422   2.062 -0.3024  0.7372  0.8256
 4468TIP3   OH235038   4.656   2.079   1.140 -0.2858 -0.4150 -0.4628
 4468TIP3    H135039   4.602   2.005   1.168  2.4024 -1.8282  1.4071
 4468TIP3    H235040   4.645   2.144   1.210 -0.1443 -0.3769 -0.4762
 4469TIP3   OH235041   3.843   6.484   8.303 -0.2102  0.1640 -0.7293
 4469TIP3    H135042   3.788   6.433   8.243  0.8287 -0.3802 -1.2461
 4469TIP3    H235043   3.845   6.433   8.383 -0.7810  0.3888 -0.5686
 4470TIP3   OH235044   2.950   1.719   0.138 -0.2072 -0.0652 -0.3751
 4470TIP3    H135045   3.040   1.740   0.160 -0.2088  0.2427 -0.6610
 4470TIP3    H235046   2.950   1.710   0.043 -0.4292 -0.3015 -0.3541
 4471TIP3   OH235047   5.916   0.458   1.298  0.0085  0.4825 -0.2194
 4471TIP3    H135048   5.926   0.549   1.272 -0.9962 -0.0569 -2.8295
 4471TIP3    H235049   5.833   0.456   1.346 -1.1799  0.6630 -2.1355
 4472TIP3   OH235050   1.222   3.360   8.212  0.0210 -0.7597 -0.1716
 4472TIP3    H135051   1.221   3.326   8.301  1.1211  0.3154  0.2786
 4472TIP3    H235052   1.222   3.455   8.223 -1.0737 -0.6102 -1.3486
 4473TIP3   OH235053   2.778   0.164   7.050 -0.4188 -0.1990  0.5656
 4473TIP3    H135054   2.756   0.163   6.957 -1.3774 -0.2179  0.7828
 4473TIP3    H235055   2.849   0.227   7.057 -0.3369 -0.1949 -0.1813
 4474TIP3   OH235056   2.222   5.943   0.258  0.1122  0.3248 -0.5829
 4474TIP3    H135057   2.290   5.947   0.190  0.2174 -1.4668 -0.6255
 4474TIP3    H235058   2.195   5.851   0.260 -1.1574  0.6880  0.5801
 4475TIP3   OH235059   6.098   4.719   1.279  0.1897 -0.4210  0.0024
 4475TIP3    H135060   6.050   4.636   1.274 -0.1775 -0.2005 -0.1330
 4475TIP3    H235061   6.064   4.763   1.357  1.4024 -1.0215  0.9122
 4476TIP3   OH235062   5.846   5.655   7.781 -0.1302  0.1588  0.4003
 4476TIP3    H135063   5.901   5.660   7.859  2.7060  0.5021 -1.4611
 4476TIP3    H235064   5.848   5.744   7.746  1.0400 -0.5558 -1.5056
 4477TIP3   OH235065   6.088   3.193   0.777  0.1898 -0.4939  0.0790
 4477TIP3    H135066   6.054   3.282   0.779 -0.4055 -0.7159 -0.1297
 4477TIP3    H235067   6.176   3.201   0.815 -0.5341 -0.1106  1.7730
 4478TIP3   OH235068   3.248   1.018   8.308 -0.1496 -0.2068 -0.3589
 4478TIP3    H135069   3.212   1.094   8.353  1.0032  0.2309 -0.1470
 4478TIP3    H235070   3.330   1.048   8.270 -0.0270 -1.1557 -0.8908
 4479TIP3   OH235071   5.765   1.546   7.689 -0.7415  0.0087 -0.0562
 4479TIP3    H135072   5.823   1.569   7.616  1.0520 -0.7330  1.0816
 4479TIP3    H235073   5.683   1.522   7.647 -0.2313  1.0043 -1.7376
 4480TIP3   OH235074   0.320   2.609   8.407 -0.2662 -0.0711 -0.3599
 4480TIP3    H135075   0.307   2.534   8.348 -0.9316 -1.8981  1.9710
 4480TIP3    H235076   0.385   2.578   8.470 -1.0802  1.0634  1.0801
 4481TIP3   OH235077   1.959   4.244   7.071 -0.5801 -0.3509 -0.2949
 4481TIP3    H135078   1.880   4.189   7.077 -0.1280 -0.9791  0.0787
 4481TIP3    H235079   1.934   4.326   7.113 -0.9616 -0.6408  0.0527
 4482TIP3   OH235080   0.126   1.098   2.074 -0.1498 -0.3021 -0.2148
 4482TIP3    H135081   0.049   1.043   2.065 -0.3256 -0.1409  0.2689
 4482TIP3    H235082   0.192   1.057   2.017 -0.0170 -1.4936  0.7481
 4483TIP3   OH235083   4.618   2.899   2.486  0.2678 -0.2463 -0.0584
 4483TIP3    H135084   4.670   2.979   2.477  0.4662 -0.3134  0.4404
 4483TIP3    H235085   4.679   2.835   2.522  0.0930 -0.6077 -0.4122
 4484TIP3   OH235086   6.946   5.663   7.026 -0.2815 -0.0280  0.4617
 4484TIP3    H135087   6.892   5.585   7.011 -0.2855  0.0147  0.2541
 4484TIP3    H235088   7.034   5.630   7.038  0.2298  0.1053 -2.3455
 4485TIP3   OH235089   3.355   2.158   8.019 -0.2970 -0.1320  0.3978
 4485TIP3    H135090   3.318   2.162   7.931 -0.7355  0.8902  0.6158
 4485TIP3    H235091   3.307   2.087   8.062  0.0014 -0.7121 -0.2143
 4486TIP3   OH235092   0.236   4.756   7.858 -0.0931  0.0103 -0.2834
 4486TIP3    H135093   0.311   4.775   7.915  0.0635  0.3024 -0.5852
 4486TIP3    H235094   0.171   4.718   7.917 -0.4320  1.5085  0.3552
 4487TIP3   OH235095   6.054   6.487   1.911  0.1480 -0.5187  0.1643
 4487TIP3    H135096   6.023   6.422   1.974  1.4519 -0.6920  0.6585
 4487TIP3    H235097   5.979   6.545   1.897 -0.1336 -0.3833  2.0259
 4488TIP3   OH235098   1.344   5.957   6.872  0.0545  0.0124 -0.0589
 4488TIP3    H135099   1.281   5.986   6.938 -0.3261  1.3878 -0.9787
 4488TIP3    H235100   1.429   5.986   6.906 -0.2819  2.0897 -0.7975
 4489TIP3   OH235101   1.987   1.901   2.273  0.1814  0.1049  0.1754
 4489TIP3    H135102   2.032   1.982   2.249  0.7620 -0.7307 -1.6716
 4489TIP3    H235103   2.054   1.833   2.266 -0.9971 -0.9579 -1.2405
 4490TIP3   OH235104   4.757   0.157   7.733  0.0621 -0.7863 -0.3451
 4490TIP3    H135105   4.721   0.170   7.646  3.2101 -0.1818 -1.7130
 4490TIP3    H235106   4.757   0.062   7.746 -0.3252 -0.8851 -1.0645
 4491TIP3   OH235107   2.913   6.583   1.564  0.4984  0.2298  0.6792
 4491TIP3    H135108   2.830   6.541   1.543  1.4884 -1.5602  0.0793
 4491TIP3    H235109   2.959   6.587   1.480  2.6856 -2.8258  1.5231
 4492TIP3   OH235110   5.359   3.160   0.146 -0.6022 -0.1082  0.0754
 4492TIP3    H135111   5.361   3.144   0.240 -2.0521 -1.0823 -0.0316
 4492TIP3    H235112   5.296   3.232   0.135  0.5851  0.9593 -0.0669
 4493TIP3   OH235113   6.698   6.659   1.470  0.2640 -0.1305 -0.7149
 4493TIP3    H135114   6.718   6.704   1.388  1.3731 -2.0792 -1.5745
 4493TIP3    H235115   6.762   6.588   1.475 -1.3839 -1.6211  0.5720
 4494TIP3   OH235116   0.790   0.680   2.288 -0.1338  0.0345 -0.8124
 4494TIP3    H135117   0.737   0.627   2.348 -0.9238 -0.8332 -2.2304
 4494TIP3    H235118   0.878   0.641   2.294 -0.6339 -1.2749 -1.5982
 4495TIP3   OH235119   4.470   2.743   7.061  0.0620 -0.2079  0.4823
 4495TIP3    H135120   4.534   2.814   7.060  0.4478 -0.5513 -0.7221
 4495TIP3    H235121   4.509   2.676   7.117  0.7904 -0.4255 -0.2593
 4496TIP3   OH235122   4.565   0.753   0.476 -0.1486  0.0782  0.0202
 4496TIP3    H135123   4.555   0.674   0.423  0.3076  0.7538 -1.1026
 4496TIP3    H235124   4.554   0.825   0.414 -0.6298  0.9082  1.0407
 4497TIP3   OH235125   2.803   0.975   1.437 -0.1066 -0.5609 -0.7268
 4497TIP3    H135126   2.787   1.063   1.403 -1.5014 -0.6307 -0.2773
 4497TIP3    H235127   2.723   0.951   1.484  1.3481 -0.8680  1.7630
 4498TIP3   OH235128   6.265   3.217   6.467 -0.3706  0.6867  0.5562
 4498TIP3    H135129   6.181   3.261   6.483 -0.3796  1.1629 -0.6956
 4498TIP3    H235130   6.326   3.264   6.524 -1.0446 -0.1103  2.0060
 4499TIP3   OH235131   4.405   0.557   7.085  0.0006 -0.1822  0.4176
 4499TIP3    H135132   4.387   0.522   7.172  2.1594 -1.1286  0.5499
 4499TIP3    H235133   4.378   0.487   7.025 -2.7436  0.9787  0.1545
 4500TIP3   OH235134   3.410   5.424   8.351 -0.1375 -0.1556 -0.0381
 4500TIP3    H135135   3.358   5.503   8.333 -1.0888 -0.7910 -0.1088
 4500TIP3    H235136   3.450   5.441   8.436  0.8186  0.9966 -0.6807
 4501TIP3   OH235137   2.909   5.177   2.317 -0.0245  0.7596 -0.0241
 4501TIP3    H135138   2.867   5.202   2.399  0.2213  1.3940 -0.0849
 4501TIP3    H235139   2.837   5.142   2.263 -0.7371  2.8881 -0.5554
 4502TIP3   OH235140   2.661   3.947   2.768  0.0266  0.4499 -0.5159
 4502TIP3    H135141   2.668   4.035   2.730 -0.3666  0.7766  0.1546
 4502TIP3    H235142   2.567   3.932   2.776  0.1016  0.5792  0.7496
 4503TIP3   OH235143   6.982   1.640   1.815 -0.1657 -0.0399  0.0393
 4503TIP3    H135144   6.888   1.642   1.835 -0.4355 -0.5724 -1.1392
 4503TIP3    H235145   7.003   1.548   1.806  0.2489  0.1202 -0.7042
 4504TIP3   OH235146   1.243   3.920   7.248  0.2807  0.4303 -0.0205
 4504TIP3    H135147   1.295   3.848   7.285  0.8092 -0.4237 -2.2649
 4504TIP3    H235148   1.239   3.985   7.319  0.8606 -1.2553  1.6406
 4505TIP3   OH235149   6.649   0.603   0.299 -1.0522  0.8008 -0.5430
 4505TIP3    H135150   6.712   0.632   0.364  2.4671 -0.5757 -3.0162
 4505TIP3    H235151   6.631   0.512   0.322 -0.4666  0.5704 -0.9653
 4506TIP3   OH235152   4.126   1.471   2.611  0.4071  0.6076  0.3337
 4506TIP3    H135153   4.064   1.534   2.647  1.4029  1.1237  1.2008
 4506TIP3    H235154   4.082   1.386   2.619 -1.2026  1.1967 -1.3967
 4507TIP3   OH235155   0.805   0.406   7.338  0.3467 -0.2343  0.0472
 4507TIP3    H135156   0.776   0.414   7.247  1.1032 -0.1271 -0.1967
 4507TIP3    H235157   0.781   0.490   7.378 -0.4301 -0.4721  0.0779
 4508TIP3   OH235158   3.394   3.229   0.273 -0.1473  0.5190 -0.0933
 4508TIP3    H135159   3.427   3.235   0.184  0.9219 -0.5612  0.2153
 4508TIP3    H235160   3.374   3.320   0.297 -1.2115  0.7357 -1.6917
 4509TIP3   OH235161   0.578   6.625   2.890  0.1901 -0.5258 -0.4788
 4509TIP3    H135162   0.660   6.601   2.932  0.4911 -0.4986 -1.0450
 4509TIP3    H235163   0.567   6.718   2.909  1.8707  0.2895 -2.9368
 4510TIP3   OH235164   3.486   6.747   0.356  0.2370 -0.0530 -0.3025
 4510TIP3    H135165   3.421   6.696   0.307  0.3223 -0.9681  0.4971
 4510TIP3    H235166   3.434   6.805   0.412  0.1198 -0.0596 -0.4035
 4511TIP3   OH235167   3.947   6.255   2.229 -0.0374  0.3109  0.4994
 4511TIP3    H135168   3.985   6.343   2.220 -1.1705  0.8462  0.6240
 4511TIP3    H235169   3.919   6.233   2.140  2.9026 -1.2546 -0.1505
 4512TIP3   OH235170   3.188   5.462   6.550 -0.2587  0.2396  0.8336
 4512TIP3    H135171   3.215   5.529   6.487  2.4325 -1.2309  0.2694
 4512TIP3    H235172   3.227   5.491   6.633 -0.3578  0.1075  0.9262
 4513TIP3   OH235173   6.024   2.533   1.757 -0.1496 -0.5130 -0.1234
 4513TIP3    H135174   6.018   2.554   1.850 -1.0851  0.0033 -0.2864
 4513TIP3    H235175   6.093   2.468   1.751  2.0019  1.5797  0.5766
 4514TIP3   OH235176   2.341   0.798   6.346  0.2445 -0.5468  0.2033
 4514TIP3    H135177   2.259   0.753   6.367  1.0315 -2.3151 -0.3129
 4514TIP3    H235178   2.353   0.862   6.417 -0.6537 -1.5418  1.2902
 4515TIP3   OH235179   5.939   1.543   7.460  0.1682  0.4442  0.2454
 4515TIP3    H135180   6.018   1.489   7.470 -0.1599  0.0818  1.0263
 4515TIP3    H235181   5.883   1.492   7.402  0.4707  0.6673 -0.2514
 4516TIP3   OH235182   3.830   3.528   7.689 -0.1063 -0.0882 -0.0272
 4516TIP3    H135183   3.774   3.498   7.618  1.2243 -1.3055 -0.6085
 4516TIP3    H235184   3.825   3.458   7.755 -0.2084  0.3654  0.4567
 4517TIP3   OH235185   1.114   1.135   6.525  0.7380 -0.0046 -0.7651
 4517TIP3    H135186   1.156   1.053   6.551 -0.3626 -1.2760 -2.6634
 4517TIP3    H235187   1.154   1.202   6.580  0.1834 -2.0561  2.3895
 4518TIP3   OH235188   6.924   1.315   2.240 -0.2118 -0.3744 -0.2694
 4518TIP3    H135189   6.840   1.277   2.216 -0.9378  1.4762 -0.8401
 4518TIP3    H235190   6.902   1.394   2.289  1.2272 -0.5008  0.6682
 4519TIP3   OH235191   6.356   6.805   8.377  0.0422 -0.4384 -0.7109
 4519TIP3    H135192   6.261   6.814   8.379  0.0129  0.2687 -2.6678
 4519TIP3    H235193   6.388   6.892   8.352  1.2051 -0.6885 -0.1603
 4520TIP3   OH235194   6.750   4.939   7.613 -0.0218 -0.4768  0.3774
 4520TIP3    H135195   6.781   5.020   7.574  0.8145 -0.9822 -0.0379
 4520TIP3    H235196   6.804   4.871   7.573 -1.2000 -1.3144  0.1612
 4521TIP3   OH235197   1.247   5.818   2.938  0.6686 -0.4784 -0.1625
 4521TIP3    H135198   1.245   5.891   2.877  2.3565  0.4675  0.8400
 4521TIP3    H235199   1.331   5.825   2.982  0.0267 -1.8398  1.4128
 4522TIP3   OH235200   1.795   0.245   0.232 -0.0706  0.1419  0.1599
 4522TIP3    H135201   1.795   0.276   0.323 -1.2432  0.0713  0.2016
 4522TIP3    H235202   1.872   0.286   0.192  0.0729  0.7174  1.0042
 4523TIP3   OH235203   3.208   5.802   1.736  0.1970  0.3085  0.3742
 4523TIP3    H135204   3.154   5.732   1.699 -0.4000 -0.0710  1.8969
 4523TIP3    H235205   3.296   5.765   1.737 -0.0663 -0.3225  0.8943
 4524TIP3   OH235206   4.242   1.047   1.129  0.0712  0.2868  0.4817
 4524TIP3    H135207   4.173   1.049   1.063 -0.9677 -0.8946  1.4763
 4524TIP3    H235208   4.228   0.964   1.176  2.4529 -0.2179  0.4298
 4525TIP3   OH235209   1.843   0.315   7.293 -0.0547 -0.7421 -0.8840
 4525TIP3    H135210   1.909   0.369   7.250 -0.5703 -1.1807 -2.2881
 4525TIP3    H235211   1.809   0.259   7.223 -1.2851 -1.1403 -0.0000
 4526TIP3   OH235212   6.012   2.865   0.228  0.9605 -0.1737 -0.2075
 4526TIP3    H135213   5.934   2.810   0.218  1.0207 -0.3947  0.4652
 4526TIP3    H235214   6.056   2.860   0.143  1.8942 -2.6019  0.3407
 4527TIP3   OH235215   3.145   5.333   0.841 -0.5081 -0.6946 -0.0221
 4527TIP3    H135216   3.175   5.417   0.874  0.2420 -0.8759 -0.2210
 4527TIP3    H235217   3.050   5.335   0.852 -0.7443  0.9541 -1.7757
 4528TIP3   OH235218   6.465   2.899   8.164 -0.8426  0.1411  0.5169
 4528TIP3    H135219   6.442   2.942   8.081  0.3688  1.3630  0.7622
 4528TIP3    H235220   6.451   2.806   8.148 -1.9974  0.4772 -0.5876
 4529TIP3   OH235221   3.347   2.675   7.177  0.0173  0.4529 -0.1381
 4529TIP3    H135222   3.326   2.591   7.138  0.0529  0.2947  0.1802
 4529TIP3    H235223   3.269   2.729   7.161  0.0491  0.4057 -0.4620
 4530TIP3   OH235224   4.723   6.056   7.241  0.2675  0.0793 -0.0804
 4530TIP3    H135225   4.762   5.982   7.193  0.8605 -0.5802  1.3450
 4530TIP3    H235226   4.757   6.134   7.197  1.7670 -0.4955 -0.0239
 4531TIP3   OH235227   6.878   6.521   0.848 -0.2816  0.7408  0.7131
 4531TIP3    H135228   6.931   6.568   0.912  0.2031 -1.8127  2.3170
 4531TIP3    H235229   6.817   6.469   0.900 -2.6737  1.5955 -1.0357
 4532TIP3   OH235230   3.453   5.476   0.184 -0.4272  0.2557 -0.4743
 4532TIP3    H135231   3.435   5.569   0.190 -0.2418  0.4292 -2.1506
 4532TIP3    H235232   3.370   5.434   0.204 -0.3801  0.7448  0.8227
 4533TIP3   OH235233   2.630   0.699   8.099  0.9369 -0.3439 -0.3533
 4533TIP3    H135234   2.713   0.740   8.073  0.2232  0.7298 -1.0210
 4533TIP3    H235235   2.599   0.654   8.021  0.5567 -0.1568 -0.3139
 4534TIP3   OH235236   5.001   1.887   0.212  0.4877  0.0899  0.3398
 4534TIP3    H135237   4.923   1.879   0.267  0.0960  0.0593 -0.2074
 4534TIP3    H235238   5.050   1.806   0.229  0.2924  0.0077  0.5203
 4535TIP3   OH235239   2.372   4.252   7.917  0.3027 -0.0904  0.5059
 4535TIP3    H135240   2.343   4.342   7.935  1.4494  0.8035 -1.7151
 4535TIP3    H235241   2.317   4.224   7.843  1.4254 -0.3457 -0.2590
 4536TIP3   OH235242   1.840   5.635   7.173 -0.5906 -0.3118  0.0845
 4536TIP3    H135243   1.756   5.664   7.136 -0.8975 -1.6101 -0.2920
 4536TIP3    H235244   1.862   5.557   7.122  0.7895 -0.0627  0.2794
 4537TIP3   OH235245   6.854   3.570   7.803 -0.6448  0.1683  0.3565
 4537TIP3    H135246   6.806   3.489   7.785 -1.5399  0.8242 -0.3267
 4537TIP3    H235247   6.930   3.567   7.745 -1.4926  0.5057 -0.8128
 4538TIP3   OH235248   6.391   5.118   0.831 -0.0994  0.4159 -0.1559
 4538TIP3    H135249   6.365   5.026   0.843  1.0550  0.1848  0.7575
 4538TIP3    H235250   6.400   5.153   0.919 -3.5488  2.3985 -0.4116
 4539TIP3   OH235251   4.303   0.087   2.003 -0.5766 -0.0259 -0.0954
 4539TIP3    H135252   4.338   0.024   1.940  0.2936  0.1108  0.2316
 4539TIP3    H235253   4.322   0.048   2.089 -3.7245 -1.3037  0.1569
 4540TIP3   OH235254   4.288   6.239   6.690 -0.0386  0.2563 -0.4289
 4540TIP3    H135255   4.215   6.276   6.740 -0.3850  0.1460 -0.8379
 4540TIP3    H235256   4.278   6.276   6.602  0.7836  0.7468 -0.3255
 4541TIP3   OH235257   4.695   2.398   0.555  0.0157 -0.1699  0.0890
 4541TIP3    H135258   4.601   2.412   0.558  0.1600  1.0385 -0.5991
 4541TIP3    H235259   4.711   2.360   0.469  0.3745  1.5256 -0.6207
 4542TIP3   OH235260   0.306   0.869   0.618 -0.2361 -0.0431 -0.6486
 4542TIP3    H135261   0.272   0.942   0.670 -0.3121 -1.0631  0.7961
 4542TIP3    H235262   0.298   0.898   0.527  1.3967  2.4575 -0.0888
 4543TIP3   OH235263   5.492   3.137   7.395 -0.0471 -0.4963  0.1112
 4543TIP3    H135264   5.456   3.207   7.340  1.2174  0.4210  0.4164
 4543TIP3    H235265   5.450   3.149   7.480  0.7262  0.3934  0.3822
 4544TIP3   OH235266   3.464   2.804   2.416 -0.2661 -0.0907 -0.2797
 4544TIP3    H135267   3.390   2.864   2.409 -0.0594  0.1266 -0.6359
 4544TIP3    H235268   3.509   2.831   2.496 -0.2879  0.0998 -0.3303
 4545TIP3   OH235269   2.266   6.421   2.356 -0.0830  0.1634 -0.0741
 4545TIP3    H135270   2.339   6.472   2.320  0.0723  0.1242  0.1804
 4545TIP3    H235271   2.218   6.483   2.411  0.9318 -0.2971  1.3974
 4546TIP3   OH235272   4.328   4.722   8.240  0.0559  0.6689 -0.0558
 4546TIP3    H135273   4.420   4.703   8.260  0.2595  1.2880 -0.3720
 4546TIP3    H235274   4.306   4.662   8.169  0.2537  0.6100 -0.0668
 4547TIP3   OH235275   2.281   0.384   8.051  0.4310  0.1156 -0.3386
 4547TIP3    H135276   2.318   0.419   8.132  1.5269 -0.5701 -0.5312
 4547TIP3    H235277   2.301   0.450   7.985 -0.0922  0.4784 -0.1424
 4548TIP3   OH235278   3.674   1.014   0.990  0.5215  0.4787  0.2609
 4548TIP3    H135279   3.714   1.058   1.065  1.3162  0.6614 -0.2590
 4548TIP3    H235280   3.745   0.961   0.952  0.4618  1.2562 -1.0195
 4549TIP3   OH235281   2.825   0.791   6.565 -0.2105 -0.0425 -0.2971
 4549TIP3    H135282   2.827   0.886   6.579 -2.0465 -0.4016  3.8299
 4549TIP3    H235283   2.742   0.775   6.520 -0.9338  0.2256  0.8932
 4550TIP3   OH235284   4.082   2.735   7.640  0.4329  0.1549 -0.2954
 4550TIP3    H135285   4.173   2.716   7.663  0.9016 -1.2823 -2.9211
 4550TIP3    H235286   4.034   2.658   7.671  0.6029 -0.4188 -1.4098
 4551TIP3   OH235287   1.516   2.646   0.649  0.3964  0.2850  0.0877
 4551TIP3    H135288   1.477   2.597   0.721 -0.0306  0.9466  0.3130
 4551TIP3    H235289   1.607   2.617   0.647  0.3716  0.1463  0.7925
 4552TIP3   OH235290   0.865   5.403   2.344  0.2273  0.2982  0.0727
 4552TIP3    H135291   0.870   5.493   2.377 -1.6434  0.1567  0.9066
 4552TIP3    H235292   0.907   5.350   2.412 -1.9788  0.2096  1.4978
 4553TIP3   OH235293   6.778   1.243   6.809 -0.7341  0.5249 -0.1969
 4553TIP3    H135294   6.817   1.325   6.836  0.0106  0.0991  0.0413
 4553TIP3    H235295   6.737   1.208   6.889 -2.2075  1.2894 -0.5924
 4554TIP3   OH235296   1.399   4.796   1.359 -0.0294  0.0433 -0.2227
 4554TIP3    H135297   1.486   4.833   1.341 -0.2389  0.9917  0.6010
 4554TIP3    H235298   1.399   4.782   1.454 -0.9055  0.3965 -0.1639
 4555TIP3   OH235299   1.880   6.265   1.101  0.0181 -0.0762 -0.1935
 4555TIP3    H135300   1.821   6.190   1.104 -0.4049  0.2595  0.0146
 4555TIP3    H235301   1.968   6.227   1.104 -0.1680 -0.6155 -1.1182
 4556TIP3   OH235302   1.782   2.677   1.526 -0.0368 -0.1280  0.1599
 4556TIP3    H135303   1.788   2.747   1.461 -0.4181  1.3861  1.6801
 4556TIP3    H235304   1.869   2.637   1.528  0.2920  0.5394 -0.4797
 4557TIP3   OH235305   5.960   4.449   0.894 -0.0132  0.3248  0.0838
 4557TIP3    H135306   5.946   4.355   0.882  1.8676  0.0289 -0.0297
 4557TIP3    H235307   5.884   4.479   0.944 -1.9447 -0.7546 -2.0362
 4558TIP3   OH235308   6.790   4.908   6.936 -0.3713  0.2727 -0.2340
 4558TIP3    H135309   6.788   4.813   6.935  1.3925  0.1486  1.3488
 4558TIP3    H235310   6.880   4.931   6.911 -0.8474  1.5406 -0.8869
 4559TIP3   OH235311   2.959   2.263   0.153 -0.1532  0.3502 -0.7228
 4559TIP3    H135312   2.900   2.298   0.220  0.3469  0.5981 -0.3964
 4559TIP3    H235313   3.006   2.193   0.198  1.1500  1.4024 -0.3837
 4560TIP3   OH235314   1.387   2.238   2.180  0.5200 -0.2593  0.2809
 4560TIP3    H135315   1.351   2.192   2.104  0.6370  0.3549 -0.1595
 4560TIP3    H235316   1.316   2.239   2.244  1.2420 -3.1061  1.2526
 4561TIP3   OH235317   5.201   0.294   1.498  0.0056 -0.2860  0.0156
 4561TIP3    H135318   5.121   0.269   1.546  1.0115 -0.6687  1.5706
 4561TIP3    H235319   5.236   0.212   1.465 -0.7439 -0.0088 -1.5548
 4562TIP3   OH235320   0.329   4.097   0.724  0.2499 -0.3693  0.2726
 4562TIP3    H135321   0.350   4.005   0.741  1.8369 -0.0352  0.2546
 4562TIP3    H235322   0.413   4.142   0.727 -0.2960  0.8464 -1.3069
 4563TIP3   OH235323   3.732   3.761   0.634 -0.1176 -0.1964 -0.0573
 4563TIP3    H135324   3.819   3.800   0.638  0.6769 -1.5611 -2.4352
 4563TIP3    H235325   3.681   3.823   0.583 -0.7344  0.7994  1.6683
 4564TIP3   OH235326   5.311   6.294   7.649  0.5218  0.1305  0.1774
 4564TIP3    H135327   5.240   6.312   7.587  1.1433  1.0490 -0.2832
 4564TIP3    H235328   5.317   6.373   7.702  2.1244  0.6492 -0.7133
 4565TIP3   OH235329   3.055   0.503   1.794  0.1628  0.4044 -0.3103
 4565TIP3    H135330   3.086   0.572   1.851  1.5306 -0.7273  0.3733
 4565TIP3    H235331   3.134   0.458   1.764 -0.5762  0.2223 -2.1730
 4566TIP3   OH235332   4.861   0.032   0.597 -0.1923  0.4917 -0.0443
 4566TIP3    H135333   4.836   0.035   0.505 -0.8040 -1.0877  0.0540
 4566TIP3    H235334   4.897   0.120   0.614  0.7160  0.5563 -1.9872
 4567TIP3   OH235335   0.966   1.239   1.872 -0.2909 -0.6036 -0.5530
 4567TIP3    H135336   1.060   1.226   1.879 -0.5836 -1.9570  3.1024
 4567TIP3    H235337   0.955   1.333   1.859  1.5295 -0.2819  0.0393
 4568TIP3   OH235338   4.159   1.455   0.457 -0.0258  0.1533  0.3085
 4568TIP3    H135339   4.237   1.405   0.479  0.4007  0.7053  0.0970
 4568TIP3    H235340   4.148   1.442   0.363  0.6558  1.2144  0.0630
 4569TIP3   OH235341   0.186   0.004   7.083  0.3054  0.6787  0.9002
 4569TIP3    H135342   0.262   0.061   7.086  0.0858  0.9460  1.4191
 4569TIP3    H235343   0.124   0.042   7.145 -0.5428  0.8795 -0.0356
 4570TIP3   OH235344   2.780   0.241   0.206  0.0275  0.1882 -0.2724
 4570TIP3    H135345   2.834   0.304   0.158 -2.3278  1.6897 -1.1459
 4570TIP3    H235346   2.828   0.159   0.202  1.3265  0.9935 -2.6240
 4571TIP3   OH235347   5.775   4.783   7.263 -0.5391 -0.2468  0.1667
 4571TIP3    H135348   5.819   4.781   7.348 -2.5445 -0.0925  1.2619
 4571TIP3    H235349   5.722   4.862   7.265 -0.8024 -0.3736 -1.1267
 4572TIP3   OH235350   0.940   3.196   6.858 -0.4805 -0.2716  0.5400
 4572TIP3    H135351   1.014   3.225   6.805 -1.6005  0.1507 -0.8567
 4572TIP3    H235352   0.911   3.274   6.904  0.0567 -0.4839  1.2544
 4573TIP3   OH235353   1.815   2.849   1.335 -0.0392  0.2454  0.2528
 4573TIP3    H135354   1.877   2.823   1.267 -0.2242  0.7389 -0.1081
 4573TIP3    H235355   1.841   2.938   1.358  0.5076 -0.1917  1.3858
 4574TIP3   OH235356   6.034   1.221   7.715  0.3480 -0.3839  0.9901
 4574TIP3    H135357   5.975   1.145   7.719  1.2213 -1.0097  2.6363
 4574TIP3    H235358   6.078   1.213   7.630  0.0248 -1.4051  0.9071
 4575TIP3   OH235359   1.399   0.914   0.538 -0.1192 -1.4745  0.1580
 4575TIP3    H135360   1.394   0.824   0.572  1.9572 -2.9261 -2.8480
 4575TIP3    H235361   1.326   0.920   0.476  1.6611 -2.4543 -2.1805
 4576TIP3   OH235362   0.126   0.050   2.853 -0.5171  0.1557 -0.2179
 4576TIP3    H135363   0.198   0.064   2.914  1.3766 -2.3153 -1.6784
 4576TIP3    H235364   0.073  -0.018   2.894  0.5983 -1.2999 -1.0827
 4577TIP3   OH235365   5.218   5.872   7.566 -0.6055 -0.1126  0.3140
 4577TIP3    H135366   5.214   5.837   7.655 -0.1785 -0.4493  0.2053
 4577TIP3    H235367   5.126   5.881   7.539 -0.7294 -0.2849  0.6794
 4578TIP3   OH235368   5.226   2.285   0.555  0.1194  0.1007  0.5858
 4578TIP3    H135369   5.244   2.320   0.642  0.0238  0.4500  0.4656
 4578TIP3    H235370   5.308   2.298   0.507  0.3610 -0.6089  0.7872
 4579TIP3   OH235371   3.294   6.410   0.333 -0.0607 -0.4037 -0.5150
 4579TIP3    H135372   3.231   6.383   0.267  1.4064 -1.4948 -1.5305
 4579TIP3    H235373   3.291   6.340   0.399 -2.0338  1.0265  1.0169
 4580TIP3   OH235374   4.843   4.116   1.165  0.2592 -0.0597 -0.1420
 4580TIP3    H135375   4.888   4.154   1.241  0.2588 -0.2649 -0.0392
 4580TIP3    H235376   4.802   4.191   1.122  0.3719  0.0757 -0.0151
 4581TIP3   OH235377   0.024   4.016   1.987  0.5501  0.1767  0.3823
 4581TIP3    H135378   0.117   4.013   2.009  1.3424 -0.4991 -2.5987
 4581TIP3    H235379  -0.003   4.104   2.014  1.7717  0.0751  2.1388
 4582TIP3   OH235380   2.155   5.377   1.607  0.0139  0.3138 -0.1907
 4582TIP3    H135381   2.153   5.299   1.663 -3.7049  0.5897  0.3138
 4582TIP3    H235382   2.182   5.344   1.521  1.4899 -0.9086  0.6703
 4583TIP3   OH235383   3.179   3.041   1.397  0.2404 -0.8269  0.6700
 4583TIP3    H135384   3.100   3.095   1.385  0.8196 -0.3124 -1.2998
 4583TIP3    H235385   3.162   2.963   1.345  1.5259 -0.1036 -0.9338
 4584TIP3   OH235386   0.660   1.101   8.411 -0.0155 -0.3738 -0.3681
 4584TIP3    H135387   0.611   1.019   8.416  0.6416 -0.9262 -2.2585
 4584TIP3    H235388   0.593   1.169   8.408 -0.5650 -0.7146  2.1518
 4585TIP3   OH235389   2.860   5.518   2.129 -0.7909 -0.3798  0.3961
 4585TIP3    H135390   2.877   5.562   2.045  1.1846  0.6455  1.2607
 4585TIP3    H235391   2.767   5.535   2.146 -0.9647  0.3397 -1.0510
 4586TIP3   OH235392   3.805   4.492   1.852  0.0545  0.1814  0.3891
 4586TIP3    H135393   3.871   4.477   1.784  0.6912 -0.3042  1.0963
 4586TIP3    H235394   3.816   4.584   1.876 -0.1752  0.3561 -0.1595
 4587TIP3   OH235395   0.687   0.312   1.986 -0.4181 -0.0085 -0.0349
 4587TIP3    H135396   0.691   0.248   2.057  1.5117 -0.2426 -0.2960
 4587TIP3    H235397   0.655   0.392   2.027  0.2494 -0.2582  1.0104
 4588TIP3   OH235398   6.561   4.891   1.917  0.4073  0.1281  0.0867
 4588TIP3    H135399   6.535   4.935   1.836 -0.2718 -0.6132 -0.1115
 4588TIP3    H235400   6.480   4.852   1.950  1.2152 -2.1873 -0.4957
 4589TIP3   OH235401   4.822   0.465   6.853 -0.5038 -0.4534  0.1968
 4589TIP3    H135402   4.868   0.541   6.819 -0.4557 -0.7063 -0.3134
 4589TIP3    H235403   4.729   0.486   6.839 -0.5239 -0.1804  0.7206
 4590TIP3   OH235404   2.108   4.492   0.206  0.4319 -0.2086 -0.6121
 4590TIP3    H135405   2.083   4.539   0.127  0.6750  1.9511  0.5344
 4590TIP3    H235406   2.202   4.476   0.197  0.3552 -0.4558 -0.9885
 4591TIP3   OH235407   5.531   6.774   8.284  0.1452  0.0414  0.4783
 4591TIP3    H135408   5.623   6.795   8.271 -0.4036  3.8144  1.4885
 4591TIP3    H235409   5.488   6.811   8.207 -0.5512 -2.0500 -0.1888
 4592TIP3   OH235410   4.003   0.431   7.965  0.0881 -0.1338 -0.7665
 4592TIP3    H135411   3.932   0.370   7.987 -0.0545  0.5392  0.7809
 4592TIP3    H235412   3.957   0.509   7.934  0.2751 -0.8121 -2.9675
 4593TIP3   OH235413   1.588   2.189   1.041 -0.8831 -0.0785 -0.0324
 4593TIP3    H135414   1.624   2.101   1.047  0.0865  0.2698 -0.5729
 4593TIP3    H235415   1.501   2.183   1.081 -0.8659 -1.2968 -0.1672
 4594TIP3   OH235416   2.435   0.672   1.390 -0.3183  0.4551  0.3574
 4594TIP3    H135417   2.518   0.629   1.367 -0.4795  1.0040 -1.3436
 4594TIP3    H235418   2.398   0.616   1.458  0.8384 -0.5063  0.2405
 4595TIP3   OH235419   6.427   6.380   2.643  0.2064  0.1820  0.3257
 4595TIP3    H135420   6.360   6.445   2.624 -0.2850 -0.9274 -2.0608
 4595TIP3    H235421   6.486   6.423   2.705 -2.2442  1.4568  1.9252
 4596TIP3   OH235422   0.487   5.159   0.777  0.3264 -0.2245 -0.1579
 4596TIP3    H135423   0.427   5.227   0.809  0.7258  0.4653 -0.8166
 4596TIP3    H235424   0.571   5.204   0.769  0.2528 -0.3633 -2.1047
 4597TIP3   OH235425   1.314   1.517   7.649  0.2325  0.2911 -0.3459
 4597TIP3    H135426   1.228   1.523   7.689  0.7173 -0.1016  0.7868
 4597TIP3    H235427   1.363   1.456   7.704  0.8395 -0.5188 -1.7050
 4598TIP3   OH235428   6.168   5.889   1.632  0.6250  0.2589  0.3153
 4598TIP3    H135429   6.149   5.870   1.724 -1.5354 -0.8499 -0.2801
 4598TIP3    H235430   6.171   5.803   1.590  1.5196  0.7529 -0.6780
 4599TIP3   OH235431   4.136   5.972   7.185  0.2281  0.1410 -0.0426
 4599TIP3    H135432   4.120   5.951   7.093 -0.1186  0.6287 -0.0948
 4599TIP3    H235433   4.232   5.973   7.193  0.2628  0.5149 -0.4954
 4600TIP3   OH235434   5.743   0.803   1.571  0.8174  0.1884 -0.3994
 4600TIP3    H135435   5.659   0.763   1.592 -0.8862  2.1019 -3.0610
 4600TIP3    H235436   5.773   0.756   1.493  1.2901  0.7712 -0.5731
 4601TIP3   OH235437   4.569   5.702   7.574 -0.0281 -0.4063 -0.5762
 4601TIP3    H135438   4.601   5.782   7.532 -0.1027  0.2893  0.6186
 4601TIP3    H235439   4.645   5.668   7.622 -0.1536 -0.7046 -0.5880
 4602TIP3   OH235440   1.980   4.343   7.804 -0.1403 -0.2083 -0.5109
 4602TIP3    H135441   1.932   4.263   7.827 -0.1083 -0.7639 -2.2168
 4602TIP3    H235442   2.070   4.326   7.834 -0.8360  0.7125  2.4215
 4603TIP3   OH235443   3.653   5.644   1.301 -0.2833  0.0017 -0.2231
 4603TIP3    H135444   3.638   5.550   1.311  0.0742 -0.0118  0.2159
 4603TIP3    H235445   3.705   5.669   1.378 -0.8327  0.6616 -0.0538
 4604TIP3   OH235446   4.891   3.570   8.102 -1.0046  0.1036  0.6859
 4604TIP3    H135447   4.865   3.481   8.076 -1.1296  0.5474 -0.7797
 4604TIP3    H235448   4.861   3.577   8.193 -0.0968 -1.6924  1.1923
 4605TIP3   OH235449   3.007   1.241   1.214 -0.1083  0.0762  0.0438
 4605TIP3    H135450   2.986   1.334   1.201  0.4784  0.4254  1.4651
 4605TIP3    H235451   3.034   1.211   1.127  3.0888  2.1405  0.1599
 4606TIP3   OH235452   3.969   2.345   8.200 -0.1907 -0.1168  0.2512
 4606TIP3    H135453   3.998   2.279   8.137  0.4344 -0.2471  0.6654
 4606TIP3    H235454   3.899   2.302   8.249  0.2808 -0.5098  0.5858
 4607TIP3   OH235455   4.868   2.134   2.549 -0.0427  0.1111  0.6331
 4607TIP3    H135456   4.892   2.091   2.630  0.7960  1.5358  1.1781
 4607TIP3    H235457   4.923   2.212   2.546 -1.6969  1.3179 -0.1443
 4608TIP3   OH235458   1.146   5.560   2.107 -0.2479  0.4335  0.4024
 4608TIP3    H135459   1.170   5.508   2.031  0.1735 -0.8709  1.3884
 4608TIP3    H235460   1.221   5.552   2.166 -1.3835 -0.3157  1.8165
 4609TIP3   OH235461   6.286   5.147   1.151 -0.5334 -0.6250 -0.0226
 4609TIP3    H135462   6.327   5.065   1.177  0.6396  0.2411  1.0118
 4609TIP3    H235463   6.230   5.171   1.225  0.2841  0.2196  0.3535
 4610TIP3   OH235464   3.092   5.066   8.070 -0.2961  0.5799 -0.0117
 4610TIP3    H135465   3.067   4.984   8.028  0.4269  0.9585 -1.2333
 4610TIP3    H235466   3.179   5.048   8.106 -0.1026  0.8349 -0.3519
 4611TIP3   OH235467   3.522   2.042   0.443  0.9773 -0.2831 -1.0054
 4611TIP3    H135468   3.538   2.063   0.536 -0.6279 -2.9589 -0.0294
 4611TIP3    H235469   3.466   2.113   0.412 -0.6263 -0.6549  0.8563
 4612TIP3   OH235470   0.401   6.618   7.003 -0.0285  0.1108  0.2160
 4612TIP3    H135471   0.394   6.524   6.991 -0.0822 -0.1477  1.9458
 4612TIP3    H235472   0.408   6.654   6.915 -2.7146 -1.2693 -0.6469
 4613TIP3   OH235473   6.501   1.164   0.589  0.3966 -0.4175 -0.3657
 4613TIP3    H135474   6.538   1.150   0.676  0.9764 -1.3304 -0.7442
 4613TIP3    H235475   6.523   1.254   0.567  0.0004 -0.0869  0.5369
 4614TIP3   OH235476   3.515   2.278   2.109  0.7011  0.0306  0.4640
 4614TIP3    H135477   3.480   2.189   2.109 -0.5744  0.4196  3.2196
 4614TIP3    H235478   3.517   2.303   2.017 -0.8893 -2.0995 -0.2330
 4615TIP3   OH235479   4.578   1.181   0.431 -0.3557  0.3008 -0.0261
 4615TIP3    H135480   4.534   1.243   0.488  0.6748  0.7900  0.2614
 4615TIP3    H235481   4.647   1.232   0.388  0.3139 -0.5586 -0.0105
 4616TIP3   OH235482   5.795   3.580   1.816  0.1424 -0.0412 -0.8784
 4616TIP3    H135483   5.763   3.490   1.818  0.6239 -0.2179 -0.9663
 4616TIP3    H235484   5.731   3.630   1.867  0.7161 -0.7092  0.5688
 4617TIP3   OH235485   5.244   3.937   1.249  0.3848 -0.0264  0.8623
 4617TIP3    H135486   5.160   3.893   1.266 -0.4123  1.1614  0.1390
 4617TIP3    H235487   5.256   3.995   1.324  0.5292 -0.1400  0.9277
 4618TIP3   OH235488   3.487   0.055   0.952 -0.2926  0.3691 -0.1297
 4618TIP3    H135489   3.498  -0.004   0.878 -0.2184  0.4866 -0.2114
 4618TIP3    H235490   3.555   0.122   0.941 -0.5713  0.6429 -0.2053
 4619TIP3   OH235491   6.460   5.301   8.055  0.1457  0.3458 -0.2325
 4619TIP3    H135492   6.522   5.373   8.067  0.4975 -0.1652  1.2951
 4619TIP3    H235493   6.492   5.233   8.115 -0.8742 -0.6070 -0.7551
 4620TIP3   OH235494   6.156   1.530   7.248 -0.1503 -0.3141 -0.4221
 4620TIP3    H135495   6.080   1.477   7.270  0.0330 -0.0784  0.8681
 4620TIP3    H235496   6.221   1.468   7.216  0.2946 -1.0214  1.6793
 4621TIP3   OH235497   6.275   5.428   0.781  0.1475 -0.1016 -0.2230
 4621TIP3    H135498   6.338   5.383   0.724 -2.3348 -2.1204 -1.5273
 4621TIP3    H235499   6.246   5.503   0.729  1.1196  0.6328  0.2445
 4622TIP3   OH235500   4.993   0.967   7.893 -0.1809 -0.1483 -0.0070
 4622TIP3    H135501   4.900   0.970   7.919 -0.1963  0.8747 -0.1322
 4622TIP3    H235502   5.030   0.897   7.947 -1.2867 -1.4516 -0.8655
 4623TIP3   OH235503   2.817   4.861   2.132  0.7144 -0.4424 -0.1990
 4623TIP3    H135504   2.909   4.858   2.159  0.3437 -1.5126  1.0553
 4623TIP3    H235505   2.810   4.797   2.062  1.1380  0.4923 -1.1381
 4624TIP3   OH235506   0.439   3.351   1.480 -0.1374  0.1191 -0.7021
 4624TIP3    H135507   0.421   3.260   1.502 -0.2551  0.3879  0.4160
 4624TIP3    H235508   0.481   3.386   1.559 -1.0282  1.2864 -0.7189
 4625TIP3   OH235509   1.312   4.393   2.297 -0.3894  0.0533  0.3944
 4625TIP3    H135510   1.267   4.328   2.352  1.2133  0.3912  2.1887
 4625TIP3    H235511   1.286   4.477   2.334 -0.7528  0.3810 -0.5746
 4626TIP3   OH235512   0.532   2.311   0.571  0.0999  0.1724  0.2004
 4626TIP3    H135513   0.611   2.349   0.535 -0.3058 -0.4714 -1.4586
 4626TIP3    H235514   0.461   2.349   0.519 -0.4104 -1.7450 -0.5947
 4627TIP3   OH235515   3.263   1.807   1.587  0.1572  0.0767 -0.4977
 4627TIP3    H135516   3.178   1.840   1.557  0.5375  0.2115 -1.4740
 4627TIP3    H235517   3.324   1.879   1.570  0.4760 -0.0312  0.1628
 4628TIP3   OH235518   1.490   0.870   1.001 -0.3312  0.1118  0.1020
 4628TIP3    H135519   1.544   0.949   1.008 -0.0251 -0.1875  1.4230
 4628TIP3    H235520   1.465   0.850   1.091 -0.9300 -0.9520 -0.2766
 4629TIP3   OH235521   6.589   3.176   6.946  0.4222  0.1524  0.0951
 4629TIP3    H135522   6.617   3.202   6.858 -1.9583  0.1234 -0.7388
 4629TIP3    H235523   6.499   3.146   6.934 -0.0893  0.5185  2.6218
 4630TIP3   OH235524   0.437   1.725   2.183 -0.0290  0.5374  0.0590
 4630TIP3    H135525   0.352   1.687   2.162 -0.1399  0.8690 -0.0948
 4630TIP3    H235526   0.431   1.748   2.276  0.0153  0.2434  0.1353
 4631TIP3   OH235527   5.791   4.288   6.718  0.4859  0.1904 -0.1513
 4631TIP3    H135528   5.836   4.205   6.700  0.0979  0.0793 -0.6346
 4631TIP3    H235529   5.842   4.354   6.671  0.0892  0.0519 -0.7733
 4632TIP3   OH235530   1.054   5.656   2.475 -0.3353  0.3227  0.4897
 4632TIP3    H135531   1.125   5.721   2.477  1.3351 -1.4243  0.1042
 4632TIP3    H235532   1.093   5.578   2.435 -1.9751 -1.2883  1.8614
 4633TIP3   OH235533   4.477   1.990   8.227 -0.0501 -0.4170  0.4403
 4633TIP3    H135534   4.563   1.985   8.186 -0.9885  2.6253 -2.3858
 4633TIP3    H235535   4.476   1.919   8.290  4.4204 -0.7103  0.4893
 4634TIP3   OH235536   6.562   6.376   7.540 -0.4928 -0.2930  0.4947
 4634TIP3    H135537   6.512   6.295   7.549 -0.1076 -0.5001  0.7403
 4634TIP3    H235538   6.642   6.351   7.494 -1.2281  0.2848 -1.2024
 4635TIP3   OH235539   4.276   0.008   7.624 -0.3592  0.3329 -0.2797
 4635TIP3    H135540   4.195  -0.040   7.645  0.3895 -1.3424 -1.0001
 4635TIP3    H235541   4.343  -0.036   7.676 -0.0528  2.4737  1.2288
 4636TIP3   OH235542   1.954   3.032   1.491  0.2797  0.6404  0.4228
 4636TIP3    H135543   1.896   3.093   1.537 -1.9828 -0.6248 -0.5765
 4636TIP3    H235544   1.993   2.979   1.561 -2.3861 -0.6532  1.0431
 4637TIP3   OH235545   3.910   1.254   1.726 -0.3564 -0.1902 -0.4998
 4637TIP3    H135546   3.969   1.246   1.651  1.4539 -0.4630  0.9058
 4637TIP3    H235547   3.898   1.165   1.757 -2.3582 -0.2732 -1.3149
 4638TIP3   OH235548   2.072   0.305   1.662 -0.2670  0.0662 -0.6702
 4638TIP3    H135549   2.138   0.246   1.626  1.9175  1.9529 -0.0172
 4638TIP3    H235550   1.994   0.290   1.609  0.2269 -3.1646 -0.6839
 4639TIP3   OH235551   2.674   2.168   0.171  0.4859  0.3053 -0.2269
 4639TIP3    H135552   2.745   2.146   0.232  1.6475  1.0749 -1.2458
 4639TIP3    H235553   2.706   2.246   0.126 -0.5339 -0.0022 -1.5202
 4640TIP3   OH235554   3.405   6.717   7.511 -0.1646 -0.2493 -0.3576
 4640TIP3    H135555   3.437   6.683   7.595  3.1273  0.5747 -1.1453
 4640TIP3    H235556   3.466   6.682   7.446 -1.6390  0.4778 -2.2234
 4641TIP3   OH235557   6.020   0.725   6.513  0.0522  0.3861 -0.5982
 4641TIP3    H135558   6.105   0.765   6.530  0.6724 -0.4723 -1.5657
 4641TIP3    H235559   5.962   0.799   6.493 -0.0587  1.2156  2.2366
 4642TIP3   OH235560   4.497   5.468   2.095  0.3139 -0.2886 -0.3880
 4642TIP3    H135561   4.497   5.375   2.072  2.1501 -0.0854 -1.4037
 4642TIP3    H235562   4.491   5.469   2.191 -1.0199 -1.3843 -0.4242
 4643TIP3   OH235563   4.898   1.900   2.020  0.0542  0.2992  0.2507
 4643TIP3    H135564   4.872   1.913   1.929 -0.2292 -1.1913  0.0918
 4643TIP3    H235565   4.836   1.836   2.054  0.6125  0.2741  1.2740
 4644TIP3   OH235566   3.343   4.392   3.056 -0.0036  0.1016  0.2231
 4644TIP3    H135567   3.431   4.389   3.019  0.0259  0.9790  0.2127
 4644TIP3    H235568   3.288   4.421   2.983 -0.3549 -0.7319  0.1462
 4645TIP3   OH235569   5.818   3.319   0.343 -0.5966 -0.6539 -0.5687
 4645TIP3    H135570   5.727   3.340   0.320  0.1360  0.3870 -2.9149
 4645TIP3    H235571   5.823   3.224   0.336 -1.4321 -0.6901 -0.8147
 4646TIP3   OH235572   0.241   4.241   1.575 -1.0073 -0.0777  0.0692
 4646TIP3    H135573   0.317   4.183   1.572 -0.9788 -0.0235 -0.3937
 4646TIP3    H235574   0.185   4.204   1.643 -0.0327  0.5543  1.2344
 4647TIP3   OH235575   5.054   2.331   2.583 -0.2815 -0.0337  0.6270
 4647TIP3    H135576   5.125   2.343   2.645  0.1985  1.2105 -0.1158
 4647TIP3    H235577   5.060   2.407   2.525 -1.7202 -0.3199  0.0583
 4648TIP3   OH235578   5.005   1.332   7.171  0.1645  0.5984  0.2494
 4648TIP3    H135579   4.910   1.348   7.178  0.4921  2.8275  0.4209
 4648TIP3    H235580   5.033   1.314   7.261  0.0774  1.1628  0.3932
 4649TIP3   OH235581   6.226   6.521   2.467 -0.5555 -0.0078  0.5022
 4649TIP3    H135582   6.151   6.533   2.524 -0.2712 -2.6703  1.5816
 4649TIP3    H235583   6.295   6.575   2.506 -1.2811  0.7451  0.7569
 4650TIP3   OH235584   1.299   2.083   7.987 -0.5284  0.0839  0.6080
 4650TIP3    H135585   1.312   2.016   8.055 -1.8153  0.1904  1.0023
 4650TIP3    H235586   1.315   2.037   7.905 -1.0191 -0.6283  0.8957
 4651TIP3   OH235587   0.918   1.071   8.093  0.2731  0.6721  0.4721
 4651TIP3    H135588   0.878   1.000   8.043  0.7532  0.1448  0.8187
 4651TIP3    H235589   0.844   1.119   8.130 -0.1285  1.7657 -1.6330
 4652TIP3   OH235590   1.430   2.469   8.072  0.3211  0.6729  0.3455
 4652TIP3    H135591   1.370   2.531   8.031 -0.9729 -1.8234 -1.8164
 4652TIP3    H235592   1.515   2.487   8.030 -0.3532  0.1065 -1.3219
 4653TIP3   OH235593   2.280   5.625   3.131  0.5600  0.2235  0.1223
 4653TIP3    H135594   2.244   5.713   3.119 -0.3388 -0.2344 -0.6470
 4653TIP3    H235595   2.214   5.579   3.185  0.4414 -0.3313 -0.4851
 4654TIP3   OH235596   0.869   3.128   7.734 -0.0447  0.1702 -0.1184
 4654TIP3    H135597   0.957   3.165   7.743 -0.1580  0.2099  0.9749
 4654TIP3    H235598   0.810   3.199   7.762 -0.3634 -0.1837  0.1197
 4655TIP3   OH235599   3.488   6.669   0.016  0.2076  0.0106 -0.6205
 4655TIP3    H135600   3.431   6.670  -0.061 -1.9072  1.2515  0.8801
 4655TIP3    H235601   3.497   6.761   0.040  0.5403 -0.3744  0.8205
 4656TIP3   OH235602   3.474   5.130   7.228  0.1244 -0.0437 -0.1870
 4656TIP3    H135603   3.402   5.099   7.283  0.0743 -0.2594 -0.3712
 4656TIP3    H235604   3.479   5.066   7.157 -0.8665  1.0845 -1.3290
 4657TIP3   OH235605   0.536   1.021   7.604 -0.1353 -0.0409 -0.0170
 4657TIP3    H135606   0.540   1.044   7.696  0.3181  0.7569 -0.2251
 4657TIP3    H235607   0.625   1.034   7.572 -0.0579 -1.2871 -0.3456
 4658TIP3   OH235608   4.386   0.511   0.133  0.0713 -0.3015 -0.1581
 4658TIP3    H135609   4.372   0.594   0.179 -1.4299 -1.2589  1.2346
 4658TIP3    H235610   4.320   0.510   0.064 -1.4225 -1.2265  1.2076
 4659TIP3   OH235611   3.336   5.776   2.166 -0.1273 -0.0941 -0.2137
 4659TIP3    H135612   3.369   5.795   2.254 -0.4882  0.4115 -0.1870
 4659TIP3    H235613   3.258   5.830   2.157 -1.6291 -2.1224  0.1471
 4660TIP3   OH235614   2.031   2.702   8.036  0.3332 -0.8125  0.0560
 4660TIP3    H135615   2.058   2.620   7.993 -0.9380 -1.8254  1.1066
 4660TIP3    H235616   1.990   2.753   7.966  0.1228 -1.5601 -0.3865
 4661TIP3   OH235617   3.332   0.870   1.231 -0.0962 -0.3182  0.3947
 4661TIP3    H135618   3.262   0.812   1.260 -1.8700  0.9407 -1.1148
 4661TIP3    H235619   3.297   0.958   1.244  0.4753  0.3297 -1.9416
 4662TIP3   OH235620   6.952   6.032   1.303 -0.0983  0.4879 -0.1998
 4662TIP3    H135621   6.987   6.093   1.238  0.4072  1.4141  0.9187
 4662TIP3    H235622   6.976   5.946   1.269 -0.2222  0.9216 -1.4565
 4663TIP3   OH235623   3.688   3.634   2.257 -0.0440 -0.1599  0.5492
 4663TIP3    H135624   3.697   3.542   2.283 -0.2850 -0.3599 -0.0605
 4663TIP3    H235625   3.604   3.661   2.292 -0.5831 -0.5650 -0.4019
 4664TIP3   OH235626   6.937   4.770   2.383  0.6303 -0.1108  0.1111
 4664TIP3    H135627   6.978   4.829   2.320  0.9315  0.2628  0.6501
 4664TIP3    H235628   6.994   4.773   2.460  0.3517 -0.6797  0.3478
 4665TIP3   OH235629   4.008   4.961   1.426 -0.0208  0.5432  0.1501
 4665TIP3    H135630   3.920   4.924   1.428 -0.2373  1.0653  1.0419
 4665TIP3    H235631   4.061   4.894   1.384 -0.3160 -1.0036  2.0683
 4666TIP3   OH235632   4.130   6.538   0.566  0.5700  0.3883 -0.0202
 4666TIP3    H135633   4.056   6.561   0.622  0.2704 -2.1025  0.7276
 4666TIP3    H235634   4.091   6.521   0.481 -0.1360 -2.7684  0.8131
 4667TIP3   OH235635   0.323   6.065   0.574 -0.3259  0.4705 -0.6012
 4667TIP3    H135636   0.247   6.073   0.632 -0.0717 -0.1574 -0.1714
 4667TIP3    H235637   0.285   6.054   0.487 -0.7270  0.4107 -0.4255
 4668TIP3   OH235638   5.214   4.345   0.336  0.6458  0.4416  0.0242
 4668TIP3    H135639   5.240   4.436   0.350 -0.1045  0.4272  1.6870
 4668TIP3    H235640   5.121   4.343   0.358  1.4100 -1.4382  3.8856
 4669TIP3   OH235641   1.751   0.631   0.865  0.2438  0.7453  0.3323
 4669TIP3    H135642   1.768   0.679   0.785  1.3614 -2.2183 -1.3876
 4669TIP3    H235643   1.655   0.629   0.873  0.0485  0.1509 -1.6304
 4670TIP3   OH235644   5.679   5.216   2.373  0.1816 -0.3964 -0.2946
 4670TIP3    H135645   5.641   5.304   2.371 -1.0141 -0.9102 -1.1350
 4670TIP3    H235646   5.680   5.193   2.466 -1.2152 -0.1900 -0.2069
 4671TIP3   OH235647   4.837   6.317   0.673  0.7798  0.0646 -0.3746
 4671TIP3    H135648   4.800   6.391   0.626 -0.2692 -1.5039 -2.1844
 4671TIP3    H235649   4.784   6.309   0.752  0.4085  0.7613 -0.5476
 4672TIP3   OH235650   1.838   4.879   7.706 -0.3942 -0.1438 -0.3341
 4672TIP3    H135651   1.814   4.787   7.697  0.7496 -0.4268 -0.6448
 4672TIP3    H235652   1.934   4.879   7.703 -0.4017  1.2859 -2.6506
 4673TIP3   OH235653   6.901   4.677   8.280  0.1450  0.3436 -0.3999
 4673TIP3    H135654   6.964   4.699   8.211 -0.3683  0.8272 -0.7243
 4673TIP3    H235655   6.886   4.583   8.271 -0.5224  0.5364 -1.4724
 4674TIP3   OH235656   5.300   3.197   0.687 -0.0226 -0.3404 -0.2267
 4674TIP3    H135657   5.381   3.155   0.718 -0.4696 -0.6399  0.5716
 4674TIP3    H235658   5.330   3.276   0.643  0.8298 -1.3306 -1.5245
 4675TIP3   OH235659   0.596   0.316   6.641 -0.3106 -0.0022 -0.4784
 4675TIP3    H135660   0.558   0.402   6.625  1.5798  1.0499  0.4095
 4675TIP3    H235661   0.619   0.284   6.553 -0.7066  0.5377 -0.7852
 4676TIP3   OH235662   0.262   6.952   0.992  0.5369 -0.3420 -0.3861
 4676TIP3    H135663   0.260   6.964   0.897 -0.3925 -0.6052 -0.4034
 4676TIP3    H235664   0.286   7.038   1.027 -2.2422  0.6479 -0.7029
 4677TIP3   OH235665   3.835   1.686   0.826 -0.0571  0.3903  0.2393
 4677TIP3    H135666   3.793   1.638   0.897 -1.2749  1.4978  0.3139
 4677TIP3    H235667   3.874   1.763   0.868  0.6778  0.1967 -0.0675
 4678TIP3   OH235668   1.513   4.265   2.497 -0.1794 -0.2403 -0.8080
 4678TIP3    H135669   1.491   4.271   2.590  1.8321  2.1451 -0.3907
 4678TIP3    H235670   1.431   4.242   2.455 -2.0755  2.2109  1.2065
 4679TIP3   OH235671   3.535   1.763   2.185 -0.4497 -0.0004 -0.4008
 4679TIP3    H135672   3.597   1.695   2.158 -0.2223 -0.2996  0.7969
 4679TIP3    H235673   3.481   1.721   2.252 -1.1179  0.6415 -0.5198
 4680TIP3   OH235674   1.401   0.846   2.286 -0.0217  0.1705  0.1051
 4680TIP3    H135675   1.357   0.896   2.218  0.7038  0.8676  0.1400
 4680TIP3    H235676   1.401   0.904   2.362  0.6861  0.0568  0.1922
 4681TIP3   OH235677   2.463   2.043   8.225 -0.0921  0.1486 -0.0892
 4681TIP3    H135678   2.420   2.021   8.308 -0.5867  2.0453  0.1993
 4681TIP3    H235679   2.551   2.007   8.233  0.0337  0.7456  1.4967
 4682TIP3   OH235680   0.946   4.270   7.771  0.0036 -0.2207  0.2391
 4682TIP3    H135681   0.939   4.302   7.681 -0.2692  2.1507  1.0289
 4682TIP3    H235682   0.969   4.178   7.762 -0.2600 -0.1160 -2.2507
 4683TIP3   OH235683   6.721   6.981   0.608  0.7170  0.3953 -0.2158
 4683TIP3    H135684   6.810   6.959   0.633  0.5355  0.5232  0.5670
 4683TIP3    H235685   6.727   7.004   0.515  0.9436 -2.8544 -1.1597
 4684TIP3   OH235686   4.005   2.154   7.996 -0.5119  0.3049 -0.1105
 4684TIP3    H135687   4.060   2.178   7.921 -0.4569 -0.2546 -0.2509
 4684TIP3    H235688   4.059   2.093   8.046 -1.1680 -0.5996 -0.4899
 4685TIP3   OH235689   3.273   4.590   8.000 -0.0759 -0.4748 -0.0070
 4685TIP3    H135690   3.323   4.509   8.008 -0.4459 -0.8113 -0.9501
 4685TIP3    H235691   3.219   4.577   7.922  0.9890  1.3004 -1.1007
 4686TIP3   OH235692   4.589   2.857   0.480  0.4577 -0.2070  0.5128
 4686TIP3    H135693   4.659   2.908   0.521  0.5409  0.4528 -0.4070
 4686TIP3    H235694   4.545   2.814   0.553  0.0791  1.5893  1.3958
 4687TIP3   OH235695   3.788   2.727   1.746  0.1818  0.8573  0.3295
 4687TIP3    H135696   3.723   2.715   1.815  1.5260  2.3041  1.9222
 4687TIP3    H235697   3.816   2.638   1.725  1.3957  0.4170  3.3550
 4688TIP3   OH235698   5.647   4.308   0.591 -0.0977 -0.0245  0.0245
 4688TIP3    H135699   5.562   4.351   0.590 -0.3188 -0.4429 -0.9985
 4688TIP3    H235700   5.631   4.223   0.549  0.4194 -0.9277  1.5659
 4689TIP3   OH235701   0.797   3.644   1.233 -0.4894  0.2615  0.3417
 4689TIP3    H135702   0.713   3.607   1.260  0.3002 -2.0273 -0.1084
 4689TIP3    H235703   0.816   3.712   1.298 -1.8282 -0.4129  1.4890
 4690TIP3   OH235704   3.712   0.465   8.140  0.0784 -0.5141  0.3287
 4690TIP3    H135705   3.787   0.462   8.200 -0.4037  0.4454  0.9965
 4690TIP3    H235706   3.637   0.445   8.196 -0.2008 -1.3321 -0.3130
 4691TIP3   OH235707   3.029   1.632   7.787 -1.0178  0.9426 -0.4858
 4691TIP3    H135708   3.122   1.650   7.776 -0.8234  0.6566  0.5662
 4691TIP3    H235709   2.988   1.663   7.706 -0.0633  1.4244 -0.7920
 4692TIP3   OH235710   0.022   2.785   7.162  0.4574 -0.7115  0.6134
 4692TIP3    H135711   0.058   2.732   7.091 -3.3896 -3.5750  0.4823
 4692TIP3    H235712  -0.025   2.855   7.117  0.9203 -0.4452  0.5339
 4693TIP3   OH235713   4.115   6.560   0.194 -0.5834  0.0680 -0.5164
 4693TIP3    H135714   4.170   6.620   0.244 -0.3480 -0.6942  0.1610
 4693TIP3    H235715   4.172   6.486   0.174 -0.1859  1.0273 -3.3306
 4694TIP3   OH235716   6.000   3.958   1.901  0.4606 -0.1225 -0.0980
 4694TIP3    H135717   6.031   3.875   1.937 -1.4198 -0.1177  1.6978
 4694TIP3    H235718   6.074   4.018   1.909  0.6515 -0.6088  2.1899
 4695TIP3   OH235719   5.093   3.834   1.916 -0.2466  0.0802 -0.4913
 4695TIP3    H135720   5.161   3.819   1.850 -1.2438 -0.8753 -1.3296
 4695TIP3    H235721   5.086   3.930   1.921  2.0210  0.2654  0.5565
 4696TIP3   OH235722   2.886   3.285   7.607 -0.4149 -0.2218  0.0592
 4696TIP3    H135723   2.869   3.258   7.697 -0.0298  1.3429  0.6268
 4696TIP3    H235724   2.981   3.295   7.602 -0.3061 -1.4183 -0.8799
 4697TIP3   OH235725   3.150   4.248   0.221  0.5954 -0.0458  0.6310
 4697TIP3    H135726   3.054   4.247   0.219  0.5079 -1.8021 -2.8391
 4697TIP3    H235727   3.173   4.337   0.245 -1.8973  0.4500  1.4924
 4698TIP3   OH235728   4.732   3.930   1.347 -0.0862  0.1145 -0.0836
 4698TIP3    H135729   4.685   3.982   1.412  0.7381  0.4905  0.2309
 4698TIP3    H235730   4.762   3.995   1.283  3.6478  0.6158  1.9021
 4699TIP3   OH235731   0.595   0.912   1.878 -0.4756 -0.0503  0.0469
 4699TIP3    H135732   0.573   0.866   1.959  1.7817 -0.1426  0.6733
 4699TIP3    H235733   0.641   0.991   1.907 -0.2670  0.2725 -1.1261
 4700TIP3   OH235734   6.569   0.752   7.966  0.1068 -0.5272  0.9117
 4700TIP3    H135735   6.628   0.823   7.991  0.1858  0.3071 -1.4257
 4700TIP3    H235736   6.620   0.698   7.906 -0.9786 -0.7190  0.1396
 4701TIP3   OH235737   1.848   5.707   3.428 -0.1325 -0.2971  0.1452
 4701TIP3    H135738   1.799   5.654   3.492 -1.2044  0.0950 -0.3337
 4701TIP3    H235739   1.787   5.720   3.356  1.9733 -3.3438 -2.4991
 4702TIP3   OH235740   2.495   0.766   2.285  0.4187 -0.3455  0.3836
 4702TIP3    H135741   2.467   0.680   2.317  0.5289 -0.5958 -0.1921
 4702TIP3    H235742   2.585   0.753   2.257  0.0872 -0.3241 -0.7479
 4703TIP3   OH235743   6.717   0.141   7.587 -0.0607 -0.2917 -0.1436
 4703TIP3    H135744   6.739   0.234   7.578 -2.3694  0.2606 -0.7445
 4703TIP3    H235745   6.622   0.138   7.578 -0.0462 -2.7277 -0.1045
 4704TIP3   OH235746   3.479   3.895   1.125 -0.1939 -0.2347  0.1039
 4704TIP3    H135747   3.480   3.957   1.051 -1.0979  1.1272  1.1879
 4704TIP3    H235748   3.404   3.839   1.109  0.5569 -1.0189 -0.8219
 4705TIP3   OH235749   4.090   0.845   0.276 -0.1220 -0.6151  0.5527
 4705TIP3    H135750   4.102   0.940   0.267 -0.6665 -0.7240 -2.0740
 4705TIP3    H235751   4.013   0.836   0.332 -0.1663  0.4688  0.7018
 4706TIP3   OH235752   4.398   2.755   2.376  0.4204 -0.4712 -0.5537
 4706TIP3    H135753   4.339   2.726   2.446  0.5246 -0.2989 -0.3910
 4706TIP3    H235754   4.459   2.815   2.420 -0.1056  0.3965 -0.9872
 4707TIP3   OH235755   6.200   3.930   8.404 -0.6046  0.0029 -0.5529
 4707TIP3    H135756   6.145   3.863   8.364 -2.3219 -0.2089  1.9528
 4707TIP3    H235757   6.149   4.011   8.396 -0.1198  0.3223 -0.4616
 4708TIP3   OH235758   4.464   2.916   0.880 -0.3617  0.1014  0.5532
 4708TIP3    H135759   4.409   2.988   0.848 -1.1647 -0.3357  0.9132
 4708TIP3    H235760   4.450   2.916   0.975  0.3150  0.0177  0.6557
 4709TIP3   OH235761   0.169   5.177   8.236 -0.4185  0.1897 -0.3908
 4709TIP3    H135762   0.247   5.150   8.283 -0.9081  0.7083  0.7531
 4709TIP3    H235763   0.125   5.095   8.212 -0.3393 -0.0757  0.3627
 4710TIP3   OH235764   0.618   5.896   2.106 -0.5999  0.0469 -0.4373
 4710TIP3    H135765   0.611   5.800   2.113  1.5650 -0.1452  0.0329
 4710TIP3    H235766   0.530   5.928   2.123 -1.1083 -1.8134  0.7337
 4711TIP3   OH235767   5.533   6.411   6.854 -0.0896 -0.6428  0.1721
 4711TIP3    H135768   5.494   6.447   6.933 -2.2256 -0.3918 -0.9372
 4711TIP3    H235769   5.537   6.316   6.869 -1.6206 -0.7256  0.1172
 4712TIP3   OH235770   1.909   2.805   8.274 -0.0064 -0.7329 -0.0946
 4712TIP3    H135771   1.968   2.782   8.202 -0.4339 -2.1607 -0.0361
 4712TIP3    H235772   1.966   2.808   8.351 -0.0198 -2.5150  0.0350
 4713TIP3   OH235773   3.377   2.050   1.508  0.3494  0.0229  0.0862
 4713TIP3    H135774   3.286   2.040   1.481  0.5192 -0.7568 -0.2362
 4713TIP3    H235775   3.408   2.128   1.461  0.1455 -0.3270 -0.6445
 4714TIP3   OH235776   0.535   0.155   0.693 -0.6340 -0.8932  0.6602
 4714TIP3    H135777   0.595   0.190   0.628 -2.4677 -1.5346 -1.4903
 4714TIP3    H235778   0.537   0.220   0.764  3.6619 -1.6500  1.5179
 4715TIP3   OH235779   3.376   1.223   2.529  0.4285 -0.0475  0.1476
 4715TIP3    H135780   3.291   1.226   2.484  0.1270 -0.6422  0.6623
 4715TIP3    H235781   3.355   1.240   2.621  0.7799 -0.7885  0.3754
 4716TIP3   OH235782   3.424   0.127   0.606 -0.5210  0.1754  0.7342
 4716TIP3    H135783   3.500   0.161   0.653  0.7945 -0.7047 -0.6562
 4716TIP3    H235784   3.387   0.203   0.563  0.5797  0.3838  0.1090
 4717TIP3   OH235785   4.609   2.744   8.146  0.8324 -0.2417  0.6782
 4717TIP3    H135786   4.698   2.711   8.140  0.3581 -1.3903 -0.4840
 4717TIP3    H235787   4.562   2.699   8.076 -0.3125  1.4718  0.2792
 4718TIP3   OH235788   0.203   3.427   1.682 -0.1547  0.8535  0.1480
 4718TIP3    H135789   0.223   3.494   1.747 -1.1894  0.8006  0.5423
 4718TIP3    H235790   0.186   3.476   1.601 -0.3415  1.0311  0.2927
 4719TIP3   OH235791   2.171   3.590   7.729  0.3774  0.4576  0.0235
 4719TIP3    H135792   2.241   3.653   7.740 -1.1961  1.8882  3.3681
 4719TIP3    H235793   2.127   3.588   7.814 -2.1723 -2.1458 -1.1691
 4720TIP3   OH235794   1.282   0.194   8.337 -0.3166 -0.2807 -0.3358
 4720TIP3    H135795   1.377   0.188   8.343 -0.2393  1.0805  0.2457
 4720TIP3    H235796   1.263   0.288   8.344 -1.4917 -0.0859 -3.9364
 4721TIP3   OH235797   5.109   0.344   7.111  0.1988 -0.0716  0.4286
 4721TIP3    H135798   5.184   0.317   7.057  0.1904 -0.8585  0.7983
 4721TIP3    H235799   5.147   0.404   7.176  0.3872  0.0683  0.1926
 4722TIP3   OH235800   4.412   5.921   7.179  0.4710 -0.6695  0.0450
 4722TIP3    H135801   4.461   5.842   7.204  0.6474 -0.0939  1.6088
 4722TIP3    H235802   4.469   5.965   7.116  0.6187 -1.5063 -0.4188
 4723TIP3   OH235803   3.245   6.373   1.708  0.4194 -0.0776 -0.0789
 4723TIP3    H135804   3.177   6.408   1.766 -0.4508 -1.0828 -0.4802
 4723TIP3    H235805   3.308   6.333   1.768  0.7256  0.9327  0.3008
 4724TIP3   OH235806   6.659   6.840   0.280 -0.0593 -0.2846 -0.3524
 4724TIP3    H135807   6.640   6.774   0.347  0.1164 -1.6369 -1.5773
 4724TIP3    H235808   6.583   6.898   0.281 -0.0356 -0.2380  1.0263
 4725TIP3   OH235809   0.647   4.244   7.642  0.3604  0.3744  0.0793
 4725TIP3    H135810   0.657   4.281   7.555 -2.0566  0.8575 -0.0503
 4725TIP3    H235811   0.574   4.183   7.634 -0.6556  1.2605  1.9995
 4726TIP3   OH235812   6.376   3.654   1.901  0.2063  0.2655 -0.3291
 4726TIP3    H135813   6.433   3.645   1.825 -0.1210 -0.8973 -0.4580
 4726TIP3    H235814   6.349   3.564   1.921 -1.9833  0.7879 -0.6124
 4727TIP3   OH235815   5.361   3.320   7.638 -0.0300 -0.5477 -0.7044
 4727TIP3    H135816   5.316   3.311   7.722  0.0081 -2.5842 -0.8474
 4727TIP3    H235817   5.325   3.400   7.599 -0.7263 -0.0859  0.8307
 4728TIP3   OH235818   5.340   6.932   1.726 -0.0971  0.3575  0.3156
 4728TIP3    H135819   5.434   6.911   1.734  0.7951  2.4241 -2.8042
 4728TIP3    H235820   5.325   7.000   1.791  0.5769  0.0776  0.7812
 4729TIP3   OH235821   2.467   2.532   1.595 -0.6324 -0.0210 -0.1327
 4729TIP3    H135822   2.465   2.587   1.516 -0.9940  0.6815  0.3528
 4729TIP3    H235823   2.538   2.569   1.647 -0.9080  0.0260  0.2154
 4730TIP3   OH235824   2.246   0.891   6.895 -0.1135 -0.3107  0.0433
 4730TIP3    H135825   2.255   0.813   6.950 -1.2478  0.2659  1.1060
 4730TIP3    H235826   2.169   0.874   6.841 -0.1258 -0.0985 -0.0091
 4731TIP3   OH235827   3.495   1.192   7.130  0.2645 -0.2758 -0.1840
 4731TIP3    H135828   3.468   1.254   7.198  1.2966  0.3192 -0.3047
 4731TIP3    H235829   3.589   1.207   7.119  0.0158  0.0830 -2.1831
 4732TIP3   OH235830   6.734   0.089   8.359 -0.2572  0.4167 -0.7215
 4732TIP3    H135831   6.814   0.135   8.334  1.0919 -1.6242 -0.3902
 4732TIP3    H235832   6.719   0.027   8.288 -0.5906 -0.3603  0.0156
 4733TIP3   OH235833   1.579   3.110   0.756  0.3309  0.0926 -0.3279
 4733TIP3    H135834   1.593   3.128   0.663 -1.2647 -0.2238 -0.6505
 4733TIP3    H235835   1.509   3.045   0.758  0.4696 -0.0479  1.1019
 4734TIP3   OH235836   1.202   1.167   0.698  0.2972 -0.4549  0.4522
 4734TIP3    H135837   1.240   1.250   0.671  0.7703 -0.7150  0.3117
 4734TIP3    H235838   1.158   1.134   0.620  2.4501 -1.6551 -0.3301
 4735TIP3   OH235839   1.713   3.581   1.423 -0.1563  0.0966  0.4428
 4735TIP3    H135840   1.655   3.526   1.476  0.0056 -2.2919 -1.6723
 4735TIP3    H235841   1.656   3.649   1.387 -0.7978  0.1215  1.4658
 4736TIP3   OH235842   4.870   3.722   1.785  0.2793 -0.7137  0.2246
 4736TIP3    H135843   4.936   3.772   1.834 -0.1750 -0.0896  0.2126
 4736TIP3    H235844   4.909   3.636   1.772  0.8430 -0.5388  0.7504
 4737TIP3   OH235845   2.425   6.558   2.190 -0.7922 -0.7079  0.5135
 4737TIP3    H135846   2.451   6.495   2.124  0.7217  1.0092 -0.6394
 4737TIP3    H235847   2.363   6.616   2.145 -0.8364 -0.3564  1.0118
 4738TIP3   OH235848   3.264   0.332   1.870 -0.3371  0.5690  0.2024
 4738TIP3    H135849   3.297   0.243   1.863  0.9663  1.0919 -0.6982
 4738TIP3    H235850   3.172   0.322   1.895 -0.5603 -1.0427 -1.1264
 4739TIP3   OH235851   6.395   0.187   2.571  0.0590  0.3263  0.3202
 4739TIP3    H135852   6.421   0.255   2.633 -0.3868  0.7190  0.0811
 4739TIP3    H235853   6.368   0.235   2.493  1.4662 -0.1865 -0.5159
 4740TIP3   OH235854   4.430   1.142   7.913  0.4338 -0.0965 -0.2710
 4740TIP3    H135855   4.401   1.092   7.988 -1.1426  1.5343  0.2799
 4740TIP3    H235856   4.437   1.232   7.945 -1.2548  0.8335 -2.2508
 4741TIP3   OH235857   0.134   4.259   1.322 -0.2351  0.4331 -0.0232
 4741TIP3    H135858   0.162   4.258   1.413  1.5205  1.1518 -0.5082
 4741TIP3    H235859   0.213   4.235   1.272 -1.1098  0.2126 -1.3638
 4742TIP3   OH235860   0.606   3.704   0.981 -0.4672 -0.1529 -0.3047
 4742TIP3    H135861   0.517   3.695   1.015 -0.5132  0.0815 -0.3607
 4742TIP3    H235862   0.659   3.726   1.057 -0.4717 -0.2094 -0.2852
 4743TIP3   OH235863   2.277   2.354   7.627  0.2440  0.1201  0.1093
 4743TIP3    H135864   2.295   2.412   7.554 -1.2542 -0.8725 -1.0959
 4743TIP3    H235865   2.361   2.347   7.673  1.4608  0.0498 -2.0211
 4744TIP3   OH235866   0.610   2.514   1.681  0.4849  0.2002  0.0067
 4744TIP3    H135867   0.549   2.521   1.608  0.8674  1.1064 -0.2448
 4744TIP3    H235868   0.687   2.562   1.652  0.4077  1.1197  1.2431
 4745TIP3   OH235869   0.195   1.346   1.806 -0.3226 -0.0941  0.1225
 4745TIP3    H135870   0.120   1.334   1.865 -1.5181 -0.8967 -1.4974
 4745TIP3    H235871   0.259   1.280   1.835 -0.7887 -0.3169  0.6631
 4746TIP3   OH235872   1.332   3.838   7.528 -0.1515  0.2621  0.3587
 4746TIP3    H135873   1.343   3.753   7.571 -0.2192  0.8241  1.5081
 4746TIP3    H235874   1.417   3.854   7.486 -0.4899 -0.8746 -0.8331
 4747TIP3   OH235875   0.593   0.417   1.638  0.3261 -0.7835 -0.9265
 4747TIP3    H135876   0.534   0.406   1.564 -1.1770 -0.3485  0.1628
 4747TIP3    H235877   0.556   0.362   1.707  0.0259  1.0336  0.4291
 4748TIP3   OH235878   3.782   3.207   7.431  0.7793  0.2047 -0.0403
 4748TIP3    H135879   3.819   3.248   7.353 -0.3504  0.7417 -0.3057
 4748TIP3    H235880   3.709   3.155   7.399  2.3107 -2.3103  0.2565
 4749TIP3   OH235881   3.991   0.235   7.473 -0.2375 -0.1914  0.4928
 4749TIP3    H135882   4.001   0.328   7.449  0.3532 -0.8682 -2.2423
 4749TIP3    H235883   4.072   0.213   7.518 -0.7332  0.7930  1.9311
 4750TIP3   OH235884   2.600   6.791   7.088 -0.1490 -0.3654 -0.3448
 4750TIP3    H135885   2.546   6.820   7.014 -0.2713  0.8787  0.2170
 4750TIP3    H235886   2.623   6.700   7.066 -0.9728 -0.3294 -1.4482
 4751TIP3   OH235887   0.368   1.428   2.156 -1.1060 -0.7779  0.3196
 4751TIP3    H135888   0.448   1.480   2.168 -1.0531 -0.9742  0.8259
 4751TIP3    H235889   0.303   1.492   2.126 -0.7915 -0.5962  0.0117
 4752TIP3   OH235890   1.399   5.725   1.105  0.7410  0.0568  0.2509
 4752TIP3    H135891   1.372   5.817   1.100  0.3700 -0.0347  0.6293
 4752TIP3    H235892   1.322   5.676   1.076  1.2749 -0.0918 -0.9714
 4753TIP3   OH235893   1.638   2.346   2.238  0.6979 -0.1384  0.6242
 4753TIP3    H135894   1.558   2.297   2.222  0.7489  0.3658 -1.4905
 4753TIP3    H235895   1.707   2.294   2.196  0.7086  1.7309 -1.9543
 4754TIP3   OH235896   0.806   5.214   7.696  0.1855  0.0309 -0.0918
 4754TIP3    H135897   0.771   5.301   7.715 -0.0612  0.3574 -1.8716
 4754TIP3    H235898   0.757   5.155   7.754 -0.2292  0.9761  0.5422
 4755TIP3   OH235899   1.228   5.850   0.552 -0.0959 -0.7127 -0.3136
 4755TIP3    H135900   1.136   5.831   0.531 -0.7532 -0.2120  1.8362
 4755TIP3    H235901   1.243   5.937   0.515 -0.8004 -0.4034  0.0907
 4756TIP3   OH235902   4.880   6.648   8.237 -1.0754 -0.4507 -0.2331
 4756TIP3    H135903   4.856   6.555   8.237 -3.7375  0.1376  0.3067
 4756TIP3    H235904   4.922   6.662   8.322  1.7537 -1.6048 -1.3276
 4757TIP3   OH235905   4.496   4.811   2.591 -0.9936 -0.3614 -0.0610
 4757TIP3    H135906   4.435   4.882   2.609  1.5911  1.7874  0.9586
 4757TIP3    H235907   4.476   4.745   2.657 -1.1204  1.0475  1.3786
 4758TIP3   OH235908   6.570   6.714   2.300  0.0936 -0.0801  0.0852
 4758TIP3    H135909   6.611   6.698   2.215 -0.1243 -0.0555 -0.0241
 4758TIP3    H235910   6.562   6.627   2.339 -0.8270 -0.2127 -0.3882
 4759TIP3   OH235911   2.363   4.558   0.877 -0.0569  0.5587  0.0961
 4759TIP3    H135912   2.426   4.602   0.935  1.1302 -1.2730  0.2907
 4759TIP3    H235913   2.283   4.609   0.885 -0.5076 -0.4600  4.6724
 4760TIP3   OH235914   6.816   5.766   8.028 -0.8185  0.3264  0.3384
 4760TIP3    H135915   6.776   5.821   8.094 -2.0587 -0.0568 -0.0646
 4760TIP3    H235916   6.765   5.783   7.948 -1.0519 -1.1701  0.1377
 4761TIP3   OH235917   0.458   0.969   0.864  0.2577 -0.1030 -0.3763
 4761TIP3    H135918   0.364   0.958   0.875  0.0271  0.8757 -1.2028
 4761TIP3    H235919   0.482   1.035   0.929  0.3056 -0.0625 -0.4352
 4762TIP3   OH235920   2.732   2.433   1.980  1.1098 -1.1017  0.0909
 4762TIP3    H135921   2.796   2.491   2.021  1.4855 -1.1953 -0.3585
 4762TIP3    H235922   2.732   2.355   2.035  1.2995 -1.0559  0.1563
 4763TIP3   OH235923   6.045   4.210   0.797  0.0462  0.2356  0.2355
 4763TIP3    H135924   6.040   4.268   0.722 -1.2106  0.8549  0.7716
 4763TIP3    H235925   6.025   4.123   0.761  1.3203  0.1943 -0.4525
 4764TIP3   OH235926   4.593   6.381   8.304 -0.0651  0.3470 -0.1134
 4764TIP3    H135927   4.500   6.367   8.290 -0.4194  1.1375  1.2126
 4764TIP3    H235928   4.605   6.371   8.399  1.2873 -0.2269 -0.3192
 4765TIP3   OH235929   5.304   6.505   8.412  0.1796 -0.6030  0.1096
 4765TIP3    H135930   5.297   6.472   8.501 -1.1772  0.0315  0.2636
 4765TIP3    H235931   5.308   6.426   8.357 -1.7365 -1.0577  0.5602
 4766TIP3   OH235932   3.130   6.725   2.628  0.2002 -0.3345  0.3027
 4766TIP3    H135933   3.160   6.692   2.713 -0.7915 -2.9839 -0.2724
 4766TIP3    H235934   3.211   6.735   2.577  0.7280  0.4008  1.2504
 4767TIP3   OH235935   4.493   2.178   0.477 -0.2903  0.7112 -0.2415
 4767TIP3    H135936   4.567   2.142   0.528 -1.5430 -0.9857  0.4812
 4767TIP3    H235937   4.495   2.128   0.395 -2.0071 -1.1049  0.7439
 4768TIP3   OH235938   0.125   4.431   0.958 -0.1848  0.1305  0.3267
 4768TIP3    H135939   0.156   4.391   0.877 -0.5778  1.8651 -0.7213
 4768TIP3    H235940   0.071   4.363   0.999  1.4742 -1.4026  0.0585
 4769TIP3   OH235941   0.604   2.028   8.157  0.4830  0.1485  1.1248
 4769TIP3    H135942   0.652   2.095   8.108  1.3944 -1.7116 -0.6755
 4769TIP3    H235943   0.673   1.973   8.195 -0.2186 -0.8948  0.9182
 4770TIP3   OH235944   0.287   1.397   2.922  0.3036 -0.1060  0.1514
 4770TIP3    H135945   0.201   1.358   2.904  0.3593  0.1210 -0.6524
 4770TIP3    H235946   0.321   1.421   2.836 -0.2024  2.7233  0.6442
 4771TIP3   OH235947   6.717   5.822   7.774 -0.1264  0.5527 -0.2947
 4771TIP3    H135948   6.650   5.890   7.779 -0.2668  0.4882 -1.1218
 4771TIP3    H235949   6.706   5.784   7.687  0.9895  0.5429 -0.4491
 4772TIP3   OH235950   1.440   5.664   0.445 -0.2171 -0.3085 -0.3915
 4772TIP3    H135951   1.389   5.742   0.467  0.1866 -0.1899  0.1639
 4772TIP3    H235952   1.408   5.597   0.505  0.0766 -0.3109 -0.2348
 4773TIP3   OH235953   5.393   2.661   7.658 -0.1962 -0.4802 -0.1280
 4773TIP3    H135954   5.469   2.719   7.663 -1.3618  0.9901  1.2422
 4773TIP3    H235955   5.333   2.693   7.725 -2.3944 -1.0895 -1.7042
 4774TIP3   OH235956   4.259   6.559   6.284 -0.3883  0.1302  0.1448
 4774TIP3    H135957   4.164   6.569   6.286 -0.4187  0.0543 -0.6572
 4774TIP3    H235958   4.289   6.597   6.366 -1.2077 -0.9238  0.9615
 4775TIP3   OH235959   1.797   2.651   6.705  0.1599  0.0837 -0.7787
 4775TIP3    H135960   1.889   2.673   6.692  0.1134 -0.5444 -2.4419
 4775TIP3    H235961   1.772   2.697   6.785  2.6577 -2.0598  1.4469
 4776TIP3   OH235962   3.600   6.676   1.652  0.2198  0.4787  0.1642
 4776TIP3    H135963   3.612   6.688   1.557 -1.6460 -0.4448 -0.2424
 4776TIP3    H235964   3.651   6.598   1.673 -1.5610 -0.9964 -0.6958
 4777TIP3   OH235965   4.693   2.780   2.241  0.4667 -0.0062  0.2433
 4777TIP3    H135966   4.635   2.813   2.310  1.2696 -1.1136  1.5032
 4777TIP3    H235967   4.716   2.692   2.269  0.4462 -0.6923 -1.7219
 4778TIP3   OH235968   5.611   1.744   7.396  0.6607  0.3224 -0.5458
 4778TIP3    H135969   5.617   1.689   7.318 -1.4171  0.8547 -1.1424
 4778TIP3    H235970   5.561   1.692   7.459 -0.4533  1.1168 -0.7517
 4779TIP3   OH235971   0.228   4.217   7.613  0.2710 -0.3790 -0.0265
 4779TIP3    H135972   0.250   4.266   7.533  0.9256 -0.6475 -0.0237
 4779TIP3    H235973   0.149   4.168   7.590  0.6835 -0.7644 -0.6529
 4780TIP3   OH235974   5.534   2.353   1.889 -0.0306 -0.1747  0.1786
 4780TIP3    H135975   5.534   2.280   1.827 -2.5056  0.6204 -0.8813
 4780TIP3    H235976   5.445   2.357   1.922  0.0903  2.2019  0.3966
 4781TIP3   OH235977   2.906   1.015   8.362  0.7896  0.1744 -0.3405
 4781TIP3    H135978   2.870   1.054   8.282  0.6364 -0.3013 -0.5090
 4781TIP3    H235979   2.954   1.086   8.404  0.5447  0.5340 -0.6595
 4782TIP3   OH235980   1.234   3.113   1.789  0.1711 -0.7365  0.3643
 4782TIP3    H135981   1.174   3.166   1.841  0.3107 -1.0267  0.8266
 4782TIP3    H235982   1.245   3.032   1.839  0.7004 -0.8187  0.1296
 4783TIP3   OH235983   4.281   3.407   8.111 -0.3917 -0.0088  0.3518
 4783TIP3    H135984   4.198   3.418   8.157 -0.7226 -2.3866  0.4200
 4783TIP3    H235985   4.299   3.494   8.075 -2.5207  0.7511  0.9327
 4784TIP3   OH235986   2.892   5.525   8.358  0.8649  0.5219  0.4358
 4784TIP3    H135987   2.946   5.448   8.378  2.9490  1.5775 -0.7393
 4784TIP3    H235988   2.808   5.489   8.330  1.6637 -1.3030  0.2565
 4785TIP3   OH235989   4.018   3.345   1.206  0.4873 -0.1419  0.4354
 4785TIP3    H135990   3.950   3.278   1.199  1.1959 -1.0403  1.7582
 4785TIP3    H235991   3.983   3.409   1.268 -1.4741  2.4440 -2.9387
 4786TIP3   OH235992   6.052   2.092   0.761 -0.4026  0.4826  0.1012
 4786TIP3    H135993   6.052   2.184   0.737 -0.7825  0.6939  0.8947
 4786TIP3    H235994   5.960   2.067   0.759 -0.2281 -0.1355 -1.0392
 4787TIP3   OH235995   3.074   4.955   0.688  0.4512 -0.2582 -0.1030
 4787TIP3    H135996   2.989   4.917   0.712  0.5694 -1.1199 -0.9612
 4787TIP3    H235997   3.095   5.015   0.759 -0.3546 -0.8691  0.6703
 4788TIP3   OH235998   6.942   5.100   0.370 -0.2018  0.3344  0.3083
 4788TIP3    H135999   6.981   5.017   0.343  2.7160  1.5777  0.3605
 4788TIP3    H236000   6.891   5.078   0.448  2.3366 -1.1035  1.6978
 4789TIP3   OH236001   0.143   1.219   7.004 -1.1341 -0.3691  0.4343
 4789TIP3    H136002   0.064   1.272   6.988 -1.3641 -0.8713 -0.1363
 4789TIP3    H236003   0.209   1.257   6.946 -0.8362  0.3047  1.2056
 4790TIP3   OH236004   1.977   2.869   7.424 -0.6857 -0.6234 -0.2357
 4790TIP3    H136005   1.897   2.921   7.409 -1.4753 -2.4092 -2.9736
 4790TIP3    H236006   1.945   2.783   7.450  0.4952 -0.6933  1.0901
 4791TIP3   OH236007   5.594   5.559   7.759 -0.0907 -0.7296  0.5666
 4791TIP3    H136008   5.685   5.577   7.734 -0.6120  0.5559 -0.5559
 4791TIP3    H236009   5.594   5.565   7.855  0.8296  0.2816  0.5256
 4792TIP3   OH236010   3.487   0.840   8.331  0.0129  0.3943 -0.0704
 4792TIP3    H136011   3.580   0.858   8.343 -0.0168  0.3962  0.1662
 4792TIP3    H236012   3.443   0.918   8.365 -0.0764  0.3987 -0.1935
 4793TIP3   OH236013   3.807   0.727   6.676 -0.0366  0.9008 -0.3884
 4793TIP3    H136014   3.767   0.644   6.651 -2.1309  2.2497 -1.8560
 4793TIP3    H236015   3.898   0.720   6.646  0.1825 -1.2575  0.5863
 4794TIP3   OH236016   0.412   1.947   7.982 -0.2513 -0.0996 -0.1564
 4794TIP3    H136017   0.352   1.897   8.038  0.0343 -1.2031 -0.7934
 4794TIP3    H236018   0.487   1.966   8.039 -0.6431  0.1620  0.2785
 4795TIP3   OH236019   2.353   6.292   2.845 -0.3887 -0.0253  0.3115
 4795TIP3    H136020   2.295   6.266   2.916  0.0761 -1.4296  0.2128
 4795TIP3    H236021   2.439   6.260   2.872  0.0019  0.4231 -0.3740
 4796TIP3   OH236022   3.143   4.576   0.597  0.1560 -0.0623  0.0939
 4796TIP3    H136023   3.178   4.527   0.671 -0.2871  0.2862  0.5461
 4796TIP3    H236024   3.220   4.608   0.550  0.4399 -0.1677  0.4862
 4797TIP3   OH236025   0.567   4.055   2.355 -0.3109  0.9018 -0.0579
 4797TIP3    H136026   0.480   4.032   2.387  0.2289  2.4208  2.7943
 4797TIP3    H236027   0.590   3.984   2.296 -2.4072 -0.9149  1.1617
 4798TIP3   OH236028   4.225   2.712   0.566 -0.1020 -0.3449  0.0061
 4798TIP3    H136029   4.237   2.702   0.471  0.5322 -1.7781  0.2082
 4798TIP3    H236030   4.314   2.705   0.601 -0.4213 -0.6085  0.7646
 4799TIP3   OH236031   3.374   3.911   2.051 -0.6456  0.3738  0.0567
 4799TIP3    H136032   3.301   3.874   2.101 -0.8773  0.9844  0.1810
 4799TIP3    H236033   3.430   3.952   2.117 -0.6418  0.6647 -0.1245
 4800TIP3   OH236034   6.953   1.436   0.194 -0.1421 -0.2997 -0.2348
 4800TIP3    H136035   6.952   1.341   0.181  2.2358 -0.1519 -2.1266
 4800TIP3    H236036   6.922   1.448   0.284  1.9158 -3.0682  0.9902
 4801TIP3   OH236037   6.119   3.444   8.367  0.1208 -0.2577  0.2473
 4801TIP3    H136038   6.176   3.463   8.442 -1.1794  0.5621  1.0676
 4801TIP3    H236039   6.046   3.395   8.403  0.1180 -1.0005 -0.7302
 4802TIP3   OH236040   6.093   1.933   1.268 -0.2127 -0.0548 -0.1926
 4802TIP3    H136041   6.079   1.934   1.174  0.7996  0.6448 -0.3505
 4802TIP3    H236042   6.162   1.868   1.282  1.8187  1.9574 -0.3079
 4803TIP3   OH236043   5.902   3.571   8.100  0.2407 -0.3231 -0.4275
 4803TIP3    H136044   5.855   3.651   8.078 -0.0472 -0.7729 -1.5461
 4803TIP3    H236045   5.835   3.513   8.136  0.0189 -0.7739 -1.5248
 4804TIP3   OH236046   0.980   6.239   1.602  0.1616  0.2662  0.1483
 4804TIP3    H136047   1.072   6.216   1.611 -0.1958 -1.3754 -0.2086
 4804TIP3    H236048   0.933   6.157   1.611 -1.3124  1.1205  0.6673
 4805TIP3   OH236049   6.780   5.664   0.444  0.3024  0.7125  0.1731
 4805TIP3    H136050   6.818   5.591   0.494  0.2852  1.3772  1.1864
 4805TIP3    H236051   6.695   5.632   0.415  0.4454  0.2034  0.3099
 4806TIP3   OH236052   5.625   4.734   0.307 -0.1935 -0.1838  0.4705
 4806TIP3    H136053   5.580   4.717   0.390  0.4646 -1.9034  0.5099
 4806TIP3    H236054   5.660   4.649   0.280  2.1191  0.8673 -0.1112
 4807TIP3   OH236055   2.955   0.540   0.272 -0.2573 -0.0220 -0.6305
 4807TIP3    H136056   2.951   0.482   0.196  0.5200  0.1719 -0.8286
 4807TIP3    H236057   2.888   0.606   0.255  0.8605  0.8535 -1.8685
 4808TIP3   OH236058   3.500   1.895   8.388  0.0858  0.3868 -0.2084
 4808TIP3    H136059   3.519   1.855   8.473 -1.8298  2.9142  1.5498
 4808TIP3    H236060   3.573   1.955   8.372  1.2714 -1.2411 -1.2357
 4809TIP3   OH236061   5.716   2.336   2.704 -0.0262 -0.5682  0.1101
 4809TIP3    H136062   5.797   2.302   2.742 -1.0890 -2.0041  1.2237
 4809TIP3    H236063   5.707   2.291   2.620  1.7218  1.7366 -1.4629
 4810TIP3   OH236064   2.739   5.721   0.739 -0.2243 -0.5143 -0.5171
 4810TIP3    H136065   2.648   5.750   0.739 -0.5092 -1.3671  0.6936
 4810TIP3    H236066   2.734   5.626   0.742  0.7210 -0.6073 -1.2646
 4811TIP3   OH236067   1.243   1.666   1.360 -0.2666 -0.2423 -0.0165
 4811TIP3    H136068   1.280   1.733   1.418 -0.5200 -1.1004  1.1730
 4811TIP3    H236069   1.158   1.645   1.399  0.1627 -1.8511  0.1518
 4812TIP3   OH236070   6.071   6.621   7.083 -0.2369  0.2393  0.3875
 4812TIP3    H136071   6.160   6.630   7.049 -0.2148 -2.3264 -0.4549
 4812TIP3    H236072   6.079   6.637   7.177  1.1582 -0.1171  0.3505
 4813TIP3   OH236073   6.504   6.613   7.678  0.1996 -0.1861 -0.1469
 4813TIP3    H136074   6.585   6.647   7.718  0.5054 -1.3353  0.2656
 4813TIP3    H236075   6.534   6.544   7.620 -0.3951  0.3375 -1.0969
 4814TIP3   OH236076   1.027   2.126   8.185  0.3748 -0.4431  0.5601
 4814TIP3    H136077   1.093   2.192   8.207 -0.3986  0.3349  0.6446
 4814TIP3    H236078   1.045   2.104   8.094  0.7835 -0.2677  0.5964
 4815TIP3   OH236079   3.260   2.179   1.281 -1.1854 -0.1500 -0.0926
 4815TIP3    H136080   3.214   2.261   1.265  1.5133  1.9086  1.8628
 4815TIP3    H236081   3.328   2.176   1.214 -0.4140 -0.0552  0.6705
 4816TIP3   OH236082   2.996   1.197   0.125  0.0905 -0.1861 -0.4266
 4816TIP3    H136083   2.919   1.253   0.127 -1.6031 -2.0375 -3.9490
 4816TIP3    H236084   3.055   1.239   0.063  0.7923 -0.0963  0.2881
 4817TIP3   OH236085   6.370   2.727   7.517  0.1303  0.3238 -0.4602
 4817TIP3    H136086   6.403   2.808   7.478 -0.5678 -0.3673 -2.6041
 4817TIP3    H236087   6.422   2.658   7.476 -0.1768 -0.4168  0.3640
 4818TIP3   OH236088   6.433   2.211   8.090 -0.3998 -0.5368 -0.1317
 4818TIP3    H136089   6.388   2.282   8.043 -0.0746 -1.0046 -1.1845
 4818TIP3    H236090   6.525   2.236   8.088 -0.1283 -1.5406 -1.5670
 4819TIP3   OH236091   5.545   6.091   0.774  0.0918  0.9201  0.2976
 4819TIP3    H136092   5.574   6.174   0.738 -0.3347  1.2642  0.7461
 4819TIP3    H236093   5.460   6.110   0.814 -0.6705 -0.0167 -0.7873
 4820TIP3   OH236094   6.308   2.220   8.368 -0.4841 -0.2389 -0.3772
 4820TIP3    H136095   6.359   2.211   8.287 -0.8081 -0.7547 -0.5330
 4820TIP3    H236096   6.362   2.178   8.434 -1.3806 -2.2525 -0.8450
 4821TIP3   OH236097   4.279   5.291   7.347 -0.2487  0.2243 -0.1069
 4821TIP3    H136098   4.294   5.217   7.406  0.1535 -0.6850 -1.2997
 4821TIP3    H236099   4.329   5.363   7.385  1.6469 -0.8881 -0.3414
 4822TIP3   OH236100   2.316   4.327   8.273 -0.0169 -0.2214 -0.0434
 4822TIP3    H136101   2.372   4.392   8.231  1.3587 -0.0405  1.9172
 4822TIP3    H236102   2.227   4.359   8.257  0.4850  0.4524 -1.7153
 4823TIP3   OH236103   5.057   3.012   1.052  0.3982 -0.6940  0.1607
 4823TIP3    H136104   4.987   3.031   0.990  0.8425 -0.6026 -0.3167
 4823TIP3    H236105   5.111   3.091   1.051 -0.4105 -0.0719  1.7912
 4824TIP3   OH236106   3.609   0.848   1.371  0.1880 -0.2114 -0.1112
 4824TIP3    H136107   3.543   0.883   1.311 -0.2346 -0.6380  0.0932
 4824TIP3    H236108   3.617   0.914   1.439  0.5567  0.2036 -0.5535
 4825TIP3   OH236109   6.185   3.769   2.052  0.2495 -0.0250 -0.6823
 4825TIP3    H136110   6.209   3.763   2.145 -0.0918  2.0379 -0.3937
 4825TIP3    H236111   6.264   3.744   2.005  0.3858 -1.2332  0.1526
 4826TIP3   OH236112   4.918   6.947   2.892 -0.5108 -0.2619  0.6315
 4826TIP3    H136113   4.937   6.875   2.832  1.3266  0.0715  0.7627
 4826TIP3    H236114   4.991   7.007   2.881 -1.6771  1.2753  1.0144
 4827TIP3   OH236115   4.711   0.296   6.588 -0.4951  0.1335  0.5313
 4827TIP3    H136116   4.626   0.335   6.565  0.4165  1.3110 -1.0944
 4827TIP3    H236117   4.744   0.351   6.659  1.0679  3.0108 -2.1663
 4828TIP3   OH236118   1.956   3.556   7.550  0.9460  0.1221 -0.3683
 4828TIP3    H136119   1.895   3.521   7.616 -0.5265 -0.5025 -1.9817
 4828TIP3    H236120   2.037   3.571   7.598  0.3227 -1.5113  1.3230
 4829TIP3   OH236121   4.273   2.407   0.101 -0.1079 -0.3049 -0.0397
 4829TIP3    H136122   4.325   2.366   0.033 -0.5376  0.0833 -0.6136
 4829TIP3    H236123   4.248   2.336   0.160  2.4498 -0.2930  1.2155
 4830TIP3   OH236124   1.166   3.299   7.493 -0.0774 -0.3704  0.2220
 4830TIP3    H136125   1.246   3.335   7.531  0.5537 -1.4378 -0.0358
 4830TIP3    H236126   1.140   3.230   7.554  1.2667 -2.4976 -1.4497
 4831TIP3   OH236127   4.709   1.188   1.368  0.7387 -0.4703 -0.3602
 4831TIP3    H136128   4.759   1.260   1.408  0.9797 -0.1248 -1.2656
 4831TIP3    H236129   4.690   1.129   1.441  1.8764 -0.2579  0.1340
 4832TIP3   OH236130   6.510   1.285   2.408  0.3347  0.0493 -0.1700
 4832TIP3    H136131   6.568   1.356   2.381 -0.5676  0.7192 -0.3880
 4832TIP3    H236132   6.437   1.328   2.452  0.4837 -0.8498  1.0232
 4833TIP3   OH236133   1.226   3.501   0.683 -0.5886 -0.2127 -0.2171
 4833TIP3    H136134   1.215   3.449   0.762  0.6255  0.7853  0.6406
 4833TIP3    H236135   1.175   3.581   0.699  0.1929  0.2815 -0.1585
 4834TIP3   OH236136   5.008   0.267   0.656  0.1271 -0.2243 -0.2121
 4834TIP3    H136137   5.094   0.268   0.698 -0.3011 -0.4267  0.6774
 4834TIP3    H236138   5.026   0.295   0.566  0.8427  1.9144  0.5093
 4835TIP3   OH236139   3.264   6.964   0.196  0.6560 -0.0407  0.8743
 4835TIP3    H136140   3.241   6.894   0.257 -1.0186 -0.1245  0.1834
 4835TIP3    H236141   3.284   7.039   0.252  0.7504 -0.5667  1.5612
 4836TIP3   OH236142   2.642   6.738   2.040 -0.1999 -0.7788 -0.2149
 4836TIP3    H136143   2.569   6.702   2.091 -0.6017  0.2705 -0.0241
 4836TIP3    H236144   2.720   6.713   2.089 -0.5906  0.3722  1.0584
 4837TIP3   OH236145   6.422   1.397   1.638 -0.1245 -0.7579 -0.3123
 4837TIP3    H136146   6.331   1.427   1.636 -0.3890 -1.5784 -0.8622
 4837TIP3    H236147   6.426   1.327   1.573  0.5248 -1.7793  0.7858
 4838TIP3   OH236148   5.758   4.493   1.280 -0.6927 -0.8989 -0.9471
 4838TIP3    H136149   5.725   4.582   1.282 -2.7953 -1.5780 -2.2456
 4838TIP3    H236150   5.853   4.502   1.276 -0.8952  1.3177 -2.3147
 4839TIP3   OH236151   5.137   4.314   7.386  0.4799 -0.2710 -0.1192
 4839TIP3    H136152   5.159   4.245   7.324  0.5160  0.7684 -1.3008
 4839TIP3    H236153   5.075   4.370   7.339 -0.0176  0.1795  1.0246
 4840TIP3   OH236154   2.472   5.826   0.507  0.7653  0.1897  0.4339
 4840TIP3    H136155   2.431   5.834   0.421 -0.8236  1.8690  1.2624
 4840TIP3    H236156   2.441   5.742   0.540  0.8485 -0.1637 -0.3596
 4841TIP3   OH236157   6.119   6.756   3.261  0.2146 -0.6595  0.6507
 4841TIP3    H136158   6.069   6.679   3.289  1.1058 -0.4530  3.1056
 4841TIP3    H236159   6.200   6.720   3.224 -0.2244 -0.9105 -0.0884
 4842TIP3   OH236160   6.937   1.794   7.382 -0.3174 -0.1706  0.4099
 4842TIP3    H136161   6.906   1.862   7.441 -0.3444 -0.8585  1.2024
 4842TIP3    H236162   7.003   1.837   7.328 -1.5046  0.9051 -0.2313
 4843TIP3   OH236163   1.621   0.375   0.682 -0.6127 -0.3519  0.5222
 4843TIP3    H136164   1.569   0.321   0.743  0.8756  0.0630  2.2535
 4843TIP3    H236165   1.670   0.434   0.739  0.3468  0.5294 -1.1591
 4844TIP3   OH236166   4.584   4.370   1.567 -0.2048 -0.2959  0.2116
 4844TIP3    H136167   4.538   4.451   1.586  0.2081  0.0903 -0.4100
 4844TIP3    H236168   4.650   4.394   1.502  3.6228  0.1000  3.7963
 4845TIP3   OH236169   6.896   5.259   1.128 -0.5430  0.0213  0.4297
 4845TIP3    H136170   6.914   5.264   1.034  0.4240  1.4883  0.6560
 4845TIP3    H236171   6.982   5.248   1.169 -0.7461  1.1072  1.2165
 4846TIP3   OH236172   3.353   1.635   1.271  0.2462  0.0982  0.1230
 4846TIP3    H136173   3.430   1.673   1.314  2.4921 -0.6105 -2.9667
 4846TIP3    H236174   3.361   1.541   1.287  0.5505 -0.0654 -0.9330
 4847TIP3   OH236175   2.715   6.464   1.412  0.1178 -0.1422  0.3644
 4847TIP3    H136176   2.705   6.530   1.343 -0.4821 -0.0079  0.5752
 4847TIP3    H236177   2.664   6.389   1.382  0.1147 -0.1997  0.5123
 4848TIP3   OH236178   4.875   4.361   0.970  0.0312 -0.5207  0.5434
 4848TIP3    H136179   4.841   4.390   0.885  0.2072 -0.2747  0.5547
 4848TIP3    H236180   4.814   4.397   1.034 -0.4196 -1.1744  0.4974
 4849TIP3   OH236181   6.961   2.751   6.850  0.2913  0.3575 -0.0096
 4849TIP3    H136182   6.881   2.738   6.901  0.5837  1.0981  0.6608
 4849TIP3    H236183   7.025   2.692   6.891 -0.1379 -0.9954 -1.1695
 4850TIP3   OH236184   0.384   6.918   2.147  0.0286 -0.2790 -0.8182
 4850TIP3    H136185   0.380   6.823   2.148 -0.5403 -0.2583 -0.8111
 4850TIP3    H236186   0.331   6.946   2.221  0.2112  0.0464 -0.8058
 4851TIP3   OH236187   6.444   6.216   8.120  0.3655  0.7668  0.2925
 4851TIP3    H136188   6.445   6.299   8.071  0.3964 -0.1460 -1.3257
 4851TIP3    H236189   6.517   6.166   8.084  0.8722  0.3573  1.8540
 4852TIP3   OH236190   0.353   5.236   7.540  0.5428 -0.0978  1.3358
 4852TIP3    H136191   0.307   5.152   7.531 -0.5846  0.7466 -2.7074
 4852TIP3    H236192   0.292   5.292   7.588 -0.9470 -0.1769 -0.3912
 4853TIP3   OH236193   6.582   0.366   0.427  1.0781  0.3460 -0.2705
 4853TIP3    H136194   6.497   0.371   0.383  1.6954 -0.7840 -1.7015
 4853TIP3    H236195   6.618   0.283   0.397  2.0783  0.1214  1.4704
 4854TIP3   OH236196   5.362   3.705   2.162  0.2334 -0.3172 -0.3074
 4854TIP3    H136197   5.406   3.669   2.085  1.7360 -0.7977  0.7463
 4854TIP3    H236198   5.402   3.660   2.236 -0.6856  0.6541  0.8120
 4855TIP3   OH236199   2.786   2.539   0.143  0.1915  0.4510  0.0025
 4855TIP3    H136200   2.722   2.469   0.157  1.8940 -1.4815 -1.3127
 4855TIP3    H236201   2.747   2.592   0.073 -0.9153  0.5673  0.6850
 4856TIP3   OH236202   4.457   6.274   1.215  0.2315 -0.1108 -0.0376
 4856TIP3    H136203   4.456   6.179   1.212  0.2849 -0.1782  1.4381
 4856TIP3    H236204   4.365   6.299   1.225 -0.0516  0.1291 -2.6831
 4857TIP3   OH236205   0.036   4.717   1.079  0.2935 -0.3125  0.1310
 4857TIP3    H136206   0.082   4.784   1.028  0.9547  1.4581  2.8621
 4857TIP3    H236207   0.069   4.634   1.044  0.8464  0.7805 -2.1160
 4858TIP3   OH236208   3.719   6.329   0.477  0.2206 -0.0409 -0.4000
 4858TIP3    H136209   3.678   6.285   0.552  0.1543  2.6315  1.3091
 4858TIP3    H236210   3.801   6.283   0.464 -0.6484 -1.7942  0.0268
 4859TIP3   OH236211   4.967   6.346   1.683 -0.3521  0.6376  0.0450
 4859TIP3    H136212   4.911   6.316   1.755 -0.6687 -1.5694 -1.0439
 4859TIP3    H236213   5.027   6.273   1.667 -0.1748  1.1410 -1.8121
 4860TIP3   OH236214   6.474   1.673   8.352  0.2347 -0.4286 -0.3816
 4860TIP3    H136215   6.440   1.605   8.410  0.6230 -1.6738 -1.5406
 4860TIP3    H236216   6.404   1.738   8.346 -0.2428 -0.8424  0.5742
 4861TIP3   OH236217   4.941   1.310   1.168 -0.0409 -0.1446 -0.2472
 4861TIP3    H136218   4.853   1.338   1.143  0.2822 -0.3494 -1.6718
 4861TIP3    H236219   4.953   1.225   1.125  0.9189 -0.0272 -0.2362
 4862TIP3   OH236220   4.250   4.899   1.599 -0.1937 -0.1384  0.1496
 4862TIP3    H136221   4.164   4.939   1.584  0.4763  1.6901  0.9247
 4862TIP3    H236222   4.284   4.883   1.511 -0.8255  0.2742 -0.1791
 4863TIP3   OH236223   3.865   5.045   7.768 -0.3087  0.3039 -0.3293
 4863TIP3    H136224   3.892   5.136   7.785 -1.0690  0.5446 -0.3746
 4863TIP3    H236225   3.817   5.019   7.846 -0.5247  0.1062 -0.5269
 4864TIP3   OH236226   3.858   6.334   0.759  0.1287  0.2587 -0.2749
 4864TIP3    H136227   3.813   6.409   0.797 -1.3992  0.0027 -1.4923
 4864TIP3    H236228   3.791   6.266   0.754  1.2770 -0.9417  0.0525
 4865TIP3   OH236229   5.940   5.331   2.775 -0.1656  0.2630  0.2176
 4865TIP3    H136230   5.927   5.382   2.695  1.4226  0.9498  0.3733
 4865TIP3    H236231   5.911   5.243   2.752  0.5402  0.3736 -1.2171
 4866TIP3   OH236232   5.912   0.193   1.813 -0.3933 -0.3982  0.0004
 4866TIP3    H136233   5.874   0.151   1.736 -1.5621 -2.7461  1.7151
 4866TIP3    H236234   5.977   0.130   1.845  0.7657  0.9589  0.4018
 4867TIP3   OH236235   4.556   1.054   8.360 -0.1617  0.6794 -0.1993
 4867TIP3    H136236   4.618   1.069   8.289 -2.3466  0.3727 -2.3084
 4867TIP3    H236237   4.519   1.141   8.379  0.4704  0.7759  0.6805
 4868TIP3   OH236238   3.729   0.386   7.640  0.6938  0.0266  0.1142
 4868TIP3    H136239   3.808   0.352   7.683  1.1892  0.3254 -0.5477
 4868TIP3    H236240   3.696   0.453   7.699  0.6608 -0.4245  0.6211
 4869TIP3   OH236241   2.026   6.838   1.055 -0.4949 -0.4407  0.0001
 4869TIP3    H136242   1.989   6.755   1.085 -1.7909 -0.8005 -2.3049
 4869TIP3    H236243   1.971   6.863   0.980  1.7750  0.8737 -1.3583
 4870TIP3   OH236244   5.169   2.858   7.095 -0.1456 -0.3765 -0.2245
 4870TIP3    H136245   5.250   2.830   7.052 -1.6186 -2.7843 -1.7122
 4870TIP3    H236246   5.187   2.849   7.188  1.6599  0.2947 -0.4687
 4871TIP3   OH236247   1.773   6.448   2.089 -0.0579  0.2078 -0.1481
 4871TIP3    H136248   1.867   6.466   2.091  0.3866 -1.8217 -0.9350
 4871TIP3    H236249   1.767   6.353   2.079 -2.1990  0.4456 -1.5735
 4872TIP3   OH236250   0.100   4.900   8.174 -0.1529 -0.0359 -0.1468
 4872TIP3    H136251   0.190   4.875   8.197 -0.2779 -0.1822  0.1921
 4872TIP3    H236252   0.093   4.879   8.081 -0.0216 -0.5857 -0.0368
 4873TIP3   OH236253   1.572   4.536   1.196  0.7804  0.2708 -0.1692
 4873TIP3    H136254   1.615   4.454   1.171 -0.4296 -0.2545 -0.5991
 4873TIP3    H236255   1.512   4.512   1.266  2.4449  1.3277  1.7375
 4874TIP3   OH236256   5.952   1.074   7.325 -0.1157 -0.2660  0.5355
 4874TIP3    H136257   5.945   1.001   7.387 -3.5961  0.2871  1.0096
 4874TIP3    H236258   5.862   1.089   7.296  1.0397  1.2040 -2.7406
 4875TIP3   OH236259   5.379   3.312   7.972  0.5508 -0.2657 -0.2970
 4875TIP3    H136260   5.314   3.378   7.999  1.6756 -0.1658  2.4800
 4875TIP3    H236261   5.355   3.234   8.021  1.1655 -0.9591 -1.0801
 4876TIP3   OH236262   1.296   0.228   1.478  0.3815  0.0915 -0.1325
 4876TIP3    H136263   1.335   0.314   1.490  0.2974 -0.1493  2.2247
 4876TIP3    H236264   1.206   0.246   1.450  0.8775  0.6956 -1.4433
 4877TIP3   OH236265   4.085   2.115   0.780 -0.3920 -0.2959 -0.0557
 4877TIP3    H136266   4.113   2.025   0.798 -0.1352 -0.6391 -1.8805
 4877TIP3    H236267   4.167   2.164   0.773 -0.5171  0.0027  0.5740
 4878TIP3   OH236268   1.056   3.371   3.141  0.1600  0.0208 -0.1430
 4878TIP3    H136269   1.012   3.287   3.154 -0.5279 -0.1757 -3.0746
 4878TIP3    H236270   1.044   3.390   3.048  3.8116  1.3852 -0.4989
 4879TIP3   OH236271   5.824   4.622   8.153 -0.5654  0.1712 -0.1513
 4879TIP3    H136272   5.807   4.716   8.159  0.2348  0.2503  1.4714
 4879TIP3    H236273   5.911   4.611   8.191 -1.1635 -1.3527  0.8695
 4880TIP3   OH236274   5.562   5.473   8.378 -0.6112  0.1754  0.4543
 4880TIP3    H136275   5.502   5.428   8.319  0.0060 -0.9225  0.6429
 4880TIP3    H236276   5.527   5.456   8.465 -0.8301  0.7474  0.4789
 4881TIP3   OH236277   5.332   1.547   8.170  0.7911 -0.6120  0.3952
 4881TIP3    H136278   5.367   1.616   8.114 -0.5912  0.0230  0.2508
 4881TIP3    H236279   5.246   1.528   8.133  0.5235 -1.3385  1.3378
 4882TIP3   OH236280   2.814   0.768   0.167 -0.4250  0.1740 -0.0770
 4882TIP3    H136281   2.820   0.777   0.072 -0.6482 -0.5318 -0.1604
 4882TIP3    H236282   2.835   0.855   0.201  0.3145  0.2554 -0.7406
 4883TIP3   OH236283   4.258   2.216   1.976  0.5228  0.4351  0.2116
 4883TIP3    H136284   4.318   2.168   1.919 -0.4647  0.2108 -0.6826
 4883TIP3    H236285   4.186   2.155   1.993 -0.8920  1.6194 -1.1644
 4884TIP3   OH236286   5.455   0.717   0.166 -0.0866 -0.1454 -0.5788
 4884TIP3    H136287   5.407   0.800   0.171 -1.7546 -1.0210 -1.4415
 4884TIP3    H236288   5.547   0.743   0.176 -0.7071  1.5072  1.9133
 4885TIP3   OH236289   3.470   1.020   0.166  0.0402  0.1992 -0.7334
 4885TIP3    H136290   3.550   1.017   0.218 -0.2375 -0.6304 -0.3311
 4885TIP3    H236291   3.400   1.024   0.231 -0.2533  0.9712 -1.0837
 4886TIP3   OH236292   1.631   1.994   0.483  0.4468  0.2284  0.3431
 4886TIP3    H136293   1.576   2.061   0.522 -0.3435 -0.1116 -0.1587
 4886TIP3    H236294   1.642   1.929   0.552  2.1510  1.3661  1.2169
 4887TIP3   OH236295   5.107   3.044   0.280  0.0827  0.0179 -0.0614
 4887TIP3    H136296   5.180   3.011   0.332 -1.5697 -2.1738  1.0562
 4887TIP3    H236297   5.100   2.984   0.206 -0.8014 -0.0241  0.0426
 4888TIP3   OH236298   0.767   4.228   1.302 -0.3177  0.5427 -0.0134
 4888TIP3    H136299   0.823   4.268   1.236 -0.8562 -0.5677 -1.1707
 4888TIP3    H236300   0.823   4.164   1.346  0.2587  1.8062  1.1671
 4889TIP3   OH236301   0.794   6.924   1.700  0.0136 -0.6640  0.4561
 4889TIP3    H136302   0.740   6.964   1.769 -0.9113 -0.8356 -0.1566
 4889TIP3    H236303   0.854   6.866   1.748  1.5694  1.5778  1.3992
 4890TIP3   OH236304   6.508   0.759   0.094  0.2241 -0.1547  0.2159
 4890TIP3    H136305   6.468   0.706   0.026  0.1167  0.5938 -0.3099
 4890TIP3    H236306   6.530   0.696   0.164  0.2865 -0.9149 -0.4760
 4891TIP3   OH236307   6.460   0.370   0.131  0.3749 -0.0514 -0.3194
 4891TIP3    H136308   6.404   0.431   0.180 -0.6071 -1.6831  0.7184
 4891TIP3    H236309   6.457   0.401   0.041 -0.2244  1.3209  0.1530
 4892TIP3   OH236310   5.622   3.789   7.809  0.3136  0.2915 -0.2150
 4892TIP3    H136311   5.618   3.778   7.904 -1.6970 -0.5574 -0.3475
 4892TIP3    H236312   5.626   3.699   7.775 -0.3861  0.5240 -0.9463
 4893TIP3   OH236313   5.154   3.570   2.310  0.2004  0.3387  0.0201
 4893TIP3    H136314   5.244   3.556   2.339  0.1056 -1.2233 -0.3536
 4893TIP3    H236315   5.106   3.594   2.390  0.3542 -1.8839  0.8600
 4894TIP3   OH236316   0.768   3.545   7.287 -0.1641  0.3004  0.4308
 4894TIP3    H136317   0.723   3.620   7.247 -1.1920  0.2246  1.3908
 4894TIP3    H236318   0.767   3.564   7.381  0.9095 -0.2095  0.5493
 4895TIP3   OH236319   3.116   0.709   1.947 -0.1792  0.0207 -0.5338
 4895TIP3    H136320   3.066   0.731   2.025  1.4857  2.2655  0.0031
 4895TIP3    H236321   3.136   0.794   1.907 -0.0212 -1.0105 -2.8052
 4896TIP3   OH236322   1.105   6.692   1.833  0.3855 -0.0267 -0.0135
 4896TIP3    H136323   1.009   6.688   1.838  0.3138  1.3814  0.2306
 4896TIP3    H236324   1.134   6.604   1.857 -0.8447 -0.5117 -0.2214
 4897TIP3   OH236325   4.398   1.716   2.861 -0.1017  0.8514  1.1697
 4897TIP3    H136326   4.368   1.628   2.884 -0.6713 -0.2908 -3.0213
 4897TIP3    H236327   4.317   1.766   2.851 -0.0204  0.8113  0.2120
 4898TIP3   OH236328   5.757   0.746   1.262  0.2395  0.2348  0.2474
 4898TIP3    H136329   5.831   0.794   1.300  0.7292  0.0412 -0.4431
 4898TIP3    H236330   5.681   0.800   1.280  0.4067  0.0218  1.7526
 4899TIP3   OH236331   0.799   1.435   8.342 -0.4074 -0.1776 -0.0806
 4899TIP3    H136332   0.894   1.427   8.341 -0.4270 -0.4344  0.2556
 4899TIP3    H236333   0.775   1.430   8.434 -0.7002  0.4380 -0.1206
 4900TIP3   OH236334   4.587   3.500   1.008  0.8511  0.0784  0.0038
 4900TIP3    H136335   4.506   3.469   0.968  1.5911 -0.3304 -1.2001
 4900TIP3    H236336   4.611   3.431   1.070 -1.1234  1.3981  2.4587
 4901TIP3   OH236337   3.129   1.367   1.730 -0.1019 -0.0188  0.0985
 4901TIP3    H136338   3.154   1.299   1.668  0.5576  0.3117 -0.0083
 4901TIP3    H236339   3.134   1.324   1.816 -3.2065 -1.1441 -0.1596
 4902TIP3   OH236340   3.914   5.993   2.736 -0.2316 -0.3812  0.4395
 4902TIP3    H136341   3.866   6.074   2.717  1.5844  0.1027 -2.7203
 4902TIP3    H236342   4.003   6.022   2.754  0.7833 -1.6478 -2.0982
 4903TIP3   OH236343   6.717   2.149   1.018 -0.1592 -0.4317 -0.3755
 4903TIP3    H136344   6.631   2.176   0.984 -0.1892  0.6543  0.5432
 4903TIP3    H236345   6.696   2.087   1.088 -0.2573  0.6971  0.6227
 4904TIP3   OH236346   3.794   2.720   0.375 -0.5415 -0.5131  0.3748
 4904TIP3    H136347   3.874   2.709   0.427 -0.8381  1.4474  1.3315
 4904TIP3    H236348   3.824   2.723   0.284  0.3578 -0.7941  0.6563
 4905TIP3   OH236349   1.309   2.345   0.972 -0.8931 -0.4188  0.1807
 4905TIP3    H136350   1.242   2.331   1.039 -0.1229  1.0439  1.3050
 4905TIP3    H236351   1.327   2.257   0.937 -0.8436 -1.3148  2.3469
 4906TIP3   OH236352   1.066   5.803   1.529 -0.1986 -0.0296  0.0376
 4906TIP3    H136353   1.101   5.823   1.616  1.1679 -1.1173 -0.2294
 4906TIP3    H236354   1.008   5.728   1.543 -1.3713  0.8811  0.2521
 4907TIP3   OH236355   0.207   1.193   0.822 -0.3503  0.2932 -0.3887
 4907TIP3    H136356   0.192   1.213   0.914  1.6558 -1.2428  0.3416
 4907TIP3    H236357   0.132   1.138   0.797 -0.0196 -0.7691  0.8643
 4908TIP3   OH236358   4.323   5.821   1.393  0.5245 -0.1821 -0.0731
 4908TIP3    H136359   4.253   5.886   1.382  1.8029  0.9346 -2.5111
 4908TIP3    H236360   4.311   5.787   1.481 -0.6865  2.8424  1.0632
 4909TIP3   OH236361   0.116   6.875   1.222 -0.2901  0.3903  0.1200
 4909TIP3    H136362   0.151   6.888   1.134 -0.5023 -0.5374 -0.1129
 4909TIP3    H236363   0.124   6.961   1.264 -2.0468  1.4326 -1.4716
 4910TIP3   OH236364   5.088   4.647   7.764 -0.1222 -0.4763  0.1943
 4910TIP3    H136365   5.066   4.644   7.857  1.6639 -1.1697  0.6336
 4910TIP3    H236366   5.034   4.719   7.729  0.8351  1.3601  2.2484
 4911TIP3   OH236367   1.452   1.799   7.825 -0.0368  0.0893  0.4326
 4911TIP3    H136368   1.405   1.757   7.897  1.0343 -0.5040  0.8232
 4911TIP3    H236369   1.544   1.799   7.854  0.4458 -0.2987 -0.9916
 4912TIP3   OH236370   3.393   0.252   6.581 -0.3848 -0.2289  0.4698
 4912TIP3    H136371   3.299   0.270   6.573 -0.6885 -0.7919  2.1694
 4912TIP3    H236372   3.399   0.157   6.581 -0.0386 -0.2388  1.9927
 4913TIP3   OH236373   2.125   3.870   7.255  0.1101 -0.2698  0.4552
 4913TIP3    H136374   2.218   3.849   7.262  0.2245 -0.5226 -1.4179
 4913TIP3    H236375   2.081   3.787   7.273  0.3413 -0.6455 -0.6318
 4914TIP3   OH236376   4.544   3.765   0.945 -0.2894  0.2385 -0.2825
 4914TIP3    H136377   4.631   3.806   0.949 -0.3886  0.4068  1.8934
 4914TIP3    H236378   4.553   3.686   0.998 -1.9205  1.3238  1.7630
 4915TIP3   OH236379   0.195   2.694   0.536 -0.1364 -0.1580 -0.0828
 4915TIP3    H136380   0.229   2.761   0.595  0.9407 -0.3043 -0.5216
 4915TIP3    H236381   0.227   2.720   0.450  1.1522 -1.7559 -0.1286
 4916TIP3   OH236382   1.925   4.601   7.705  0.0209  0.4974 -0.2063
 4916TIP3    H136383   1.941   4.519   7.751  1.4681  1.4180  1.0397
 4916TIP3    H236384   1.958   4.587   7.617 -0.1026 -0.3687 -0.1218
 4917TIP3   OH236385   4.646   2.732   0.019 -0.2452  0.2215 -0.4206
 4917TIP3    H136386   4.615   2.732  -0.072 -1.1816  0.4840 -0.1120
 4917TIP3    H236387   4.711   2.662   0.022 -1.0651 -0.5882 -1.0150
 4918TIP3   OH236388   5.571   2.564   7.883  0.3405  0.2070  0.4616
 4918TIP3    H136389   5.519   2.506   7.939  0.1827  0.0135  0.1154
 4918TIP3    H236390   5.565   2.525   7.796  1.2828  0.0319  0.4646
 4919TIP3   OH236391   2.238   3.416   7.133 -0.0966  0.2386 -0.6849
 4919TIP3    H136392   2.150   3.436   7.101  0.2242  1.0057 -1.1294
 4919TIP3    H236393   2.226   3.343   7.193 -1.1810  0.9770  0.0379
 4920TIP3   OH236394   2.024   2.828   1.690 -0.2669 -0.1331  0.0904
 4920TIP3    H136395   2.081   2.822   1.766 -1.5839 -1.9399  1.0057
 4920TIP3    H236396   2.030   2.742   1.648 -2.0576 -0.2846  0.0613
 4921TIP3   OH236397   5.372   5.820   1.936 -0.2979  0.2107 -0.0074
 4921TIP3    H136398   5.384   5.750   2.001  1.6448 -0.7761 -1.3111
 4921TIP3    H236399   5.406   5.782   1.854  0.4243  2.5345 -0.8616
 4922TIP3   OH236400   4.595   0.256   0.403  0.7138  0.5468 -0.4093
 4922TIP3    H136401   4.597   0.350   0.386 -2.7864  0.9347  0.6437
 4922TIP3    H236402   4.615   0.248   0.497 -0.7411  0.4525 -0.0905
 4923TIP3   OH236403   2.040   5.984   0.024  0.0031  0.4968 -0.0346
 4923TIP3    H136404   2.019   5.976   0.117 -0.2259  1.7431  0.0433
 4923TIP3    H236405   2.132   6.011   0.022 -0.4330  2.1020 -0.0734
 4924TIP3   OH236406   4.938   6.623   0.873  0.6471  0.2773 -0.9893
 4924TIP3    H136407   4.989   6.543   0.882  1.6480  0.9841 -0.1966
 4924TIP3    H236408   4.890   6.611   0.791  0.7971 -1.1060 -0.9118
 4925TIP3   OH236409   6.058   6.801   2.982  0.8584 -0.2786  0.4251
 4925TIP3    H136410   6.061   6.790   3.077  2.8092 -1.6048  0.2626
 4925TIP3    H236411   6.077   6.714   2.947 -1.7829 -0.2781 -1.2529
 4926TIP3   OH236412   0.219   0.577   7.679  0.7309 -0.2267  0.0345
 4926TIP3    H136413   0.169   0.619   7.749  2.0468  0.7967  0.4051
 4926TIP3    H236414   0.250   0.495   7.717 -1.3589 -1.3386 -0.4956
 4927TIP3   OH236415   0.726   5.966   7.947  0.0515 -0.5871 -0.5712
 4927TIP3    H136416   0.686   5.986   8.031  0.6563 -0.1533 -0.3861
 4927TIP3    H236417   0.651   5.951   7.888 -0.3702 -1.6584  0.2059
 4928TIP3   OH236418   6.400   3.987   8.138  0.3649 -0.2670  0.1986
 4928TIP3    H136419   6.339   4.014   8.206 -0.3595 -0.0554 -0.5137
 4928TIP3    H236420   6.367   3.901   8.109 -0.3738  0.4054 -1.0571
 4929TIP3   OH236421   1.730   0.116   1.339 -0.0688 -0.5084  0.2767
 4929TIP3    H136422   1.706   0.053   1.272 -1.8550 -0.0071  0.3969
 4929TIP3    H236423   1.670   0.099   1.411  1.6743 -0.8979  1.7109
 4930TIP3   OH236424   5.487   1.996   0.632  0.4052 -0.1305  0.0443
 4930TIP3    H136425   5.560   1.939   0.609 -0.8563 -1.4449 -0.8827
 4930TIP3    H236426   5.523   2.085   0.625  2.2547 -0.7392  0.9448
 4931TIP3   OH236427   6.642   4.254   1.618  0.4526  0.3969 -0.0386
 4931TIP3    H136428   6.671   4.342   1.594  3.7259 -0.5297  0.0326
 4931TIP3    H236429   6.667   4.245   1.710  0.8081 -0.7803 -0.2234
 4932TIP3   OH236430   1.825   1.102   1.241 -0.4045  0.8406 -0.0391
 4932TIP3    H136431   1.746   1.090   1.189  0.0247  1.3799 -0.8419
 4932TIP3    H236432   1.800   1.075   1.329 -1.0030 -0.6204 -0.6203
 4933TIP3   OH236433   4.810   1.421   7.954  0.4465 -0.1813  0.0577
 4933TIP3    H136434   4.768   1.443   7.871  2.0158 -1.2177 -1.0790
 4933TIP3    H236435   4.863   1.343   7.934  0.5046 -0.7277  2.1564
 4934TIP3   OH236436   6.285   4.831   2.406  0.3833  0.5011 -0.1027
 4934TIP3    H136437   6.334   4.866   2.480  1.1903 -0.2036 -0.2819
 4934TIP3    H236438   6.239   4.906   2.368  0.6741  1.0190  0.5692
 4935TIP3   OH236439   0.910   3.310   0.772  0.2047 -0.0920 -0.4209
 4935TIP3    H136440   0.984   3.326   0.830  0.1941  0.2525 -0.4998
 4935TIP3    H236441   0.846   3.376   0.797 -0.9590 -1.7146  1.1117
 4936TIP3   OH236442   0.583   2.955   7.771  0.1929  0.2656 -0.4555
 4936TIP3    H136443   0.556   2.930   7.859 -2.6134  0.2044 -1.2328
 4936TIP3    H236444   0.640   2.884   7.742 -1.8405 -1.6912  0.0130
 4937TIP3   OH236445   6.841   5.294   1.437 -0.4893  0.2469  0.0050
 4937TIP3    H136446   6.852   5.292   1.342  1.9788  0.1703  0.2207
 4937TIP3    H236447   6.874   5.209   1.467  0.1421  0.8116  0.9962
 4938TIP3   OH236448   5.271   5.358   0.190  0.3052  0.0593 -0.4558
 4938TIP3    H136449   5.197   5.356   0.252 -0.1029  2.7720 -0.7191
 4938TIP3    H236450   5.313   5.273   0.200 -1.9166 -0.9728  0.8762
 4939TIP3   OH236451   5.976   2.971   7.394 -0.3978 -0.6509 -0.5058
 4939TIP3    H136452   6.067   3.000   7.380 -1.1408  1.1912 -1.9460
 4939TIP3    H236453   5.970   2.889   7.346 -0.1704  0.5899 -2.7815
 4940TIP3   OH236454   0.040   0.539   0.883 -0.4372 -0.4286 -0.1573
 4940TIP3    H136455   0.113   0.568   0.937 -0.1304  1.7370 -1.5928
 4940TIP3    H236456   0.052   0.444   0.874  1.0376 -0.4066  1.2392
 4941TIP3   OH236457   6.014   6.437   7.663 -0.3030  0.2066  0.7292
 4941TIP3    H136458   6.080   6.399   7.605 -0.3634 -0.3417  1.0147
 4941TIP3    H236459   5.989   6.366   7.721 -1.1156  0.4204  0.6609
 4942TIP3   OH236460   5.114   5.646   6.854 -0.2295  0.3598  0.0118
 4942TIP3    H136461   5.024   5.615   6.864  0.4862 -1.8355  0.2263
 4942TIP3    H236462   5.108   5.718   6.791 -1.9262 -0.9707 -1.4601
 4943TIP3   OH236463   1.869   4.428   0.820 -0.3382  0.5676 -0.5541
 4943TIP3    H136464   1.893   4.517   0.795 -0.1683  1.3294  2.0848
 4943TIP3    H236465   1.930   4.405   0.890 -2.0681 -0.5945  0.6651
 4944TIP3   OH236466   3.768   2.197   8.304 -0.5723  0.3594  0.4465
 4944TIP3    H136467   3.770   2.123   8.365 -3.1652 -0.0155  0.1860
 4944TIP3    H236468   3.701   2.173   8.239  1.5525  1.0380 -2.2159
 4945TIP3   OH236469   5.254   1.040   1.829  0.5903 -0.3391  0.2295
 4945TIP3    H136470   5.181   1.067   1.885  0.1471  1.6633 -1.2371
 4945TIP3    H236471   5.319   1.110   1.838 -0.1859  0.9373 -2.9484
 4946TIP3   OH236472   2.634   3.463   0.224 -0.0744 -0.2562 -0.2298
 4946TIP3    H136473   2.712   3.409   0.215 -1.0155 -1.5744 -0.8029
 4946TIP3    H236474   2.625   3.478   0.318 -0.5157 -2.2249  0.0772
 4947TIP3   OH236475   1.852   4.511   2.654 -0.4351 -0.4658 -0.1476
 4947TIP3    H136476   1.780   4.470   2.702  0.1630 -2.0499 -0.5485
 4947TIP3    H236477   1.908   4.438   2.629  1.1583  0.7135 -0.1130
 4948TIP3   OH236478   2.355   5.444   1.197 -0.1136 -0.4526  0.0963
 4948TIP3    H136479   2.434   5.498   1.200 -0.4842  0.1193 -0.3561
 4948TIP3    H236480   2.314   5.466   1.114  0.2653 -2.2004 -0.6048
 4949TIP3   OH236481   4.513   3.813   0.137 -0.2691 -0.0794  0.0754
 4949TIP3    H136482   4.515   3.751   0.064 -1.2190 -0.0970  0.0531
 4949TIP3    H236483   4.508   3.899   0.095  0.9876  0.0309  0.1072
 4950TIP3   OH236484   5.157   0.580   7.271  0.0344 -0.5752 -0.0894
 4950TIP3    H136485   5.094   0.648   7.249  1.2711  0.9103  0.7269
 4950TIP3    H236486   5.240   0.611   7.235  0.4278 -2.2303 -0.6980
 4951TIP3   OH236487   6.716   2.413   2.194 -0.2891 -0.3053 -0.0534
 4951TIP3    H136488   6.751   2.461   2.119 -0.7937  0.0039 -0.0994
 4951TIP3    H236489   6.747   2.461   2.270 -1.6214  0.7288 -0.1117
 4952TIP3   OH236490   2.491   1.189   1.496 -0.3960  0.0698 -0.3988
 4952TIP3    H136491   2.513   1.282   1.489  1.3174 -0.4196 -2.1609
 4952TIP3    H236492   2.542   1.147   1.428 -0.7206 -2.2665  0.7161
 4953TIP3   OH236493   2.462   2.827   1.921 -0.0892 -0.5855  0.6377
 4953TIP3    H136494   2.528   2.842   1.990  0.2511  0.5614  0.0836
 4953TIP3    H236495   2.512   2.829   1.840 -0.9192  1.3517  0.1220
 4954TIP3   OH236496   5.434   1.008   0.410 -0.0291 -0.4290 -0.1587
 4954TIP3    H136497   5.404   0.923   0.444  0.4277 -0.8447 -0.7698
 4954TIP3    H236498   5.383   1.020   0.330 -1.2297  0.6251  0.7245
 4955TIP3   OH236499   4.106   3.949   2.224 -0.0800  0.1146 -0.4813
 4955TIP3    H136500   4.135   3.891   2.154  0.4226 -0.5604  0.2617
 4955TIP3    H236501   4.027   3.908   2.259  0.1625 -0.0205 -0.0850
 4956TIP3   OH236502   6.638   2.664   1.603  0.3671  0.1409  0.0531
 4956TIP3    H136503   6.655   2.635   1.514  1.3847 -0.0506  0.2863
 4956TIP3    H236504   6.693   2.742   1.613  1.3387 -0.6146  0.9173
 4957TIP3   OH236505   6.533   0.874   1.302  0.3460  0.2525 -0.3266
 4957TIP3    H136506   6.620   0.835   1.289  0.3483 -0.2491  1.0745
 4957TIP3    H236507   6.495   0.876   1.214  1.3542 -0.5153 -0.8030
 4958TIP3   OH236508   1.441   6.547   0.513  0.5322 -0.0983 -0.6604
 4958TIP3    H136509   1.348   6.566   0.525  0.4245 -0.3571 -1.0410
 4958TIP3    H236510   1.472   6.522   0.600  0.2753  0.1137 -0.5068
 4959TIP3   OH236511   2.472   5.786   0.010 -0.4345 -0.2839 -0.8897
 4959TIP3    H136512   2.416   5.766   0.086 -0.8138  0.8206 -0.8637
 4959TIP3    H236513   2.422   5.851  -0.040  1.5050  1.9807 -0.0162
 4960TIP3   OH236514   6.687   1.797   1.556 -0.2499  0.2702  0.4240
 4960TIP3    H136515   6.640   1.815   1.637 -1.3222 -0.2932 -0.0483
 4960TIP3    H236516   6.676   1.877   1.504 -1.1236 -0.0268  0.1279
 4961TIP3   OH236517   3.914   3.662   0.067  0.5402 -0.5466  0.4614
 4961TIP3    H136518   3.880   3.664  -0.022 -0.2718  2.4721  0.7396
 4961TIP3    H236519   3.892   3.574   0.099 -1.0693 -0.9708 -1.5774
 4962TIP3   OH236520   3.049   0.663   6.666  0.0561  0.0395  0.1155
 4962TIP3    H136521   3.005   0.588   6.708  0.2412 -1.2944 -1.9314
 4962TIP3    H236522   2.977   0.720   6.639 -0.1230  0.2961  1.0893
 4963TIP3   OH236523   0.150   3.169   0.563  0.3657 -0.0596 -0.1844
 4963TIP3    H136524   0.196   3.143   0.483  1.0871  0.0212  0.1972
 4963TIP3    H236525   0.138   3.264   0.554  3.2853  0.5388  1.1893
 4964TIP3   OH236526   5.235   0.461   0.454 -0.5885 -0.6965 -0.0755
 4964TIP3    H136527   5.208   0.497   0.370 -1.0141  0.7770  0.6649
 4964TIP3    H236528   5.258   0.370   0.435  1.7911  0.2483 -2.2851
 4965TIP3   OH236529   3.863   3.844   8.235  0.2672  0.6853 -0.6290
 4965TIP3    H136530   3.813   3.897   8.297 -0.0304  1.0681 -1.1912
 4965TIP3    H236531   3.915   3.908   8.186 -1.2899  0.6482 -2.4208
 4966TIP3   OH236532   5.988   3.405   1.242 -0.0221  0.0702 -0.0125
 4966TIP3    H136533   6.078   3.380   1.220 -0.1680 -0.2727 -0.2452
 4966TIP3    H236534   5.997   3.478   1.302  0.4506 -1.1844  1.5239
 4967TIP3   OH236535   1.795   1.762   7.218  0.1978  0.2538 -0.6990
 4967TIP3    H136536   1.876   1.778   7.265  0.1497 -0.0679 -0.5033
 4967TIP3    H236537   1.823   1.728   7.133  0.2681  0.1197 -0.6222
 4968TIP3   OH236538   3.561   1.426   7.318 -0.3216  0.4984  0.3108
 4968TIP3    H136539   3.523   1.464   7.239 -1.0682 -2.0263 -0.6568
 4968TIP3    H236540   3.655   1.422   7.300  0.0415  3.2224  1.1267
 4969TIP3   OH236541   5.887   5.919   7.673  0.1163 -0.0830 -0.1587
 4969TIP3    H136542   5.821   5.913   7.604  0.4098 -1.3268 -0.3621
 4969TIP3    H236543   5.969   5.895   7.630  0.8196  1.9312 -0.0265
 4970TIP3   OH236544   2.997   3.616   1.749  0.9580  0.8454  0.7285
 4970TIP3    H136545   3.090   3.612   1.724  0.9597 -1.1253  0.9165
 4970TIP3    H236546   2.993   3.570   1.833 -0.5952 -1.8277 -0.6795
 4971TIP3   OH236547   2.881   3.553   7.586 -0.2385  0.2464  0.2340
 4971TIP3    H136548   2.862   3.460   7.575 -0.7718  0.1734  1.6161
 4971TIP3    H236549   2.841   3.576   7.669 -0.0138  1.6982 -0.0331
 4972TIP3   OH236550   5.178   6.318   1.987 -0.1225 -0.0585 -0.0221
 4972TIP3    H136551   5.091   6.292   2.016 -0.2444 -0.1274 -0.4443
 4972TIP3    H236552   5.179   6.413   1.996 -0.4484 -0.0002 -0.5698
 4973TIP3   OH236553   6.684   4.373   0.165  0.3056  0.2631 -0.4415
 4973TIP3    H136554   6.644   4.424   0.095 -0.2679 -0.0716 -0.3735
 4973TIP3    H236555   6.706   4.437   0.232  0.1780  0.4950 -0.6200
 4974TIP3   OH236556   6.264   3.073   0.314  0.0666 -0.0220 -0.3461
 4974TIP3    H136557   6.272   3.054   0.407  1.0853 -1.0121 -0.6142
 4974TIP3    H236558   6.174   3.049   0.292 -0.6513  1.5694  0.6418
 4975TIP3   OH236559   5.135   5.680   8.368  0.4287 -0.2049  0.3012
 4975TIP3    H136560   5.207   5.710   8.314 -0.3294  1.6076  0.2103
 4975TIP3    H236561   5.174   5.663   8.454  1.2865 -1.2125 -0.2732
 4976TIP3   OH236562   1.243   0.636   1.584  0.0504  0.3512 -0.5916
 4976TIP3    H136563   1.258   0.685   1.665 -1.3988 -0.5676  0.2845
 4976TIP3    H236564   1.327   0.635   1.540  0.3587  2.8137 -0.1974
 4977TIP3   OH236565   3.046   2.947   2.824  0.0296  0.2906 -0.3747
 4977TIP3    H136566   3.000   3.008   2.766  0.4170  0.3200 -0.6542
 4977TIP3    H236567   3.129   2.990   2.844  0.5510 -0.3807 -1.0319
 4978TIP3   OH236568   3.721   5.237   7.420 -0.2581  0.7961 -0.4355
 4978TIP3    H136569   3.688   5.187   7.345 -0.8699 -2.7777  2.0011
 4978TIP3    H236570   3.816   5.227   7.415 -0.3300  0.0600 -0.4499
 4979TIP3   OH236571   0.490   5.983   0.770 -0.5435 -0.0620 -0.3185
 4979TIP3    H136572   0.436   6.022   0.700 -0.2110 -0.8284 -1.0197
 4979TIP3    H236573   0.511   5.895   0.738  1.7745  0.4689 -0.4282
 4980TIP3   OH236574   2.524   4.702   1.051  0.5551 -0.1045 -0.0089
 4980TIP3    H136575   2.500   4.698   1.144  0.6324  2.4137  0.1982
 4980TIP3    H236576   2.620   4.703   1.051  0.5574 -0.2762 -0.1307
 4981TIP3   OH236577   1.040   2.681   1.913 -1.1913  0.3363 -0.2114
 4981TIP3    H136578   1.093   2.604   1.933  0.4354  0.9607 -1.8038
 4981TIP3    H236579   0.961   2.646   1.872 -1.1484 -0.5305  0.4086
 4982TIP3   OH236580   1.235   2.888   1.167  0.6351 -0.0214  0.0243
 4982TIP3    H136581   1.181   2.822   1.125 -0.0448  0.3439  0.2993
 4982TIP3    H236582   1.215   2.969   1.120  0.5365  0.2192  0.4736
 4983TIP3   OH236583   4.159   1.050   7.144 -0.2682  0.3483  0.0740
 4983TIP3    H136584   4.150   1.037   7.049  0.8970  0.0805 -0.0147
 4983TIP3    H236585   4.085   1.106   7.167 -0.4364  0.6173 -1.0392
 4984TIP3   OH236586   4.736   0.693   7.991 -0.4433  0.3449 -0.0324
 4984TIP3    H136587   4.748   0.633   7.917  1.0317  0.3200  0.1855
 4984TIP3    H236588   4.666   0.654   8.043  1.0145 -1.6928  0.5420
 4985TIP3   OH236589   0.268   2.875   2.201  0.0416 -0.1309 -0.1040
 4985TIP3    H136590   0.324   2.949   2.228 -1.0415  1.0312 -0.9073
 4985TIP3    H236591   0.216   2.856   2.279 -0.0416  0.3274 -0.0395
 4986TIP3   OH236592   6.704   2.939   7.074 -0.1460  0.8401 -0.0948
 4986TIP3    H136593   6.681   3.008   7.012  1.5553  2.7424  1.2601
 4986TIP3    H236594   6.712   2.860   7.021 -1.6697  1.7689 -1.7860
 4987TIP3   OH236595   0.621   6.970   1.904  0.3797 -0.4189 -0.5779
 4987TIP3    H136596   0.690   7.000   1.963  0.4632  2.4743 -1.9283
 4987TIP3    H236597   0.548   6.947   1.961  0.4270  2.3543  0.7551
 4988TIP3   OH236598   0.597   2.413   1.983  0.2753 -0.5120 -0.0756
 4988TIP3    H136599   0.634   2.353   2.048 -0.3154 -0.8585 -0.0591
 4988TIP3    H236600   0.646   2.394   1.903  2.0996  0.9862  0.6110
 4989TIP3   OH236601   1.640   1.147   7.838 -0.0629 -0.1326  0.0637
 4989TIP3    H136602   1.563   1.096   7.862  0.3791 -1.2395 -0.7293
 4989TIP3    H236603   1.710   1.113   7.894  0.5618 -1.4676 -1.4492
 4990TIP3   OH236604   2.212   6.045   0.744 -0.0196 -0.4564  0.0074
 4990TIP3    H136605   2.184   6.136   0.751  0.8118 -0.2439  0.7811
 4990TIP3    H236606   2.294   6.049   0.694 -0.1295 -0.8070 -0.2028
 4991TIP3   OH236607   4.053   4.650   2.049  0.6715 -0.5753 -0.1283
 4991TIP3    H136608   4.001   4.727   2.028  0.6393 -0.3656  0.6985
 4991TIP3    H236609   4.137   4.666   2.005  0.1261 -0.8280 -1.3009
 4992TIP3   OH236610   0.584   5.492   0.216 -0.3196  0.6312  0.1172
 4992TIP3    H136611   0.677   5.470   0.221 -0.7468 -1.1318  1.3101
 4992TIP3    H236612   0.541   5.423   0.266 -2.3344  1.0900 -0.8988
 4993TIP3   OH236613   4.545   5.817   0.808  0.1116 -0.9429  0.2716
 4993TIP3    H136614   4.543   5.780   0.897  2.5031 -0.2657  0.6784
 4993TIP3    H236615   4.513   5.906   0.819  2.0297 -0.2748  0.8424
 4994TIP3   OH236616   0.109   2.164   7.048  0.3080 -0.3328  0.0776
 4994TIP3    H136617   0.142   2.253   7.038 -0.0613 -0.0393  1.2517
 4994TIP3    H236618   0.175   2.108   7.007  2.0364  0.2637  1.9163
 4995TIP3   OH236619   4.944   1.870   0.785 -0.0821 -0.1236  0.5254
 4995TIP3    H136620   4.935   1.891   0.878  0.0244 -0.7902  0.6960
 4995TIP3    H236621   4.990   1.785   0.784 -2.6375 -1.6176 -0.0226
 4996TIP3   OH236622   6.807   2.543   7.800 -0.1483  0.0317 -0.3392
 4996TIP3    H136623   6.738   2.573   7.860  0.2595  1.3980 -0.5134
 4996TIP3    H236624   6.822   2.618   7.742  0.6675 -0.6651 -1.0531
 4997TIP3   OH236625   0.901   0.519   7.612  0.1046 -0.2371 -0.3232
 4997TIP3    H136626   0.806   0.516   7.618 -0.0021  2.7406  1.5909
 4997TIP3    H236627   0.919   0.577   7.538  0.3213  0.8747  0.5702
 4998TIP3   OH236628   4.358   6.633   7.676 -0.4571  0.7063 -0.6083
 4998TIP3    H136629   4.366   6.711   7.732  0.3331  0.0156  0.2637
 4998TIP3    H236630   4.448   6.613   7.650 -0.6525  0.0632 -0.7980
 4999TIP3   OH236631   6.584   3.794   2.006 -0.5425 -0.1415  0.8853
 4999TIP3    H136632   6.582   3.825   1.916  0.6083 -1.5034  0.3553
 4999TIP3    H236633   6.522   3.851   2.052  1.8823  3.4130  0.1798
 5000TIP3   OH236634   4.017   3.441   8.213 -0.3837  0.1486  0.2751
 5000TIP3    H136635   4.008   3.534   8.234  0.0832 -0.0990  1.6293
 5000TIP3    H236636   3.974   3.396   8.286 -0.0590 -0.7094 -0.0544
 5001TIP3   OH236637   2.908   6.901   0.448  0.1144 -0.4790 -0.7044
 5001TIP3    H136638   2.874   6.815   0.426  4.1691 -2.8789  1.2582
 5001TIP3    H236639   2.883   6.914   0.539  0.9839 -0.4449 -0.4609
 5002TIP3   OH236640   2.904   4.035   2.278  0.0924  0.3673 -0.4747
 5002TIP3    H136641   2.912   3.956   2.332  2.9593 -0.5016 -1.9376
 5002TIP3    H236642   2.974   4.092   2.310 -1.7669  2.2798  0.3708
 5003TIP3   OH236643   6.582   3.022   2.140 -0.0073 -0.2769 -0.9688
 5003TIP3    H136644   6.606   3.113   2.161 -0.7587  0.2143 -2.1311
 5003TIP3    H236645   6.664   2.974   2.147  0.3394  0.4209  0.0019
 5004TIP3   OH236646   6.892   1.277   1.180 -0.2697 -0.4880  0.9620
 5004TIP3    H136647   6.900   1.189   1.216  1.1008 -0.9132 -0.2862
 5004TIP3    H236648   6.933   1.333   1.246  2.1074 -1.2374  0.2022
 5005TIP3   OH236649   4.519   2.392   1.995 -0.3894  0.2965 -0.1930
 5005TIP3    H136650   4.510   2.471   1.942  0.0423 -0.3454 -1.2530
 5005TIP3    H236651   4.473   2.324   1.946 -0.0536 -0.2959  0.2946
 5006TIP3   OH236652   4.809   3.225   1.006  0.6598 -0.3821 -0.0350
 5006TIP3    H136653   4.846   3.263   1.086 -0.3235 -0.5258  0.5081
 5006TIP3    H236654   4.720   3.201   1.031  0.4656 -0.7710 -1.0804
 5007TIP3   OH236655   1.999   4.423   1.936 -0.4504 -0.1505 -0.8803
 5007TIP3    H136656   2.018   4.334   1.908  0.5737  0.0608 -0.9070
 5007TIP3    H236657   2.069   4.444   1.999  0.7534  1.4519 -2.6302
 5008TIP3   OH236658   1.510   2.736   1.828 -0.3281  0.0332  0.0939
 5008TIP3    H136659   1.545   2.698   1.909 -1.0227 -1.1801 -0.1335
 5008TIP3    H236660   1.573   2.803   1.803  0.9437 -0.9337  0.5787
 5009TIP3   OH236661   3.514   2.439   7.638 -0.7334 -0.2549  0.1261
 5009TIP3    H136662   3.578   2.504   7.608 -2.4105  0.7667 -1.4252
 5009TIP3    H236663   3.537   2.423   7.730  0.4694  1.6101  0.1922
 5010TIP3   OH236664   3.969   1.862   1.995  0.2282  0.0740 -0.1272
 5010TIP3    H136665   3.923   1.779   1.984  0.1942  0.0394  0.2543
 5010TIP3    H236666   4.015   1.876   1.913  0.0894 -0.2343 -0.2569
 5011TIP3   OH236667   0.493   6.178   2.816 -0.3937  0.3191  0.0562
 5011TIP3    H136668   0.441   6.258   2.818  0.0211  0.6125 -0.5792
 5011TIP3    H236669   0.481   6.140   2.903 -0.3813  1.2134  0.4678
 5012TIP3   OH236670   1.947   5.980   1.756 -0.0175 -0.0830  0.2210
 5012TIP3    H136671   1.987   5.904   1.713  1.1578 -0.3497  1.7234
 5012TIP3    H236672   1.985   5.981   1.844  0.5168  2.6375  0.0414
 5013TIP3   OH236673   6.933   3.609   6.670 -0.0829 -0.0410  0.2497
 5013TIP3    H136674   7.023   3.579   6.678 -0.6229 -2.2761 -1.2447
 5013TIP3    H236675   6.887   3.569   6.743 -0.4770 -1.6112 -0.8242
 5014TIP3   OH236676   4.990   6.297   7.786 -0.2753  0.0947  0.4845
 5014TIP3    H136677   4.974   6.365   7.720 -0.3373  0.4183  0.8324
 5014TIP3    H236678   4.938   6.324   7.861  1.0155  0.5619  1.2406
 5015TIP3   OH236679   1.881   2.380   8.026  0.1815  0.3691 -0.0642
 5015TIP3    H136680   1.921   2.395   7.941 -0.3393  0.6275 -0.2688
 5015TIP3    H236681   1.829   2.459   8.042  0.1841  0.2714  0.4376
 5016TIP3   OH236682   1.185   6.691   0.301 -0.0968  0.1430 -0.1375
 5016TIP3    H136683   1.170   6.721   0.211  1.3339 -0.0810 -0.4773
 5016TIP3    H236684   1.279   6.699   0.314 -0.3361  0.6427  1.5340
 5017TIP3   OH236685   5.674   1.029   7.534  0.8718 -0.3048  0.5656
 5017TIP3    H136686   5.718   1.035   7.619  2.2938  1.2762 -0.2264
 5017TIP3    H236687   5.612   1.102   7.534  1.3440  0.1083  0.0150
 5018TIP3   OH236688   2.753   1.346   7.169 -0.0541 -0.3478 -0.2771
 5018TIP3    H136689   2.677   1.356   7.112  0.7207 -1.2106 -1.5170
 5018TIP3    H236690   2.811   1.418   7.145 -0.2269 -0.0069  0.2914
 5019TIP3   OH236691   3.917   6.610   0.410 -0.6023 -0.2170  0.1773
 5019TIP3    H136692   3.834   6.607   0.459 -0.1918 -0.8153  0.8590
 5019TIP3    H236693   3.891   6.630   0.320 -1.5145 -0.5943  0.3416
 5020TIP3   OH236694   3.500   2.910   0.956 -0.5217 -0.1503  0.1444
 5020TIP3    H136695   3.587   2.936   0.925 -1.1899  1.7345 -0.2668
 5020TIP3    H236696   3.499   2.935   1.049 -1.0974  1.2111 -0.2039
 5021TIP3   OH236697   5.648   4.881   1.440  0.2187 -0.3339  0.1269
 5021TIP3    H136698   5.676   4.953   1.495 -0.3389  1.4380 -1.7669
 5021TIP3    H236699   5.558   4.863   1.467 -0.3840  1.1635 -0.7486
 5022TIP3   OH236700   0.035   3.560   0.732  0.2066  0.0208  0.0503
 5022TIP3    H136701   0.059   3.530   0.644 -1.4124 -0.3969 -0.2827
 5022TIP3    H236702   0.063   3.489   0.790 -2.0044 -1.4595 -0.5535
 5023TIP3   OH236703   0.219   2.130   7.873  1.0347  0.2690 -0.1382
 5023TIP3    H136704   0.302   2.085   7.892 -0.1682 -2.4384 -0.8426
 5023TIP3    H236705   0.156   2.093   7.934  0.0901  1.5311 -0.3025
 5024TIP3   OH236706   0.131   3.244   0.018  0.6693  0.1160  0.3537
 5024TIP3    H136707   0.051   3.213  -0.023  2.7949 -3.6170 -1.5870
 5024TIP3    H236708   0.139   3.335  -0.009 -1.1229 -0.4694 -2.5438
 5025TIP3   OH236709   0.489   5.436   2.456  0.0811 -0.2656 -0.6362
 5025TIP3    H136710   0.476   5.530   2.466 -1.3904 -0.5641  0.9637
 5025TIP3    H236711   0.583   5.423   2.464  0.3816  1.1125 -1.6046
 5026TIP3   OH236712   2.107   6.672   0.253  0.0996 -0.0284  0.5486
 5026TIP3    H136713   2.149   6.741   0.203  0.6811  0.1314  1.2354
 5026TIP3    H236714   2.073   6.715   0.332 -0.3053 -0.3715  0.5698
 5027TIP3   OH236715   3.928   5.717   8.034 -0.2008 -0.1052  0.2311
 5027TIP3    H136716   3.857   5.655   8.022  2.5378 -3.5971  0.5101
 5027TIP3    H236717   3.997   5.687   7.976  2.3600  0.8620  2.5532
 5028TIP3   OH236718   2.275   4.970   1.465  0.4763 -0.1297 -0.0171
 5028TIP3    H136719   2.315   5.039   1.518  0.5252 -0.3854  0.2787
 5028TIP3    H236720   2.199   4.941   1.516 -1.8762  2.3111 -1.7989
 5029TIP3   OH236721   4.224   5.362   0.393 -0.0922  0.3216  0.4829
 5029TIP3    H136722   4.317   5.351   0.411 -0.1052 -0.6661 -0.0035
 5029TIP3    H236723   4.187   5.396   0.474  0.8270  1.5889  0.4025
 5030TIP3   OH236724   3.713   4.945   1.946 -0.0564 -0.8980 -0.3312
 5030TIP3    H136725   3.632   4.939   1.997 -0.1670  2.0124 -0.0148
 5030TIP3    H236726   3.783   4.923   2.007 -0.3599  0.4274  0.5416
 5031TIP3   OH236727   2.958   3.096   0.066  0.9466 -0.5340 -0.2374
 5031TIP3    H136728   3.040   3.132   0.031  0.3979  0.1149 -0.9200
 5031TIP3    H236729   2.945   3.015   0.018 -0.0175  0.5610 -1.9575
 5032TIP3   OH236730   2.567   6.459   1.957  0.1319  0.0452  0.1240
 5032TIP3    H136731   2.544   6.450   1.864  0.1589 -1.6917  0.2559
 5032TIP3    H236732   2.641   6.519   1.957  1.9143 -2.0189 -1.2816
 5033TIP3   OH236733   2.021   6.763   2.693  0.2931 -0.7710  0.6088
 5033TIP3    H136734   1.944   6.717   2.725 -1.8979  0.7780 -2.0247
 5033TIP3    H236735   2.063   6.702   2.632  0.0235 -0.9150  0.5699
 5034TIP3   OH236736   3.081   4.811   2.142 -0.3373  0.2923 -0.4644
 5034TIP3    H136737   3.134   4.792   2.220  0.4261 -1.6425 -1.3973
 5034TIP3    H236738   3.107   4.745   2.079 -2.0882  0.8551 -1.8447
 5035TIP3   OH236739   6.279   4.107   1.952  0.7665 -0.3642  0.0206
 5035TIP3    H136740   6.312   4.109   1.862 -1.6461  1.0395 -0.9375
 5035TIP3    H236741   6.344   4.057   2.000  3.0321  0.3146 -2.1290
 5036TIP3   OH236742   2.448   5.088   7.831  0.0682  0.6102 -0.1155
 5036TIP3    H136743   2.538   5.115   7.810  0.7834 -0.1920  1.7020
 5036TIP3    H236744   2.436   5.006   7.782  0.2901  0.7698 -0.4394
 5037TIP3   OH236745   4.580   5.559   1.855  0.3881  0.0892  0.4351
 5037TIP3    H136746   4.549   5.512   1.932 -0.0409  1.4451  1.1177
 5037TIP3    H236747   4.583   5.650   1.882  0.9087  0.5066 -0.9454
 5038TIP3   OH236748   2.422   1.733   1.914  0.1741 -0.6473  0.1561
 5038TIP3    H136749   2.333   1.721   1.880  0.2170  1.0574 -0.6453
 5038TIP3    H236750   2.479   1.704   1.842  0.2502  1.2140 -0.5876
 5039TIP3   OH236751   6.332   2.658   0.321  0.2809  0.0558  0.4552
 5039TIP3    H136752   6.342   2.753   0.334 -2.7434  0.6265 -0.4945
 5039TIP3    H236753   6.354   2.644   0.229 -0.0088 -0.0038  0.3928
 5040TIP3   OH236754   5.858   3.872   0.361  0.0666 -0.4322 -0.1495
 5040TIP3    H136755   5.919   3.946   0.359 -0.1725 -0.1766  1.0114
 5040TIP3    H236756   5.857   3.838   0.271 -0.8031  1.7668 -1.0338
 5041TIP3   OH236757   2.557   1.455   1.504  0.0903 -0.6490 -0.5181
 5041TIP3    H136758   2.631   1.500   1.545  0.7846 -3.1706  1.2566
 5041TIP3    H236759   2.567   1.472   1.411  2.6091 -0.4677 -0.2810
 5042TIP3   OH236760   1.926   0.008   1.501 -0.2592  0.1827 -0.0785
 5042TIP3    H136761   1.879   0.039   1.425  2.0678  0.4361 -1.5213
 5042TIP3    H236762   1.985  -0.060   1.467 -0.6487 -1.2567  1.8888
 5043TIP3   OH236763   6.450   1.126   0.970  0.2520 -0.6392 -0.1642
 5043TIP3    H136764   6.447   1.033   0.992 -0.8293 -1.3246 -2.8758
 5043TIP3    H236765   6.449   1.170   1.055 -2.6259 -3.0242  1.2348
 5044TIP3   OH236766   6.263   0.941   6.811  0.6192 -0.4163 -0.5043
 5044TIP3    H136767   6.196   1.009   6.811  1.0122 -0.0005  0.4368
 5044TIP3    H236768   6.266   0.909   6.721 -0.0425  0.3455 -0.8067
 5045TIP3   OH236769   2.210   0.212   7.047  0.0076 -0.1243  0.3266
 5045TIP3    H136770   2.168   0.262   7.118 -1.1864  1.0158 -1.0985
 5045TIP3    H236771   2.277   0.271   7.013 -0.0624 -0.2726 -0.0779
 5046TIP3   OH236772   5.940   1.175   6.508 -0.5925  0.0804  0.0503
 5046TIP3    H136773   5.948   1.242   6.441 -0.3550  0.4354  0.4309
 5046TIP3    H236774   5.896   1.218   6.581 -2.3518 -0.7513 -0.4790
 5047TIP3   OH236775   0.769   6.014   1.929  0.7061  0.4559  0.4724
 5047TIP3    H136776   0.709   5.969   1.990 -1.0703 -0.0902 -1.5579
 5047TIP3    H236777   0.799   6.091   1.978 -0.6944  0.0933  2.0139
 5048TIP3   OH236778   5.104   1.434   0.074  0.0172  0.5707  0.4304
 5048TIP3    H136779   5.170   1.497   0.045 -0.9033  1.4663  0.2314
 5048TIP3    H236780   5.032   1.443   0.012 -0.5162 -0.0189  0.9417
 5049TIP3   OH236781   6.553   0.491   0.971  0.1424 -0.6110 -0.1144
 5049TIP3    H136782   6.583   0.497   0.881  0.5359  0.1674  0.0557
 5049TIP3    H236783   6.631   0.508   1.024 -0.0845 -1.0490  0.3732
 5050TIP3   OH236784   1.924   3.210   7.408 -0.0898  0.7272 -0.4617
 5050TIP3    H136785   1.945   3.159   7.486 -0.0128 -0.3821 -1.1796
 5050TIP3    H236786   1.998   3.270   7.398  0.0005  0.7319  0.1980
 5051TIP3   OH236787   4.908   2.497   7.603 -0.2474 -0.0489  0.5457
 5051TIP3    H136788   4.838   2.445   7.564  0.6674 -0.5649 -0.4830
 5051TIP3    H236789   4.877   2.587   7.599 -1.1632 -0.3385  0.8319
 5052TIP3   OH236790   6.707   5.682   2.956 -0.2512 -0.0433  0.3828
 5052TIP3    H136791   6.645   5.738   2.911  0.1352  1.5174  1.6958
 5052TIP3    H236792   6.657   5.642   3.028  0.1083  0.8132  1.1282
 5053TIP3   OH236793   4.870   6.280   2.843 -0.0306 -0.1190  0.1177
 5053TIP3    H136794   4.811   6.251   2.774  1.3975  1.1501 -1.7654
 5053TIP3    H236795   4.920   6.201   2.866 -2.6029 -1.2999  2.0319
 5054TIP3   OH236796   2.277   4.758   7.480  0.1044 -0.1550  0.3400
 5054TIP3    H136797   2.348   4.694   7.465 -0.1600 -0.2424 -0.6449
 5054TIP3    H236798   2.302   4.834   7.427 -1.3425 -0.8264 -1.4365
 5055TIP3   OH236799   6.050   1.445   1.115 -0.1790 -0.0418  0.0775
 5055TIP3    H136800   5.986   1.444   1.186  0.9511 -1.4120  1.1231
 5055TIP3    H236801   6.089   1.358   1.117  0.6758  0.2771 -1.5143
 5056TIP3   OH236802   6.262   5.237   8.313  0.2519 -0.0224  0.2601
 5056TIP3    H136803   6.311   5.189   8.246 -1.1284  1.8760 -2.3246
 5056TIP3    H236804   6.177   5.194   8.316  0.5574 -0.5737  1.4203
 5057TIP3   OH236805   6.444   0.197   8.089  0.0871 -0.0473 -0.1545
 5057TIP3    H136806   6.462   0.153   8.006  1.3290  2.4348 -1.3033
 5057TIP3    H236807   6.373   0.259   8.069  0.1512  0.3315  0.7275
 5058TIP3   OH236808   0.583   0.734   2.109 -0.1763  0.3152 -0.1461
 5058TIP3    H136809   0.649   0.715   2.177  0.9019  1.2965 -0.8892
 5058TIP3    H236810   0.545   0.648   2.089  0.0605 -0.1068  1.1168
 5059TIP3   OH236811   4.913   2.744   7.079  0.2141 -0.3864  0.2109
 5059TIP3    H136812   4.852   2.807   7.118 -0.3768 -0.4010 -0.6744
 5059TIP3    H236813   4.995   2.794   7.068  0.2097 -0.2141  0.8992
 5060TIP3   OH236814   3.416   3.042   0.462  0.0293 -0.2639  0.1478
 5060TIP3    H136815   3.407   3.112   0.397  2.0714  1.7588  1.8939
 5060TIP3    H236816   3.399   2.961   0.413  1.0294  1.1794 -2.7721
 5061TIP3   OH236817   4.733   2.341   0.039 -0.2842  0.0560 -0.3635
 5061TIP3    H136818   4.746   2.278   0.109  1.2826  2.5346  1.7185
 5061TIP3    H236819   4.784   2.306  -0.034  0.9885 -0.8251  0.8993
 5062TIP3   OH236820   1.682   2.614   2.301 -0.2498  0.3394  0.2084
 5062TIP3    H136821   1.643   2.527   2.298 -0.3354  0.3692  0.4947
 5062TIP3    H236822   1.705   2.632   2.209 -0.2543  0.0292  0.1438
 5063TIP3   OH236823   3.093   6.276   0.207  0.3241  0.4674  0.0031
 5063TIP3    H136824   3.011   6.313   0.175  1.6559 -0.0113 -4.5350
 5063TIP3    H236825   3.090   6.183   0.183  2.9458  0.8584 -2.3005
 5064TIP3   OH236826   2.108   1.235   6.791  0.1354  0.2357 -0.1148
 5064TIP3    H136827   2.106   1.185   6.709 -0.2325 -1.6302  0.9673
 5064TIP3    H236828   2.030   1.291   6.787  1.2717  1.8261 -1.9454
 5065TIP3   OH236829   2.047   3.362   3.225 -0.4150  0.1278  0.1385
 5065TIP3    H136830   2.030   3.355   3.319 -0.0192  0.4631  0.2398
 5065TIP3    H236831   2.110   3.291   3.207  1.3659  1.5092  0.6058
 5066TIP3   OH236832   4.798   2.511   1.213  0.3977 -0.3520  0.1952
 5066TIP3    H136833   4.884   2.526   1.251  0.9167  0.4912 -1.2524
 5066TIP3    H236834   4.774   2.596   1.174 -2.2492  0.2622  2.7832
 5067TIP3   OH236835   6.460   1.466   2.080  0.3707 -0.6827 -0.1811
 5067TIP3    H136836   6.457   1.376   2.047 -1.2300 -1.0933  0.9554
 5067TIP3    H236837   6.426   1.518   2.007  1.2497 -0.9732 -0.8252
 5068TIP3   OH236838   1.108   3.673   8.233  0.1183  0.0427  0.6278
 5068TIP3    H136839   1.098   3.753   8.284 -0.0435  1.6206 -1.7181
 5068TIP3    H236840   1.018   3.648   8.208  0.2892  0.3456 -0.3491
 5069TIP3   OH236841   3.108   0.846   0.059  0.1868  0.1016 -0.1417
 5069TIP3    H136842   3.154   0.876  -0.020  0.2506  0.3009 -0.0298
 5069TIP3    H236843   3.021   0.885   0.051  0.8637  1.9835  0.9662
 5070TIP3   OH236844   2.076   0.459   7.181 -0.2709  0.3950  0.1188
 5070TIP3    H136845   2.143   0.516   7.143 -1.4914  0.5770 -1.8925
 5070TIP3    H236846   1.995   0.486   7.139 -1.2685 -1.2684  0.8679
 5071TIP3   OH236847   0.941   5.173   1.966 -0.2794  0.2188 -0.0249
 5071TIP3    H136848   1.020   5.159   2.019 -0.4520 -1.3637 -0.1609
 5071TIP3    H236849   0.904   5.255   2.000 -0.3930 -0.7275  2.3356
 5072TIP3   OH236850   3.727   1.858   1.681 -0.4915  0.5725  0.8007
 5072TIP3    H136851   3.765   1.794   1.741 -3.1708  1.3148  3.5216
 5072TIP3    H236852   3.689   1.806   1.611  1.9782 -0.3702  0.0286
 5073TIP3   OH236853   1.042   2.252   0.590  0.1308 -0.0636 -0.0893
 5073TIP3    H136854   0.950   2.227   0.596  0.2660 -0.2409  2.4206
 5073TIP3    H236855   1.059   2.300   0.671  2.6583 -1.5516  0.3798
 5074TIP3   OH236856   6.425   0.198   7.559 -0.3236  0.3671 -0.3744
 5074TIP3    H136857   6.359   0.266   7.571 -3.0255 -2.0983 -0.2610
 5074TIP3    H236858   6.395   0.147   7.484 -0.6312 -2.9499  1.7716
 5075TIP3   OH236859   1.835   6.977   0.458  0.4872 -0.1072  0.4015
 5075TIP3    H136860   1.804   6.985   0.368  1.1486 -0.5704  0.1179
 5075TIP3    H236861   1.788   6.902   0.494 -0.4677  0.6391  0.7581
 5076TIP3   OH236862   2.437   2.627   0.658 -0.2492  0.3354  0.0182
 5076TIP3    H136863   2.473   2.561   0.717  0.3544 -0.5808 -1.3281
 5076TIP3    H236864   2.445   2.709   0.706  4.6975  0.4486 -0.4719
 5077TIP3   OH236865   0.337   0.805   8.092  0.4396  0.0669  0.3289
 5077TIP3    H136866   0.399   0.812   8.019  0.0877  1.1170  0.1107
 5077TIP3    H236867   0.257   0.771   8.052  0.3406  0.3535  0.2834
 5078TIP3   OH236868   5.292   1.350   2.570 -0.4293 -0.6485  0.0107
 5078TIP3    H136869   5.221   1.408   2.600 -0.4019 -1.6356  2.1315
 5078TIP3    H236870   5.349   1.407   2.518 -2.2679  0.3783 -0.9831
 5079TIP3   OH236871   6.898   0.907   8.373 -0.0685  0.1388  0.6174
 5079TIP3    H136872   6.861   0.982   8.327  1.3661  0.4307 -0.1055
 5079TIP3    H236873   6.832   0.884   8.438  0.3392  3.3464  2.3534
 5080TIP3   OH236874   6.992   5.967   7.853  0.4694 -0.2689 -0.1178
 5080TIP3    H136875   6.915   6.015   7.823  0.2330 -0.7427 -0.2707
 5080TIP3    H236876   6.957   5.889   7.895  0.9006 -1.1763 -1.3886
 5081TIP3   OH236877   1.396   6.795   1.409 -0.0921 -0.9847 -0.4544
 5081TIP3    H136878   1.417   6.704   1.433  0.9078 -0.8073 -0.6003
 5081TIP3    H236879   1.344   6.787   1.329  0.0826 -1.4262 -0.5282
 5082TIP3   OH236880   2.782   4.372   2.154 -0.5454 -0.7346 -0.0218
 5082TIP3    H136881   2.777   4.358   2.249 -1.3957 -0.6799 -0.0494
 5082TIP3    H236882   2.875   4.374   2.135 -0.3713 -1.2461  0.7416
 5083TIP3   OH236883   2.664   5.112   2.196 -0.5680  0.3761  0.1282
 5083TIP3    H136884   2.573   5.085   2.211 -0.9309  1.2707 -0.3898
 5083TIP3    H236885   2.710   5.030   2.177 -1.7813  0.1245 -2.1243
 5084TIP3   OH236886   1.949   4.901   0.416 -0.1150  0.0665 -0.4344
 5084TIP3    H136887   2.002   4.913   0.337  1.5750  1.8829  0.8768
 5084TIP3    H236888   1.889   4.976   0.416 -1.4083 -0.9119 -0.8681
 5085TIP3   OH236889   0.491   5.928   7.750 -0.5894 -0.1509  0.2917
 5085TIP3    H136890   0.499   5.981   7.670 -1.6917 -0.7209 -0.2356
 5085TIP3    H236891   0.402   5.893   7.745 -0.8014  0.0886  1.9688
 5086TIP3   OH236892   2.908   3.662   1.493 -0.4211  0.6084 -0.3754
 5086TIP3    H136893   2.936   3.636   1.581  0.0022 -2.0303 -1.1987
 5086TIP3    H236894   2.950   3.747   1.479  0.9739  0.2647  1.2906
 5087TIP3   OH236895   1.028   4.888   7.989  0.7995 -0.7199  0.7111
 5087TIP3    H136896   0.987   4.823   7.932 -1.0437  0.2696  0.8184
 5087TIP3    H236897   0.973   4.888   8.068  0.7827  0.9231  0.7269
 5088TIP3   OH236898   6.193   3.407   1.938 -0.1575 -0.3907 -0.1915
 5088TIP3    H136899   6.129   3.337   1.951 -0.2990 -0.0990  0.8198
 5088TIP3    H236900   6.278   3.364   1.948 -0.2569 -0.2371  1.6574
 5089TIP3   OH236901   2.832   4.156   1.536  0.0658 -0.2609  0.2203
 5089TIP3    H136902   2.840   4.138   1.629  0.2454  2.0293  0.7216
 5089TIP3    H236903   2.835   4.252   1.530 -0.7712 -0.3072 -2.0610
 5090TIP3   OH236904   1.784   4.153   0.895  0.0586  0.0041  0.3296
 5090TIP3    H136905   1.745   4.239   0.876 -0.8448  0.0572  2.1961
 5090TIP3    H236906   1.857   4.146   0.834  0.2200  2.1526  0.1999
 5091TIP3   OH236907   4.202   5.222   0.136 -0.0282 -0.4526 -0.4917
 5091TIP3    H136908   4.218   5.239   0.229 -0.0668  1.5017 -0.8104
 5091TIP3    H236909   4.122   5.270   0.115  0.5325 -0.0127 -1.7530
 5092TIP3   OH236910   5.616   0.996   0.198 -0.1380  0.2771 -0.8027
 5092TIP3    H136911   5.582   1.000   0.287 -0.3977  1.6027 -0.9483
 5092TIP3    H236912   5.581   1.073   0.154  1.3112  0.5463 -1.5797
 5093TIP3   OH236913   4.549   6.099   1.909  0.4406 -0.0367 -0.4975
 5093TIP3    H136914   4.517   6.129   1.824 -1.2246 -1.6457 -0.4979
 5093TIP3    H236915   4.475   6.051   1.947  1.8167 -1.0764  0.9907
 5094TIP3   OH236916   2.094   6.681   7.757 -0.4320  0.0258  0.5623
 5094TIP3    H136917   2.131   6.603   7.715  1.2498  1.2905 -0.4569
 5094TIP3    H236918   2.034   6.717   7.691  0.8910  1.0660 -0.1091
 5095TIP3   OH236919   4.172   4.857   0.423  0.0760  0.0094 -0.1188
 5095TIP3    H136920   4.231   4.799   0.472  0.2122 -0.7050 -1.0896
 5095TIP3    H236921   4.158   4.932   0.480  1.4969 -0.0680  0.3670
 5096TIP3   OH236922   0.299   0.808   2.128 -0.0440  0.0077  0.1809
 5096TIP3    H136923   0.327   0.771   2.044 -0.1943  0.6787 -0.1741
 5096TIP3    H236924   0.210   0.775   2.139  0.1780 -0.5391  0.3537
 5097TIP3   OH236925   0.260   4.637   6.948 -0.5262 -0.3157  0.0697
 5097TIP3    H136926   0.333   4.675   6.898 -0.4716 -1.1805 -0.5489
 5097TIP3    H236927   0.241   4.555   6.902 -2.5349  0.3390 -0.3696
 5098TIP3   OH236928   5.949   2.453   1.212 -0.7034 -0.0148 -0.1025
 5098TIP3    H136929   5.926   2.374   1.164 -0.7940  0.5081 -0.9541
 5098TIP3    H236930   6.022   2.428   1.268 -1.0245 -0.8061 -0.0334
 5099TIP3   OH236931   4.785   6.424   7.540  0.7243 -0.1457 -0.5456
 5099TIP3    H136932   4.722   6.480   7.587  1.5259 -2.6400  4.1609
 5099TIP3    H236933   4.867   6.474   7.543  0.4166  0.3818 -0.7352
 5100TIP3   OH236934   4.109   2.601   1.506 -0.0701  0.4008 -0.4345
 5100TIP3    H136935   4.148   2.514   1.511  0.7230  0.7703  0.1489
 5100TIP3    H236936   4.020   2.590   1.537  1.1729  0.4550  3.8731
 5101TIP3   OH236937   3.999   5.284   7.901 -0.0327 -0.1242 -0.3969
 5101TIP3    H136938   4.029   5.329   7.822  0.6641  1.7180  0.8627
 5101TIP3    H236939   4.078   5.243   7.937 -0.1297 -0.0225 -0.0655
 5102TIP3   OH236940   0.970   0.386   8.361 -0.3960  0.1619  0.6858
 5102TIP3    H136941   0.982   0.352   8.272  0.2168  1.2845  0.3024
 5102TIP3    H236942   1.057   0.418   8.385 -0.4058 -0.7330  1.9643
 5103TIP3   OH236943   3.086   1.935   1.416  0.4609 -0.0760 -0.5511
 5103TIP3    H136944   3.109   2.018   1.375  2.8637 -1.5863 -2.5625
 5103TIP3    H236945   3.037   1.887   1.349 -3.7917  0.7186  1.6317
 5104TIP3   OH236946   4.520   1.867   2.270  0.0976 -0.0797  0.2178
 5104TIP3    H136947   4.576   1.916   2.330  1.7488 -1.5554 -0.0394
 5104TIP3    H236948   4.440   1.850   2.319 -0.6622  2.9612  0.2578
 5105TIP3   OH236949   6.332   2.135   1.753 -0.0629 -0.3151  0.1495
 5105TIP3    H136950   6.328   2.149   1.848  0.4067  0.3802  0.0712
 5105TIP3    H236951   6.310   2.220   1.715 -1.6998 -0.9384 -0.3897
 5106TIP3   OH236952   3.580   3.744   7.950  0.5246  0.1060  0.0937
 5106TIP3    H136953   3.497   3.781   7.978  0.5692 -1.4384  2.5230
 5106TIP3    H236954   3.645   3.784   8.008  1.3315  0.3494 -0.9431
 5107TIP3   OH236955   0.800   3.078   1.128  0.0251 -0.0286  0.0090
 5107TIP3    H136956   0.742   3.013   1.087 -0.1882 -1.1574  1.9601
 5107TIP3    H236957   0.881   3.074   1.078 -1.3073  1.1053 -2.3758
 5108TIP3   OH236958   0.190   0.071   1.979  0.3914  0.0359  0.4486
 5108TIP3    H136959   0.186   0.059   1.885  0.0787 -0.4763  0.5279
 5108TIP3    H236960   0.280   0.050   2.003  1.0684  2.1653 -0.0052
 5109TIP3   OH236961   4.042   0.528   0.239  0.3366  0.1124  0.2439
 5109TIP3    H136962   3.970   0.591   0.233 -0.1324 -0.3769  0.6415
 5109TIP3    H236963   4.108   0.573   0.292 -0.1788  0.1107  0.9095
 5110TIP3   OH236964   3.063   1.622   2.138  0.7313  0.0982 -0.2255
 5110TIP3    H136965   3.154   1.607   2.111  0.8109 -0.1195  0.1563
 5110TIP3    H236966   3.044   1.552   2.199 -0.4851 -1.3013 -2.0820
 5111TIP3   OH236967   3.722   5.188   0.152 -0.3241 -0.3012 -0.5255
 5111TIP3    H136968   3.688   5.114   0.202  0.6543 -1.1435 -1.0677
 5111TIP3    H236969   3.776   5.148   0.084  0.2155  0.9180 -0.8366
 5112TIP3   OH236970   0.672   5.617   7.010  0.1844 -0.4392 -0.0879
 5112TIP3    H136971   0.764   5.616   6.981  0.4252 -1.8146  0.6717
 5112TIP3    H236972   0.649   5.525   7.021 -1.2975 -0.1076 -0.2356
 5113TIP3   OH236973   2.143   4.892   7.713  0.1672 -0.2528 -0.8543
 5113TIP3    H136974   2.176   4.855   7.631  2.1606 -1.4894  0.4357
 5113TIP3    H236975   2.165   4.984   7.709 -0.3760 -0.1530 -1.9746
 5114TIP3   OH236976   5.531   6.714   1.624 -0.2018 -0.4529 -0.0469
 5114TIP3    H136977   5.550   6.780   1.557 -0.4410  0.3680  0.6743
 5114TIP3    H236978   5.460   6.662   1.588  0.1812 -0.5046 -0.7457
 5115TIP3   OH236979   4.527   0.177   7.292 -0.3116  0.3927  0.3642
 5115TIP3    H136980   4.435   0.159   7.313 -1.0065  1.2363 -1.6720
 5115TIP3    H236981   4.531   0.271   7.277  0.3546  0.0946 -1.7105
 5116TIP3   OH236982   4.904   6.585   2.096  0.0411 -0.6735 -0.4351
 5116TIP3    H136983   4.916   6.657   2.158 -0.5745 -1.0197  0.0961
 5116TIP3    H236984   4.824   6.607   2.049  0.1278 -0.7634 -0.6273
 5117TIP3   OH236985   6.687   5.711   7.526 -0.3970 -0.7294 -0.1231
 5117TIP3    H136986   6.660   5.780   7.465  2.6684  0.2584 -0.5670
 5117TIP3    H236987   6.737   5.650   7.472 -1.7957 -2.5701  0.5616
 5118TIP3   OH236988   5.151   6.436   0.699 -0.0871  0.3539 -0.0628
 5118TIP3    H136989   5.180   6.511   0.647  1.3310 -0.7220 -0.9064
 5118TIP3    H236990   5.232   6.400   0.736 -0.5177 -1.7226 -1.0172
 5119TIP3   OH236991   6.241   5.537   2.304  0.7270 -0.2949 -0.1856
 5119TIP3    H136992   6.200   5.549   2.390  0.0828  1.0611 -0.6362
 5119TIP3    H236993   6.287   5.620   2.288  1.1409 -0.6698 -0.9908
 5120TIP3   OH236994   4.152   3.763   8.006 -0.5575  0.1690  0.2777
 5120TIP3    H136995   4.153   3.725   8.094 -2.0067  1.1356  0.7662
 5120TIP3    H236996   4.064   3.744   7.974 -0.1627  0.1609 -0.8235
 5121TIP3   OH236997   5.352   6.298   2.253 -0.2926 -0.2269 -1.2824
 5121TIP3    H136998   5.293   6.270   2.323  0.2510  1.3077 -0.1451
 5121TIP3    H236999   5.299   6.295   2.173 -1.6251  0.1778 -0.4450
 5122TIP3   OH237000   0.077   5.710   8.083  0.3744  0.3823 -0.2989
 5122TIP3    H137001   0.074   5.619   8.115 -0.9281  0.4593 -0.1564
 5122TIP3    H237002  -0.014   5.731   8.061  0.7954  1.3678 -1.1661
 5123TIP3   OH237003   1.677   5.341   2.620 -0.2030  0.5352 -0.1614
 5123TIP3    H137004   1.720   5.427   2.621 -2.4533  1.7282 -1.0617
 5123TIP3    H237005   1.638   5.333   2.707  1.2259 -0.2826  0.4426
 5124TIP3   OH237006   0.040   1.558   8.360  0.2693  0.0573 -0.2771
 5124TIP3    H137007   0.017   1.528   8.448  0.1559 -0.1390 -0.3723
 5124TIP3    H237008  -0.017   1.634   8.344  0.8781  0.6155  0.1437
 5125TIP3   OH237009   3.987   5.700   2.234  0.3836 -0.1848 -0.1058
 5125TIP3    H137010   3.908   5.646   2.234 -1.5727  2.5058 -0.4600
 5125TIP3    H237011   3.968   5.771   2.173  1.9036  2.1294  1.9087
 5126TIP3   OH237012   5.796   0.124   0.002 -0.2400  0.1056  0.3309
 5126TIP3    H137013   5.736   0.113   0.075 -2.7869  1.9076 -1.3105
 5126TIP3    H237014   5.880   0.146   0.043 -1.5039  0.8198  2.7065
 5127TIP3   OH237015   1.866   2.939   0.793  0.0122 -0.1154  0.1492
 5127TIP3    H137016   1.796   2.900   0.740  1.3113 -0.6730 -1.2205
 5127TIP3    H237017   1.851   3.033   0.786  0.1484 -0.1750 -1.2294
 5128TIP3   OH237018   6.261   6.042   6.620 -0.2969  0.4096 -0.0671
 5128TIP3    H137019   6.182   6.069   6.573  0.2146 -0.8126 -1.7123
 5128TIP3    H237020   6.237   5.960   6.663  0.6007 -1.0939 -2.2852
 5129TIP3   OH237021   1.728   4.941   7.272  0.0148  0.2004 -0.1996
 5129TIP3    H137022   1.791   4.912   7.206 -0.1938 -0.7651  0.0168
 5129TIP3    H237023   1.654   4.975   7.222 -0.8813 -2.0854 -0.5203
 5130TIP3   OH237024   1.492   1.756   3.204  0.4222 -0.3633 -0.2111
 5130TIP3    H137025   1.425   1.743   3.137 -0.9302 -0.7677  1.1591
 5130TIP3    H237026   1.514   1.849   3.199 -1.0227  0.0056  0.0076
 5131TIP3   OH237027   6.208   6.906   7.535 -0.0589  0.3120 -0.6031
 5131TIP3    H137028   6.144   6.867   7.594  0.4642 -1.1823 -0.9897
 5131TIP3    H237029   6.154   6.949   7.467 -0.6443  0.4588 -0.0540
 5132TIP3   OH237030   4.659   0.034   0.033 -0.6881  0.4803  0.1228
 5132TIP3    H137031   4.668   0.117   0.080 -0.4970  0.7546 -0.3922
 5132TIP3    H237032   4.749   0.008   0.011 -0.8380  1.0016 -1.1958
 5133TIP3   OH237033   4.490   0.290   1.402 -0.0090  0.9222  0.0516
 5133TIP3    H137034   4.478   0.239   1.482  1.4840  1.2855  0.5204
 5133TIP3    H237035   4.434   0.245   1.338  0.5979 -0.8227  0.6713
 5134TIP3   OH237036   4.247   3.426   0.621  0.2428 -0.2796 -0.0375
 5134TIP3    H137037   4.266   3.501   0.565 -1.3498  0.1110 -0.0902
 5134TIP3    H237038   4.214   3.359   0.561 -0.0767 -0.3824  0.2534
 5135TIP3   OH237039   0.758   2.221   1.650  0.2490 -0.5610  0.2930
 5135TIP3    H137040   0.666   2.247   1.644  0.7702  1.3978 -0.0685
 5135TIP3    H237041   0.767   2.148   1.590 -1.0971 -0.8872  0.4549
 5136TIP3   OH237042   4.136   4.519   7.586  0.8262 -0.0934 -0.0185
 5136TIP3    H137043   4.094   4.543   7.503  0.6387  0.2735  0.1836
 5136TIP3    H237044   4.198   4.450   7.561 -1.2226 -2.0469 -0.0534
 5137TIP3   OH237045   6.429   1.568   7.909 -0.4398 -0.0640  0.0995
 5137TIP3    H137046   6.462   1.577   7.999 -2.3693 -3.5273  1.3724
 5137TIP3    H237047   6.363   1.636   7.901  0.0330  0.5530  1.1800
 5138TIP3   OH237048   4.684   5.203   0.821  0.2571 -0.0002  0.0745
 5138TIP3    H137049   4.694   5.110   0.844  0.4534  0.0725  0.2976
 5138TIP3    H237050   4.656   5.244   0.903 -1.3336 -0.0941 -0.3875
 5139TIP3   OH237051   4.515   6.341   0.164  0.1825 -0.7724  0.2750
 5139TIP3    H137052   4.516   6.245   0.165  0.8065 -0.7701  0.2898
 5139TIP3    H237053   4.435   6.364   0.210 -0.5992 -1.3011 -0.7756
 5140TIP3   OH237054   6.780   1.632   0.984 -0.0227 -0.2677 -0.0358
 5140TIP3    H137055   6.773   1.636   1.079  0.3454 -0.3065 -0.0082
 5140TIP3    H237056   6.730   1.707   0.953 -0.8089 -0.6987  0.1595
 5141TIP3   OH237057   6.469   2.865   1.936 -0.0894  0.6281 -0.4038
 5141TIP3    H137058   6.473   2.897   2.027  0.9300  1.4653 -0.7090
 5141TIP3    H237059   6.405   2.923   1.894 -1.1510 -0.2618 -0.0547
 5142TIP3   OH237060   2.569   5.744   1.987 -0.3839 -0.0971 -0.1182
 5142TIP3    H137061   2.537   5.654   1.999 -0.5250 -0.3633 -2.1355
 5142TIP3    H237062   2.491   5.795   1.964 -0.5538  0.9077  2.3615
 5143TIP3   OH237063   3.180   5.281   0.536  0.1927  0.4241  0.0525
 5143TIP3    H137064   3.092   5.295   0.572 -0.3076  0.4426 -1.1551
 5143TIP3    H237065   3.235   5.343   0.585 -0.3207 -0.0569  1.2991
 5144TIP3   OH237066   4.870   4.667   2.263  0.2033  0.0152  0.0128
 5144TIP3    H137067   4.812   4.741   2.243  0.5183  0.0195 -0.9098
 5144TIP3    H237068   4.947   4.681   2.208  0.9908 -0.1204  1.0627
 5145TIP3   OH237069   2.459   1.202   6.486  0.0800 -0.1864  0.2400
 5145TIP3    H137070   2.415   1.265   6.429  1.0887  0.4126  0.1096
 5145TIP3    H237071   2.551   1.208   6.462  0.4032 -0.5654  1.3326
 5146TIP3   OH237072   6.213   3.228   1.637 -0.1191 -0.4311  0.5597
 5146TIP3    H137073   6.153   3.212   1.564  1.4097 -1.6077 -0.5227
 5146TIP3    H237074   6.283   3.282   1.599  1.0812 -1.6845  0.9195
 5147TIP3   OH237075   3.532   5.856   7.528 -0.4341  0.1711  0.5474
 5147TIP3    H137076   3.600   5.795   7.557 -0.4773 -0.0693  0.1491
 5147TIP3    H237077   3.462   5.800   7.495 -0.5547  0.4345  0.3541
 5148TIP3   OH237078   1.498   0.038   1.898  0.2479  0.2676  0.3975
 5148TIP3    H137079   1.567   0.043   1.832  0.9883 -1.3261  0.9845
 5148TIP3    H237080   1.438  -0.029   1.865  1.9077 -2.3807  2.3571
 5149TIP3   OH237081   5.710   1.612   8.249  0.3825 -0.1765  0.1952
 5149TIP3    H137082   5.715   1.529   8.202  0.8801 -0.2775  0.4191
 5149TIP3    H237083   5.713   1.587   8.341 -0.6689  0.0142  0.2936
 5150TIP3   OH237084   6.158   1.028   1.671  0.2719 -0.3418 -0.2136
 5150TIP3    H137085   6.129   0.963   1.735 -0.1016 -0.3926 -0.4344
 5150TIP3    H237086   6.082   1.043   1.615 -0.0050  1.1710  0.5411
 5151TIP3   OH237087   1.575   0.760   7.778 -0.4167 -0.4622  0.1246
 5151TIP3    H137088   1.604   0.670   7.765 -0.5827 -0.6212  0.8469
 5151TIP3    H237089   1.650   0.814   7.754  1.0107 -0.8849  3.2087
 5152TIP3   OH237090   4.769   0.521   1.006  0.3116  0.1458  0.7554
 5152TIP3    H137091   4.812   0.520   0.920 -0.1673 -0.1390  0.5113
 5152TIP3    H237092   4.699   0.456   0.998 -1.0614  1.5974  0.6741
 5153TIP3   OH237093   4.802   5.123   0.405 -0.0225  0.3977 -0.3500
 5153TIP3    H137094   4.814   5.156   0.317 -1.5158  1.1388 -0.2946
 5153TIP3    H237095   4.813   5.028   0.397  1.0050  0.5641 -1.0927
 5154TIP3   OH237096   3.719   5.306   2.914  0.0302  0.3933 -0.1401
 5154TIP3    H137097   3.812   5.323   2.928  0.2749 -0.2921 -0.8378
 5154TIP3    H237098   3.712   5.211   2.914 -0.4928  0.4195 -1.0826
 5155TIP3   OH237099   1.367   3.290   1.088 -0.1789 -0.4503  0.0803
 5155TIP3    H137100   1.404   3.203   1.090  0.3269 -0.3830 -2.3548
 5155TIP3    H237101   1.442   3.349   1.096 -0.2811 -0.2699 -0.2653
 5156TIP3   OH237102   3.541   3.929   6.926  0.1373 -0.0055 -0.1270
 5156TIP3    H137103   3.511   3.971   6.845 -0.7935 -0.9481 -0.3034
 5156TIP3    H237104   3.571   3.842   6.899  1.1368  0.1825  0.3517
 5157TIP3   OH237105   1.315   6.117   7.932  0.2311 -0.1169  0.0865
 5157TIP3    H137106   1.337   6.088   7.844 -1.1797  1.3377 -0.8020
 5157TIP3    H237107   1.323   6.212   7.929 -2.0327  0.1685  0.8115
 5158TIP3   OH237108   6.711   4.407   0.929  0.5877  0.4012  0.1131
 5158TIP3    H137109   6.788   4.383   0.982  0.9804  1.3443 -0.0148
 5158TIP3    H237110   6.723   4.360   0.847  0.7800  0.1691  0.2709
 5159TIP3   OH237111   5.231   3.556   1.934  0.8262 -0.5385  0.0045
 5159TIP3    H137112   5.271   3.590   1.854 -0.3656 -0.6795 -0.6844
 5159TIP3    H237113   5.162   3.498   1.903 -2.7341  2.7523  0.9427
 5160TIP3   OH237114   0.809   1.107   7.492  0.1739 -0.8344 -0.4361
 5160TIP3    H137115   0.792   1.198   7.518  0.2978 -0.2552 -2.2339
 5160TIP3    H237116   0.756   1.094   7.413 -0.5816 -2.6553  0.3154
 5161TIP3   OH237117   6.214   6.564   1.077  0.0720 -0.2997 -0.4589
 5161TIP3    H137118   6.265   6.531   1.151 -1.0010  0.2512  0.5545
 5161TIP3    H237119   6.184   6.486   1.032 -0.0452 -0.6672  0.2371
 5162TIP3   OH237120   2.657   3.855   1.816  0.0403  0.8010  0.2487
 5162TIP3    H137121   2.749   3.828   1.819 -0.2670 -0.2242  1.2271
 5162TIP3    H237122   2.608   3.773   1.821 -0.9383  1.3067 -0.7379
 5163TIP3   OH237123   2.190   1.100   2.772 -0.1415 -0.7098  0.2482
 5163TIP3    H137124   2.247   1.163   2.727 -0.2451 -0.6363  0.2182
 5163TIP3    H237125   2.105   1.113   2.731 -0.2162 -0.7082  0.4038
 5164TIP3   OH237126   3.452   3.237   1.087  0.6836  0.3322  0.2915
 5164TIP3    H137127   3.356   3.242   1.090  0.7617  1.8185  0.9593
 5164TIP3    H237128   3.479   3.230   1.179  1.2039 -1.2247  0.0622
 5165TIP3   OH237129   6.328   0.459   7.360  0.0293 -0.6037  0.2730
 5165TIP3    H137130   6.309   0.454   7.266  0.0202  1.8280  0.0654
 5165TIP3    H237131   6.333   0.368   7.389 -0.6695 -1.4098 -1.9354
 5166TIP3   OH237132   3.717   1.703   8.176  0.1680 -0.3492 -0.2751
 5166TIP3    H137133   3.731   1.637   8.245  1.0902  0.3390  0.2081
 5166TIP3    H237134   3.641   1.753   8.206  0.8944  0.2973  0.5381
 5167TIP3   OH237135   3.778   6.847   7.931 -0.6831 -0.0367  0.2523
 5167TIP3    H137136   3.721   6.860   8.007  0.0160 -1.0229  0.9650
 5167TIP3    H237137   3.865   6.868   7.963 -0.0561 -2.5298  0.3852
 5168TIP3   OH237138   2.655   0.100   0.849 -0.3203 -0.7983 -0.4111
 5168TIP3    H137139   2.567   0.117   0.884  0.5892  0.8379  1.2859
 5168TIP3    H237140   2.661   0.157   0.772  0.1474  1.2501  1.0554
 5169TIP3   OH237141   3.176   1.545   2.928  0.3839  0.0375 -1.0486
 5169TIP3    H137142   3.207   1.622   2.881  1.1752 -0.8949 -2.0876
 5169TIP3    H237143   3.125   1.496   2.864  1.0690 -1.0066 -0.8273
 5170TIP3   OH237144   2.303   0.446   6.282 -0.1894  0.7779  0.2099
 5170TIP3    H137145   2.267   0.433   6.194  0.7059  1.4930 -0.2768
 5170TIP3    H237146   2.236   0.497   6.328 -0.3996  0.9219 -0.2454
 5171TIP3   OH237147   2.012   4.352   0.435  0.0531 -0.4507 -0.3749
 5171TIP3    H137148   2.099   4.348   0.475 -0.8392  0.2414  1.7683
 5171TIP3    H237149   2.027   4.398   0.352  2.0365 -2.3060 -1.1617
 5172TIP3   OH237150   6.286   3.304   7.664  0.2953 -0.0590 -0.0130
 5172TIP3    H137151   6.234   3.296   7.745  1.0049 -1.4323  0.3424
 5172TIP3    H237152   6.328   3.218   7.655 -0.2459 -0.1361 -2.1831
 5173TIP3   OH237153   6.337   1.331   6.578  0.3592  0.2766 -0.4859
 5173TIP3    H137154   6.245   1.327   6.604  0.0146  0.5626 -1.6132
 5173TIP3    H237155   6.367   1.417   6.608  0.1328  0.3591 -0.4944
 5174TIP3   OH237156   0.533   6.157   0.413 -0.3266 -0.3512  0.2100
 5174TIP3    H137157   0.603   6.187   0.471  1.4351 -1.2864 -1.3517
 5174TIP3    H237158   0.472   6.111   0.471  0.5220  0.1583  1.5552
 5175TIP3   OH237159   1.698   5.927   0.069  0.2184  0.0378  0.4170
 5175TIP3    H137160   1.657   5.841   0.058 -0.2918  0.4164 -0.8200
 5175TIP3    H237161   1.749   5.919   0.149  1.8111 -2.0823 -0.6986
 5176TIP3   OH237162   0.384   6.010   2.165  0.1924  0.4658 -0.2229
 5176TIP3    H137163   0.323   6.067   2.211 -0.2447  1.0401 -1.4637
 5176TIP3    H237164   0.368   6.027   2.072  0.7401 -0.9620 -0.6181
 5177TIP3   OH237165   4.161   4.166   0.061  0.4889 -0.2422  0.8010
 5177TIP3    H137166   4.205   4.249   0.079  0.1019  0.1153  0.1395
 5177TIP3    H237167   4.231   4.101   0.062  1.5120  0.6347 -2.7050
 5178TIP3   OH237168   0.106   6.457   8.000  0.8271  0.0957 -0.0716
 5178TIP3    H137169   0.183   6.401   7.998  0.5604 -0.3208  0.7030
 5178TIP3    H237170   0.075   6.453   8.091 -0.3504 -0.0905 -0.4534
 5179TIP3   OH237171   3.426   4.497   7.090  0.1676 -0.2022  0.0532
 5179TIP3    H137172   3.395   4.453   7.011 -0.5688  3.2528 -1.7800
 5179TIP3    H237173   3.347   4.532   7.131  0.8718  2.4833 -0.6617
 5180TIP3   OH237174   2.937   2.695   2.812  0.7231  0.7027  0.0668
 5180TIP3    H137175   2.975   2.648   2.887  0.1008 -1.0540 -0.6702
 5180TIP3    H237176   2.974   2.783   2.818  4.3511 -0.6363 -0.1731
 5181TIP3   OH237177   4.842   6.693   0.612 -0.0188 -0.1444  0.3134
 5181TIP3    H137178   4.820   6.764   0.551 -0.1733  0.0923  0.6454
 5181TIP3    H237179   4.773   6.629   0.601  1.2251 -1.2784 -1.5809
 5182TIP3   OH237180   1.644   3.805   1.653 -0.3332  0.1685  0.1699
 5182TIP3    H137181   1.558   3.792   1.693 -0.0587  2.6903  1.8163
 5182TIP3    H237182   1.665   3.721   1.612 -3.4966 -0.5561 -0.1988
 5183TIP3   OH237183   6.997   0.860   1.791  0.8197  0.0542  0.3209
 5183TIP3    H137184   7.013   0.870   1.697 -0.1918 -0.0307  0.1294
 5183TIP3    H237185   7.014   0.767   1.808 -0.7927 -0.3518 -0.1598
 5184TIP3   OH237186   4.444   4.707   0.451  0.3210 -0.3879  0.3362
 5184TIP3    H137187   4.529   4.676   0.420  0.3535 -0.4030  0.4411
 5184TIP3    H237188   4.383   4.684   0.381  0.2100 -1.3765  0.7432
 5185TIP3   OH237189   6.169   5.430   7.184 -0.2823 -0.1755  0.0057
 5185TIP3    H137190   6.135   5.485   7.113  1.8457  0.5068 -0.5796
 5185TIP3    H237191   6.251   5.396   7.149  0.2291 -0.7844  1.7286
 5186TIP3   OH237192   6.478   3.678   7.007  0.4961  0.3697  0.4761
 5186TIP3    H137193   6.477   3.724   7.090  0.6384  0.0843  0.6386
 5186TIP3    H237194   6.489   3.746   6.941  1.6670  0.4844  0.7691
 5187TIP3   OH237195   6.285   4.734   2.942 -0.2437  0.6178  0.1340
 5187TIP3    H137196   6.341   4.791   2.995 -1.3191  1.2717  0.5921
 5187TIP3    H237197   6.210   4.788   2.918 -0.3684 -0.0362 -1.0518
 5188TIP3   OH237198   0.699   6.688   1.377  0.0753  0.7470  0.7352
 5188TIP3    H137199   0.724   6.613   1.430  2.1262 -0.1588 -1.3144
 5188TIP3    H237200   0.770   6.751   1.389  1.5053 -0.1661 -2.0514
 5189TIP3   OH237201   1.064   6.982   7.668 -0.1229 -0.0282 -0.5091
 5189TIP3    H137202   1.067   6.895   7.629  0.3694 -1.1869  1.9113
 5189TIP3    H237203   1.097   7.040   7.599 -0.3418 -1.7522 -2.1478
 5190TIP3   OH237204   1.775   5.734   1.432 -0.0272  0.5958 -0.1179
 5190TIP3    H137205   1.684   5.764   1.435 -0.3931 -0.5220  0.5195
 5190TIP3    H237206   1.772   5.643   1.459  1.1323  0.1300 -1.3919
 5191TIP3   OH237207   3.234   6.915   2.167 -0.3610 -0.3682  0.5669
 5191TIP3    H137208   3.317   6.926   2.121 -1.3795  0.2422 -1.2553
 5191TIP3    H237209   3.215   6.822   2.159  0.0543 -0.4775  0.8222
 5192TIP3   OH237210   0.076   6.784   2.065  0.8354  0.0459  0.1505
 5192TIP3    H137211   0.112   6.872   2.050 -2.1099  1.2453 -0.4638
 5192TIP3    H237212   0.089   6.768   2.158 -1.2993  2.5437  0.9763
 5193TIP3   OH237213   6.860   1.703   0.116  0.0172 -0.2219  0.5846
 5193TIP3    H137214   6.909   1.642   0.172  0.3568  1.1744  1.8886
 5193TIP3    H237215   6.813   1.647   0.055  0.4622 -1.7815  1.6020
 5194TIP3   OH237216   6.777   5.458   0.759 -0.1276  0.3698  0.3422
 5194TIP3    H137217   6.863   5.488   0.729 -0.0008 -2.0493 -2.1599
 5194TIP3    H237218   6.794   5.372   0.798 -1.4762 -0.8789 -1.6009
 5195TIP3   OH237219   4.905   2.130   1.343  0.3920 -0.2766 -0.2681
 5195TIP3    H137220   4.951   2.214   1.339  0.7180 -0.3822  0.8981
 5195TIP3    H237221   4.969   2.069   1.378 -1.1713  0.0742  3.6797
 5196TIP3   OH237222   0.412   3.560   8.282 -0.0451 -0.1317 -0.7458
 5196TIP3    H137223   0.400   3.592   8.193  0.0595  0.0615 -0.6909
 5196TIP3    H237224   0.336   3.504   8.298 -0.6211  0.6891 -0.5753
 5197TIP3   OH237225   4.974   5.895   8.112  0.4629  0.1371 -0.2733
 5197TIP3    H137226   4.914   5.845   8.167 -1.0885  0.7491 -1.3604
 5197TIP3    H237227   5.050   5.838   8.101  0.5362 -0.2595  1.9299
 5198TIP3   OH237228   6.237   4.069   6.883  0.2970  0.3658  0.0382
 5198TIP3    H137229   6.210   3.986   6.924  0.7784  1.0861  1.8856
 5198TIP3    H237230   6.316   4.047   6.835 -0.5488 -0.6066 -0.9643
 5199TIP3   OH237231   1.090   5.019   2.351 -0.3908 -0.4068 -0.0167
 5199TIP3    H137232   1.071   4.942   2.296 -3.3061 -1.1736  1.8443
 5199TIP3    H237233   1.122   4.982   2.433 -1.9272  0.2835  0.9377
 5200TIP3   OH237234   1.329   5.486   6.729  0.6030 -0.1055 -0.2663
 5200TIP3    H137235   1.272   5.466   6.804  1.0391 -1.4412 -0.2665
 5200TIP3    H237236   1.295   5.432   6.658 -0.2284  1.6562 -1.2706
 5201TIP3   OH237237   2.273   1.674   7.781 -0.0247 -0.0034  0.6025
 5201TIP3    H137238   2.191   1.638   7.816  0.0893 -0.0167  0.8552
 5201TIP3    H237239   2.341   1.616   7.815  0.1691  0.4990  1.0950
 5202TIP3   OH237240   3.997   4.250   0.853  0.4511  0.1407 -0.1636
 5202TIP3    H137241   4.038   4.256   0.939  1.3592  0.3766 -0.6036
 5202TIP3    H237242   3.929   4.317   0.854  0.6848  0.3731  0.2498
 5203TIP3   OH237243   4.307   0.482   1.533  0.2459 -0.5332  0.3450
 5203TIP3    H137244   4.286   0.573   1.514  4.2939  0.9625  1.8485
 5203TIP3    H237245   4.386   0.464   1.482  0.1655 -2.8868  0.9001
 5204TIP3   OH237246   6.042   5.172   7.197 -0.1911  0.5451 -0.2804
 5204TIP3    H137247   6.056   5.247   7.139  1.1501  0.6004  0.0630
 5204TIP3    H237248   6.120   5.170   7.253 -0.8939 -0.2205  0.7246
 5205TIP3   OH237249   4.318   3.530   7.570 -0.1752  0.6846  0.0466
 5205TIP3    H137250   4.290   3.453   7.618 -0.6978  1.5224  1.1173
 5205TIP3    H237251   4.414   3.523   7.567 -0.2788 -0.6513 -1.0135
 5206TIP3   OH237252   0.511   0.444   2.193 -0.0421  0.4840 -0.0980
 5206TIP3    H137253   0.434   0.458   2.247  0.4689  0.8517  0.5520
 5206TIP3    H237254   0.495   0.360   2.149 -1.6271  1.4267 -1.4105
 5207TIP3   OH237255   3.744   2.608   7.712 -0.6950  0.0226  0.0656
 5207TIP3    H137256   3.794   2.567   7.783 -0.2218 -0.6908 -0.6642
 5207TIP3    H237257   3.677   2.659   7.757  0.6813  1.0230  1.0727
 5208TIP3   OH237258   0.834   5.662   1.161 -0.2557 -0.2087  0.6008
 5208TIP3    H137259   0.740   5.669   1.143 -0.0459  1.3677 -0.1028
 5208TIP3    H237260   0.856   5.745   1.205  1.2438  0.6531 -1.5725
 5209TIP3   OH237261   4.898   4.360   0.680 -0.1366  0.1983  0.1679
 5209TIP3    H137262   4.984   4.333   0.647 -1.3111  0.9225 -4.1561
 5209TIP3    H237263   4.846   4.280   0.678 -0.4652  0.4251 -0.7877
 5210TIP3   OH237264   6.371   6.463   0.271 -0.1945 -0.5037  0.3362
 5210TIP3    H137265   6.408   6.548   0.246 -1.7448  0.1038  0.0045
 5210TIP3    H237266   6.442   6.401   0.257  0.3680  0.4537 -1.2868
 5211TIP3   OH237267   2.348   3.498   8.402  0.7949 -0.4511  0.4052
 5211TIP3    H137268   2.326   3.483   8.494 -0.9019 -1.7571 -0.1506
 5211TIP3    H237269   2.368   3.411   8.368 -0.6883 -0.3119 -0.9228
 5212TIP3   OH237270   2.021   5.795   1.555 -0.3086  0.1228 -0.2084
 5212TIP3    H137271   1.934   5.808   1.517 -0.2062  1.4649 -0.0165
 5212TIP3    H237272   2.081   5.829   1.489 -0.0701  1.4067  0.6364
 5213TIP3   OH237273   2.776   5.535   6.786  0.4550  0.2384 -0.2509
 5213TIP3    H137274   2.791   5.602   6.718 -0.5949  0.1680 -0.5736
 5213TIP3    H237275   2.768   5.453   6.737 -0.5670  0.2244 -0.0711
 5214TIP3   OH237276   4.005   3.271   1.781  0.1843 -0.0312  0.2512
 5214TIP3    H137277   3.939   3.305   1.720  1.1157 -0.3259 -0.9420
 5214TIP3    H237278   4.019   3.343   1.843  0.3691  0.8736 -0.8114
 5215TIP3   OH237279   3.319   2.420   0.687  0.5727 -0.0811  0.0836
 5215TIP3    H137280   3.287   2.486   0.748 -0.5322  1.0055 -1.5763
 5215TIP3    H237281   3.254   2.350   0.690 -1.3911  1.4802 -2.2167
 5216TIP3   OH237282   1.062   5.600   7.923  0.4313  0.5359  0.0166
 5216TIP3    H137283   0.977   5.642   7.928 -0.2778 -0.8946  0.4593
 5216TIP3    H237284   1.115   5.646   7.989 -0.5904  0.1626  1.1233
 5217TIP3   OH237285   0.925   6.972   8.212  0.4596  0.2400 -0.0499
 5217TIP3    H137286   0.903   6.888   8.254 -2.3820  0.9177  0.0357
 5217TIP3    H237287   0.921   7.036   8.283 -2.0749  1.0625 -0.8371
 5218TIP3   OH237288   6.635   5.181   2.004 -0.2740 -0.3020  0.3245
 5218TIP3    H137289   6.628   5.140   2.090 -0.1709  1.2304  1.1031
 5218TIP3    H237290   6.602   5.115   1.943 -0.0390 -1.5453  1.4894
 5219TIP3   OH237291   4.115   2.549   8.309  0.5421 -0.2280  0.2048
 5219TIP3    H137292   4.167   2.533   8.387 -0.0942  0.7360  0.8472
 5219TIP3    H237293   4.045   2.484   8.312  0.6630 -0.3543  0.2907
 5220TIP3   OH237294   6.558   1.793   0.892  0.1854  0.7643  0.3564
 5220TIP3    H137295   6.594   1.864   0.839  1.6368  1.3510  2.0404
 5220TIP3    H237296   6.480   1.765   0.845 -0.2023  3.1984 -0.5475
 5221TIP3   OH237297   3.269   2.852   0.805  0.1705  0.3063  0.0209
 5221TIP3    H137298   3.207   2.923   0.822 -0.1160  0.0992 -0.1562
 5221TIP3    H237299   3.349   2.879   0.849  1.0764  2.2415 -2.5629
 5222TIP3   OH237300   5.969   2.242   1.036 -0.3838  0.0837 -0.2753
 5222TIP3    H137301   6.007   2.157   1.060  0.3083  0.4035 -0.1956
 5222TIP3    H237302   5.916   2.224   0.959 -1.1626 -0.6282  0.4024
 5223TIP3   OH237303   4.909   2.695   7.367 -0.4111 -0.6544  0.6248
 5223TIP3    H137304   5.001   2.668   7.369 -0.0542  0.5033  0.5479
 5223TIP3    H237305   4.895   2.724   7.277 -0.3909  0.6322  1.0102
 5224TIP3   OH237306   6.033   6.306   0.752 -0.2963  0.1107 -0.2943
 5224TIP3    H137307   6.005   6.373   0.690 -0.1209  0.4935  0.0357
 5224TIP3    H237308   6.029   6.349   0.837 -2.2046 -0.9163  0.1741
 5225TIP3   OH237309   3.273   4.032   7.750 -0.0209  1.0014 -0.1575
 5225TIP3    H137310   3.233   3.949   7.724  2.2570  0.0724 -0.9441
 5225TIP3    H237311   3.291   4.076   7.667  2.0616  0.6251  0.0588
 5226TIP3   OH237312   2.909   0.449   2.025  0.4072 -0.0557  0.4979
 5226TIP3    H137313   3.001   0.458   2.050  0.5712  1.5693 -0.5888
 5226TIP3    H237314   2.910   0.443   1.930 -0.5938 -0.4794  0.4988
 5227TIP3   OH237315   4.958   4.752   7.250  0.5316  0.0064  0.1800
 5227TIP3    H137316   4.896   4.684   7.222 -1.2009  1.4401  0.3631
 5227TIP3    H237317   5.015   4.765   7.175 -0.5040 -0.1252 -0.6520
 5228TIP3   OH237318   5.434   5.740   2.596  0.1783  0.2646 -0.4590
 5228TIP3    H137319   5.459   5.649   2.584 -0.4553 -0.2295  1.5166
 5228TIP3    H237320   5.372   5.758   2.525  0.3418 -0.8359 -0.8893
 5229TIP3   OH237321   2.994   4.747   7.634 -0.2629  0.3584 -0.2783
 5229TIP3    H137322   2.910   4.791   7.621 -0.2589  0.6098  0.4952
 5229TIP3    H237323   3.040   4.758   7.552 -1.1535 -0.1448 -0.8646
 5230TIP3   OH237324   5.182   4.351   1.881 -0.3831  0.0630 -0.0250
 5230TIP3    H137325   5.254   4.347   1.819 -0.8321  0.8017 -0.6205
 5230TIP3    H237326   5.219   4.394   1.959 -0.2104  0.5674 -0.3791
 5231TIP3   OH237327   2.899   4.386   0.804 -0.3590 -1.1329 -0.2649
 5231TIP3    H137328   2.917   4.411   0.894  0.9480 -0.0319 -0.7976
 5231TIP3    H237329   2.881   4.469   0.759 -1.4619 -1.7064 -0.9387
 5232TIP3   OH237330   1.887   5.150   2.025 -0.0079  0.2484  0.0868
 5232TIP3    H137331   1.851   5.239   2.027 -0.2816  0.1431 -0.1364
 5232TIP3    H237332   1.812   5.094   2.043  0.1819  0.0666  0.3159
 5233TIP3   OH237333   2.147   6.890   1.373 -0.0595 -0.4664  0.3701
 5233TIP3    H137334   2.193   6.924   1.296  1.1959 -0.9186  0.8831
 5233TIP3    H237335   2.116   6.803   1.347 -1.4978  0.2329 -0.2925
 5234TIP3   OH237336   2.215   2.353   8.403  0.1846 -0.1708  0.2957
 5234TIP3    H137337   2.134   2.398   8.379 -1.6171 -2.8784  0.8457
 5234TIP3    H237338   2.236   2.300   8.327  1.4705  0.4889  0.1729
 5235TIP3   OH237339   5.090   1.180   2.704 -0.2430  0.0127 -0.2112
 5235TIP3    H137340   5.017   1.119   2.689 -0.0985 -0.0713 -0.5706
 5235TIP3    H237341   5.165   1.123   2.720 -0.2059  0.0994 -0.0777
 5236TIP3   OH237342   6.255   5.842   1.111 -0.1832 -0.2494 -0.1366
 5236TIP3    H137343   6.293   5.866   1.195 -0.6496  1.3431 -0.3518
 5236TIP3    H237344   6.322   5.865   1.047 -0.5238  0.2305 -0.3264
 5237TIP3   OH237345   3.120   0.221   7.284 -0.2164 -0.2564 -0.2784
 5237TIP3    H137346   3.121   0.306   7.241 -0.7377  0.3565  0.8960
 5237TIP3    H237347   3.212   0.194   7.285 -0.0418  0.3026 -0.6330
 5238TIP3   OH237348   4.778   5.673   7.766 -0.2016  0.5076  0.1023
 5238TIP3    H137349   4.803   5.764   7.753  1.3868  0.0912  0.0406
 5238TIP3    H237350   4.834   5.643   7.837  0.2874 -0.7922 -0.8003
 5239TIP3   OH237351   4.529   6.231   0.758 -0.5011  0.0454 -0.0256
 5239TIP3    H137352   4.516   6.190   0.843 -1.0718 -0.0612 -0.1553
 5239TIP3    H237353   4.508   6.163   0.694  1.3168 -0.3060 -0.2780
 5240TIP3   OH237354   1.911   4.729   1.885  0.1596  0.1007 -0.3000
 5240TIP3    H137355   1.901   4.816   1.924  0.0801  0.9935 -2.1686
 5240TIP3    H237356   2.005   4.721   1.867  0.1068 -0.0014 -0.5371
 5241TIP3   OH237357   6.040   3.742   8.285 -0.1980  0.2764 -0.2021
 5241TIP3    H137358   6.037   3.790   8.203 -0.4052  0.7126  0.0579
 5241TIP3    H237359   6.025   3.651   8.260 -0.1979  0.3968 -0.6525
 5242TIP3   OH237360   1.211   3.894   2.258 -0.7194  0.2671  0.7148
 5242TIP3    H137361   1.222   3.883   2.352 -0.0759  1.1577  0.7664
 5242TIP3    H237362   1.146   3.964   2.250  0.3900  1.3222  0.5500
 5243TIP3   OH237363   3.801   6.568   1.906  0.0404 -0.2087 -0.4441
 5243TIP3    H137364   3.817   6.662   1.910  0.9402 -0.3850  0.5164
 5243TIP3    H237365   3.812   6.538   1.996 -2.4723 -0.9025 -0.2926
 5244TIP3   OH237366   1.196   0.257   7.993 -0.4621  0.2867  0.1066
 5244TIP3    H137367   1.164   0.171   7.968  1.8949  0.0102 -2.4056
 5244TIP3    H237368   1.120   0.300   8.035 -2.1336 -2.3844  0.0314
 5245TIP3   OH237369   6.857   4.047   7.812 -0.1658  0.3730 -0.6113
 5245TIP3    H137370   6.870   3.959   7.777  1.8344  0.2862  0.2134
 5245TIP3    H237371   6.770   4.043   7.854  0.2342 -1.4939  0.1685
 5246TIP3   OH237372   5.279   1.768   7.541 -0.1983 -0.3756  0.1239
 5246TIP3    H137373   5.286   1.751   7.447  3.5072  0.5645  0.0751
 5246TIP3    H237374   5.250   1.859   7.547  1.7551  0.3001 -0.2238
 5247TIP3   OH237375   0.914   5.775   1.862  0.1845 -0.2874  0.3120
 5247TIP3    H137376   0.999   5.805   1.829 -0.4625  0.2044 -0.9641
 5247TIP3    H237377   0.866   5.855   1.881 -0.1814 -0.5605  0.5532
 5248TIP3   OH237378   1.454   1.181   1.465 -0.1681  0.0224 -0.2194
 5248TIP3    H137379   1.446   1.127   1.544 -1.9411 -1.6284 -1.4283
 5248TIP3    H237380   1.384   1.246   1.474 -1.4090 -1.1465 -1.0953
 5249TIP3   OH237381   3.379   4.717   0.551 -0.3616  0.4875 -0.6557
 5249TIP3    H137382   3.398   4.758   0.635  0.8961 -0.3224 -0.5339
 5249TIP3    H237383   3.359   4.791   0.493  1.1098  1.2366 -0.2496
 5250TIP3   OH237384   3.327   4.972   1.877 -0.1326 -0.3977 -0.1799
 5250TIP3    H137385   3.380   4.938   1.950 -0.3395 -0.7400 -0.1864
 5250TIP3    H237386   3.252   5.014   1.919 -0.1348 -0.3948 -0.1863
 5251TIP3   OH237387   4.344   3.151   8.231 -1.0183 -0.0159  0.1787
 5251TIP3    H137388   4.397   3.100   8.170 -1.5418 -0.5530  0.1610
 5251TIP3    H237389   4.358   3.242   8.205  0.0023 -0.1355  0.2694
 5252TIP3   OH237390   2.739   2.749   7.978  0.2483  0.2468  0.4429
 5252TIP3    H137391   2.684   2.826   7.990  0.2209  0.4930 -1.0903
 5252TIP3    H237392   2.705   2.707   7.899  1.6311 -0.1334  0.0204
 5253TIP3   OH237393   1.692   4.514   2.124  0.3858  0.6205 -0.2952
 5253TIP3    H137394   1.730   4.460   2.194 -0.2436 -1.8390 -1.7164
 5253TIP3    H237395   1.626   4.458   2.083 -1.6851  3.1824 -0.7383
 5254TIP3   OH237396   2.533   2.047   0.471 -0.2635 -0.0756 -0.1824
 5254TIP3    H137397   2.531   2.143   0.474  2.1337  0.1616 -2.4927
 5254TIP3    H237398   2.574   2.022   0.554  0.0193  0.9382  0.0027
 5255TIP3   OH237399   4.007   5.252   0.825 -0.1706 -0.0016  0.0792
 5255TIP3    H137400   3.932   5.282   0.773  0.3551 -0.6247 -1.0712
 5255TIP3    H237401   4.080   5.251   0.763  0.6234 -0.1432  1.0001
 5256TIP3   OH237402   1.468   5.516   2.577  0.2293 -0.0658  0.2259
 5256TIP3    H137403   1.490   5.609   2.570 -0.4488  0.1207  0.5399
 5256TIP3    H237404   1.417   5.509   2.658  0.3173 -0.7237  0.2331
 5257TIP3   OH237405   6.822   6.391   7.437 -0.3671 -0.0166  0.2179
 5257TIP3    H137406   6.898   6.428   7.482 -1.0941 -0.9320  2.2966
 5257TIP3    H237407   6.857   6.312   7.394  0.2249  0.5880 -0.4441
 5258TIP3   OH237408   5.131   5.706   7.997  0.1665  0.1352 -0.3035
 5258TIP3    H137409   5.130   5.654   7.917 -0.8633 -0.3554  0.0021
 5258TIP3    H237410   5.208   5.676   8.045 -0.6447 -1.4697  0.0761
 5259TIP3   OH237411   4.458   5.307   2.374 -0.6768  0.4115 -0.1266
 5259TIP3    H137412   4.515   5.265   2.438 -0.2602  1.2606  0.0826
 5259TIP3    H237413   4.464   5.400   2.396 -1.0788  0.6374 -0.9663
 5260TIP3   OH237414   4.446   5.008   1.824  0.1004  0.5671  0.4652
 5260TIP3    H137415   4.375   4.951   1.796 -1.1163  1.9912  0.5020
 5260TIP3    H237416   4.516   4.949   1.850 -0.5535 -0.8632 -0.8798
 5261TIP3   OH237417   3.386   6.584   1.059  0.0485 -0.5526  0.4112
 5261TIP3    H137418   3.306   6.618   1.019 -0.6121  0.0061  2.1292
 5261TIP3    H237419   3.361   6.561   1.148  1.8117 -0.3200  1.0101
 5262TIP3   OH237420   3.070   1.600   1.317 -0.2846 -0.0984 -0.1699
 5262TIP3    H137421   3.162   1.618   1.298 -0.4290  2.6813  1.2705
 5262TIP3    H237422   3.070   1.569   1.408 -0.4884 -4.4112 -1.3832
 5263TIP3   OH237423   3.254   6.580   7.730  0.1312  0.1808  0.0999
 5263TIP3    H137424   3.210   6.574   7.815  1.8069  0.8546  1.0684
 5263TIP3    H237425   3.334   6.528   7.741 -0.4714 -1.2143 -1.6809
 5264TIP3   OH237426   5.450   0.938   7.709  0.7619  0.6550 -0.2783
 5264TIP3    H137427   5.525   0.960   7.655  0.4636  0.2698 -0.8666
 5264TIP3    H237428   5.378   0.928   7.647  0.5168 -0.2731  0.1312
 5265TIP3   OH237429   5.442   3.414   0.255  0.4432 -0.2655  0.4040
 5265TIP3    H137430   5.398   3.411   0.340 -0.1536  1.3423  0.2000
 5265TIP3    H237431   5.381   3.463   0.199  1.1922 -0.5879 -0.7162
 5266TIP3   OH237432   3.965   6.209   6.514  0.0571  0.3474 -0.2906
 5266TIP3    H137433   4.042   6.265   6.504 -1.1495  1.8879 -1.4580
 5266TIP3    H237434   3.965   6.155   6.435  0.7061 -0.6745  0.3932
 5267TIP3   OH237435   2.056   0.019   2.787  0.1154 -0.7977 -0.1359
 5267TIP3    H137436   2.149   0.007   2.807 -0.2772 -1.5623  1.3795
 5267TIP3    H237437   2.030  -0.062   2.743  0.3521 -0.2079 -1.4114
 5268TIP3   OH237438   5.244   4.986   1.447  0.1918  0.3256  0.6429
 5268TIP3    H137439   5.323   4.936   1.466 -0.3337 -0.5970  0.4375
 5268TIP3    H237440   5.274   5.056   1.388  0.8522  0.0025  0.5821
 5269TIP3   OH237441   5.683   4.947   7.706 -0.1767  0.1249 -0.5284
 5269TIP3    H137442   5.709   4.918   7.794 -0.6313 -1.4859 -0.8966
 5269TIP3    H237443   5.689   5.043   7.710  2.0041  0.0208  0.5756
 5270TIP3   OH237444   1.398   2.705   0.011  0.4315  0.4973  0.4298
 5270TIP3    H137445   1.435   2.681   0.096  1.6991  1.8519  0.2961
 5270TIP3    H237446   1.473   2.725  -0.044 -0.4061  0.4432 -0.7876
 5271TIP3   OH237447   1.609   0.150   2.668 -0.4180 -0.3324  0.0839
 5271TIP3    H137448   1.570   0.136   2.581  1.8966  0.0161 -1.0835
 5271TIP3    H237449   1.554   0.218   2.708 -0.6326  0.6321 -1.7466
 5272TIP3   OH237450   4.624   1.681   1.676  0.2528 -0.1095 -0.3458
 5272TIP3    H137451   4.635   1.697   1.582 -0.0679 -0.2085 -0.4013
 5272TIP3    H237452   4.533   1.707   1.694 -0.3192 -1.8795 -0.4553
 5273TIP3   OH237453   1.516   4.075   7.110  0.3099  0.0683  0.0908
 5273TIP3    H137454   1.478   4.082   7.197 -0.3875  0.0807 -0.2059
 5273TIP3    H237455   1.444   4.096   7.051  0.0349 -2.4177 -0.5929
 5274TIP3   OH237456   6.322   6.551   1.679 -0.2001 -0.3635 -0.1303
 5274TIP3    H137457   6.299   6.564   1.587  2.1547 -1.0431 -0.8882
 5274TIP3    H237458   6.295   6.461   1.698  0.0311 -0.5031 -0.4378
 5275TIP3   OH237459   3.999   0.916   8.107 -0.2066  0.1970  0.2031
 5275TIP3    H137460   3.919   0.865   8.112 -0.0706 -0.0570 -0.1374
 5275TIP3    H237461   3.991   0.982   8.176 -0.4657 -0.1694  0.5247
 5276TIP3   OH237462   3.042   3.947   6.393 -0.2326  0.1238 -0.4405
 5276TIP3    H137463   3.047   4.002   6.471  1.3362  0.5983 -0.8408
 5276TIP3    H237464   2.949   3.941   6.374 -0.6680 -0.1207  1.5369
 5277TIP3   OH237465   5.138   0.900   2.764  0.5265  0.2162  0.6602
 5277TIP3    H137466   5.069   0.944   2.714  1.8579  1.0767 -0.5200
 5277TIP3    H237467   5.091   0.845   2.827 -1.3761 -2.9512 -3.1034
 5278TIP3   OH237468   2.536   1.555   2.115  0.0588 -0.0441 -0.3131
 5278TIP3    H137469   2.499   1.624   2.061  0.7264 -0.0997 -0.8522
 5278TIP3    H237470   2.555   1.598   2.199  0.4391  0.4204 -0.6325
 5279TIP3   OH237471   6.265   2.081   0.426 -0.1391  0.0765  0.3862
 5279TIP3    H137472   6.220   2.161   0.453 -1.6640 -0.9097  0.8950
 5279TIP3    H237473   6.250   2.076   0.331 -1.5231 -0.4363  0.5973
 5280TIP3   OH237474   5.232   1.640   1.943 -0.2795  0.1851  0.1038
 5280TIP3    H137475   5.318   1.655   1.982  0.7037 -2.2911 -0.9451
 5280TIP3    H237476   5.223   1.710   1.878  0.2480  1.3597  1.2528
 5281TIP3   OH237477   4.027   2.294   0.985  0.4865  0.1967  0.3801
 5281TIP3    H137478   4.001   2.219   0.932 -0.1747  0.4324  0.3631
 5281TIP3    H237479   4.061   2.357   0.923 -4.4018  2.3652 -0.5337
 5282TIP3   OH237480   3.483   0.692   0.805  0.0155 -0.0753  0.1446
 5282TIP3    H137481   3.453   0.608   0.841 -0.7412 -0.3406 -1.0373
 5282TIP3    H237482   3.480   0.752   0.880 -0.7644 -0.7737  0.7016
 5283TIP3   OH237483   0.984   1.202   0.863 -0.2431  0.1100 -0.0633
 5283TIP3    H137484   0.995   1.201   0.958 -1.8599 -0.5044  0.1378
 5283TIP3    H237485   1.073   1.213   0.829  0.8384 -2.7829  1.4622
 5284TIP3   OH237486   4.517   3.839   7.209 -0.5046 -0.2501  0.0092
 5284TIP3    H137487   4.531   3.931   7.188 -1.2054  0.1512  1.2145
 5284TIP3    H237488   4.429   3.820   7.174 -0.7246 -0.2093  0.5310
 5285TIP3   OH237489   0.477   6.557   7.340 -0.1783 -0.0389 -0.3092
 5285TIP3    H137490   0.467   6.638   7.390  0.6333 -0.5869  0.7921
 5285TIP3    H237491   0.535   6.581   7.268  0.4589  0.2696  0.2870
 5286TIP3   OH237492   3.428   0.520   7.707  0.1711 -0.3032 -0.1224
 5286TIP3    H137493   3.469   0.606   7.715  0.1300 -0.3123  0.2026
 5286TIP3    H237494   3.369   0.529   7.632  3.7888 -1.5153 -3.4616
 5287TIP3   OH237495   3.013   2.006   0.171 -0.4914  0.0696 -0.5395
 5287TIP3    H137496   2.969   2.042   0.094  0.7769 -0.4733 -1.5501
 5287TIP3    H237497   2.957   1.932   0.197 -0.7886  0.0771 -1.1223
 5288TIP3   OH237498   1.102   5.112   2.797  0.5116 -0.2333  0.5435
 5288TIP3    H137499   1.019   5.102   2.751 -0.0243  0.4150  1.3472
 5288TIP3    H237500   1.093   5.193   2.846  2.3498  0.8816 -0.8269
 5289TIP3   OH237501   3.214   1.550   2.653 -0.0541 -0.0130  0.1135
 5289TIP3    H137502   3.203   1.456   2.667 -0.0623 -0.0595 -0.2097
 5289TIP3    H237503   3.308   1.561   2.636 -0.0502  0.0387  0.1687
 5290TIP3   OH237504   0.235   2.665   7.746 -0.1045  0.1517  0.1007
 5290TIP3    H137505   0.242   2.651   7.651  0.3961 -1.7058  0.3771
 5290TIP3    H237506   0.268   2.584   7.784  0.9958  1.3952  1.8997
 5291TIP3   OH237507   0.300   2.788   0.289  0.1018  0.3559  0.0762
 5291TIP3    H137508   0.245   2.834   0.225  0.5493 -1.2830 -1.5675
 5291TIP3    H237509   0.387   2.788   0.249 -0.0483 -2.6059 -0.4281
 5292TIP3   OH237510   2.545   1.823   0.949 -0.3504  0.0469  0.1212
 5292TIP3    H137511   2.636   1.797   0.931  0.3577  1.1879  1.7497
 5292TIP3    H237512   2.499   1.741   0.965  0.1646 -0.6151 -1.5568
 5293TIP3   OH237513   6.891   5.546   2.346  0.8569 -0.4285 -0.0751
 5293TIP3    H137514   6.918   5.523   2.435 -0.6839  1.0247  0.8232
 5293TIP3    H237515   6.859   5.464   2.309  0.5348 -0.8468  1.0959
 5294TIP3   OH237516   3.253   4.269   1.994 -0.2402 -0.2759  0.0584
 5294TIP3    H137517   3.269   4.184   1.955  1.5970  0.7180 -1.5298
 5294TIP3    H237518   3.209   4.319   1.926  1.1030  0.8445 -0.0225
 5295TIP3   OH237519   2.125   6.110   1.024  0.3721 -0.2451 -0.3019
 5295TIP3    H137520   2.192   6.095   1.090 -0.1771  1.5720  0.7173
 5295TIP3    H237521   2.165   6.171   0.962  0.9980 -2.1668 -1.9178
 5296TIP3   OH237522   2.511   4.516   1.522  0.1256  0.2044  0.3804
 5296TIP3    H137523   2.421   4.516   1.556  0.0573 -0.7211  0.2244
 5296TIP3    H237524   2.562   4.473   1.591  0.3708  0.3310  0.2765
 5297TIP3   OH237525   6.453   2.397   1.503  0.5249 -0.7226  0.1368
 5297TIP3    H137526   6.545   2.369   1.511  0.8155  0.2823  0.4882
 5297TIP3    H237527   6.448   2.436   1.416  0.1120 -1.8931 -0.3690
 5298TIP3   OH237528   1.084   0.103   0.556  0.2363 -0.7365  0.0838
 5298TIP3    H137529   1.011   0.090   0.617 -1.3794  2.7729 -0.8507
 5298TIP3    H237530   1.050   0.072   0.471  0.4620 -0.6724 -0.0305
 5299TIP3   OH237531   0.063   6.421   2.025 -0.1932 -0.3766  0.2592
 5299TIP3    H137532   0.091   6.362   1.955 -0.2371  0.3870 -0.4179
 5299TIP3    H237533   0.114   6.501   2.011  1.3031 -0.8588  2.3014
 5300TIP3   OH237534   2.020   0.801   7.174  0.4548 -0.0756 -0.0672
 5300TIP3    H137535   1.941   0.747   7.167  0.5160 -0.2088  0.2564
 5300TIP3    H237536   2.090   0.745   7.140  0.7917 -0.8087  1.7396
 5301TIP3   OH237537   5.520   2.849   2.474 -0.1922  0.3139 -0.1644
 5301TIP3    H137538   5.572   2.879   2.548  0.2062 -0.0684 -0.2859
 5301TIP3    H237539   5.503   2.757   2.491 -1.2448  0.5445  0.1058
 5302TIP3   OH237540   5.551   2.457   8.393  0.7382 -0.2491 -0.0406
 5302TIP3    H137541   5.639   2.492   8.390  1.5292 -2.1553 -0.8455
 5302TIP3    H237542   5.533   2.429   8.303 -0.5160 -0.2670  0.1926
 5303TIP3   OH237543   6.284   0.264   0.926 -0.1751  0.3765  0.2664
 5303TIP3    H137544   6.295   0.348   0.971 -1.3042 -0.7585  2.8975
 5303TIP3    H237545   6.252   0.204   0.994 -2.6247 -1.4000 -2.2219
 5304TIP3   OH237546   5.578   3.103   8.348 -0.0634  0.2226  0.3588
 5304TIP3    H137547   5.604   3.163   8.418 -0.8555 -0.9838  1.7549
 5304TIP3    H237548   5.482   3.103   8.351 -0.1007 -0.1982 -0.4429
 5305TIP3   OH237549   1.471   1.379   7.836  0.1359  0.3734  0.3048
 5305TIP3    H137550   1.495   1.450   7.895  0.3603  0.7990 -0.2903
 5305TIP3    H237551   1.549   1.323   7.832  0.3261  0.6611 -0.0429
 5306TIP3   OH237552   0.565   5.191   7.380  0.2803 -0.5140  0.3568
 5306TIP3    H137553   0.587   5.101   7.402 -2.4316 -1.2555  0.3821
 5306TIP3    H237554   0.494   5.214   7.440 -0.7217  0.7777 -1.2281
 5307TIP3   OH237555   5.467   2.894   0.746  0.4277  0.1373 -0.4884
 5307TIP3    H137556   5.428   2.857   0.825  3.0370 -1.4944  0.1487
 5307TIP3    H237557   5.473   2.820   0.686  0.4854  0.8728 -1.4044
 5308TIP3   OH237558   3.307   0.095   7.584  0.6766  0.5033  0.0592
 5308TIP3    H137559   3.378   0.122   7.642 -0.7548 -0.4609  2.3772
 5308TIP3    H237560   3.230   0.141   7.616 -0.3557 -0.7998 -0.4209
 5309TIP3   OH237561   2.739   1.245   1.315  0.3290  0.0291  0.1901
 5309TIP3    H137562   2.833   1.261   1.304  0.2498  0.2529 -0.1610
 5309TIP3    H237563   2.703   1.253   1.227 -0.4302  2.6171  0.6575
 5310TIP3   OH237564   2.000   4.683   0.739 -0.2681 -0.6730  0.4909
 5310TIP3    H137565   1.995   4.700   0.645  1.2952  3.9902  0.9419
 5310TIP3    H237566   2.094   4.670   0.756 -0.1313  1.2476  1.5646
 5311TIP3   OH237567   3.603   0.900   6.860 -0.6441  0.3002  0.6243
 5311TIP3    H137568   3.632   0.911   6.951 -1.8429  0.4513  1.0025
 5311TIP3    H237569   3.667   0.839   6.822  1.2324  2.0038  0.8757
 5312TIP3   OH237570   5.382   6.141   7.229  0.2375 -0.1023  0.2510
 5312TIP3    H137571   5.463   6.148   7.179 -0.3994 -0.3052 -0.8469
 5312TIP3    H237572   5.401   6.077   7.297  1.4235  0.9032  0.8969
 5313TIP3   OH237573   5.510   0.852   1.352  0.1846  0.0874  0.0366
 5313TIP3    H137574   5.483   0.912   1.421  1.6438  0.6294  0.1872
 5313TIP3    H237575   5.478   0.892   1.271 -2.0599 -0.8552  0.3886
 5314TIP3   OH237576   6.024   2.289   0.449 -0.2395  0.2815 -0.6631
 5314TIP3    H137577   6.031   2.379   0.418  2.9179 -0.1324 -1.4954
 5314TIP3    H237578   5.993   2.298   0.540 -1.9326  1.9926 -1.3168
 5315TIP3   OH237579   1.794   5.249   7.389 -0.2275 -0.0259 -0.1819
 5315TIP3    H137580   1.750   5.171   7.421  0.8041 -0.2590  0.7402
 5315TIP3    H237581   1.779   5.249   7.294 -1.3917 -0.5814 -0.0054
 5316TIP3   OH237582   6.888   1.225   1.501 -0.9553  0.1201  0.2834
 5316TIP3    H137583   6.857   1.267   1.581 -1.9744 -0.0141 -0.0240
 5316TIP3    H237584   6.815   1.170   1.473 -0.4467 -0.1788 -0.5017
 5317TIP3   OH237585   0.174   1.596   8.123  0.3203  0.1595 -0.0864
 5317TIP3    H137586   0.151   1.597   8.216  2.1819 -0.9225  0.4456
 5317TIP3    H237587   0.224   1.676   8.110  0.5185  0.0483 -0.0159
 5318TIP3   OH237588   2.621   0.790   6.389 -0.4690  0.5103 -0.3691
 5318TIP3    H137589   2.593   0.728   6.456  0.0641  0.0988 -0.5197
 5318TIP3    H237590   2.555   0.783   6.320 -0.1079 -0.3276 -0.6468
 5319TIP3   OH237591   6.540   5.242   1.471  0.1068  0.0511 -0.3561
 5319TIP3    H137592   6.562   5.152   1.498 -0.6149 -0.2882 -0.8653
 5319TIP3    H237593   6.569   5.247   1.380  1.6006  0.8609  0.1321
 5320TIP3   OH237594   5.948   1.518   0.495  0.1456 -0.0206  0.1779
 5320TIP3    H137595   5.863   1.538   0.454  0.5940  4.4338  0.9206
 5320TIP3    H237596   6.002   1.484   0.423 -1.7045 -1.3444 -0.6736
 5321TIP3   OH237597   5.908   0.694   2.145  0.5946  0.0168  0.1059
 5321TIP3    H137598   5.937   0.630   2.080  0.1732 -0.9957  0.8936
 5321TIP3    H237599   5.817   0.671   2.163  0.4797  0.7507  0.5091
 5322TIP3   OH237600   1.544   3.091   2.003  0.2578 -0.1458 -0.4303
 5322TIP3    H137601   1.521   3.178   2.032 -1.3537 -0.5962 -0.2916
 5322TIP3    H237602   1.521   3.089   1.910  0.6996 -0.2932 -0.5426
 5323TIP3   OH237603   2.976   6.966   2.644  0.3794 -0.0171 -0.3273
 5323TIP3    H137604   3.015   7.053   2.654  0.4569  0.2933 -2.7747
 5323TIP3    H237605   3.051   6.906   2.645  0.5605  0.1909 -1.0558
 5324TIP3   OH237606   0.695   4.316   2.233  0.7164 -0.3640 -0.2341
 5324TIP3    H137607   0.785   4.292   2.208  1.6804  1.5619  1.0798
 5324TIP3    H237608   0.663   4.240   2.281  2.3538 -0.4470  0.8203
 5325TIP3   OH237609   5.795   3.485   0.589  0.2019 -0.2061  0.0594
 5325TIP3    H137610   5.834   3.420   0.530  2.5545  1.4687 -0.3717
 5325TIP3    H237611   5.715   3.513   0.544  1.6756  0.6754 -2.1748
 5326TIP3   OH237612   1.281   3.898   2.545 -0.0631 -0.3105 -0.1965
 5326TIP3    H137613   1.363   3.851   2.557 -1.1361 -1.9423  1.4332
 5326TIP3    H237614   1.249   3.914   2.634 -1.9145 -0.4945 -0.7763
 5327TIP3   OH237615   0.644   1.383   0.161 -0.1837  0.9579  0.1803
 5327TIP3    H137616   0.681   1.340   0.239 -0.0300 -0.3199 -0.5601
 5327TIP3    H237617   0.552   1.358   0.162 -0.1540  0.8376 -0.1111
 5328TIP3   OH237618   4.053   0.356   1.516 -0.0612  0.1430  0.1149
 5328TIP3    H137619   4.010   0.430   1.558 -0.1697  0.8317 -1.1625
 5328TIP3    H237620   4.146   0.379   1.516  0.0831 -0.3917  0.9976
 5329TIP3   OH237621   0.923   2.620   7.771  0.7255 -0.4300  0.4007
 5329TIP3    H137622   0.874   2.697   7.743  1.6918  0.3671  0.8301
 5329TIP3    H237623   1.005   2.625   7.723  0.3764 -1.8221 -0.4102
 5330TIP3   OH237624   5.010   3.792   1.226  0.3248 -0.3582  0.4091
 5330TIP3    H137625   4.917   3.771   1.230 -0.0728  0.6174 -1.8932
 5330TIP3    H237626   5.050   3.715   1.186  0.4686 -0.6166  1.0345
 5331TIP3   OH237627   4.009   5.405   6.610  0.2310 -0.1447 -0.0153
 5331TIP3    H137628   3.988   5.352   6.533 -2.7176  1.1241 -0.2187
 5331TIP3    H237629   4.014   5.495   6.578 -1.6211  0.4831  1.2813
 5332TIP3   OH237630   3.560   5.915   1.717 -0.1720 -0.1445 -0.0484
 5332TIP3    H137631   3.631   5.872   1.669 -1.3217 -1.2777 -0.7929
 5332TIP3    H237632   3.573   5.889   1.808  0.8454  0.3713 -0.0251
 5333TIP3   OH237633   2.807   5.915   8.213  0.4850  0.0006  0.0002
 5333TIP3    H137634   2.754   5.843   8.178 -0.0589 -0.1440  1.0607
 5333TIP3    H237635   2.770   5.994   8.173 -0.9144 -0.0464  1.1186
 5334TIP3   OH237636   4.484   1.564   7.018  0.3978  0.1013 -0.3141
 5334TIP3    H137637   4.500   1.642   7.071  0.5416 -0.1741  0.0512
 5334TIP3    H237638   4.389   1.563   7.004  0.2618 -0.2442  0.5970
 5335TIP3   OH237639   3.940   2.156   2.031 -0.2308 -0.2520 -0.0793
 5335TIP3    H137640   3.940   2.149   1.936 -1.7925  1.4743 -0.2751
 5335TIP3    H237641   3.896   2.077   2.062 -0.5572 -0.3848 -0.8652
 5336TIP3   OH237642   2.033   0.580   0.930  0.8599 -0.5733 -0.2185
 5336TIP3    H137643   2.052   0.606   1.020 -0.5983  1.1509 -0.3582
 5336TIP3    H237644   1.938   0.570   0.928  0.7335  0.6195 -1.8341
 5337TIP3   OH237645   1.675   2.280   1.359 -0.0068 -0.1475 -0.1429
 5337TIP3    H137646   1.738   2.335   1.406 -0.3171  0.7690 -0.7904
 5337TIP3    H237647   1.620   2.244   1.428 -0.7245  1.5204  0.1992
 5338TIP3   OH237648   2.946   6.089   8.395 -0.5229 -0.1377  0.0876
 5338TIP3    H137649   2.891   6.053   8.325  0.6417  0.4210 -1.1707
 5338TIP3    H237650   2.915   6.179   8.405  0.4369  0.3447 -0.9881
 5339TIP3   OH237651   3.402   1.424   8.411  0.1707 -0.5379  0.1715
 5339TIP3    H137652   3.372   1.510   8.384  0.4855 -0.7872 -1.0444
 5339TIP3    H237653   3.401   1.426   8.507  0.1261  0.7867  0.1500
 5340TIP3   OH237654   2.423   2.691   2.268  0.7590 -0.5427  0.2329
 5340TIP3    H137655   2.496   2.703   2.328 -0.8405 -0.9992  2.4086
 5340TIP3    H237656   2.448   2.617   2.213  1.7300 -1.0005  1.2601
 5341TIP3   OH237657   4.972   6.698   7.900 -0.0343 -0.3194  0.0324
 5341TIP3    H137658   5.022   6.676   7.979  0.3587 -0.2068 -0.1813
 5341TIP3    H237659   5.037   6.697   7.829  0.4884  3.4087  0.2494
 5342TIP3   OH237660   0.071   1.066   2.338  0.3646  0.1283  0.3176
 5342TIP3    H137661   0.012   1.127   2.382  1.4270  0.7048  0.9784
 5342TIP3    H237662   0.077   1.099   2.248 -1.3427 -0.7102 -0.1489
 5343TIP3   OH237663   5.077   1.624   0.798  0.1877 -0.1175 -0.2770
 5343TIP3    H137664   5.125   1.627   0.715  2.5983 -2.4876  0.8726
 5343TIP3    H237665   5.128   1.677   0.858 -0.9808  0.7467 -0.0186
 5344TIP3   OH237666   4.404   6.421   0.577  0.4467  0.6162 -0.3480
 5344TIP3    H137667   4.336   6.480   0.608  0.7009  0.9588 -0.4351
 5344TIP3    H237668   4.426   6.367   0.654 -1.9956 -1.5734 -1.0338
 5345TIP3   OH237669   1.394   6.582   2.234 -0.2388 -0.0705  0.0212
 5345TIP3    H137670   1.447   6.623   2.166  0.0461  1.1114  0.9276
 5345TIP3    H237671   1.447   6.508   2.264  0.2872  0.2747 -0.0428
 5346TIP3   OH237672   5.858   0.485   7.466 -0.3847 -0.1095  0.0557
 5346TIP3    H137673   5.844   0.440   7.549  0.2310 -1.4107 -0.5218
 5346TIP3    H237674   5.770   0.510   7.438 -0.5607  0.8545  1.3382
 5347TIP3   OH237675   3.602   4.625   8.197  0.2890 -0.2776  0.0502
 5347TIP3    H137676   3.605   4.628   8.102  2.0293  0.4876  0.1078
 5347TIP3    H237677   3.576   4.713   8.224 -2.7003 -1.1128  0.2757
 5348TIP3   OH237678   5.241   3.046   2.138  0.0273  0.1830 -0.1177
 5348TIP3    H137679   5.230   3.108   2.210 -1.4524  0.4000 -0.4978
 5348TIP3    H237680   5.208   2.963   2.173  0.6878 -0.0742 -0.0798
 5349TIP3   OH237681   6.297   0.115   6.988  0.2073 -0.1025 -0.0927
 5349TIP3    H137682   6.203   0.132   6.980  0.6136  2.0883 -1.0398
 5349TIP3    H237683   6.323   0.086   6.901  0.6284  0.6580 -0.2276
 5350TIP3   OH237684   5.624   0.954   0.637 -0.0811  0.2423  0.3378
 5350TIP3    H137685   5.615   0.870   0.593  0.5146 -0.3490  1.3074
 5350TIP3    H237686   5.712   0.952   0.675 -0.8788  0.3246  2.3350
 5351TIP3   OH237687   1.880   6.176   8.358 -0.4378 -0.1070 -0.0757
 5351TIP3    H137688   1.944   6.244   8.337 -1.9727  0.9946 -1.3516
 5351TIP3    H237689   1.933   6.103   8.389  1.2343  1.9858  2.4830
 5352TIP3   OH237690   4.589   4.956   8.333  0.4262  0.7296  0.0680
 5352TIP3    H137691   4.559   4.990   8.248  1.5497  0.7566 -0.3428
 5352TIP3    H237692   4.588   4.861   8.322 -0.7993  0.6750  0.5295
 5353TIP3   OH237693   3.920   4.670   8.069  0.4761 -0.3383  0.3354
 5353TIP3    H137694   3.824   4.669   8.067  0.4611 -2.0348 -1.4638
 5353TIP3    H237695   3.944   4.761   8.051 -0.8268 -0.1731 -0.7007
 5354TIP3   OH237696   1.588   0.100   8.137 -0.1352  0.0444  0.4384
 5354TIP3    H137697   1.624   0.120   8.223  0.6375  1.1750 -0.1261
 5354TIP3    H237698   1.496   0.128   8.142 -0.6265 -1.5985  1.4500
 5355TIP3   OH237699   4.540   3.725   8.102 -0.0343 -0.2889  0.3136
 5355TIP3    H137700   4.500   3.812   8.100  1.1741  0.3036  0.3252
 5355TIP3    H237701   4.514   3.688   8.187  0.1675  0.4474  0.7061
 5356TIP3   OH237702   4.448   1.311   8.333 -0.0198  0.1500  0.0362
 5356TIP3    H137703   4.430   1.394   8.378  0.6258  0.5127 -0.3480
 5356TIP3    H237704   4.503   1.336   8.259 -0.8874 -0.4625 -0.8414
 5357TIP3   OH237705   6.074   6.909   0.062 -0.1862 -0.2150  0.0501
 5357TIP3    H137706   6.010   6.916   0.132 -1.6615 -0.5294 -1.1948
 5357TIP3    H237707   6.134   6.983   0.075  0.1271 -0.7810  2.1102
 5358TIP3   OH237708   0.922   1.838   1.651  0.2558  0.5890  0.1406
 5358TIP3    H137709   0.980   1.838   1.727  0.9604 -0.7570 -0.3606
 5358TIP3    H237710   0.932   1.926   1.614  2.5675  0.2011 -0.3331
 5359TIP3   OH237711   5.373   6.231   0.555 -0.2335  0.4068 -0.5376
 5359TIP3    H137712   5.317   6.263   0.484 -0.0383 -0.4878 -1.1103
 5359TIP3    H237713   5.345   6.140   0.569  0.8079  0.0644 -0.5795
 5360TIP3   OH237714   4.360   5.741   6.886 -0.1181 -0.3197 -0.0267
 5360TIP3    H137715   4.455   5.739   6.872 -0.3347 -1.7155 -1.6519
 5360TIP3    H237716   4.338   5.835   6.888  1.3804  0.0591  1.4106
 5361TIP3   OH237717   6.962   0.408   7.818 -0.0379  0.4126  0.2456
 5361TIP3    H137718   7.019   0.441   7.887 -0.0592  0.8371  0.0646
 5361TIP3    H237719   6.997   0.322   7.797  1.8948  1.5065 -1.3673
 5362TIP3   OH237720   5.138   0.178   2.136 -0.4328  0.6093  0.7370
 5362TIP3    H137721   5.180   0.101   2.099 -0.0204  0.9068  0.5894
 5362TIP3    H237722   5.132   0.159   2.230 -0.0712  0.5153  0.7430
 5363TIP3   OH237723   2.135   3.404   1.051  0.4280  0.7192  0.2364
 5363TIP3    H137724   2.164   3.409   0.960 -1.5483 -1.0821 -0.5755
 5363TIP3    H237725   2.113   3.494   1.074  0.2780  1.1151 -1.3297
 5364TIP3   OH237726   1.303   0.280   1.802  0.1382 -0.2309 -0.1766
 5364TIP3    H137727   1.347   0.196   1.804  1.0053  0.1657 -1.5168
 5364TIP3    H237728   1.346   0.329   1.733 -0.6823  1.1446  0.2305
 5365TIP3   OH237729   4.075   5.236   1.414 -0.4100  0.5961  0.2082
 5365TIP3    H137730   4.052   5.144   1.396  0.2397  0.5945 -0.6821
 5365TIP3    H237731   4.158   5.231   1.462 -0.5102  0.7160  0.3962
 5366TIP3   OH237732   5.938   0.436   2.016  0.0220 -0.2453  0.4808
 5366TIP3    H137733   5.845   0.445   2.035 -0.2506 -1.9746  0.1546
 5366TIP3    H237734   5.944   0.356   1.963  1.5249  0.6574 -0.7942
 5367TIP3   OH237735   5.774   6.438   1.590  0.4497  0.6428  0.5103
 5367TIP3    H137736   5.710   6.382   1.635  0.0951  0.5440 -0.1106
 5367TIP3    H237737   5.720   6.500   1.540  0.8441  0.9393  0.4495
 5368TIP3   OH237738   0.276   4.065   2.536 -0.4861 -0.6563  0.2148
 5368TIP3    H137739   0.186   4.096   2.549 -0.5468 -1.1115  0.9436
 5368TIP3    H237740   0.325   4.101   2.610  0.0988  0.1733 -0.5541
 5369TIP3   OH237741   0.921   0.588   7.880  0.3272  0.0121  0.3041
 5369TIP3    H137742   0.928   0.683   7.873 -0.0488  0.0318  0.1518
 5369TIP3    H237743   0.881   0.561   7.797 -0.9747 -0.1275  0.9648
 5370TIP3   OH237744   4.001   0.878   0.559 -0.3442 -0.3427  0.1886
 5370TIP3    H137745   3.953   0.796   0.542 -2.0125  0.0750  2.3581
 5370TIP3    H237746   3.948   0.923   0.625  1.4318  1.7081  0.3189
 5371TIP3   OH237747   6.428   3.515   0.572  0.0313 -0.4882 -0.6450
 5371TIP3    H137748   6.415   3.420   0.569  1.8110 -0.8312  0.8810
 5371TIP3    H237749   6.491   3.529   0.642  0.9018  1.7130 -1.7458
 5372TIP3   OH237750   3.123   2.466   0.323  0.5729  0.5527 -0.2049
 5372TIP3    H137751   3.200   2.496   0.372 -0.2282  2.3124  0.0765
 5372TIP3    H237752   3.110   2.376   0.352  1.5371  0.7723  1.0095
 5373TIP3   OH237753   4.234   0.027   0.008 -0.2400 -0.5864 -0.6486
 5373TIP3    H137754   4.308  -0.008   0.057 -0.4556 -0.1046  0.0395
 5373TIP3    H237755   4.188   0.083   0.070 -0.7770 -0.3108 -1.2752
 5374TIP3   OH237756   0.289   0.992   0.353  0.5543  0.4483 -0.3394
 5374TIP3    H137757   0.211   0.992   0.297 -0.6419  1.8656  1.2286
 5374TIP3    H237758   0.340   0.917   0.323 -0.5942  0.4575 -2.5096
 5375TIP3   OH237759   2.050   5.353   3.105  0.4029  0.3478  0.1431
 5375TIP3    H137760   2.112   5.310   3.164 -0.5508 -0.3458  0.6590
 5375TIP3    H237761   2.094   5.352   3.020  1.0562 -0.2435  0.4738
 5376TIP3   OH237762   0.887   6.402   1.813  0.6798 -0.4938  0.2630
 5376TIP3    H137763   0.916   6.341   1.745 -1.1401  0.9314 -1.9310
 5376TIP3    H237764   0.792   6.407   1.801  0.5580  1.3077  1.6466
 5377TIP3   OH237765   3.554   2.508   8.142 -0.0592  0.4732  0.6361
 5377TIP3    H137766   3.645   2.488   8.122  0.0410  1.9495 -0.5960
 5377TIP3    H237767   3.547   2.494   8.237  0.7194 -2.2084  0.3620
 5378TIP3   OH237768   0.774   5.640   2.452 -0.1822 -0.2954  0.3463
 5378TIP3    H137769   0.858   5.658   2.496 -0.7835  2.1877  0.5839
 5378TIP3    H237770   0.713   5.623   2.524 -0.1199 -1.0957  0.2168
 5379TIP3   OH237771   1.887   4.713   2.477 -0.0964 -0.4040 -0.2440
 5379TIP3    H137772   1.863   4.635   2.528 -0.2689 -0.5121 -0.4878
 5379TIP3    H237773   1.979   4.729   2.499  0.3072 -1.3973 -1.1035
 5380TIP3   OH237774   5.777   6.235   7.582 -0.1227 -0.2251 -0.3877
 5380TIP3    H137775   5.830   6.202   7.510 -1.8452 -0.5630 -1.5489
 5380TIP3    H237776   5.704   6.281   7.540 -2.4105 -2.3405  1.0122
 5381TIP3   OH237777   4.989   3.026   2.270  0.3304  0.2155  0.4342
 5381TIP3    H137778   5.012   2.938   2.298  0.1431  0.8632  2.8942
 5381TIP3    H237779   4.923   3.014   2.202 -0.3217 -1.5342  1.3179
 5382TIP3   OH237780   3.291   5.022   0.487 -0.0600 -0.6095  0.2390
 5382TIP3    H137781   3.274   5.113   0.507 -1.6657 -0.2212 -2.3787
 5382TIP3    H237782   3.211   4.975   0.511 -0.1891 -0.8775 -0.6388
 5383TIP3   OH237783   5.710   0.743   0.227  0.1380  0.2751 -0.0294
 5383TIP3    H137784   5.775   0.733   0.297  2.2497 -0.0632 -1.9366
 5383TIP3    H237785   5.688   0.836   0.227 -1.7352 -0.0497  2.5391
 5384TIP3   OH237786   0.302   4.038   2.083  0.1470 -0.1721  0.0831
 5384TIP3    H137787   0.325   3.966   2.025 -0.5338  0.3253 -0.8146
 5384TIP3    H237788   0.266   3.995   2.161 -1.0997 -0.7988 -0.8088
 5385TIP3   OH237789   2.793   0.538   7.045  0.9938  0.3983 -0.0695
 5385TIP3    H137790   2.738   0.607   7.007  0.8848  0.5391  0.3350
 5385TIP3    H237791   2.846   0.583   7.110  0.1709 -0.0575  0.9626
 5386TIP3   OH237792   0.680   0.165   8.005 -0.3046 -0.9381  0.0467
 5386TIP3    H137793   0.630   0.087   7.983 -0.0382 -1.2887  0.6610
 5386TIP3    H237794   0.759   0.159   7.950 -0.0689 -1.3366  0.4298
 5387TIP3   OH237795   5.113   4.237   0.583 -0.4386  0.4479 -0.1345
 5387TIP3    H137796   5.168   4.169   0.622 -0.2263  1.5068  1.5197
 5387TIP3    H237797   5.130   4.230   0.489  0.9888 -0.5716  0.1612
 5388TIP3   OH237798   6.229   0.669   1.718 -0.2776 -0.6043  0.5590
 5388TIP3    H137799   6.298   0.640   1.778 -1.0480 -0.8497  1.3412
 5388TIP3    H237800   6.174   0.726   1.772 -0.6354 -0.3337 -0.0893
 5389TIP3   OH237801   5.872   4.343   1.518 -0.1543 -0.4282  0.2990
 5389TIP3    H137802   5.842   4.311   1.433  0.5337 -2.0189  0.5994
 5389TIP3    H237803   5.810   4.411   1.542 -0.8431 -0.5254 -1.0941
 5390TIP3   OH237804   0.304   1.470   0.472  0.0868  0.1272 -0.2345
 5390TIP3    H137805   0.329   1.424   0.393  0.2668  0.6248 -0.4747
 5390TIP3    H237806   0.330   1.412   0.544 -2.1716 -1.3953 -0.5481
 5391TIP3   OH237807   1.119   4.559   8.292  0.5175  0.0720 -0.0041
 5391TIP3    H137808   1.155   4.606   8.367 -0.7983 -1.1730  1.4840
 5391TIP3    H237809   1.034   4.601   8.276 -0.4458 -1.4072  1.0260
 5392TIP3   OH237810   6.411   1.484   1.128  0.1348 -0.4852  0.5734
 5392TIP3    H137811   6.446   1.499   1.040  0.4169 -1.3380  0.5228
 5392TIP3    H237812   6.321   1.516   1.124  1.4043  3.8114  1.3297
 5393TIP3   OH237813   6.633   4.576   2.051 -0.0400  0.4093 -0.5884
 5393TIP3    H137814   6.564   4.606   2.110  0.3001 -0.2080  0.1455
 5393TIP3    H237815   6.714   4.587   2.102  0.1219 -1.5441 -0.3538
 5394TIP3   OH237816   0.097   6.581   6.979 -0.0446  0.3016 -0.6779
 5394TIP3    H137817   0.159   6.566   7.050  0.6185 -1.3361 -1.5503
 5394TIP3    H237818   0.046   6.500   6.974 -1.0428  0.9419 -1.1511
 5395TIP3   OH237819   1.798   6.472   0.051 -0.4794  0.2549 -0.1256
 5395TIP3    H137820   1.869   6.409   0.060  0.0224  0.6416 -1.1590
 5395TIP3    H237821   1.813   6.537   0.120 -0.4751 -0.2584  0.3579
 5396TIP3   OH237822   3.550   3.252   1.349  0.0579  0.1708  0.3729
 5396TIP3    H137823   3.536   3.344   1.368 -1.4508  0.0690 -0.1329
 5396TIP3    H237824   3.620   3.225   1.409 -0.6990  1.2080  1.7732
 5397TIP3   OH237825   6.848   2.882   0.754 -0.3120  0.2313 -1.1550
 5397TIP3    H137826   6.857   2.954   0.692  3.6990  0.7554 -0.2911
 5397TIP3    H237827   6.883   2.806   0.707  0.6453  0.1501 -0.3620
 5398TIP3   OH237828   6.053   3.623   7.858  0.0709 -0.8594  0.1168
 5398TIP3    H137829   5.994   3.590   7.926 -1.1023  1.3729  0.2391
 5398TIP3    H237830   6.002   3.687   7.810  1.8991 -0.0258 -0.8219
 5399TIP3   OH237831   2.015   6.366   0.170  0.2332 -0.2110 -0.2965
 5399TIP3    H137832   2.049   6.447   0.210 -0.4469  0.1236 -0.3851
 5399TIP3    H237833   2.054   6.296   0.222  0.6550  0.1788 -0.0751
 5400TIP3   OH237834   2.624   2.319   2.469 -0.3806  0.4330 -0.3738
 5400TIP3    H137835   2.616   2.322   2.564 -3.5975 -0.9066 -0.4890
 5400TIP3    H237836   2.609   2.227   2.447  1.1680  0.5546 -2.1750
 5401TIP3   OH237837   5.598   3.667   0.866  0.0465 -0.5882  0.1604
 5401TIP3    H137838   5.673   3.727   0.864 -1.8083  1.9049 -0.8744
 5401TIP3    H237839   5.556   3.684   0.950 -0.8675  0.1482 -0.4181
 5402TIP3   OH237840   2.024   5.313   3.442 -0.9057  0.7100 -0.1238
 5402TIP3    H137841   1.934   5.309   3.472 -1.0287  1.0602 -0.4349
 5402TIP3    H237842   2.029   5.246   3.373 -0.1906 -1.2629  1.7358
 5403TIP3   OH237843   0.916   3.003   7.262 -0.3040 -0.0048  0.1575
 5403TIP3    H137844   0.915   2.998   7.167 -2.6649  0.5610  0.0880
 5403TIP3    H237845   0.960   3.086   7.282  1.1379 -0.6144 -0.3569
 5404TIP3   OH237846   0.755   0.805   7.088 -0.0403  0.0615  0.6175
 5404TIP3    H137847   0.679   0.843   7.043 -0.4050  0.8030  1.8226
 5404TIP3    H237848   0.724   0.785   7.176  0.6195 -1.5395  0.5189
 5405TIP3   OH237849   6.772   0.869   6.908 -0.2680 -0.1169  0.1117
 5405TIP3    H137850   6.809   0.871   6.820  1.5343  0.1185  0.8378
 5405TIP3    H237851   6.715   0.792   6.909 -0.3338 -0.1013 -1.2552
 5406TIP3   OH237852   0.089   0.117   1.347 -0.3369 -0.2265 -0.1908
 5406TIP3    H137853   0.084   0.191   1.408  1.6774  1.2936 -1.6831
 5406TIP3    H237854   0.000   0.109   1.312 -1.9388 -2.0214  3.6649
 5407TIP3   OH237855   6.455   4.666   2.234  0.3739 -0.0745  0.5277
 5407TIP3    H137856   6.413   4.679   2.149  1.3580  0.6439  0.1401
 5407TIP3    H237857   6.389   4.694   2.297 -0.4800 -0.8917  0.0340
 5408TIP3   OH237858   2.752   3.941   7.518  0.1261 -0.2813 -0.5824
 5408TIP3    H137859   2.675   3.924   7.463  1.2020 -3.5586 -1.2642
 5408TIP3    H237860   2.823   3.894   7.475  2.2600  1.4986  0.7795
 5409TIP3   OH237861   4.118   5.406   1.039  0.5329 -0.0607 -0.0743
 5409TIP3    H137862   4.100   5.356   0.959  1.7438 -1.5235  0.5142
 5409TIP3    H237863   4.035   5.404   1.087  0.5646 -1.5893 -0.0443
 5410TIP3   OH237864   4.729   1.353   7.190 -0.1942  0.3346  0.3955
 5410TIP3    H137865   4.659   1.289   7.201  0.4301 -0.8284 -1.8151
 5410TIP3    H237866   4.690   1.436   7.218 -1.9265 -0.5367  0.7174
 5411TIP3   OH237867   5.126   5.343   8.311  0.0291 -0.6304  0.0515
 5411TIP3    H137868   5.059   5.372   8.249 -2.3564 -0.5229  2.4916
 5411TIP3    H237869   5.134   5.415   8.373  3.6096 -0.0048 -0.8817
 5412TIP3   OH237870   3.724   6.640   0.163  0.3135 -0.1111  0.2734
 5412TIP3    H137871   3.643   6.661   0.118 -0.0131  1.4520  1.5021
 5412TIP3    H237872   3.715   6.548   0.187 -2.0234  0.5072  2.1180
 5413TIP3   OH237873   0.287   6.625   0.198  0.4043  0.3416  0.6119
 5413TIP3    H137874   0.223   6.601   0.131  1.7739  0.3660 -0.7659
 5413TIP3    H237875   0.335   6.698   0.161  2.4621 -0.8493  0.7774
 5414TIP3   OH237876   0.793   0.664   0.405  0.1106  0.0201  0.8775
 5414TIP3    H137877   0.888   0.677   0.400  0.0486  0.3332  0.5424
 5414TIP3    H237878   0.775   0.662   0.499  0.5151 -0.5321  0.9553
 5415TIP3   OH237879   4.089   4.798   0.734 -0.0883 -0.5645 -0.8985
 5415TIP3    H137880   3.995   4.812   0.724 -0.2786 -1.9022 -1.2409
 5415TIP3    H237881   4.115   4.861   0.801 -1.3695 -0.6577 -0.2688
 5416TIP3   OH237882   2.962   3.572   0.338  0.7764  0.0238 -0.4719
 5416TIP3    H137883   2.952   3.510   0.265  0.5316 -0.3446 -0.1279
 5416TIP3    H237884   2.968   3.517   0.416 -2.2436  0.4531  0.1825
 5417TIP3   OH237885   3.006   0.673   0.815  0.7376  0.2827 -0.2098
 5417TIP3    H137886   2.923   0.633   0.844  0.1020  0.4187 -1.7055
 5417TIP3    H237887   3.051   0.602   0.770  0.6267  0.6561 -0.9206
 5418TIP3   OH237888   0.062   3.393   2.434  0.8419 -0.3253  0.2586
 5418TIP3    H137889  -0.032   3.373   2.433  0.7896 -0.2254  1.4296
 5418TIP3    H237890   0.076   3.438   2.517  1.7969  0.3588 -0.2446
 5419TIP3   OH237891   3.370   3.330   0.775 -0.1783 -0.3478  0.0098
 5419TIP3    H137892   3.338   3.259   0.720  0.4515 -2.2205  1.9219
 5419TIP3    H237893   3.290   3.366   0.816 -0.4708 -0.1009 -0.7582
 5420TIP3   OH237894   0.027   2.527   1.783  0.4262 -0.8422 -0.1644
 5420TIP3    H137895   0.025   2.550   1.876  0.7662  0.4830 -0.4572
 5420TIP3    H237896   0.113   2.557   1.753 -0.3869  0.4691 -1.2960
 5421TIP3   OH237897   5.007   2.140   0.428 -0.3633  0.4088 -0.7183
 5421TIP3    H137898   4.944   2.121   0.497  0.8418 -0.7271  0.1270
 5421TIP3    H237899   5.081   2.181   0.474  0.2108  0.1876 -1.4249
 5422TIP3   OH237900   2.840   1.058   0.791 -0.2698  0.2295  0.2099
 5422TIP3    H137901   2.772   1.022   0.848 -0.0102 -0.6714 -0.0320
 5422TIP3    H237902   2.856   0.989   0.727 -0.7861  1.3384 -1.1723
 5423TIP3   OH237903   4.518   5.368   1.555 -1.4245  0.1565  0.4096
 5423TIP3    H137904   4.464   5.402   1.626  0.0397 -0.1586  1.7265
 5423TIP3    H237905   4.602   5.413   1.565 -0.6805 -1.0493 -0.1478
 5424TIP3   OH237906   4.063   6.828   7.716 -0.1166 -0.3668  0.0370
 5424TIP3    H137907   3.998   6.758   7.712 -1.8592  1.1427  0.5893
 5424TIP3    H237908   4.103   6.819   7.803  0.1468 -1.0480 -0.1464
 5425TIP3   OH237909   5.194   6.227   7.934  0.1796 -0.5893 -0.0394
 5425TIP3    H137910   5.124   6.245   7.872  0.5139 -2.7597 -1.1595
 5425TIP3    H237911   5.274   6.258   7.891  0.2451 -0.7996 -0.0726
 5426TIP3   OH237912   4.823   3.534   8.367  0.4185  0.4705  0.5686
 5426TIP3    H137913   4.832   3.604   8.431 -0.5056 -0.7516  2.1301
 5426TIP3    H237914   4.800   3.457   8.420  0.3886 -0.7654 -1.1744
 5427TIP3   OH237915   3.935   0.776   1.725 -0.3672 -0.2444 -0.4408
 5427TIP3    H137916   3.897   0.864   1.716 -0.5620 -0.4042 -1.1875
 5427TIP3    H237917   3.924   0.756   1.818 -1.9998 -0.2180 -0.5858
 5428TIP3   OH237918   6.429   1.230   1.239  0.5250 -0.0860 -0.0721
 5428TIP3    H137919   6.352   1.286   1.236 -0.6438 -1.6388 -0.1621
 5428TIP3    H237920   6.500   1.288   1.267 -0.8251  1.1924  0.8330
 5429TIP3   OH237921   5.111   5.545   7.249  0.0276  0.4872  0.2480
 5429TIP3    H137922   5.169   5.470   7.257  1.0473  0.9365 -2.2123
 5429TIP3    H237923   5.166   5.620   7.272  0.2629  0.8385 -1.3430
 5430TIP3   OH237924   6.059   6.024   2.877  0.0543  0.2166  0.0592
 5430TIP3    H137925   6.016   6.095   2.925 -1.3325 -0.0248 -0.7832
 5430TIP3    H237926   6.133   6.067   2.834  0.4086  0.7387  1.1429
 5431TIP3   OH237927   6.092   0.913   7.797 -0.2534  0.4274  0.0658
 5431TIP3    H137928   6.067   1.000   7.765 -2.6281  0.1630  1.0352
 5431TIP3    H237929   6.177   0.927   7.839  0.0198  2.0019 -0.9285
 5432TIP3   OH237930   5.666   2.065   0.299  0.5235  0.4181  0.0983
 5432TIP3    H137931   5.662   1.972   0.322 -4.0113 -0.7114 -3.6245
 5432TIP3    H237932   5.705   2.066   0.212 -1.9912  1.4937 -1.1111
 5433TIP3   OH237933   5.320   4.581   7.611 -0.2808 -0.2270  0.2408
 5433TIP3    H137934   5.276   4.609   7.691 -1.3559 -1.3270  0.0606
 5433TIP3    H237935   5.274   4.627   7.540  0.6723  0.7514  0.2277
 5434TIP3   OH237936   3.169   6.001   1.430  0.8041  0.3292  0.3684
 5434TIP3    H137937   3.253   5.965   1.460 -0.0618 -0.2573  2.2259
 5434TIP3    H237938   3.179   6.095   1.441  1.1509  0.2505  0.7764
 5435TIP3   OH237939   6.184   5.601   1.173  0.6353  0.3876  0.0591
 5435TIP3    H137940   6.216   5.528   1.119 -0.1011 -1.2213  1.6874
 5435TIP3    H237941   6.227   5.678   1.136  0.6835 -0.6967 -2.3655
 5436TIP3   OH237942   0.014   0.591   8.220  0.1003  0.7217  0.1956
 5436TIP3    H137943   0.069   0.596   8.299 -2.5836  0.2180  2.2276
 5436TIP3    H237944  -0.065   0.640   8.243 -1.7644 -1.3948 -1.2870
 5437TIP3   OH237945   2.432   3.453   0.659  0.3757 -0.2240  0.1856
 5437TIP3    H137946   2.362   3.503   0.702  0.1126 -0.0358 -0.4558
 5437TIP3    H237947   2.403   3.362   0.663  1.1833 -0.4415  1.9921
 5438TIP3   OH237948   2.211   0.223   0.409 -0.0654 -0.2412  0.0170
 5438TIP3    H137949   2.273   0.231   0.482 -0.5269 -1.3960  0.5585
 5438TIP3    H237950   2.242   0.147   0.360 -1.1575 -0.9657  0.4229
 5439TIP3   OH237951   5.388   2.666   1.997 -0.0635  0.4742 -0.4298
 5439TIP3    H137952   5.340   2.739   1.959  0.4223  2.3958  2.3292
 5439TIP3    H237953   5.464   2.706   2.038  1.0937 -1.8189 -0.1880
 5440TIP3   OH237954   6.751   1.523   1.926  0.7950 -0.0468 -0.6300
 5440TIP3    H137955   6.677   1.463   1.934 -0.0971  0.7731 -2.2516
 5440TIP3    H237956   6.755   1.567   2.011  0.2943 -1.0750 -0.0540
 5441TIP3   OH237957   3.568   5.913   1.078 -0.0840 -0.0083 -0.4143
 5441TIP3    H137958   3.647   5.923   1.025  0.2603  1.3851  0.3001
 5441TIP3    H237959   3.600   5.904   1.167 -0.6784 -1.6913 -0.3500
 5442TIP3   OH237960   1.852   6.417   7.119 -0.1111 -0.4797  0.4948
 5442TIP3    H137961   1.945   6.395   7.112 -0.0033  0.1968 -0.3035
 5442TIP3    H237962   1.818   6.354   7.182  0.6878 -1.3370  0.0903
 5443TIP3   OH237963   5.602   2.271   0.659 -0.0297 -0.3092 -0.0549
 5443TIP3    H137964   5.638   2.346   0.612  1.4045 -0.7033  0.3599
 5443TIP3    H237965   5.531   2.308   0.712  1.5450  1.0662  1.2218
 5444TIP3   OH237966   5.589   0.162   1.434  0.5143  0.1572  0.4387
 5444TIP3    H137967   5.555   0.164   1.345  0.3510 -2.6343  0.3568
 5444TIP3    H237968   5.515   0.132   1.488  2.1599 -4.5805  0.4607
 5445TIP3   OH237969   4.977   0.365   8.015 -0.1356  0.5849  0.0046
 5445TIP3    H137970   4.912   0.403   7.956  1.0473 -0.0232 -1.7560
 5445TIP3    H237971   5.052   0.346   7.959 -0.5461 -4.2721  0.6568
 5446TIP3   OH237972   1.057   2.960   1.624  0.6399 -0.5383 -0.7138
 5446TIP3    H137973   1.101   3.043   1.644 -0.8553  0.0072  0.5791
 5446TIP3    H237974   1.121   2.910   1.573  2.6351  0.3066  0.8150
 5447TIP3   OH237975   5.611   0.077   7.260 -0.2528 -0.2715  0.3040
 5447TIP3    H137976   5.664   0.073   7.340 -1.1732  0.6244  0.9873
 5447TIP3    H237977   5.538   0.019   7.277 -1.1295  0.8984  0.6593
 5448TIP3   OH237978   4.545   3.189   1.120  0.3719 -0.2915 -0.2657
 5448TIP3    H137979   4.576   3.158   1.205  0.0236  0.2890  0.0777
 5448TIP3    H237980   4.454   3.214   1.135  0.9706  2.0967 -0.2020
 5449TIP3   OH237981   0.918   1.778   1.362 -0.1277  0.8785  0.0872
 5449TIP3    H137982   0.920   1.754   1.455 -0.1108  1.8703  0.3565
 5449TIP3    H237983   0.901   1.696   1.316 -1.3960  0.5745  1.0427
 5450TIP3   OH237984   3.862   0.634   7.813  0.1762  0.2081 -0.1975
 5450TIP3    H137985   3.784   0.681   7.784  0.7529  0.4243 -1.4982
 5450TIP3    H237986   3.905   0.694   7.874 -1.7180 -0.7627  2.2716
 5451TIP3   OH237987   0.226   6.224   7.372  0.0529 -1.0416  0.1825
 5451TIP3    H137988   0.230   6.158   7.303 -0.0858 -1.0159  0.1491
 5451TIP3    H237989   0.203   6.174   7.451 -1.9853 -0.7759 -0.2098
 5452TIP3   OH237990   5.771   6.548   7.563 -0.0496  0.1164  0.0409
 5452TIP3    H137991   5.694   6.493   7.550 -0.6427  0.6136  1.3144
 5452TIP3    H237992   5.839   6.487   7.591 -0.1815 -0.2198 -0.3534
 5453TIP3   OH237993   3.643   3.097   7.860 -0.1938  0.2274  0.0755
 5453TIP3    H137994   3.703   3.044   7.913  1.0102  1.9439  0.5033
 5453TIP3    H237995   3.602   3.157   7.922 -2.0885 -0.6178 -0.2854
 5454TIP3   OH237996   0.708   6.300   7.560 -0.6608 -0.4909  0.0750
 5454TIP3    H137997   0.615   6.305   7.539 -0.5248  0.2619 -0.3629
 5454TIP3    H237998   0.743   6.386   7.538  0.0196 -0.5572  0.8391
 5455TIP3   OH237999   1.353   5.962   8.376 -0.2156  0.0418  0.3330
 5455TIP3    H138000   1.273   5.920   8.345  0.7795 -1.1250 -0.8064
 5455TIP3    H238001   1.335   6.056   8.371 -0.6016 -0.1077 -2.6030
 5456TIP3   OH238002   1.264   4.175   2.440  0.1558 -0.5715 -0.3996
 5456TIP3    H138003   1.169   4.177   2.445  0.2109 -0.5292  2.6576
 5456TIP3    H238004   1.287   4.086   2.467  0.9938 -0.2925 -0.1562
 5457TIP3   OH238005   0.685   6.969   0.476 -0.5965 -0.4552  0.1909
 5457TIP3    H138006   0.608   6.912   0.470 -0.4870 -0.7251  1.2127
 5457TIP3    H238007   0.718   6.955   0.564  1.7814 -1.8326 -0.8281
 5458TIP3   OH238008   5.443   3.768   8.201 -0.2745 -1.1444  0.1608
 5458TIP3    H138009   5.475   3.831   8.266 -0.1285 -0.9977 -0.0512
 5458TIP3    H238010   5.349   3.784   8.196 -0.0647 -0.0182 -0.8582
 5459TIP3   OH238011   1.501   3.183   1.754 -0.0297 -0.1729  0.2027
 5459TIP3    H138012   1.416   3.153   1.785 -0.7547  0.8587 -0.7055
 5459TIP3    H238013   1.497   3.279   1.761 -0.7100  0.2858 -3.9407
 5460TIP3   OH238014   5.184   1.695   0.556  0.5165 -0.2269  0.3611
 5460TIP3    H138015   5.220   1.783   0.570 -0.1542  0.1146 -0.0217
 5460TIP3    H238016   5.200   1.677   0.463  0.1019 -0.2584  0.2952
 5461TIP3   OH238017   4.774   4.049   7.599 -0.5604 -0.0359 -0.1746
 5461TIP3    H138018   4.803   3.978   7.657 -0.0569 -0.3705 -0.8262
 5461TIP3    H238019   4.805   4.023   7.512 -1.5059  0.3569 -0.6320
 5462TIP3   OH238020   2.755   1.354   0.473 -0.4585  0.2999  0.1958
 5462TIP3    H138021   2.777   1.435   0.428 -0.0435  0.0222 -0.1069
 5462TIP3    H238022   2.839   1.317   0.499 -0.6871  0.3576  1.0293
 5463TIP3   OH238023   2.008   5.766   1.012  0.2444  0.1824  0.4609
 5463TIP3    H138024   2.072   5.756   0.941 -0.1624  1.5642 -0.1495
 5463TIP3    H238025   1.958   5.844   0.987 -0.1875  0.4485  2.0709
 5464TIP3   OH238026   4.320   4.559   1.219  0.2573 -0.4021 -0.0510
 5464TIP3    H138027   4.354   4.550   1.130  0.4454 -0.4182  0.0233
 5464TIP3    H238028   4.327   4.471   1.256 -0.1812 -0.4832 -0.1488
 5465TIP3   OH238029   4.274   6.343   0.326  0.8365  0.0141 -0.0940
 5465TIP3    H138030   4.323   6.399   0.386  1.1398 -0.3877  0.0335
 5465TIP3    H238031   4.303   6.254   0.346  0.4344 -0.1833 -0.3686
 5466TIP3   OH238032   3.697   5.668   0.139 -0.1122  0.1921  0.5146
 5466TIP3    H138033   3.694   5.581   0.179 -1.9889 -0.3174 -0.6034
 5466TIP3    H238034   3.741   5.655   0.055  0.6377  0.5545  0.8494
 5467TIP3   OH238035   6.249   6.708   7.819  0.2046 -0.3759  0.3100
 5467TIP3    H138036   6.242   6.697   7.724 -0.0727  0.8570  0.1778
 5467TIP3    H238037   6.334   6.670   7.841  0.7051  0.2131 -0.5714
 5468TIP3   OH238038   6.614   2.043   0.726 -0.1464  0.0134  0.0554
 5468TIP3    H138039   6.546   2.073   0.787  1.1676  1.1343  1.0395
 5468TIP3    H238040   6.595   2.090   0.645 -1.2737 -0.6578 -0.0930
 5469TIP3   OH238041   1.887   1.402   1.990  0.4271  0.0596  0.3840
 5469TIP3    H138042   1.831   1.470   2.028  0.0499  0.2131 -0.4223
 5469TIP3    H238043   1.859   1.397   1.899  1.7313  0.1365 -0.0398
 5470TIP3   OH238044   3.444   2.952   1.247 -0.5904 -0.6581  0.7570
 5470TIP3    H138045   3.380   2.882   1.235 -2.2582  0.8794  0.2340
 5470TIP3    H238046   3.397   3.021   1.294  0.5204  0.7151 -0.0315
 5471TIP3   OH238047   4.320   4.879   7.884  0.0933  0.8594  0.1826
 5471TIP3    H138048   4.361   4.820   7.946 -0.5889 -0.2465 -0.3805
 5471TIP3    H238049   4.265   4.823   7.830 -0.2481  1.9546 -0.6571
 5472TIP3   OH238050   2.658   6.898   1.628  0.2291 -0.5255  0.2204
 5472TIP3    H138051   2.746   6.905   1.592 -0.2343 -0.0074 -0.8276
 5472TIP3    H238052   2.610   6.844   1.566 -0.2362 -0.7202  0.7349
 5473TIP3   OH238053   3.319   0.330   8.057 -0.0283 -0.1152  0.8301
 5473TIP3    H138054   3.276   0.245   8.066 -0.6779  0.2411  1.1829
 5473TIP3    H238055   3.330   0.342   7.963  0.2718 -0.6875  0.7887
 5474TIP3   OH238056   0.785   2.452   0.838 -0.5292 -0.1838  0.0307
 5474TIP3    H138057   0.822   2.498   0.763 -0.2593  1.0645  0.9018
 5474TIP3    H238058   0.703   2.498   0.857  0.4021  0.8512  1.7390
 5475TIP3   OH238059   4.475   2.213   7.799  0.4003  0.6212 -0.0933
 5475TIP3    H138060   4.444   2.209   7.708  0.3239 -0.7243 -0.0280
 5475TIP3    H238061   4.397   2.198   7.852  0.6775 -0.0041  0.1478
 5476TIP3   OH238062   4.175   1.818   7.661 -0.3324 -0.0992 -0.3942
 5476TIP3    H138063   4.149   1.805   7.752  0.1457 -0.7999 -0.3494
 5476TIP3    H238064   4.132   1.748   7.613  1.0844 -1.0319 -0.3779
 5477TIP3   OH238065   3.747   4.398   2.113  0.1841  0.3291 -0.5616
 5477TIP3    H138066   3.683   4.330   2.091 -0.0837  0.4912 -0.2827
 5477TIP3    H238067   3.775   4.431   2.028 -0.1685  0.3167 -0.6873
 5478TIP3   OH238068   4.109   4.216   2.659  0.0979 -0.3975  0.3691
 5478TIP3    H138069   4.027   4.259   2.633  0.4434  0.8068  1.1918
 5478TIP3    H238070   4.084   4.127   2.682 -0.7878 -0.3900 -0.5144
 5479TIP3   OH238071   0.040   1.496   7.280  0.5048 -0.2222 -0.6670
 5479TIP3    H138072   0.113   1.532   7.229  0.6016 -0.1154 -0.4531
 5479TIP3    H238073  -0.036   1.507   7.223  0.2574  1.6941 -0.0376
 5480TIP3   OH238074   1.805   0.627   7.249 -0.2834  0.6124 -0.3550
 5480TIP3    H138075   1.782   0.582   7.167  0.9129 -1.3858  0.3398
 5480TIP3    H238076   1.773   0.569   7.318 -1.8907  2.6071  0.6532
 5481TIP3   OH238077   5.322   0.261   2.677  0.1022 -0.6440 -0.5785
 5481TIP3    H138078   5.406   0.273   2.721  0.2737  0.8494 -1.2662
 5481TIP3    H238079   5.330   0.311   2.596 -1.5148 -0.3252 -0.5723
 5482TIP3   OH238080   4.731   6.166   6.756 -0.7524 -0.0761 -0.0759
 5482TIP3    H138081   4.770   6.249   6.783  0.0038 -0.7890  1.0822
 5482TIP3    H238082   4.801   6.120   6.710 -0.6562 -0.7385  0.7107
 5483TIP3   OH238083   3.955   2.026   7.662  0.1562  0.5084 -0.1792
 5483TIP3    H138084   3.963   1.933   7.686 -3.4389  0.5105  1.8294
 5483TIP3    H238085   3.989   2.031   7.573  2.0229 -2.3598  0.2396
 5484TIP3   OH238086   1.259   1.671   7.999 -0.2389  0.0339  0.1676
 5484TIP3    H138087   1.184   1.713   8.042 -1.1548 -1.8146  0.4761
 5484TIP3    H238088   1.304   1.625   8.069  0.3900  0.0004 -0.2555
 5485TIP3   OH238089   4.180   2.087   1.125  0.0157 -0.6324 -0.3992
 5485TIP3    H138090   4.122   2.159   1.150 -0.6216 -0.7655 -1.4168
 5485TIP3    H238091   4.264   2.130   1.105  0.0423 -0.3434  0.2806
 5486TIP3   OH238092   0.942   0.208   1.896 -0.6275  0.2702  0.3708
 5486TIP3    H138093   0.859   0.255   1.903  0.5339  2.5890 -0.1854
 5486TIP3    H238094   0.987   0.251   1.822  1.8852  0.5354  1.9342
 5487TIP3   OH238095   6.077   1.268   7.039 -0.7286 -0.1927  0.5774
 5487TIP3    H138096   6.172   1.266   7.027 -0.3445 -2.7999  2.9165
 5487TIP3    H238097   6.043   1.213   6.969 -0.4783  0.2239  0.1197
 5488TIP3   OH238098   6.016   6.351   1.024 -0.1013 -0.7450  0.1148
 5488TIP3    H138099   5.979   6.266   1.050 -1.2079  0.2114  1.8359
 5488TIP3    H238100   5.947   6.414   1.045  1.2468  0.7341  0.2226
 5489TIP3   OH238101   1.627   3.960   1.457  0.4314  0.3094 -0.4603
 5489TIP3    H138102   1.588   3.888   1.409  1.6190 -0.5736 -0.1599
 5489TIP3    H238103   1.641   3.925   1.545  1.8179  0.5746 -0.5396
 5490TIP3   OH238104   5.368   3.563   1.678 -0.7361  0.0392  0.3758
 5490TIP3    H138105   5.391   3.652   1.706 -0.6053  0.2180 -0.2723
 5490TIP3    H238106   5.424   3.547   1.602 -0.5814 -0.6966  0.6441
 5491TIP3   OH238107   0.633   4.119   8.235 -0.0483 -0.2339  0.3114
 5491TIP3    H138108   0.584   4.187   8.189 -1.5566 -0.0265  2.0904
 5491TIP3    H238109   0.706   4.165   8.275  1.0525 -0.3503 -1.4468
 5492TIP3   OH238110   0.985   6.518   2.871  0.0451 -0.3252  0.2639
 5492TIP3    H138111   0.965   6.553   2.958 -0.2004  2.2752 -0.7487
 5492TIP3    H238112   1.070   6.557   2.849 -0.2765 -0.2780 -0.9763
 5493TIP3   OH238113   1.427   0.081   2.137 -0.2086  0.0058 -0.6697
 5493TIP3    H138114   1.447   0.071   2.044 -1.0629 -2.8785 -0.6346
 5493TIP3    H238115   1.486   0.020   2.181 -0.7443  0.3412  0.5458
 5494TIP3   OH238116   2.641   3.525   0.493 -0.4737 -0.0859  0.9251
 5494TIP3    H138117   2.677   3.607   0.528 -0.8580  0.6436 -0.3366
 5494TIP3    H238118   2.557   3.515   0.539 -1.3430  1.2791 -0.2572
 5495TIP3   OH238119   5.759   0.865   8.007 -0.3228 -0.2994  0.1135
 5495TIP3    H138120   5.814   0.793   8.039  0.5234  0.4463  0.3808
 5495TIP3    H238121   5.686   0.821   7.964 -0.9579 -1.3383  2.1371
 5496TIP3   OH238122   3.807   1.996   0.081  0.2982  0.1856 -0.5013
 5496TIP3    H138123   3.763   1.973   0.163 -1.1350 -1.5276 -1.6754
 5496TIP3    H238124   3.897   1.964   0.093 -0.3069 -1.4814 -0.1271
 5497TIP3   OH238125   0.301   3.059   7.514  0.4374 -0.3278  0.0605
 5497TIP3    H138126   0.262   3.089   7.431 -0.8206  2.2733  1.4634
 5497TIP3    H238127   0.242   2.991   7.545  0.1423 -0.3394 -0.5059
 5498TIP3   OH238128   5.027   3.388   0.691 -0.5558  0.8514  0.0397
 5498TIP3    H138129   5.109   3.391   0.740 -0.6865 -0.3389  0.3623
 5498TIP3    H238130   5.034   3.459   0.628  0.4053  1.2317  0.5543
 5499TIP3   OH238131   3.161   0.442   2.141 -0.1731 -0.1687 -0.3291
 5499TIP3    H138132   3.206   0.507   2.194  0.2556 -0.7238 -0.0056
 5499TIP3    H238133   3.231   0.386   2.107 -0.3081  0.8837 -2.4730
 5500TIP3   OH238134   2.599   6.746   0.629 -0.1294  0.0909  0.2419
 5500TIP3    H138135   2.645   6.663   0.621 -1.9974 -0.8237 -1.8915
 5500TIP3    H238136   2.577   6.771   0.539 -0.3058  2.5256  0.8800
 5501TIP3   OH238137   0.307   2.408   7.766  0.0694  0.0697  0.6597
 5501TIP3    H138138   0.297   2.331   7.822 -1.2136  0.9553  1.6911
 5501TIP3    H238139   0.310   2.372   7.677  1.1050 -1.2775  1.1842
 5502TIP3   OH238140   4.239   4.927   2.117 -0.7850 -0.7827 -0.2858
 5502TIP3    H138141   4.330   4.955   2.128 -1.1127  0.4776 -0.6385
 5502TIP3    H238142   4.228   4.856   2.180  0.2823 -0.5714  0.1607
 5503TIP3   OH238143   6.424   5.708   1.677 -0.2446  0.5615 -0.3286
 5503TIP3    H138144   6.417   5.646   1.750 -1.4503 -1.0465 -1.7459
 5503TIP3    H238145   6.498   5.677   1.626 -0.4041  0.7209 -0.6576
 5504TIP3   OH238146   2.729   1.321   2.625 -0.0759  0.1471  0.3133
 5504TIP3    H138147   2.802   1.384   2.625 -0.4286  0.6189 -1.6574
 5504TIP3    H238148   2.653   1.373   2.600 -0.7395 -0.7083  0.5374
 5505TIP3   OH238149   3.463   4.481   1.543  0.2685 -0.1728 -0.2421
 5505TIP3    H138150   3.450   4.483   1.448  0.1074  0.7057 -0.2102
 5505TIP3    H238151   3.444   4.571   1.572  0.9676 -0.2652  0.5351
 5506TIP3   OH238152   3.934   5.695   0.904  0.4671  0.1003  0.2414
 5506TIP3    H138153   4.023   5.662   0.888 -0.0460 -1.7125  0.8035
 5506TIP3    H238154   3.880   5.646   0.842 -0.3464 -0.1598  1.1369
 5507TIP3   OH238155   2.302   0.342   2.006 -0.2611 -0.3478  0.2645
 5507TIP3    H138156   2.211   0.332   1.978 -0.6461 -0.4763  1.5125
 5507TIP3    H238157   2.297   0.355   2.101  1.1534 -2.3758  0.6664
 5508TIP3   OH238158   0.912   2.543   0.605 -0.1890 -0.3187  0.2229
 5508TIP3    H138159   0.932   2.625   0.560  0.1081  0.0565  1.0128
 5508TIP3    H238160   0.997   2.505   0.627 -0.3266 -0.5011  0.4555
 5509TIP3   OH238161   0.887   3.508   8.154 -0.1040  0.1129 -0.6599
 5509TIP3    H138162   0.793   3.504   8.133 -0.1279 -0.5387 -0.4744
 5509TIP3    H238163   0.897   3.448   8.228  0.2650  1.1090  0.1125
 5510TIP3   OH238164   6.565   4.018   7.891  0.2842  0.1081 -0.1619
 5510TIP3    H138165   6.553   3.932   7.930 -1.5727 -0.1560 -1.1872
 5510TIP3    H238166   6.521   4.078   7.953  0.5092  0.1705 -0.0605
 5511TIP3   OH238167   1.290   6.486   1.089  0.2501  0.3952  0.0229
 5511TIP3    H138168   1.247   6.505   1.172  0.7422  0.0740  0.3543
 5511TIP3    H238169   1.222   6.446   1.035 -0.1535  0.8801  0.1588
 5512TIP3   OH238170   4.297   1.133   0.334 -0.0622 -0.1636 -0.6078
 5512TIP3    H138171   4.219   1.134   0.389  0.9708 -1.6666  0.9986
 5512TIP3    H238172   4.356   1.196   0.375 -0.3057  0.8217 -1.7035
 5513TIP3   OH238173   5.853   2.478   7.351  0.0519  0.4197  0.0001
 5513TIP3    H138174   5.776   2.494   7.405 -0.7224 -0.3844 -0.8286
 5513TIP3    H238175   5.907   2.556   7.362 -0.6226  0.7583  1.0257
 5514TIP3   OH238176   5.494   1.302   2.081  0.3333  0.0040  0.3610
 5514TIP3    H138177   5.437   1.374   2.108  1.1624  0.4619  0.9479
 5514TIP3    H238178   5.471   1.286   1.990  0.5859  1.4832  0.0021
 5515TIP3   OH238179   6.434   2.127   0.910  0.1642  0.2273  0.3015
 5515TIP3    H138180   6.373   2.192   0.877  0.2370 -1.3097 -3.3544
 5515TIP3    H238181   6.384   2.078   0.975 -1.5016  0.8813 -0.4212
 5516TIP3   OH238182   3.153   6.552   7.286 -0.7512  0.1585  0.4000
 5516TIP3    H138183   3.101   6.572   7.209  1.0829 -1.1737 -1.2834
 5516TIP3    H238184   3.243   6.574   7.261 -0.0757 -0.5139  2.0851
 5517TIP3   OH238185   6.883   4.594   2.184 -0.1354  0.3988 -0.5056
 5517TIP3    H138186   6.933   4.653   2.241  2.3271 -3.3225  1.6924
 5517TIP3    H238187   6.918   4.610   2.097  1.8158  0.9898  0.3094
 5518TIP3   OH238188   2.320   1.317   8.384  0.1137 -0.1322 -0.0660
 5518TIP3    H138189   2.385   1.386   8.371 -1.9076  1.7250 -0.8217
 5518TIP3    H238190   2.356   1.241   8.338  1.2336  1.1441 -1.3835
 5519TIP3   OH238191   6.723   1.217   2.072 -0.1080 -0.3013  0.0023
 5519TIP3    H138192   6.654   1.221   2.006  0.9643  0.1150 -1.1324
 5519TIP3    H238193   6.774   1.139   2.048 -1.1303 -1.6107  1.8383
 5520TIP3   OH238194   1.447   6.951   7.881  0.0685 -0.2769 -0.3388
 5520TIP3    H138195   1.356   6.980   7.888 -0.0603 -0.8277  0.4118
 5520TIP3    H238196   1.488   7.014   7.821 -0.8747 -0.2098 -0.9355
 5521TIP3   OH238197   1.709   3.168   2.234  0.8519  0.8306  0.3435
 5521TIP3    H138198   1.700   3.259   2.261  3.3838  0.7174  2.0155
 5521TIP3    H238199   1.756   3.171   2.151 -0.0041  1.0407 -0.1420
 5522TIP3   OH238200   2.688   0.746   6.882 -0.0280  0.0969 -0.4006
 5522TIP3    H138201   2.707   0.816   6.944 -0.0424  0.6833 -1.0462
 5522TIP3    H238202   2.618   0.781   6.827 -0.8002 -0.8495 -0.0377
 5523TIP3   OH238203   4.798   5.465   8.400 -0.8598 -0.1520 -1.0407
 5523TIP3    H138204   4.719   5.453   8.453  0.2227 -1.1550  0.4346
 5523TIP3    H238205   4.815   5.378   8.364 -1.0669  0.3276 -2.3508
 5524TIP3   OH238206   1.289   3.635   7.228  0.0609  0.1373  0.4709
 5524TIP3    H138207   1.319   3.602   7.313 -0.1519  0.9552  0.8710
 5524TIP3    H238208   1.199   3.665   7.244 -0.1880 -0.2309 -0.1873
 5525TIP3   OH238209   4.448   0.317   2.092  0.1364 -0.6480  0.1834
 5525TIP3    H138210   4.386   0.272   2.035  0.0606 -1.1481  0.6507
 5525TIP3    H238211   4.453   0.406   2.057  0.1143 -0.9576 -0.6146
 5526TIP3   OH238212   5.878   1.812   8.140 -0.1686  0.0724 -0.4307
 5526TIP3    H138213   5.811   1.770   8.193 -0.7558  1.3702 -0.1061
 5526TIP3    H238214   5.956   1.758   8.153 -0.7467 -0.5901  0.3898
 5527TIP3   OH238215   0.429   1.983   7.338 -0.6134 -1.0824  0.3956
 5527TIP3    H138216   0.448   1.895   7.307 -0.7317 -0.7923 -0.5380
 5527TIP3    H238217   0.446   2.040   7.263 -0.9250 -0.3496  0.8591
 5528TIP3   OH238218   5.726   2.815   7.089  0.0349 -0.0198  0.1461
 5528TIP3    H138219   5.718   2.876   7.162 -3.6463 -0.7433  0.5661
 5528TIP3    H238220   5.730   2.871   7.012  0.7851  0.7468  0.7277
 5529TIP3   OH238221   3.683   6.231   2.247  0.3007  0.0538 -0.1289
 5529TIP3    H138222   3.678   6.189   2.333  2.2252 -0.5351 -0.2448
 5529TIP3    H238223   3.777   6.234   2.228  0.0604  2.1170 -1.2747
 5530TIP3   OH238224   3.593   1.377   2.443 -0.1578  0.4622  0.0042
 5530TIP3    H138225   3.511   1.327   2.443 -0.2322  0.5382 -1.8288
 5530TIP3    H238226   3.577   1.448   2.506 -1.7338  0.7989 -0.7206
 5531TIP3   OH238227   1.900   5.999   0.875 -0.4610  0.1612 -0.3818
 5531TIP3    H138228   1.872   5.979   0.786 -0.8250  0.4398 -0.3317
 5531TIP3    H238229   1.993   6.021   0.866  0.2154 -2.4110 -0.3026
 5532TIP3   OH238230   4.658   6.305   7.042 -0.0616  0.6157  0.0081
 5532TIP3    H138231   4.749   6.279   7.028 -0.0100  0.8941 -0.1696
 5532TIP3    H238232   4.663   6.382   7.098 -0.1819  0.7098 -0.1109
 5533TIP3   OH238233   3.172   5.379   0.190 -0.0211  0.5453  0.2089
 5533TIP3    H138234   3.127   5.340   0.265 -1.1420  0.5332 -0.4471
 5533TIP3    H238235   3.132   5.337   0.114 -1.2936  2.9092 -0.5392
 5534TIP3   OH238236   0.296   0.612   1.923  0.1164  0.0539 -0.0741
 5534TIP3    H138237   0.380   0.605   1.878 -0.0468 -1.8615 -0.1669
 5534TIP3    H238238   0.276   0.523   1.951 -1.9140  0.4458 -0.1061
 5535TIP3   OH238239   2.733   4.517   1.273 -0.7320 -0.8419 -0.2916
 5535TIP3    H138240   2.696   4.595   1.314  0.5402  1.0149 -2.4802
 5535TIP3    H238241   2.659   4.476   1.228 -1.6066 -1.5350  1.6435
 5536TIP3   OH238242   2.956   2.482   7.516 -0.1089  0.6504 -0.1105
 5536TIP3    H138243   2.983   2.400   7.475  0.3333 -0.5879  2.4132
 5536TIP3    H238244   2.861   2.485   7.503 -0.1300 -0.2861 -0.2292
 5537TIP3   OH238245   3.067   3.337   8.088  0.0087  0.1694  0.2371
 5537TIP3    H138246   3.058   3.340   7.993 -0.6357 -2.0929  0.1772
 5537TIP3    H238247   3.138   3.399   8.107  1.1743 -0.4020 -1.8765
 5538TIP3   OH238248   1.131   4.494   0.681 -0.0284 -0.1515  0.2278
 5538TIP3    H138249   1.087   4.489   0.596 -0.4991 -1.3003  0.5225
 5538TIP3    H238250   1.137   4.588   0.699 -2.1594  0.0670  0.0584
 5539TIP3   OH238251   3.006   1.323   7.570  0.1223  0.3034 -0.6884
 5539TIP3    H138252   3.074   1.357   7.627 -1.3696 -1.5466  2.4690
 5539TIP3    H238253   2.960   1.401   7.537  0.6871  1.4790  1.1638
 5540TIP3   OH238254   3.271   3.902   2.331 -0.5923  0.1396  0.9037
 5540TIP3    H138255   3.210   3.966   2.295  0.4822  0.2812 -0.7418
 5540TIP3    H238256   3.227   3.818   2.320 -1.5816  0.4668  2.1530
 5541TIP3   OH238257   6.864   3.302   2.019 -0.7067  0.1760 -0.0129
 5541TIP3    H138258   6.954   3.280   2.043 -0.4580  0.4358 -0.6870
 5541TIP3    H238259   6.843   3.243   1.946 -0.9342  0.4079 -0.1382
 5542TIP3   OH238260   0.783   3.802   1.463  0.5263  0.2274  0.5102
 5542TIP3    H138261   0.823   3.862   1.526 -0.6240  1.4943  0.0771
 5542TIP3    H238262   0.712   3.760   1.512  0.9071 -0.3182  0.6152
 5543TIP3   OH238263   3.541   5.811   7.860  0.7927  0.0844  0.1727
 5543TIP3    H138264   3.543   5.880   7.927  0.7477 -0.7090  1.0172
 5543TIP3    H238265   3.490   5.849   7.789  0.5730  0.8454  0.7164
 5544TIP3   OH238266   6.942   4.204   7.575 -0.5093 -0.1041 -0.3675
 5544TIP3    H138267   6.875   4.154   7.529 -1.7414  1.3037 -0.1711
 5544TIP3    H238268   6.908   4.215   7.663  0.1117  0.3976 -0.1828
 5545TIP3   OH238269   2.865   5.469   2.534 -0.2616  0.3955 -0.4138
 5545TIP3    H138270   2.803   5.516   2.589  0.5528  0.8894  0.0895
 5545TIP3    H238271   2.823   5.384   2.519 -0.5011  0.2479  0.9657
 5546TIP3   OH238272   6.569   3.539   7.361  0.1060 -0.9820  0.0413
 5546TIP3    H138273   6.563   3.459   7.308 -0.7281 -0.1256 -1.2228
 5546TIP3    H238274   6.478   3.555   7.389  0.0758  0.0676 -0.5942
 5547TIP3   OH238275   0.248   0.297   0.355  0.2288  0.0792  0.5723
 5547TIP3    H138276   0.326   0.318   0.303 -0.6146 -0.0264 -0.8046
 5547TIP3    H238277   0.227   0.207   0.330 -1.8188  0.9454 -1.1512
 5548TIP3   OH238278   3.686   4.961   7.980 -0.4559 -0.1651 -0.6122
 5548TIP3    H138279   3.628   4.903   7.931 -2.1509  1.1176 -0.2164
 5548TIP3    H238280   3.669   4.940   8.072  1.2840 -1.2133 -0.4823
 5549TIP3   OH238281   6.912   0.340   8.302 -0.0289 -0.3612  0.5363
 5549TIP3    H138282   6.864   0.302   8.228 -1.2911  0.7003  0.7911
 5549TIP3    H238283   6.942   0.425   8.270  1.3363 -0.8186  0.5309
 5550TIP3   OH238284   0.914   1.239   2.201 -0.1599 -0.0702 -0.5234
 5550TIP3    H138285   0.912   1.334   2.215  0.8128  0.0519 -1.1452
 5550TIP3    H238286   0.852   1.205   2.265 -0.7027  1.0029 -0.4492
 5551TIP3   OH238287   1.369   5.657   1.580 -0.0145 -0.0146 -0.0714
 5551TIP3    H138288   1.424   5.616   1.646  0.5085 -0.0939 -0.5492
 5551TIP3    H238289   1.430   5.710   1.528 -0.3837 -0.1253 -0.6227
 5552TIP3   OH238290   6.816   0.657   2.496 -0.0843 -0.0723  0.2009
 5552TIP3    H138291   6.822   0.701   2.581  0.2181 -0.4915  0.3992
 5552TIP3    H238292   6.805   0.728   2.433  1.2535  0.3533  0.4223
 5553TIP3   OH238293   1.718   2.394   6.813  0.0187 -0.0549 -0.1436
 5553TIP3    H138294   1.784   2.348   6.762 -0.7680 -1.6557  0.2175
 5553TIP3    H238295   1.728   2.486   6.788  1.3300 -0.4651 -1.2456
 5554TIP3   OH238296   1.403   2.918   0.655  0.1710 -0.4248  0.4974
 5554TIP3    H138297   1.345   2.932   0.580  0.6985 -0.1412  0.1342
 5554TIP3    H238298   1.438   2.830   0.643 -1.0656 -1.0605  1.3399
 5555TIP3   OH238299   5.864   5.506   2.531 -0.0075  0.0703  0.2091
 5555TIP3    H138300   5.883   5.593   2.496  1.3714 -0.9231 -1.6951
 5555TIP3    H238301   5.769   5.501   2.533 -0.1159  1.7767  0.8155
 5556TIP3   OH238302   2.431   0.761   0.442  0.6145 -0.7360 -0.2710
 5556TIP3    H138303   2.354   0.778   0.389  0.5498  1.1385  0.3450
 5556TIP3    H238304   2.495   0.825   0.413  0.1688  1.2060  2.6122
 5557TIP3   OH238305   1.502   4.092   7.768 -0.2437 -0.1522  0.3113
 5557TIP3    H138306   1.418   4.131   7.744  0.4929  1.1325 -0.2783
 5557TIP3    H238307   1.515   4.022   7.704  0.0419  0.9274 -0.8227
 5558TIP3   OH238308   4.833   4.286   0.341 -0.2929 -0.4381  0.0518
 5558TIP3    H138309   4.813   4.250   0.427  1.3724 -0.6657  0.3802
 5558TIP3    H238310   4.830   4.210   0.282 -0.6677 -0.4127  0.0341
 5559TIP3   OH238311   4.989   6.141   8.257  0.2965  0.0557 -0.4149
 5559TIP3    H138312   4.958   6.072   8.198 -0.5863  0.3249 -0.2798
 5559TIP3    H238313   5.009   6.095   8.338  2.8050 -0.5456 -1.2703
 5560TIP3   OH238314   1.963   5.412   1.323  0.5928  0.4974 -0.0771
 5560TIP3    H138315   2.051   5.377   1.336 -0.5740 -1.9413  2.3506
 5560TIP3    H238316   1.965   5.453   1.237  3.6534 -0.8106 -0.7409
 5561TIP3   OH238317   3.370   0.180   0.293 -0.1547  0.1102 -0.1203
 5561TIP3    H138318   3.448   0.229   0.321 -0.1835  0.0534  0.0603
 5561TIP3    H238319   3.303   0.247   0.280  0.1057  0.2319 -0.9208
 5562TIP3   OH238320   0.320   3.726   8.085  0.9433 -0.0269  0.3331
 5562TIP3    H138321   0.261   3.727   8.010 -0.0974 -2.3701  1.0051
 5562TIP3    H238322   0.353   3.815   8.092  0.8471  0.3329 -2.7026
 5563TIP3   OH238323   6.308   3.117   2.225  0.5249 -0.5813 -0.1877
 5563TIP3    H138324   6.353   3.105   2.142 -0.6311 -1.9931 -0.6628
 5563TIP3    H238325   6.282   3.028   2.251  0.9183 -0.1814  1.7205
 5564TIP3   OH238326   1.637   0.758   0.144 -0.0288 -0.7559 -0.1521
 5564TIP3    H138327   1.697   0.691   0.111  0.8763 -0.1216  0.1522
 5564TIP3    H238328   1.616   0.729   0.233 -0.3510 -1.0867 -0.3316
 5565TIP3   OH238329   6.843   5.473   7.430  0.5645 -0.1135 -1.0163
 5565TIP3    H138330   6.792   5.407   7.383 -1.7916  1.8173 -1.3564
 5565TIP3    H238331   6.925   5.480   7.380 -0.0315 -1.2269 -2.2108
 5566TIP3   OH238332   5.333   0.290   0.771 -0.5385 -0.5946  0.4435
 5566TIP3    H138333   5.301   0.380   0.769 -0.2324 -0.4924 -0.5278
 5566TIP3    H238334   5.319   0.261   0.861  0.1982  0.7319  1.0205
 5567TIP3   OH238335   1.966   3.092   7.960 -0.5506  0.0071 -0.4829
 5567TIP3    H138336   1.960   2.997   7.944  2.3654 -0.5804  1.1920
 5567TIP3    H238337   1.993   3.099   8.051  0.4516  2.4035 -0.8967
 5568TIP3   OH238338   1.097   5.225   7.300  0.2011  0.8990 -0.0356
 5568TIP3    H138339   1.018   5.204   7.250  1.0987 -0.4042 -1.0035
 5568TIP3    H238340   1.080   5.191   7.387 -0.9742  2.2356  0.2958
 5569TIP3   OH238341   1.333   6.232   8.308 -0.1157  0.3465  0.0329
 5569TIP3    H138342   1.279   6.311   8.310 -0.0269  0.4312 -0.6774
 5569TIP3    H238343   1.422   6.264   8.291 -0.3105  0.0165 -1.8996
 5570TIP3   OH238344   4.419   2.570   1.782  0.0098 -0.0188  0.6252
 5570TIP3    H138345   4.503   2.579   1.738 -1.2911 -1.7140 -2.4691
 5570TIP3    H238346   4.355   2.604   1.720 -1.8316 -1.3531  1.6844
 5571TIP3   OH238347   2.076   0.753   0.446  0.1846  0.0411  0.2954
 5571TIP3    H138348   2.097   0.659   0.441 -1.5890 -0.3877  0.1028
 5571TIP3    H238349   2.074   0.772   0.539  1.6386  0.1665  0.3119
 5572TIP3   OH238350   1.987   1.357   1.178  0.4753 -0.1310 -0.4100
 5572TIP3    H138351   2.058   1.319   1.127  0.3826  0.2288 -0.8193
 5572TIP3    H238352   2.003   1.329   1.268  1.0234 -0.2110 -0.5314
 5573TIP3   OH238353   6.423   4.261   1.418 -0.0465 -0.0805 -0.0525
 5573TIP3    H138354   6.365   4.331   1.449  1.3030  1.5880 -1.1183
 5573TIP3    H238355   6.494   4.259   1.482  0.3417  0.1114 -0.4722
 5574TIP3   OH238356   6.871   2.728   0.010  0.4547 -0.2432 -0.3652
 5574TIP3    H138357   6.826   2.719   0.094 -0.2435 -0.7936 -0.7882
 5574TIP3    H238358   6.809   2.775  -0.045  0.2425 -1.2881 -1.0522
 5575TIP3   OH238359   6.279   2.904   7.051 -0.1349 -0.5389  0.3877
 5575TIP3    H138360   6.351   2.895   6.988  0.8178 -1.1748  1.5357
 5575TIP3    H238361   6.214   2.957   7.005  1.2982  0.5507 -0.4651
 5576TIP3   OH238362   2.319   3.836   2.640 -0.2879 -0.2472 -0.4554
 5576TIP3    H138363   2.334   3.917   2.689  3.2833 -1.5193  0.8596
 5576TIP3    H238364   2.262   3.783   2.696  2.1950 -0.9102  1.6344
 5577TIP3   OH238365   4.129   1.159   0.547  0.1486  0.2124 -0.0676
 5577TIP3    H138366   4.137   1.079   0.600  0.5695  0.9724  1.0508
 5577TIP3    H238367   4.062   1.138   0.482  0.6161 -1.2229 -0.1278
 5578TIP3   OH238368   6.566   4.427   7.963 -0.2423 -0.1056  0.8532
 5578TIP3    H138369   6.485   4.472   7.941  0.1717  0.3633  0.2507
 5578TIP3    H238370   6.538   4.351   8.014 -1.2445 -1.0148 -0.9226
 5579TIP3   OH238371   4.739   2.340   1.004  0.1045  0.6551  0.0915
 5579TIP3    H138372   4.747   2.404   1.075 -1.8774 -0.6566  1.5982
 5579TIP3    H238373   4.730   2.256   1.049 -1.9175 -0.1438 -1.6433
 5580TIP3   OH238374   1.786   2.304   0.631 -0.1687  0.2682 -0.4936
 5580TIP3    H138375   1.843   2.321   0.556  0.0283 -2.7274 -1.1532
 5580TIP3    H238376   1.698   2.294   0.593 -0.7494  2.2236  0.1949
 5581TIP3   OH238377   2.468   2.309   8.169 -0.7756  0.2629  0.1440
 5581TIP3    H138378   2.459   2.213   8.169  1.0316  0.0573  0.4397
 5581TIP3    H238379   2.551   2.325   8.125 -1.4793  1.7701 -0.6846
 5582TIP3   OH238380   6.767   6.137   7.786 -0.2233  0.3741 -0.1714
 5582TIP3    H138381   6.692   6.195   7.771 -1.4150 -0.4300  2.2058
 5582TIP3    H238382   6.842   6.195   7.791 -1.0693  1.4872 -0.0373
 5583TIP3   OH238383   6.531   0.486   8.259 -0.1273  0.2378 -0.3723
 5583TIP3    H138384   6.599   0.435   8.215 -0.9320 -0.8008 -0.4669
 5583TIP3    H238385   6.475   0.518   8.188  0.9453  2.1930 -0.4041
 5584TIP3   OH238386   5.689   3.178   6.846  0.1301  0.1926 -0.0646
 5584TIP3    H138387   5.715   3.086   6.848 -0.7031 -0.0629 -0.4108
 5584TIP3    H238388   5.768   3.224   6.818  1.4968 -0.0289  3.0417
 5585TIP3   OH238389   4.991   2.126   0.079 -0.0800  0.0446 -0.4256
 5585TIP3    H138390   5.009   2.194   0.143 -0.5527  0.4798 -0.7456
 5585TIP3    H238391   4.989   2.045   0.129 -1.1890  0.4692  0.2332
 5586TIP3   OH238392   3.996   1.794   8.140 -0.1614 -0.4855  0.4976
 5586TIP3    H138393   3.904   1.770   8.151 -0.5092  0.6917  0.3506
 5586TIP3    H238394   4.024   1.823   8.227  0.3296 -1.6280  0.7371
 5587TIP3   OH238395   0.386   1.089   1.905  0.1824 -0.4303 -0.5527
 5587TIP3    H138396   0.452   1.024   1.880 -0.0494 -0.8122 -0.1828
 5587TIP3    H238397   0.405   1.107   1.998  0.5870  0.4373 -0.7945
 5588TIP3   OH238398   1.180   1.071   0.096 -0.2598  0.7107 -0.2715
 5588TIP3    H138399   1.086   1.058   0.088 -0.3280  0.7878  0.3601
 5588TIP3    H238400   1.219   0.995   0.051 -0.6028  1.0857 -1.2293
 5589TIP3   OH238401   6.593   3.061   0.493  0.2870 -0.1243  0.2516
 5589TIP3    H138402   6.683   3.092   0.484  0.7241 -1.7074 -1.2710
 5589TIP3    H238403   6.597   2.967   0.476 -1.8180 -0.0332 -1.2606
 5590TIP3   OH238404   5.527   5.198   7.432  0.2921  0.2794  0.2624
 5590TIP3    H138405   5.527   5.118   7.379  1.1595  0.5512 -0.1700
 5590TIP3    H238406   5.585   5.258   7.384  0.5203  0.7822  1.1524
 5591TIP3   OH238407   6.154   2.880   2.315 -0.0073 -0.2297 -0.0884
 5591TIP3    H138408   6.105   2.905   2.393 -0.4538 -0.0541 -0.4200
 5591TIP3    H238409   6.216   2.813   2.346  1.5568  1.5762  0.9147
 5592TIP3   OH238410   2.835   3.628   8.366 -0.1263 -0.0805  0.1324
 5592TIP3    H138411   2.910   3.573   8.386  0.9364  0.9168 -1.0069
 5592TIP3    H238412   2.842   3.702   8.426 -0.3491 -0.1084  0.1961
 5593TIP3   OH238413   4.389   6.893   1.811  0.4613 -0.2111  0.2411
 5593TIP3    H138414   4.436   6.836   1.872  2.4028  1.4110  0.3764
 5593TIP3    H238415   4.422   6.868   1.725  1.0454  0.4125  0.2712
 5594TIP3   OH238416   2.287   0.627   6.660  0.0766 -0.0015 -0.4338
 5594TIP3    H138417   2.198   0.662   6.673  0.0961 -0.1605  0.1496
 5594TIP3    H238418   2.320   0.614   6.748  1.3437  1.7087 -0.6054
 5595TIP3   OH238419   6.597   3.858   0.803  0.5187  0.1051  0.6492
 5595TIP3    H138420   6.541   3.936   0.802  0.3674 -0.0023 -0.0577
 5595TIP3    H238421   6.675   3.883   0.754  0.6611 -0.0519  0.7927
 5596TIP3   OH238422   6.628   5.298   0.176 -0.1183 -0.5480 -0.1538
 5596TIP3    H138423   6.596   5.208   0.175 -0.6928 -0.3567 -2.0878
 5596TIP3    H238424   6.550   5.351   0.190  0.1631 -0.3147  0.5776
 5597TIP3   OH238425   1.106   0.910   7.576  0.3820 -0.5552  0.1754
 5597TIP3    H138426   1.135   0.880   7.662 -0.8710 -3.7076 -0.3958
 5597TIP3    H238427   1.013   0.929   7.586  0.8087  1.9646  0.1309
 5598TIP3   OH238428   2.831   5.568   1.495  0.0378 -0.0408  0.3682
 5598TIP3    H138429   2.830   5.479   1.459  0.5484  0.4400 -0.8918
 5598TIP3    H238430   2.739   5.594   1.496 -0.0619 -0.3778  0.2235
 5599TIP3   OH238431   0.966   2.188   1.337  0.5665  0.4262 -0.1121
 5599TIP3    H138432   0.908   2.114   1.357  1.6492 -0.3862  0.1179
 5599TIP3    H238433   0.920   2.265   1.371 -0.9193 -0.0222 -0.9969
 5600TIP3   OH238434   1.014   3.889   7.096 -0.7409 -0.3146 -0.0437
 5600TIP3    H138435   0.956   3.871   7.170 -0.2859  2.3953  1.0673
 5600TIP3    H238436   1.102   3.875   7.131 -0.5664 -1.8370 -0.9780
 5601TIP3   OH238437   6.385   6.680   2.644 -0.2378 -0.2675  0.0616
 5601TIP3    H138438   6.480   6.671   2.656 -0.1851  0.8773  0.6545
 5601TIP3    H238439   6.372   6.774   2.630 -1.4740 -0.1256  1.8844
 5602TIP3   OH238440   0.567   5.702   7.939  0.1208  0.0645 -0.2139
 5602TIP3    H138441   0.521   5.776   7.901 -0.1671  0.0362  0.0684
 5602TIP3    H238442   0.515   5.679   8.017 -0.0589 -0.7179 -0.5489
 5603TIP3   OH238443   0.485   6.501   7.705  0.5923 -0.3004  0.4643
 5603TIP3    H138444   0.404   6.521   7.752  0.2097 -0.2400 -0.2101
 5603TIP3    H238445   0.466   6.420   7.657  0.1476  0.8918 -1.4916
 5604TIP3   OH238446   1.393   5.298   0.892  0.6778  0.5299 -0.2629
 5604TIP3    H138447   1.361   5.237   0.958  1.5426  0.2131 -0.1252
 5604TIP3    H238448   1.342   5.378   0.906  0.5518  0.3209  0.5013
 5605TIP3   OH238449   1.709   2.882   1.705  0.8520  0.3023 -0.0798
 5605TIP3    H138450   1.742   2.970   1.725 -1.0614  1.8221 -3.0165
 5605TIP3    H238451   1.782   2.840   1.660  1.3859  0.7552  0.3304
 5606TIP3   OH238452   1.315   5.494   0.601 -0.5945  0.0531  0.3520
 5606TIP3    H138453   1.232   5.532   0.572 -0.2992  1.0296  0.7522
 5606TIP3    H238454   1.300   5.471   0.693 -1.1777 -2.0232 -0.2129
 5607TIP3   OH238455   2.647   1.618   1.213 -0.2687  0.7502  0.4455
 5607TIP3    H138456   2.594   1.697   1.219 -0.0428  1.0303 -0.8593
 5607TIP3    H238457   2.585   1.549   1.189 -0.7204  0.1814  2.9812
 5608TIP3   OH238458   1.972   5.337   7.585  0.0651 -0.6891 -0.2973
 5608TIP3    H138459   1.890   5.319   7.538 -1.0045 -0.4571  1.3969
 5608TIP3    H238460   1.960   5.424   7.622  0.3287 -1.3570  1.4461
 5609TIP3   OH238461   6.968   4.269   1.105 -0.0995 -0.4480 -0.2508
 5609TIP3    H138462   7.021   4.281   1.183 -1.5982  0.1237  0.7317
 5609TIP3    H238463   6.881   4.247   1.138 -1.1323  1.1814 -1.6730
 5610TIP3   OH238464   5.614   6.998   0.197 -0.2582 -0.1318 -0.3649
 5610TIP3    H138465   5.523   7.000   0.228 -0.1385 -1.6880  0.1535
 5610TIP3    H238466   5.666   7.018   0.274 -0.1622  3.1302 -1.1153
 5611TIP3   OH238467   1.241   0.278   2.255 -0.5021  0.0434 -0.5503
 5611TIP3    H138468   1.286   0.214   2.200 -0.4118 -0.1635 -0.2361
 5611TIP3    H238469   1.148   0.258   2.244 -0.4618 -0.3079 -0.2485
 5612TIP3   OH238470   2.593   5.909   1.255 -0.0751 -0.8993  0.0683
 5612TIP3    H138471   2.582   5.869   1.169 -0.2913  0.4936 -0.5822
 5612TIP3    H238472   2.677   5.955   1.249 -0.7180  0.3106  0.1262
 5613TIP3   OH238473   6.925   3.561   7.263  0.5318 -0.9974 -0.3546
 5613TIP3    H138474   7.007   3.571   7.312  0.7384  0.5427 -0.9607
 5613TIP3    H238475   6.951   3.560   7.171 -0.1126 -0.4307 -0.5566
 5614TIP3   OH238476   5.699   5.259   0.198  0.0889  0.7521 -0.5544
 5614TIP3    H138477   5.651   5.329   0.241  0.7887 -0.1961  1.9089
 5614TIP3    H238478   5.638   5.223   0.134 -1.1208  2.0247 -0.1436
 5615TIP3   OH238479   6.228   3.859   1.350  0.6306  0.1672 -0.4340
 5615TIP3    H138480   6.272   3.920   1.291 -2.4414  1.9392 -1.1093
 5615TIP3    H238481   6.171   3.915   1.403  0.6516 -1.7703  1.7790
 5616TIP3   OH238482   2.735   6.217   1.836 -0.1154  0.0085 -0.2080
 5616TIP3    H138483   2.779   6.302   1.835  1.0575 -0.5783 -0.2243
 5616TIP3    H238484   2.646   6.236   1.807  0.5143  1.0306 -1.6071
 5617TIP3   OH238485   0.383   5.181   0.035  0.3194  0.6292  0.0446
 5617TIP3    H138486   0.479   5.171   0.029  0.1486 -0.6113 -1.0129
 5617TIP3    H238487   0.353   5.094   0.062 -0.5310  0.9881  0.2638
 5618TIP3   OH238488   4.252   2.724   1.327  0.0444 -0.2020  0.0443
 5618TIP3    H138489   4.206   2.807   1.336 -0.2719 -0.3427 -0.2430
 5618TIP3    H238490   4.215   2.667   1.395 -1.5251 -0.8980 -1.3346
 5619TIP3   OH238491   1.614   1.100   0.211 -0.1879  0.1203  0.0655
 5619TIP3    H138492   1.562   1.159   0.266  0.0819  0.3639  0.0668
 5619TIP3    H238493   1.554   1.071   0.143 -0.8692 -1.1436  1.1674
 5620TIP3   OH238494   0.485   1.731   6.755  0.3514 -0.5772  0.3780
 5620TIP3    H138495   0.497   1.668   6.825 -0.2554  0.1453  1.1469
 5620TIP3    H238496   0.470   1.678   6.677  1.4815 -1.3962  0.6925
 5621TIP3   OH238497   5.303   5.744   1.230  0.0694  0.3645 -0.1731
 5621TIP3    H138498   5.357   5.813   1.190 -0.9457  1.1456 -0.2383
 5621TIP3    H238499   5.230   5.732   1.169  0.2904 -0.8788 -0.2274
 5622TIP3   OH238500   2.035   4.416   2.888  0.0039  0.8868  0.3920
 5622TIP3    H138501   2.108   4.411   2.950  1.2453  2.0592 -0.8980
 5622TIP3    H238502   2.077   4.419   2.802 -1.5446  1.9390 -0.3662
 5623TIP3   OH238503   5.453   2.960   6.998 -1.0398 -0.7588 -0.1738
 5623TIP3    H138504   5.474   2.879   7.045  1.0105 -1.0599 -1.4584
 5623TIP3    H238505   5.442   2.933   6.907  1.0083  0.4928 -0.8771
 5624TIP3   OH238506   6.651   5.688   2.125  0.1231  0.5605 -0.0481
 5624TIP3    H138507   6.623   5.624   2.060  1.0802  0.6071 -0.5237
 5624TIP3    H238508   6.602   5.665   2.204 -1.1079  0.5516 -0.7906
 5625TIP3   OH238509   6.283   4.462   2.849  0.6003 -0.3376  0.0010
 5625TIP3    H138510   6.292   4.548   2.890 -1.4675  0.1890 -0.4925
 5625TIP3    H238511   6.266   4.403   2.923  0.4703 -0.0258  0.2288
 5626TIP3   OH238512   4.140   6.667   1.157  0.1326  0.6971 -0.3980
 5626TIP3    H138513   4.151   6.762   1.147 -0.1949  0.7276 -0.4814
 5626TIP3    H238514   4.176   6.630   1.076 -1.3740  0.8669 -1.1883
 5627TIP3   OH238515   0.948   5.047   7.507  0.1695 -0.0692 -0.6326
 5627TIP3    H138516   0.916   5.105   7.576 -0.1215  0.4889 -1.2312
 5627TIP3    H238517   1.003   4.983   7.553 -0.3886  0.0163  0.1712
 5628TIP3   OH238518   1.920   6.032   2.742 -0.6759  0.0101 -0.1861
 5628TIP3    H138519   1.846   6.086   2.715  0.0846  0.5178 -1.3445
 5628TIP3    H238520   1.899   5.945   2.707 -0.9776  0.0291 -0.0520
 5629TIP3   OH238521   6.929   0.787   0.806  0.1614 -0.0086  0.4561
 5629TIP3    H138522   6.962   0.701   0.833 -1.8049 -1.0492 -0.1883
 5629TIP3    H238523   6.872   0.768   0.732 -2.1161  1.5249  1.6829
 5630TIP3   OH238524   1.214   0.298   0.275 -0.5702 -0.1544  0.1284
 5630TIP3    H138525   1.197   0.204   0.273 -0.9666 -0.0771 -0.6724
 5630TIP3    H238526   1.241   0.319   0.185  1.7154  0.1131  0.7925
 5631TIP3   OH238527   0.175   6.037   0.989  0.6731 -0.2672 -0.3594
 5631TIP3    H138528   0.161   6.011   0.897 -1.8721 -1.4685  0.2759
 5631TIP3    H238529   0.237   6.110   0.984 -1.4226  1.5503 -3.2929
 5632TIP3   OH238530   3.209   1.373   7.759 -0.2291  0.2981 -0.0197
 5632TIP3    H138531   3.295   1.397   7.725  0.0177 -0.3828  0.1187
 5632TIP3    H238532   3.212   1.278   7.769 -0.6679  0.3679  0.8831
 5633TIP3   OH238533   3.683   5.142   1.650 -0.0297 -0.1841  0.8503
 5633TIP3    H138534   3.676   5.143   1.554 -0.4366 -1.0500  0.8665
 5633TIP3    H238535   3.762   5.195   1.668 -0.2673  0.4671  0.0777
 5634TIP3   OH238536   6.514   0.679   2.340  0.4687 -0.0384 -0.0325
 5634TIP3    H138537   6.527   0.602   2.285  1.4022  0.1555 -0.0908
 5634TIP3    H238538   6.599   0.722   2.342  0.3939  0.0616  1.4151
 5635TIP3   OH238539   5.282   5.527   7.596  0.0993 -0.5348  0.5295
 5635TIP3    H138540   5.346   5.597   7.583  0.2384 -0.7287  0.1572
 5635TIP3    H238541   5.289   5.473   7.517 -1.7631  0.4122 -0.3438
 5636TIP3   OH238542   4.252   5.586   1.251 -0.0908  0.1629  0.2734
 5636TIP3    H138543   4.273   5.666   1.299  0.1708 -0.4143  1.1508
 5636TIP3    H238544   4.164   5.562   1.281  0.2957 -0.5034  0.9130
 5637TIP3   OH238545   4.712   2.582   1.709  0.1695  0.9943 -0.1502
 5637TIP3    H138546   4.745   2.509   1.762  1.1692  1.8689  0.4768
 5637TIP3    H238547   4.703   2.545   1.621 -0.5136 -0.2020  0.3864
 5638TIP3   OH238548   6.304   5.325   1.684  0.3064  0.6570  0.2790
 5638TIP3    H138549   6.219   5.284   1.697  0.3808  0.2632 -0.4504
 5638TIP3    H238550   6.300   5.361   1.595  0.8972  0.6525  0.2470
 5639TIP3   OH238551   3.056   6.962   7.204 -0.0973  0.6648 -0.6382
 5639TIP3    H138552   2.981   6.905   7.223  1.4958 -1.1461  0.6684
 5639TIP3    H238553   3.064   7.018   7.281  0.0731  0.6071 -0.6118
 5640TIP3   OH238554   0.740   1.303   0.406  0.0056  0.1178  0.1498
 5640TIP3    H138555   0.676   1.258   0.461 -1.0771  0.5686 -0.7071
 5640TIP3    H238556   0.758   1.385   0.452  0.6221 -0.3881  0.8193
 5641TIP3   OH238557   5.886   0.567   0.542  0.5983  0.2918 -0.2378
 5641TIP3    H138558   5.894   0.598   0.632  0.9239 -0.6292  0.0537
 5641TIP3    H238559   5.975   0.572   0.507  0.7327 -0.6942 -0.0571
 5642TIP3   OH238560   2.339   4.993   0.141 -0.4885  0.0734  0.2461
 5642TIP3    H138561   2.340   4.928   0.211 -0.2171  0.2713  0.4259
 5642TIP3    H238562   2.256   5.039   0.153  0.2016  1.0752  1.3365
 5643TIP3   OH238563   4.692   0.983   7.944 -0.2324 -0.3197  0.3650
 5643TIP3    H138564   4.609   1.017   7.977 -0.3926 -0.0769 -0.2904
 5643TIP3    H238565   4.690   0.890   7.967 -1.1420 -0.5430 -0.5480
 5644TIP3   OH238566   2.782   6.770   8.006  0.0419  0.7001  0.6812
 5644TIP3    H138567   2.840   6.713   7.956 -1.6671 -2.0050  1.5602
 5644TIP3    H238568   2.737   6.823   7.940 -1.6990 -2.3155 -0.7866
 5645TIP3   OH238569   4.218   4.613   1.678 -0.3879 -0.3171 -0.8409
 5645TIP3    H138570   4.255   4.636   1.763 -0.4649 -1.3403 -0.5188
 5645TIP3    H238571   4.246   4.684   1.620  0.9839 -0.3926 -0.3143
 5646TIP3   OH238572   2.092   4.691   7.167  0.2336  0.1874  0.1273
 5646TIP3    H138573   2.144   4.624   7.123 -1.8309 -0.5138 -1.3942
 5646TIP3    H238574   2.028   4.643   7.218  0.4658  1.0302  1.2582
 5647TIP3   OH238575   2.380   6.869   1.072  0.4065 -0.0919 -0.0552
 5647TIP3    H138576   2.394   6.886   0.979  0.9749 -0.4726 -0.0422
 5647TIP3    H238577   2.353   6.777   1.076 -1.8074  0.4909 -0.0442
 5648TIP3   OH238578   3.479   4.450   0.964 -0.2605 -0.4464  0.2105
 5648TIP3    H138579   3.560   4.495   0.941  0.1322 -1.1491  0.2116
 5648TIP3    H238580   3.506   4.381   1.024 -0.9341 -0.3301  0.6660
 5649TIP3   OH238581   5.494   1.423   1.085  0.1659  0.5091  0.4512
 5649TIP3    H138582   5.399   1.421   1.086  0.0275 -0.5026 -2.5559
 5649TIP3    H238583   5.520   1.338   1.122 -0.0236  1.2270  2.2773
 5650TIP3   OH238584   4.804   5.201   8.292 -0.4114 -0.3542  0.2585
 5650TIP3    H138585   4.733   5.211   8.229  0.2221  0.3312 -0.3665
 5650TIP3    H238586   4.845   5.118   8.268  0.7065  0.5606 -1.1818
 5651TIP3   OH238587   6.751   1.100   7.074  0.1488  0.1536  0.5689
 5651TIP3    H138588   6.830   1.083   7.125  0.2092  0.0302  0.4354
 5651TIP3    H238589   6.742   1.024   7.017  0.2020  0.3832  0.2439
 5652TIP3   OH238590   4.022   6.287   7.945 -0.2428  0.3462 -1.1198
 5652TIP3    H138591   4.008   6.206   7.994 -0.8420 -1.5509 -4.1669
 5652TIP3    H238592   4.089   6.265   7.880 -1.7449  1.6645 -3.2563
 5653TIP3   OH238593   2.464   0.422   7.223  0.0885  0.3555  0.1587
 5653TIP3    H138594   2.431   0.421   7.133  0.9224  0.4207 -0.1582
 5653TIP3    H238595   2.480   0.330   7.244  1.3191  0.4355 -0.3186
 5654TIP3   OH238596   1.810   5.133   1.304  0.0571 -0.2503  0.0661
 5654TIP3    H138597   1.778   5.179   1.227  0.1872  0.2073  0.2837
 5654TIP3    H238598   1.871   5.194   1.346  0.6721 -0.8318  0.0455
 5655TIP3   OH238599   5.812   0.117   1.566  0.0974 -0.2520  0.3995
 5655TIP3    H138600   5.891   0.159   1.530  0.6454 -1.1910  0.4799
 5655TIP3    H238601   5.741   0.152   1.513  0.6469  0.0857 -0.1386
 5656TIP3   OH238602   3.167   5.614   0.699 -0.0835  0.7353  0.2629
 5656TIP3    H138603   3.122   5.617   0.783 -0.1520 -0.7119  0.3048
 5656TIP3    H238604   3.098   5.601   0.635  0.0253  1.2572  0.0336
 5657TIP3   OH238605   0.771   6.873   1.158  0.6335  0.0698  0.1331
 5657TIP3    H138606   0.820   6.945   1.120  0.3689 -0.5536 -1.4455
 5657TIP3    H238607   0.741   6.907   1.243 -1.3583  2.6428 -1.4436
 5658TIP3   OH238608   0.078   4.679   0.627  0.0058  0.1699  0.1770
 5658TIP3    H138609   0.068   4.724   0.711 -0.2346  0.1969  0.1322
 5658TIP3    H238610   0.168   4.645   0.629  0.0369  0.2660  0.3983
 5659TIP3   OH238611   1.359   3.181   7.201  0.1842  0.3115 -0.1951
 5659TIP3    H138612   1.402   3.154   7.119 -1.0146 -2.4072 -0.0393
 5659TIP3    H238613   1.267   3.190   7.177  0.0696  1.2891  0.5286
 5660TIP3   OH238614   5.241   5.006   0.943 -0.4669 -0.4496  0.4552
 5660TIP3    H138615   5.153   5.022   0.908 -0.5780  2.0788  1.6427
 5660TIP3    H238616   5.296   5.069   0.896  0.7539 -1.9973 -0.2616
 5661TIP3   OH238617   1.814   0.914   2.345 -0.1493 -0.2563  0.2177
 5661TIP3    H138618   1.764   0.969   2.406  0.4414  1.0799 -0.4591
 5661TIP3    H238619   1.870   0.861   2.401 -1.3187 -0.7937  0.9276
 5662TIP3   OH238620   1.500   0.016   0.761  0.4144  0.2493 -0.1487
 5662TIP3    H138621   1.532  -0.032   0.838 -0.3304 -2.1450 -1.2446
 5662TIP3    H238622   1.454   0.091   0.798 -1.1304 -1.5655  1.8781
 5663TIP3   OH238623   4.102   0.781   3.032  0.2557 -0.3471 -0.3369
 5663TIP3    H138624   4.025   0.801   3.084 -0.7785  0.5210 -2.0896
 5663TIP3    H238625   4.067   0.750   2.948  1.7954  0.0376 -1.1705
 5664TIP3   OH238626   5.795   1.711   1.565 -0.0297  0.1349  0.5422
 5664TIP3    H138627   5.752   1.782   1.518  0.4913  0.0493 -0.0723
 5664TIP3    H238628   5.848   1.755   1.632  1.9644  0.4921 -1.1731
 5665TIP3   OH238629   6.381   4.353   6.740 -0.3489 -0.1238  0.3967
 5665TIP3    H138630   6.438   4.387   6.810  1.8863 -0.8804 -0.9803
 5665TIP3    H238631   6.410   4.263   6.727 -0.7963 -0.0300 -1.4232
 5666TIP3   OH238632   3.822   2.169   0.799  1.4463  0.5454  0.2247
 5666TIP3    H138633   3.889   2.130   0.742  2.0410 -0.7307  1.7009
 5666TIP3    H238634   3.850   2.260   0.810  1.8396  0.5570 -0.7447
 5667TIP3   OH238635   4.646   2.185   7.225 -0.5598  0.0506  0.1737
 5667TIP3    H138636   4.738   2.210   7.215 -1.0498  1.7167 -0.4919
 5667TIP3    H238637   4.648   2.106   7.278  1.2059  0.5903  0.9692
 5668TIP3   OH238638   3.418   2.513   2.235  0.0234  0.2032 -0.1005
 5668TIP3    H138639   3.472   2.450   2.187  0.6834  0.0563  0.8147
 5668TIP3    H238640   3.436   2.597   2.192 -0.9504 -0.2126 -1.4030
 5669TIP3   OH238641   4.966   0.481   8.391 -0.6036 -0.4841 -0.5570
 5669TIP3    H138642   5.043   0.472   8.335 -0.5261 -2.0065 -0.2493
 5669TIP3    H238643   4.891   0.479   8.330 -0.5416 -2.5012 -0.6461
 5670TIP3   OH238644   2.509   1.569   8.283 -0.6963 -0.0098 -0.0127
 5670TIP3    H138645   2.493   1.646   8.337 -1.0901 -0.7629  0.9788
 5670TIP3    H238646   2.439   1.569   8.218 -0.8513  0.3116  0.1563
 5671TIP3   OH238647   1.409   4.817   1.853 -0.0879 -0.1075 -0.2138
 5671TIP3    H138648   1.448   4.821   1.940  0.6059  0.2249 -0.5359
 5671TIP3    H238649   1.342   4.886   1.854 -0.8680 -0.8466  0.4196
 5672TIP3   OH238650   3.603   2.560   7.281  0.1541 -0.3549  0.1955
 5672TIP3    H138651   3.633   2.487   7.227 -0.2954 -1.6829  1.6526
 5672TIP3    H238652   3.598   2.634   7.221  0.3045 -1.5971 -1.4214
 5673TIP3   OH238653   0.713   1.266   8.124  0.2962  0.4722 -0.5503
 5673TIP3    H138654   0.761   1.328   8.179 -0.4491 -0.1056  0.8002
 5673TIP3    H238655   0.621   1.280   8.146  0.0221 -0.2225 -1.1917
 5674TIP3   OH238656   2.656   0.697   0.613  0.2836  0.2445 -0.1132
 5674TIP3    H138657   2.617   0.705   0.701  0.6466  0.0059  0.0747
 5674TIP3    H238658   2.582   0.674   0.556  0.0266  0.5033  0.1108
 5675TIP3   OH238659   4.391   5.424   0.844  0.4233 -0.4811 -0.3452
 5675TIP3    H138660   4.330   5.493   0.870  0.7828 -0.2831 -0.0246
 5675TIP3    H238661   4.342   5.343   0.857  0.3663 -0.3476  0.3067
 5676TIP3   OH238662   1.496   0.413   1.587  0.7145 -0.0119 -0.4762
 5676TIP3    H138663   1.477   0.494   1.539 -0.6682 -0.7147 -1.1655
 5676TIP3    H238664   1.590   0.417   1.603  0.5941  2.0309  0.0584
 5677TIP3   OH238665   6.462   6.246   6.645 -0.1676 -0.2058  0.2423
 5677TIP3    H138666   6.545   6.199   6.659  1.2347  1.8155 -0.7783
 5677TIP3    H238667   6.396   6.177   6.638  1.9990 -2.2253 -2.8969
 5678TIP3   OH238668   6.290   6.352   1.372 -0.1400 -0.0779  0.3898
 5678TIP3    H138669   6.357   6.366   1.439 -1.7678 -0.9217  2.3486
 5678TIP3    H238670   6.210   6.389   1.411 -1.0676 -0.2543 -1.2720
 5679TIP3   OH238671   2.570   0.331   0.317  0.1436 -0.5992 -0.1603
 5679TIP3    H138672   2.653   0.300   0.279 -1.2848 -1.7875 -2.5427
 5679TIP3    H238673   2.578   0.427   0.317  1.4255 -0.6873 -0.5790
 5680TIP3   OH238674   1.097   6.061   1.132 -0.0605  0.5106  0.1267
 5680TIP3    H138675   1.191   6.044   1.125  0.3703  1.8215  2.0034
 5680TIP3    H238676   1.073   6.097   1.047  1.0104 -0.2999 -0.5452
 5681TIP3   OH238677   5.126   1.273   7.729  0.4439 -0.3308 -0.3215
 5681TIP3    H138678   5.186   1.245   7.798 -2.3038  0.3059  2.5339
 5681TIP3    H238679   5.140   1.367   7.722  2.2281 -0.6799 -2.3044
 5682TIP3   OH238680   2.567   1.186   1.842  0.4801  0.3402  0.1399
 5682TIP3    H138681   2.509   1.179   1.766  1.2482  2.7665 -0.7865
 5682TIP3    H238682   2.653   1.160   1.808  0.2494 -2.0269  1.1816
 5683TIP3   OH238683   1.710   0.765   6.438 -0.3600 -0.4241 -0.3286
 5683TIP3    H138684   1.797   0.804   6.449 -0.4316 -0.7986  2.0033
 5683TIP3    H238685   1.696   0.764   6.343  0.2859  3.7312 -0.6291
 5684TIP3   OH238686   4.756   3.267   7.594 -0.4446  0.1060  0.2103
 5684TIP3    H138687   4.730   3.189   7.644  1.8753 -0.0966  1.2147
 5684TIP3    H238688   4.840   3.292   7.631 -0.5887  2.4283 -0.9030
 5685TIP3   OH238689   4.581   3.932   1.632  0.1300 -0.4823  0.0425
 5685TIP3    H138690   4.515   3.933   1.562  0.7949  0.6385 -0.5884
 5685TIP3    H238691   4.549   3.865   1.694 -1.1985 -0.4902 -0.6184
 5686TIP3   OH238692   6.140   3.846   7.011  0.6046  0.4209  0.1137
 5686TIP3    H138693   6.097   3.780   6.956 -1.2115  0.8510  0.9489
 5686TIP3    H238694   6.166   3.798   7.089 -1.1427  0.7219  0.9308
 5687TIP3   OH238695   4.617   6.362   1.478  0.2268  0.1696 -0.0487
 5687TIP3    H138696   4.587   6.312   1.402 -1.5538 -0.6042  1.1114
 5687TIP3    H238697   4.649   6.297   1.539  1.0721  0.7385  0.1295
 5688TIP3   OH238698   6.208   4.260   7.473 -0.6524  0.1162 -0.2641
 5688TIP3    H138699   6.210   4.346   7.513  1.0520 -0.3239  0.6935
 5688TIP3    H238700   6.117   4.230   7.484 -1.0311  1.3821  0.2232
 5689TIP3   OH238701   5.423   4.765   1.557 -0.1427  0.0956 -0.4879
 5689TIP3    H138702   5.393   4.682   1.519 -1.3697  0.6616 -0.8053
 5689TIP3    H238703   5.421   4.749   1.652 -0.0724 -0.3376 -0.5540
 5690TIP3   OH238704   1.251   6.479   1.636  0.2457 -0.4949 -0.2584
 5690TIP3    H138705   1.319   6.544   1.653 -0.1415 -0.0773 -0.2942
 5690TIP3    H238706   1.228   6.445   1.722  0.2746 -0.4029 -0.2142
 5691TIP3   OH238707   6.973   0.380   0.344  0.0067 -0.1623  0.0105
 5691TIP3    H138708   7.068   0.370   0.355  0.1071  0.4584 -0.2878
 5691TIP3    H238709   6.954   0.467   0.379 -0.9059 -1.3818  2.8073
 5692TIP3   OH238710   5.701   3.429   8.163  0.1385  0.1215  0.1270
 5692TIP3    H138711   5.685   3.378   8.084  0.7802  0.9197 -0.5307
 5692TIP3    H238712   5.614   3.450   8.196 -0.1342 -0.8151  0.0470
 5693TIP3   OH238713   4.225   4.436   0.304 -0.1472 -0.9425  0.2537
 5693TIP3    H138714   4.279   4.510   0.276 -0.3275  0.1794  2.5868
 5693TIP3    H238715   4.138   4.455   0.269  0.0117 -0.5152  0.0869
 5694TIP3   OH238716   3.319   1.682   8.343  0.2358 -0.4556  0.2473
 5694TIP3    H138717   3.400   1.733   8.345  1.8607 -2.8530  1.5803
 5694TIP3    H238718   3.264   1.722   8.410 -0.1678  1.8337 -1.3649
 5695TIP3   OH238719   4.027   3.906   2.987 -0.2014  0.0796  0.2574
 5695TIP3    H138720   3.970   3.836   3.018  0.3108  0.2190  1.5409
 5695TIP3    H238721   4.039   3.964   3.062  1.2117  0.3315 -0.1198
 5696TIP3   OH238722   3.961   1.477   7.639 -0.3166 -0.6783  0.2756
 5696TIP3    H138723   3.905   1.539   7.592  0.2473 -0.1014  0.3509
 5696TIP3    H238724   3.915   1.461   7.722 -2.0302 -2.7896 -0.9701
 5697TIP3   OH238725   4.455   6.750   1.141 -0.0223 -0.4537  0.4846
 5697TIP3    H138726   4.529   6.729   1.085 -0.0938 -0.0090  0.2199
 5697TIP3    H238727   4.378   6.737   1.085 -0.0960 -0.0562  0.4946
 5698TIP3   OH238728   1.997   3.710   0.235 -0.1611  0.4939 -0.3751
 5698TIP3    H138729   1.938   3.698   0.310 -0.3960 -1.3913 -0.8080
 5698TIP3    H238730   1.955   3.779   0.183 -1.0987  0.3806  0.1965
 5699TIP3   OH238731   0.735   0.389   2.345 -0.1807  0.8895  0.5228
 5699TIP3    H138732   0.666   0.419   2.285  0.3716  2.5384  0.6525
 5699TIP3    H238733   0.709   0.425   2.430  0.2478  0.5459  0.7963
 5700TIP3   OH238734   5.771   2.306   1.610 -0.4997  0.0799 -0.2008
 5700TIP3    H138735   5.762   2.214   1.584 -0.3366  0.2782 -1.0008
 5700TIP3    H238736   5.691   2.347   1.577 -0.4992  0.2577  0.0172
 5701TIP3   OH238737   1.966   0.298   7.669 -0.0464  0.0287 -0.5484
 5701TIP3    H138738   1.987   0.370   7.610 -0.6467  0.2378 -0.5181
 5701TIP3    H238739   1.963   0.339   7.756 -0.3367 -0.0346 -0.5252
 5702TIP3   OH238740   2.280   6.709   1.998 -0.2697 -0.3650  0.4433
 5702TIP3    H138741   2.346   6.715   1.929 -0.3363 -3.1565  0.0009
 5702TIP3    H238742   2.205   6.759   1.964  1.0347  1.5423  0.2761
 5703TIP3   OH238743   5.506   3.059   1.749  0.5428 -0.0928  0.3534
 5703TIP3    H138744   5.457   2.994   1.800  0.1875  0.6522  0.9944
 5703TIP3    H238745   5.488   3.142   1.793 -0.6065  0.7606 -1.6005
 5704TIP3   OH238746   5.129   1.155   2.075 -0.1784  0.4090 -0.3867
 5704TIP3    H138747   5.189   1.135   2.147 -0.8250 -2.4493 -0.5399
 5704TIP3    H238748   5.120   1.251   2.078  1.0759  0.5406  2.2818
 5705TIP3   OH238749   6.196   5.142   1.406 -0.7317  0.1703  0.0698
 5705TIP3    H138750   6.225   5.062   1.449 -1.0307 -0.7152 -1.3400
 5705TIP3    H238751   6.121   5.172   1.458 -0.4017 -0.2574  0.8012
 5706TIP3   OH238752   1.972   4.789   2.213  0.2339 -0.1959  0.4343
 5706TIP3    H138753   1.926   4.745   2.285  0.1657 -1.5115 -0.3944
 5706TIP3    H238754   1.980   4.880   2.243 -1.8310 -0.1808  1.1384
 5707TIP3   OH238755   0.735   1.470   3.027  0.4138  0.3979 -0.8093
 5707TIP3    H138756   0.651   1.444   3.064  1.8868 -2.1208  1.1361
 5707TIP3    H238757   0.731   1.439   2.936 -0.3349 -0.8325 -0.3890
 5708TIP3   OH238758   2.140   1.684   2.268 -0.0599  0.4926 -0.1661
 5708TIP3    H138759   2.229   1.674   2.301 -0.6055 -1.7972  0.8374
 5708TIP3    H238760   2.136   1.624   2.193 -1.1213 -0.4872  0.6501
 5709TIP3   OH238761   4.443   3.942   1.414  0.2435 -0.2004  0.2574
 5709TIP3    H138762   4.351   3.952   1.439  0.6155  0.4397  1.4567
 5709TIP3    H238763   4.445   3.961   1.320 -0.8502 -0.2859  0.2043
 5710TIP3   OH238764   1.419   5.114   2.599  0.5142 -0.1245  0.2483
 5710TIP3    H138765   1.451   5.190   2.649  0.8319  0.8005 -1.3048
 5710TIP3    H238766   1.394   5.050   2.666 -1.2833  1.9294  1.6795
 5711TIP3   OH238767   1.838   2.122   1.615 -0.9509 -0.0073 -0.1181
 5711TIP3    H138768   1.804   2.094   1.700  1.3863 -1.0612  0.5451
 5711TIP3    H238769   1.821   2.216   1.612 -0.6280  0.1426  1.7594
 5712TIP3   OH238770   6.616   1.225   0.207  0.2901  0.3059  0.0409
 5712TIP3    H138771   6.528   1.192   0.187  0.7408 -1.0027  0.0801
 5712TIP3    H238772   6.608   1.262   0.295  0.2262 -1.8570  1.0315
 5713TIP3   OH238773   4.474   4.963   1.079 -0.1419 -0.3881  0.2169
 5713TIP3    H138774   4.535   4.965   1.153  0.7984 -0.9952 -0.5278
 5713TIP3    H238775   4.439   5.052   1.075 -0.3314 -0.3886  1.4911
 5714TIP3   OH238776   2.729   0.669   2.862  0.6883 -0.4091  0.1185
 5714TIP3    H138777   2.655   0.724   2.889  1.9372  1.5424 -0.2411
 5714TIP3    H238778   2.688   0.594   2.819 -1.2009 -1.5085  3.4783
 5715TIP3   OH238779   1.779   1.040   7.031 -0.1841 -0.5076  0.1223
 5715TIP3    H138780   1.862   1.044   7.080 -0.2861 -1.5154  0.4044
 5715TIP3    H238781   1.804   1.059   6.941  0.2190  0.0505  0.3429
 5716TIP3   OH238782   5.283   6.423   0.270  0.5225  0.5152 -0.3589
 5716TIP3    H138783   5.241   6.487   0.328  0.4503  0.5445 -0.4429
 5716TIP3    H238784   5.235   6.342   0.286  1.2603  0.2344  0.4818
 5717TIP3   OH238785   2.089   4.978   2.436 -0.2313 -0.7377 -0.1029
 5717TIP3    H138786   2.015   5.004   2.490 -0.9756 -1.5438 -0.7046
 5717TIP3    H238787   2.131   4.907   2.484 -0.3883 -0.8899 -0.1927
 5718TIP3   OH238788   3.704   1.685   1.469  0.1901  0.1066 -0.3181
 5718TIP3    H138789   3.653   1.605   1.460  0.0403  0.1216  0.3085
 5718TIP3    H238790   3.782   1.671   1.416  0.2144 -0.4959 -0.1215
 5719TIP3   OH238791   0.429   2.391   0.210  0.6834 -0.2141  0.2916
 5719TIP3    H138792   0.350   2.360   0.166  0.1032  0.5696  0.7686
 5719TIP3    H238793   0.428   2.347   0.295  0.5464  0.1063  0.4564
 5720TIP3   OH238794   3.132   0.405   1.165  0.3878 -0.2044 -0.3048
 5720TIP3    H138795   3.191   0.330   1.157 -0.7064 -1.0262 -0.7109
 5720TIP3    H238796   3.077   0.385   1.241 -0.9217 -0.5343 -1.3157
 5721TIP3   OH238797   5.078   3.580   0.152 -0.1713 -0.4508 -0.5069
 5721TIP3    H138798   5.071   3.485   0.162 -1.4842 -0.3529 -0.3565
 5721TIP3    H238799   5.163   3.602   0.192 -0.4497 -1.3921  0.6588
 5722TIP3   OH238800   1.877   5.757   6.888 -0.4867 -0.3058  0.1376
 5722TIP3    H138801   1.787   5.769   6.919 -0.5619  1.3767 -0.5854
 5722TIP3    H238802   1.866   5.725   6.798 -0.5087  2.4819 -0.9606
 5723TIP3   OH238803   1.248   2.779   1.475 -0.3914 -0.3067 -0.2034
 5723TIP3    H138804   1.333   2.737   1.489  0.8621  1.9820 -0.4013
 5723TIP3    H238805   1.185   2.721   1.517  1.3601 -1.6568  0.6910
 5724TIP3   OH238806   5.780   1.783   1.107  0.1117 -0.0324 -0.6223
 5724TIP3    H138807   5.759   1.723   1.179  0.8734  0.0240 -0.3436
 5724TIP3    H238808   5.861   1.749   1.070 -0.1643  0.0596 -1.3341
 5725TIP3   OH238809   2.605   4.608   0.049  0.5592 -0.0746  0.0180
 5725TIP3    H138810   2.644   4.562  -0.024  0.7622 -0.6835  0.4996
 5725TIP3    H238811   2.625   4.700   0.033  4.6167 -0.4800  1.5798
 5726TIP3   OH238812   2.177   3.077   0.080  0.0395 -0.4184  0.4677
 5726TIP3    H138813   2.269   3.069   0.056 -0.5617 -1.0067 -1.9399
 5726TIP3    H238814   2.164   3.170   0.094  0.6892 -0.1274 -0.7175
 5727TIP3   OH238815   6.466   5.644   7.775  0.0033  0.1559  0.2748
 5727TIP3    H138816   6.540   5.704   7.768  0.3703 -0.3257 -0.1032
 5727TIP3    H238817   6.391   5.695   7.748  0.6713 -0.2299 -2.6462
 5728TIP3   OH238818   5.394   2.246   0.070 -0.5548 -0.2957  0.1665
 5728TIP3    H138819   5.452   2.318   0.044  0.3569 -1.0580  0.0292
 5728TIP3    H238820   5.316   2.258   0.016  0.6766 -0.9491 -1.8867
 5729TIP3   OH238821   5.982   5.302   2.388 -0.5410  0.4836 -0.1061
 5729TIP3    H138822   5.922   5.232   2.365 -1.1419  1.6177 -2.2355
 5729TIP3    H238823   5.930   5.361   2.443 -1.9186  2.0934 -2.9234
 5730TIP3   OH238824   0.586   6.518   2.353 -0.2848 -1.0912 -0.0156
 5730TIP3    H138825   0.570   6.554   2.441  0.3819 -0.0352 -0.3063
 5730TIP3    H238826   0.680   6.531   2.339 -0.7003  0.6344 -1.6754
 5731TIP3   OH238827   3.970   5.804   1.839 -0.3755  0.4891 -0.1747
 5731TIP3    H138828   3.952   5.712   1.858  0.0351  0.2650 -0.8487
 5731TIP3    H238829   3.930   5.819   1.753 -0.3040  0.9000 -0.1390
 5732TIP3   OH238830   0.719   6.301   0.125  0.3644 -0.2585  0.6743
 5732TIP3    H138831   0.749   6.268   0.040 -0.1813  1.8490 -0.4211
 5732TIP3    H238832   0.631   6.266   0.135 -0.1175  0.5977 -0.3513
 5733TIP3   OH238833   3.619   5.997   1.374 -0.0014  0.8907 -0.2400
 5733TIP3    H138834   3.678   5.930   1.409  0.8476  1.3158 -0.8156
 5733TIP3    H238835   3.673   6.075   1.368 -0.4345  1.1130 -1.4225
 5734TIP3   OH238836   5.446   3.306   6.878 -0.2685 -0.3870  0.0094
 5734TIP3    H138837   5.519   3.244   6.879 -0.7163 -0.9255 -0.3688
 5734TIP3    H238838   5.369   3.253   6.896 -0.2741  0.6378  3.7218
 5735TIP3   OH238839   4.338   6.932   8.153  0.3413  0.6787 -0.0233
 5735TIP3    H138840   4.348   6.863   8.218 -1.8300 -0.1219 -0.4481
 5735TIP3    H238841   4.386   7.006   8.190  1.2335 -0.4848  1.2930
 5736TIP3   OH238842   1.317   1.664   0.297 -0.4866  0.2233  0.1754
 5736TIP3    H138843   1.362   1.747   0.282  0.6330 -0.1807  1.1323
 5736TIP3    H238844   1.228   1.688   0.320 -1.3009  1.0127 -3.2607
 5737TIP3   OH238845   2.783   5.019   0.234  0.4644  0.1848 -0.0311
 5737TIP3    H138846   2.806   5.043   0.324 -0.5240 -2.4649  1.0091
 5737TIP3    H238847   2.856   5.052   0.181  0.5229  2.8159  1.5261
 5738TIP3   OH238848   0.660   5.680   8.340  0.1479 -0.1973 -0.1684
 5738TIP3    H138849   0.650   5.608   8.277 -4.1584 -0.5493  0.5730
 5738TIP3    H238850   0.658   5.637   8.425  1.5242  0.5821  0.2747
 5739TIP3   OH238851   4.801   3.782   0.127  0.3154 -0.1629 -0.5596
 5739TIP3    H138852   4.836   3.773   0.215 -0.4935 -0.0020 -0.2113
 5739TIP3    H238853   4.711   3.813   0.140  0.0666 -0.4957 -1.4282
 5740TIP3   OH238854   3.841   2.484   2.822 -0.9279 -0.2618  0.0962
 5740TIP3    H138855   3.762   2.512   2.778 -1.3643 -0.9653  0.4214
 5740TIP3    H238856   3.817   2.481   2.915 -0.0379  1.1661  0.4203
 5741TIP3   OH238857   4.280   5.761   0.521 -0.1426  0.3456 -0.2719
 5741TIP3    H138858   4.237   5.817   0.456  0.1600 -0.5780 -1.3183
 5741TIP3    H238859   4.361   5.733   0.478  1.1573  1.4357  1.3765
 5742TIP3   OH238860   5.527   0.454   7.724  0.3745  0.9529  0.0126
 5742TIP3    H138861   5.461   0.400   7.767  0.1064  0.5640 -0.8569
 5742TIP3    H238862   5.591   0.475   7.792  0.4948 -0.4837  0.3598
 5743TIP3   OH238863   6.928   2.305   7.933 -0.5691 -0.0521 -0.2671
 5743TIP3    H138864   6.928   2.397   7.910 -0.4471 -0.1969 -0.8635
 5743TIP3    H238865   6.966   2.261   7.857 -1.0524 -0.6370 -0.1828
 5744TIP3   OH238866   6.208   2.503   0.622 -0.0217  0.1829  0.1589
 5744TIP3    H138867   6.303   2.493   0.615 -0.2309 -2.4559 -0.0903
 5744TIP3    H238868   6.187   2.580   0.569  2.0001  1.1513  0.6710
 5745TIP3   OH238869   4.230   6.653   1.420 -0.0595  0.4485 -0.4139
 5745TIP3    H138870   4.148   6.675   1.464 -0.1126  0.9329 -0.7495
 5745TIP3    H238871   4.207   6.648   1.327  0.0378 -0.6363 -0.3844
 5746TIP3   OH238872   2.722   3.397   2.024 -0.2452 -0.0491 -0.1347
 5746TIP3    H138873   2.709   3.353   2.108 -1.3783 -0.0815 -0.3189
 5746TIP3    H238874   2.749   3.327   1.964 -0.4763 -0.2144 -0.0475
 5747TIP3   OH238875   5.292   3.665   2.673  0.2664  0.1114 -0.3519
 5747TIP3    H138876   5.362   3.632   2.729  0.6490 -0.8411 -1.3601
 5747TIP3    H238877   5.240   3.588   2.651 -0.5821  0.6665 -0.3459
 5748TIP3   OH238878   6.507   6.812   7.962  0.2338 -0.4463 -0.2226
 5748TIP3    H138879   6.448   6.861   7.905 -1.8184 -1.9557  0.4845
 5748TIP3    H238880   6.588   6.805   7.912  0.1732  2.4581 -0.8738
 5749TIP3   OH238881   5.199   4.928   1.708 -0.2630  0.1933 -0.1932
 5749TIP3    H138882   5.191   4.950   1.616  2.2651 -1.0492 -0.8054
 5749TIP3    H238883   5.216   5.012   1.752  0.6693  0.5443 -1.1874
 5750TIP3   OH238884   1.234   5.493   1.351  0.1570 -0.1941 -0.1268
 5750TIP3    H138885   1.282   5.516   1.431  2.1109 -0.9113 -1.0146
 5750TIP3    H238886   1.302   5.462   1.291 -1.4766 -1.3135 -1.4808
 5751TIP3   OH238887   3.359   0.394   0.793  0.5104 -0.4477  0.1961
 5751TIP3    H138888   3.293   0.337   0.834 -0.2855  1.4038  1.6629
 5751TIP3    H238889   3.311   0.439   0.724  0.0962  1.0745  1.4152
 5752TIP3   OH238890   3.576   5.252   8.051 -0.3317  0.0278 -0.3955
 5752TIP3    H138891   3.566   5.186   8.119 -1.0031  1.0656  0.5628
 5752TIP3    H238892   3.665   5.286   8.064 -0.4234  0.1572 -0.0789
 5753TIP3   OH238893   4.947   3.284   8.074  0.1237  0.1855  0.1811
 5753TIP3    H138894   4.975   3.294   7.983 -1.0558 -0.4274 -0.2717
 5753TIP3    H238895   4.859   3.248   8.068  0.8303 -1.9580  1.6018
 5754TIP3   OH238896   0.331   6.785   1.445  0.0483 -0.0284  0.9024
 5754TIP3    H138897   0.274   6.720   1.406 -0.4783  0.6606  0.4940
 5754TIP3    H238898   0.395   6.735   1.496  1.2222 -1.0267 -1.4013
 5755TIP3   OH238899   0.997   4.998   1.262  0.2698  0.0617  0.2822
 5755TIP3    H138900   1.023   4.976   1.351  1.3713  1.6515  0.3929
 5755TIP3    H238901   1.076   4.983   1.209 -0.0377  0.1885 -0.2231
 5756TIP3   OH238902   1.570   0.159   7.752  0.0966  0.5794 -0.3591
 5756TIP3    H138903   1.622   0.173   7.673  0.6052  0.9517  0.0380
 5756TIP3    H238904   1.631   0.118   7.813  0.2011  1.8796  0.4363
 5757TIP3   OH238905   3.277   0.053   8.078 -0.2465  0.0031  0.1337
 5757TIP3    H138906   3.234  -0.031   8.096  0.5574 -0.0680  1.9249
 5757TIP3    H238907   3.369   0.039   8.103  0.3827  0.7813 -1.6095
 5758TIP3   OH238908   5.028   6.889   2.449 -0.2179  0.4888  0.1916
 5758TIP3    H138909   5.107   6.864   2.401 -1.0530  1.3797 -1.7818
 5758TIP3    H238910   4.991   6.806   2.479  0.1940 -0.1591 -0.9946
 5759TIP3   OH238911   4.365   3.041   2.199  0.6007 -0.4284  0.2468
 5759TIP3    H138912   4.387   2.968   2.257  4.2097 -0.1551 -0.5540
 5759TIP3    H238913   4.403   3.017   2.115 -2.7987  0.0684 -1.5972
 5760TIP3   OH238914   3.590   1.076   2.560  0.4200  0.0778  0.0764
 5760TIP3    H138915   3.621   1.084   2.650 -1.2807 -1.2363  0.8469
 5760TIP3    H238916   3.517   1.138   2.554 -0.8664 -1.3453  0.3282
 5761TIP3   OH238917   5.258   0.449   1.727  0.1215  0.0406  0.2552
 5761TIP3    H138918   5.303   0.406   1.654  0.1781 -1.2910  1.0398
 5761TIP3    H238919   5.220   0.377   1.778 -0.0918  0.9481  1.4333
 5762TIP3   OH238920   1.404   5.524   8.260  0.0645 -0.1710 -0.1783
 5762TIP3    H138921   1.408   5.513   8.355 -1.7747 -0.3061 -0.0777
 5762TIP3    H238922   1.422   5.436   8.225  0.7615 -0.1162  0.0334
 5763TIP3   OH238923   3.661   2.934   0.525 -0.2193 -0.1795 -0.1842
 5763TIP3    H138924   3.688   2.887   0.447 -0.0911  0.1815 -0.3594
 5763TIP3    H238925   3.589   2.991   0.496 -1.9155 -1.8626  0.4765
 5764TIP3   OH238926   0.734   1.167   1.234  0.6688 -0.1402  0.2202
 5764TIP3    H138927   0.697   1.188   1.320  0.1275 -1.5708  0.3606
 5764TIP3    H238928   0.818   1.126   1.253  1.0749  0.5751  0.0075
 5765TIP3   OH238929   5.664   6.120   2.793  0.0187  0.6302 -0.1508
 5765TIP3    H138930   5.654   6.102   2.699 -1.3016 -1.9030  0.3851
 5765TIP3    H238931   5.715   6.201   2.797 -0.0533  0.9127 -3.0441
 5766TIP3   OH238932   0.958   5.858   1.257 -0.6955 -0.1662 -0.2878
 5766TIP3    H138933   1.014   5.923   1.214 -2.9991  0.7398 -2.1256
 5766TIP3    H238934   0.992   5.853   1.347  1.0722  1.7466 -0.7647
 5767TIP3   OH238935   6.820   3.305   0.800 -0.7133  0.6119 -0.0286
 5767TIP3    H138936   6.759   3.254   0.746 -1.2985  0.1492  1.0416
 5767TIP3    H238937   6.900   3.309   0.748 -0.8530 -0.8753 -0.4034
 5768TIP3   OH238938   1.319   5.200   2.351 -0.4126  0.6240 -0.5873
 5768TIP3    H138939   1.226   5.182   2.340 -0.2851 -1.2422  0.8938
 5768TIP3    H238940   1.337   5.179   2.442  1.8849 -1.2824 -1.3798
 5769TIP3   OH238941   5.050   1.475   8.165 -0.1025  0.0440 -0.1872
 5769TIP3    H138942   5.022   1.387   8.141 -1.0234  0.5309 -1.0119
 5769TIP3    H238943   4.976   1.511   8.215  0.0134  0.5415 -0.3661
 5770TIP3   OH238944   1.757   4.377   0.578  0.0889  0.3011  0.4492
 5770TIP3    H138945   1.833   4.348   0.529  0.0202 -0.5341  0.8203
 5770TIP3    H238946   1.792   4.408   0.661  0.0687  0.3331  0.4460
 5771TIP3   OH238947   0.968   5.832   0.519  0.2779 -0.1939 -0.1611
 5771TIP3    H138948   0.910   5.882   0.575 -1.5312 -0.8443 -1.3625
 5771TIP3    H238949   0.955   5.870   0.432  0.6407 -1.2324 -0.6781
 5772TIP3   OH238950   5.162   4.642   2.477 -0.1441 -0.1433  0.4368
 5772TIP3    H138951   5.248   4.678   2.500 -0.9630  0.9837  1.9185
 5772TIP3    H238952   5.118   4.715   2.433 -1.2093  0.1601  1.9322
 5773TIP3   OH238953   6.904   0.360   1.947  0.0595  0.7858 -0.0596
 5773TIP3    H138954   6.821   0.314   1.930  0.1157 -0.8128  3.2514
 5773TIP3    H238955   6.972   0.297   1.925  0.2774  0.8452  0.4282
 5774TIP3   OH238956   3.380   6.266   8.380  0.7125 -0.0306 -0.5441
 5774TIP3    H138957   3.389   6.261   8.475 -1.1676  0.9740 -0.2456
 5774TIP3    H238958   3.343   6.181   8.355 -0.0070  0.1641 -0.1776
 5775TIP3   OH238959   6.244   4.435   2.268  0.3070  0.2576 -0.2036
 5775TIP3    H138960   6.176   4.479   2.217 -0.4458  0.1901  0.7154
 5775TIP3    H238961   6.224   4.456   2.359  0.7218 -0.8720  0.1734
 5776TIP3   OH238962   5.344   4.916   7.747 -0.0324 -0.5499 -0.5183
 5776TIP3    H138963   5.393   4.901   7.667 -0.8605 -2.0162 -0.7858
 5776TIP3    H238964   5.366   4.843   7.804 -0.1283  0.0101  0.2665
 5777TIP3   OH238965   6.393   0.296   2.259  0.4997  0.0200  0.1674
 5777TIP3    H138966   6.348   0.354   2.319  1.3400 -0.1365  0.9649
 5777TIP3    H238967   6.343   0.214   2.262  1.5596 -0.6219  2.0984
 5778TIP3   OH238968   4.321   2.798   1.590 -0.7094  0.1276 -0.5801
 5778TIP3    H138969   4.253   2.733   1.572  0.0540 -0.8215 -0.1002
 5778TIP3    H238970   4.276   2.863   1.645 -0.7772 -1.5411  1.5015
 5779TIP3   OH238971   2.612   3.922   7.276 -0.0538  0.2773 -0.6228
 5779TIP3    H138972   2.583   3.833   7.257  0.6193  0.0769 -0.7423
 5779TIP3    H238973   2.601   3.969   7.193  0.0267  0.1822 -0.6872
 5780TIP3   OH238974   5.633   3.515   7.730  0.0046  0.0189  0.5265
 5780TIP3    H138975   5.674   3.440   7.688 -1.2643  0.9447 -2.7058
 5780TIP3    H238976   5.546   3.484   7.755 -0.4342  0.2788 -0.5987
 5781TIP3   OH238977   4.651   4.679   1.176 -0.3745 -0.3062 -0.0844
 5781TIP3    H138978   4.744   4.702   1.175  0.6700 -3.9161 -0.7007
 5781TIP3    H238979   4.628   4.676   1.269  0.5475 -0.7896  0.1369
 5782TIP3   OH238980   3.731   5.386   7.657  0.9418 -0.3958 -0.3104
 5782TIP3    H138981   3.677   5.321   7.702 -0.7818  0.5364 -0.9039
 5782TIP3    H238982   3.730   5.358   7.565  1.2222 -0.2030 -0.3735
 5783TIP3   OH238983   4.323   5.967   2.041  0.4828  0.9918  0.9399
 5783TIP3    H138984   4.300   5.875   2.023  0.5710  0.9425  1.0817
 5783TIP3    H238985   4.239   6.010   2.056  0.4900  0.7716  1.6404
 5784TIP3   OH238986   5.333   2.395   2.093  0.3146 -0.3512 -0.6189
 5784TIP3    H138987   5.238   2.394   2.097  0.3635 -1.4096  0.8805
 5784TIP3    H238988   5.354   2.477   2.047 -1.2289  1.3710  1.5196
 5785TIP3   OH238989   2.961   1.758   8.276 -0.0019  0.7629 -0.2729
 5785TIP3    H138990   3.013   1.766   8.196  1.4789  0.8786  0.6650
 5785TIP3    H238991   2.892   1.695   8.254  1.8363 -1.1283 -0.9229
 5786TIP3   OH238992   1.787   4.146   7.782 -0.1256 -0.5669 -0.0552
 5786TIP3    H138993   1.821   4.059   7.761 -0.1834 -0.1626 -1.9579
 5786TIP3    H238994   1.693   4.140   7.764 -0.2871 -0.3495  0.6791
 5787TIP3   OH238995   6.582   2.161   2.007  0.5688  0.0517  0.2692
 5787TIP3    H138996   6.589   2.255   1.992 -2.1032  0.0414 -1.7204
 5787TIP3    H238997   6.490   2.141   1.989  0.2901 -2.4849  3.5886
 5788TIP3   OH238998   1.493   0.925   7.981 -0.1186  0.1922 -0.1759
 5788TIP3    H138999   1.472   0.871   8.058  0.6785  0.7720  0.4655
 5788TIP3    H239000   1.535   0.864   7.920 -0.9691 -0.3241 -0.2641
 5789TIP3   OH239001   6.072   3.581   1.773  0.6593  0.2674 -0.2487
 5789TIP3    H139002   6.114   3.522   1.835 -0.4075 -0.0204  0.2263
 5789TIP3    H239003   5.980   3.585   1.801  0.5148  1.4542 -0.8033
 5790TIP3   OH239004   0.462   5.008   6.597  0.5366  0.2236  0.1292
 5790TIP3    H139005   0.553   5.018   6.626  0.3786  2.0364  0.1070
 5790TIP3    H239006   0.468   5.014   6.501  0.4207 -0.0334  0.1046
 5791TIP3   OH239007   5.617   3.151   0.508  0.4583 -0.0254 -0.5552
 5791TIP3    H139008   5.695   3.133   0.456  0.6311 -0.4500 -0.1554
 5791TIP3    H239009   5.641   3.126   0.597  0.9755  2.9203  0.2164
 5792TIP3   OH239010   3.213   6.749   6.589 -0.1513  0.4751 -0.0543
 5792TIP3    H139011   3.144   6.689   6.559  0.2154 -0.4876  0.9451
 5792TIP3    H239012   3.207   6.824   6.531 -1.5283  0.0570 -0.4762
 5793TIP3   OH239013   6.118   4.353   0.071 -0.3525 -0.3949  0.3647
 5793TIP3    H139014   6.187   4.294   0.101 -1.2685 -2.8084 -1.8578
 5793TIP3    H239015   6.165   4.427   0.034  0.8733 -0.1431  2.2702
 5794TIP3   OH239016   3.523   0.638   6.847  0.0153 -0.3695 -0.5450
 5794TIP3    H139017   3.511   0.678   6.761  0.3146 -1.0767 -0.9171
 5794TIP3    H239018   3.500   0.546   6.835 -0.0117 -0.4618  0.1493
 5795TIP3   OH239019   1.214   1.562   7.232 -0.0312  0.2786 -0.1034
 5795TIP3    H139020   1.179   1.542   7.319 -0.2419  2.0271  0.2452
 5795TIP3    H239021   1.138   1.560   7.174  0.1033 -0.8442 -0.2725
 5796TIP3   OH239022   1.969   5.570   8.094 -0.3209 -0.1027 -0.2445
 5796TIP3    H139023   1.977   5.658   8.131  0.7204  0.2374 -1.2219
 5796TIP3    H239024   2.056   5.532   8.103 -1.1603 -1.7066  1.7241
 5797TIP3   OH239025   6.805   3.596   0.095  0.6295  0.4164  0.1880
 5797TIP3    H139026   6.711   3.577   0.087  0.7605 -0.2537  0.1990
 5797TIP3    H239027   6.819   3.672   0.040  0.5134 -0.8708 -1.7030
 5798TIP3   OH239028   1.561   4.720   2.948 -0.3690  0.4546 -0.0529
 5798TIP3    H139029   1.627   4.651   2.945  1.3778  2.0401 -0.1440
 5798TIP3    H239030   1.483   4.682   2.907  0.4698 -1.4797  0.0592
 5799TIP3   OH239031   0.769   5.285   1.734 -0.0377  0.3353 -0.1196
 5799TIP3    H139032   0.795   5.319   1.819  2.1527  0.6053 -0.8414
 5799TIP3    H239033   0.708   5.351   1.699  1.1638  1.6088  0.1176
 5800TIP3   OH239034   3.630   3.034   0.240  0.0115  0.3810  0.2152
 5800TIP3    H139035   3.600   3.100   0.177  1.4061  0.7645 -0.0855
 5800TIP3    H239036   3.576   2.957   0.222 -0.1828  0.7516 -0.8989
 5801TIP3   OH239037   1.130   6.140   1.928  0.2621  0.0010 -0.0278
 5801TIP3    H139038   1.213   6.140   1.975  0.9067  0.5203 -1.1291
 5801TIP3    H239039   1.073   6.084   1.981  1.8272 -1.8117 -0.1400
 5802TIP3   OH239040   4.437   4.085   2.523  0.5647 -0.1200  0.7947
 5802TIP3    H139041   4.471   4.008   2.569  2.2641 -0.0281 -0.2648
 5802TIP3    H239042   4.462   4.159   2.579 -1.6892 -0.3005  2.1856
 5803TIP3   OH239043   5.448   1.229   1.803 -0.5634  0.4584  0.3474
 5803TIP3    H139044   5.538   1.199   1.790 -1.8830 -3.6058 -0.9165
 5803TIP3    H239045   5.435   1.296   1.736  1.2228  0.4741 -0.0283
 5804TIP3   OH239046   0.028   0.898   8.090 -0.1101 -0.0921 -0.6444
 5804TIP3    H139047   0.030   0.959   8.163  1.0589  1.6884 -2.0535
 5804TIP3    H239048  -0.065   0.883   8.073 -0.4049  0.6435  0.2646
 5805TIP3   OH239049   4.454   6.050   0.592 -0.3140 -0.1633  0.3259
 5805TIP3    H139050   4.377   6.017   0.638 -1.3319 -0.0532 -1.2540
 5805TIP3    H239051   4.516   5.977   0.594 -0.5227 -0.3368  1.3849
 5806TIP3   OH239052   4.477   3.982   7.728  0.3205  0.0488  0.2934
 5806TIP3    H139053   4.445   3.904   7.773  0.5263  0.5525  1.3310
 5806TIP3    H239054   4.510   3.949   7.644 -3.4291 -0.4480 -1.2054
 5807TIP3   OH239055   6.334   5.334   6.965  0.0713 -0.2259  0.4773
 5807TIP3    H139056   6.400   5.288   7.017  0.0281 -0.8330  0.0009
 5807TIP3    H239057   6.313   5.273   6.894 -1.4428 -0.3014  0.9655
 5808TIP3   OH239058   2.506   5.475   7.799  0.3185  0.3526  0.3913
 5808TIP3    H139059   2.499   5.561   7.757  0.7529 -0.5326 -1.6046
 5808TIP3    H239060   2.416   5.442   7.802  0.4847 -0.5859 -2.2270
 5809TIP3   OH239061   3.111   2.198   0.461 -1.0390 -0.1378  0.9769
 5809TIP3    H139062   3.205   2.210   0.470 -0.8205 -1.0335  0.1359
 5809TIP3    H239063   3.100   2.103   0.453 -1.9724 -0.0112  0.6313
 5810TIP3   OH239064   4.659   3.471   1.752  0.1255 -0.2415  0.0467
 5810TIP3    H139065   4.632   3.426   1.672 -2.0097 -0.7575  0.9998
 5810TIP3    H239066   4.755   3.469   1.749  0.1317 -0.1047 -2.5474
 5811TIP3   OH239067   2.491   1.084   8.301 -0.2604  0.0124  0.3521
 5811TIP3    H139068   2.422   1.043   8.250  0.1964 -0.6839  0.2739
 5811TIP3    H239069   2.555   1.014   8.315  0.9377  0.9091 -0.4779
 5812TIP3   OH239070   3.597   4.122   7.406 -0.2782  0.6343 -0.3826
 5812TIP3    H139071   3.528   4.179   7.373  0.5919  1.2536 -1.2175
 5812TIP3    H239072   3.617   4.063   7.333 -0.1420  0.2629 -0.0471
 5813TIP3   OH239073   5.352   5.417   7.273  0.3992 -0.1982  0.6265
 5813TIP3    H139074   5.364   5.428   7.179 -2.0119 -1.2239  0.1232
 5813TIP3    H239075   5.441   5.405   7.307  1.6461  3.3079 -0.9919
 5814TIP3   OH239076   3.570   0.416   2.805 -0.0451 -0.2939  0.1527
 5814TIP3    H139077   3.527   0.501   2.793  0.3218 -0.2041 -0.5477
 5814TIP3    H239078   3.590   0.413   2.899  0.6452  0.7507  0.0590
 5815TIP3   OH239079   5.717   4.095   0.225  0.3181  0.0694 -0.2510
 5815TIP3    H139080   5.775   4.033   0.180  2.5403  2.1764 -0.4763
 5815TIP3    H239081   5.767   4.123   0.302 -0.8562  1.2069  0.1250
 5816TIP3   OH239082   0.482   6.055   7.495 -0.1801 -0.0829 -0.3689
 5816TIP3    H139083   0.496   6.149   7.500  2.0380 -0.3956  0.5344
 5816TIP3    H239084   0.549   6.024   7.434  0.6526 -1.3012  1.0952
 5817TIP3   OH239085   6.941   6.872   0.165  0.0564  0.2059 -0.4135
 5817TIP3    H139086   6.955   6.951   0.113 -2.6814  1.3405  0.3601
 5817TIP3    H239087   6.846   6.866   0.174  0.2447 -2.4094  0.7675
 5818TIP3   OH239088   0.613   5.987   1.011  0.3968  0.4329  0.0790
 5818TIP3    H139089   0.570   5.969   0.928  2.2283  0.9914 -1.0420
 5818TIP3    H239090   0.667   6.063   0.995  1.7630 -0.1861  1.4243
 5819TIP3   OH239091   2.474   6.431   0.249 -0.0299 -0.7288 -0.0215
 5819TIP3    H139092   2.500   6.511   0.296  1.0380 -1.3524  0.4811
 5819TIP3    H239093   2.437   6.375   0.317 -1.8199 -0.2595 -0.5564
 5820TIP3   OH239094   3.184   1.288   2.742  0.3890 -0.0745  0.3489
 5820TIP3    H139095   3.123   1.216   2.722 -0.6342  0.8877 -0.1281
 5820TIP3    H239096   3.203   1.278   2.835 -0.9540 -0.0798  0.6511
 5821TIP3   OH239097   2.603   0.050   2.148 -0.4304 -0.4395  0.3277
 5821TIP3    H139098   2.597   0.134   2.194  1.2435 -0.1484  0.0961
 5821TIP3    H239099   2.560   0.066   2.064 -0.6420 -0.0021  0.5143
 5822TIP3   OH239100   4.179   4.208   8.052  0.0313  0.1752  0.0490
 5822TIP3    H139101   4.199   4.285   7.999 -0.9673 -0.2392 -0.9722
 5822TIP3    H239102   4.112   4.161   8.002  0.3812 -1.1883  0.8056
 5823TIP3   OH239103   1.236   5.828   0.857 -0.2022  0.4282  0.1583
 5823TIP3    H139104   1.238   5.831   0.761 -0.3107  0.5349  0.1592
 5823TIP3    H239105   1.146   5.803   0.878  0.1581 -0.8747  0.2051
 5824TIP3   OH239106   4.257   1.658   2.458 -0.4020 -0.4142 -0.1815
 5824TIP3    H139107   4.223   1.606   2.531 -1.4697  0.0001 -0.3696
 5824TIP3    H239108   4.321   1.718   2.498 -0.4066 -0.7207  0.2833
 5825TIP3   OH239109   6.714   1.155   0.799 -0.5836 -0.0621  0.1314
 5825TIP3    H139110   6.707   1.122   0.889 -0.1353 -1.2003 -0.2333
 5825TIP3    H239111   6.794   1.114   0.765 -1.7644 -1.1992 -1.4077
 5826TIP3   OH239112   2.097   0.447   0.473 -0.2214 -0.2282  0.1180
 5826TIP3    H139113   2.157   0.456   0.547 -0.4986 -1.3430  0.4954
 5826TIP3    H239114   2.119   0.362   0.435  0.2622  0.5278 -1.4055
 5827TIP3   OH239115   4.998   2.737   1.673 -0.4184 -0.1188  0.0394
 5827TIP3    H139116   4.975   2.814   1.726 -0.9094 -0.1528 -0.1236
 5827TIP3    H239117   5.081   2.761   1.631 -0.3730  0.1715  0.2965
 5828TIP3   OH239118   2.132   6.318   2.702 -0.5774 -0.1298  0.4356
 5828TIP3    H139119   2.209   6.288   2.750  0.0643 -1.3793 -1.2798
 5828TIP3    H239120   2.145   6.413   2.694  1.7871 -0.4930 -1.3633
 5829TIP3   OH239121   5.233   6.259   8.327 -0.4012 -0.2588  0.0918
 5829TIP3    H139122   5.149   6.237   8.288 -0.1062 -1.5571  0.1620
 5829TIP3    H239123   5.281   6.177   8.330 -0.0275 -0.0276  2.2560
 5830TIP3   OH239124   4.742   2.672   2.603  0.1037  0.4242 -0.7777
 5830TIP3    H139125   4.766   2.612   2.532 -0.7568 -1.2471  0.2876
 5830TIP3    H239126   4.650   2.654   2.620  0.6044 -0.2646  1.6790
 5831TIP3   OH239127   0.350   5.564   3.196 -0.0222  0.4869 -0.1184
 5831TIP3    H139128   0.410   5.496   3.226 -0.5676  0.2748  0.5186
 5831TIP3    H239129   0.382   5.644   3.238  0.5392  0.6072 -0.7607
 5832TIP3   OH239130   1.982   2.367   0.466 -0.1172  0.6195 -0.4532
 5832TIP3    H139131   2.045   2.430   0.431  0.4695  1.1358  1.3924
 5832TIP3    H239132   2.025   2.282   0.456  0.3830  0.8452 -0.2390
 5833TIP3   OH239133   5.960   1.715   2.498  0.3861  0.4579 -0.0025
 5833TIP3    H139134   5.886   1.743   2.445 -0.7472  1.5150  2.0686
 5833TIP3    H239135   5.935   1.629   2.531  1.3209 -0.4454 -1.5180
 5834TIP3   OH239136   5.650   2.077   1.561 -0.0313 -0.3411 -0.2267
 5834TIP3    H139137   5.600   1.995   1.560 -2.1375  0.8122  1.6258
 5834TIP3    H239138   5.676   2.091   1.470 -2.2462 -1.5487 -1.1107
 5835TIP3   OH239139   3.099   5.228   7.585 -0.2449  0.3183  0.2551
 5835TIP3    H139140   3.131   5.277   7.661  0.4000 -0.6720  0.6453
 5835TIP3    H239141   3.027   5.281   7.550 -0.9195  0.5434  1.8915
 5836TIP3   OH239142   2.682   3.847   7.765  0.1667  0.3245 -0.4225
 5836TIP3    H139143   2.751   3.860   7.700  1.8107 -1.2086  0.9147
 5836TIP3    H239144   2.623   3.783   7.725  0.0081  0.9297 -1.1888
 5837TIP3   OH239145   2.753   5.665   1.100 -0.5542  0.3807 -0.0522
 5837TIP3    H139146   2.826   5.608   1.126  0.1211  1.4943  0.5624
 5837TIP3    H239147   2.795   5.736   1.051 -1.2448  0.9567  0.1824
 5838TIP3   OH239148   1.588   6.325   8.313 -0.0216  0.2302 -0.3091
 5838TIP3    H139149   1.651   6.359   8.376  0.7334 -0.3264 -0.7387
 5838TIP3    H239150   1.604   6.375   8.233  0.2053 -0.2402 -0.5606
 5839TIP3   OH239151   6.535   5.435   0.586 -0.4412  0.5723  0.2541
 5839TIP3    H139152   6.528   5.509   0.525  1.3284 -2.2753 -3.8556
 5839TIP3    H239153   6.616   5.452   0.635 -0.8489  2.0064  0.4872
 5840TIP3   OH239154   6.721   3.746   7.326 -0.0504 -0.0023 -0.3254
 5840TIP3    H139155   6.808   3.707   7.315 -0.2071 -0.2467 -0.7300
 5840TIP3    H239156   6.664   3.671   7.343 -0.0685  0.2243  0.6455
 5841TIP3   OH239157   2.684   4.238   0.606  0.0684  0.0404 -0.3867
 5841TIP3    H139158   2.644   4.324   0.615 -0.2910 -0.2867  1.7430
 5841TIP3    H239159   2.771   4.247   0.644  0.5347 -0.2332 -1.3582
 5842TIP3   OH239160   3.355   1.874   7.951 -0.3506 -0.4007 -0.2481
 5842TIP3    H139161   3.324   1.883   7.861 -0.4990 -1.4489 -0.3102
 5842TIP3    H239162   3.282   1.835   7.999  0.1920 -1.1093  0.0235
 5843TIP3   OH239163   5.146   0.531   0.211  0.4849  0.1662 -0.1188
 5843TIP3    H139164   5.137   0.625   0.228 -1.9844 -0.3474  2.1652
 5843TIP3    H239165   5.114   0.520   0.122 -0.0248  1.4060 -0.1067
 5844TIP3   OH239166   1.183   5.152   2.101 -0.0632 -0.0258 -0.1268
 5844TIP3    H139167   1.211   5.073   2.055  2.4286  1.9560 -2.3741
 5844TIP3    H239168   1.244   5.160   2.174  0.2095  0.2505 -0.3856
 5845TIP3   OH239169   0.463   6.561   1.329  0.2094  0.0717  0.0888
 5845TIP3    H139170   0.535   6.622   1.346  2.7366 -2.4540 -0.7441
 5845TIP3    H239171   0.460   6.555   1.234  0.3415 -1.3993  0.1608
 5846TIP3   OH239172   5.817   2.564   8.317  0.4786 -0.2309 -0.3003
 5846TIP3    H139173   5.784   2.571   8.227  1.1534  0.9325 -0.4792
 5846TIP3    H239174   5.858   2.648   8.334  0.8430 -0.6333  0.9215
 5847TIP3   OH239175   1.616   4.487   7.840  0.7354 -0.0376  0.1086
 5847TIP3    H139176   1.521   4.472   7.838  0.6390  0.4350  0.6956
 5847TIP3    H239177   1.650   4.416   7.894  0.8320 -0.7183 -0.8204
 5848TIP3   OH239178   1.560   5.454   7.170  0.1343  0.1505 -0.0437
 5848TIP3    H139179   1.606   5.380   7.129 -0.0983  0.7322 -1.3828
 5848TIP3    H239180   1.507   5.413   7.239 -1.8422 -1.3150 -2.2625
 5849TIP3   OH239181   2.595   2.050   1.114  0.1246 -0.1310 -0.0577
 5849TIP3    H139182   2.575   1.966   1.072  0.0523 -0.0772 -0.1316
 5849TIP3    H239183   2.537   2.052   1.190  1.2294 -0.8496  0.8427
 5850TIP3   OH239184   0.546   5.425   1.202 -0.5135 -0.0633 -0.4420
 5850TIP3    H139185   0.504   5.445   1.286  1.4277  0.3013  0.5203
 5850TIP3    H239186   0.475   5.395   1.146 -1.9447  0.0303  1.2183
 5851TIP3   OH239187   2.183   2.494   7.161  0.3784  0.0752  0.2964
 5851TIP3    H139188   2.152   2.583   7.182  1.8566  0.6539  0.1731
 5851TIP3    H239189   2.262   2.484   7.214  1.8650 -0.0299 -1.8229
 5852TIP3   OH239190   1.176   6.903   2.081 -0.0296  0.5553  0.4400
 5852TIP3    H139191   1.265   6.939   2.092 -0.0654  1.9054 -2.6191
 5852TIP3    H239192   1.187   6.832   2.018 -1.0550  0.4632  0.3604
 5853TIP3   OH239193   5.076   0.605   1.560 -0.4843 -0.0068  0.2820
 5853TIP3    H139194   5.070   0.654   1.478 -1.6355 -0.8355 -0.1628
 5853TIP3    H239195   5.116   0.522   1.535  0.7822  0.3988  0.8951
 5854TIP3   OH239196   1.989   3.927   8.345  0.2764  0.2289 -0.0884
 5854TIP3    H139197   2.069   3.895   8.303 -0.6667  1.4818 -3.1428
 5854TIP3    H239198   2.017   4.002   8.398  1.3964 -0.8208  0.8537
 5855TIP3   OH239199   4.047   1.351   8.249 -0.1019  0.0726  0.2198
 5855TIP3    H139200   4.063   1.273   8.196 -0.4406 -0.8551  1.4252
 5855TIP3    H239201   4.104   1.418   8.212  0.3090 -0.7938 -0.7540
 5856TIP3   OH239202   3.457   3.052   2.121  0.2856  0.5911 -0.4952
 5856TIP3    H139203   3.482   3.081   2.210 -0.3261  0.9129 -0.4212
 5856TIP3    H239204   3.401   3.122   2.089 -1.3167 -0.5513 -0.2853
 5857TIP3   OH239205   0.828   0.827   7.673 -0.1790  0.2461  0.3955
 5857TIP3    H139206   0.753   0.884   7.657  0.9908  1.1426 -2.8284
 5857TIP3    H239207   0.795   0.738   7.658 -0.5866  0.6558 -1.3850
 5858TIP3   OH239208   3.350   5.244   1.981 -0.4342 -0.2681 -0.2048
 5858TIP3    H139209   3.293   5.264   1.907 -0.2232 -2.6140 -1.0946
 5858TIP3    H239210   3.292   5.202   2.045 -0.3189  0.3485  0.3085
 5859TIP3   OH239211   2.278   0.803   2.674  0.6284 -0.1588 -0.3919
 5859TIP3    H139212   2.247   0.820   2.764  0.7022  1.0028 -0.5670
 5859TIP3    H239213   2.206   0.834   2.619  0.8449 -0.2825 -0.7407
 5860TIP3   OH239214   3.229   6.649   0.241 -0.2712 -0.2692 -0.0386
 5860TIP3    H139215   3.270   6.564   0.223 -0.6686 -0.7728  1.2679
 5860TIP3    H239216   3.152   6.651   0.183  0.4988 -0.1699 -1.0850
 5861TIP3   OH239217   1.632   6.192   2.727 -0.3853 -0.7209  0.1773
 5861TIP3    H139218   1.637   6.288   2.726 -0.9989 -0.6801 -1.4850
 5861TIP3    H239219   1.538   6.174   2.731 -0.2425 -1.2812  1.3989
 5862TIP3   OH239220   3.717   2.199   1.235  0.2854  0.2633  0.1080
 5862TIP3    H139221   3.743   2.140   1.163  0.8578  0.4161  0.1889
 5862TIP3    H239222   3.673   2.142   1.298 -0.3066  0.1422 -0.4055
 5863TIP3   OH239223   2.516   4.121   8.308 -0.0027  0.1230 -0.4187
 5863TIP3    H139224   2.447   4.176   8.270 -0.8399 -0.8779 -0.3857
 5863TIP3    H239225   2.469   4.047   8.346  1.0429 -0.1931  0.2801
 5864TIP3   OH239226   4.507   0.406   1.036  0.2081  0.0140 -0.9955
 5864TIP3    H139227   4.503   0.332   0.975 -0.2280 -1.2966  0.5575
 5864TIP3    H239228   4.464   0.374   1.115  1.4097  1.3897  0.2686
 5865TIP3   OH239229   1.999   5.396   0.395  0.1852  0.4383 -0.1310
 5865TIP3    H139230   1.964   5.463   0.336 -1.2768 -0.6940 -0.6009
 5865TIP3    H239231   2.094   5.401   0.383 -0.0058  1.1131 -1.6039
 5866TIP3   OH239232   0.148   4.223   0.013  0.7254  0.0628 -0.8075
 5866TIP3    H139233   0.116   4.174   0.089  0.2981  0.1156 -0.9527
 5866TIP3    H239234   0.169   4.156  -0.052 -0.7495  0.0988 -1.3546
 5867TIP3   OH239235   4.569   3.624   8.359 -0.1759 -0.2224 -0.1689
 5867TIP3    H139236   4.640   3.561   8.346  0.7841  1.3073 -3.3731
 5867TIP3    H239237   4.493   3.570   8.381  1.1577 -2.2484 -0.2285
 5868TIP3   OH239238   0.152   2.035   2.547  0.4043 -0.4005 -0.4114
 5868TIP3    H139239   0.190   1.984   2.618  0.4535  0.7219  0.3931
 5868TIP3    H239240   0.061   2.050   2.573  0.3328 -0.2604 -0.7349
 5869TIP3   OH239241   4.516   0.633   8.133  0.2864  0.4564  0.3200
 5869TIP3    H139242   4.503   0.622   8.227  1.4266  0.7007  0.5126
 5869TIP3    H239243   4.444   0.583   8.094  0.2402 -0.2824  1.3044
 5870TIP3   OH239244   1.368   3.074   7.889  0.3086 -0.0893 -0.0983
 5870TIP3    H139245   1.399   3.025   7.965 -0.9343 -0.2223  0.3408
 5870TIP3    H239246   1.363   3.165   7.918 -0.6596 -0.2110  0.1674
 5871TIP3   OH239247   2.335   1.596   1.405 -0.1888  0.6067 -0.8261
 5871TIP3    H139248   2.337   1.520   1.347 -0.0382 -0.4772  0.5540
 5871TIP3    H239249   2.401   1.578   1.472  1.6426  3.1128 -1.8131
 5872TIP3   OH239250   3.396   5.365   7.612 -0.5126 -0.1476 -0.5056
 5872TIP3    H139251   3.411   5.332   7.523  0.1894 -0.5556 -0.2470
 5872TIP3    H239252   3.431   5.296   7.669  0.7548  0.9208  0.0530
 5873TIP3   OH239253   5.636   2.399   7.154  0.1395 -0.0942  0.1341
 5873TIP3    H139254   5.618   2.471   7.214  1.0813 -0.3799  0.7806
 5873TIP3    H239255   5.728   2.409   7.130  0.3679 -1.2380  0.4542
 5874TIP3   OH239256   2.258   3.075   1.773 -0.4573 -0.0735  0.0674
 5874TIP3    H139257   2.277   3.041   1.861 -1.9849  0.8593  0.7970
 5874TIP3    H239258   2.254   2.997   1.718 -0.8626 -0.8188  1.1035
 5875TIP3   OH239259   2.052   0.639   2.176  0.1957  0.3033 -0.4811
 5875TIP3    H139260   2.097   0.715   2.212 -2.3298  1.3454  0.7226
 5875TIP3    H239261   2.066   0.569   2.240 -0.1425  0.7272  0.0659
 5876TIP3   OH239262   6.583   3.033   8.401 -0.1620  0.7053 -0.3351
 5876TIP3    H139263   6.544   2.963   8.453  0.0975  0.1368 -0.8856
 5876TIP3    H239264   6.509   3.090   8.378 -0.4252  0.4462 -0.1422
 5877TIP3   OH239265   6.543   0.138   0.968 -0.6284 -0.2197 -0.0367
 5877TIP3    H139266   6.629   0.180   0.966  0.4490 -2.3232 -0.3277
 5877TIP3    H239267   6.488   0.198   1.020  0.6568  1.7339 -0.8290
 5878TIP3   OH239268   2.589   6.455   1.033  0.0221  0.2172  0.1552
 5878TIP3    H139269   2.671   6.486   0.995 -1.1385 -1.1498 -4.0724
 5878TIP3    H239270   2.539   6.535   1.052  1.7899  1.0203  1.6607
 5879TIP3   OH239271   6.078   5.876   2.642 -0.3273  0.0482 -0.1679
 5879TIP3    H139272   6.172   5.878   2.660 -0.4776 -1.9284  1.0520
 5879TIP3    H239273   6.038   5.910   2.721 -0.7296 -2.0823  0.5860
 5880TIP3   OH239274   1.589   6.409   2.319 -0.1497 -0.5806  0.1236
 5880TIP3    H139275   1.643   6.439   2.392 -1.2188  0.2810  0.5921
 5880TIP3    H239276   1.648   6.409   2.243  0.8232 -0.9257  0.8662
 5881TIP3   OH239277   3.006   6.619   1.312  0.0705  0.5032 -0.6013
 5881TIP3    H139278   3.011   6.620   1.216  0.0012 -0.9541 -0.6463
 5881TIP3    H239279   3.095   6.642   1.340  1.2322 -2.7481 -1.1197
 5882TIP3   OH239280   2.268   4.450   1.667  0.6656 -0.1528  0.0404
 5882TIP3    H139281   2.301   4.370   1.707  1.8893  1.7228  3.2130
 5882TIP3    H239282   2.189   4.471   1.717  2.5318  2.5482  2.2625
 5883TIP3   OH239283   6.343   5.386   7.765  0.1478  0.0542  0.0033
 5883TIP3    H139284   6.372   5.475   7.744 -0.5533  0.0432 -1.0980
 5883TIP3    H239285   6.263   5.397   7.816  0.7462  0.0539  0.9687
 5884TIP3   OH239286   4.263   2.508   1.128  0.5266 -0.2170  0.2890
 5884TIP3    H139287   4.239   2.562   1.053 -1.8173 -0.6187  0.6676
 5884TIP3    H239288   4.229   2.556   1.204 -2.5419 -2.5519  0.5645
 5885TIP3   OH239289   3.768   0.358   1.415  0.1182  0.4892 -0.3828
 5885TIP3    H139290   3.850   0.388   1.455 -0.2072 -1.3763  1.8296
 5885TIP3    H239291   3.718   0.438   1.402  0.9067  1.3485  1.4895
 5886TIP3   OH239292   3.134   6.310   7.509  0.5093  0.2673 -0.1444
 5886TIP3    H139293   3.158   6.351   7.592 -2.4712  1.0781  0.4367
 5886TIP3    H239294   3.128   6.382   7.447  2.6498 -0.3279 -1.1120
 5887TIP3   OH239295   5.727   3.651   7.450  0.1586  0.8893 -0.5528
 5887TIP3    H139296   5.640   3.620   7.427  0.3439  1.0637 -1.5434
 5887TIP3    H239297   5.746   3.610   7.534 -1.1651  1.4308  0.0285
 5888TIP3   OH239298   6.180   6.152   7.432  0.4289 -0.5896  0.5914
 5888TIP3    H139299   6.165   6.150   7.527 -1.5555 -2.5698  0.3218
 5888TIP3    H239300   6.226   6.070   7.414  1.9432  0.3595 -0.0604
 5889TIP3   OH239301   2.340   5.240   8.044  0.3288  0.4428  0.1505
 5889TIP3    H139302   2.404   5.223   7.974  1.4601  1.6125  0.8473
 5889TIP3    H239303   2.255   5.227   8.003  0.9739  0.8823 -1.3896
 5890TIP3   OH239304   5.122   4.293   1.019 -0.0262 -0.2398 -0.4680
 5890TIP3    H139305   5.032   4.315   0.994  0.0314  0.8918  0.2683
 5890TIP3    H239306   5.114   4.208   1.062 -0.2428 -1.8164 -3.4058
 5891TIP3   OH239307   6.451   4.619   7.252 -0.1840  0.2668 -0.7192
 5891TIP3    H139308   6.387   4.581   7.312 -1.4819  2.8893 -0.2997
 5891TIP3    H239309   6.532   4.622   7.303 -0.7840  0.6876  0.2482
 5892TIP3   OH239310   4.195   1.357   7.722 -0.1857  0.1387  0.5276
 5892TIP3    H139311   4.122   1.387   7.667 -0.9853 -0.4810  1.2163
 5892TIP3    H239312   4.263   1.331   7.660 -1.7314 -2.2345 -0.2846
 5893TIP3   OH239313   2.152   1.397   7.561 -0.6624 -0.0386 -0.1623
 5893TIP3    H139314   2.217   1.466   7.550 -0.0536 -0.4443  0.7938
 5893TIP3    H239315   2.077   1.426   7.508 -0.1526  1.0006 -0.3352
 5894TIP3   OH239316   1.848   1.233   0.146 -0.2551 -0.2579  0.1131
 5894TIP3    H139317   1.833   1.267   0.058 -1.0515 -0.7276  0.0590
 5894TIP3    H239318   1.779   1.168   0.159  0.0069 -0.3764  0.9876
 5895TIP3   OH239319   3.019   6.667   0.078  0.2719 -0.2726  0.0095
 5895TIP3    H139320   3.029   6.582   0.034  0.4766 -0.6855  0.8369
 5895TIP3    H239321   3.053   6.731   0.015 -2.4943 -0.4361 -1.8465
 5896TIP3   OH239322   2.202   0.288   2.619  0.1944  0.0097 -0.5518
 5896TIP3    H139323   2.256   0.366   2.607 -0.8910  0.9821  0.5123
 5896TIP3    H239324   2.153   0.305   2.700  0.6060 -2.1988  0.2460
 5897TIP3   OH239325   4.186   5.409   2.680  0.1858  1.1358  0.5115
 5897TIP3    H139326   4.213   5.325   2.718 -0.5977  0.3207 -0.6917
 5897TIP3    H239327   4.268   5.457   2.668  1.0679 -0.7683 -1.8573
 5898TIP3   OH239328   1.957   4.579   1.182 -0.5199  0.1725  0.2028
 5898TIP3    H139329   1.894   4.548   1.247 -2.4828  1.7329 -0.8279
 5898TIP3    H239330   1.977   4.502   1.129 -2.4353 -0.1823 -0.0849
 5899TIP3   OH239331   3.943   1.322   1.383  0.1559  0.6506 -0.5670
 5899TIP3    H139332   3.988   1.406   1.377  0.9911  0.1839 -1.1441
 5899TIP3    H239333   3.991   1.274   1.452  0.8454 -0.0082 -1.4767
 5900TIP3   OH239334   5.746   2.486   0.788 -0.2752 -0.5891 -0.0878
 5900TIP3    H139335   5.793   2.556   0.741 -1.0444  0.1603  0.2219
 5900TIP3    H239336   5.748   2.513   0.879 -0.5107 -1.0191  0.0460
 5901TIP3   OH239337   5.176   0.509   0.737  0.6100 -0.3987 -0.0569
 5901TIP3    H139338   5.120   0.586   0.743 -0.1501 -1.0368  1.5208
 5901TIP3    H239339   5.167   0.481   0.646  0.3151  0.9281 -0.4627
 5902TIP3   OH239340   6.837   0.155   1.218  0.2700  0.3364  0.6259
 5902TIP3    H139341   6.836   0.146   1.123  0.5776 -2.4713  0.8037
 5902TIP3    H239342   6.814   0.247   1.234 -0.8136  0.6331 -2.1082
 5903TIP3   OH239343   0.419   3.701   0.132  0.3868  0.6119 -0.4689
 5903TIP3    H139344   0.363   3.776   0.113 -0.5298 -0.2040 -1.0885
 5903TIP3    H239345   0.428   3.655   0.049  1.0853  0.1256 -0.1397
 5904TIP3   OH239346   3.650   2.626   2.718  0.1455 -0.3788  0.4244
 5904TIP3    H139347   3.638   2.715   2.687 -0.3421 -1.0307 -1.3931
 5904TIP3    H239348   3.573   2.607   2.771  0.3545  0.3173  0.9984
 5905TIP3   OH239349   5.239   6.552   7.817 -0.5272 -0.0484  0.4847
 5905TIP3    H139350   5.276   6.633   7.852  2.6081 -1.3100  0.3390
 5905TIP3    H239351   5.193   6.513   7.891 -2.5245  1.9964  0.4348
 5906TIP3   OH239352   5.921   6.202   7.356 -0.4246  0.1442  0.0244
 5906TIP3    H139353   5.941   6.188   7.263 -0.8539  0.0025 -0.0478
 5906TIP3    H239354   6.004   6.186   7.401  0.1329  1.5285 -0.4557
 5907TIP3   OH239355   4.060   2.060   2.689  0.0211 -0.4585 -0.1880
 5907TIP3    H139356   4.048   2.152   2.713  0.4663  0.1612 -2.1070
 5907TIP3    H239357   4.154   2.045   2.695  0.3029  0.0327 -2.3177
 5908TIP3   OH239358   2.212   5.819   3.479 -0.3639  0.3038 -0.0982
 5908TIP3    H139359   2.138   5.761   3.465  0.2121 -0.8228  1.2797
 5908TIP3    H239360   2.285   5.761   3.500  0.5639  1.4567 -0.0039
 5909TIP3   OH239361   4.125   2.488   0.833  0.3619 -0.1205  0.4947
 5909TIP3    H139362   4.216   2.466   0.814  0.3610  1.2304 -1.3414
 5909TIP3    H239363   4.130   2.571   0.879  0.1091 -1.0559  2.3005
 5910TIP3   OH239364   5.285   1.805   0.976  0.3204 -0.1497 -0.0092
 5910TIP3    H139365   5.264   1.891   0.939 -1.7643 -0.3501  0.5806
 5910TIP3    H239366   5.233   1.801   1.057 -0.7266 -2.4699 -0.7232
 5911TIP3   OH239367   6.832   4.803   1.682  0.5242  0.0328  0.6785
 5911TIP3    H139368   6.792   4.723   1.717 -0.5370  0.7820  1.2521
 5911TIP3    H239369   6.925   4.783   1.674  0.3559 -1.0715  1.3292
 5912TIP3   OH239370   2.474   0.365   7.705 -0.0398 -0.2090 -0.1281
 5912TIP3    H139371   2.437   0.436   7.653 -1.9349 -1.2548 -0.3028
 5912TIP3    H239372   2.569   0.374   7.694 -0.3180  0.3022 -2.8478
 5913TIP3   OH239373   1.879   6.814   8.345  0.3768 -0.1585  0.5566
 5913TIP3    H139374   1.968   6.783   8.326  0.3224 -0.0383  0.1014
 5913TIP3    H239375   1.824   6.736   8.334  0.1504  0.2226 -1.2486
 5914TIP3   OH239376   3.716   3.222   0.872 -0.3147  0.0691 -0.0351
 5914TIP3    H139377   3.801   3.255   0.843 -1.2817 -0.2492 -3.8664
 5914TIP3    H239378   3.720   3.128   0.855 -1.3228 -0.0016  0.0283
 5915TIP3   OH239379   6.183   5.301   2.937  0.4216  0.4340  0.3915
 5915TIP3    H139380   6.200   5.395   2.948  0.2472  0.4984  0.1169
 5915TIP3    H239381   6.091   5.296   2.912 -0.3370  0.0169  3.0192
 5916TIP3   OH239382   6.062   1.862   1.993  0.1724 -0.0729  0.1841
 5916TIP3    H139383   6.037   1.895   2.080  1.8386 -1.9845  1.4709
 5916TIP3    H239384   6.142   1.812   2.008  1.2117  0.5221 -2.6957
 5917TIP3   OH239385   2.253   6.670   0.837  0.3941 -0.0587  0.0108
 5917TIP3    H139386   2.183   6.623   0.792 -1.1319  0.7718  1.3939
 5917TIP3    H239387   2.211   6.705   0.916  2.4245  0.3525  0.9630
 5918TIP3   OH239388   1.561   1.516   0.273 -0.1880 -1.3972  0.2919
 5918TIP3    H139389   1.482   1.570   0.273 -0.6857 -2.1075 -0.0029
 5918TIP3    H239390   1.632   1.577   0.294 -0.6706 -0.5402 -0.4900
 5919TIP3   OH239391   0.765   6.065   1.639 -0.1784 -0.1414  0.2636
 5919TIP3    H139392   0.728   5.983   1.605 -1.2926  0.2432  0.5022
 5919TIP3    H239393   0.739   6.067   1.731 -2.8271  1.8592 -0.3925
 5920TIP3   OH239394   4.455   4.244   0.584  0.9652 -0.5286 -0.0520
 5920TIP3    H139395   4.423   4.225   0.496  1.5854  1.3276 -0.7146
 5920TIP3    H239396   4.382   4.221   0.642 -0.5134  0.8334 -1.2828
 5921TIP3   OH239397   3.107   4.430   2.564 -0.2010  0.0006  0.2723
 5921TIP3    H139398   3.094   4.525   2.569  1.0843  0.2260 -0.1567
 5921TIP3    H239399   3.019   4.394   2.563 -0.7440  1.2483 -0.5570
 5922TIP3   OH239400   5.159   2.610   8.334 -0.3837  0.0882  0.1289
 5922TIP3    H139401   5.081   2.651   8.372  0.8542  1.0042  1.7970
 5922TIP3    H239402   5.218   2.597   8.408  1.6938  0.8494 -1.3075
 5923TIP3   OH239403   2.127   0.771   8.047 -0.4479  0.1715  0.1065
 5923TIP3    H139404   2.201   0.740   7.994  1.2133 -0.2393  2.5215
 5923TIP3    H239405   2.050   0.734   8.004  0.8974 -1.0959 -1.3406
 5924TIP3   OH239406   5.301   2.574   0.161 -0.2275  0.3086 -0.4901
 5924TIP3    H139407   5.389   2.576   0.123 -0.4975 -0.7318 -1.2201
 5924TIP3    H239408   5.301   2.644   0.226  1.6022 -0.5729  0.5294
 5925TIP3   OH239409   0.947   2.942   1.994  0.5952 -1.2944  0.2418
 5925TIP3    H139410   1.019   2.880   1.992  1.2543 -0.5943  1.2511
 5925TIP3    H239411   0.946   2.976   2.084 -0.2605 -0.4491 -0.0583
 5926TIP3   OH239412   1.495   5.105   7.094  0.5302  0.0837  0.2687
 5926TIP3    H139413   1.418   5.159   7.076  0.4101 -0.2126 -0.1272
 5926TIP3    H239414   1.564   5.168   7.115  0.7431  0.4898 -1.4883
 5927TIP3   OH239415   0.683   1.639   0.283  0.4055  0.2672 -0.4393
 5927TIP3    H139416   0.601   1.594   0.263 -1.5065  2.5416  1.5423
 5927TIP3    H239417   0.748   1.569   0.287 -1.6746 -1.8372 -0.8027
 5928TIP3   OH239418   5.392   5.787   2.863  0.3465 -0.0436  0.2851
 5928TIP3    H139419   5.410   5.773   2.771 -0.3350 -0.7598  0.2523
 5928TIP3    H239420   5.462   5.844   2.893  0.1600  0.8156 -0.8469
 5929TIP3   OH239421   4.833   3.104   0.173 -0.0487 -0.4177 -0.1797
 5929TIP3    H139422   4.782   3.027   0.198 -0.5656 -0.3260 -0.9311
 5929TIP3    H239423   4.920   3.087   0.209 -0.5833 -0.6033  1.0601
 5930TIP3   OH239424   4.154   6.051   1.376  0.5161  0.5405  0.0767
 5930TIP3    H139425   4.168   6.105   1.299 -2.3582  0.5201 -0.5717
 5930TIP3    H239426   4.151   6.113   1.449  0.8205  0.8252 -0.1524
 5931TIP3   OH239427   5.879   1.112   0.380 -0.7126 -0.2708 -0.2936
 5931TIP3    H139428   5.839   1.173   0.442  0.9989  0.8495 -0.2246
 5931TIP3    H239429   5.946   1.067   0.431  0.5042  0.4338 -1.1936
 5932TIP3   OH239430   2.736   4.830   7.554 -0.4723  0.0032  0.1286
 5932TIP3    H139431   2.732   4.794   7.465 -1.0845 -1.0782  0.5657
 5932TIP3    H239432   2.683   4.910   7.551 -1.5725 -0.7132 -0.1954
 5933TIP3   OH239433   1.043   0.658   1.974 -0.2211 -0.4054 -0.5783
 5933TIP3    H139434   1.135   0.678   1.988 -0.4749  0.5753 -0.2306
 5933TIP3    H239435   1.008   0.736   1.929 -1.3068  0.0958  1.0648
 5934TIP3   OH239436   2.847   0.028   2.048  0.1693  0.2316 -0.0142
 5934TIP3    H139437   2.773  -0.000   2.102  1.4861  0.4745  2.0641
 5934TIP3    H239438   2.862  -0.045   1.988 -1.9033  0.3196 -0.7331
 5935TIP3   OH239439   4.341   1.572   7.471 -0.0200  0.3783 -0.1035
 5935TIP3    H139440   4.342   1.525   7.388  0.8857  1.0238 -0.4758
 5935TIP3    H239441   4.360   1.663   7.447 -1.1828  0.8354  0.6614
 5936TIP3   OH239442   6.345   2.726   2.464 -0.3107  0.4814 -0.4720
 5936TIP3    H139443   6.315   2.662   2.529 -3.0182 -1.2992 -3.2458
 5936TIP3    H239444   6.421   2.684   2.423 -1.8084 -0.9059 -1.9748
 5937TIP3   OH239445   4.730   5.545   1.550 -0.5811  0.3772 -0.1576
 5937TIP3    H139446   4.717   5.554   1.644 -0.1714 -0.9321  0.0437
 5937TIP3    H239447   4.801   5.606   1.530 -0.4276  0.4055  0.4552
 5938TIP3   OH239448   0.625   3.236   0.085 -0.3623 -0.8615  0.6239
 5938TIP3    H139449   0.622   3.148   0.123  2.2947 -0.9875  0.7508
 5938TIP3    H239450   0.584   3.292   0.151  0.3767 -1.6547  1.7899
 5939TIP3   OH239451   6.486   4.507   6.958 -0.2859 -0.3479 -0.5663
 5939TIP3    H139452   6.565   4.553   6.988  0.0008 -1.5792  0.6621
 5939TIP3    H239453   6.426   4.514   7.033 -1.4106  0.6704 -1.5254
 5940TIP3   OH239454   5.412   1.045   0.799  0.3982 -0.7879 -0.4080
 5940TIP3    H139455   5.476   0.986   0.760  1.1973  0.0132 -0.3681
 5940TIP3    H239456   5.428   1.129   0.755 -0.3779 -0.4879 -0.1261
 5941TIP3   OH239457   2.796   1.388   6.765  0.2761 -0.4538  0.5024
 5941TIP3    H139458   2.876   1.372   6.814 -0.5258 -0.4773  1.8395
 5941TIP3    H239459   2.729   1.403   6.831 -0.3812  1.9310 -0.5888
 5942TIP3   OH239460   0.938   6.691   0.392 -0.2811  0.0006 -0.7391
 5942TIP3    H139461   0.890   6.622   0.347 -0.3177 -0.0090 -0.6871
 5942TIP3    H239462   1.030   6.671   0.378 -0.2260 -1.3098  1.1090
 5943TIP3   OH239463   2.758   2.282   1.739  0.0318  0.5229  0.3007
 5943TIP3    H139464   2.744   2.325   1.823  1.4242  0.9370  0.3513
 5943TIP3    H239465   2.849   2.302   1.717 -0.6569  1.5445 -1.9384
 5944TIP3   OH239466   2.279   5.527   8.073  0.1780  0.1392  0.1133
 5944TIP3    H139467   2.307   5.581   7.999  1.3797  0.9550  1.1119
 5944TIP3    H239468   2.303   5.437   8.048 -0.3504  0.2660 -0.8835
 5945TIP3   OH239469   0.941   3.941   6.843 -0.0837  0.0556 -0.1999
 5945TIP3    H139470   0.960   3.897   6.926 -0.2364  0.6387  0.1518
 5945TIP3    H239471   0.956   3.875   6.776 -0.5744 -0.6120  0.3417
 5946TIP3   OH239472   2.523   0.146   7.487  0.1569  0.2806 -0.1616
 5946TIP3    H139473   2.526   0.228   7.537 -2.0829  0.8678 -0.8777
 5946TIP3    H239474   2.575   0.085   7.539  0.3323  1.6505  1.3688
 5947TIP3   OH239475   6.969   4.396   0.139 -0.0936 -0.0848  0.2340
 5947TIP3    H139476   7.016   4.345   0.073  0.1337 -0.2870  0.5460
 5947TIP3    H239477   6.876   4.378   0.122 -0.0050 -2.1660  1.5126
 5948TIP3   OH239478   4.417   0.097   0.249 -0.0796 -0.1776  0.4012
 5948TIP3    H139479   4.463   0.166   0.297  0.0559  1.1572 -1.5138
 5948TIP3    H239480   4.326   0.128   0.246  0.2586  0.8077 -1.8005
 5949TIP3   OH239481   6.997   6.169   8.181  0.1205 -0.3637  0.5430
 5949TIP3    H139482   6.962   6.124   8.258 -0.6316  0.9231  0.9784
 5949TIP3    H239483   7.004   6.261   8.208  1.3539 -0.1445 -0.4137
 5950TIP3   OH239484   5.427   5.415   0.645  0.2083  0.4302  0.7122
 5950TIP3    H139485   5.345   5.449   0.609  0.3872  0.1134  0.0039
 5950TIP3    H239486   5.426   5.444   0.736  0.1618  1.9651  0.2386
 5951TIP3   OH239487   5.178   0.449   2.162 -0.2511 -0.3328 -0.2547
 5951TIP3    H139488   5.253   0.459   2.220 -1.5626  0.0805  1.4427
 5951TIP3    H239489   5.179   0.357   2.137  1.5614 -0.0761 -1.4089
 5952TIP3   OH239490   6.689   4.910   7.205 -0.4336 -0.2586 -0.1917
 5952TIP3    H139491   6.711   4.928   7.113 -1.8194  0.2994 -0.4431
 5952TIP3    H239492   6.657   4.820   7.205 -0.6194 -0.1940 -0.3009
 5953TIP3   OH239493   4.132   0.476   8.385  0.2865  0.3740  0.4625
 5953TIP3    H139494   4.089   0.560   8.368  0.8530  0.8315  1.2167
 5953TIP3    H239495   4.105   0.454   8.475  1.2595  0.4430  0.7789
 5954TIP3   OH239496   5.252   0.745   7.988 -0.3063  0.8893  0.5279
 5954TIP3    H139497   5.192   0.776   8.056  1.0884  0.8309  1.8372
 5954TIP3    H239498   5.319   0.696   8.035  1.8944  2.6134 -0.6147
 5955TIP3   OH239499   5.475   5.160   8.408  0.7376 -0.2942 -0.2198
 5955TIP3    H139500   5.424   5.130   8.483  0.2951  1.0607  0.0496
 5955TIP3    H239501   5.413   5.160   8.335  0.9354 -0.7470 -0.3937
 5956TIP3   OH239502   2.997   1.435   2.327 -0.6157 -0.4106  0.4048
 5956TIP3    H139503   3.051   1.357   2.345  2.7636  1.7645  0.6500
 5956TIP3    H239504   2.983   1.474   2.413  0.1955  0.6792  0.0639
 5957TIP3   OH239505   6.777   0.743   1.248  0.1779 -0.6074  0.6228
 5957TIP3    H139506   6.802   0.666   1.196  1.0716 -0.2794  0.5517
 5957TIP3    H239507   6.860   0.787   1.266 -0.1968 -0.3540  1.7612
 5958TIP3   OH239508   6.230   2.983   7.321 -0.2565  0.6664  0.3835
 5958TIP3    H139509   6.232   2.963   7.227 -1.0697  2.7753 -0.1382
 5958TIP3    H239510   6.319   3.007   7.343  0.4163 -1.7815  0.6965
 5959TIP3   OH239511   4.897   4.511   6.779  0.4351  0.2138  0.1706
 5959TIP3    H139512   4.967   4.506   6.844 -0.0898 -0.1031  0.7158
 5959TIP3    H239513   4.818   4.486   6.826  0.2484 -1.4227 -0.9122
 5960TIP3   OH239514   5.524   4.435   1.414 -0.0268 -0.4115 -0.0653
 5960TIP3    H139515   5.472   4.389   1.349 -0.0213  0.9132 -1.0518
 5960TIP3    H239516   5.605   4.457   1.369 -0.7920  2.2480 -0.3182
 5961TIP3   OH239517   6.097   5.889   0.081 -0.4610 -0.1088 -0.2673
 5961TIP3    H139518   6.050   5.933   0.152 -1.0287  1.0427 -1.3198
 5961TIP3    H239519   6.028   5.865   0.019 -0.0653 -1.8164 -0.0875
 5962TIP3   OH239520   4.388   6.860   7.873 -0.5883 -0.0330  0.6710
 5962TIP3    H139521   4.349   6.830   7.955  0.3454  0.0614  1.1656
 5962TIP3    H239522   4.463   6.914   7.900 -0.1231 -0.1942 -0.2459
 5963TIP3   OH239523   0.294   2.252   7.528 -0.0913  0.3796  0.2042
 5963TIP3    H139524   0.210   2.261   7.483 -0.0804  1.0542  0.2980
 5963TIP3    H239525   0.291   2.166   7.569 -0.0569 -0.2875 -1.1552
 5964TIP3   OH239526   4.643   3.859   2.430  0.0137  0.1792 -0.1912
 5964TIP3    H139527   4.587   3.856   2.508 -0.5246  1.5064 -0.4932
 5964TIP3    H239528   4.693   3.778   2.434 -0.3937 -0.0431  1.2456
 5965TIP3   OH239529   0.545   1.082   0.452  0.3287  0.0224  0.5684
 5965TIP3    H139530   0.606   1.026   0.404  0.5562 -2.1162  3.0869
 5965TIP3    H239531   0.459   1.052   0.424  0.4316  0.2833 -0.0490
 5966TIP3   OH239532   0.631   1.372   2.340  0.5113 -0.3661 -0.0574
 5966TIP3    H139533   0.625   1.414   2.426 -1.1537 -0.8618  0.1003
 5966TIP3    H239534   0.693   1.300   2.353  0.1646 -0.5257  0.7666
 5967TIP3   OH239535   5.768   1.303   0.561 -0.1008 -0.3951  0.4073
 5967TIP3    H139536   5.691   1.324   0.614 -0.5939 -0.1053 -0.4005
 5967TIP3    H239537   5.818   1.385   0.558  1.6127 -1.2135  3.0544
 5968TIP3   OH239538   6.553   6.276   0.231 -0.1749 -0.3866  0.0363
 5968TIP3    H139539   6.615   6.205   0.247  0.5111 -0.0233 -0.8931
 5968TIP3    H239540   6.583   6.316   0.149 -0.6743  0.8419  0.4279
 5969TIP3   OH239541   1.149   4.412   1.099  0.2096  0.2073 -0.2077
 5969TIP3    H139542   1.096   4.489   1.077 -0.9632 -0.0763  1.3987
 5969TIP3    H239543   1.118   4.343   1.040 -0.9883  0.1524  0.4406
 5970TIP3   OH239544   4.838   0.600   0.208 -0.6770  0.0810 -0.6816
 5970TIP3    H139545   4.830   0.696   0.205  0.2431  0.3319  2.1536
 5970TIP3    H239546   4.914   0.581   0.153  0.1381  1.1654  0.0295
 5971TIP3   OH239547   3.642   3.807   1.967 -0.0091 -0.2794  0.0682
 5971TIP3    H139548   3.697   3.869   2.015  0.1294  0.0486 -0.5057
 5971TIP3    H239549   3.553   3.840   1.977  0.2334  0.9886 -1.6568
 5972TIP3   OH239550   6.646   2.223   2.378  0.1284  0.5230 -0.0254
 5972TIP3    H139551   6.562   2.266   2.365 -0.0404 -0.5334 -3.5406
 5972TIP3    H239552   6.698   2.248   2.301  1.5317 -2.0221 -0.0318
 5973TIP3   OH239553   2.697   3.749   2.274  0.7072  0.0389 -0.1301
 5973TIP3    H139554   2.607   3.752   2.306  0.1645 -0.1275 -1.5774
 5973TIP3    H239555   2.710   3.833   2.230  1.4234  0.2495  0.4599
 5974TIP3   OH239556   5.730   1.880   0.858  0.0602  0.6399  0.1930
 5974TIP3    H139557   5.761   1.843   0.941  1.9357 -0.0670 -0.7824
 5974TIP3    H239558   5.660   1.821   0.830 -1.3055  1.4478  1.7224
 5975TIP3   OH239559   0.957   0.261   2.226  0.2629 -0.1648  0.4992
 5975TIP3    H139560   0.933   0.237   2.136  1.2997  0.9723 -0.1135
 5975TIP3    H239561   0.882   0.311   2.258 -0.7510 -1.8298  0.8301
 5976TIP3   OH239562   5.363   4.597   2.704  0.6794  0.6696 -0.2021
 5976TIP3    H139563   5.394   4.607   2.614 -0.5714 -0.2180 -0.7608
 5976TIP3    H239564   5.349   4.503   2.714 -2.1762  1.0337 -0.1469
 5977TIP3   OH239565   6.942   5.493   2.608  0.0149 -0.6856 -0.4907
 5977TIP3    H139566   6.979   5.562   2.663  0.3425 -1.2215 -0.0304
 5977TIP3    H239567   6.910   5.427   2.669 -5.1493  1.2826 -0.5709
 5978TIP3   OH239568   6.061   3.990   7.896  0.4367  0.3172 -0.1520
 5978TIP3    H139569   6.014   3.922   7.848 -1.7833  1.6199  0.0365
 5978TIP3    H239570   6.037   4.072   7.852  0.3299  1.3012  1.6604
 5979TIP3   OH239571   4.748   4.872   1.499 -0.0626 -0.1008  0.4484
 5979TIP3    H139572   4.771   4.868   1.591  0.3537  0.3269  0.3687
 5979TIP3    H239573   4.790   4.795   1.460  2.9340  1.6121 -0.0414
 5980TIP3   OH239574   3.929   0.897   0.885 -0.5177  0.4219  0.2233
 5980TIP3    H139575   3.949   0.828   0.948  0.3877  2.0361  1.7883
 5980TIP3    H239576   4.013   0.918   0.844 -1.0835 -0.5696 -1.5603
 5981TIP3   OH239577   2.209   1.609   1.807  0.1339  0.0853 -0.4953
 5981TIP3    H139578   2.195   1.585   1.899  1.8573  2.3712  0.4642
 5981TIP3    H239579   2.135   1.570   1.761  0.5833 -3.4335  1.3791
 5982TIP3   OH239580   5.104   1.176   0.247 -0.0370 -0.4611  0.4535
 5982TIP3    H139581   5.130   1.227   0.324  0.8239 -1.5401  0.9091
 5982TIP3    H239582   5.071   1.241   0.185  0.8815  0.6313  1.0712
 5983TIP3   OH239583   6.394   5.069   2.261 -0.0598 -0.4364 -0.0622
 5983TIP3    H139584   6.437   4.993   2.301 -0.9516 -0.9543 -0.0761
 5983TIP3    H239585   6.395   5.135   2.329 -2.2906 -1.5713  1.1700
 5984TIP3   OH239586   1.542   3.154   6.975 -0.3594  0.3473 -0.1246
 5984TIP3    H139587   1.592   3.235   6.979 -1.7102  1.1729  1.4602
 5984TIP3    H239588   1.594   3.091   7.025  0.8438  0.0998 -1.6244
 5985TIP3   OH239589   2.751   3.511   1.737  0.4398 -0.3312  0.2056
 5985TIP3    H139590   2.837   3.552   1.730 -0.3320  1.1940 -0.6753
 5985TIP3    H239591   2.736   3.501   1.831  0.0960  2.6967  0.5481
 5986TIP3   OH239592   6.777   5.480   0.031 -0.4424 -0.3432 -0.1483
 5986TIP3    H139593   6.717   5.555   0.027  0.8502  0.8171  1.1332
 5986TIP3    H239594   6.737   5.421   0.094 -0.6229  0.0496  0.1072
 5987TIP3   OH239595   5.608   4.208   7.935  0.4577 -0.1834  0.1617
 5987TIP3    H139596   5.702   4.223   7.931  0.1588  1.6570 -1.6605
 5987TIP3    H239597   5.588   4.162   7.854 -0.5082  1.7825 -0.7859
 5988TIP3   OH239598   4.217   1.964   1.480 -0.1652 -1.0154  0.1886
 5988TIP3    H139599   4.279   2.037   1.474  0.2082 -1.2865  0.6480
 5988TIP3    H239600   4.134   1.999   1.448 -0.0197 -0.3528  0.5320
 5989TIP3   OH239601   5.331   2.916   0.029 -0.0461  0.6850  0.0767
 5989TIP3    H139602   5.347   3.004   0.061 -0.6814  0.3550  1.3847
 5989TIP3    H239603   5.247   2.891   0.069  0.5794 -0.8561  0.5179
 5990TIP3   OH239604   1.989   1.572   0.728  0.5604 -0.3079  0.2509
 5990TIP3    H139605   1.981   1.609   0.816 -2.3636  0.8437 -0.3615
 5990TIP3    H239606   1.968   1.480   0.738 -0.8040  0.0291  0.6561
 5991TIP3   OH239607   0.303   3.930   0.089 -0.1827 -0.6655 -0.1566
 5991TIP3    H139608   0.283   4.013   0.134 -1.0804 -0.7840 -0.3212
 5991TIP3    H239609   0.266   3.941   0.001  0.8449 -0.7504 -0.6129
 5992TIP3   OH239610   0.374   2.534   1.109  0.2994 -0.0344  0.4073
 5992TIP3    H139611   0.287   2.515   1.075  0.8912 -2.3985  0.0340
 5992TIP3    H239612   0.424   2.563   1.033  0.4148 -0.8448  0.1708
 5993TIP3   OH239613   2.730   0.912   7.118 -0.5469 -0.2216  0.1858
 5993TIP3    H139614   2.747   0.892   7.210  0.0823 -0.4496  0.0267
 5993TIP3    H239615   2.779   0.993   7.101 -2.2197  0.9320  0.5449
 5994TIP3   OH239616   2.754   4.741   1.872  0.0061 -0.0797 -0.1038
 5994TIP3    H139617   2.827   4.697   1.827 -0.2383 -1.0045  0.3852
 5994TIP3    H239618   2.681   4.680   1.865 -0.9680  1.1701 -1.2634
 5995TIP3   OH239619   3.068   6.040   0.571  0.0152  0.4436 -0.0596
 5995TIP3    H139620   3.064   5.984   0.649  0.3055  0.6139  0.0783
 5995TIP3    H239621   3.066   6.129   0.606 -0.1727  0.5190 -0.2652
 5996TIP3   OH239622   5.324   6.435   0.893 -0.0188 -0.7787 -0.5455
 5996TIP3    H139623   5.324   6.503   0.960 -1.0835 -1.0737 -0.2210
 5996TIP3    H239624   5.393   6.374   0.919  1.2286  0.3726 -1.0684
 5997TIP3   OH239625   6.713   2.552   0.167  0.0504 -0.2580 -0.3278
 5997TIP3    H139626   6.747   2.480   0.221  0.3109 -1.0997 -1.5842
 5997TIP3    H239627   6.624   2.525   0.144 -0.5529  0.7188  0.7524
 5998TIP3   OH239628   5.336   5.115   1.209  0.1475 -0.5264 -0.1200
 5998TIP3    H139629   5.346   5.191   1.153  0.0267  0.2673  0.9049
 5998TIP3    H239630   5.378   5.044   1.161 -0.3188  0.0291 -1.3866
 5999TIP3   OH239631   3.492   2.036   7.675 -0.2763  0.8077 -1.2440
 5999TIP3    H139632   3.421   2.002   7.729 -0.4879  0.6512 -1.6172
 5999TIP3    H239633   3.449   2.072   7.598  0.0604  0.5553 -1.5529
 6000TIP3   OH239634   6.458   0.231   1.745  0.0791  0.1010  0.2593
 6000TIP3    H139635   6.373   0.236   1.788  0.0543  3.1157  0.0725
 6000TIP3    H239636   6.439   0.237   1.652  0.4664  0.1039  0.1757
 6001TIP3   OH239637   1.728   0.670   8.049 -0.1980 -0.6133 -0.0229
 6001TIP3    H139638   1.704   0.588   8.091  0.0203 -0.3879  0.5443
 6001TIP3    H239639   1.649   0.725   8.055 -0.2869 -0.7143 -0.2462
 6002TIP3   OH239640   0.645   1.390   7.732  0.1902  0.4420  0.0461
 6002TIP3    H139641   0.640   1.304   7.774 -2.3606  0.5671  0.1393
 6002TIP3    H239642   0.562   1.400   7.687  1.1623  2.1282 -1.5033
 6003TIP3   OH239643   1.776   6.696   0.225 -0.4637  0.0018 -0.0789
 6003TIP3    H139644   1.783   6.688   0.320 -1.4954  0.5692  0.0590
 6003TIP3    H239645   1.793   6.789   0.208  0.9830 -0.3245 -0.5959
 6004TIP3   OH239646   1.658   3.782   8.080 -1.1522  0.3479  0.6418
 6004TIP3    H139647   1.578   3.737   8.108 -0.1359 -1.8549  0.2448
 6004TIP3    H239648   1.642   3.805   7.989 -2.0733  1.8441  1.1338
 6005TIP3   OH239649   3.802   5.583   0.684 -0.2052  0.9041 -0.6975
 6005TIP3    H139650   3.768   5.629   0.607 -1.5514  0.1977 -0.5526
 6005TIP3    H239651   3.742   5.510   0.697  0.3214  0.6893  0.7029
 6006TIP3   OH239652   6.516   5.919   0.558 -0.3086  0.3175 -0.6113
 6006TIP3    H139653   6.603   5.880   0.566 -0.4875  0.1013  0.4466
 6006TIP3    H239654   6.502   5.927   0.463  1.2063  1.1592 -0.8103
 6007TIP3   OH239655   4.175   5.944   8.298 -0.0155  0.0938  0.1490
 6007TIP3    H139656   4.130   5.959   8.215  0.9901  2.2472 -0.0717
 6007TIP3    H239657   4.120   5.986   8.364  0.7884  1.2631  0.1016
 6008TIP3   OH239658   5.876   6.738   0.834  0.0796  0.3113 -0.6501
 6008TIP3    H139659   5.858   6.757   0.926 -0.3522 -1.5712 -0.3140
 6008TIP3    H239660   5.822   6.800   0.786 -0.8141  0.3557  0.3725
 6009TIP3   OH239661   4.422   5.212   1.988  0.3047 -0.1694  0.2001
 6009TIP3    H139662   4.339   5.239   2.029  0.6513 -0.0103  0.8047
 6009TIP3    H239663   4.396   5.144   1.925 -0.2219 -0.5229  0.7887
 6010TIP3   OH239664   1.840   0.328   8.369 -0.1737  0.0936  0.3810
 6010TIP3    H139665   1.926   0.344   8.408  0.2501 -0.3184 -0.3614
 6010TIP3    H239666   1.840   0.235   8.348 -0.7478  0.1185  0.2545
 6011TIP3   OH239667   5.671   2.604   1.027 -0.5553 -0.2863 -0.2521
 6011TIP3    H139668   5.682   2.589   1.121  0.7330  0.5687 -0.2337
 6011TIP3    H239669   5.693   2.697   1.016 -3.5344  0.4089 -1.0021
 6012TIP3   OH239670   4.199   0.773   1.977  0.1361  0.1159 -0.2271
 6012TIP3    H139671   4.209   0.767   1.882 -2.4756 -0.4724 -0.5471
 6012TIP3    H239672   4.193   0.682   2.006  2.0980  0.2331  0.7260
 6013TIP3   OH239673   5.709   4.210   0.863 -0.2912 -0.3968 -0.0812
 6013TIP3    H139674   5.716   4.267   0.785  0.2937 -0.5021 -0.1073
 6013TIP3    H239675   5.620   4.224   0.894 -0.5036 -0.2813 -0.7218
 6014TIP3   OH239676   2.363   3.793   7.793 -0.0195  0.5330  0.3595
 6014TIP3    H139677   2.399   3.742   7.865 -0.2177  0.9061  0.7288
 6014TIP3    H239678   2.341   3.878   7.832  1.7355  1.4760 -0.5582
 6015TIP3   OH239679   1.479   4.106   0.414  0.3515 -0.1055 -0.3100
 6015TIP3    H139680   1.573   4.111   0.400  0.1517  0.5162 -1.6198
 6015TIP3    H239681   1.462   4.014   0.434  1.5306  0.2200  2.6905
 6016TIP3   OH239682   6.306   4.663   1.988 -0.3873  0.0250  0.3652
 6016TIP3    H139683   6.231   4.706   2.030 -0.0195  0.5851  0.4636
 6016TIP3    H239684   6.268   4.620   1.911 -0.8746 -0.0254  0.6272
 6017TIP3   OH239685   5.381   6.098   1.972  0.4490  0.2949 -0.3835
 6017TIP3    H139686   5.383   6.003   1.979  1.6788  0.3868  0.8319
 6017TIP3    H239687   5.317   6.116   1.903 -1.8869 -1.3223  1.2248
 6018TIP3   OH239688   5.981   0.869   7.494 -0.1554  0.7643 -0.0210
 6018TIP3    H139689   5.900   0.843   7.539  0.3049  0.4044  0.6173
 6018TIP3    H239690   6.040   0.795   7.507  0.1154  0.8135 -0.9160
 6019TIP3   OH239691   1.477   5.109   7.693 -0.1456  0.0167 -0.3140
 6019TIP3    H139692   1.407   5.062   7.648 -0.5155 -0.4293  0.6893
 6019TIP3    H239693   1.555   5.090   7.642 -0.7764  0.6898 -1.5745
 6020TIP3   OH239694   5.642   1.228   0.878  0.4035 -0.2575  0.2805
 6020TIP3    H139695   5.631   1.319   0.853  2.1021  0.3262  1.4848
 6020TIP3    H239696   5.632   1.179   0.797 -0.3520  0.9971 -0.4091
 6021TIP3   OH239697   5.497   2.158   7.623  0.0050  0.6618 -0.0917
 6021TIP3    H139698   5.574   2.211   7.641  1.2598 -1.3913  0.8759
 6021TIP3    H239699   5.531   2.072   7.601 -1.9996 -0.6706  1.6193
 6022TIP3   OH239700   2.912   6.005   0.362  0.3764  0.4736  0.6172
 6022TIP3    H139701   2.977   5.998   0.292 -0.6387 -1.5611 -0.2153
 6022TIP3    H239702   2.964   6.011   0.442  1.6797 -1.7219  0.0426
 6023TIP3   OH239703   1.180   3.337   1.276  0.0511  0.3839  0.2896
 6023TIP3    H139704   1.245   3.332   1.206 -0.0865 -0.4061  0.2027
 6023TIP3    H239705   1.121   3.408   1.250  1.5724  1.9667  0.9951
 6024TIP3   OH239706   2.386   6.316   0.465 -0.6268 -0.1322  0.2605
 6024TIP3    H139707   2.389   6.233   0.512 -2.0409  0.0661  0.7581
 6024TIP3    H239708   2.417   6.381   0.529 -2.7485  0.1676  1.0682
 6025TIP3   OH239709   2.942   1.028   1.991 -0.0724 -0.0305  0.7376
 6025TIP3    H139710   3.004   0.973   2.039  0.7857 -0.6897 -1.0162
 6025TIP3    H239711   2.887   0.966   1.942  2.3594  0.4487 -3.0649
 6026TIP3   OH239712   5.696   0.085   7.735  0.3112  0.5471 -0.8082
 6026TIP3    H139713   5.662  -0.005   7.734  1.8212 -0.0782  0.4811
 6026TIP3    H239714   5.672   0.118   7.821  2.4852  0.2281 -0.0133
 6027TIP3   OH239715   4.153   6.791   0.759 -0.2371 -0.1705 -0.6652
 6027TIP3    H139716   4.182   6.835   0.680 -0.7251  0.7672 -0.3420
 6027TIP3    H239717   4.075   6.742   0.733 -1.1070  1.0968 -0.5309
 6028TIP3   OH239718   1.176   5.783   1.777  0.1358  0.5371 -0.3255
 6028TIP3    H139719   1.211   5.730   1.849 -0.9643  0.4014  0.1258
 6028TIP3    H239720   1.221   5.749   1.699  1.5895  0.9136  0.3202
 6029TIP3   OH239721   1.639   1.218   7.426  0.1616 -0.2867  0.0882
 6029TIP3    H139722   1.702   1.220   7.498  0.5153  0.0119 -0.2273
 6029TIP3    H239723   1.689   1.246   7.349 -0.3168 -0.1933 -0.1926
 6030TIP3   OH239724   5.441   2.901   6.726 -0.5356 -0.1635  0.4685
 6030TIP3    H139725   5.400   2.968   6.672 -1.9230  0.2855  2.0011
 6030TIP3    H239726   5.397   2.820   6.702 -1.0606  0.0153  0.8025
 6031TIP3   OH239727   4.424   0.379   6.557 -0.4169 -0.5873  0.4022
 6031TIP3    H139728   4.437   0.301   6.503  0.1333 -0.6022  0.5448
 6031TIP3    H239729   4.427   0.452   6.496  1.8188 -0.4739  0.5582
 6032TIP3   OH239730   0.658   3.826   7.848  0.3969 -0.8828  0.0873
 6032TIP3    H139731   0.726   3.759   7.843 -0.7317 -2.0843  0.1796
 6032TIP3    H239732   0.700   3.901   7.889  1.1959 -2.2037  1.7715
 6033TIP3   OH239733   5.796   4.135   1.960 -0.2673  0.6530  0.1046
 6033TIP3    H139734   5.860   4.064   1.956 -0.6103  0.3266  0.3067
 6033TIP3    H239735   5.838   4.202   2.014  0.1184  0.6683 -0.2078
 6034TIP3   OH239736   4.610   2.493   1.440 -0.4260 -0.3023  0.5562
 6034TIP3    H139737   4.618   2.587   1.424  0.5202 -0.5429 -0.4750
 6034TIP3    H239738   4.679   2.453   1.387 -1.6751 -1.6948 -0.0741
 6035TIP3   OH239739   1.174   3.635   2.154  0.4127  0.1278 -0.1088
 6035TIP3    H139740   1.177   3.730   2.166 -1.7623  0.4037 -1.1954
 6035TIP3    H239741   1.238   3.618   2.084  0.7756  0.7922  0.0512
 6036TIP3   OH239742   2.428   3.388   1.929 -0.1991 -0.0060 -0.1863
 6036TIP3    H139743   2.439   3.330   2.005 -0.5960 -1.0024 -0.8753
 6036TIP3    H239744   2.457   3.336   1.855 -3.0782 -0.3707 -1.2068
 6037TIP3   OH239745   0.722   6.782   0.222 -0.7759 -0.1996 -0.1590
 6037TIP3    H139746   0.744   6.700   0.264  0.1349 -0.5673 -1.3025
 6037TIP3    H239747   0.638   6.808   0.261  0.1317 -0.3667  2.0278
 6038TIP3   OH239748   2.216   1.311   7.801 -0.2408 -0.6422  0.4365
 6038TIP3    H139749   2.190   1.310   7.710 -0.9218 -2.7948  0.6002
 6038TIP3    H239750   2.291   1.371   7.804 -0.4983 -0.1795 -1.4166
 6039TIP3   OH239751   0.709   3.669   6.990  0.2131 -0.3957  0.2644
 6039TIP3    H139752   0.740   3.727   7.059  2.3952 -2.8744  1.5440
 6039TIP3    H239753   0.619   3.647   7.015 -1.4001  3.6284 -1.2355
 6040TIP3   OH239754   5.571   5.457   0.332 -0.0323 -0.5472 -0.3385
 6040TIP3    H139755   5.485   5.498   0.341 -0.3920 -1.0245 -1.4470
 6040TIP3    H239756   5.622   5.494   0.404 -0.6812  0.9544 -0.6054
 6041TIP3   OH239757   5.678   1.458   1.546 -0.4015  0.3416  0.5589
 6041TIP3    H139758   5.750   1.403   1.576  0.2160 -0.6808 -2.4546
 6041TIP3    H239759   5.714   1.546   1.540  0.0790  0.1542  0.7126
 6042TIP3   OH239760   5.922   2.826   8.326  0.5703  0.0332  0.2775
 6042TIP3    H139761   5.864   2.864   8.259  2.1671 -0.3326 -1.3859
 6042TIP3    H239762   5.989   2.892   8.340  0.3607  0.0208  1.4194
 6043TIP3   OH239763   6.133   0.316   2.486 -0.5483 -0.2421 -0.3070
 6043TIP3    H139764   6.065   0.358   2.432 -3.4896 -1.2890  2.2599
 6043TIP3    H239765   6.200   0.382   2.497 -1.6294  1.2574 -2.1587
 6044TIP3   OH239766   6.659   6.925   2.074  0.4655  0.0877  0.2697
 6044TIP3    H139767   6.639   6.842   2.030  0.2728  1.0769 -1.6418
 6044TIP3    H239768   6.574   6.961   2.098  0.3153  0.9123 -1.3112
 6045TIP3   OH239769   1.296   1.750   2.989 -0.0907  0.1293 -0.8992
 6045TIP3    H139770   1.211   1.792   2.990  0.1502  0.6013 -0.0743
 6045TIP3    H239771   1.323   1.753   2.897 -1.4230 -0.9989 -1.3625
 6046TIP3   OH239772   4.525   4.251   7.872 -0.8034  0.1379 -0.1779
 6046TIP3    H139773   4.499   4.322   7.814 -1.2850 -0.3638 -0.5941
 6046TIP3    H239774   4.505   4.171   7.823  0.6231 -0.2849 -0.1132
 6047TIP3   OH239775   4.748   5.960   1.339 -0.2971 -0.5350 -0.0332
 6047TIP3    H139776   4.696   5.968   1.419  0.6514 -1.7644  0.7540
 6047TIP3    H239777   4.813   5.892   1.359  1.3414  0.6265 -1.1157
 6048TIP3   OH239778   2.716   3.354   6.942  0.2873  0.1897  0.4479
 6048TIP3    H139779   2.646   3.300   6.906  0.4716 -0.1134  0.5356
 6048TIP3    H239780   2.725   3.427   6.881 -0.0135  0.1565  0.3667
 6049TIP3   OH239781   0.070   2.567   2.073  0.4112  0.1464 -0.3585
 6049TIP3    H139782  -0.023   2.545   2.068  0.6561 -1.7468  1.8655
 6049TIP3    H239783   0.074   2.643   2.131  0.3649 -1.5309  1.9801
 6050TIP3   OH239784   0.695   6.884   2.358  0.3499 -0.4751 -0.0509
 6050TIP3    H139785   0.754   6.810   2.341  0.5242  0.0009 -1.7655
 6050TIP3    H239786   0.655   6.864   2.442  0.6108 -2.3838 -0.3274
 6051TIP3   OH239787   4.305   4.742   1.904  0.0118 -0.4226  0.2450
 6051TIP3    H139788   4.260   4.818   1.943 -0.5649 -0.5645 -0.1267
 6051TIP3    H239789   4.381   4.727   1.960 -1.4351 -1.3657  2.0278
 6052TIP3   OH239790   2.176   4.752   0.955 -0.1188 -1.2474  0.6344
 6052TIP3    H139791   2.113   4.821   0.932  1.0936 -0.8127 -1.6413
 6052TIP3    H239792   2.221   4.785   1.032 -1.0977 -0.5209  0.9106
 6053TIP3   OH239793   0.772   1.918   2.547  0.4481 -0.9035  1.0410
 6053TIP3    H139794   0.854   1.959   2.572  0.8598 -1.1772  0.1822
 6053TIP3    H239795   0.704   1.973   2.585  1.0197 -0.1759  1.0108
 6054TIP3   OH239796   6.579   3.961   1.089  0.9166  0.5118 -0.2143
 6054TIP3    H139797   6.551   3.954   0.998  0.1012 -0.3806  0.0830
 6054TIP3    H239798   6.509   4.010   1.132 -0.1686 -1.5477  0.4932
 6055TIP3   OH239799   5.129   1.821   2.815 -0.1745  0.0526 -0.2013
 6055TIP3    H139800   5.071   1.747   2.832  0.4494 -0.0997  1.4596
 6055TIP3    H239801   5.217   1.783   2.812  0.2793  0.7820  1.7508
 6056TIP3   OH239802   4.338   5.631   6.356 -0.4419 -0.0673 -0.1048
 6056TIP3    H139803   4.421   5.677   6.368  0.8347 -2.3744  0.7132
 6056TIP3    H239804   4.272   5.700   6.351  1.5324  1.8808 -1.1108
 6057TIP3   OH239805   1.838   3.977   1.090 -0.1952  0.8830 -0.2145
 6057TIP3    H139806   1.804   4.048   1.036  1.1467  0.1474 -2.1332
 6057TIP3    H239807   1.932   3.978   1.074  0.1354  0.0679  1.4707
 6058TIP3   OH239808   5.438   3.296   7.175 -0.0835  0.1401  0.3588
 6058TIP3    H139809   5.430   3.316   7.082  0.0747 -0.9259  0.1025
 6058TIP3    H239810   5.523   3.334   7.200  0.0831  0.0371 -0.0435
 6059TIP3   OH239811   4.422   3.960   1.132 -0.1296 -0.4311  0.2917
 6059TIP3    H139812   4.460   3.901   1.067 -0.8584 -1.3170  0.6554
 6059TIP3    H239813   4.328   3.958   1.115 -0.3982 -1.0861  1.6664
 6060TIP3   OH239814   0.335   1.689   0.890 -1.0575 -0.0380 -0.3345
 6060TIP3    H139815   0.359   1.706   0.981 -1.4355 -0.1834 -0.2031
 6060TIP3    H239816   0.255   1.740   0.877 -0.6851  0.4446 -0.7635
 6061TIP3   OH239817   0.206   5.723   0.746  0.0134  0.2520 -0.1444
 6061TIP3    H139818   0.183   5.709   0.838  0.5649 -1.4792 -0.2283
 6061TIP3    H239819   0.298   5.699   0.740 -0.0931  0.0306 -1.2071
 6062TIP3   OH239820   6.229   6.165   7.920 -0.0915  0.1549 -0.4177
 6062TIP3    H139821   6.162   6.227   7.891 -0.5494  0.4463  1.1803
 6062TIP3    H239822   6.270   6.207   7.995  1.2293 -0.4594 -0.7642
 6063TIP3   OH239823   5.687   3.804   0.590  0.4988 -0.0303  0.1416
 6063TIP3    H139824   5.763   3.827   0.644  0.8808  0.7364 -0.7038
 6063TIP3    H239825   5.719   3.808   0.500 -0.2590 -0.8071 -0.1794
 6064TIP3   OH239826   0.854   4.008   0.134 -0.0770  0.4243 -0.7582
 6064TIP3    H139827   0.772   4.056   0.135  0.6217  1.7701  2.2227
 6064TIP3    H239828   0.828   3.916   0.144 -1.2575  0.8215  0.1050
 6065TIP3   OH239829   0.763   4.550   0.150  0.0081  0.0146  0.1813
 6065TIP3    H139830   0.852   4.522   0.170  0.2953  0.7270 -0.0946
 6065TIP3    H239831   0.765   4.571   0.056  0.3255  2.8692  0.7613
 6066TIP3   OH239832   5.190   1.717   1.373  0.1765  0.1219 -0.2843
 6066TIP3    H139833   5.187   1.622   1.386 -2.2886 -0.0235 -1.3781
 6066TIP3    H239834   5.277   1.733   1.338  0.6042 -1.7418 -0.2058
 6067TIP3   OH239835   0.759   2.187   0.741 -0.1701 -0.1379  0.2544
 6067TIP3    H139836   0.765   2.259   0.803 -1.7397  1.2502 -1.0825
 6067TIP3    H239837   0.665   2.168   0.734  0.0441 -0.9356 -0.9227
 6068TIP3   OH239838   3.067   5.964   7.593 -0.0261 -0.0097  0.0404
 6068TIP3    H139839   3.026   5.879   7.614  0.7186 -0.4289 -0.1638
 6068TIP3    H239840   3.091   6.000   7.679  0.5981 -0.4922  0.0746
 6069TIP3   OH239841   4.788   5.047   2.412  0.0854  0.0341  0.5085
 6069TIP3    H139842   4.744   5.095   2.483  0.7087 -2.0464  2.4293
 6069TIP3    H239843   4.724   5.044   2.342 -1.1129  0.9690  1.5091
 6070TIP3   OH239844   6.731   1.429   0.788 -0.6187  0.5352  0.1748
 6070TIP3    H139845   6.710   1.478   0.867  0.5668  1.0429  0.1928
 6070TIP3    H239846   6.772   1.348   0.819 -1.7758 -0.0909  0.1181
 6071TIP3   OH239847   5.209   6.848   6.508  0.6194  0.1156 -0.1330
 6071TIP3    H139848   5.229   6.899   6.430 -1.3707  0.9107 -0.1952
 6071TIP3    H239849   5.124   6.808   6.490  1.3489 -1.9169  0.5912
 6072TIP3   OH239850   6.061   1.127   6.788 -0.2055 -0.0715 -0.6782
 6072TIP3    H139851   6.072   1.216   6.757 -0.0920 -0.2096 -1.0458
 6072TIP3    H239852   5.992   1.090   6.732 -1.4975  0.3203  0.6154
 6073TIP3   OH239853   2.758   2.581   1.676  0.0525 -0.3841  0.3373
 6073TIP3    H139854   2.847   2.616   1.672  0.1881 -0.7648 -0.1179
 6073TIP3    H239855   2.769   2.486   1.667 -0.2644 -0.6169  2.0315
 6074TIP3   OH239856   0.360   1.657   1.161 -0.5921  0.0707 -0.1345
 6074TIP3    H139857   0.412   1.577   1.161  0.0734  0.4342  1.9713
 6074TIP3    H239858   0.302   1.648   1.236 -0.5042  1.5538  0.1396
 6075TIP3   OH239859   2.034   0.346   0.149 -0.5212 -0.4342 -0.3249
 6075TIP3    H139860   2.125   0.321   0.135 -0.3885 -0.1567  0.0308
 6075TIP3    H239861   2.035   0.401   0.228 -1.0362 -0.6786 -0.1395
 6076TIP3   OH239862   2.856   3.364   0.508  0.2770  0.5532 -0.8969
 6076TIP3    H139863   2.849   3.320   0.593 -0.3581  0.1180 -1.1630
 6076TIP3    H239864   2.787   3.431   0.510  0.4285  0.7129 -0.9747
 6077TIP3   OH239865   6.863   0.388   1.623  0.2741  0.3874  0.0497
 6077TIP3    H139866   6.896   0.298   1.615  1.0933  0.6975 -0.1854
 6077TIP3    H239867   6.937   0.437   1.659  0.1138  1.1218 -0.5948
 6078TIP3   OH239868   2.520   1.725   1.650  0.0054  0.4072  0.9223
 6078TIP3    H139869   2.603   1.677   1.641 -1.2140 -1.8448  0.9879
 6078TIP3    H239870   2.544   1.817   1.633  2.5247 -0.1301  1.1119
 6079TIP3   OH239871   1.746   6.122   7.388  0.0188 -0.2447  0.3348
 6079TIP3    H139872   1.750   6.083   7.301 -1.6149 -0.1036  0.1742
 6079TIP3    H239873   1.778   6.053   7.447 -0.4760 -0.9389 -0.2006
 6080TIP3   OH239874   1.724   2.525   2.635 -0.0317  0.3101  0.1384
 6080TIP3    H139875   1.648   2.470   2.620 -0.8800  0.8920  1.9712
 6080TIP3    H239876   1.774   2.478   2.703  0.2317  0.8727  0.3372
 6081TIP3   OH239877   2.810   1.402   0.164  0.5239  0.3445  0.1464
 6081TIP3    H139878   2.714   1.405   0.163  0.3696 -1.9052  1.2566
 6081TIP3    H239879   2.836   1.490   0.190 -1.1654  1.3314 -1.2309
 6082TIP3   OH239880   0.657   6.606   2.623 -0.0700 -0.4512  0.4733
 6082TIP3    H139881   0.599   6.550   2.674  1.2919 -0.0124  2.6700
 6082TIP3    H239882   0.664   6.686   2.675 -0.0333  0.8179 -1.3709
 6083TIP3   OH239883   3.211   2.823   1.226  0.2072 -0.1021 -0.3195
 6083TIP3    H139884   3.127   2.849   1.189  0.4565  0.9321 -0.1758
 6083TIP3    H239885   3.194   2.737   1.265 -0.3242 -0.7117 -1.8255
 6084TIP3   OH239886   6.869   0.460   7.284  0.6970 -0.2328  0.4717
 6084TIP3    H139887   6.782   0.431   7.256  1.3693 -0.5403 -1.4916
 6084TIP3    H239888   6.865   0.459   7.379 -1.0632 -1.4294  0.4419
 6085TIP3   OH239889   3.788   1.484   8.307  0.0127 -0.1579 -0.0401
 6085TIP3    H139890   3.849   1.437   8.249 -1.1787 -0.5575 -1.0117
 6085TIP3    H239891   3.804   1.447   8.393  1.5412  0.1508 -0.1520
 6086TIP3   OH239892   5.271   5.425   6.786  0.0327  0.3902  0.2848
 6086TIP3    H139893   5.225   5.351   6.746  1.1606 -1.7954  2.7547
 6086TIP3    H239894   5.201   5.489   6.804 -1.6371 -1.5543  1.1879
 6087TIP3   OH239895   6.119   4.739   2.176  0.8508 -0.0183  0.3152
 6087TIP3    H139896   6.173   4.744   2.255 -1.4353 -1.7745  2.1058
 6087TIP3    H239897   6.031   4.765   2.205  0.6028  3.1516 -2.5718
 6088TIP3   OH239898   3.149   1.341   0.379  0.1975 -0.4787  0.5821
 6088TIP3    H139899   3.207   1.274   0.416  1.0172  0.8447  1.7685
 6088TIP3    H239900   3.092   1.292   0.319  0.6413 -2.2650  1.5427
 6089TIP3   OH239901   1.831   2.738   0.272 -0.5614 -0.2611  0.2676
 6089TIP3    H139902   1.905   2.737   0.211 -0.1428 -0.4074  0.7670
 6089TIP3    H239903   1.794   2.650   0.267 -0.2386 -0.4190  0.5581
 6090TIP3   OH239904   4.635   3.445   7.026  0.1460  0.0961 -0.0290
 6090TIP3    H139905   4.555   3.486   6.993  0.3292  0.4059 -0.0916
 6090TIP3    H239906   4.621   3.351   7.013  0.1041  0.1941 -0.7471
 6091TIP3   OH239907   3.237   4.213   1.632  0.1223 -0.6947  0.5529
 6091TIP3    H139908   3.329   4.190   1.619  0.3989  0.1960  0.8404
 6091TIP3    H239909   3.204   4.147   1.692  0.6423 -0.8697  0.6551
 6092TIP3   OH239910   4.550   5.776   0.463  0.4265 -0.0489 -0.3776
 6092TIP3    H139911   4.615   5.763   0.394 -0.4601  1.6204 -1.6020
 6092TIP3    H239912   4.558   5.699   0.518  4.0371  0.4154  0.0459
 6093TIP3   OH239913   4.943   0.474   1.799  0.4707 -0.1316  0.0409
 6093TIP3    H139914   4.945   0.401   1.737 -0.2880  0.0112 -0.1493
 6093TIP3    H239915   4.883   0.445   1.868  2.1478 -0.7650  1.3173
 6094TIP3   OH239916   3.332   6.850   7.067 -0.0416 -0.1019 -1.0010
 6094TIP3    H139917   3.345   6.884   7.156 -0.6277  1.1248 -1.3583
 6094TIP3    H239918   3.261   6.787   7.076 -0.1024  0.0168 -0.5974
 6095TIP3   OH239919   5.070   1.787   2.492  0.4355  0.3152 -0.5288
 6095TIP3    H139920   5.136   1.745   2.547  0.4341 -0.5391 -1.1637
 6095TIP3    H239921   5.088   1.881   2.501  1.5013  0.1151 -0.3919
 6096TIP3   OH239922   5.077   0.639   2.020  0.6611  0.5680  0.0466
 6096TIP3    H139923   5.115   0.578   2.082 -0.4419  0.7609  0.9431
 6096TIP3    H239924   5.122   0.722   2.037  2.3457  0.0037 -1.3498
 6097TIP3   OH239925   1.232   1.018   2.147 -0.6100 -0.1889 -0.2634
 6097TIP3    H139926   1.219   1.113   2.150  0.0646 -0.0726 -0.8241
 6097TIP3    H239927   1.156   0.986   2.097  0.0656  0.2558 -1.6190
 6098TIP3   OH239928   6.341   1.448   2.968  0.0715 -0.4668 -0.4487
 6098TIP3    H139929   6.359   1.542   2.970 -1.0549 -0.2475  0.4513
 6098TIP3    H239930   6.402   1.410   3.031  0.7881 -0.4134 -1.0864
 6099TIP3   OH239931   5.472   1.726   1.266 -0.0193 -0.1617 -0.0088
 6099TIP3    H139932   5.506   1.751   1.180 -2.8338 -1.9054 -1.7528
 6099TIP3    H239933   5.535   1.661   1.298  0.5729 -0.2108 -1.1946
 6100TIP3   OH239934   4.532   5.755   8.271  0.0791  0.4320 -0.3365
 6100TIP3    H139935   4.520   5.844   8.302  0.5186  0.8262 -1.2709
 6100TIP3    H239936   4.478   5.702   8.330  0.8900  1.1340  1.0876
 6101TIP3   OH239937   3.927   1.683   1.289  0.7817  0.5788  0.3229
 6101TIP3    H139938   4.017   1.649   1.294  0.9897  1.1434  0.4590
 6101TIP3    H239939   3.936   1.771   1.253  0.3881  1.0410  1.3124
 6102TIP3   OH239940   4.616   4.499   0.584  0.2395  0.1910  0.0218
 6102TIP3    H139941   4.620   4.404   0.596  0.7600  0.0762 -0.9221
 6102TIP3    H239942   4.657   4.514   0.499 -3.1793  0.9156 -1.6659
 6103TIP3   OH239943   1.448   1.174   8.110 -0.0870 -0.1516 -0.5281
 6103TIP3    H139944   1.363   1.217   8.116 -0.0925 -0.2767  0.4292
 6103TIP3    H239945   1.437   1.106   8.044 -0.0713  1.3199 -2.1120
 6104TIP3   OH239946   4.001   6.878   7.159 -0.0493 -0.2340 -0.6320
 6104TIP3    H139947   3.958   6.961   7.140 -0.1682  0.1601  1.2037
 6104TIP3    H239948   3.980   6.860   7.251 -0.1108 -2.3443 -1.0017
 6105TIP3   OH239949   2.118   2.677   7.672 -0.2979 -0.1972  0.1961
 6105TIP3    H139950   2.166   2.647   7.595  0.7078  0.6631  0.4713
 6105TIP3    H239951   2.172   2.746   7.709 -1.2977  0.1549  1.0612
 6106TIP3   OH239952   1.146   4.357   7.461 -0.2266 -0.2176  0.1467
 6106TIP3    H139953   1.060   4.392   7.484 -1.6305 -1.8929 -2.0514
 6106TIP3    H239954   1.178   4.415   7.392 -0.0521 -0.1814  0.2565
 6107TIP3   OH239955   1.150   3.073   7.699  0.0734  0.3709  0.5032
 6107TIP3    H139956   1.218   3.055   7.763  1.7637  1.0315 -1.0100
 6107TIP3    H239957   1.153   2.998   7.639  0.4473  1.0379 -0.3390
 6108TIP3   OH239958   1.148   5.089   7.836 -0.2687  0.1685  0.3439
 6108TIP3    H139959   1.103   5.024   7.889 -0.6240 -0.1064 -0.2855
 6108TIP3    H239960   1.154   5.166   7.892  0.1644 -0.4073  1.0980
 6109TIP3   OH239961   2.417   3.252   8.298 -0.0686  0.7501  0.0026
 6109TIP3    H139962   2.496   3.198   8.301 -0.8513 -0.4524 -0.3636
 6109TIP3    H239963   2.378   3.233   8.213 -1.5505  0.1072  0.7818
 6110TIP3   OH239964   6.275   0.812   6.549 -0.2672  0.4950  0.5701
 6110TIP3    H139965   6.369   0.824   6.565 -0.1697 -0.9284  1.2346
 6110TIP3    H239966   6.248   0.891   6.502  1.8916 -0.2900 -2.2723
 6111TIP3   OH239967   5.677   1.640   6.670 -0.0686  0.2044 -0.6256
 6111TIP3    H139968   5.592   1.615   6.707 -0.0118  0.7031 -0.1438
 6111TIP3    H239969   5.686   1.733   6.692  1.3193 -0.2278  0.7151
 6112TIP3   OH239970   4.387   0.278   7.795 -0.3983 -0.3944 -0.3582
 6112TIP3    H139971   4.311   0.237   7.838 -0.4037 -0.8744 -0.8133
 6112TIP3    H239972   4.462   0.227   7.826 -0.3529 -0.4503 -0.5592
 6113TIP3   OH239973   5.882   6.769   1.107 -0.9912 -0.6443 -0.3346
 6113TIP3    H139974   5.830   6.847   1.128 -0.3675 -0.6840  1.5309
 6113TIP3    H239975   5.970   6.789   1.138 -0.8648 -2.1495  0.3817
 6114TIP3   OH239976   6.727   5.726   0.791 -0.1897  0.5839  0.2405
 6114TIP3    H139977   6.668   5.730   0.867 -2.7935 -0.4383 -1.5696
 6114TIP3    H239978   6.747   5.633   0.782 -0.1241  0.6681 -0.4902
 6115TIP3   OH239979   5.818   6.489   0.737  0.1886  0.3270  0.2077
 6115TIP3    H139980   5.853   6.578   0.746 -0.3577  0.7401 -1.4227
 6115TIP3    H239981   5.729   6.501   0.705 -0.0388 -0.8217  0.3541
 6116TIP3   OH239982   4.687   3.343   0.097  0.1098  0.3079  0.3109
 6116TIP3    H139983   4.626   3.347   0.170 -0.5108  0.7708 -0.2311
 6116TIP3    H239984   4.750   3.276   0.123  0.0193  0.6098  1.3633
 6117TIP3   OH239985   0.214   2.828   2.575  0.5421 -0.0186 -0.3634
 6117TIP3    H139986   0.124   2.811   2.604 -0.0661 -1.8073 -2.9014
 6117TIP3    H239987   0.213   2.918   2.543 -0.4014 -0.0801 -0.5294
 6118TIP3   OH239988   0.078   3.463   8.273  0.7279  0.0736 -0.1831
 6118TIP3    H139989  -0.016   3.464   8.255  0.7035  0.2931 -0.0434
 6118TIP3    H239990   0.116   3.422   8.196  0.8001  2.6855 -1.6603
 6119TIP3   OH239991   3.090   4.331   7.495  0.5045  0.0719 -0.0611
 6119TIP3    H139992   2.995   4.332   7.501  0.3848 -0.2684 -1.6176
 6119TIP3    H239993   3.116   4.251   7.540  0.2529  1.2393  2.3128
 6120TIP3   OH239994   0.261   5.793   8.300  0.1196  0.0377 -0.0348
 6120TIP3    H139995   0.291   5.709   8.335 -1.4018 -0.4189  0.2466
 6120TIP3    H239996   0.215   5.769   8.219 -1.0421  0.4875  0.4723
 6121TIP3   OH239997   3.242   1.957   0.426  0.1131 -0.6895 -0.3781
 6121TIP3    H139998   3.329   1.989   0.401 -0.2114  1.7239  1.1908
 6121TIP3    H239999   3.246   1.949   0.521 -1.2318 -1.0030 -0.3327
 6122TIP3   OH240000   6.544   3.964   1.438 -0.7416 -0.0400  0.1458
 6122TIP3    H140001   6.595   4.018   1.499  0.2929  1.1513 -1.6869
 6122TIP3    H240002   6.475   4.022   1.406 -1.3094 -0.6728  0.1961
 6123TIP3   OH240003   4.638   0.296   0.671  0.3817 -0.5839  0.1697
 6123TIP3    H140004   4.616   0.389   0.671 -1.1332 -0.9154  0.4424
 6123TIP3    H240005   4.722   0.291   0.716  1.3547  0.8202 -1.3920
 6124TIP3   OH240006   6.095   5.959   8.087  0.2953  0.3598  0.2009
 6124TIP3    H140007   6.139   6.012   8.021  0.4674  1.3622  1.1086
 6124TIP3    H240008   6.157   5.955   8.161  0.0746 -0.6759  0.3540
 6125TIP3   OH240009   5.986   3.520   0.255  0.2736 -0.1727 -0.0963
 6125TIP3    H140010   5.912   3.469   0.288  0.3616  0.3614  0.9785
 6125TIP3    H240011   5.946   3.586   0.197  0.1942 -1.6214 -1.7754
 6126TIP3   OH240012   1.026   6.028   7.374  0.0977  0.6669  0.5564
 6126TIP3    H140013   1.050   6.041   7.466 -1.6187  0.8524  1.0036
 6126TIP3    H240014   1.031   6.115   7.335 -0.1634  0.7592  0.7274
 6127TIP3   OH240015   5.211   3.037   1.472  0.3975  0.2832  0.4834
 6127TIP3    H140016   5.225   3.047   1.566 -1.1339  1.4359  0.6231
 6127TIP3    H240017   5.205   3.127   1.439  0.3454 -0.1086 -0.6285
 6128TIP3   OH240018   5.003   6.999   1.410 -0.1321  0.4726  0.1907
 6128TIP3    H140019   5.038   6.910   1.411 -0.9252  0.1570  0.8019
 6128TIP3    H240020   4.920   6.993   1.458 -0.5128  1.4110 -0.3255
 6129TIP3   OH240021   6.940   3.180   7.605  0.4109 -0.3739 -0.0779
 6129TIP3    H140022   6.895   3.231   7.538  0.7890  0.3313  0.2055
 6129TIP3    H240023   6.982   3.109   7.557 -0.1948 -0.4841 -0.4567
 6130TIP3   OH240024   5.288   4.090   1.472 -0.4488  0.4862  0.2617
 6130TIP3    H140025   5.221   4.100   1.540 -0.3022  0.4084  0.4174
 6130TIP3    H240026   5.360   4.146   1.500 -0.8383  1.3556 -0.4120
 6131TIP3   OH240027   6.640   1.296   7.569 -0.4495 -0.3853  0.4636
 6131TIP3    H140028   6.655   1.362   7.636 -0.2016  2.1172 -1.8796
 6131TIP3    H240029   6.548   1.307   7.545  0.4676  2.0376 -2.6304
 6132TIP3   OH240030   0.476   4.038   7.598 -0.2675  0.7455  0.0598
 6132TIP3    H140031   0.463   3.991   7.515 -0.4100  0.4916  0.2244
 6132TIP3    H240032   0.392   4.082   7.614 -0.5656  0.0143  0.5547
 6133TIP3   OH240033   0.664   6.172   8.277  0.2817  0.4759 -0.2385
 6133TIP3    H140034   0.750   6.210   8.260  0.5229 -0.7424 -2.0350
 6133TIP3    H240035   0.674   6.080   8.252 -1.0145 -0.1542  1.4203
 6134TIP3   OH240036   0.356   5.343   0.332 -0.2135 -0.2255  0.1586
 6134TIP3    H140037   0.339   5.295   0.250 -1.9896 -0.2021  0.4689
 6134TIP3    H240038   0.272   5.342   0.378  0.1406  1.7456  0.9470
 6135TIP3   OH240039   6.067   4.256   1.748  0.3543 -0.2595  0.4133
 6135TIP3    H140040   5.981   4.276   1.710  1.0913 -0.8462 -1.7107
 6135TIP3    H240041   6.060   4.284   1.839 -1.1418  2.4352 -0.4123
 6136TIP3   OH240042   6.590   6.411   0.010  0.2538  0.8669 -0.2339
 6136TIP3    H140043   6.640   6.436  -0.067  1.3128 -0.4989 -0.0328
 6136TIP3    H240044   6.577   6.492   0.058  1.6665  1.3697 -0.6638
 6137TIP3   OH240045   6.383   6.505   2.926  0.0147 -0.0538 -0.2345
 6137TIP3    H140046   6.379   6.578   2.864  1.1762 -1.0782 -1.5911
 6137TIP3    H240047   6.468   6.465   2.909 -1.4209 -3.0427 -1.1071
 6138TIP3   OH240048   2.355   4.747   0.628 -0.0297 -0.1016 -0.3198
 6138TIP3    H140049   2.291   4.714   0.565  0.0609  0.1684 -0.5572
 6138TIP3    H240050   2.332   4.840   0.639 -1.2164 -0.5672  1.4797
 6139TIP3   OH240051   4.914   0.286   1.567 -0.2149 -0.4640 -0.7176
 6139TIP3    H140052   4.883   0.209   1.615 -1.7138  1.3223  1.4016
 6139TIP3    H240053   4.847   0.303   1.502  0.7295 -1.6050 -2.0388
 6140TIP3   OH240054   4.512   6.232   7.402 -0.5069 -0.2751  0.3958
 6140TIP3    H140055   4.528   6.306   7.343  0.4993 -0.2332  0.7051
 6140TIP3    H240056   4.550   6.157   7.358 -4.0811 -1.2835 -1.3319
 6141TIP3   OH240057   2.699   3.239   2.246 -0.1000 -0.1440  0.0171
 6141TIP3    H140058   2.792   3.252   2.267 -0.4315 -0.3242  1.7581
 6141TIP3    H240059   2.667   3.180   2.315 -1.7452  0.7265  0.0367
 6142TIP3   OH240060   3.147   6.629   7.017 -0.1124  0.2970  0.0106
 6142TIP3    H140061   3.066   6.635   6.966 -1.9427  0.0762  2.6859
 6142TIP3    H240062   3.179   6.540   7.000 -1.3749 -0.2178  0.1879
 6143TIP3   OH240063   4.695   4.510   8.059 -0.3044  0.2139  0.6449
 6143TIP3    H140064   4.708   4.416   8.066 -1.5454 -0.1301 -0.9248
 6143TIP3    H240065   4.721   4.531   7.969 -0.9567  1.1740  0.6617
 6144TIP3   OH240066   6.182   4.145   1.027  0.2278 -0.1458  0.1925
 6144TIP3    H140067   6.125   4.171   0.955  1.2340 -2.8708 -1.7468
 6144TIP3    H240068   6.261   4.199   1.017 -0.3029  0.6705  0.3290
 6145TIP3   OH240069   5.553   5.285   1.625  0.3954  0.6192  0.0489
 6145TIP3    H140070   5.609   5.356   1.656 -0.4522  1.2763  0.1111
 6145TIP3    H240071   5.576   5.274   1.533  1.7279 -0.1888  0.4559
 6146TIP3   OH240072   4.009   5.627   7.471 -0.1351  0.2776 -0.0947
 6146TIP3    H140073   3.989   5.680   7.393  0.7461  1.0444  0.1884
 6146TIP3    H240074   3.998   5.688   7.544  0.0832 -0.1597  0.3024
 6147TIP3   OH240075   2.980   0.277   1.362  0.2752 -0.0237  0.5363
 6147TIP3    H140076   2.997   0.192   1.321 -1.6488 -1.2575  2.1183
 6147TIP3    H240077   2.947   0.256   1.449  2.0546  2.4330  1.9337
 6148TIP3   OH240078   2.172   3.752   2.379  0.1747 -0.3622 -0.2952
 6148TIP3    H140079   2.109   3.698   2.331 -0.1487  0.0586 -0.3601
 6148TIP3    H240080   2.117   3.803   2.439 -0.2277  3.5185 -3.5186
 6149TIP3   OH240081   1.028   5.098   1.689  0.5101 -0.1846  0.6152
 6149TIP3    H140082   0.958   5.114   1.752  0.2123  0.4082  0.1465
 6149TIP3    H240083   1.027   5.176   1.632  1.0558 -0.5109  0.1512
 6150TIP3   OH240084   2.293   1.277   2.012 -0.0710  0.1452  0.2406
 6150TIP3    H140085   2.373   1.228   2.030 -0.2904  0.0795  1.0965
 6150TIP3    H240086   2.303   1.307   1.922  0.8724  0.0504  0.3019
 6151TIP3   OH240087   3.943   0.281   0.382  0.4287  0.6917  0.2464
 6151TIP3    H140088   3.971   0.365   0.346 -2.0515  2.4451  2.1159
 6151TIP3    H240089   3.968   0.284   0.474  0.2066 -0.6217  0.3719
 6152TIP3   OH240090   0.305   6.276   7.982  0.0909  0.3716  1.0197
 6152TIP3    H140091   0.283   6.186   8.005 -0.3850 -0.4085 -2.1232
 6152TIP3    H240092   0.396   6.286   8.011 -0.2039 -0.6840  2.4313
 6153TIP3   OH240093   3.753   4.838   7.248 -0.1021  0.4598 -0.6919
 6153TIP3    H140094   3.695   4.779   7.199 -2.2441  0.7905  1.2363
 6153TIP3    H240095   3.756   4.800   7.336  1.4529  1.2803 -0.3609
 6154TIP3   OH240096   2.537   2.030   2.376  0.1597 -0.1835  0.1071
 6154TIP3    H140097   2.535   1.978   2.295  0.3466  0.0161 -0.0264
 6154TIP3    H240098   2.453   2.076   2.377  1.3162  2.2043 -1.5577
 6155TIP3   OH240099   2.988   3.630   7.113  0.4846 -0.0084  0.9703
 6155TIP3    H140100   2.944   3.631   7.198 -0.5164 -1.8091  0.5353
 6155TIP3    H240101   2.925   3.668   7.052  1.3794  1.7252  1.0522
 6156TIP3   OH240102   0.337   6.001   1.241 -0.0940  0.0329 -0.0908
 6156TIP3    H140103   0.328   6.041   1.155  0.9775  0.8805  0.1744
 6156TIP3    H240104   0.283   5.922   1.237 -1.8106  1.1853 -0.8112
 6157TIP3   OH240105   0.152   2.335   0.734 -0.4400 -0.3673 -0.2336
 6157TIP3    H140106   0.235   2.302   0.769 -0.5509  0.8946  1.2960
 6157TIP3    H240107   0.086   2.306   0.798 -0.7278  1.4433  0.3348
 6158TIP3   OH240108   2.608   6.237   2.931 -0.6043  0.5409 -0.0620
 6158TIP3    H140109   2.600   6.313   2.988 -0.5616 -0.1156  0.8433
 6158TIP3    H240110   2.702   6.228   2.916 -0.5023 -0.0106  0.8042
 6159TIP3   OH240111   0.978   0.902   7.873  0.1544  0.3335 -0.2065
 6159TIP3    H140112   0.929   0.891   7.791 -0.8029  2.0187  0.0906
 6159TIP3    H240113   1.066   0.871   7.852 -0.4879 -0.8268 -1.3727
 6160TIP3   OH240114   2.871   1.196   8.141 -0.5016  0.3527 -0.4384
 6160TIP3    H140115   2.785   1.232   8.162 -0.3585  0.2244  0.4192
 6160TIP3    H240116   2.900   1.246   8.065 -2.1934 -0.9789 -2.0469
 6161TIP3   OH240117   4.552   0.359   8.357  0.2766 -0.4527  0.1679
 6161TIP3    H140118   4.534   0.422   8.426  2.3459 -1.8582  2.1590
 6161TIP3    H240119   4.619   0.400   8.304  1.2544 -0.7241  1.1575
 6162TIP3   OH240120   3.163   0.494   0.633 -0.3940 -0.2294 -0.3326
 6162TIP3    H140121   3.180   0.515   0.541 -0.5257  0.0066 -0.3035
 6162TIP3    H240122   3.138   0.401   0.632  2.5216 -1.1228 -0.1915
 6163TIP3   OH240123   4.043   5.070   0.549 -0.1491  0.0223  0.0449
 6163TIP3    H140124   3.981   5.011   0.592 -0.8088  0.1178 -0.7502
 6163TIP3    H240125   3.989   5.143   0.519  0.4552  0.4113 -0.1077
 6164TIP3   OH240126   1.103   4.679   1.066 -0.1637 -0.4295  0.0190
 6164TIP3    H140127   1.195   4.690   1.042 -0.0029  2.1044  1.4083
 6164TIP3    H240128   1.062   4.762   1.043 -2.1943 -1.5681 -0.7201
 6165TIP3   OH240129   0.567   0.712   7.295 -0.0797 -0.6828  0.4277
 6165TIP3    H140130   0.483   0.753   7.314  0.3122  0.7464 -0.6640
 6165TIP3    H240131   0.546   0.632   7.248 -0.8506 -1.0422  1.3703
 6166TIP3   OH240132   3.123   4.510   7.796 -0.4321  0.5281  0.2535
 6166TIP3    H140133   3.079   4.574   7.740  1.2457  1.2297 -0.3310
 6166TIP3    H240134   3.056   4.444   7.814 -1.0038  0.1538 -2.7566
 6167TIP3   OH240135   2.501   0.928   7.724 -0.3244 -0.1306  0.0634
 6167TIP3    H140136   2.416   0.964   7.748  0.0565 -0.8523  2.9417
 6167TIP3    H240137   2.562   1.001   7.734 -0.1089 -0.5125  2.0365
 6168TIP3   OH240138   5.005   1.596   2.288  0.0093  0.3858  0.0693
 6168TIP3    H140139   5.026   1.600   2.381 -0.7336  0.5340  0.2388
 6168TIP3    H240140   4.911   1.616   2.284  0.0491  0.4370 -0.7147
 6169TIP3   OH240141   6.830   0.420   7.577 -0.2305 -0.0431  0.5817
 6169TIP3    H140142   6.740   0.450   7.584  0.1593  0.9307  1.7120
 6169TIP3    H240143   6.865   0.427   7.666  0.9330 -0.4933  0.1808
 6170TIP3   OH240144   1.011   0.835   2.852 -0.2809 -0.0402  0.2551
 6170TIP3    H140145   1.018   0.753   2.901  3.7495 -0.4316 -0.6165
 6170TIP3    H240146   1.014   0.904   2.918  1.0809 -0.6163  0.8330
 6171TIP3   OH240147   3.299   6.236   0.978 -0.1119 -0.8066  0.2432
 6171TIP3    H140148   3.364   6.230   1.049  0.6001  0.1066 -0.3151
 6171TIP3    H240149   3.327   6.170   0.915 -1.0972 -2.0531  1.0543
 6172TIP3   OH240150   2.318   5.837   2.193 -0.3045  0.6073 -0.4230
 6172TIP3    H140151   2.232   5.802   2.216  0.2168  0.3772  1.2883
 6172TIP3    H240152   2.331   5.809   2.102 -0.9536 -1.5666  0.0852
 6173TIP3   OH240153   3.043   6.166   1.783  0.3096 -0.0277 -0.1952
 6173TIP3    H140154   3.047   6.249   1.830 -0.0344  0.1574 -0.4933
 6173TIP3    H240155   3.128   6.158   1.739  0.1609  0.3994 -0.5645
 6174TIP3   OH240156   4.830   0.083   8.117  0.3805  0.2263 -0.4951
 6174TIP3    H140157   4.888   0.076   8.041 -0.7631 -0.0005 -1.3845
 6174TIP3    H240158   4.790  -0.003   8.125  1.0170  0.0434  0.8234
 6175TIP3   OH240159   3.511   4.027   2.302 -0.3175  0.2770  0.4195
 6175TIP3    H140160   3.553   4.008   2.386 -2.1576 -1.7239  0.9604
 6175TIP3    H240161   3.418   4.016   2.318 -0.6618 -1.8833 -2.2308
 6176TIP3   OH240162   6.161   4.283   7.033 -0.1721  0.1925  0.3422
 6176TIP3    H140163   6.111   4.314   6.957 -0.0853 -0.1713  0.1314
 6176TIP3    H240164   6.195   4.198   7.005  0.6004  0.4553  0.4698
 6177TIP3   OH240165   0.109   1.552   2.673  0.2701  0.4939  0.0975
 6177TIP3    H140166   0.033   1.606   2.654 -0.3331  0.4093  2.0486
 6177TIP3    H240167   0.181   1.615   2.685  0.2817  0.6387 -0.6871
 6178TIP3   OH240168   1.138   6.865   0.063 -0.0824  0.0372  0.0223
 6178TIP3    H140169   1.191   6.879  -0.016  0.1531  1.7535  0.4369
 6178TIP3    H240170   1.159   6.940   0.119  0.8016 -1.8156  2.3423
 6179TIP3   OH240171   3.916   6.629   0.734 -0.1282  0.2423 -0.3209
 6179TIP3    H140172   3.843   6.605   0.677 -0.0671  0.7687 -0.6309
 6179TIP3    H240173   3.875   6.652   0.817 -0.1874 -0.8972 -0.0253
 6180TIP3   OH240174   4.589   6.597   2.400 -0.5015  0.0871  0.0904
 6180TIP3    H140175   4.632   6.516   2.370  1.5171  0.9736  0.4740
 6180TIP3    H240176   4.609   6.661   2.332  0.7424  1.1061  1.3808
 6181TIP3   OH240177   6.330   4.065   1.652 -0.3860  0.3641 -0.3921
 6181TIP3    H140178   6.269   4.000   1.615 -0.4516  1.0527 -1.5384
 6181TIP3    H240179   6.315   4.143   1.600 -0.7978  1.5431  1.4023
 6182TIP3   OH240180   6.382   4.012   7.435  0.3079  0.0288 -0.3025
 6182TIP3    H140181   6.329   4.092   7.438 -0.3011 -0.3751 -0.0109
 6182TIP3    H240182   6.382   3.980   7.525 -1.7330 -1.7327 -0.8556
 6183TIP3   OH240183   5.807   1.003   7.780 -0.5809  0.2893  0.1124
 6183TIP3    H140184   5.790   0.996   7.874  0.6194 -0.1356  0.3158
 6183TIP3    H240185   5.823   0.913   7.752 -0.9097  0.4176 -0.5016
 6184TIP3   OH240186   4.187   3.708   8.259 -0.1312  0.4556 -0.3349
 6184TIP3    H140187   4.178   3.777   8.325 -2.0068  0.3989 -0.4936
 6184TIP3    H240188   4.222   3.633   8.308  3.3562  1.8248 -0.4269
 6185TIP3   OH240189   5.686   1.551   1.234  0.3718 -0.2951 -0.5436
 6185TIP3    H140190   5.732   1.482   1.281  0.1004  0.0564  0.2573
 6185TIP3    H240191   5.628   1.504   1.174 -1.9271 -0.9417  1.9319
 6186TIP3   OH240192   6.588   0.081   7.876 -0.5393 -0.3601 -0.3857
 6186TIP3    H140193   6.645   0.092   7.800 -0.9992 -0.2009 -0.7175
 6186TIP3    H240194   6.507   0.043   7.840 -0.5188 -0.9160  0.1268
 6187TIP3   OH240195   4.242   0.873   7.358 -0.0122 -0.3465 -0.1119
 6187TIP3    H140196   4.213   0.930   7.287  2.4514  0.2987 -0.7070
 6187TIP3    H240197   4.336   0.860   7.341  0.4406 -0.9743  2.4919
 6188TIP3   OH240198   0.488   0.707   7.855  0.4614 -0.4143  0.0854
 6188TIP3    H140199   0.529   0.710   7.769 -1.9633 -0.6351 -1.1324
 6188TIP3    H240200   0.442   0.623   7.857  0.0454 -0.1813  1.4035
 6189TIP3   OH240201   6.848   1.475   8.013 -0.3743 -0.0341 -0.1105
 6189TIP3    H140202   6.895   1.402   8.055  0.3558  0.3649 -0.2317
 6189TIP3    H240203   6.765   1.479   8.060 -0.7874 -1.4937 -0.6505
 6190TIP3   OH240204   1.066   1.771   0.405  0.5907 -0.4187 -0.0712
 6190TIP3    H140205   0.987   1.741   0.449  1.3679 -1.3346  0.7595
 6190TIP3    H240206   1.131   1.777   0.474  1.4720 -0.5106 -0.8687
 6191TIP3   OH240207   1.322   4.746   7.801  0.2680 -0.0294  0.2648
 6191TIP3    H140208   1.298   4.692   7.876  1.2184 -0.1137  0.5194
 6191TIP3    H240209   1.380   4.813   7.837  0.6927 -0.0381 -0.3800
 6192TIP3   OH240210   0.893   3.688   7.894  0.3812 -0.0957  0.3631
 6192TIP3    H140211   0.920   3.741   7.969 -1.7170  0.3172  0.8999
 6192TIP3    H240212   0.972   3.641   7.867  1.6791  1.3670  1.4794
 6193TIP3   OH240213   1.905   6.287   2.546  0.0811 -0.1615 -0.2700
 6193TIP3    H140214   1.955   6.298   2.626  0.2531 -0.4415 -0.3369
 6193TIP3    H240215   1.868   6.374   2.528 -1.1814 -0.4274  0.9070
 6194TIP3   OH240216   5.036   5.788   1.053  0.6112 -0.2163  0.2281
 6194TIP3    H140217   5.076   5.777   0.966 -1.6125  0.3545 -0.9418
 6194TIP3    H240218   4.956   5.837   1.037  1.3825  2.2388  2.9859
 6195TIP3   OH240219   5.208   0.876   7.052 -0.2021 -0.2176  0.2260
 6195TIP3    H140220   5.229   0.912   7.137 -1.4271 -1.0979  0.9417
 6195TIP3    H240221   5.292   0.854   7.013  0.5334  2.3746  0.1681
 6196TIP3   OH240222   6.552   2.448   2.811  0.0909 -0.3654 -0.1165
 6196TIP3    H140223   6.488   2.441   2.740 -1.6456  0.6389  1.2551
 6196TIP3    H240224   6.499   2.453   2.890  1.9692 -1.4403  1.2808
 6197TIP3   OH240225   4.410   2.675   6.815 -0.0577 -0.7548  0.1534
 6197TIP3    H140226   4.413   2.756   6.763 -2.0977 -1.1221 -0.6187
 6197TIP3    H240227   4.398   2.705   6.905  1.4081 -0.1629  0.1767
 6198TIP3   OH240228   4.803   0.765   0.627 -0.3874 -0.1103 -0.5914
 6198TIP3    H140229   4.725   0.794   0.578 -0.0210  0.6496 -0.7336
 6198TIP3    H240230   4.773   0.757   0.717 -0.8284 -0.5900 -0.7740
 6199TIP3   OH240231   5.781   6.500   1.155 -0.0058 -0.0206  0.3618
 6199TIP3    H140232   5.844   6.475   1.222 -1.0634 -1.1143  0.9779
 6199TIP3    H240233   5.813   6.585   1.123  3.3661 -1.7061 -1.3501
 6200TIP3   OH240234   4.934   0.547   2.362  0.5292  0.1410  0.6614
 6200TIP3    H140235   4.885   0.622   2.394  1.3011  0.1773  1.8042
 6200TIP3    H240236   4.969   0.575   2.278 -0.3661  0.5446  0.4127
 6201TIP3   OH240237   5.187   1.555   7.727  0.0155  0.6091 -0.2452
 6201TIP3    H140238   5.142   1.600   7.798  2.7963  1.6970  0.9372
 6201TIP3    H240239   5.242   1.622   7.686  2.1776 -1.0330 -0.2179
 6202TIP3   OH240240   3.839   1.516   1.669  0.6797  0.6218 -0.0570
 6202TIP3    H140241   3.854   1.560   1.585 -0.5874  0.3900 -0.4349
 6202TIP3    H240242   3.898   1.440   1.666  0.9854  0.8668 -0.5317
 6203TIP3   OH240243   2.076   2.114   0.964 -0.3437  0.5819 -0.6092
 6203TIP3    H140244   2.008   2.179   0.946 -1.4233 -0.6539 -1.1708
 6203TIP3    H240245   2.102   2.131   1.054 -1.5763  0.9305 -0.2977
 6204TIP3   OH240246   0.746   4.220   1.634  0.0709 -0.2532  0.6692
 6204TIP3    H140247   0.780   4.278   1.566  0.6509  0.6869  1.7231
 6204TIP3    H240248   0.663   4.188   1.599 -0.2703  1.2321  0.0536
 6205TIP3   OH240249   5.109   5.279   7.745 -0.2204  0.7653  0.1613
 6205TIP3    H140250   5.042   5.291   7.812 -1.1691  0.8510 -0.7723
 6205TIP3    H240251   5.075   5.326   7.669  0.6994  0.4434 -0.4633
 6206TIP3   OH240252   6.421   5.072   7.180 -0.0737 -0.4224 -0.4472
 6206TIP3    H140253   6.491   5.121   7.136  0.2997 -2.2510 -2.0177
 6206TIP3    H240254   6.457   4.983   7.190 -1.2161 -0.7478  1.1084
 6207TIP3   OH240255   6.186   3.663   0.406 -0.7491 -0.0534  0.4844
 6207TIP3    H140256   6.227   3.601   0.466 -0.4007 -0.1787  0.1177
 6207TIP3    H240257   6.146   3.609   0.338  0.1771  0.1316 -0.2353
 6208TIP3   OH240258   0.788   3.160   0.530 -0.0184 -0.2018  0.0986
 6208TIP3    H140259   0.701   3.129   0.553 -0.4415  1.0636  0.2899
 6208TIP3    H240260   0.810   3.224   0.598 -0.1091  1.5230 -1.4066
 6209TIP3   OH240261   2.740   4.896   6.826 -0.0873 -0.0221 -0.2533
 6209TIP3    H140262   2.649   4.891   6.797 -1.1437  2.0914  2.3072
 6209TIP3    H240263   2.775   4.973   6.781 -0.6366  1.1107  1.1671
 6210TIP3   OH240264   2.387   5.440   0.087 -0.0847  0.4868 -0.2896
 6210TIP3    H140265   2.370   5.474   0.175 -0.7660 -1.5367  0.4206
 6210TIP3    H240266   2.436   5.360   0.102 -2.3431 -1.2462 -1.5417
 6211TIP3   OH240267   3.233   1.845   7.700  0.6012 -0.3681 -0.1969
 6211TIP3    H140268   3.155   1.797   7.671 -0.7841  2.0713 -0.8400
 6211TIP3    H240269   3.282   1.863   7.620  1.3526 -1.0863  0.0929
 6212TIP3   OH240270   1.901   1.392   6.686  0.6151  0.5541  0.8190
 6212TIP3    H140271   1.837   1.463   6.686 -1.6500 -1.3807 -0.3358
 6212TIP3    H240272   1.945   1.399   6.601 -0.3826 -0.0515  0.2392
 6213TIP3   OH240273   0.900   0.121   7.866 -0.2094  0.0270  0.4577
 6213TIP3    H140274   0.947   0.046   7.901  2.0653  1.1385 -0.0544
 6213TIP3    H240275   0.950   0.147   7.789 -1.8047  1.1594 -0.2519
 6214TIP3   OH240276   3.129   1.562   6.917 -0.2417  0.2285 -0.1595
 6214TIP3    H140277   3.144   1.617   6.840 -0.4350 -0.7824 -0.9458
 6214TIP3    H240278   3.114   1.475   6.881 -1.1013 -0.1192  0.9887
 6215TIP3   OH240279   6.321   3.793   0.182 -0.2040 -0.8646 -0.0261
 6215TIP3    H140280   6.286   3.833   0.103  0.0643  1.3487  0.8933
 6215TIP3    H240281   6.249   3.743   0.218 -1.4155  0.8370  0.0454
 6216TIP3   OH240282   1.526   3.860   7.336  0.2489  0.0866  0.1531
 6216TIP3    H140283   1.513   3.882   7.244  0.9982  0.7323  0.1996
 6216TIP3    H240284   1.524   3.764   7.338 -1.3679  0.0790 -0.2919
 6217TIP3   OH240285   4.079   6.820   2.059 -0.0775 -0.2508 -0.0447
 6217TIP3    H140286   4.115   6.901   2.095 -1.7642 -0.2032  1.7061
 6217TIP3    H240287   4.134   6.750   2.094 -0.9180 -0.0994  1.6599
 6218TIP3   OH240288   6.697   3.442   1.039 -0.1308  0.3229  0.1799
 6218TIP3    H140289   6.621   3.392   1.068  0.2690 -2.0960 -2.4498
 6218TIP3    H240290   6.671   3.477   0.953  1.1703  0.8225 -0.0377
 6219TIP3   OH240291   1.931   5.517   1.068  0.0434  0.2033 -0.2945
 6219TIP3    H140292   1.962   5.608   1.066 -0.7319  0.4719 -0.2656
 6219TIP3    H240293   1.838   5.523   1.050  0.1913 -0.6998 -1.4436
 6220TIP3   OH240294   6.957   1.235   2.540  0.6245  0.2641 -0.3963
 6220TIP3    H140295   6.923   1.159   2.586 -0.0322  0.3500 -0.7345
 6220TIP3    H240296   6.896   1.306   2.563  1.9025  1.0003  0.9164
 6221TIP3   OH240297   4.624   2.227   0.761  0.2075  0.2981 -0.0876
 6221TIP3    H140298   4.693   2.193   0.818  0.9137  0.4032 -0.8525
 6221TIP3    H240299   4.671   2.264   0.686 -0.7433 -1.6336 -1.7243
 6222TIP3   OH240300   0.629   0.523   0.657 -0.2318  0.0388  0.3259
 6222TIP3    H140301   0.625   0.605   0.706 -1.6867  0.2765 -0.1570
 6222TIP3    H240302   0.555   0.526   0.597  0.5171 -1.0121 -0.7087
 6223TIP3   OH240303   1.645   1.489   7.133  0.3318 -0.0189  0.1916
 6223TIP3    H140304   1.737   1.512   7.144  0.5146  0.4777 -2.0146
 6223TIP3    H240305   1.645   1.404   7.089 -0.3025 -0.5958  1.2557
 6224TIP3   OH240306   2.524   2.869   0.194 -0.0620 -0.0422  0.6750
 6224TIP3    H140307   2.617   2.879   0.178  0.0290 -0.9896  0.5426
 6224TIP3    H240308   2.518   2.801   0.262 -0.6762 -0.9082 -0.2028
 6225TIP3   OH240309   4.910   0.229   0.128  0.3400 -0.1906  0.5367
 6225TIP3    H140310   4.951   0.178   0.058 -1.6335 -0.4575 -0.5163
 6225TIP3    H240311   4.912   0.319   0.097 -1.9103 -0.4871 -0.6879
 6226TIP3   OH240312   1.068   1.453   8.357  0.6619 -0.0930 -0.0757
 6226TIP3    H140313   1.075   1.412   8.443  0.0932 -0.8908 -0.3942
 6226TIP3    H240314   1.078   1.381   8.295 -2.3129 -0.1454 -0.6348
 6227TIP3   OH240315   6.970   5.597   1.009  0.0920  0.5415  0.1097
 6227TIP3    H140316   6.965   5.692   1.016 -0.8231  0.7759 -2.5005
 6227TIP3    H240317   6.880   5.568   1.016  0.2203  0.0080 -0.3775
 6228TIP3   OH240318   5.925   0.619   0.848 -0.6548 -0.1076 -0.0519
 6228TIP3    H140319   5.988   0.690   0.861  0.7792 -0.8158 -2.5060
 6228TIP3    H240320   5.839   0.661   0.858  0.1381  1.3338  1.2466
 6229TIP3   OH240321   1.336   6.503   0.129  0.1167 -0.5824 -0.3616
 6229TIP3    H140322   1.411   6.558   0.152 -1.3789  2.3396 -1.9747
 6229TIP3    H240323   1.293   6.486   0.213  1.4939 -0.7390  0.3593
 6230TIP3   OH240324   2.314   5.707   7.821 -0.6168 -0.0849  0.1628
 6230TIP3    H140325   2.273   5.754   7.893 -1.8926 -1.5918  0.4717
 6230TIP3    H240326   2.242   5.674   7.769  0.2840  0.9451 -1.8487
 6231TIP3   OH240327   0.517   1.922   6.515  0.3357  0.1142 -0.1322
 6231TIP3    H140328   0.534   1.995   6.574 -0.3449 -0.0072  0.2247
 6231TIP3    H240329   0.531   1.844   6.569 -0.9916  0.0094  0.0850
 6232TIP3   OH240330   2.360   2.415   1.822 -0.0405 -0.5105 -0.1291
 6232TIP3    H140331   2.285   2.370   1.782 -2.8012  2.5219  1.1288
 6232TIP3    H240332   2.388   2.478   1.756 -0.7680  0.5107  0.4979
 6233TIP3   OH240333   5.736   3.618   1.306 -0.0079 -0.1455  0.5246
 6233TIP3    H140334   5.820   3.610   1.262 -0.8105 -0.1792 -1.0933
 6233TIP3    H240335   5.734   3.708   1.338  0.5066 -0.0507  0.2970
 6234TIP3   OH240336   4.626   4.794   2.342 -0.2830 -0.3856  0.3577
 6234TIP3    H140337   4.567   4.800   2.417 -1.5017 -3.0892 -0.2391
 6234TIP3    H240338   4.613   4.876   2.295 -0.6935  0.6899  2.2364
 6235TIP3   OH240339   4.480   4.761   1.414 -0.3280  0.1298  0.4605
 6235TIP3    H140340   4.442   4.736   1.331  1.5342 -0.7488 -0.1809
 6235TIP3    H240341   4.553   4.819   1.391 -1.6564  2.4346  1.6792
 6236TIP3   OH240342   2.723   6.210   0.464 -0.1921  0.0390 -0.1015
 6236TIP3    H140343   2.691   6.123   0.489 -0.7191 -0.3161 -1.9029
 6236TIP3    H240344   2.765   6.197   0.379  2.2006  1.0592  0.8348
 6237TIP3   OH240345   4.214   2.829   0.131  0.1151 -1.0431  0.0286
 6237TIP3    H140346   4.162   2.859   0.057  1.2591 -0.8827 -0.7471
 6237TIP3    H240347   4.296   2.877   0.124  0.8081 -2.0976  0.5587
 6238TIP3   OH240348   3.042   6.793   8.141 -0.6200  0.0764  0.1174
 6238TIP3    H140349   3.043   6.841   8.225 -1.4492 -0.3996  0.4057
 6238TIP3    H240350   2.980   6.842   8.087  0.5760  0.9109 -0.5581
 6239TIP3   OH240351   3.606   2.129   8.110  0.1476  0.2140 -0.0919
 6239TIP3    H140352   3.658   2.108   8.032 -0.1125  1.4714 -0.6369
 6239TIP3    H240353   3.519   2.149   8.076 -0.4065 -0.7560  0.7050
 6240TIP3   OH240354   5.652   2.009   7.456 -0.0900  0.1151  0.1395
 6240TIP3    H140355   5.642   1.915   7.447 -0.2225  0.0843  0.5924
 6240TIP3    H240356   5.619   2.045   7.374 -1.0872 -0.1646  0.4074
 6241TIP3   OH240357   6.293   4.118   7.900  0.4470 -0.1530 -0.3021
 6241TIP3    H140358   6.211   4.069   7.911 -0.2408  0.7006 -1.3299
 6241TIP3    H240359   6.325   4.132   7.989 -0.6334 -0.3284  0.1315
 6242TIP3   OH240360   4.028   6.013   2.018  0.2029  0.6066  0.1259
 6242TIP3    H140361   4.015   5.962   1.938 -1.4033  3.2335 -1.4456
 6242TIP3    H240362   3.940   6.026   2.052  0.6291  1.7198  0.8565
 6243TIP3   OH240363   2.773   0.406   7.709  0.0785  0.4172 -0.2657
 6243TIP3    H140364   2.751   0.454   7.629 -0.6055  0.0019 -0.3371
 6243TIP3    H240365   2.868   0.412   7.715  0.0840  0.9590 -0.7888
 6244TIP3   OH240366   0.869   6.579   2.338 -1.1702 -0.2380 -0.4470
 6244TIP3    H140367   0.919   6.659   2.322 -2.2554  0.6804  0.5649
 6244TIP3    H240368   0.890   6.522   2.263 -0.0413  0.8017 -0.9616
 6245TIP3   OH240369   1.028   4.466   0.204  0.2506 -0.6803 -0.4767
 6245TIP3    H140370   1.118   4.491   0.185  0.1278 -1.1060 -1.6573
 6245TIP3    H240371   1.013   4.387   0.153 -0.4344 -1.2831  0.6148
 6246TIP3   OH240372   1.019   2.569   7.269 -0.4194 -0.3804  0.4981
 6246TIP3    H140373   1.082   2.508   7.308 -1.4361 -1.9009 -0.1085
 6246TIP3    H240374   0.944   2.513   7.246 -1.2022  1.0438 -0.5225
 6247TIP3   OH240375   5.806   2.126   3.022 -0.0829 -1.0081 -0.9040
 6247TIP3    H140376   5.828   2.036   2.998  3.5777 -1.0302  1.7251
 6247TIP3    H240377   5.842   2.178   2.950 -2.3473 -1.5017 -2.5148
 6248TIP3   OH240378   5.019   6.542   0.428  0.4486  0.2947  0.7939
 6248TIP3    H140379   4.953   6.607   0.451  2.0363  1.8448  1.2605
 6248TIP3    H240380   5.096   6.567   0.480  2.2016  0.1259 -1.5507
 6249TIP3   OH240381   2.357   4.462   0.421  0.5300 -0.2856  0.0358
 6249TIP3    H140382   2.402   4.446   0.338  1.3908 -1.9021  0.7803
 6249TIP3    H240383   2.314   4.379   0.441  1.7692 -0.4985  2.0550
 6250TIP3   OH240384   6.032   0.352   7.230  0.6362 -0.3645 -0.0172
 6250TIP3    H140385   5.977   0.375   7.305  1.0904  1.0744 -0.0869
 6250TIP3    H240386   5.970   0.325   7.163  0.0362  0.5917  0.1294
 6251TIP3   OH240387   4.286   3.062   1.649 -0.1385  0.1923  0.2108
 6251TIP3    H140388   4.298   3.152   1.679 -0.1423 -0.0265  0.8814
 6251TIP3    H240389   4.306   3.065   1.555 -0.7986  1.0209  0.0867
 6252TIP3   OH240390   5.122   3.448   2.609 -0.5835 -0.2325 -0.2605
 6252TIP3    H140391   5.088   3.392   2.680  0.8862 -1.4944 -0.4927
 6252TIP3    H240392   5.111   3.396   2.530  1.0396 -0.3495 -0.4514
 6253TIP3   OH240393   5.384   1.277   7.005 -0.4106  0.4181 -0.2132
 6253TIP3    H140394   5.298   1.245   6.980 -0.5263 -0.5203  1.2787
 6253TIP3    H240395   5.436   1.198   7.020  0.0052  0.9290  1.1908
 6254TIP3   OH240396   6.262   6.091   8.276 -0.0684 -0.0122  0.5232
 6254TIP3    H140397   6.181   6.140   8.265 -0.2548 -0.2853  0.6775
 6254TIP3    H240398   6.327   6.139   8.224 -0.7229 -0.7908 -1.0617
 6255TIP3   OH240399   4.415   1.175   7.562  0.2213 -0.1301 -0.2158
 6255TIP3    H140400   4.364   1.095   7.574 -0.4652  0.4348  0.8016
 6255TIP3    H240401   4.475   1.177   7.637 -0.3723  0.7277  0.2637
 6256TIP3   OH240402   5.962   1.956   2.222 -0.0961  0.2720  0.2704
 6256TIP3    H140403   5.893   1.908   2.267 -0.3937  1.4611  1.1062
 6256TIP3    H240404   5.917   2.024   2.173  0.3830  0.2094 -0.2683
 6257TIP3   OH240405   2.514   5.230   0.383  0.3801 -0.0775 -1.4610
 6257TIP3    H140406   2.420   5.248   0.388 -0.3496 -3.3601 -1.1772
 6257TIP3    H240407   2.555   5.316   0.394 -2.5436  1.3275 -0.3519
 6258TIP3   OH240408   0.262   2.967   6.736 -0.4013  0.7471 -0.1508
 6258TIP3    H140409   0.344   2.999   6.774  0.8345 -0.3048 -1.8052
 6258TIP3    H240410   0.289   2.907   6.666 -2.5904  0.3256 -0.7215
 6259TIP3   OH240411   3.699   1.937   7.470  0.3459 -0.3499 -0.3063
 6259TIP3    H140412   3.667   2.016   7.425  0.8336 -0.6408 -1.1903
 6259TIP3    H240413   3.641   1.867   7.441  0.9692 -0.6354 -0.8943
 6260TIP3   OH240414   5.916   1.034   1.540  0.0510 -0.3858  0.0423
 6260TIP3    H140415   5.840   0.977   1.553  0.6938 -1.1467  0.6325
 6260TIP3    H240416   5.886   1.121   1.567 -1.4364 -0.0559 -2.3846
 6261TIP3   OH240417   6.724   0.997   1.058 -0.4940  0.0413  0.5553
 6261TIP3    H140418   6.812   1.012   1.093 -1.2286  1.5274  1.9311
 6261TIP3    H240419   6.709   0.903   1.070  1.0646 -0.3403 -0.1819
 6262TIP3   OH240420   2.034   4.344   1.040 -0.1359 -0.2226  0.1194
 6262TIP3    H140421   2.063   4.255   1.023 -0.8166 -0.4324  0.0107
 6262TIP3    H240422   2.114   4.396   1.043  0.3765 -1.0529  1.5236
 6263TIP3   OH240423   4.930   6.483   1.431 -0.2055 -0.0901  0.9175
 6263TIP3    H140424   4.961   6.438   1.510 -1.3123 -1.7576  0.4561
 6263TIP3    H240425   4.852   6.435   1.405  0.7161 -0.3056 -1.8061
 6264TIP3   OH240426   6.902   3.759   8.037 -0.5386  0.3160  0.1461
 6264TIP3    H140427   6.970   3.801   7.985  0.8427 -1.4099  0.4374
 6264TIP3    H240428   6.873   3.685   7.984  0.0686 -0.7902  1.2919
 6265TIP3   OH240429   5.385   0.602   7.106 -0.1794 -0.4560 -0.0914
 6265TIP3    H140430   5.431   0.684   7.086  1.5218 -1.1177  0.8831
 6265TIP3    H240431   5.400   0.546   7.030  0.8448 -0.7269  0.2859
 6266TIP3   OH240432   1.183   4.644   2.401 -0.3323 -0.6694 -0.5549
 6266TIP3    H140433   1.218   4.727   2.432 -0.3333 -1.1962  0.9629
 6266TIP3    H240434   1.092   4.663   2.377  0.1776  0.1230 -1.9158
 6267TIP3   OH240435   6.345   2.966   6.363  0.2770 -0.2114  0.3966
 6267TIP3    H140436   6.318   3.042   6.415  0.0139 -0.0189 -0.0144
 6267TIP3    H240437   6.265   2.936   6.322  0.8109  1.0855 -1.7808
 6268TIP3   OH240438   5.928   3.882   2.230 -0.2438  0.0751  1.0888
 6268TIP3    H140439   5.947   3.791   2.205 -1.3011 -0.0165  0.5873
 6268TIP3    H240440   6.014   3.923   2.233  0.1366 -0.5214 -0.3546
 6269TIP3   OH240441   1.225   6.600   2.461 -0.2691  0.4217 -0.4351
 6269TIP3    H140442   1.248   6.517   2.504 -0.0657  0.4605 -0.4670
 6269TIP3    H240443   1.254   6.589   2.370 -0.4301  0.4506 -0.4902
 6270TIP3   OH240444   1.237   4.799   0.019 -0.0039 -0.0657 -0.2477
 6270TIP3    H140445   1.321   4.845   0.012  1.5392 -2.9221 -2.8000
 6270TIP3    H240446   1.254   4.726   0.078 -1.2875  0.3042  0.6328
 6271TIP3   OH240447   0.869   2.078   0.432 -0.2245 -0.3249  0.1286
 6271TIP3    H140448   0.875   2.051   0.523  0.9235  1.9360  0.7817
 6271TIP3    H240449   0.809   2.014   0.392  2.5475 -4.0806  1.3511
 6272TIP3   OH240450   2.074   2.129   1.463 -0.4059 -0.0387  0.0485
 6272TIP3    H140451   2.102   2.039   1.477  0.5106  0.2373  0.0311
 6272TIP3    H240452   1.985   2.132   1.499 -0.7254 -1.1255 -0.6055
 6273TIP3   OH240453   3.404   6.704   7.931 -0.3611 -0.6555 -0.5797
 6273TIP3    H140454   3.454   6.781   7.903 -0.6055  0.0779  0.8735
 6273TIP3    H240455   3.458   6.629   7.906  0.2794  0.0187 -1.2611
 6274TIP3   OH240456   3.678   6.425   7.463  0.2298 -0.7251 -0.0296
 6274TIP3    H140457   3.766   6.394   7.440  0.9304  2.1535 -1.7312
 6274TIP3    H240458   3.621   6.392   7.394  0.4747 -0.4435 -0.3696
 6275TIP3   OH240459   5.161   4.271   2.823  0.3070 -0.4839  0.0382
 6275TIP3    H140460   5.123   4.338   2.765  0.0665  0.3473  1.1101
 6275TIP3    H240461   5.255   4.280   2.812  0.2649 -0.2547 -0.1535
 6276TIP3   OH240462   3.130   2.833   7.169  0.2739  0.0699 -0.0168
 6276TIP3    H140463   3.047   2.789   7.190 -0.2262  0.7094 -0.6256
 6276TIP3    H240464   3.106   2.902   7.107  1.2083  0.5225  0.1093
 6277TIP3   OH240465   4.995   2.321   1.624  0.1008 -0.3711 -0.0255
 6277TIP3    H140466   4.935   2.259   1.583 -0.3468  0.6128 -0.9026
 6277TIP3    H240467   4.959   2.333   1.712 -1.3380  0.6127 -0.7065
 6278TIP3   OH240468   0.641   0.519   7.575 -0.2201 -0.3154  0.8873
 6278TIP3    H140469   0.579   0.455   7.610 -1.8401 -1.4350 -3.4176
 6278TIP3    H240470   0.587   0.593   7.548  0.7918  0.1593  0.0795
 6279TIP3   OH240471   1.756   2.729   6.970  0.1920 -0.3496 -0.5096
 6279TIP3    H140472   1.667   2.695   6.970 -0.7212  1.8300 -0.3868
 6279TIP3    H240473   1.769   2.763   7.059  0.9953 -0.3012 -0.6349
 6280TIP3   OH240474   0.235   5.632   1.014  0.2638  0.1338  0.0273
 6280TIP3    H140475   0.281   5.553   0.988  0.5798  0.1061  0.6607
 6280TIP3    H240476   0.142   5.608   1.009  0.2351  0.4949 -2.2479
 6281TIP3   OH240477   6.033   3.494   7.628  0.1899 -0.2512  0.6932
 6281TIP3    H140478   6.038   3.538   7.713  1.4915  0.8646  0.0705
 6281TIP3    H240479   6.056   3.403   7.647  1.2271  0.1447  1.4209
 6282TIP3   OH240480   2.295   0.451   0.896  0.4365 -0.1512 -0.1766
 6282TIP3    H140481   2.213   0.499   0.906  0.5977 -0.0997  0.9618
 6282TIP3    H240482   2.352   0.512   0.848 -0.5131 -0.6099 -1.9995
 6283TIP3   OH240483   4.094   6.547   7.614 -0.4824  0.2807  0.0078
 6283TIP3    H140484   4.054   6.532   7.700 -0.8870  0.5893 -0.1236
 6283TIP3    H240485   4.187   6.556   7.633 -0.4440 -0.5726  0.3014
 6284TIP3   OH240486   6.000   4.111   0.022 -0.1062  0.3207  0.5462
 6284TIP3    H140487   5.995   4.107  -0.074  2.4256 -0.6112  0.3667
 6284TIP3    H240488   6.028   4.201   0.041 -0.4623  0.4621  0.4075
 6285TIP3   OH240489   4.285   6.618   0.939 -0.1683  0.4570  0.5538
 6285TIP3    H140490   4.242   6.664   0.867  0.3675  1.4732  0.8683
 6285TIP3    H240491   4.364   6.581   0.900 -0.3935  0.1495  0.3905
 6286TIP3   OH240492   6.541   1.427   6.773 -0.1051 -0.0858  0.1405
 6286TIP3    H140493   6.598   1.501   6.752 -0.5338  0.4462  0.8112
 6286TIP3    H240494   6.578   1.353   6.723  0.7294  0.4147 -0.0028
 6287TIP3   OH240495   4.163   0.231   0.210  0.1165  0.3619  0.7562
 6287TIP3    H140496   4.224   0.284   0.261 -0.7480  1.2024  0.9358
 6287TIP3    H240497   4.077   0.254   0.244 -0.2692 -1.5095  1.1819
 6288TIP3   OH240498   6.058   5.620   7.963  0.4360  0.9124 -0.7013
 6288TIP3    H140499   6.042   5.671   8.042 -0.1421 -0.2308 -0.0624
 6288TIP3    H240500   6.124   5.556   7.988  0.2514  0.5442 -1.1398
 6289TIP3   OH240501   0.106   5.142   0.822  0.1243  0.3026  0.1648
 6289TIP3    H140502   0.125   5.187   0.739 -0.9164 -0.2536 -0.4035
 6289TIP3    H240503   0.156   5.190   0.888 -0.2579  1.7443 -0.5492
 6290TIP3   OH240504   4.987   5.424   8.090  0.0995  0.1723  0.0675
 6290TIP3    H140505   4.966   5.357   8.026 -0.4946  1.0421 -0.6819
 6290TIP3    H240506   4.963   5.507   8.047  1.8641  0.9638  0.4983
 6291TIP3   OH240507   4.069   5.625   1.548  0.4118 -0.1011 -0.2947
 6291TIP3    H140508   4.009   5.696   1.573 -0.3445 -0.8484  0.0408
 6291TIP3    H240509   4.050   5.608   1.456 -0.2392 -0.6522 -0.0688
 6292TIP3   OH240510   5.490   3.688   6.534  0.0023  0.7041 -0.7286
 6292TIP3    H140511   5.566   3.685   6.476 -0.7527 -1.0489 -1.6952
 6292TIP3    H240512   5.512   3.629   6.606 -0.1349  0.8403 -0.5726
 6293TIP3   OH240513   0.067   4.110   0.765 -0.0843 -0.0924  0.4806
 6293TIP3    H140514   0.018   4.028   0.772  0.7351 -0.7409 -1.1000
 6293TIP3    H240515   0.159   4.084   0.770  0.2654  0.4339 -2.0177
 6294TIP3   OH240516   5.076   6.468   8.040  0.1633  0.1527  0.5296
 6294TIP3    H140517   4.993   6.451   8.084 -1.1111 -1.5547 -2.2684
 6294TIP3    H240518   5.123   6.385   8.043  0.8231  0.5043  0.2158
 6295TIP3   OH240519   4.641   0.059   7.497  0.0896  0.0474 -0.2597
 6295TIP3    H140520   4.661  -0.031   7.472  0.1694  0.5961 -2.3606
 6295TIP3    H240521   4.627   0.105   7.414  0.0741  1.9818  0.7420
 6296TIP3   OH240522   5.346   5.067   0.215 -0.2576 -0.2575  0.7048
 6296TIP3    H140523   5.341   5.098   0.306  0.2736 -0.9523  0.9797
 6296TIP3    H240524   5.379   4.978   0.222 -2.4184 -1.1748 -0.0174
 6297TIP3   OH240525   3.631   4.901   7.676  0.1453  0.5312  0.0384
 6297TIP3    H140526   3.696   4.833   7.660  0.5068  0.8333  0.2327
 6297TIP3    H240527   3.669   4.980   7.638 -0.1818  0.6735  0.0053
 6298TIP3   OH240528   0.965   5.668   0.196  0.0253  0.4043 -0.3918
 6298TIP3    H140529   1.031   5.599   0.194  0.3443  0.7062 -0.4250
 6298TIP3    H240530   1.015   5.750   0.193 -0.3965  0.6692 -2.9932
 6299TIP3   OH240531   0.102   6.331   1.755 -0.2187  0.1630  0.2650
 6299TIP3    H140532   0.008   6.315   1.750 -0.5925  2.2798 -0.6068
 6299TIP3    H240533   0.142   6.245   1.740 -1.9761 -0.9789  1.6944
 6300TIP3   OH240534   3.527   0.794   7.419 -0.3392  0.5049  0.3566
 6300TIP3    H140535   3.519   0.889   7.419  0.5132  0.5823  0.8312
 6300TIP3    H240536   3.566   0.772   7.504 -0.4699 -0.2593  0.2301
 6301TIP3   OH240537   2.804   2.514   1.182  0.0076  0.0244  0.1641
 6301TIP3    H140538   2.844   2.561   1.109 -0.2025 -0.1882 -0.0894
 6301TIP3    H240539   2.776   2.583   1.242  0.0808  0.2046 -0.0076
 6302TIP3   OH240540   1.250   5.229   7.074  0.3565  0.6710  0.1718
 6302TIP3    H140541   1.199   5.243   7.154  2.1161  3.0563  0.9693
 6302TIP3    H240542   1.244   5.311   7.026  2.5407  0.6742 -0.2049
 6303TIP3   OH240543   3.057   1.962   7.942 -0.5616 -0.7341 -0.0302
 6303TIP3    H140544   3.113   1.971   7.865 -0.2302 -1.2571  0.1458
 6303TIP3    H240545   3.040   1.868   7.948 -1.3490 -0.5976 -0.0024
 6304TIP3   OH240546   0.397   4.611   2.461 -0.2605  0.3627 -0.2210
 6304TIP3    H140547   0.383   4.516   2.458  0.0711  0.3301 -1.7332
 6304TIP3    H240548   0.462   4.627   2.392  0.8673  1.5039  1.0492
 6305TIP3   OH240549   5.829   6.326   2.742 -0.1619 -0.2462  0.0833
 6305TIP3    H140550   5.865   6.413   2.759 -0.2380 -0.5527  2.0215
 6305TIP3    H240551   5.905   6.273   2.717  0.4167 -0.3317  1.9023
 6306TIP3   OH240552   5.743   4.070   7.426 -0.5633 -0.1204  0.9578
 6306TIP3    H140553   5.725   4.077   7.332 -4.5333 -0.7852  1.4569
 6306TIP3    H240554   5.809   4.002   7.433 -3.8341 -3.9836 -1.3266
 6307TIP3   OH240555   1.948   2.495   7.799  0.0175 -0.7042  0.3620
 6307TIP3    H140556   1.872   2.544   7.767  1.1042 -0.0942 -1.4453
 6307TIP3    H240557   2.021   2.528   7.747  0.9937 -3.4602 -0.1884
 6308TIP3   OH240558   2.437   6.822   1.771 -0.1825  0.2420 -0.2739
 6308TIP3    H140559   2.458   6.869   1.852 -1.2343  0.6223 -0.2039
 6308TIP3    H240560   2.487   6.867   1.703  1.2898 -0.5425  0.2537
 6309TIP3   OH240561   5.258   4.566   2.032 -0.2810  0.5992 -0.0283
 6309TIP3    H140562   5.247   4.637   1.968  1.0755  2.6472  1.8655
 6309TIP3    H240563   5.223   4.601   2.113  0.2112 -1.0167  0.9229
 6310TIP3   OH240564   6.659   0.922   7.348 -0.3876  0.1293 -0.5819
 6310TIP3    H140565   6.685   0.907   7.439  1.0718 -1.2686 -1.1704
 6310TIP3    H240566   6.614   0.841   7.322  0.9085 -0.2878 -1.6388
 6311TIP3   OH240567   2.158   4.732   2.528 -0.2430  0.4730 -0.4535
 6311TIP3    H140568   2.193   4.643   2.524 -1.4592 -0.0245 -0.5741
 6311TIP3    H240569   2.179   4.762   2.616  0.2648  0.1077 -0.4453
 6312TIP3   OH240570   6.839   3.266   7.972 -0.2616  0.2877 -0.7219
 6312TIP3    H140571   6.914   3.234   7.922 -0.7158 -1.3676 -0.3996
 6312TIP3    H240572   6.876   3.298   8.054 -0.0320 -2.3220  0.2721
 6313TIP3   OH240573   3.475   6.484   0.810  0.1072 -0.0512 -0.4900
 6313TIP3    H140574   3.506   6.574   0.799 -2.8319  1.1668  0.0369
 6313TIP3    H240575   3.450   6.478   0.902 -1.5188 -0.7034 -0.9338
 6314TIP3   OH240576   1.983   0.722   2.468 -0.0092  0.5703  0.1461
 6314TIP3    H140577   2.010   0.631   2.464 -0.0908  0.5457  0.1382
 6314TIP3    H240578   1.988   0.745   2.560  0.8355  0.8131  0.0410
 6315TIP3   OH240579   3.426   6.007   0.859  0.1800 -0.2450  0.2759
 6315TIP3    H140580   3.479   5.971   0.929  1.2031 -0.0773 -0.3853
 6315TIP3    H240581   3.388   5.931   0.815  1.0385 -0.4541 -0.1265
 6316TIP3   OH240582   5.299   5.707   7.328  0.3235 -0.2893 -0.0134
 6316TIP3    H140583   5.377   5.661   7.360  0.5659  1.0320  1.4097
 6316TIP3    H240584   5.281   5.773   7.395 -0.8600  0.7392 -1.2910
 6317TIP3   OH240585   2.829   6.356   8.399  0.4970  0.7260 -0.2108
 6317TIP3    H140586   2.740   6.391   8.400 -0.4819 -1.3525 -2.3260
 6317TIP3    H240587   2.864   6.381   8.314  1.2662  0.0793 -0.1026
 6318TIP3   OH240588   5.075   0.773   0.701 -0.2927 -0.1454 -0.4771
 6318TIP3    H140589   5.068   0.866   0.721 -0.3924 -0.1895 -0.3031
 6318TIP3    H240590   4.984   0.746   0.684 -0.0342  0.3171 -2.9446
 6319TIP3   OH240591   5.493   5.684   1.701 -0.3617  0.1501 -0.1428
 6319TIP3    H140592   5.406   5.647   1.687 -0.3407  0.4218 -1.0703
 6319TIP3    H240593   5.526   5.702   1.613  0.1583  1.1236  0.2296
 6320TIP3   OH240594   5.044   1.284   7.474 -0.1999  0.9333  0.3062
 6320TIP3    H140595   5.038   1.265   7.567  2.8801  0.0285  0.4212
 6320TIP3    H240596   5.069   1.376   7.469 -2.2629  1.5404  0.2276
 6321TIP3   OH240597   0.891   4.233   1.039  0.4466 -0.5128 -0.4102
 6321TIP3    H140598   0.948   4.214   0.964 -0.2345  0.0645 -1.0915
 6321TIP3    H240599   0.808   4.261   0.999  0.4997  1.0905  0.5536
 6322TIP3   OH240600   0.376   6.694   7.868 -0.2596  0.1810  0.2819
 6322TIP3    H140601   0.455   6.640   7.862 -0.5102 -0.1077 -0.6584
 6322TIP3    H240602   0.401   6.768   7.923  0.0856 -0.9018  1.6460
 6323TIP3   OH240603   3.635   1.858   7.947 -0.2036  0.3317 -0.2123
 6323TIP3    H140604   3.541   1.875   7.938 -0.2036  0.4997  0.0933
 6323TIP3    H240605   3.651   1.865   8.041  0.1054  0.2562 -0.2620
 6324TIP3   OH240606   3.154   1.606   0.437 -0.0149  0.4383  0.2803
 6324TIP3    H140607   3.156   1.510   0.444  0.4302  0.4565  0.4461
 6324TIP3    H240608   3.122   1.623   0.348  0.3974  0.1290  0.0695
 6325TIP3   OH240609   6.419   6.648   8.166 -0.6421 -0.2961 -0.1092
 6325TIP3    H140610   6.465   6.699   8.099  2.9909 -0.4421  2.0149
 6325TIP3    H240611   6.369   6.713   8.215 -0.9600  0.2518 -1.1242
 6326TIP3   OH240612   2.325   5.291   0.595  0.4469 -0.0870  0.4350
 6326TIP3    H140613   2.307   5.364   0.536 -0.4396 -1.7409 -1.4494
 6326TIP3    H240614   2.264   5.302   0.668  0.9416  1.5071  0.6321
 6327TIP3   OH240615   0.247   5.738   1.255 -0.3439 -0.3069 -0.1514
 6327TIP3    H140616   0.281   5.698   1.175  0.0105 -1.8403  0.7341
 6327TIP3    H240617   0.167   5.689   1.273  0.0478 -0.5633  0.9117
 6328TIP3   OH240618   0.799   5.348   1.072 -0.0717 -0.0432  0.3700
 6328TIP3    H140619   0.879   5.383   1.111  0.1672  1.7815 -1.5627
 6328TIP3    H240620   0.730   5.406   1.102 -0.4290 -0.6622  0.7621
 6329TIP3   OH240621   6.297   2.257   6.476 -0.0602 -0.4033 -0.3281
 6329TIP3    H140622   6.225   2.309   6.512  0.7929  0.3204  0.3592
 6329TIP3    H240623   6.259   2.170   6.464 -1.2289  0.1061 -0.5628
 6330TIP3   OH240624   4.702   4.919   2.725 -0.3781 -0.5222  0.6114
 6330TIP3    H140625   4.696   5.012   2.702 -0.5736  0.0202  2.6848
 6330TIP3    H240626   4.647   4.875   2.660 -0.2362  0.7948 -0.4413
 6331TIP3   OH240627   4.233   5.322   3.093  0.4579 -0.1131 -0.1386
 6331TIP3    H140628   4.283   5.403   3.103  0.8281 -0.5271  1.6577
 6331TIP3    H240629   4.263   5.286   3.009  0.4906  1.4345 -0.8348
 6332TIP3   OH240630   3.538   2.377   0.869  0.6066  0.2046 -0.3746
 6332TIP3    H140631   3.631   2.395   0.862  0.3923  1.2255 -0.6482
 6332TIP3    H240632   3.501   2.402   0.785  0.4810 -2.9564 -1.4087
 6333TIP3   OH240633   4.304   6.909   1.356 -0.6068 -0.8209 -0.1262
 6333TIP3    H140634   4.232   6.948   1.407 -0.9460 -2.7177  0.9212
 6333TIP3    H240635   4.278   6.818   1.343  2.0309 -1.8530  1.1335
 6334TIP3   OH240636   3.278   6.336   6.538  0.7065  0.0575 -0.4571
 6334TIP3    H140637   3.195   6.383   6.550  0.4412 -0.1824 -1.2822
 6334TIP3    H240638   3.253   6.244   6.527  1.0434  0.0330 -1.0966
 6335TIP3   OH240639   3.195   6.668   2.874  0.4934  0.3977  0.0757
 6335TIP3    H140640   3.258   6.739   2.891  0.3992  0.9280 -1.6344
 6335TIP3    H240641   3.152   6.654   2.959  0.5014  2.4015  0.4683
 6336TIP3   OH240642   0.814   3.599   1.839  0.4893 -0.2564  0.3275
 6336TIP3    H140643   0.739   3.613   1.781  0.3553 -1.2848  0.2303
 6336TIP3    H240644   0.814   3.505   1.856  1.1301 -0.1159  1.1896
 6337TIP3   OH240645   0.357   5.489   1.430  0.2408 -0.1357  0.0585
 6337TIP3    H140646   0.273   5.455   1.399 -0.4901 -0.8688  2.5280
 6337TIP3    H240647   0.337   5.523   1.518  2.1426  1.5611 -0.0947
 6338TIP3   OH240648   0.360   0.192   1.074  0.1273  0.0426 -0.3759
 6338TIP3    H140649   0.413   0.228   1.003  0.7309 -1.0685 -0.5111
 6338TIP3    H240650   0.420   0.184   1.148  0.3683 -1.8290 -0.7191
 6339TIP3   OH240651   2.611   6.720   0.364 -0.2915 -0.1265 -0.5887
 6339TIP3    H140652   2.594   6.779   0.291  1.4863  1.7246  0.3998
 6339TIP3    H240653   2.694   6.677   0.341 -1.4799 -2.2192 -1.2210
 6340TIP3   OH240654   5.103   4.669   0.076  0.1293  0.0588 -0.2560
 6340TIP3    H140655   5.196   4.667   0.052  0.4346 -0.7041  0.8868
 6340TIP3    H240656   5.081   4.578   0.093 -0.3884  0.4029  1.0411
 6341TIP3   OH240657   0.999   4.583   0.444  0.8833 -0.7465  0.2273
 6341TIP3    H140658   1.019   4.535   0.364  0.0724  0.8571 -1.0271
 6341TIP3    H240659   0.999   4.675   0.417 -2.2545 -0.2825  1.3517
 6342TIP3   OH240660   3.981   0.884   2.085 -0.0319  0.3476  0.2494
 6342TIP3    H140661   4.026   0.800   2.094 -0.5642 -0.1483 -1.3069
 6342TIP3    H240662   3.966   0.914   2.174 -1.0401 -1.8707  0.8941
 6343TIP3   OH240663   4.084   6.084   7.423 -0.1041  0.3029 -0.2437
 6343TIP3    H140664   4.123   6.046   7.344 -0.9394 -0.7695 -0.1602
 6343TIP3    H240665   4.057   6.009   7.474 -1.6515  1.0137  0.0186
 6344TIP3   OH240666   3.865   4.657   7.771 -0.4824 -0.0007  0.0669
 6344TIP3    H140667   3.902   4.609   7.696 -0.4325 -3.0701  1.9098
 6344TIP3    H240668   3.938   4.712   7.802  0.8481 -1.8433  0.3443
 6345TIP3   OH240669   1.865   1.242   7.589  0.0990  0.0352 -0.0082
 6345TIP3    H140670   1.938   1.304   7.592  2.4799 -2.5316 -0.4954
 6345TIP3    H240671   1.853   1.215   7.680  1.6160 -1.4330 -0.1926
 6346TIP3   OH240672   0.928   0.867   1.828  0.1801 -0.2679 -0.3217
 6346TIP3    H140673   0.944   0.937   1.764 -1.9214  0.1592 -0.4469
 6346TIP3    H240674   0.877   0.802   1.780 -0.0755 -0.6881  0.5003
 6347TIP3   OH240675   2.082   5.887   1.245  0.4647  0.1130  0.0593
 6347TIP3    H140676   2.102   5.817   1.184  1.4137 -0.0138  0.4918
 6347TIP3    H240677   1.993   5.914   1.223  0.0701 -1.2459 -0.0825
 6348TIP3   OH240678   5.463   4.428   8.026 -0.0470 -0.6973  0.0561
 6348TIP3    H140679   5.525   4.371   7.981  1.3052  0.2492  0.6623
 6348TIP3    H240680   5.379   4.382   8.018  0.5680 -1.6544 -1.4175
 6349TIP3   OH240681   0.657   0.898   7.998  0.2561 -0.1367 -0.2759
 6349TIP3    H140682   0.605   0.830   7.954 -2.1650  1.3721  0.0713
 6349TIP3    H240683   0.733   0.851   8.032 -1.5028 -2.7945  0.3263
 6350TIP3   OH240684   3.137   1.194   2.390  0.4590 -0.0063  0.0071
 6350TIP3    H140685   3.072   1.166   2.454  3.1120 -1.3623  2.3128
 6350TIP3    H240686   3.154   1.116   2.337 -1.5671  1.0488 -2.3961
 6351TIP3   OH240687   6.524   0.235   1.226 -0.3653  0.0502 -0.0848
 6351TIP3    H140688   6.523   0.326   1.256 -1.9766 -0.1500  0.6091
 6351TIP3    H240689   6.609   0.201   1.253 -1.0226  0.4046  2.7664
 6352TIP3   OH240690   5.930   5.635   0.813 -0.2548 -0.2487 -0.6444
 6352TIP3    H140691   6.019   5.618   0.782 -0.1778  0.7878 -1.0284
 6352TIP3    H240692   5.919   5.574   0.887  1.6172  1.1369  0.8916
 6353TIP3   OH240693   1.120   5.597   3.044  0.5326  0.1521  0.1562
 6353TIP3    H140694   1.031   5.627   3.025  1.1428  1.0372 -1.4737
 6353TIP3    H240695   1.177   5.663   3.004  1.9286 -1.5977 -0.8905
 6354TIP3   OH240696   2.432   3.881   1.218 -0.1665  1.3449 -0.4720
 6354TIP3    H140697   2.492   3.918   1.283 -1.4145  0.5590  1.1924
 6354TIP3    H240698   2.417   3.791   1.247 -1.0733  1.0946 -1.6400
 6355TIP3   OH240699   1.746   0.995   0.881 -0.0032 -0.1701  0.3200
 6355TIP3    H140700   1.823   0.939   0.876 -0.0084 -0.2755  1.2096
 6355TIP3    H240701   1.775   1.074   0.927 -0.5717 -0.5082  1.3024
 6356TIP3   OH240702   4.852   1.046   7.500  0.4473  0.1263 -0.0869
 6356TIP3    H140703   4.904   1.123   7.478 -0.9125  1.3456  0.7671
 6356TIP3    H240704   4.907   0.972   7.475  2.2348  1.3460  0.0256
 6357TIP3   OH240705   1.571   4.791   7.989 -0.8414 -0.1497 -0.4783
 6357TIP3    H140706   1.545   4.768   8.078  0.1242  0.6297  0.0148
 6357TIP3    H240707   1.659   4.756   7.979 -0.9594 -0.2740 -1.1542
 6358TIP3   OH240708   6.606   3.009   6.324 -0.2113  0.0868 -0.0423
 6358TIP3    H140709   6.511   3.010   6.321 -0.2132 -0.0647 -0.0187
 6358TIP3    H240710   6.629   3.091   6.369 -0.4026 -0.7256  1.6411
 6359TIP3   OH240711   2.443   2.626   7.940 -0.3277  0.0520 -0.0211
 6359TIP3    H140712   2.405   2.538   7.934 -1.7500  0.5446  1.1401
 6359TIP3    H240713   2.444   2.646   8.033  4.2966 -0.4574  0.2840
 6360TIP3   OH240714   4.461   3.909   6.686  0.6406  0.8382 -0.2254
 6360TIP3    H140715   4.411   3.980   6.725 -1.8651 -0.7978 -0.1759
 6360TIP3    H240716   4.457   3.925   6.591  1.6473  1.6664 -0.1474
 6361TIP3   OH240717   6.772   0.380   2.473 -0.4171 -0.4533  0.3668
 6361TIP3    H140718   6.811   0.467   2.475  1.6216 -1.3147  0.8776
 6361TIP3    H240719   6.700   0.384   2.535 -0.9422  1.1113 -0.3123
 6362TIP3   OH240720   5.038   4.267   6.923 -0.0229  0.7324 -0.0788
 6362TIP3    H140721   4.994   4.210   6.986 -0.6941  1.1507 -0.1579
 6362TIP3    H240722   5.060   4.346   6.973 -0.1737  0.8872 -0.2516
 6363TIP3   OH240723   6.739   1.602   8.299 -0.3225 -0.3458  0.1176
 6363TIP3    H140724   6.655   1.638   8.328  1.8317  4.4160  1.2710
 6363TIP3    H240725   6.760   1.651   8.219  1.7432 -0.8546  0.2910
 6364TIP3   OH240726   2.612   2.066   7.545 -0.2026  0.3194  0.0332
 6364TIP3    H140727   2.581   1.981   7.514 -0.0706 -0.2231  1.3174
 6364TIP3    H240728   2.610   2.059   7.641  0.6090  1.4695  0.1579
 6365TIP3   OH240729   6.426   6.697   1.208 -0.1563  0.4492 -0.2760
 6365TIP3    H140730   6.440   6.622   1.150 -0.9751  1.4530 -1.8458
 6365TIP3    H240731   6.489   6.763   1.178  1.3627  0.0363  1.8351
 6366TIP3   OH240732   5.751   4.858   7.957  0.2368  0.1439  0.6758
 6366TIP3    H140733   5.744   4.909   8.038  0.1013 -1.1886  1.5321
 6366TIP3    H240734   5.845   4.853   7.941  0.2135  3.0988 -1.0673
 6367TIP3   OH240735   0.155   3.861   7.889 -0.0102 -0.0310 -0.5643
 6367TIP3    H140736   0.157   3.957   7.893 -0.9039 -0.0462  1.9882
 6367TIP3    H240737   0.222   3.838   7.825  1.6198  2.2503  0.2059
 6368TIP3   OH240738   1.062   3.828   1.377 -0.1050 -0.1296 -0.0136
 6368TIP3    H140739   0.992   3.891   1.361 -0.8158 -0.9411 -0.1644
 6368TIP3    H240740   1.064   3.819   1.472 -0.8080 -0.7493 -0.0452
 6369TIP3   OH240741   3.902   2.927   7.214 -0.4171 -0.3857 -0.3460
 6369TIP3    H140742   3.975   2.966   7.262 -0.5684 -0.7213  0.1592
 6369TIP3    H240743   3.923   2.943   7.122 -0.0346  0.0968 -0.1796
 6370TIP3   OH240744   1.953   0.681   8.306  0.6309 -0.9714 -0.7116
 6370TIP3    H140745   2.023   0.719   8.252 -0.4369 -0.8294 -2.0827
 6370TIP3    H240746   1.893   0.642   8.242 -1.7414  0.9474  0.1637
 6371TIP3   OH240747   3.787   2.576   8.254  0.3265 -0.5698  0.1636
 6371TIP3    H140748   3.813   2.645   8.193 -0.2880  0.3763  0.9429
 6371TIP3    H240749   3.854   2.509   8.244  0.9890  0.1746 -0.5564
 6372TIP3   OH240750   0.157   6.510   2.382  0.3422 -0.3472  1.3006
 6372TIP3    H140751   0.189   6.598   2.401 -2.2746  1.3652 -1.2753
 6372TIP3    H240752   0.223   6.473   2.323  1.1060  0.1449  1.8197
 6373TIP3   OH240753   3.703   2.055   6.789  0.1126  0.0656  0.1670
 6373TIP3    H140754   3.753   1.976   6.812 -2.1718 -0.9243  2.1102
 6373TIP3    H240755   3.749   2.126   6.835  1.4913 -0.2854 -0.6187
 6374TIP3   OH240756   5.572   6.185   2.355 -0.4174  0.6158  0.2518
 6374TIP3    H140757   5.486   6.217   2.330 -1.1784 -0.6543  1.1305
 6374TIP3    H240758   5.556   6.098   2.391  1.4219 -0.2722 -0.9264
 6375TIP3   OH240759   4.553   0.438   1.744  0.1914  0.2246 -0.3116
 6375TIP3    H140760   4.532   0.471   1.831 -1.9425 -2.1241  0.1760
 6375TIP3    H240761   4.472   0.447   1.694  0.5184 -1.1052 -1.1372
 6376TIP3   OH240762   5.109   3.295   1.476 -0.0105 -0.5172  0.5506
 6376TIP3    H140763   5.088   3.379   1.436 -1.0058 -0.8056  0.4519
 6376TIP3    H240764   5.096   3.309   1.570 -1.2905 -0.8617  0.4406
 6377TIP3   OH240765   2.112   0.996   8.400  0.2383  0.0626 -0.0129
 6377TIP3    H140766   2.085   0.923   8.454  2.1919 -1.4380 -0.9277
 6377TIP3    H240767   2.033   1.022   8.352 -0.5325 -1.3501  0.4432
 6378TIP3   OH240768   5.054   4.741   1.509 -0.2564 -0.4267 -0.0385
 6378TIP3    H140769   5.109   4.807   1.467 -0.3039  2.0170  3.3117
 6378TIP3    H240770   5.113   4.668   1.526  0.9095  0.4484 -0.2070
 6379TIP3   OH240771   3.949   4.418   7.307 -0.2881 -0.2782 -0.2566
 6379TIP3    H140772   3.946   4.322   7.305  1.0317 -0.3269 -1.1021
 6379TIP3    H240773   3.877   4.443   7.365 -2.2051 -1.6744 -1.9035
 6380TIP3   OH240774   2.252   0.179   0.694  0.4106  0.0019 -0.0361
 6380TIP3    H140775   2.308   0.250   0.662 -1.7840  1.5728 -0.6843
 6380TIP3    H240776   2.250   0.191   0.789  1.8054 -0.6254  0.0985
 6381TIP3   OH240777   3.811   3.168   0.578 -0.2663  0.4813 -0.0329
 6381TIP3    H140778   3.786   3.078   0.556  0.0993  0.5639 -0.8123
 6381TIP3    H240779   3.748   3.222   0.532  1.1246  0.6864 -1.8170
 6382TIP3   OH240780   2.843   2.437   6.654  0.0688 -0.0667 -0.5023
 6382TIP3    H140781   2.898   2.383   6.711  0.9833  1.6244  0.2860
 6382TIP3    H240782   2.905   2.486   6.600 -0.6966  0.7269 -0.6908
 6383TIP3   OH240783   1.730   3.239   8.335  0.7682  0.3402  0.4582
 6383TIP3    H140784   1.693   3.242   8.247 -0.7315 -0.8663  0.9779
 6383TIP3    H240785   1.808   3.184   8.327 -0.3670 -1.3027  0.1582
 6384TIP3   OH240786   5.697   3.274   7.596  0.3771  0.0261  0.1839
 6384TIP3    H140787   5.733   3.186   7.600 -0.9674 -0.5271  0.7127
 6384TIP3    H240788   5.625   3.269   7.533  0.7483  0.9313 -0.3397
 6385TIP3   OH240789   1.577   0.632   7.519  0.1981  0.3946  0.1536
 6385TIP3    H140790   1.536   0.708   7.477  3.0581  1.4263 -1.0231
 6385TIP3    H240791   1.558   0.559   7.460 -0.4493  0.7028 -0.0355
 6386TIP3   OH240792   3.701   5.561   7.921 -0.3290 -0.5671 -0.2332
 6386TIP3    H140793   3.655   5.641   7.896 -1.1273 -0.8285  0.3125
 6386TIP3    H240794   3.697   5.505   7.844  0.9621  0.2174 -0.8927
 6387TIP3   OH240795   3.030   3.938   2.001 -0.3526  0.7985 -0.0804
 6387TIP3    H140796   3.087   3.865   2.024 -0.6291  0.6210  0.0559
 6387TIP3    H240797   2.984   3.960   2.082 -0.4772  0.9363 -0.1867
 6388TIP3   OH240798   4.217   6.358   7.408  0.5426  0.7651 -0.0165
 6388TIP3    H140799   4.310   6.342   7.393  0.3152 -1.4582  0.5055
 6388TIP3    H240800   4.179   6.270   7.414 -1.7340  1.6050 -1.0333
 6389TIP3   OH240801   6.299   1.661   0.910  0.3188 -0.2684 -0.5040
 6389TIP3    H140802   6.218   1.686   0.954 -0.1592 -2.4096 -0.0766
 6389TIP3    H240803   6.271   1.624   0.826  0.9733  0.2612 -0.9740
 6390TIP3   OH240804   5.109   3.937   2.554  0.5373  0.5535 -0.1225
 6390TIP3    H140805   5.135   3.902   2.469  0.0407  1.2669 -0.5758
 6390TIP3    H240806   5.032   3.991   2.536  0.0770  0.2654  0.8617
 6391TIP3   OH240807   6.391   1.728   1.524 -0.6674 -0.3092  0.2428
 6391TIP3    H140808   6.404   1.804   1.581  1.4704 -0.2924 -0.1796
 6391TIP3    H240809   6.297   1.725   1.509 -0.7214  3.1126 -0.8575
 6392TIP3   OH240810   2.117   5.355   0.744  0.2506  0.0275 -0.4333
 6392TIP3    H140811   2.078   5.275   0.781 -0.7408  0.5512 -0.2860
 6392TIP3    H240812   2.041   5.407   0.717  0.9052  0.6551 -1.0849
 6393TIP3   OH240813   5.047   4.392   7.638 -0.0770  0.2086 -0.5373
 6393TIP3    H140814   5.074   4.359   7.552 -0.6172 -1.5420 -0.0956
 6393TIP3    H240815   5.074   4.483   7.639  0.4685  0.1067 -2.3390
 6394TIP3   OH240816   5.679   2.907   1.054  0.7949  0.0509 -0.5115
 6394TIP3    H140817   5.591   2.939   1.037  0.8842  0.3344 -0.4544
 6394TIP3    H240818   5.686   2.904   1.149  0.4482 -1.1022 -0.5129
 6395TIP3   OH240819   4.448   1.387   1.596 -0.2270  0.9592  0.6447
 6395TIP3    H140820   4.430   1.363   1.505  1.2608  0.8487  0.3589
 6395TIP3    H240821   4.409   1.474   1.605  0.5494  1.4438 -0.4384
 6396TIP3   OH240822   3.689   0.204   0.260  0.2634  0.2408  0.6808
 6396TIP3    H140823   3.775   0.240   0.283  1.0915 -1.0421 -0.2785
 6396TIP3    H240824   3.680   0.126   0.315  0.4977 -0.5881 -0.4122
 6397TIP3   OH240825   6.963   5.863   1.067  0.1189  0.0676  0.2868
 6397TIP3    H140826   7.029   5.932   1.063 -0.0774  0.2298 -0.2177
 6397TIP3    H240827   6.888   5.898   1.019 -0.8635  0.4432  1.9794
 6398TIP3   OH240828   6.729   1.391   2.677  0.3631 -0.0051  0.0077
 6398TIP3    H140829   6.639   1.359   2.683  0.3219  0.1930  0.5003
 6398TIP3    H240830   6.723   1.482   2.705  0.7733 -0.0893  0.3696
 6399TIP3   OH240831   0.681   4.862   0.273  0.3364  0.2065 -0.1244
 6399TIP3    H140832   0.753   4.836   0.216  0.3871 -0.2710  0.1470
 6399TIP3    H240833   0.688   4.957   0.279  1.6927  0.0738  0.8634
 6400TIP3   OH240834   2.821   6.818   7.247 -0.4168  0.2718 -0.3352
 6400TIP3    H140835   2.807   6.736   7.294  0.7964  1.1834  1.7654
 6400TIP3    H240836   2.748   6.823   7.186 -2.1414 -0.9826  1.4863
 6401TIP3   OH240837   5.781   4.690   0.963  0.2256  0.3164 -0.0010
 6401TIP3    H140838   5.860   4.724   0.921 -0.0953  1.0178 -0.0542
 6401TIP3    H240839   5.771   4.745   1.041  0.7546 -0.8975  0.9601
 6402TIP3   OH240840   5.989   3.714   2.863  0.0917 -0.5238  0.0499
 6402TIP3    H140841   6.014   3.775   2.794  0.4489 -1.2145 -0.4517
 6402TIP3    H240842   6.011   3.627   2.827 -2.3288 -1.1358 -0.1106
 6403TIP3   OH240843   6.601   5.535   8.017 -0.7508 -0.0010  0.1334
 6403TIP3    H140844   6.642   5.621   8.026  1.3318 -0.4550 -3.0996
 6403TIP3    H240845   6.537   5.547   7.947 -0.1418 -1.0948 -0.6461
 6404TIP3   OH240846   5.588   6.353   8.331  0.1575 -0.2664 -0.0828
 6404TIP3    H140847   5.653   6.285   8.316 -0.1237 -0.7571  0.8337
 6404TIP3    H240848   5.615   6.394   8.414 -0.5117 -0.2541  0.1335
 6405TIP3   OH240849   1.567   6.502   7.594 -0.1674  0.0126 -0.5160
 6405TIP3    H140850   1.473   6.514   7.581  0.1493  0.7676 -2.4748
 6405TIP3    H240851   1.589   6.561   7.667 -0.9258  1.2996 -1.2874
 6406TIP3   OH240852   4.735   6.951   1.469 -0.4996 -0.2182  0.6201
 6406TIP3    H140853   4.740   6.855   1.474  2.1549 -0.4395 -2.8475
 6406TIP3    H240854   4.667   6.968   1.403  1.7822 -0.0531 -1.8603
 6407TIP3   OH240855   4.735   1.180   8.198 -0.0600  0.2854  0.9582
 6407TIP3    H140856   4.706   1.268   8.173 -0.7303 -0.5672 -1.6228
 6407TIP3    H240857   4.828   1.179   8.179 -0.1259  0.3175  0.6338
 6408TIP3   OH240858   4.400   5.494   7.000 -0.4068 -0.3366 -0.0988
 6408TIP3    H140859   4.327   5.555   6.986 -0.9599 -1.0570 -0.4089
 6408TIP3    H240860   4.467   5.523   6.939 -0.4436  0.3127  0.1610
 6409TIP3   OH240861   3.750   6.428   1.674 -0.1145  0.2538  0.8344
 6409TIP3    H140862   3.758   6.459   1.764 -0.6950  0.5100  0.7966
 6409TIP3    H240863   3.818   6.475   1.626 -0.3470  0.7271  0.9713
 6410TIP3   OH240864   5.482   1.675   7.776  0.0268 -0.4837  0.3090
 6410TIP3    H140865   5.543   1.740   7.740 -0.8694 -0.9812 -2.3586
 6410TIP3    H240866   5.447   1.716   7.855  0.0636  2.0133 -0.8542
 6411TIP3   OH240867   5.688   6.322   0.942  1.1133 -0.3580 -0.4290
 6411TIP3    H140868   5.736   6.356   0.866  2.8724  0.7019  1.0623
 6411TIP3    H240869   5.692   6.393   1.006 -1.9385 -0.4904  0.0758
 6412TIP3   OH240870   3.123   5.069   2.029 -0.1100  0.4127 -0.3365
 6412TIP3    H140871   3.097   4.986   2.069 -0.5196  0.3789 -0.6695
 6412TIP3    H240872   3.045   5.124   2.034  0.1897  0.8227 -0.0220
 6413TIP3   OH240873   6.526   0.766   0.625  0.1003  0.1345  0.1322
 6413TIP3    H140874   6.574   0.698   0.672 -0.2316  0.1781  0.5448
 6413TIP3    H240875   6.589   0.837   0.615 -0.2086  0.7079  1.7999
 6414TIP3   OH240876   2.117   1.455   0.429 -0.2219  0.0353 -0.3092
 6414TIP3    H140877   2.209   1.482   0.420  0.0431 -0.3279  1.0356
 6414TIP3    H240878   2.100   1.462   0.523 -1.3424 -0.6459 -0.4527
 6415TIP3   OH240879   3.984   4.985   6.643 -0.6358 -0.2382  0.5839
 6415TIP3    H140880   4.011   5.008   6.554 -0.4010  1.6929  1.1187
 6415TIP3    H240881   4.055   4.930   6.676 -0.3123 -0.2577 -0.1233
 6416TIP3   OH240882   6.973   4.248   6.689  0.2730 -0.1128 -0.0166
 6416TIP3    H140883   6.940   4.294   6.612  1.9769  0.5153 -0.4252
 6416TIP3    H240884   6.945   4.303   6.763 -0.4091 -0.1290 -0.2531
 6417TIP3   OH240885   0.209   2.659   0.817  0.5499  0.3418 -0.6362
 6417TIP3    H140886   0.205   2.586   0.879 -0.4143  0.3918 -0.6197
 6417TIP3    H240887   0.182   2.621   0.734  1.2253  0.4170 -0.8972
 6418TIP3   OH240888   0.926   1.002   1.388 -1.1235  0.0472 -0.4479
 6418TIP3    H140889   0.905   1.074   1.448 -0.5676  1.7880 -2.2181
 6418TIP3    H240890   1.012   0.971   1.417 -0.5282  1.3600 -0.7190
 6419TIP3   OH240891   2.693   0.348   2.167 -0.6597 -0.5475  0.2190
 6419TIP3    H140892   2.614   0.401   2.179 -0.3903  0.0730 -0.6042
 6419TIP3    H240893   2.728   0.377   2.083  1.3844  0.4520  1.3417
 6420TIP3   OH240894   2.366   5.937   2.971  0.2109 -0.0003 -0.1557
 6420TIP3    H140895   2.439   5.882   2.998  1.4875  1.2715 -0.8643
 6420TIP3    H240896   2.325   5.964   3.052  2.2174  1.4332  0.4582
 6421TIP3   OH240897   6.744   6.718   7.845  0.1229  0.1030 -0.0344
 6421TIP3    H140898   6.828   6.674   7.854 -0.5567 -1.0501  0.9418
 6421TIP3    H240899   6.744   6.751   7.755  0.9802 -1.2337 -0.5634
 6422TIP3   OH240900   2.078   5.402   2.155  0.1586 -0.4468 -0.2651
 6422TIP3    H140901   2.061   5.308   2.162  0.0050 -0.4459 -0.6005
 6422TIP3    H240902   2.173   5.411   2.158  0.1632 -0.5901  0.0227
 6423TIP3   OH240903   1.182   2.110   2.358 -0.2802 -0.6024  0.0201
 6423TIP3    H140904   1.196   2.017   2.376  0.3295 -0.3260  1.0699
 6423TIP3    H240905   1.235   2.155   2.424 -1.0203  0.4911 -0.1099
 6424TIP3   OH240906   4.413   5.509   7.434  0.2877  0.0579 -0.0160
 6424TIP3    H140907   4.334   5.559   7.414  0.5572 -0.4170 -2.5415
 6424TIP3    H240908   4.477   5.574   7.461 -1.0771  0.3920  2.8479
 6425TIP3   OH240909   2.725   0.349   1.036  0.0257 -1.0967 -0.2465
 6425TIP3    H140910   2.648   0.292   1.039 -0.3848 -0.5518 -0.2080
 6425TIP3    H240911   2.738   0.376   1.127  0.0084 -0.8528 -0.3164
 6426TIP3   OH240912   0.480   2.705   2.618  0.1682 -0.1694  0.2202
 6426TIP3    H140913   0.507   2.747   2.700  2.0857  1.8585 -1.3422
 6426TIP3    H240914   0.403   2.754   2.590  1.6486  1.6036 -0.9481
 6427TIP3   OH240915   5.651   6.887   0.738  0.5135 -0.5129 -0.0801
 6427TIP3    H140916   5.570   6.848   0.771  0.6585 -1.3393 -0.6747
 6427TIP3    H240917   5.662   6.966   0.791 -0.7646 -0.2963 -0.1031
 6428TIP3   OH240918   5.254   6.654   0.539 -0.0622 -0.5199 -0.0436
 6428TIP3    H140919   5.328   6.669   0.480  0.9982 -2.0926  0.8043
 6428TIP3    H240920   5.223   6.742   0.561  1.1130  0.1588 -0.9611
 6429TIP3   OH240921   6.518   2.167   0.504 -0.6220  0.0708  0.3439
 6429TIP3    H140922   6.428   2.135   0.497 -0.9755  0.8019  1.3766
 6429TIP3    H240923   6.555   2.155   0.416 -1.6558 -0.4295 -0.0328
 6430TIP3   OH240924   5.117   2.783   2.105 -0.2121 -0.4336  0.3960
 6430TIP3    H140925   5.155   2.716   2.161 -1.2860 -1.2879  0.1439
 6430TIP3    H240926   5.087   2.735   2.028  3.1449  0.9406 -2.0356
 6431TIP3   OH240927   4.632   4.100   6.922 -0.1743  0.2133  0.8025
 6431TIP3    H140928   4.559   4.094   6.984  0.3274 -0.1055  1.3657
 6431TIP3    H240929   4.667   4.011   6.918 -0.2404  0.2132  0.0023
 6432TIP3   OH240930   5.553   3.707   1.955  0.0646 -0.0737 -0.1865
 6432TIP3    H140931   5.578   3.785   1.906 -0.0610  1.4975  2.0748
 6432TIP3    H240932   5.632   3.684   2.004 -0.7899  0.6307  1.6014
 6433TIP3   OH240933   2.865   6.628   0.321 -0.5785  0.8437 -0.2488
 6433TIP3    H140934   2.901   6.648   0.235  1.4477  1.0037  0.5960
 6433TIP3    H240935   2.939   6.596   0.371 -2.0213 -0.6588  1.0194
 6434TIP3   OH240936   5.582   3.308   6.598 -0.2565  0.7173  0.3328
 6434TIP3    H140937   5.609   3.256   6.673 -1.4525 -0.8397 -0.2459
 6434TIP3    H240938   5.639   3.280   6.527  0.7235  2.0258  0.5580
 6435TIP3   OH240939   1.822   6.839   0.855 -0.6377  0.4191  0.1127
 6435TIP3    H140940   1.752   6.794   0.809 -3.0848  0.7759  3.1982
 6435TIP3    H240941   1.816   6.930   0.825 -0.4097  0.1370 -0.8106
 6436TIP3   OH240942   6.934   4.389   1.698  0.3983  0.2609  0.1831
 6436TIP3    H140943   6.952   4.295   1.697 -0.5132  0.0669  0.5604
 6436TIP3    H240944   6.972   4.422   1.616 -1.1051 -0.8073 -1.0070
 6437TIP3   OH240945   1.974   6.986   7.992 -0.2032  0.1221 -0.0077
 6437TIP3    H140946   1.912   7.011   7.923  0.0596 -0.0120 -0.2980
 6437TIP3    H240947   2.049   7.045   7.979  0.5030 -0.8937 -0.8120
 6438TIP3   OH240948   1.971   2.529   8.360  0.8613  0.1533  0.7591
 6438TIP3    H140949   1.969   2.624   8.353  1.7829  0.2279  1.4837
 6438TIP3    H240950   1.914   2.499   8.289 -1.4435  1.2925  2.0241
 6439TIP3   OH240951   5.070   0.040   7.927 -0.2569 -0.0663 -0.1697
 6439TIP3    H140952   5.095  -0.000   7.844 -0.3447 -2.3885  0.8469
 6439TIP3    H240953   5.125  -0.003   7.992 -1.4112  0.4100  1.1824
 6440TIP3   OH240954   0.216   3.122   2.799  1.0307  0.6926 -0.3641
 6440TIP3    H140955   0.145   3.185   2.809  1.3119  1.2918 -1.7979
 6440TIP3    H240956   0.296   3.174   2.809  1.2884  0.1261  0.6905
 6441TIP3   OH240957   0.077   6.004   2.018  0.3097 -1.1781  0.1371
 6441TIP3    H140958   0.037   6.032   1.936 -1.3356 -1.0607  0.9321
 6441TIP3    H240959   0.050   5.913   2.028 -0.4935 -0.8468  1.1042
 6442TIP3   OH240960   2.070   1.547   7.974 -0.6596 -0.5952 -0.1300
 6442TIP3    H140961   1.993   1.503   7.937 -1.0981 -1.5344  1.7822
 6442TIP3    H240962   2.041   1.636   7.990  0.0006  0.3398 -3.3191
 6443TIP3   OH240963   1.111   3.427   7.844 -0.0297 -0.2105 -0.1272
 6443TIP3    H140964   1.055   3.417   7.921 -0.0704 -2.5092 -0.3614
 6443TIP3    H240965   1.051   3.439   7.771 -0.0537  0.6800  0.0384
 6444TIP3   OH240966   1.910   2.291   1.187 -0.0442 -0.4049  0.3515
 6444TIP3    H140967   1.889   2.286   1.094 -2.2052  2.1626  0.5961
 6444TIP3    H240968   1.833   2.256   1.232 -0.2968  1.1440  1.1824
 6445TIP3   OH240969   4.911   4.721   8.294 -0.4999  0.0351  0.3860
 6445TIP3    H140970   4.988   4.734   8.349 -0.4040  0.9284  0.0534
 6445TIP3    H240971   4.935   4.760   8.210 -1.9143  1.8862  0.7824
 6446TIP3   OH240972   3.682   4.737   0.403  0.4077 -0.3377 -0.2723
 6446TIP3    H140973   3.696   4.699   0.316 -0.6034  0.8446 -1.0039
 6446TIP3    H240974   3.763   4.721   0.450  0.6336 -1.8441 -1.1161
 6447TIP3   OH240975   6.287   2.156   1.221 -0.5274 -0.5152 -0.1882
 6447TIP3    H140976   6.240   2.073   1.220  0.9111 -1.3725  0.1013
 6447TIP3    H240977   6.350   2.147   1.292  0.3651  0.4210 -0.8291
 6448TIP3   OH240978   1.563   5.037   2.899 -0.2653  0.0504  0.3312
 6448TIP3    H140979   1.519   5.101   2.954  0.0382 -0.6610  1.4327
 6448TIP3    H240980   1.492   4.986   2.860 -0.4623 -0.0826  0.8570
 6449TIP3   OH240981   5.399   3.912   7.216  0.1733 -0.6167 -0.5432
 6449TIP3    H140982   5.392   4.006   7.202  0.9670 -0.3967  0.4883
 6449TIP3    H240983   5.341   3.894   7.290  0.0100 -0.9476 -0.7472
 6450TIP3   OH240984   3.374   5.366   7.323  0.8588 -0.4997  0.0149
 6450TIP3    H140985   3.431   5.291   7.307 -0.2630 -1.1829 -0.9643
 6450TIP3    H240986   3.355   5.401   7.236 -2.4960 -2.0758 -0.0417
 6451TIP3   OH240987   6.550   1.222   1.845 -0.1254  0.1778  0.0279
 6451TIP3    H140988   6.503   1.276   1.781  1.2588  0.0331 -1.1856
 6451TIP3    H240989   6.641   1.225   1.814  0.3452 -1.0064  1.2496
 6452TIP3   OH240990   4.715   4.163   0.590  0.8545  0.4144 -0.4625
 6452TIP3    H140991   4.702   4.069   0.601  0.3761  0.1850 -2.5226
 6452TIP3    H240992   4.627   4.198   0.578  0.9499  1.2919  1.1614
 6453TIP3   OH240993   4.448   2.258   8.323  0.2145  0.3449  0.3534
 6453TIP3    H140994   4.521   2.264   8.384  1.0968 -0.4153 -0.5963
 6453TIP3    H240995   4.447   2.167   8.295 -0.5563  0.5394 -0.3133
 6454TIP3   OH240996   5.952   1.996   6.372 -0.5264 -0.0333 -0.4837
 6454TIP3    H140997   5.952   1.988   6.276  1.6189 -0.3520 -0.4950
 6454TIP3    H240998   5.868   1.959   6.398 -1.0465 -0.1904 -2.2262
 6455TIP3   OH240999   4.642   1.448   1.808  0.0900  0.4237  0.1376
 6455TIP3    H141000   4.671   1.530   1.768 -0.9454  0.6803 -0.1224
 6455TIP3    H241001   4.599   1.401   1.737 -0.4267  0.2162  0.5764
 6456TIP3   OH241002   0.541   3.087   0.719  0.0961 -0.0527 -0.2386
 6456TIP3    H141003   0.605   3.050   0.781 -0.9681 -0.3635  0.7170
 6456TIP3    H241004   0.474   3.019   0.711 -2.5746  1.9554  2.5311
 6457TIP3   OH241005   6.939   6.719   8.205  0.2995 -0.4043  0.2164
 6457TIP3    H141006   6.894   6.803   8.214  0.2899 -0.3668 -0.1815
 6457TIP3    H241007   6.870   6.658   8.179  0.1108 -0.7457  1.4631
 6458TIP3   OH241008   5.310   2.326   7.873  0.2133  0.1806  0.1982
 6458TIP3    H141009   5.303   2.361   7.961 -1.0384  2.2641 -0.6725
 6458TIP3    H241010   5.220   2.310   7.845  0.6437 -2.1158 -0.1379
 6459TIP3   OH241011   6.709   2.139   7.771  0.2385 -0.1369 -0.1118
 6459TIP3    H141012   6.666   2.143   7.685 -1.0737  1.0055  0.5523
 6459TIP3    H241013   6.754   2.223   7.779  2.1809 -1.0886 -0.5452
 6460TIP3   OH241014   6.545   0.627   3.127  0.2027 -0.9241 -0.4579
 6460TIP3    H141015   6.512   0.580   3.050 -0.5125 -2.2492  0.6289
 6460TIP3    H241016   6.636   0.649   3.104 -0.5697  0.4930 -2.4583
 6461TIP3   OH241017   6.679   2.317   8.073 -0.1034 -0.5073  0.2690
 6461TIP3    H141018   6.702   2.405   8.103 -1.5657  0.8841 -2.3432
 6461TIP3    H241019   6.761   2.281   8.039  0.1705  0.5701 -0.2568
 6462TIP3   OH241020   2.908   0.997   0.278  0.1840 -0.2341 -0.3324
 6462TIP3    H141021   2.954   1.035   0.353 -0.7865 -0.6318  0.4738
 6462TIP3    H241022   2.921   1.061   0.208  1.3831 -0.0141  0.0638
 6463TIP3   OH241023   2.272   1.923   0.961  0.1316 -0.1816 -0.1726
 6463TIP3    H141024   2.216   1.988   1.004  1.3694  0.6773  0.1594
 6463TIP3    H241025   2.336   1.899   1.028  2.8332  2.0414 -1.7948
 6464TIP3   OH241026   3.900   0.635   8.371  0.5125  0.6770  0.3032
 6464TIP3    H141027   3.851   0.635   8.289 -0.2017  1.0875  0.7258
 6464TIP3    H241028   3.834   0.623   8.439  1.0870  0.4320  0.8307
 6465TIP3   OH241029   1.472   3.019   8.134  0.0478 -0.0219 -0.1960
 6465TIP3    H141030   1.524   3.097   8.153  0.3823 -0.2491 -0.1633
 6465TIP3    H241031   1.521   2.947   8.174  0.4955 -0.4419 -1.4393
 6466TIP3   OH241032   3.321   0.736   0.580 -0.2329 -0.1405  0.1282
 6466TIP3    H141033   3.232   0.766   0.599  0.1448  0.9139  0.3196
 6466TIP3    H241034   3.359   0.718   0.666  0.2483  0.9586  0.1564
 6467TIP3   OH241035   2.898   1.897   0.387 -0.4816 -0.5188 -0.5977
 6467TIP3    H141036   2.976   1.918   0.438  0.8964 -1.2485 -2.3203
 6467TIP3    H241037   2.859   1.983   0.368 -1.6150 -0.2495  2.4033
 6468TIP3   OH241038   3.878   5.252   0.441  0.7252 -0.2675  0.1707
 6468TIP3    H141039   3.942   5.302   0.391  0.1758  0.0054 -0.2669
 6468TIP3    H241040   3.796   5.299   0.429  0.4645 -0.5286  0.8501
 6469TIP3   OH241041   3.091   0.712   1.301 -0.2505 -0.1372  0.0490
 6469TIP3    H141042   3.003   0.740   1.278 -0.7973  0.2837  2.4581
 6469TIP3    H241043   3.095   0.621   1.272 -2.1006 -0.6897  1.3392
 6470TIP3   OH241044   6.169   6.179   2.361 -0.1781  0.3279  0.0201
 6470TIP3    H141045   6.086   6.138   2.335  0.0799  0.7821 -1.6364
 6470TIP3    H241046   6.228   6.106   2.375 -0.5804  0.0333  0.2114
 6471TIP3   OH241047   2.805   2.555   2.615  0.3700  0.3826  0.3413
 6471TIP3    H141048   2.840   2.599   2.693 -2.5506 -0.0215  2.0259
 6471TIP3    H241049   2.760   2.478   2.649 -1.4109  0.4504 -1.6889
 6472TIP3   OH241050   5.658   5.096   1.029  0.4331  0.3926  0.4604
 6472TIP3    H141051   5.614   5.011   1.030 -0.6669  0.9238 -0.3903
 6472TIP3    H241052   5.654   5.124   0.938  2.1541  0.6795  0.4463
 6473TIP3   OH241053   4.940   0.001   8.365 -0.8812 -0.4032  0.4686
 6473TIP3    H141054   5.026  -0.033   8.340 -0.7988  0.3282 -0.2787
 6473TIP3    H241055   4.912   0.052   8.289 -0.1723  2.7995  2.2138
 6474TIP3   OH241056   6.008   6.806   7.931 -0.1490  0.1267 -0.2078
 6474TIP3    H141057   5.950   6.732   7.946 -1.3552  1.0186 -0.2952
 6474TIP3    H241058   6.079   6.771   7.877 -1.1683 -0.7532 -1.0203
 6475TIP3   OH241059   5.978   2.340   0.705  0.0280 -0.4692 -0.0762
 6475TIP3    H141060   6.034   2.417   0.701 -1.0550  0.3890  0.5931
 6475TIP3    H241061   5.906   2.366   0.763 -0.3034 -2.0294  0.2508
 6476TIP3   OH241062   4.965   0.980   1.521 -0.4963 -0.1333 -0.1401
 6476TIP3    H141063   4.880   1.010   1.491  0.2606  0.2850 -1.9723
 6476TIP3    H241064   4.979   0.897   1.475  0.5172  0.3015 -0.6330
 6477TIP3   OH241065   1.268   0.908   0.862 -0.2368 -0.1850  0.0816
 6477TIP3    H141066   1.274   0.975   0.794 -1.3074  0.6541  0.7816
 6477TIP3    H241067   1.358   0.897   0.893  0.0458  0.4562 -0.4865
 6478TIP3   OH241068   2.245   0.655   7.062 -0.0834 -0.6020 -0.2267
 6478TIP3    H141069   2.308   0.617   7.002 -0.3646 -1.0950 -0.2202
 6478TIP3    H241070   2.296   0.680   7.138  0.3183  0.2818 -0.7785
 6479TIP3   OH241071   4.476   1.840   2.005  0.8189  0.4771  0.1662
 6479TIP3    H141072   4.505   1.837   2.096  1.0381 -0.0173  0.0839
 6479TIP3    H241073   4.487   1.931   1.979 -2.5131  1.4698  1.6848
 6480TIP3   OH241074   3.821   2.453   0.789  0.3790  0.0181  0.2743
 6480TIP3    H141075   3.905   2.497   0.802  0.7188 -0.0234 -1.5070
 6480TIP3    H241076   3.831   2.406   0.706 -0.7059 -1.6938  1.0372
 6481TIP3   OH241077   0.503   3.784   1.867  0.2021  0.2297  0.3825
 6481TIP3    H141078   0.541   3.744   1.789 -1.3964 -0.4811 -0.0756
 6481TIP3    H241079   0.566   3.850   1.894  0.6018  0.7742 -1.7623
 6482TIP3   OH241080   5.140   2.014   7.917 -0.5794  0.4081  0.0647
 6482TIP3    H141081   5.208   2.051   7.972 -0.1771 -0.5993  0.2779
 6482TIP3    H241082   5.162   2.042   7.828 -0.2512  0.6223  0.2144
 6483TIP3   OH241083   1.484   2.027   7.161 -0.2092  0.2326 -0.1951
 6483TIP3    H141084   1.490   2.122   7.150 -0.6190  0.2092 -0.6589
 6483TIP3    H241085   1.423   2.015   7.233  1.7388  0.3659  1.5604
 6484TIP3   OH241086   5.850   0.326   7.694  0.4726  0.2167 -0.0785
 6484TIP3    H141087   5.821   0.363   7.778  0.4712 -0.1067  0.0635
 6484TIP3    H241088   5.809   0.240   7.690 -1.0426  0.9533 -1.2595
 6485TIP3   OH241089   6.102   4.658   0.410 -0.2995  0.4701  0.1395
 6485TIP3    H141090   6.194   4.633   0.422 -0.0180  0.6007 -1.5478
 6485TIP3    H241091   6.065   4.588   0.355 -0.7297  1.3389 -0.6942
 6486TIP3   OH241092   6.166   3.195   7.901  0.9791  0.3886  0.2112
 6486TIP3    H141093   6.131   3.107   7.889  2.7493 -0.5941  1.6873
 6486TIP3    H241094   6.127   3.225   7.983 -0.4104  1.4238 -0.8041
 6487TIP3   OH241095   2.597   2.800   1.678  0.6125 -0.3634 -0.6348
 6487TIP3    H141096   2.660   2.727   1.676  0.3662 -0.5709 -1.4280
 6487TIP3    H241097   2.542   2.785   1.601 -0.6251 -0.3723  0.2266
 6488TIP3   OH241098   4.923   1.981   2.746  0.5970  0.6938  0.3954
 6488TIP3    H141099   5.006   1.936   2.763  0.7016  0.0097 -1.6123
 6488TIP3    H241100   4.857   1.912   2.754  0.5854  0.5005 -1.0784
 6489TIP3   OH241101   2.335   4.191   2.216  0.5668 -0.3530  0.1966
 6489TIP3    H141102   2.301   4.190   2.306  0.4712 -1.0018  0.1579
 6489TIP3    H241103   2.409   4.131   2.218  0.6007 -0.3227 -0.1423
 6490TIP3   OH241104   3.873   2.668   1.073  0.2048  0.1630  0.0853
 6490TIP3    H141105   3.953   2.700   1.031  0.7504 -1.7343 -0.4327
 6490TIP3    H241106   3.807   2.667   1.004 -0.3565  1.9002  0.5556
 6491TIP3   OH241107   4.370   3.338   1.665  0.5589  0.2983 -0.5125
 6491TIP3    H141108   4.325   3.393   1.729 -1.0816 -0.6004 -0.8406
 6491TIP3    H241109   4.348   3.377   1.580  2.2455  1.1366 -0.6168
 6492TIP3   OH241110   6.691   2.299   7.341  0.5005  0.2771 -0.1782
 6492TIP3    H141111   6.724   2.263   7.424  2.7758  2.8483  0.1995
 6492TIP3    H241112   6.708   2.231   7.277  1.0401 -0.8105  1.0723
 6493TIP3   OH241113   0.773   4.894   8.083  0.5647  0.0348 -0.0289
 6493TIP3    H141114   0.700   4.871   8.141  0.5879  1.2909  0.5328
 6493TIP3    H241115   0.737   4.962   8.025  1.0120 -0.0279 -0.3846
 6494TIP3   OH241116   4.710   4.234   8.104  0.2894  0.6040 -0.0733
 6494TIP3    H141117   4.661   4.226   8.023  1.5333  0.5829 -0.8474
 6494TIP3    H241118   4.727   4.144   8.132  0.7235  0.5971 -0.3423
 6495TIP3   OH241119   1.177   6.858   1.195  0.0653 -0.0565 -0.3765
 6495TIP3    H141120   1.198   6.952   1.193  0.8506 -0.2457 -1.9546
 6495TIP3    H241121   1.222   6.821   1.119  0.1249 -1.8081  0.4626
 6496TIP3   OH241122   1.720   4.744   8.327  0.3690 -0.1232 -0.5422
 6496TIP3    H141123   1.768   4.671   8.287  2.3832 -0.2196  1.8014
 6496TIP3    H241124   1.628   4.718   8.320  0.8656 -1.7388 -1.8896
 6497TIP3   OH241125   1.463   0.657   7.263 -0.8812  0.7511  0.2750
 6497TIP3    H141126   1.404   0.592   7.300  0.7318  0.7311  3.0273
 6497TIP3    H241127   1.509   0.610   7.193 -1.7172 -0.2015  0.3372
 6498TIP3   OH241128   0.560   4.290   1.940  0.1160 -0.2631  0.4120
 6498TIP3    H141129   0.526   4.275   2.028 -0.9582  0.1710  0.0849
 6498TIP3    H241130   0.483   4.311   1.888  0.7668 -0.3034 -0.5909
 6499TIP3   OH241131   4.651   5.204   1.844 -0.2595  0.0069 -0.0003
 6499TIP3    H141132   4.602   5.128   1.812 -1.3386  1.2157 -1.3314
 6499TIP3    H241133   4.590   5.251   1.899 -0.4494  1.1998 -1.1786
 6500TIP3   OH241134   5.071   2.854   0.088  0.0783 -0.3330 -0.1507
 6500TIP3    H141135   5.004   2.889   0.028  0.3375 -0.4018 -0.4831
 6500TIP3    H241136   5.023   2.793   0.144  0.0464 -1.1889 -1.0737
 6501TIP3   OH241137   0.696   3.969   1.931 -0.1454  0.1484 -1.2071
 6501TIP3    H141138   0.718   3.965   2.024  0.0657 -0.1094 -1.2667
 6501TIP3    H241139   0.684   4.062   1.913  1.2932  0.3509 -1.2627
 6502TIP3   OH241140   6.394   4.273   7.685 -0.4411 -0.3079 -0.0539
 6502TIP3    H141141   6.341   4.245   7.611 -0.3574  0.1523 -0.2875
 6502TIP3    H241142   6.356   4.227   7.760 -0.8905 -0.3183 -0.2853
 6503TIP3   OH241143   6.498   2.092   2.581 -0.4271 -0.7393 -0.0745
 6503TIP3    H141144   6.544   2.142   2.513 -0.5055 -1.5675 -0.7553
 6503TIP3    H241145   6.554   2.015   2.596 -1.4681 -1.6659 -0.7814
 6504TIP3   OH241146   3.909   6.826   0.064  0.2423  0.8100 -0.3078
 6504TIP3    H141147   3.942   6.853   0.150  2.1077 -0.2303 -0.6499
 6504TIP3    H241148   3.840   6.763   0.084  0.0447  1.2409  0.4141
 6505TIP3   OH241149   3.983   1.048   8.366 -0.7312  0.8548  0.0064
 6505TIP3    H141150   3.960   1.065   8.457 -0.6150 -1.7384  0.6178
 6505TIP3    H241151   4.079   1.051   8.364 -0.7223  0.6604  0.0542
 6506TIP3   OH241152   1.938   6.675   8.001 -0.4260  0.1586  0.4315
 6506TIP3    H141153   1.960   6.750   8.057 -2.8601  0.8343  0.6050
 6506TIP3    H241154   1.991   6.688   7.922 -0.5960  1.9494  0.5517
 6507TIP3   OH241155   1.793   6.985   7.753  0.3230  0.1741  0.2394
 6507TIP3    H141156   1.860   6.957   7.690 -0.7628 -1.1207 -0.4048
 6507TIP3    H241157   1.737   6.908   7.764 -2.4819  1.8481 -1.1134
 6508TIP3   OH241158   2.110   3.448   2.972  0.3046  0.2899  0.3000
 6508TIP3    H141159   2.094   3.454   3.066  0.8562  1.3020  0.3402
 6508TIP3    H241160   2.035   3.400   2.938 -0.8277  1.4935  1.0166
 6509TIP3   OH241161   0.221   0.883   7.721 -0.2574 -0.1030 -0.1267
 6509TIP3    H141162   0.246   0.964   7.766  0.4305 -0.5333  0.2840
 6509TIP3    H241163   0.269   0.814   7.768 -0.5369 -0.7037 -0.7147
 6510TIP3   OH241164   2.052   4.813   7.956 -0.2441 -0.3969  0.4187
 6510TIP3    H141165   2.026   4.900   7.986  0.7539 -0.1119  0.4893
 6510TIP3    H241166   2.106   4.830   7.879 -0.6782 -0.9978 -0.0273
 6511TIP3   OH241167   4.695   4.375   6.917 -0.9472 -0.0612  0.0792
 6511TIP3    H141168   4.620   4.371   6.976 -1.5726  1.9074 -0.5189
 6511TIP3    H241169   4.704   4.286   6.884 -2.0692 -0.6652  1.2982
 6512TIP3   OH241170   2.887   5.328   0.588 -0.5958 -0.2448 -0.3172
 6512TIP3    H141171   2.879   5.419   0.562 -0.6262  0.0332  0.6293
 6512TIP3    H241172   2.877   5.329   0.683 -0.1111 -1.1769 -0.2422
 6513TIP3   OH241173   3.421   6.629   2.265 -0.3678  0.2301 -0.3751
 6513TIP3    H141174   3.463   6.607   2.349 -0.6246  0.2560 -0.2384
 6513TIP3    H241175   3.479   6.591   2.199 -1.7758 -2.6558 -0.1223
 6514TIP3   OH241176   3.937   2.435   0.206 -0.2970 -0.7023  0.1071
 6514TIP3    H141177   4.013   2.427   0.263  1.7078  0.1667 -2.2282
 6514TIP3    H241178   3.953   2.517   0.158 -1.7348 -1.4647 -1.7918
 6515TIP3   OH241179   0.123   6.584   1.660 -0.0969  0.0608 -0.3895
 6515TIP3    H141180   0.132   6.495   1.694 -0.1372  0.0077 -0.5176
 6515TIP3    H241181   0.206   6.626   1.680  0.0988 -0.1500 -0.7466
 6516TIP3   OH241182   1.222   1.979   2.709 -0.6321 -0.1441  0.3660
 6516TIP3    H141183   1.273   1.905   2.742 -1.2898 -0.4696  0.6684
 6516TIP3    H241184   1.288   2.046   2.688 -0.1184 -0.3332  1.3155
 6517TIP3   OH241185   2.901   5.350   1.749 -0.1380 -0.3703  0.1920
 6517TIP3    H141186   2.995   5.347   1.734 -0.2073 -0.7087 -0.2111
 6517TIP3    H241187   2.866   5.402   1.676 -0.2785 -0.4042  0.2338
 6518TIP3   OH241188   4.823   4.224   1.796 -0.2964 -0.5926  0.1598
 6518TIP3    H141189   4.747   4.282   1.793  1.1577  1.4067 -0.1281
 6518TIP3    H241190   4.839   4.209   1.890 -0.8167 -0.7273  0.2281
 6519TIP3   OH241191   6.778   4.179   8.287 -0.2967  0.1040  0.0317
 6519TIP3    H141192   6.752   4.129   8.364 -0.7517  0.0372 -0.1658
 6519TIP3    H241193   6.767   4.119   8.213 -0.1991  0.2807 -0.1276
 6520TIP3   OH241194   2.596   0.616   2.025 -0.1912 -0.1897 -0.2412
 6520TIP3    H141195   2.552   0.694   2.057 -0.6615 -0.1320 -0.9909
 6520TIP3    H241196   2.681   0.617   2.068 -0.3829  0.4660  0.1406
 6521TIP3   OH241197   1.231   3.277   0.492 -0.5141  0.4508  0.7805
 6521TIP3    H141198   1.239   3.336   0.567  0.5877  1.4230 -0.0654
 6521TIP3    H241199   1.321   3.267   0.460 -0.8113 -0.9464  0.3368
 6522TIP3   OH241200   5.894   5.230   1.057  0.1123 -0.5095  0.1114
 6522TIP3    H141201   5.807   5.197   1.032 -0.9043  0.4314  2.2091
 6522TIP3    H241202   5.915   5.185   1.138  1.0861  0.1143  0.2237
 6523TIP3   OH241203   0.753   3.173   8.030 -0.2559 -0.1238 -0.1295
 6523TIP3    H141204   0.697   3.120   8.087 -1.4339 -0.0395 -1.1873
 6523TIP3    H241205   0.808   3.222   8.090 -0.7328 -0.8345  0.9176
 6524TIP3   OH241206   3.336   0.980   1.560 -0.0464  0.1367 -0.2480
 6524TIP3    H141207   3.348   1.047   1.493  1.4457  1.4057  1.1755
 6524TIP3    H241208   3.333   0.897   1.512 -0.1397  1.0750 -1.9300
 6525TIP3   OH241209   6.058   6.585   0.140 -0.3259 -0.2500  0.0396
 6525TIP3    H141210   6.109   6.504   0.147  0.0018 -0.0024  0.5923
 6525TIP3    H241211   6.031   6.603   0.230  2.2182  1.9266  0.4910
 6526TIP3   OH241212   0.776   1.691   2.379 -0.2022 -0.1723  0.1827
 6526TIP3    H141213   0.770   1.763   2.442  0.8845 -0.7677  0.9919
 6526TIP3    H241214   0.689   1.651   2.379 -1.5989  2.4649 -1.9596
 6527TIP3   OH241215   2.067   0.447   2.399  0.3328  0.0215  0.5231
 6527TIP3    H141216   2.126   0.382   2.437 -1.0494 -0.8286  1.2845
 6527TIP3    H241217   1.980   0.420   2.427 -0.3215  2.0211  0.5790
 6528TIP3   OH241218   0.313   3.039   0.054 -0.2309  0.3820 -0.5973
 6528TIP3    H141219   0.258   3.116   0.038 -0.5012  0.1581 -0.7379
 6528TIP3    H241220   0.252   2.966   0.061  0.0252  0.1778 -0.4531
 6529TIP3   OH241221   6.920   6.590   2.260  0.1250  0.6720  0.0385
 6529TIP3    H141222   6.947   6.637   2.182  0.0986  0.9673  0.2038
 6529TIP3    H241223   7.002   6.573   2.307 -0.0636  3.4129  1.5856
 6530TIP3   OH241224   2.929   2.183   8.072  0.3340  0.2948 -0.1358
 6530TIP3    H141225   2.969   2.128   8.004 -0.5755  1.2831 -1.5254
 6530TIP3    H241226   2.943   2.134   8.153  0.9878 -1.1938 -1.0962
 6531TIP3   OH241227   1.339   0.386   7.799  0.4982 -0.3417 -0.5126
 6531TIP3    H141228   1.308   0.365   7.887  1.2421 -0.3724 -0.2525
 6531TIP3    H241229   1.399   0.314   7.778 -0.9532 -1.2662 -1.7306
 6532TIP3   OH241230   5.243   5.999   0.726 -0.2414 -0.2142 -0.9289
 6532TIP3    H141231   5.196   5.963   0.801  0.2541  0.9156 -0.0433
 6532TIP3    H241232   5.181   6.059   0.685 -0.3558 -0.4841 -1.1545
 6533TIP3   OH241233   1.488   6.890   8.389  0.7041  0.5376  0.5967
 6533TIP3    H141234   1.422   6.843   8.441 -1.0295 -0.1957 -2.0646
 6533TIP3    H241235   1.552   6.823   8.366  1.1774  0.7392  1.3091
 6534TIP3   OH241236   4.447   1.822   2.573 -0.4277  0.3218 -0.4922
 6534TIP3    H141237   4.481   1.824   2.662 -0.4998 -0.0709 -0.4524
 6534TIP3    H241238   4.375   1.886   2.573 -0.8810 -0.1766 -0.0734
 6535TIP3   OH241239   1.116   0.662   2.564 -0.2414 -0.0841 -0.1191
 6535TIP3    H141240   1.152   0.578   2.593 -2.1788 -1.0129 -0.2645
 6535TIP3    H241241   1.112   0.655   2.469 -1.8999 -0.5108 -0.0462
 6536TIP3   OH241242   0.200   1.614   2.074  0.3297 -0.3152  0.5636
 6536TIP3    H141243   0.172   1.560   2.001  2.7400 -0.9110 -0.0201
 6536TIP3    H241244   0.169   1.702   2.053 -0.2913 -0.7519 -0.4120
 6537TIP3   OH241245   0.685   6.707   8.154  0.1287 -0.2766  0.1414
 6537TIP3    H141246   0.616   6.666   8.207  0.8630 -1.8950 -0.1175
 6537TIP3    H241247   0.637   6.756   8.087 -0.8374 -2.6117 -0.9820
 6538TIP3   OH241248   1.392   0.044   2.967  0.2902 -0.1516  0.5755
 6538TIP3    H141249   1.373   0.108   2.898  1.1935 -1.7439 -1.2553
 6538TIP3    H241250   1.442   0.093   3.032 -0.4382  1.3682  0.0482
 6539TIP3   OH241251   0.852   0.325   1.555  0.0653  0.1040  0.3986
 6539TIP3    H141252   0.756   0.330   1.546 -0.1011 -1.0825  1.3269
 6539TIP3    H241253   0.869   0.361   1.642  0.5692  1.0745 -0.0795
 6540TIP3   OH241254   6.025   6.986   2.791 -0.8991 -0.1151  0.2227
 6540TIP3    H141255   6.074   7.063   2.820 -0.8241  0.2463 -0.8186
 6540TIP3    H241256   6.015   6.933   2.870 -0.3927  0.6555  0.8232
 6541TIP3   OH241257   3.786   4.417   7.581  0.4094 -0.0626 -0.2918
 6541TIP3    H141258   3.834   4.335   7.593  1.9482  0.8778  0.2441
 6541TIP3    H241259   3.712   4.411   7.642  1.8767 -0.0421  1.5706
 6542TIP3   OH241260   6.630   4.487   1.230 -0.4934 -0.5925 -0.2461
 6542TIP3    H141261   6.649   4.407   1.181 -0.6904  0.0851 -1.4660
 6542TIP3    H241262   6.715   4.524   1.251 -0.4056 -0.4013 -0.9153
 6543TIP3   OH241263   4.614   0.999   2.032 -0.2832  0.5592  0.2740
 6543TIP3    H141264   4.542   1.060   2.017 -0.1900  0.3680 -1.1090
 6543TIP3    H241265   4.629   1.001   2.126 -0.6463  2.2549  0.3138
 6544TIP3   OH241266   6.094   1.288   7.439  0.3226 -0.1802 -0.0000
 6544TIP3    H141267   6.053   1.208   7.408  1.1631 -0.1092 -1.3834
 6544TIP3    H241268   6.187   1.276   7.420  0.4375  1.1833 -0.3910
 6545TIP3   OH241269   1.817   4.663   7.975  0.9809 -0.4243  0.1683
 6545TIP3    H141270   1.898   4.707   7.948  0.5101 -0.0901 -0.7605
 6545TIP3    H241271   1.789   4.615   7.897  0.1973 -0.3855  0.4156
 6546TIP3   OH241272   6.205   5.832   2.220 -0.8604 -0.1577 -0.2035
 6546TIP3    H141273   6.133   5.791   2.172  0.3383 -0.2803 -1.9962
 6546TIP3    H241274   6.234   5.904   2.163  1.0963 -0.7585 -0.0486
 6547TIP3   OH241275   1.562   2.442   0.911 -0.3622 -0.3865 -0.1005
 6547TIP3    H141276   1.473   2.408   0.899 -0.4046  0.2737 -2.0370
 6547TIP3    H241277   1.615   2.365   0.927 -1.3488 -0.7379  1.7359
 6548TIP3   OH241278   2.167   2.029   8.036  0.1349  0.2118  0.1212
 6548TIP3    H141279   2.185   2.095   8.103  0.8771 -0.1361  0.2803
 6548TIP3    H241280   2.167   2.078   7.954 -1.4814  0.7624  0.4082
 6549TIP3   OH241281   1.183   6.509   1.364  0.2712  0.0723 -0.2083
 6549TIP3    H141282   1.187   6.413   1.360  0.0565  0.0912 -1.3715
 6549TIP3    H241283   1.151   6.529   1.451  0.7116 -0.9059  0.1914
 6550TIP3   OH241284   0.595   1.189   1.517  0.4023 -0.6043  0.2956
 6550TIP3    H141285   0.506   1.223   1.519  0.3988 -0.3389 -1.9415
 6550TIP3    H241286   0.585   1.094   1.520  0.0315 -0.5808 -0.1277
 6551TIP3   OH241287   4.744   1.928   8.227  0.3409 -0.3650  0.2493
 6551TIP3    H141288   4.804   1.912   8.155  1.3825 -0.8682  1.2044
 6551TIP3    H241289   4.729   1.841   8.266 -1.2151 -0.3014 -0.1109
 6552TIP3   OH241290   6.698   6.507   7.180  0.6898  0.2433  0.1439
 6552TIP3    H141291   6.675   6.448   7.108  1.3935  2.5272 -2.0699
 6552TIP3    H241292   6.746   6.451   7.242  1.2770 -1.5479 -1.8092
 6553TIP3   OH241293   5.282   0.717   2.492 -0.1986  0.1165 -0.0524
 6553TIP3    H141294   5.298   0.725   2.586  0.2741 -0.5760 -0.0692
 6553TIP3    H241295   5.206   0.772   2.476  2.0720  3.5544  0.0280
 6554TIP3   OH241296   3.979   3.563   0.531 -0.5932 -0.0740 -0.5954
 6554TIP3    H141297   4.042   3.629   0.503  0.6143 -0.8061  0.3008
 6554TIP3    H241298   3.913   3.612   0.580 -0.1098  0.5593 -0.5625
 6555TIP3   OH241299   4.986   3.707   2.957 -0.2524  0.0575 -0.1014
 6555TIP3    H141300   4.994   3.617   2.989  1.5226  0.2371  0.1075
 6555TIP3    H241301   4.911   3.743   3.004 -0.1965 -0.9283  0.7835
 6556TIP3   OH241302   0.379   2.095   0.403 -0.4831  0.0152 -0.3115
 6556TIP3    H141303   0.395   2.138   0.487 -1.5351  0.9857 -0.5722
 6556TIP3    H241304   0.423   2.011   0.410  0.1713  0.4340  0.8874
 6557TIP3   OH241305   0.087   1.411   1.021 -0.2582  0.2607  0.0341
 6557TIP3    H141306   0.004   1.369   1.045 -0.4320  0.4909 -0.1627
 6557TIP3    H241307   0.063   1.476   0.955 -0.0395  0.9295  0.6058
 6558TIP3   OH241308   3.239   3.733   7.728  0.1533 -0.3058  0.5504
 6558TIP3    H141309   3.189   3.734   7.647 -1.5588 -0.7524  1.5441
 6558TIP3    H241310   3.316   3.680   7.709 -0.7064 -1.2024 -0.5221
 6559TIP3   OH241311   2.493   4.709   7.961 -0.3431 -0.4519  0.5384
 6559TIP3    H141312   2.491   4.649   7.887  0.6325 -2.8549  2.3186
 6559TIP3    H241313   2.566   4.769   7.942 -0.2372 -0.9015 -0.5236
 6560TIP3   OH241314   4.225   0.321   1.808  0.1818 -0.5769 -0.1593
 6560TIP3    H141315   4.169   0.396   1.787  1.1549 -0.2831 -1.8276
 6560TIP3    H241316   4.165   0.246   1.808 -0.5945  0.0198  0.3874
 6561TIP3   OH241317   6.043   0.421   2.267 -0.0849 -0.2316 -0.0553
 6561TIP3    H141318   5.976   0.421   2.199  0.7292 -1.0913 -0.8855
 6561TIP3    H241319   6.120   0.460   2.224 -0.5762  2.7635  1.4912
 6562TIP3   OH241320   3.055   4.441   2.153 -0.2023 -0.5011  0.0157
 6562TIP3    H141321   3.139   4.401   2.131  1.3736  1.9415  1.1577
 6562TIP3    H241322   3.076   4.509   2.216 -2.6713  1.9573 -1.5648
 6563TIP3   OH241323   3.479   0.437   7.081  0.1246  0.1026  0.7778
 6563TIP3    H141324   3.500   0.531   7.079  0.8029 -0.0358  1.1213
 6563TIP3    H241325   3.479   0.410   6.989  0.1240  0.4000  0.6893
 6564TIP3   OH241326   1.221   1.836   2.401 -0.5012  0.0312 -0.7033
 6564TIP3    H141327   1.200   1.745   2.423  0.3233 -0.1915 -0.8244
 6564TIP3    H241328   1.295   1.830   2.341  0.2871  0.8203  0.1647
 6565TIP3   OH241329   6.242   4.425   2.542  0.3824 -0.3791 -0.2021
 6565TIP3    H141330   6.168   4.367   2.555 -0.3663  0.4741 -0.5285
 6565TIP3    H241331   6.279   4.438   2.630 -0.4165 -0.0912  0.0972
 6566TIP3   OH241332   5.388   5.268   2.556 -0.1841  0.0690  0.4920
 6566TIP3    H141333   5.303   5.264   2.600 -0.1087 -0.8550  0.5891
 6566TIP3    H241334   5.409   5.176   2.538  0.3920  0.3487 -0.3121
 6567TIP3   OH241335   0.936   0.362   8.039  0.3913 -0.1934  0.1807
 6567TIP3    H141336   0.929   0.277   7.996 -0.3734 -0.5532  0.9836
 6567TIP3    H241337   0.915   0.426   7.970  0.4928 -0.6805 -0.3046
 6568TIP3   OH241338   2.064   1.802   1.964  0.0621 -0.1121 -0.2774
 6568TIP3    H141339   2.096   1.820   1.875  0.0316  0.0988 -0.2469
 6568TIP3    H241340   2.137   1.827   2.021  0.6233 -1.5813 -0.3073
 6569TIP3   OH241341   5.863   5.449   3.013  0.1429 -0.4918  0.6854
 6569TIP3    H141342   5.907   5.424   2.932  1.5063 -0.0968  1.2793
 6569TIP3    H241343   5.843   5.365   3.056 -0.1950 -0.6881  0.1608
 6570TIP3   OH241344   4.689   2.975   7.678 -0.3294  0.0677 -0.6785
 6570TIP3    H141345   4.756   2.914   7.707 -0.2246  0.4806 -0.0242
 6570TIP3    H241346   4.690   2.969   7.582 -0.8312 -1.4735 -0.6027
 6571TIP3   OH241347   2.945   6.109   7.335 -0.5455 -0.2458  0.0190
 6571TIP3    H141348   2.994   6.035   7.300  0.9917  0.6243  0.2369
 6571TIP3    H241349   2.965   6.108   7.429 -2.7393 -1.1632  0.5290
 6572TIP3   OH241350   2.266   4.132   7.680  0.8503  0.0044 -0.2584
 6572TIP3    H141351   2.313   4.075   7.619 -1.2452 -1.3221 -0.7313
 6572TIP3    H241352   2.195   4.079   7.714 -1.4415  2.3826 -0.9722
 6573TIP3   OH241353   1.652   4.952   1.436 -0.2259  0.2306  0.0092
 6573TIP3    H141354   1.705   5.012   1.383  0.0767  0.5481  0.6661
 6573TIP3    H241355   1.665   4.981   1.526 -1.0840 -0.0316  0.2321
 6574TIP3   OH241356   1.714   2.176   8.302 -0.1029  0.2844  0.0875
 6574TIP3    H141357   1.747   2.086   8.296  0.1658  0.3425  0.6393
 6574TIP3    H241358   1.649   2.182   8.232  0.5504 -0.0448 -0.5625
 6575TIP3   OH241359   5.272   2.529   1.740  0.3206 -0.1391  0.5192
 6575TIP3    H141360   5.222   2.574   1.672 -0.6999 -2.3521 -0.2879
 6575TIP3    H241361   5.257   2.580   1.819  0.8502  2.0209 -0.7108
 6576TIP3   OH241362   5.766   5.224   1.967 -0.2491  0.1376  0.0856
 6576TIP3    H141363   5.676   5.242   1.994 -0.6331  0.1887 -1.1639
 6576TIP3    H241364   5.806   5.311   1.957  0.0084  0.1129  0.7992
 6577TIP3   OH241365   5.078   2.161   1.080 -0.4101  0.2350 -0.5461
 6577TIP3    H141366   5.080   2.227   1.011  0.8716  0.1954 -0.5886
 6577TIP3    H241367   5.061   2.209   1.161 -0.5943  0.4598 -0.7189
 6578TIP3   OH241368   4.961   5.180   0.163 -0.0497 -0.1362  0.5221
 6578TIP3    H141369   4.990   5.088   0.164  2.0942  0.4797 -0.5315
 6578TIP3    H241370   4.938   5.196   0.071  0.2983  0.5773  0.5596
 6579TIP3   OH241371   5.418   1.529   6.731  0.2274 -0.3642 -1.0709
 6579TIP3    H141372   5.351   1.597   6.730 -0.4667 -1.0286 -0.6694
 6579TIP3    H241373   5.370   1.448   6.715  1.1434 -0.6842 -2.3702
 6580TIP3   OH241374   0.414   3.762   1.293  0.5610 -0.3260 -0.1023
 6580TIP3    H141375   0.469   3.688   1.266  0.6792  0.0678 -0.9655
 6580TIP3    H241376   0.474   3.836   1.298  0.1005  0.1254 -1.1325
 6581TIP3   OH241377   1.133   2.734   2.532 -0.2417 -0.5303 -0.6574
 6581TIP3    H141378   1.167   2.645   2.523  1.0801 -0.2591  1.1010
 6581TIP3    H241379   1.190   2.787   2.477  1.4322 -0.2896  1.1757
 6582TIP3   OH241380   1.215   3.252   6.686  0.1400 -0.0283 -0.6295
 6582TIP3    H141381   1.169   3.334   6.701 -2.6510 -1.5703 -0.2140
 6582TIP3    H241382   1.161   3.204   6.623  0.6048 -2.3182  0.5832
 6583TIP3   OH241383   4.924   4.945   2.887  0.5840  0.4849 -0.3924
 6583TIP3    H141384   4.958   5.026   2.850  0.1373  2.2585  2.7284
 6583TIP3    H241385   4.836   4.936   2.851  0.3422  1.8520 -0.1811
 6584TIP3   OH241386   2.318   2.867   1.239 -0.3902  0.5898 -0.0822
 6584TIP3    H141387   2.285   2.925   1.171  1.1574  1.0482 -0.4972
 6584TIP3    H241388   2.250   2.801   1.251  0.3532 -1.2121 -4.1147
 6585TIP3   OH241389   6.118   4.434   6.815  0.5588 -0.0817  0.3793
 6585TIP3    H141390   6.151   4.513   6.858  1.3766  0.2359 -0.7661
 6585TIP3    H241391   6.196   4.381   6.798  0.0192 -1.1473  1.1317
 6586TIP3   OH241392   4.324   6.466   2.454  0.6430 -0.8134 -0.7156
 6586TIP3    H141393   4.356   6.390   2.405  1.0766 -0.9294 -0.2645
 6586TIP3    H241394   4.402   6.517   2.473  0.6295 -1.3040  0.7507
 6587TIP3   OH241395   0.835   6.222   2.109 -0.8407  0.2530  0.2531
 6587TIP3    H141396   0.871   6.310   2.095 -0.3413  0.0345  0.1596
 6587TIP3    H241397   0.754   6.237   2.158 -0.8000  0.7716  0.1679
 6588TIP3   OH241398   3.607   2.330   0.103 -0.0617 -0.3483  0.6154
 6588TIP3    H141399   3.667   2.281   0.046 -1.9410 -1.6152 -0.3882
 6588TIP3    H241400   3.632   2.421   0.091  0.9909 -0.7518 -0.5742
 6589TIP3   OH241401   1.753   2.493   0.346 -0.6578  1.0067  0.0312
 6589TIP3    H141402   1.735   2.415   0.294 -0.7239  0.9679  0.1116
 6589TIP3    H241403   1.826   2.468   0.403 -0.3696  1.1532 -0.2705
 6590TIP3   OH241404   2.999   2.245   1.097  0.3231  0.3829 -0.3483
 6590TIP3    H141405   2.979   2.157   1.063 -0.5250  1.3672 -2.6298
 6590TIP3    H241406   2.937   2.257   1.169 -0.6217 -0.3520 -0.9956
 6591TIP3   OH241407   0.995   6.431   1.020  0.2624 -0.1269  0.2629
 6591TIP3    H141408   0.939   6.466   0.951 -1.7006 -1.5659  1.0557
 6591TIP3    H241409   0.992   6.498   1.089  0.1816  0.1736 -0.0311
 6592TIP3   OH241410   1.980   6.333   0.528 -0.0949 -0.7775  0.6182
 6592TIP3    H141411   2.011   6.278   0.599  1.9493 -0.1363  0.2941
 6592TIP3    H241412   2.032   6.307   0.452  1.7817  2.2240  0.6942
 6593TIP3   OH241413   6.747   3.829   1.249  0.0912 -0.0638 -0.0441
 6593TIP3    H141414   6.735   3.898   1.315  0.7750 -0.1051  0.1253
 6593TIP3    H241415   6.697   3.860   1.173  0.2415  0.5332  0.0936
 6594TIP3   OH241416   3.646   2.863   1.547 -0.2358  0.2744 -0.1179
 6594TIP3    H141417   3.694   2.823   1.620  0.8179  1.8604  0.1062
 6594TIP3    H241418   3.565   2.812   1.541  0.7796 -1.4996  0.4949
 6595TIP3   OH241419   3.851   2.609   2.269  0.0079 -0.5072  0.2881
 6595TIP3    H141420   3.886   2.590   2.356 -1.1717 -0.8891  0.6907
 6595TIP3    H241421   3.814   2.526   2.239 -2.9808  0.4461  1.0317
 6596TIP3   OH241422   6.352   4.919   1.269  0.2899 -0.0975  0.2879
 6596TIP3    H141423   6.374   4.937   1.360  0.1386 -1.0288  0.5191
 6596TIP3    H241424   6.284   4.851   1.273 -0.5422  0.6548 -0.4897
 6597TIP3   OH241425   2.897   1.150   7.066  0.2031  0.0847 -0.3178
 6597TIP3    H141426   2.928   1.179   6.980 -1.0175  0.2150 -0.7310
 6597TIP3    H241427   2.842   1.222   7.097 -0.8635 -0.7326 -0.2649
 6598TIP3   OH241428   5.709   2.206   2.458  0.4741 -0.8157 -0.3802
 6598TIP3    H141429   5.672   2.266   2.394 -2.0318  0.2453  1.8500
 6598TIP3    H241430   5.681   2.120   2.430 -0.2334 -0.4093 -0.9488
 6599TIP3   OH241431   6.802   2.841   2.174 -0.0022 -0.7038 -0.0014
 6599TIP3    H141432   6.887   2.825   2.215 -0.2564  0.1214  0.8832
 6599TIP3    H241433   6.820   2.837   2.080  1.1339  0.0379  0.1652
 6600TIP3   OH241434   4.202   6.037   2.842 -0.1833 -0.5731 -0.3383
 6600TIP3    H141435   4.247   5.975   2.900  1.3310  0.7766 -0.0034
 6600TIP3    H241436   4.213   5.998   2.755  0.7768 -0.7943 -0.1409
 6601TIP3   OH241437   4.232   3.498   1.871 -0.1850 -0.2790  0.7073
 6601TIP3    H141438   4.193   3.475   1.955 -1.0104  1.7185  0.9178
 6601TIP3    H241439   4.157   3.515   1.814  0.3748 -0.8337 -0.2225
 6602TIP3   OH241440   2.950   4.100   8.084 -0.1649  0.1916 -0.3874
 6602TIP3    H141441   2.918   4.181   8.123 -2.9576 -0.5817 -0.9141
 6602TIP3    H241442   2.908   4.030   8.134 -0.3898 -0.8651 -1.9813
 6603TIP3   OH241443   0.141   6.893   1.688  0.3817  0.3308  0.4172
 6603TIP3    H141444   0.104   6.804   1.688 -1.5540  1.0641 -1.2713
 6603TIP3    H241445   0.235   6.879   1.686  0.1344 -1.6869  0.1030
 6604TIP3   OH241446   2.625   3.640   7.232 -0.1110  0.2139 -0.2768
 6604TIP3    H141447   2.590   3.552   7.248  1.8340 -0.7826 -1.1910
 6604TIP3    H241448   2.621   3.651   7.137  0.6747  0.6517 -0.2683
 6605TIP3   OH241449   5.551   6.462   0.209 -0.4410  0.3834  0.5519
 6605TIP3    H141450   5.524   6.543   0.167 -1.5843 -0.6019 -0.7192
 6605TIP3    H241451   5.469   6.414   0.223  0.3492 -1.8769 -1.6536
 6606TIP3   OH241452   4.418   2.415   0.561  0.4064  0.0731 -0.3582
 6606TIP3    H141453   4.427   2.325   0.531 -0.9507 -0.4165  0.6210
 6606TIP3    H241454   4.373   2.460   0.489  0.0971 -0.2965 -0.3967
 6607TIP3   OH241455   1.739   4.967   1.752  0.1960  0.1327 -0.2068
 6607TIP3    H141456   1.670   4.988   1.815  0.7097  1.0969  0.0407
 6607TIP3    H241457   1.773   4.883   1.782 -0.4797 -0.0812 -0.0010
 6608TIP3   OH241458   5.394   2.842   7.357  0.2761 -0.4953  0.2575
 6608TIP3    H141459   5.449   2.765   7.350  0.0511 -0.5778 -0.7994
 6608TIP3    H241460   5.455   2.916   7.363  0.5072 -0.7921  2.3274
 6609TIP3   OH241461   3.997   2.948   8.362  0.6670  0.2465  0.3947
 6609TIP3    H141462   3.959   2.999   8.434 -0.7333 -2.2188  1.5234
 6609TIP3    H241463   3.937   2.963   8.289  0.7957  0.9360  0.4208
 6610TIP3   OH241464   3.137   2.334   6.541 -0.2499  0.1036  0.6154
 6610TIP3    H141465   3.149   2.338   6.636 -0.3334  3.2486  0.6037
 6610TIP3    H241466   3.133   2.426   6.513 -0.3018 -0.7055 -2.4433
 6611TIP3   OH241467   4.303   3.111   0.781 -0.1175  0.5046 -0.0753
 6611TIP3    H141468   4.245   3.131   0.708 -0.0400 -0.8166 -0.5396
 6611TIP3    H241469   4.252   3.132   0.859 -1.0413 -0.1127 -0.4848
 6612TIP3   OH241470   5.928   3.058   0.980  0.3715  0.4853  0.1108
 6612TIP3    H141471   5.840   3.037   0.952  0.8837 -0.8296 -0.5523
 6612TIP3    H241472   5.967   3.104   0.905  0.7053 -0.2072 -0.1469
 6613TIP3   OH241473   4.776   3.873   0.652  0.0637 -0.2676 -0.8920
 6613TIP3    H141474   4.681   3.861   0.648 -0.1050 -0.4714  1.8174
 6613TIP3    H241475   4.795   3.881   0.745  2.4254  2.3918 -1.4733
 6614TIP3   OH241476   2.055   1.162   3.037 -0.0761 -0.5768 -0.0600
 6614TIP3    H141477   1.984   1.226   3.049 -0.6588 -1.4566  1.5555
 6614TIP3    H241478   2.126   1.213   2.997 -1.0719  0.6968 -0.2876
 6615TIP3   OH241479   0.153   4.583   0.193  0.1036 -0.0027  0.1068
 6615TIP3    H141480   0.076   4.526   0.182 -2.9031  3.6515 -0.0918
 6615TIP3    H241481   0.197   4.581   0.108 -1.2049 -0.3945 -0.5896
 6616TIP3   OH241482   5.598   3.251   1.541 -0.5173  0.0311 -0.4594
 6616TIP3    H141483   5.564   3.167   1.572 -0.2667  0.1941  0.2685
 6616TIP3    H241484   5.664   3.227   1.476  0.5073 -0.3963  0.6955
 6617TIP3   OH241485   3.632   6.309   7.237 -0.1388  0.8983 -0.1185
 6617TIP3    H141486   3.613   6.240   7.300  1.1608  1.3880  0.8402
 6617TIP3    H241487   3.709   6.278   7.190  0.3542  1.6015  0.2088
 6618TIP3   OH241488   3.126   5.622   7.166  0.7229 -0.1588 -0.3078
 6618TIP3    H141489   3.103   5.664   7.083 -0.4235  0.2672  0.1969
 6618TIP3    H241490   3.178   5.687   7.212  0.9657 -0.2144 -0.5018
 6619TIP3   OH241491   1.650   3.156   0.496  0.1139  0.0645 -0.2123
 6619TIP3    H141492   1.654   3.066   0.465 -1.4742 -0.5945  1.3558
 6619TIP3    H241493   1.740   3.188   0.486  0.8662 -1.8911 -0.2399
 6620TIP3   OH241494   3.287   3.642   1.210 -0.0679  0.2701  0.2786
 6620TIP3    H141495   3.223   3.684   1.152  0.2540 -0.0121 -0.2836
 6620TIP3    H241496   3.234   3.609   1.283 -0.8377 -1.4692 -0.9980
 6621TIP3   OH241497   6.560   4.827   7.819 -0.2079  0.0916  0.0988
 6621TIP3    H141498   6.506   4.903   7.839 -2.0446 -1.0876 -0.1733
 6621TIP3    H241499   6.613   4.855   7.744  0.2373  1.5408  0.8942
 6622TIP3   OH241500   0.116   2.134   2.007  0.3896  0.4638 -0.5028
 6622TIP3    H141501   0.181   2.201   2.026  0.7637 -0.1945  0.6179
 6622TIP3    H241502   0.045   2.181   1.962  0.9412  1.4708 -0.3356
 6623TIP3   OH241503   1.284   4.554   0.165  0.6968 -0.7119  0.1439
 6623TIP3    H141504   1.317   4.558   0.255  0.1271  0.0289  0.3334
 6623TIP3    H241505   1.314   4.470   0.132  1.6963 -0.6011  0.7202
 6624TIP3   OH241506   2.599   1.642   8.001 -0.3700  0.0430  0.4242
 6624TIP3    H141507   2.534   1.692   8.049  2.2677  0.9316  3.4056
 6624TIP3    H241508   2.615   1.693   7.922 -0.9439  1.5210  1.2301
 6625TIP3   OH241509   4.804   3.788   7.729 -0.1413  0.2634 -0.1090
 6625TIP3    H141510   4.730   3.744   7.771  0.0175  1.7868  1.9460
 6625TIP3    H241511   4.797   3.765   7.636 -2.4867 -0.5977  0.2249
 6626TIP3   OH241512   6.913   3.084   1.827  0.2462  0.2742  0.0017
 6626TIP3    H141513   6.911   2.989   1.837 -2.0736  0.0433 -1.8316
 6626TIP3    H241514   6.982   3.100   1.764 -1.6139 -0.6488 -2.4518
 6627TIP3   OH241515   5.135   3.184   7.829  0.0577  0.5232  0.0279
 6627TIP3    H141516   5.190   3.142   7.895 -0.4012 -1.4540 -0.7929
 6627TIP3    H241517   5.121   3.117   7.762 -0.2039  2.1911 -1.6814
 6628TIP3   OH241518   3.628   0.529   0.627  0.3498  0.3296  0.1244
 6628TIP3    H141519   3.614   0.436   0.646  0.3172  0.5499  1.2375
 6628TIP3    H241520   3.579   0.574   0.695 -0.0791  1.1772 -0.7289
 6629TIP3   OH241521   0.540   2.031   2.635 -0.3902  0.8513 -0.3205
 6629TIP3    H141522   0.518   2.110   2.685  2.0386  1.7196 -0.4775
 6629TIP3    H241523   0.563   2.063   2.548  0.4798 -0.0171 -0.4349
 6630TIP3   OH241524   2.381   3.053   0.367  0.0694  0.3481  0.7523
 6630TIP3    H141525   2.358   2.979   0.423 -0.1508 -0.7423 -0.7140
 6630TIP3    H241526   2.452   3.021   0.312  1.7163  2.0540  1.7559
 6631TIP3   OH241527   3.886   0.637   0.667 -0.6394  0.4637  0.1212
 6631TIP3    H141528   3.817   0.577   0.639  0.3377 -0.4849 -0.3349
 6631TIP3    H241529   3.884   0.632   0.762  0.8525 -2.0625  0.1097
 6632TIP3   OH241530   2.364   4.611   1.931  0.4893  0.3950 -0.0122
 6632TIP3    H141531   2.291   4.673   1.939  0.7700  0.7761 -0.3278
 6632TIP3    H241532   2.324   4.525   1.935 -0.1455  0.5835 -1.5715
 6633TIP3   OH241533   1.629   2.864   8.293 -0.6080 -0.3577  0.5193
 6633TIP3    H141534   1.722   2.843   8.286 -0.4395  0.2660  0.8029
 6633TIP3    H241535   1.622   2.916   8.373 -0.8332  1.6384 -0.7438
 6634TIP3   OH241536   1.200   5.877   2.440 -0.0626  0.2686  0.5968
 6634TIP3    H141537   1.162   5.929   2.369  0.1090 -0.6081 -0.1551
 6634TIP3    H241538   1.292   5.904   2.442 -0.0185  0.1422  0.3396
 6635TIP3   OH241539   1.467   6.573   3.024 -0.1095 -0.2946  0.4286
 6635TIP3    H141540   1.535   6.633   3.055  0.0093 -0.2098  0.0045
 6635TIP3    H241541   1.497   6.486   3.054  1.6610 -0.6793 -2.1125
 6636TIP3   OH241542   4.980   0.128   2.556 -0.2363  0.2820  0.0925
 6636TIP3    H141543   5.022   0.199   2.507  1.3171 -0.7211 -0.1201
 6636TIP3    H241544   5.003   0.049   2.507 -0.4803 -0.5292  1.2452
 6637TIP3   OH241545   1.653   2.610   7.984  0.1614  0.2324 -0.0975
 6637TIP3    H141546   1.623   2.694   8.019 -2.4158 -0.6527  0.0074
 6637TIP3    H241547   1.690   2.631   7.898 -0.9527  1.4154 -0.3058
 6638TIP3   OH241548   5.175   1.641   6.763 -0.0959  0.0885 -0.1586
 6638TIP3    H141549   5.084   1.647   6.792  0.3079 -0.2426  1.2579
 6638TIP3    H241550   5.177   1.690   6.681 -1.3650  0.8298  0.2228
 6639TIP3   OH241551   4.253   0.527   8.086  0.9878  0.0543  0.4447
 6639TIP3    H141552   4.183   0.499   8.027  0.0067  1.3896  0.9335
 6639TIP3    H241553   4.263   0.454   8.147 -0.2033 -0.0288  0.5617
 6640TIP3   OH241554   6.224   3.011   0.601  0.0697 -0.1548  0.6664
 6640TIP3    H141555   6.213   2.929   0.650 -1.9417  0.7568  1.9049
 6640TIP3    H241556   6.146   3.062   0.625 -0.8877  0.5057 -3.2467
 6641TIP3   OH241557   1.135   4.271   0.818 -0.1535 -0.0880 -0.0408
 6641TIP3    H141558   1.151   4.343   0.757 -0.1756  0.2514  0.3547
 6641TIP3    H241559   1.158   4.192   0.768  1.0232  0.2729 -0.0726
 6642TIP3   OH241560   5.352   0.969   1.561 -0.3172 -0.2892  0.1542
 6642TIP3    H141561   5.284   0.934   1.504 -0.0926  0.9286 -0.9232
 6642TIP3    H241562   5.304   1.012   1.632 -0.5918 -2.2424  1.1967
 6643TIP3   OH241563   1.956   3.163   7.693  0.0433  0.0821  0.2746
 6643TIP3    H141564   2.022   3.226   7.724  0.7165  0.0137 -0.9412
 6643TIP3    H241565   1.952   3.096   7.761 -0.1552  1.0586  1.2505
 6644TIP3   OH241566   0.320   0.240   8.185  0.5992 -0.3572 -0.0554
 6644TIP3    H141567   0.298   0.298   8.258  2.3902 -1.6945  1.6559
 6644TIP3    H241568   0.416   0.241   8.182  0.6156  0.9708 -3.5869
 6645TIP3   OH241569   2.172   6.322   7.864  0.4007  0.5988  0.5165
 6645TIP3    H141570   2.217   6.368   7.793  1.1857 -0.5221  0.2719
 6645TIP3    H241571   2.080   6.346   7.852  0.3025 -0.5652 -1.7193
 6646TIP3   OH241572   3.666   2.476   2.492  0.2374  0.2112  0.0919
 6646TIP3    H141573   3.645   2.545   2.555 -1.1588 -0.6197  0.6051
 6646TIP3    H241574   3.586   2.466   2.441  0.6724 -0.5066 -0.4645
 6647TIP3   OH241575   3.641   2.758   7.070  0.1165 -0.2288 -0.5108
 6647TIP3    H141576   3.561   2.743   7.021 -0.0213 -1.9636  0.1565
 6647TIP3    H241577   3.670   2.845   7.043 -2.8845  1.2210  0.5350
 6648TIP3   OH241578   3.924   6.317   7.359  0.0704  0.0381  0.2758
 6648TIP3    H141579   3.985   6.249   7.389  0.2691  0.0883 -0.0107
 6648TIP3    H241580   3.888   6.282   7.277 -0.4802 -0.1037  0.5711
 6649TIP3   OH241581   1.532   6.158   0.144  0.3049  0.1476  0.2805
 6649TIP3    H141582   1.525   6.233   0.086 -1.0077 -0.8059 -0.8666
 6649TIP3    H241583   1.564   6.087   0.088  0.5134 -0.4189  1.0905
 6650TIP3   OH241584   0.525   2.098   0.168 -0.0261 -0.3075 -0.3196
 6650TIP3    H141585   0.469   2.114   0.244 -0.7002  0.4928 -0.9646
 6650TIP3    H241586   0.472   2.125   0.093  1.0257 -0.0392 -0.9876
 6651TIP3   OH241587   6.266   6.066   2.072 -0.1781 -0.2610 -0.1558
 6651TIP3    H141588   6.295   6.063   1.981 -1.6917  0.4952 -0.6842
 6651TIP3    H241589   6.229   6.154   2.083 -2.2019 -1.1399  0.4801
 6652TIP3   OH241590   3.106   6.463   0.956 -0.4540 -0.2111 -0.2448
 6652TIP3    H141591   3.166   6.393   0.982 -1.0665 -0.7137 -0.1663
 6652TIP3    H241592   3.113   6.466   0.860 -1.0158 -0.9220 -0.3131
 6653TIP3   OH241593   6.076   6.460   7.951  0.2867  0.0644 -0.3331
 6653TIP3    H141594   6.038   6.392   8.007 -0.5542  2.0507  1.6109
 6653TIP3    H241595   6.002   6.498   7.905  0.0309  2.6811  2.0492
 6654TIP3   OH241596   4.719   6.681   1.925 -0.5334  0.0675 -0.2634
 6654TIP3    H141597   4.693   6.771   1.903 -1.4396 -0.0912  0.1194
 6654TIP3    H241598   4.802   6.669   1.880  0.2661  1.5533  0.7081
 6655TIP3   OH241599   1.704   1.948   1.427  0.7061 -0.0873  0.3970
 6655TIP3    H141600   1.699   1.865   1.475  0.9043 -0.1092  0.3799
 6655TIP3    H241601   1.755   2.005   1.484  2.9480 -0.8164 -0.7927
 6656TIP3   OH241602   0.949   1.806   7.367 -0.0589  0.1565 -0.4865
 6656TIP3    H141603   0.978   1.843   7.283 -0.1216  0.8748 -0.1942
 6656TIP3    H241604   0.996   1.722   7.373  0.9534  0.6976 -0.6376
 6657TIP3   OH241605   0.606   2.935   0.959 -0.0632  0.3365 -0.2651
 6657TIP3    H141606   0.513   2.951   0.972 -0.0379  0.8539 -0.7069
 6657TIP3    H241607   0.611   2.843   0.932 -0.5219  0.5317 -1.0355
 6658TIP3   OH241608   5.455   5.061   1.925 -0.2727 -0.2979 -0.0900
 6658TIP3    H141609   5.454   4.969   1.951 -0.4410  0.0267  1.0886
 6658TIP3    H241610   5.505   5.105   1.994 -0.3409  0.5238 -0.5529
 6659TIP3   OH241611   3.055   0.955   6.414  0.7417  0.0754  0.8610
 6659TIP3    H141612   2.988   0.895   6.383  0.3791  0.8532  0.0879
 6659TIP3    H241613   3.138   0.909   6.400  0.5907  0.3907 -1.2868
 6660TIP3   OH241614   5.668   4.485   6.897  0.6422  0.3136  0.2557
 6660TIP3    H141615   5.626   4.430   6.963  0.3048  0.1225 -0.1086
 6660TIP3    H241616   5.707   4.424   6.835 -1.6654  0.3900 -1.3963
 6661TIP3   OH241617   0.775   2.666   8.019  0.7464  0.5367  0.0246
 6661TIP3    H141618   0.800   2.637   7.931  2.1591  1.1995  0.1811
 6661TIP3    H241619   0.800   2.758   8.022 -0.8022  0.9770  0.5907
 6662TIP3   OH241620   5.533   4.652   0.962  0.4697 -0.0497  0.0454
 6662TIP3    H141621   5.629   4.658   0.967  0.3492  2.7474  0.6142
 6662TIP3    H241622   5.512   4.679   0.873  0.1676 -0.6058 -0.0610
 6663TIP3   OH241623   1.777   4.027   7.386 -0.4016 -0.1578  0.4128
 6663TIP3    H141624   1.791   4.027   7.291 -1.3561  1.6275  0.2162
 6663TIP3    H241625   1.684   4.009   7.396 -0.7132  1.5362  0.8670
 6664TIP3   OH241626   3.166   2.673   2.620  0.1316 -0.3595 -0.6633
 6664TIP3    H141627   3.222   2.744   2.651  2.0760 -1.9392 -0.3403
 6664TIP3    H241628   3.102   2.660   2.690  1.3838 -0.6083  0.4768
 6665TIP3   OH241629   4.302   0.381   0.384  0.1233  0.2904  0.3277
 6665TIP3    H141630   4.321   0.475   0.373 -1.4056  0.6383  0.4511
 6665TIP3    H241631   4.348   0.357   0.465  0.2470  1.0115  0.4798
 6666TIP3   OH241632   1.534   0.048   0.346 -0.0884 -0.1557 -0.4436
 6666TIP3    H141633   1.554   0.140   0.364 -0.6904  0.1832 -1.3624
 6666TIP3    H241634   1.489   0.017   0.424  0.4012  0.2428 -0.0011
 6667TIP3   OH241635   5.483   1.228   1.290  0.1806  0.4425  0.1907
 6667TIP3    H141636   5.439   1.253   1.371 -1.7349 -0.5033 -0.4920
 6667TIP3    H241637   5.573   1.209   1.316 -0.6031 -0.7038  2.2815
 6668TIP3   OH241638   5.281   3.870   1.697  0.0832  0.2177  0.0335
 6668TIP3    H141639   5.199   3.873   1.648 -0.6069 -1.4277  1.0092
 6668TIP3    H241640   5.349   3.879   1.630 -0.8785  1.1127 -0.8426
 6669TIP3   OH241641   4.266   5.744   7.361 -0.2266 -0.2241 -0.0407
 6669TIP3    H141642   4.231   5.804   7.427 -2.0556 -0.7771 -0.4747
 6669TIP3    H241643   4.293   5.801   7.289  0.1422  0.2308  0.4394
 6670TIP3   OH241644   4.788   4.665   2.582  0.2069  0.0521 -0.3034
 6670TIP3    H141645   4.744   4.582   2.564 -0.4758  0.7730 -2.2155
 6670TIP3    H241646   4.749   4.727   2.520  3.5514  0.8719 -1.8580
 6671TIP3   OH241647   6.859   5.000   7.924 -0.4338 -0.4016  0.1045
 6671TIP3    H141648   6.826   5.014   7.836  0.1140 -0.5355 -0.1251
 6671TIP3    H241649   6.844   5.083   7.969  0.2985  0.0433 -0.4474
 6672TIP3   OH241650   1.526   6.063   8.158  0.3277  0.0613 -0.1024
 6672TIP3    H141651   1.462   6.061   8.229  1.6964 -3.3668  1.2358
 6672TIP3    H241652   1.476   6.094   8.082 -2.4739 -0.7942  1.2375
 6673TIP3   OH241653   0.645   3.517   8.399 -0.2217 -0.0301  0.3726
 6673TIP3    H141654   0.656   3.422   8.394 -0.2467  0.0389 -1.9164
 6673TIP3    H241655   0.562   3.534   8.354  0.5951  1.1953 -0.7454
 6674TIP3   OH241656   1.156   5.837   2.137 -0.7987  0.0243 -0.1222
 6674TIP3    H141657   1.107   5.756   2.119 -0.1896 -0.5401  0.6924
 6674TIP3    H241658   1.092   5.893   2.181 -0.8937 -0.4871  0.4120
 6675TIP3   OH241659   0.863   2.921   7.972  0.1123  0.1314  0.2170
 6675TIP3    H141660   0.871   2.931   7.877  0.0861 -0.5820  0.1361
 6675TIP3    H241661   0.807   2.994   7.999  0.4311  0.5604 -0.2604
 6676TIP3   OH241662   3.705   5.482   2.495  0.5024  0.3504 -0.4238
 6676TIP3    H141663   3.649   5.488   2.573 -0.9350 -0.9646 -1.2803
 6676TIP3    H241664   3.774   5.421   2.521 -0.4119 -0.7055 -0.3887
 6677TIP3   OH241665   6.813   1.408   0.438 -0.3561  0.2220 -0.0808
 6677TIP3    H141666   6.833   1.464   0.514  0.5348  0.2724 -0.3455
 6677TIP3    H241667   6.720   1.386   0.449 -0.0582 -0.3830  1.4302
 6678TIP3   OH241668   2.971   3.820   2.453  0.5329  0.2615  0.4673
 6678TIP3    H141669   3.019   3.845   2.532 -0.5204  1.3562  0.7948
 6678TIP3    H241670   3.010   3.737   2.426  2.3054  0.8909  0.9535
 6679TIP3   OH241671   0.414   1.344   0.705 -0.3495 -0.1389 -0.7905
 6679TIP3    H141672   0.491   1.303   0.745 -0.7044  0.4795  0.6128
 6679TIP3    H241673   0.339   1.303   0.750 -0.7456  1.0301 -0.3364
 6680TIP3   OH241674   4.613   3.713   1.869 -0.6376  0.5757 -0.6443
 6680TIP3    H141675   4.601   3.626   1.832 -1.3605  0.7127 -0.7564
 6680TIP3    H241676   4.706   3.732   1.857 -0.5206 -0.0885 -0.8135
 6681TIP3   OH241677   5.660   2.494   6.605 -0.2406 -0.2296 -0.0999
 6681TIP3    H141678   5.615   2.475   6.687 -0.1964  1.5841  0.3884
 6681TIP3    H241679   5.715   2.417   6.590 -1.7140 -1.4711  0.5026
 6682TIP3   OH241680   1.005   5.464   2.789 -0.1433 -0.3121  0.4654
 6682TIP3    H141681   0.926   5.409   2.783 -1.5548  1.7030 -0.8626
 6682TIP3    H241682   0.973   5.546   2.827  1.6162  0.1021  1.1279
 6683TIP3   OH241683   6.465   1.353   2.687  0.1471 -0.7450  0.6581
 6683TIP3    H141684   6.399   1.391   2.630 -0.1930 -0.6270  1.1187
 6683TIP3    H241685   6.432   1.368   2.776  0.0772 -1.9737  0.8643
 6684TIP3   OH241686   3.342   2.568   1.341  0.3864 -0.2494 -0.2250
 6684TIP3    H141687   3.287   2.514   1.285 -0.8793 -0.4228  1.1173
 6684TIP3    H241688   3.413   2.598   1.284 -1.1162  0.0338 -2.0299
 6685TIP3   OH241689   5.740   3.234   1.284 -0.2587  0.2432  0.2300
 6685TIP3    H141690   5.804   3.305   1.283 -0.0515  0.0943  1.3909
 6685TIP3    H241691   5.739   3.201   1.195  0.6263  0.8314 -0.0068
 6686TIP3   OH241692   2.734   6.840   0.930 -0.0620  0.2445 -0.0655
 6686TIP3    H141693   2.717   6.926   0.891 -1.5251  1.1741  2.3649
 6686TIP3    H241694   2.651   6.794   0.922  0.9397 -1.3705 -2.1062
 6687TIP3   OH241695   3.862   4.959   0.056 -0.5105  0.4676 -0.0348
 6687TIP3    H141696   3.911   4.958  -0.026  0.0151 -1.4615  0.2488
 6687TIP3    H241697   3.929   4.956   0.124 -0.9734  0.6894  0.4421
 6688TIP3   OH241698   4.969   1.871   7.292 -0.4938  0.3410  0.3882
 6688TIP3    H141699   4.909   1.805   7.327 -0.4387  0.2014  0.2234
 6688TIP3    H241700   5.052   1.824   7.282 -0.7878  0.0605 -0.9805
 6689TIP3   OH241701   2.850   6.814   2.441  0.3451  0.4001 -0.5613
 6689TIP3    H141702   2.768   6.855   2.413  0.6188  0.3478 -1.4745
 6689TIP3    H241703   2.885   6.875   2.506  0.1954  1.0610 -1.0861
 6690TIP3   OH241704   5.278   2.940   1.230 -0.3098  0.0565 -0.3415
 6690TIP3    H141705   5.236   2.984   1.304  0.6052  0.6025 -0.1254
 6690TIP3    H241706   5.248   2.988   1.153 -1.7880 -0.9250 -0.4045
 6691TIP3   OH241707   0.795   3.968   7.640  0.4681  0.1409 -0.1188
 6691TIP3    H141708   0.727   4.020   7.598 -0.1663  0.5983  1.4290
 6691TIP3    H241709   0.750   3.920   7.709  1.0722 -2.3518 -1.3362
 6692TIP3   OH241710   2.646   1.719   7.722  0.0552 -0.5132  0.3030
 6692TIP3    H141711   2.704   1.787   7.755 -0.4270 -1.1604  2.6881
 6692TIP3    H241712   2.581   1.766   7.669  0.0444  0.8404  1.4661
 6693TIP3   OH241713   3.212   0.347   0.032  0.4491  0.2605 -0.1495
 6693TIP3    H141714   3.215   0.442   0.041 -0.0126  0.3288 -0.6804
 6693TIP3    H241715   3.303   0.320   0.029  0.5807  0.7709 -0.8732
 6694TIP3   OH241716   1.233   5.672   8.107  0.6088 -0.6144  0.2848
 6694TIP3    H141717   1.285   5.622   8.170  1.8926 -0.1732 -0.3988
 6694TIP3    H241718   1.208   5.752   8.154  0.2508 -0.9746  0.7199
 6695TIP3   OH241719   0.077   3.203   7.830 -0.1130  0.0639 -0.0785
 6695TIP3    H141720   0.145   3.137   7.823 -0.4322 -0.3337  0.4494
 6695TIP3    H241721   0.028   3.196   7.748  0.7586  0.6792 -0.6645
 6696TIP3   OH241722   5.666   1.575   7.138 -0.3104  0.1912 -0.2122
 6696TIP3    H141723   5.718   1.497   7.158 -2.3162 -1.3958 -0.9220
 6696TIP3    H241724   5.731   1.641   7.115  1.4003 -2.1946 -2.8309
 6697TIP3   OH241725   6.019   5.563   6.990  0.3795  0.3246 -0.3306
 6697TIP3    H141726   5.993   5.576   6.899 -0.4599  1.6558  0.0785
 6697TIP3    H241727   5.966   5.625   7.040 -0.6841 -1.7763  1.3179
 6698TIP3   OH241728   0.134   5.536   7.452 -0.4342 -0.2138 -0.6080
 6698TIP3    H141729   0.084   5.611   7.485 -0.9019 -0.5230 -0.6076
 6698TIP3    H241730   0.187   5.507   7.526 -2.1090 -1.4384  0.1532
 6699TIP3   OH241731   4.393   5.230   7.076  0.9276  0.0772  0.2861
 6699TIP3    H141732   4.390   5.312   7.028  0.4096  0.4452  0.9201
 6699TIP3    H241733   4.378   5.256   7.168  1.7471 -0.6124  0.6273
 6700TIP3   OH241734   5.915   2.688   0.669 -0.6539  0.1604  0.2841
 6700TIP3    H141735   5.946   2.660   0.583 -0.1418 -0.2314  0.5936
 6700TIP3    H241736   5.986   2.742   0.703 -0.5952 -0.1860  0.7140
 6701TIP3   OH241737   5.297   5.466   0.881  0.0088  0.2408 -0.0784
 6701TIP3    H141738   5.233   5.448   0.812 -0.2233 -0.4645  0.3120
 6701TIP3    H241739   5.245   5.503   0.953  0.1571  0.3947 -0.0505
 6702TIP3   OH241740   4.181   4.852   6.782 -0.0128 -0.1548 -0.7208
 6702TIP3    H141741   4.201   4.877   6.872 -0.0015  1.0095 -1.0181
 6702TIP3    H241742   4.196   4.758   6.778  0.8434 -0.0723  0.2644
 6703TIP3   OH241743   1.910   0.277   2.783 -0.1991  0.0690 -0.0928
 6703TIP3    H141744   1.832   0.242   2.826 -0.2633 -1.2781 -1.2438
 6703TIP3    H241745   1.971   0.203   2.779 -0.0149  0.2712 -1.8400
 6704TIP3   OH241746   3.367   5.441   8.022 -0.6401  0.0082 -0.2402
 6704TIP3    H141747   3.411   5.359   8.047 -0.5613 -0.6907 -2.4401
 6704TIP3    H241748   3.431   5.509   8.043  0.0573 -0.6701 -0.0862
 6705TIP3   OH241749   4.172   6.333   1.146  0.1525 -0.1082  0.6227
 6705TIP3    H141750   4.130   6.264   1.095  0.3280  0.2885 -0.0883
 6705TIP3    H241751   4.192   6.401   1.081 -0.0954  0.6480  1.3191
 6706TIP3   OH241752   6.353   1.745   3.070 -0.0179 -0.8413  0.3184
 6706TIP3    H141753   6.313   1.831   3.057 -0.4811 -1.2023 -0.7321
 6706TIP3    H241754   6.446   1.765   3.085 -0.1709 -0.1385  0.3767
 6707TIP3   OH241755   4.944   5.291   7.503 -0.1828  0.3348  0.0522
 6707TIP3    H141756   4.901   5.374   7.482 -0.8251  0.1618  0.6491
 6707TIP3    H241757   4.873   5.229   7.514  0.3159 -0.4083 -0.8035
 6708TIP3   OH241758   4.823   1.845   7.032 -0.0976  0.2396 -0.5218
 6708TIP3    H141759   4.883   1.891   7.090 -1.5952 -0.6441  1.8757
 6708TIP3    H241760   4.753   1.813   7.089 -2.3546  0.3384 -2.9985
 6709TIP3   OH241761   4.644   2.021   1.427 -0.4886  0.2277 -0.1382
 6709TIP3    H141762   4.730   2.046   1.392 -1.2748  0.0073 -2.4133
 6709TIP3    H241763   4.652   1.928   1.446 -0.4372  0.0064 -1.1659
 6710TIP3   OH241764   3.616   3.349   2.523  0.3704 -0.4041 -0.2759
 6710TIP3    H141765   3.636   3.266   2.565 -1.8333 -0.6269  0.4393
 6710TIP3    H241766   3.684   3.409   2.553 -0.0442 -1.0503  2.1160
 6711TIP3   OH241767   2.624   2.922   2.116 -0.9805  0.2275  0.4386
 6711TIP3    H141768   2.661   3.008   2.139  2.7579 -0.7690 -1.1279
 6711TIP3    H241769   2.613   2.878   2.201 -1.8273  1.7891  1.1892
 6712TIP3   OH241770   2.217   0.084   8.266 -0.1423 -0.3152  0.5820
 6712TIP3    H141771   2.125   0.108   8.264  0.0858  0.7599  1.6019
 6712TIP3    H241772   2.228   0.034   8.347  0.3624  0.5102  1.0425
 6713TIP3   OH241773   0.772   0.691   1.703  0.5388  0.6165  0.3845
 6713TIP3    H141774   0.795   0.598   1.709  4.6648  1.5033  1.3551
 6713TIP3    H241775   0.789   0.713   1.611  1.6342  0.7961  0.6138
 6714TIP3   OH241776   4.831   3.956   8.088  0.3221  0.5903  0.5315
 6714TIP3    H141777   4.902   3.904   8.050 -0.4299 -0.6337  0.7635
 6714TIP3    H241778   4.754   3.900   8.083 -0.1207  0.9438  2.5387
 6715TIP3   OH241779   6.888   2.388   0.332 -0.1425 -0.0224 -0.4964
 6715TIP3    H141780   6.856   2.307   0.373  0.5686 -0.3635 -0.5888
 6715TIP3    H241781   6.983   2.386   0.348  0.0086  0.3171 -1.3358
 6716TIP3   OH241782   0.504   3.267   8.226 -0.1332  0.0700 -0.3010
 6716TIP3    H141783   0.509   3.173   8.208 -1.4636  0.1756 -1.4355
 6716TIP3    H241784   0.517   3.275   8.320  0.5039 -1.2044 -0.2701
 6717TIP3   OH241785   5.288   2.012   7.331  0.3753 -0.5209  0.2125
 6717TIP3    H141786   5.288   1.929   7.283 -0.7831  0.2454 -1.1715
 6717TIP3    H241787   5.378   2.044   7.323  0.6223 -1.2234  0.0352
 6718TIP3   OH241788   5.160   6.293   2.680 -0.1856 -0.2039 -0.0486
 6718TIP3    H141789   5.238   6.348   2.690  0.6082 -0.7982 -2.3347
 6718TIP3    H241790   5.188   6.207   2.710 -0.5772  0.0010  0.9308
 6719TIP3   OH241791   4.386   6.105   7.617  0.2119  0.0109 -0.3585
 6719TIP3    H141792   4.420   6.167   7.553  1.0769 -0.1164 -0.0309
 6719TIP3    H241793   4.452   6.102   7.686 -1.5905  1.6182  1.5382
 6720TIP3   OH241794   3.406   2.676   1.606 -0.3166 -0.0738 -0.0069
 6720TIP3    H141795   3.435   2.619   1.678 -0.0724 -0.4327 -0.3847
 6720TIP3    H241796   3.379   2.616   1.537  0.3196  0.2589 -0.5623
 6721TIP3   OH241797   3.629   3.148   1.665 -0.2880  0.1904  0.6173
 6721TIP3    H141798   3.661   3.066   1.628 -1.2780 -0.0132  0.1865
 6721TIP3    H241799   3.639   3.137   1.760  0.3469 -0.0920  0.5241
 6722TIP3   OH241800   4.425   3.122   6.866 -0.0712  0.4161  0.1453
 6722TIP3    H141801   4.459   3.061   6.801  0.8577 -0.9695  1.8445
 6722TIP3    H241802   4.498   3.136   6.927 -0.2783  3.1908 -0.1192
 6723TIP3   OH241803   0.908   6.581   1.575 -0.7471 -0.0158 -0.4410
 6723TIP3    H141804   0.955   6.650   1.528 -2.0821  1.1050 -0.2041
 6723TIP3    H241805   0.961   6.566   1.654  0.4446 -0.4998 -1.3036
 6724TIP3   OH241806   5.634   2.226   1.225 -0.1075  0.7384  0.4566
 6724TIP3    H141807   5.728   2.212   1.237  0.2891  1.9329 -0.9450
 6724TIP3    H241808   5.604   2.151   1.172 -0.1809 -0.1712  1.7436
 6725TIP3   OH241809   0.879   1.751   6.697  0.3407 -0.1542  0.5226
 6725TIP3    H141810   0.967   1.776   6.725  0.0510  0.2035  1.1139
 6725TIP3    H241811   0.890   1.728   6.605  0.4524  3.1970 -0.4470
 6726TIP3   OH241812   5.174   1.424   1.749 -0.1498 -0.6683 -0.3333
 6726TIP3    H141813   5.111   1.354   1.765 -0.2294 -0.6168 -0.4245
 6726TIP3    H241814   5.181   1.470   1.833 -1.2286  0.1465 -0.6731
 6727TIP3   OH241815   4.826   5.952   0.951 -0.0398  0.2230  0.0377
 6727TIP3    H141816   4.739   5.948   0.991  0.2862 -2.1488  0.6887
 6727TIP3    H241817   4.809   5.959   0.857 -0.8525  2.4055  0.2930
 6728TIP3   OH241818   4.178   3.659   0.251 -0.1818 -0.0896 -0.2840
 6728TIP3    H141819   4.096   3.682   0.208  0.2506 -0.5732 -1.3911
 6728TIP3    H241820   4.202   3.738   0.300 -0.2322  0.8077 -1.6465
 6729TIP3   OH241821   0.426   6.672   1.045 -0.5178 -0.0377 -0.4282
 6729TIP3    H141822   0.361   6.601   1.044 -0.6499  0.0198  0.9943
 6729TIP3    H241823   0.374   6.752   1.049 -0.3674  0.1682 -2.0528
 6730TIP3   OH241824   6.512   0.718   7.268 -0.1661 -0.9145 -0.0335
 6730TIP3    H141825   6.540   0.680   7.184 -2.5092 -1.6813 -0.5451
 6730TIP3    H241826   6.456   0.651   7.307 -0.5926  0.1664  1.2972
 6731TIP3   OH241827   4.472   6.894   7.204 -0.3584 -0.2353  0.0200
 6731TIP3    H141828   4.440   6.892   7.114  1.6030 -2.1750 -0.6989
 6731TIP3    H241829   4.511   6.981   7.213  3.4234 -1.4276 -2.6005
 6732TIP3   OH241830   5.968   6.184   7.795 -0.3252  0.0011 -0.1316
 6732TIP3    H141831   5.885   6.181   7.747  0.9302  2.4084 -2.7676
 6732TIP3    H241832   6.015   6.107   7.765 -0.7890 -0.2090 -0.3367
 6733TIP3   OH241833   6.882   2.246   7.545  0.0569 -0.3375 -0.2570
 6733TIP3    H141834   6.926   2.316   7.594  0.2766  0.3752 -1.4498
 6733TIP3    H241835   6.926   2.244   7.460 -1.4224 -0.4137 -1.0560
 6734TIP3   OH241836   5.249   5.110   8.225  0.2204  0.0616  0.2401
 6734TIP3    H141837   5.199   5.176   8.274 -0.7593 -0.2998 -0.2415
 6734TIP3    H241838   5.209   5.110   8.138 -0.1656 -1.5339  0.3815
 6735TIP3   OH241839   0.369   4.920   7.346  0.5634  0.0318 -0.0979
 6735TIP3    H141840   0.454   4.891   7.380  0.0269 -0.0550  1.1961
 6735TIP3    H241841   0.307   4.903   7.417 -0.0741  2.7600  0.0790
 6736TIP3   OH241842   2.028   1.645   6.293  0.0636  0.3635  0.1005
 6736TIP3    H141843   2.032   1.630   6.387  1.5136  0.6982  0.1135
 6736TIP3    H241844   1.982   1.729   6.284 -1.4749 -0.4156  0.4049
 6737TIP3   OH241845   5.156   4.764   7.451  0.2655  0.4108  0.2885
 6737TIP3    H141846   5.156   4.860   7.457 -2.0021  0.4452  0.6745
 6737TIP3    H241847   5.087   4.744   7.387  0.3703 -0.9866  0.5802
 6738TIP3   OH241848   4.929   0.793   1.761  0.3162  0.7374 -0.2290
 6738TIP3    H141849   4.877   0.750   1.694 -0.7347  0.5858  0.6537
 6738TIP3    H241850   4.965   0.870   1.718 -1.0110  1.0878 -0.7638
 6739TIP3   OH241851   0.068   6.680   0.026  0.2298 -0.1852 -0.1309
 6739TIP3    H141852   0.016   6.740   0.079 -1.0853 -1.0365 -0.4245
 6739TIP3    H241853   0.054   6.710  -0.064 -2.4587 -2.3307 -0.5425
 6740TIP3   OH241854   6.372   5.068   1.756 -0.3128 -0.1505 -0.0732
 6740TIP3    H141855   6.358   5.099   1.846  3.6929 -1.8141  1.3337
 6740TIP3    H241856   6.377   5.148   1.704 -3.1421  0.8466  0.9457
 6741TIP3   OH241857   0.387   1.820   0.453 -0.6043 -0.1673 -0.2473
 6741TIP3    H141858   0.387   1.854   0.542 -0.8013  0.0334 -0.3245
 6741TIP3    H241859   0.355   1.730   0.461  0.4294 -0.5265  0.0289
 6742TIP3   OH241860   2.867   1.807   2.166  0.5816  0.9831 -0.2683
 6742TIP3    H141861   2.925   1.731   2.155  0.4401  0.7250  0.7003
 6742TIP3    H241862   2.827   1.795   2.252 -1.1172  1.0177 -1.0062
 6743TIP3   OH241863   4.831   5.783   0.335 -0.8315  0.1448 -0.3704
 6743TIP3    H141864   4.816   5.702   0.286 -1.2136 -0.2488  0.3852
 6743TIP3    H241865   4.837   5.850   0.267  2.1233 -0.8318 -1.2227
 6744TIP3   OH241866   6.369   1.560   7.414  0.2149  0.6262  0.1914
 6744TIP3    H141867   6.292   1.543   7.360  0.4923 -0.8321  0.2081
 6744TIP3    H241868   6.364   1.495   7.484  1.3582  0.6471  0.3108
 6745TIP3   OH241869   2.163   2.108   0.359 -0.2118 -0.6448  0.2238
 6745TIP3    H141870   2.099   2.130   0.292  0.9137 -3.0782 -1.7897
 6745TIP3    H241871   2.243   2.153   0.332 -0.3311  0.2989  1.3248
 6746TIP3   OH241872   4.888   0.225   1.982 -0.1963 -0.7453 -0.3976
 6746TIP3    H141873   4.871   0.312   2.016 -0.6580 -0.8858 -0.2709
 6746TIP3    H241874   4.966   0.196   2.029  1.4793  0.5623 -2.1867
 6747TIP3   OH241875   6.244   1.456   2.261  0.2839 -0.4314 -0.7136
 6747TIP3    H141876   6.314   1.465   2.196 -1.4230 -0.0085 -2.5988
 6747TIP3    H241877   6.208   1.369   2.245  1.3709 -1.3558  1.3874
 6748TIP3   OH241878   5.902   1.384   7.218  0.4823 -0.4602 -0.3384
 6748TIP3    H141879   5.820   1.335   7.223 -0.2861  0.7331 -0.6382
 6748TIP3    H241880   5.958   1.332   7.161  0.3287 -1.8066  0.6823
 6749TIP3   OH241881   6.043   5.749   2.950 -0.1282  0.5355  0.4310
 6749TIP3    H141882   6.035   5.842   2.926  0.0600  0.6706  0.8647
 6749TIP3    H241883   5.960   5.729   2.994 -0.3713  0.3577 -0.1060
 6750TIP3   OH241884   4.636   4.984   7.312  0.4702 -0.0573 -0.2566
 6750TIP3    H141885   4.622   4.999   7.219  0.5251 -1.7993 -0.5762
 6750TIP3    H241886   4.549   4.999   7.351  0.4572  0.7267 -0.5561
 6751TIP3   OH241887   3.205   4.510   1.798  0.1819  0.4529  0.6208
 6751TIP3    H141888   3.288   4.503   1.844  0.9554 -0.2380 -0.8005
 6751TIP3    H241889   3.225   4.486   1.707 -1.9853 -2.0829  0.6742
 6752TIP3   OH241890   0.156   6.076   7.579  0.2856  0.2973 -0.1931
 6752TIP3    H141891   0.216   6.004   7.600  1.0208  0.8083 -0.5164
 6752TIP3    H241892   0.069   6.038   7.589  0.6543 -1.0136 -1.6040
 6753TIP3   OH241893   0.382   6.719   1.724  0.2503 -0.1574 -0.1089
 6753TIP3    H141894   0.475   6.740   1.722  0.5265 -1.1495  1.1503
 6753TIP3    H241895   0.367   6.683   1.811 -1.2003 -0.5543 -0.4909
 6754TIP3   OH241896   3.440   4.555   7.471  0.0285 -0.3742  0.2262
 6754TIP3    H141897   3.405   4.519   7.552  1.0036  2.3226  1.9965
 6754TIP3    H241898   3.367   4.606   7.434  0.2529  0.3099  0.7006
 6755TIP3   OH241899   5.543   4.831   7.492  0.8086  0.2604 -0.6213
 6755TIP3    H141900   5.595   4.876   7.558  0.0110  1.3438 -0.6923
 6755TIP3    H241901   5.549   4.887   7.415 -0.5656  0.4999 -0.5815
 6756TIP3   OH241902   6.783   0.854   1.576 -0.4072 -0.2748  0.2846
 6756TIP3    H141903   6.870   0.885   1.549 -0.9927  3.8434  2.2845
 6756TIP3    H241904   6.722   0.904   1.523 -1.5664 -1.3993  0.5183
 6757TIP3   OH241905   6.986   3.695   1.569 -0.1891  0.5397  0.0023
 6757TIP3    H141906   7.064   3.664   1.524 -0.7123 -0.7988 -0.0301
 6757TIP3    H241907   7.019   3.753   1.638  0.8521 -0.2735  0.2109
 6758TIP3   OH241908   5.914   5.387   7.316 -0.4586  0.4944 -0.6669
 6758TIP3    H141909   5.910   5.296   7.289 -1.3629  0.9873 -2.3469
 6758TIP3    H241910   6.004   5.414   7.294 -0.3353  0.1357 -0.6042
 6759TIP3   OH241911   6.533   5.366   0.962 -0.1343  0.3126 -0.6303
 6759TIP3    H141912   6.610   5.383   0.909  0.0837  1.3405 -0.0059
 6759TIP3    H241913   6.485   5.449   0.963 -1.3775 -0.3646 -1.1934
 6760TIP3   OH241914   0.256   6.558   0.523 -0.4201 -0.3843  0.1560
 6760TIP3    H141915   0.219   6.596   0.443 -0.6758 -0.2780  0.3226
 6760TIP3    H241916   0.255   6.630   0.586  0.6689 -0.1988 -0.0162
 6761TIP3   OH241917   2.670   1.133   7.724  0.1159 -0.2495  0.4850
 6761TIP3    H141918   2.686   1.211   7.777  0.9004 -0.4377  0.5423
 6761TIP3    H241919   2.636   1.166   7.641  0.7708  0.1871  0.3833
 6762TIP3   OH241920   3.005   3.052   2.156 -0.5781  0.0105 -0.7703
 6762TIP3    H141921   3.027   3.089   2.241 -0.2355  0.2460 -0.9609
 6762TIP3    H241922   3.070   2.983   2.142 -0.8927 -0.3133 -0.6528
 6763TIP3   OH241923   1.894   2.849   7.800 -0.5935  0.2731  0.3576
 6763TIP3    H141924   1.827   2.780   7.790 -1.0024  0.8447 -1.1861
 6763TIP3    H241925   1.941   2.848   7.717  0.0888  1.1527  0.7264
 6764TIP3   OH241926   1.464   0.534   8.386 -0.1070  0.3907 -0.0777
 6764TIP3    H141927   1.486   0.493   8.469  0.7377 -0.4415 -0.6900
 6764TIP3    H241928   1.528   0.499   8.324 -1.5963 -0.1148 -1.3981
 6765TIP3   OH241929   3.425   0.639   2.723 -0.2251 -0.0306  0.4993
 6765TIP3    H141930   3.338   0.628   2.687  0.5613  0.8257 -1.8939
 6765TIP3    H241931   3.436   0.734   2.730  1.1493  0.0102 -1.1991
 6766TIP3   OH241932   2.946   6.028   1.993  0.0395  0.0420 -0.1854
 6766TIP3    H141933   3.041   6.024   1.991  0.0336 -1.9703 -3.2593
 6766TIP3    H241934   2.924   6.102   1.936 -0.2241 -0.2732 -0.4987
 6767TIP3   OH241935   6.761   4.207   0.359 -0.0886  0.4676  0.0031
 6767TIP3    H141936   6.769   4.261   0.281  0.5575 -0.1175 -0.3499
 6767TIP3    H241937   6.826   4.241   0.420 -1.2576  1.5500  0.6821
 6768TIP3   OH241938   3.717   4.651   0.926  0.4565 -0.2048 -0.3561
 6768TIP3    H141939   3.739   4.712   0.997  1.2850  0.0561 -0.8220
 6768TIP3    H241940   3.677   4.707   0.859  1.9726  0.0026 -1.1330
 6769TIP3   OH241941   4.180   5.930   2.599 -0.0738  0.0655 -0.5973
 6769TIP3    H141942   4.218   5.853   2.557  0.9028  0.2717 -0.1389
 6769TIP3    H241943   4.170   5.993   2.528 -2.1086 -0.8981 -1.2205
 6770TIP3   OH241944   6.001   6.712   7.655 -0.5193 -0.7273 -0.1658
 6770TIP3    H141945   6.018   6.618   7.650  0.6711 -0.4809 -1.8869
 6770TIP3    H241946   5.907   6.719   7.670 -0.6621 -2.2026 -0.2524
 6771TIP3   OH241947   3.666   3.504   0.761  0.1321  0.3737  0.0205
 6771TIP3    H141948   3.667   3.586   0.711 -0.0103 -0.2604 -1.0531
 6771TIP3    H241949   3.745   3.508   0.815  0.5030  0.8968 -0.5508
 6772TIP3   OH241950   2.565   1.374   6.949  0.0699 -0.0997  0.1529
 6772TIP3    H141951   2.508   1.425   7.005 -1.9550 -0.1070 -1.7715
 6772TIP3    H241952   2.512   1.298   6.922  2.3356 -2.2855  1.3933
 6773TIP3   OH241953   4.069   3.145   0.661 -0.5264 -0.2617 -0.2633
 6773TIP3    H141954   3.976   3.170   0.663 -0.4748  0.0155 -1.1838
 6773TIP3    H241955   4.091   3.130   0.753 -1.2937  0.3804  0.0368
 6774TIP3   OH241956   4.404   6.212   2.636  0.1856 -0.5456 -0.1742
 6774TIP3    H141957   4.363   6.245   2.556  2.6091  1.0492 -0.8612
 6774TIP3    H241958   4.426   6.121   2.616  1.5847  0.0797 -1.7509
 6775TIP3   OH241959   4.502   4.244   1.072  0.0644 -0.0967 -0.4018
 6775TIP3    H141960   4.472   4.252   0.982 -1.6046  0.1601  0.1379
 6775TIP3    H241961   4.478   4.155   1.098 -1.8345  0.6293  0.5466
 6776TIP3   OH241962   5.016   5.913   7.413  0.1892 -0.1826  0.3689
 6776TIP3    H141963   5.024   5.907   7.318  0.9468  0.5707  0.3744
 6776TIP3    H241964   4.922   5.911   7.430  0.0386  0.1098 -0.4271
 6777TIP3   OH241965   0.181   1.818   2.367  0.1459 -0.3962  0.3071
 6777TIP3    H141966   0.226   1.741   2.401  0.0465 -0.4680  0.2750
 6777TIP3    H241967   0.200   1.887   2.431  0.3764 -0.4030  0.2470
 6778TIP3   OH241968   3.110   3.779   7.493  0.6803 -0.1015 -0.0998
 6778TIP3    H141969   3.174   3.758   7.424 -2.1611  1.0685 -3.3850
 6778TIP3    H241970   3.034   3.725   7.472 -1.0261  1.8375  0.8450
 6779TIP3   OH241971   6.812   6.842   1.278 -0.3631 -0.0376 -0.6835
 6779TIP3    H141972   6.903   6.866   1.290 -0.6523  0.8229 -0.1825
 6779TIP3    H241973   6.762   6.919   1.305 -1.2104 -0.1210 -1.8981
 6780TIP3   OH241974   6.179   5.630   0.648 -0.1318 -0.0870 -0.2919
 6780TIP3    H141975   6.135   5.713   0.635 -1.1132 -0.5394  0.0715
 6780TIP3    H241976   6.169   5.584   0.564  1.2437  0.5200 -0.8205
 6781TIP3   OH241977   1.933   1.085   2.598  0.2939  1.0960  0.1567
 6781TIP3    H141978   1.929   1.050   2.687  0.3199 -0.2291 -0.3348
 6781TIP3    H241979   1.842   1.102   2.574  0.2563  1.1005  0.3060
 6782TIP3   OH241980   1.290   1.023   1.713 -0.1644 -0.1518  0.0863
 6782TIP3    H141981   1.265   1.099   1.766  0.8819  1.5593 -1.7157
 6782TIP3    H241982   1.339   0.967   1.772  0.3527  1.3339  1.1229
 6783TIP3   OH241983   2.558   0.247   7.977 -0.3020  0.0348  0.2004
 6783TIP3    H141984   2.500   0.194   7.922 -3.1906  3.0760 -0.0297
 6783TIP3    H241985   2.537   0.221   8.066 -1.2930  0.3299  0.0732
 6784TIP3   OH241986   2.256   2.634   7.424  0.1483 -0.1199  0.2553
 6784TIP3    H141987   2.296   2.555   7.389  0.3052  0.1521 -0.1792
 6784TIP3    H241988   2.278   2.702   7.362 -1.1217  0.0048 -0.0907
 6785TIP3   OH241989   0.805   3.876   8.170  0.0843 -0.0846 -0.3458
 6785TIP3    H141990   0.747   3.941   8.210 -0.7251  0.9154 -2.9357
 6785TIP3    H241991   0.781   3.794   8.212  0.7619  1.1129  2.6389
 6786TIP3   OH241992   5.279   0.055   7.200 -0.3662  0.4888  0.6415
 6786TIP3    H141993   5.342  -0.017   7.197 -0.5257  0.3842 -0.5874
 6786TIP3    H241994   5.302   0.109   7.124 -0.7002  1.3531  1.1459
 6787TIP3   OH241995   0.065   2.504   7.233 -0.4658  0.4295  0.2254
 6787TIP3    H141996  -0.017   2.551   7.247 -1.1470 -0.7571  0.3734
 6787TIP3    H241997   0.087   2.520   7.142 -2.0559 -1.0004 -0.4677
 6788TIP3   OH241998   2.367   1.406   1.783  0.1657  0.0520  0.7913
 6788TIP3    H141999   2.403   1.393   1.695  1.9506 -2.0764  1.7527
 6788TIP3    H242000   2.354   1.501   1.789  0.2908  0.2937 -1.6237
 6789TIP3   OH242001   3.729   0.367   0.042 -0.1316 -0.1708 -0.0538
 6789TIP3    H142002   3.660   0.434   0.043 -1.0201 -1.0199 -1.6636
 6789TIP3    H242003   3.715   0.318   0.123 -0.6406  0.4261  0.2350
 6790TIP3   OH242004   5.739   2.848   1.596 -0.9424 -0.0937 -0.8928
 6790TIP3    H142005   5.784   2.782   1.543 -1.6227 -2.6435  1.4110
 6790TIP3    H242006   5.808   2.903   1.631  0.2353 -2.2261  0.3762
 6791TIP3   OH242007   2.282   2.504   6.645 -0.1276 -0.2431  0.3087
 6791TIP3    H142008   2.313   2.421   6.682  0.2716  0.3643  1.3911
 6791TIP3    H242009   2.320   2.571   6.702  1.9954  0.8591 -2.2108
 6792TIP3   OH242010   4.073   4.393   2.202  0.1776 -0.5204 -0.3519
 6792TIP3    H142011   3.991   4.435   2.225  1.2920  2.2832 -1.0162
 6792TIP3    H242012   4.106   4.445   2.128  3.2926 -0.4442  0.9436
 6793TIP3   OH242013   0.431   6.565   8.205 -0.7518  0.5214  0.4695
 6793TIP3    H142014   0.393   6.520   8.281  0.2701  1.0739  1.3482
 6793TIP3    H242015   0.360   6.618   8.170 -1.5732 -0.6488  0.3065
 6794TIP3   OH242016   1.307   3.689   1.392 -0.2271 -0.5685 -0.3888
 6794TIP3    H142017   1.266   3.607   1.421 -1.2808  0.1749  0.2836
 6794TIP3    H242018   1.233   3.749   1.378  0.5524  0.3678 -0.5687
 6795TIP3   OH242019   2.643   2.042   0.733 -0.4756 -0.0990 -0.2861
 6795TIP3    H142020   2.562   2.076   0.772  0.6826  0.9174  1.3706
 6795TIP3    H242021   2.658   1.959   0.778 -0.5170 -0.2087 -0.4754
 6796TIP3   OH242022   0.380   5.959   3.023  0.2886 -0.1707  0.1731
 6796TIP3    H142023   0.328   5.930   2.948 -0.8849  3.5811 -0.6767
 6796TIP3    H242024   0.316   5.975   3.092  0.9932 -0.5545  0.9268
 6797TIP3   OH242025   3.319   6.142   7.418 -0.8582 -0.2487  0.5437
 6797TIP3    H142026   3.326   6.132   7.513 -1.6024  1.6757  0.8416
 6797TIP3    H242027   3.242   6.197   7.405 -0.1425  0.4257 -1.1193
 6798TIP3   OH242028   6.699   2.252   1.547  0.1800  0.3767  0.5034
 6798TIP3    H142029   6.794   2.258   1.554  0.2215  0.6181 -0.1645
 6798TIP3    H242030   6.683   2.166   1.508  0.1961  0.7943 -0.4551
 6799TIP3   OH242031   0.446   3.946   7.328  0.1855  0.1002  0.2389
 6799TIP3    H142032   0.509   3.992   7.273  1.2716 -1.4012  0.1834
 6799TIP3    H242033   0.364   3.949   7.278  0.6786  0.4043 -0.5650
 6800TIP3   OH242034   6.591   5.910   1.987 -0.0216  0.1173 -0.2988
 6800TIP3    H142035   6.603   5.980   2.051  2.4323  0.2625 -0.8160
 6800TIP3    H242036   6.617   5.831   2.034  1.1384  0.1365 -0.8711
 6801TIP3   OH242037   6.859   1.986   0.049 -0.5399 -0.3820 -0.4022
 6801TIP3    H142038   6.871   1.900   0.089 -1.2146  0.1195  0.9159
 6801TIP3    H242039   6.933   1.994  -0.011 -0.9944 -2.2756 -1.3094
 6802TIP3   OH242040   6.670   6.491   2.386  0.2673  0.1212  0.2649
 6802TIP3    H142041   6.749   6.544   2.375 -0.7563  2.7060  3.6401
 6802TIP3    H242042   6.700   6.411   2.429  1.3757 -0.4801 -1.5260
 6803TIP3   OH242043   0.570   0.691   6.793  1.0717 -0.0656  0.4144
 6803TIP3    H142044   0.582   0.615   6.851  0.2906 -0.7250 -0.2673
 6803TIP3    H242045   0.501   0.665   6.733  1.0894  1.0383 -0.1134
 6804TIP3   OH242046   6.298   0.490   6.575 -0.4180  0.0305  0.1550
 6804TIP3    H142047   6.253   0.573   6.561 -0.5850 -0.0640  0.1321
 6804TIP3    H242048   6.382   0.500   6.531 -0.2082  0.3922  0.6233
 6805TIP3   OH242049   1.018   2.785   0.290  0.1267  0.3806  0.5416
 6805TIP3    H142050   1.078   2.829   0.350  0.8623  0.1937 -0.0416
 6805TIP3    H242051   1.073   2.759   0.217 -0.5599 -0.3442  0.2783
 6806TIP3   OH242052   3.081   4.170   2.733 -0.4883  0.1595  0.1687
 6806TIP3    H142053   3.016   4.200   2.670 -0.3014 -0.4464 -0.3195
 6806TIP3    H242054   3.079   4.236   2.803 -1.0822  0.5442 -0.2039
 6807TIP3   OH242055   5.865   5.488   2.132  0.6484  0.3943 -0.2702
 6807TIP3    H142056   5.916   5.407   2.128  0.6414  0.4250 -1.1368
 6807TIP3    H242057   5.813   5.479   2.212  0.7032 -0.4304 -0.3153
 6808TIP3   OH242058   2.152   1.821   7.555  0.0576 -0.2014  0.4721
 6808TIP3    H142059   2.167   1.914   7.571 -2.1495  0.3412 -0.2001
 6808TIP3    H242060   2.167   1.779   7.640 -1.3833  1.1489  1.4527
 6809TIP3   OH242061   6.703   5.407   7.728  0.0458 -0.5931 -0.4198
 6809TIP3    H142062   6.625   5.372   7.685  0.4351 -0.4150 -1.3028
 6809TIP3    H242063   6.723   5.487   7.679  0.5509 -0.4235  0.0516
 6810TIP3   OH242064   3.114   2.400   8.046  0.3701  0.0435 -0.2926
 6810TIP3    H142065   3.050   2.329   8.044  1.8086 -1.2893 -1.7252
 6810TIP3    H242066   3.185   2.368   8.102  0.4680  0.8786  0.0832
 6811TIP3   OH242067   4.011   6.793   1.488 -0.0859 -0.4034  0.1576
 6811TIP3    H142068   4.011   6.854   1.561  0.3212  0.0748 -0.2312
 6811TIP3    H242069   3.954   6.834   1.423  1.9758  0.7382 -1.0340
 6812TIP3   OH242070   5.861   2.753   7.722 -0.7144  0.1884  0.1441
 6812TIP3    H142071   5.949   2.753   7.683 -0.2295  3.0241  1.0507
 6812TIP3    H242072   5.831   2.663   7.712  2.6726 -1.1526  0.6283
 6813TIP3   OH242073   4.986   2.018   6.844  0.0977 -0.4607 -0.5266
 6813TIP3    H142074   4.910   2.057   6.801 -0.5828 -1.6440 -0.4438
 6813TIP3    H242075   4.955   1.933   6.874  0.3685  0.4910  2.8103
 6814TIP3   OH242076   6.509   3.392   7.100  0.7551  0.0075  0.0048
 6814TIP3    H142077   6.552   3.345   7.028  0.3407 -2.8356  1.4928
 6814TIP3    H242078   6.485   3.477   7.061 -0.8524 -1.9096 -3.7348
 6815TIP3   OH242079   2.767   5.666   7.031  0.2722 -0.5384 -0.0592
 6815TIP3    H142080   2.822   5.744   7.020 -0.2585 -0.0865  0.4178
 6815TIP3    H242081   2.763   5.626   6.944  0.4783  0.0189 -0.3259
 6816TIP3   OH242082   0.691   1.706   1.589 -0.0809  0.2386 -0.2412
 6816TIP3    H142083   0.610   1.751   1.612 -0.1010 -0.3510  0.9103
 6816TIP3    H242084   0.760   1.758   1.632  0.0341  0.0334 -0.1772
 6817TIP3   OH242085   6.585   0.388   7.687 -0.1052  0.7111  0.2011
 6817TIP3    H142086   6.541   0.312   7.649 -0.3880 -0.0707  2.0164
 6817TIP3    H242087   6.516   0.437   7.731  0.5135  0.4481  1.5150
 6818TIP3   OH242088   0.885   6.788   8.412  0.0754  0.3141 -0.5054
 6818TIP3    H142089   0.969   6.797   8.457  0.0175  0.1863 -0.3720
 6818TIP3    H242090   0.819   6.790   8.482 -0.0392  0.5059 -0.6163
 6819TIP3   OH242091   2.467   3.393   2.251 -0.3566  0.0712 -0.1013
 6819TIP3    H142092   2.517   3.475   2.250 -1.0435  0.7989  4.2177
 6819TIP3    H242093   2.531   3.327   2.226  1.1643  1.5899 -0.4581
 6820TIP3   OH242094   5.360   3.069   0.429 -0.4524  0.3719 -0.1695
 6820TIP3    H142095   5.315   3.108   0.504 -2.8630 -0.0227 -1.3330
 6820TIP3    H242096   5.450   3.102   0.436 -0.3804 -0.1835  3.2163
 6821TIP3   OH242097   2.508   5.793   7.637 -0.4150 -0.3223  0.2334
 6821TIP3    H142098   2.448   5.774   7.709  1.7330 -0.5002  2.0885
 6821TIP3    H242099   2.560   5.867   7.668 -1.4139  1.6368 -2.4362
 6822TIP3   OH242100   0.878   3.897   1.724  0.3231 -0.1270 -0.0329
 6822TIP3    H142101   0.819   3.905   1.799 -1.3680  0.5563 -1.3504
 6822TIP3    H242102   0.908   3.986   1.707  1.8521 -0.4774  0.6607
 6823TIP3   OH242103   0.021   0.492   1.260  0.3129 -0.2346 -0.3911
 6823TIP3    H142104   0.052   0.450   1.179  0.5854  0.2779 -0.5546
 6823TIP3    H242105   0.076   0.454   1.329 -0.7966 -1.6771 -0.2437
 6824TIP3   OH242106   6.109   0.663   0.051 -0.6447 -0.3301 -0.1392
 6824TIP3    H142107   6.164   0.732   0.012 -1.5542 -0.4120 -1.6694
 6824TIP3    H242108   6.022   0.703   0.054 -1.0073 -1.1111 -0.2327
 6825TIP3   OH242109   4.404   1.637   0.784  0.4350 -0.0060 -0.3987
 6825TIP3    H142110   4.423   1.579   0.858  0.9402 -1.0512 -1.3247
 6825TIP3    H242111   4.308   1.639   0.780  0.3444  1.2578  1.1709
 6826TIP3   OH242112   4.810   5.305   0.606 -0.4301 -0.4416  0.0847
 6826TIP3    H142113   4.760   5.267   0.678  0.2995 -1.6192  0.0032
 6826TIP3    H242114   4.777   5.260   0.528 -0.3696 -0.0610 -0.1605
 6827TIP3   OH242115   5.064   1.645   7.943 -0.4236 -0.5731  0.2845
 6827TIP3    H142116   5.052   1.567   7.998  4.0018 -1.1587  0.7527
 6827TIP3    H242117   5.041   1.718   8.001 -0.6311 -1.3850  1.2582
 6828TIP3   OH242118   3.798   6.236   1.955  0.1197 -0.2192 -0.3038
 6828TIP3    H142119   3.852   6.300   1.909 -0.7881  1.0217  0.3184
 6828TIP3    H242120   3.723   6.223   1.897  0.4599 -1.0142 -0.5895
 6829TIP3   OH242121   4.801   3.763   0.406  0.2979 -0.1648 -0.5427
 6829TIP3    H142122   4.806   3.788   0.498 -0.6343 -0.2511 -0.4597
 6829TIP3    H242123   4.715   3.721   0.397  0.6142 -0.6763 -1.3223
 6830TIP3   OH242124   6.894   6.139   1.777  0.6582  0.7213 -0.3271
 6830TIP3    H142125   6.815   6.177   1.738 -0.6162 -1.2256  0.2209
 6830TIP3    H242126   6.922   6.073   1.713  1.1378  0.5805  0.0277
 6831TIP3   OH242127   6.310   4.869   0.147  0.3660 -0.0109  0.3690
 6831TIP3    H142128   6.215   4.879   0.161  0.1814 -0.0702 -0.7605
 6831TIP3    H242129   6.349   4.926   0.213 -0.3698 -1.7515  2.4162
 6832TIP3   OH242130   5.117   3.872   0.606  0.0674  0.4895  0.1505
 6832TIP3    H142131   5.172   3.945   0.636 -0.7955  1.9591 -1.5916
 6832TIP3    H242132   5.037   3.880   0.658 -0.0550  0.8463 -0.0887
 6833TIP3   OH242133   2.268   4.337   1.996  0.2230 -0.1483 -0.8064
 6833TIP3    H142134   2.295   4.285   2.071 -1.8917 -0.5353 -0.2543
 6833TIP3    H242135   2.292   4.284   1.920  1.4203 -0.2280 -0.3985
 6834TIP3   OH242136   1.541   0.211   3.139 -0.1919 -0.4955 -0.1732
 6834TIP3    H142137   1.474   0.253   3.194  0.5376 -0.7269  0.9252
 6834TIP3    H242138   1.581   0.283   3.091 -0.6550 -0.2523 -0.2008
 6835TIP3   OH242139   0.568   3.259   1.127 -0.1865 -0.2241  0.8836
 6835TIP3    H142140   0.657   3.227   1.114  0.3513  0.1722  3.0301
 6835TIP3    H242141   0.512   3.182   1.118  0.5196 -0.7305  0.7894
 6836TIP3   OH242142   3.951   5.646   0.289  0.2267  0.3236  0.4383
 6836TIP3    H142143   3.918   5.565   0.249 -0.8349 -0.0944  2.0540
 6836TIP3    H242144   4.045   5.646   0.270 -0.0357 -0.4231 -1.0085
 6837TIP3   OH242145   6.480   6.130   7.683  0.1079  0.1009 -0.2611
 6837TIP3    H142146   6.524   6.068   7.624  2.5994  0.9876  0.5578
 6837TIP3    H242147   6.474   6.083   7.766  2.2841  0.9705  0.4498
 6838TIP3   OH242148   1.422   3.431   6.776 -0.2781 -0.2568 -0.3323
 6838TIP3    H142149   1.370   3.478   6.841  0.9609  1.4597 -0.4937
 6838TIP3    H242150   1.361   3.372   6.733 -1.3510 -0.6528  1.6542
 6839TIP3   OH242151   6.619   3.286   2.195 -0.0854  0.0122  0.2222
 6839TIP3    H142152   6.590   3.375   2.212 -0.5536 -0.6006  3.2888
 6839TIP3    H242153   6.715   3.291   2.201  0.0056  0.5605 -1.3432
 6840TIP3   OH242154   1.118   2.114   1.557  0.2204  1.0359  0.2961
 6840TIP3    H142155   1.180   2.077   1.494  0.4152  0.4690  0.8031
 6840TIP3    H242156   1.069   2.180   1.508  0.3061  0.5417 -0.4681
 6841TIP3   OH242157   4.869   4.471   7.349 -0.2210 -0.1806 -0.0008
 6841TIP3    H142158   4.817   4.413   7.406 -0.5076 -0.1803 -0.2591
 6841TIP3    H242159   4.809   4.495   7.278 -0.6790  1.8318  0.9903
 6842TIP3   OH242160   1.883   3.207   3.023  0.0412 -0.3554  1.2648
 6842TIP3    H142161   1.946   3.241   3.086 -0.4503  1.0122  1.0560
 6842TIP3    H242162   1.923   3.222   2.937  0.7413 -2.2730  1.2009
 6843TIP3   OH242163   3.601   4.941   0.967  0.7367 -0.0774  0.5951
 6843TIP3    H142164   3.553   4.946   0.884 -0.7540  0.7012  1.4688
 6843TIP3    H242165   3.636   5.030   0.979  1.7350 -0.4277  0.3704
 6844TIP3   OH242166   1.047   3.276   1.968  0.0506  0.1317 -0.4099
 6844TIP3    H142167   1.041   3.182   1.985  0.9157  0.2404  0.6248
 6844TIP3    H242168   0.982   3.315   2.027 -0.0533  0.2050 -0.5736
 6845TIP3   OH242169   4.771   3.701   1.513  0.0370  0.4057 -0.4356
 6845TIP3    H142170   4.746   3.790   1.488  3.4832  1.2048 -1.6531
 6845TIP3    H242171   4.798   3.708   1.604  2.8900  1.4235 -1.2329
 6846TIP3   OH242172   6.898   3.146   8.309 -0.2444 -0.2400  0.2625
 6846TIP3    H142173   6.948   3.121   8.231 -0.1998 -1.9875  0.8216
 6846TIP3    H242174   6.822   3.088   8.308 -0.9914  0.7116  0.7555
 6847TIP3   OH242175   3.249   4.427   0.848 -0.5434 -0.6731 -0.1818
 6847TIP3    H142176   3.330   4.428   0.900  0.1371  0.4965 -1.2203
 6847TIP3    H242177   3.198   4.355   0.885  0.4058 -0.6050  1.3514
 6848TIP3   OH242178   5.661   6.056   0.011 -0.5142 -0.2529  0.2110
 6848TIP3    H142179   5.729   6.008  -0.037 -0.0824  0.8501 -0.3267
 6848TIP3    H242180   5.650   6.007   0.093  0.5836 -0.7317  0.0909
 6849TIP3   OH242181   0.526   1.481   1.870  0.2019 -0.1317  0.0021
 6849TIP3    H142182   0.541   1.556   1.813 -1.8174  0.1658 -0.2032
 6849TIP3    H242183   0.451   1.436   1.832 -0.4992 -0.5682  1.7763
 6850TIP3   OH242184   3.315   0.714   1.496 -0.1056  0.4566  0.4816
 6850TIP3    H142185   3.308   0.663   1.577  1.7894 -0.9243 -0.1291
 6850TIP3    H242186   3.244   0.681   1.441 -0.0617 -0.1782  0.7937
 6851TIP3   OH242187   3.335   4.305   6.888  0.0075 -0.2846 -0.1120
 6851TIP3    H142188   3.257   4.297   6.833 -1.2185 -0.1107  1.5317
 6851TIP3    H242189   3.363   4.214   6.902 -0.9755 -0.4929  0.7015
 6852TIP3   OH242190   3.704   2.977   1.305 -0.0461  0.6426 -0.0381
 6852TIP3    H142191   3.700   2.948   1.396 -1.4095 -1.6279 -0.7328
 6852TIP3    H242192   3.613   2.978   1.276  0.3903  0.9896 -1.4785
 6853TIP3   OH242193   1.082   5.264   0.721 -0.0647  0.1255 -0.9694
 6853TIP3    H142194   1.015   5.328   0.699 -0.2166 -0.5191 -2.5278
 6853TIP3    H242195   1.059   5.187   0.670  0.3695 -1.0431  0.5198
 6854TIP3   OH242196   1.223   3.093   1.389  0.1860 -0.4595 -0.8564
 6854TIP3    H142197   1.128   3.095   1.405 -0.0456 -1.9030 -1.9199
 6854TIP3    H242198   1.237   3.159   1.321  0.2887  1.2424  0.7267
 6855TIP3   OH242199   3.481   6.458   7.856  0.0934 -0.1390 -0.2757
 6855TIP3    H142200   3.438   6.372   7.859 -1.4978  0.6342  0.7092
 6855TIP3    H242201   3.574   6.438   7.858 -0.2078 -1.8377  2.3459
 6856TIP3   OH242202   5.430   6.848   7.916  0.6117 -0.4078  0.2290
 6856TIP3    H142203   5.390   6.900   7.986 -0.9901 -0.1264 -0.8208
 6856TIP3    H242204   5.445   6.762   7.956  0.0492 -0.1584  1.0150
 6857TIP3   OH242205   6.084   6.310   8.182  0.0877  0.1017 -0.2818
 6857TIP3    H142206   6.157   6.371   8.194 -1.8274  2.5365 -0.0404
 6857TIP3    H242207   6.040   6.308   8.267 -2.1621  1.6672 -1.3042
 6858TIP3   OH242208   5.865   6.155   0.217  0.2063 -0.2692  0.5666
 6858TIP3    H142209   5.809   6.211   0.271  1.4641  0.3123  1.3097
 6858TIP3    H242210   5.900   6.090   0.278 -0.9230 -1.6457 -0.2133
 6859TIP3   OH242211   0.575   5.389   8.249  0.3029  0.6230 -0.4441
 6859TIP3    H142212   0.653   5.345   8.281  0.5092  1.5553  0.3811
 6859TIP3    H242213   0.561   5.352   8.161 -0.0925 -1.7602  0.5425
 6860TIP3   OH242214   6.343   0.241   1.510  0.1044  0.7651 -0.2088
 6860TIP3    H142215   6.361   0.287   1.427 -1.4215  0.3031 -0.8268
 6860TIP3    H242216   6.285   0.300   1.557  1.0511  1.0704  0.6117
 6861TIP3   OH242217   1.853   4.747   7.414  0.0994  0.1248  0.7523
 6861TIP3    H142218   1.782   4.698   7.372  0.4830  0.8405 -0.7935
 6861TIP3    H242219   1.844   4.836   7.380  1.8808  0.1745  0.3299
 6862TIP3   OH242220   0.419   1.147   2.907 -0.0609  0.3129 -0.2665
 6862TIP3    H142221   0.369   1.127   2.828 -1.8078 -1.6027  1.2288
 6862TIP3    H242222   0.385   1.232   2.935 -2.0393 -0.6186  0.3115
 6863TIP3   OH242223   4.916   2.779   7.755 -0.0381  0.9104  0.1297
 6863TIP3    H142224   4.916   2.695   7.801 -3.0280  0.6426 -0.1470
 6863TIP3    H242225   4.942   2.843   7.822  1.7261 -0.1053  0.4857
 6864TIP3   OH242226   2.651   1.285   2.079 -0.1073  0.0576 -0.1079
 6864TIP3    H142227   2.620   1.254   1.994  1.4549  1.3105 -1.2041
 6864TIP3    H242228   2.607   1.369   2.092  1.7442  1.2472 -1.0914
 6865TIP3   OH242229   2.781   4.673   0.979 -0.7236  0.3873  0.1184
 6865TIP3    H142230   2.835   4.676   0.900 -0.3415 -0.3694  0.3436
 6865TIP3    H242231   2.828   4.614   1.038 -1.1542  0.7120  0.8026
 6866TIP3   OH242232   6.422   2.181   2.848 -0.5083 -0.3704 -0.4065
 6866TIP3    H142233   6.428   2.167   2.753  0.8798  1.2387 -0.5955
 6866TIP3    H242234   6.507   2.154   2.882 -0.0684  1.4137  0.0129
 6867TIP3   OH242235   5.000   1.850   8.112 -0.3162 -0.5203 -0.3612
 6867TIP3    H142236   5.029   1.920   8.053 -0.7516  0.4878  0.5895
 6867TIP3    H242237   5.070   1.844   8.178 -0.5622 -0.5875 -0.1069
 6868TIP3   OH242238   4.496   4.159   1.807 -1.0813 -0.2536  0.0237
 6868TIP3    H142239   4.557   4.233   1.808  0.0146 -1.1496  0.4136
 6868TIP3    H242240   4.481   4.142   1.714  1.0726 -1.4750 -0.1446
 6869TIP3   OH242241   4.599   4.673   8.288  0.7057 -0.6085  0.2943
 6869TIP3    H142242   4.575   4.580   8.293 -0.6066 -0.2977  0.2291
 6869TIP3    H242243   4.670   4.676   8.223  1.4692 -1.6764  1.0420
 6870TIP3   OH242244   5.138   0.103   6.331 -0.1153  0.3019  0.0418
 6870TIP3    H142245   5.071   0.070   6.272  0.9678 -0.6168 -0.7193
 6870TIP3    H242246   5.090   0.138   6.406 -1.5557  2.0361 -1.6045
 6871TIP3   OH242247   4.210   5.159   2.473 -0.1027  0.0209  0.0352
 6871TIP3    H142248   4.236   5.129   2.560 -0.2269 -0.4382 -0.0826
 6871TIP3    H242249   4.292   5.178   2.428  0.1665 -2.6512 -0.7788
 6872TIP3   OH242250   2.670   6.100   7.807  0.3059 -0.1927  0.3819
 6872TIP3    H142251   2.726   6.073   7.733 -1.8798  0.1642 -1.5368
 6872TIP3    H242252   2.635   6.185   7.781 -0.8602 -0.2547  1.6338
 6873TIP3   OH242253   1.202   4.561   7.969  0.2935 -0.1707  0.8237
 6873TIP3    H142254   1.117   4.522   7.987 -0.7620  1.6531  0.0811
 6873TIP3    H242255   1.234   4.516   7.892  0.3926 -1.4076  1.5620
 6874TIP3   OH242256   1.539   5.447   1.858 -0.2858 -0.2989 -0.4686
 6874TIP3    H142257   1.489   5.381   1.906  0.0369  0.4265  0.9075
 6874TIP3    H242258   1.628   5.438   1.892  0.2221 -0.5627 -1.8124
 6875TIP3   OH242259   5.521   2.545   2.555 -0.6525  0.1195 -0.2386
 6875TIP3    H142260   5.492   2.461   2.519  0.3595 -0.3844  0.0795
 6875TIP3    H242261   5.472   2.554   2.637 -0.5167 -0.3351 -0.1016
 6876TIP3   OH242262   6.275   6.161   2.727  0.4319  0.0761  0.0635
 6876TIP3    H142263   6.316   6.075   2.728 -1.8888 -1.1184 -0.9079
 6876TIP3    H242264   6.343   6.220   2.695  1.5165 -1.7222 -1.0759
 6877TIP3   OH242265   3.164   4.560   0.278  0.1212  0.1470  0.1852
 6877TIP3    H142266   3.236   4.568   0.215  0.4467  0.1090  0.5523
 6877TIP3    H242267   3.115   4.641   0.269 -1.5062 -0.9701 -2.1522
 6878TIP3   OH242268   0.330   3.115   7.962  0.6504  0.0913  0.3281
 6878TIP3    H142269   0.366   3.026   7.958 -0.5161 -0.3705 -2.6404
 6878TIP3    H242270   0.387   3.167   7.906 -0.6485  0.3661 -0.7941
 6879TIP3   OH242271   3.780   3.976   0.062  0.3335 -0.0492 -0.2871
 6879TIP3    H142272   3.809   4.067   0.056 -1.8628  0.7815  0.7126
 6879TIP3    H242273   3.684   3.981   0.066  0.1648 -2.3954  0.0723
 6880TIP3   OH242274   5.216   0.071   0.000  0.1939  1.0754  0.1186
 6880TIP3    H142275   5.209   0.117   0.084  0.3899 -0.1817  0.8430
 6880TIP3    H242276   5.189   0.136  -0.065 -0.0734  2.0360  1.1571
 6881TIP3   OH242277   3.263   6.699   1.325  0.0144  0.3390  0.0348
 6881TIP3    H142278   3.258   6.790   1.352  2.6378  0.5016  0.2338
 6881TIP3    H242279   3.298   6.653   1.402  0.2477 -0.5395 -0.5765
 6882TIP3   OH242280   4.030   3.957   0.885  0.2125  0.3713  0.2287
 6882TIP3    H142281   4.089   3.997   0.948 -0.0071  0.4431  0.3909
 6882TIP3    H242282   3.954   3.931   0.937  0.5329 -0.6470  0.2000
 6883TIP3   OH242283   6.727   4.573   1.785  0.0037  0.5152 -0.0860
 6883TIP3    H142284   6.646   4.567   1.836 -1.4213  0.2890 -2.2340
 6883TIP3    H242285   6.773   4.491   1.803 -1.1902 -0.2263 -0.2837
 6884TIP3   OH242286   4.848   0.210   0.907  0.1265 -0.5613  0.1836
 6884TIP3    H142287   4.904   0.247   0.975 -0.9358  1.1560  0.1996
 6884TIP3    H242288   4.889   0.237   0.825 -0.2737  0.0622  0.1866
 6885TIP3   OH242289   5.015   2.438   7.346  0.2068  0.1356 -0.2141
 6885TIP3    H142290   5.053   2.364   7.392  0.8423 -0.3411 -1.4581
 6885TIP3    H242291   5.017   2.510   7.409  3.0529  0.1003 -0.1470
 6886TIP3   OH242292   0.380   4.225   2.731  0.0326 -0.2155 -0.2290
 6886TIP3    H142293   0.469   4.197   2.751 -0.3282 -1.1544  0.1173
 6886TIP3    H242294   0.376   4.316   2.760  0.3221 -0.7340  1.5451
 6887TIP3   OH242295   6.806   6.986   8.107  0.1119 -0.0621 -0.0254
 6887TIP3    H142296   6.863   7.051   8.065 -0.4234 -0.5511 -1.5811
 6887TIP3    H242297   6.747   6.958   8.037 -0.1652 -1.6669  0.8078
 6888TIP3   OH242298   3.384   6.060   0.170  0.0241  0.1286  0.4056
 6888TIP3    H142299   3.436   5.994   0.124  2.0189  2.0734 -0.2985
 6888TIP3    H242300   3.415   6.057   0.261 -0.9086 -0.8433  0.7038
 6889TIP3   OH242301   2.924   4.812   1.323  0.1732 -0.9289 -0.0809
 6889TIP3    H142302   2.835   4.791   1.297  0.1946 -0.8956 -0.1807
 6889TIP3    H242303   2.964   4.728   1.343 -0.6963 -0.8070  2.6483
 6890TIP3   OH242304   6.798   2.550   1.975 -0.0221  0.0055 -0.2016
 6890TIP3    H142305   6.748   2.492   1.917  0.9454  0.9255 -2.0234
 6890TIP3    H242306   6.796   2.635   1.932 -0.0269  0.9605  1.6022
 6891TIP3   OH242307   0.575   6.959   8.392 -0.1043  0.6315 -0.0340
 6891TIP3    H142308   0.589   7.041   8.344  0.5670  1.3039  1.2794
 6891TIP3    H242309   0.657   6.910   8.380  0.1621  0.9127  0.6431
 6892TIP3   OH242310   2.154   6.379   1.621 -0.1802 -0.4636 -0.0230
 6892TIP3    H142311   2.215   6.330   1.676  0.7378  1.5023  0.8442
 6892TIP3    H242312   2.195   6.465   1.612 -2.0975  0.4298 -0.7233
 6893TIP3   OH242313   4.757   0.725   1.959  0.3049 -0.6890  0.1179
 6893TIP3    H142314   4.748   0.799   2.019  4.3514 -0.6554  0.9702
 6893TIP3    H242315   4.818   0.756   1.892 -0.3166 -2.3138 -1.2629
 6894TIP3   OH242316   0.682   3.033   8.254  1.0427 -0.5325 -0.4229
 6894TIP3    H142317   0.771   3.002   8.267  1.2986  0.1785 -0.4162
 6894TIP3    H242318   0.627   2.958   8.273  1.7013 -1.4476 -1.9888
 6895TIP3   OH242319   2.306   3.637   6.976 -0.6222 -0.5003  0.3972
 6895TIP3    H142320   2.294   3.558   7.028 -1.2264 -0.6323  0.0665
 6895TIP3    H242321   2.400   3.654   6.979 -0.1359 -2.4577 -1.2994
 6896TIP3   OH242322   4.268   6.783   0.329  0.0772  0.2876  0.5224
 6896TIP3    H142323   4.333   6.815   0.267 -1.4726  0.3130 -1.1839
 6896TIP3    H242324   4.312   6.786   0.414  2.6266 -0.6436 -0.6563
 6897TIP3   OH242325   4.565   1.277   2.005 -0.0977 -0.9480 -0.1721
 6897TIP3    H142326   4.655   1.271   2.034 -0.2504 -0.1325  0.4833
 6897TIP3    H242327   4.565   1.345   1.938 -0.5378  0.4199  1.1652
 6898TIP3   OH242328   4.173   5.632   7.890 -0.1762  0.0311  0.3356
 6898TIP3    H142329   4.216   5.704   7.844 -0.6432 -0.5929 -1.1424
 6898TIP3    H242330   4.156   5.567   7.822 -0.4582 -1.1563  1.4940
 6899TIP3   OH242331   3.792   3.199   1.132  0.1655 -0.2252 -0.6716
 6899TIP3    H142332   3.757   3.120   1.175 -0.5412  0.1755 -0.4897
 6899TIP3    H242333   3.767   3.188   1.040 -0.1868 -0.0764 -0.5940
 6900TIP3   OH242334   3.160   2.470   1.152 -0.2709  0.2544  0.5496
 6900TIP3    H142335   3.179   2.505   1.065 -2.8571  0.2477 -0.1073
 6900TIP3    H242336   3.094   2.402   1.137 -0.3958 -0.1094  2.4727
 6901TIP3   OH242337   0.417   0.635   0.494 -0.7140  0.2957  0.6050
 6901TIP3    H142338   0.385   0.707   0.549  0.5565  1.5966 -0.2818
 6901TIP3    H242339   0.374   0.648   0.410  2.4096  2.5065 -0.8456
 6902TIP3   OH242340   4.152   4.526   2.914 -0.2617  0.1503 -0.2329
 6902TIP3    H142341   4.225   4.467   2.898  0.3176  0.2579  1.7810
 6902TIP3    H242342   4.182   4.583   2.984 -1.1285  2.3024 -1.5057
 6903TIP3   OH242343   3.478   0.416   8.267 -0.0332 -0.7498 -0.4817
 6903TIP3    H142344   3.484   0.373   8.352 -1.2442 -0.4547 -0.2321
 6903TIP3    H242345   3.426   0.356   8.214 -0.5909 -0.2262 -0.5396
 6904TIP3   OH242346   1.844   1.016   7.965  0.0061  0.3456 -0.1675
 6904TIP3    H142347   1.920   0.958   7.974 -1.3524 -1.4390  0.4510
 6904TIP3    H242348   1.826   1.046   8.054 -0.4892  0.0852 -0.1737
 6905TIP3   OH242349   2.244   5.598   1.404 -0.0401  0.0962  0.1274
 6905TIP3    H142350   2.183   5.558   1.467 -1.2175  0.9119 -0.4540
 6905TIP3    H242351   2.261   5.529   1.340  0.1479 -0.3308  0.6246
 6906TIP3   OH242352   1.529   6.687   1.731  0.0406  0.3277  0.0425
 6906TIP3    H142353   1.446   6.733   1.741  0.0571  0.1860  0.9274
 6906TIP3    H242354   1.549   6.692   1.638 -1.9687 -1.3960 -0.5591
 6907TIP3   OH242355   0.611   6.066   3.106  0.1566 -0.2538 -0.6224
 6907TIP3    H142356   0.530   6.024   3.078 -0.5935  1.1985 -0.7304
 6907TIP3    H242357   0.680   6.004   3.081 -0.9183 -1.5915 -0.3659
 6908TIP3   OH242358   0.953   1.551   0.224  0.2959  0.7140 -0.1992
 6908TIP3    H142359   1.002   1.469   0.229 -0.2116  0.3237 -1.2687
 6908TIP3    H242360   0.985   1.603   0.298  1.3661 -0.0360 -0.1129
 6909TIP3   OH242361   2.208   2.075   1.214 -0.7202 -0.0665  0.0926
 6909TIP3    H142362   2.266   2.005   1.243 -0.9059 -0.8734 -1.3639
 6909TIP3    H242363   2.171   2.111   1.294  1.9633  0.6536  1.1000
 6910TIP3   OH242364   3.641   6.341   1.018 -1.1449  0.2635  0.5754
 6910TIP3    H142365   3.700   6.400   1.064  2.4857 -2.5929  0.0714
 6910TIP3    H242366   3.592   6.297   1.088  1.1038 -0.8791  1.5424
 6911TIP3   OH242367   6.104   1.720   1.509  0.1100  0.4326 -0.6588
 6911TIP3    H142368   6.103   1.813   1.487  0.8147  0.2695 -1.4492
 6911TIP3    H242369   6.018   1.688   1.482  0.1001  0.7280 -0.9862
 6912TIP3   OH242370   6.176   0.384   1.665  0.1194  0.2070  0.2679
 6912TIP3    H142371   6.179   0.478   1.684  1.7806 -0.0985  1.8055
 6912TIP3    H242372   6.174   0.342   1.751 -0.7705 -1.1839 -0.4052
 6913TIP3   OH242373   4.979   4.599   0.801  0.6253  0.1068  0.2319
 6913TIP3    H142374   4.966   4.513   0.761 -1.2117 -0.7739  2.4970
 6913TIP3    H242375   4.908   4.652   0.765  1.2121  0.4370 -0.4656
 6914TIP3   OH242376   1.967   3.532   0.534 -0.1778  0.1268 -0.1374
 6914TIP3    H142377   1.931   3.620   0.539 -0.2383  0.0985 -0.0644
 6914TIP3    H242378   2.053   3.543   0.493  0.0360  0.2890  0.3400
 6915TIP3   OH242379   3.431   2.227   2.965 -0.3675  0.4721  0.5525
 6915TIP3    H142380   3.490   2.155   2.985 -0.4869  0.2757  0.2038
 6915TIP3    H242381   3.346   2.185   2.951 -0.2085  0.5521 -0.7612
 6916TIP3   OH242382   3.248   4.078   1.356 -0.2502  0.5045  0.2206
 6916TIP3    H142383   3.269   4.130   1.434 -1.2299 -0.8537  1.4312
 6916TIP3    H242384   3.252   3.987   1.386 -0.7053 -0.0461 -1.3171
 6917TIP3   OH242385   4.498   5.260   7.875  0.4488 -0.2803 -0.5510
 6917TIP3    H142386   4.560   5.302   7.814  0.7311  1.7296  1.0357
 6917TIP3    H242387   4.449   5.332   7.913 -1.5955 -1.7114 -0.3334
 6918TIP3   OH242388   1.119   6.716   7.454  0.3538  0.5410 -0.2793
 6918TIP3    H142389   1.077   6.679   7.377 -0.7202  2.4343 -0.6794
 6918TIP3    H242390   1.055   6.707   7.524  0.0339  1.6340 -0.4035
 6919TIP3   OH242391   1.829   5.431   2.017  0.7924  0.5852  0.5694
 6919TIP3    H142392   1.829   5.489   1.941  0.6487  0.9591  0.8526
 6919TIP3    H242393   1.917   5.441   2.055  1.4023 -0.7362 -0.3935
 6920TIP3   OH242394   0.928   6.589   8.264 -0.4255  0.6018 -0.5235
 6920TIP3    H142395   0.924   6.671   8.313 -0.4275  0.2414  0.0932
 6920TIP3    H242396   0.841   6.578   8.228 -0.8728  0.1319  0.6418
 6921TIP3   OH242397   2.505   1.788   0.352  0.1337 -0.5255 -0.0861
 6921TIP3    H142398   2.416   1.755   0.368 -0.0094  0.0267  0.3147
 6921TIP3    H242399   2.508   1.871   0.401  0.9082 -0.5991 -0.0026
 6922TIP3   OH242400   5.400   4.313   2.254 -0.1792  0.1434  0.2325
 6922TIP3    H142401   5.384   4.229   2.212  0.5420  0.0327  0.1603
 6922TIP3    H242402   5.314   4.341   2.285 -0.3658 -0.8060  0.6077
 6923TIP3   OH242403   3.512   3.757   2.447 -0.0530  0.3323 -0.4862
 6923TIP3    H142404   3.440   3.801   2.403 -0.2580  0.3709 -0.1125
 6923TIP3    H242405   3.543   3.819   2.513 -0.4154 -0.1149  0.1168
 6924TIP3   OH242406   2.626   6.068   1.525  0.2666  0.4398  0.0627
 6924TIP3    H142407   2.700   6.124   1.547 -1.2186  3.2391 -1.5476
 6924TIP3    H242408   2.648   6.030   1.440  0.0770  0.8577 -0.1736
 6925TIP3   OH242409   2.271   4.274   0.871  0.1919  0.2321  0.0456
 6925TIP3    H142410   2.341   4.220   0.907  0.5037 -0.0039 -0.9102
 6925TIP3    H242411   2.304   4.364   0.880  0.4191  0.1532  0.0075
 6926TIP3   OH242412   3.708   5.957   0.578 -0.6562  0.0419 -0.3952
 6926TIP3    H142413   3.618   5.981   0.555 -0.7867 -1.6341 -1.8030
 6926TIP3    H242414   3.715   5.865   0.554  1.5493  0.2324 -0.6545
 6927TIP3   OH242415   4.014   4.040   7.876 -0.0295 -0.5002 -0.2837
 6927TIP3    H142416   4.015   3.945   7.888 -2.6874 -0.4998  0.8170
 6927TIP3    H242417   3.930   4.058   7.833 -0.6868  1.4655  1.5960
 6928TIP3   OH242418   0.518   2.810   1.339 -0.0884  0.1641 -0.1631
 6928TIP3    H142419   0.550   2.858   1.415  0.8947 -0.0607 -0.4254
 6928TIP3    H242420   0.596   2.795   1.285 -0.0205 -3.1025  0.6472
 6929TIP3   OH242421   5.703   4.707   2.139 -0.1871 -0.2712  0.1288
 6929TIP3    H142422   5.780   4.709   2.195 -1.4150  0.9163  1.8908
 6929TIP3    H242423   5.694   4.615   2.114  2.7177 -0.2152 -1.5898
 6930TIP3   OH242424   2.219   0.929   0.979  0.6412  0.0790  1.0287
 6930TIP3    H142425   2.271   0.856   0.947  1.4598  1.5477 -1.2016
 6930TIP3    H242426   2.255   0.949   1.066  2.2889 -0.3744  0.4708
 6931TIP3   OH242427   5.275   6.316   1.584 -0.5582 -0.3416 -0.0464
 6931TIP3    H142428   5.334   6.241   1.587 -1.0715 -0.7986 -0.9995
 6931TIP3    H242429   5.190   6.278   1.559 -0.5856  0.6892 -1.6005
 6932TIP3   OH242430   1.386   4.352   0.913  0.1211  0.3871 -0.2153
 6932TIP3    H142431   1.294   4.336   0.892  0.0594 -0.9772  0.9096
 6932TIP3    H242432   1.430   4.357   0.828 -1.0315  1.4284 -0.7793
 6933TIP3   OH242433   6.417   2.621   1.814  0.0810  0.6371 -0.1205
 6933TIP3    H142434   6.499   2.595   1.772  0.3195  0.0068  0.7182
 6933TIP3    H242435   6.438   2.702   1.860  1.4241 -1.4834  3.4471
 6934TIP3   OH242436   6.148   4.062   2.208 -0.1756 -0.2101 -0.2619
 6934TIP3    H142437   6.216   4.054   2.276 -0.4604  3.6464  0.7323
 6934TIP3    H242438   6.197   4.063   2.126  0.4099 -2.4369 -0.0113
 6935TIP3   OH242439   0.922   0.679   8.209 -0.3662  0.1198  0.4960
 6935TIP3    H142440   0.893   0.660   8.298 -0.0944 -0.5289  0.4561
 6935TIP3    H242441   0.935   0.593   8.170 -3.0296  0.3045 -1.0385
 6936TIP3   OH242442   3.731   2.369   1.462 -0.4680 -0.0882 -0.3518
 6936TIP3    H142443   3.731   2.318   1.382 -1.7967 -0.1354 -0.3396
 6936TIP3    H242444   3.738   2.460   1.433  1.7118 -0.2223 -0.3808
 6937TIP3   OH242445   5.221   0.828   1.067 -0.1368 -0.6384  0.5557
 6937TIP3    H142446   5.202   0.911   1.024  0.4394 -0.3304  0.8710
 6937TIP3    H242447   5.222   0.763   0.997  1.7090 -0.0046 -0.0750
 6938TIP3   OH242448   2.633   4.049   2.230  0.2460  0.0949 -0.2144
 6938TIP3    H142449   2.727   4.063   2.238 -0.1043  3.1877 -0.0179
 6938TIP3    H242450   2.604   4.027   2.319  0.9044 -2.5509 -0.5780
 6939TIP3   OH242451   6.334   4.933   1.531 -0.2843  0.1749 -0.0043
 6939TIP3    H142452   6.359   4.967   1.617 -0.5180  0.3706 -0.0124
 6939TIP3    H242453   6.269   4.866   1.550  0.9991 -1.0846  0.0850
 6940TIP3   OH242454   4.841   1.285   0.676 -0.2014 -0.5441 -0.6758
 6940TIP3    H142455   4.777   1.230   0.720 -1.2081  0.6518 -0.5616
 6940TIP3    H242456   4.825   1.373   0.711  0.9980 -0.0874 -1.2162
 6941TIP3   OH242457   6.742   4.981   1.002 -0.6401  0.2978 -0.0314
 6941TIP3    H142458   6.809   5.008   1.065 -0.4787 -0.6976  0.2303
 6941TIP3    H242459   6.686   4.922   1.051 -0.2342 -0.8719 -0.9354
 6942TIP3   OH242460   6.439   5.014   7.495  0.6074 -0.2545 -0.6370
 6942TIP3    H142461   6.504   5.076   7.527  0.9197 -0.5710 -0.6475
 6942TIP3    H242462   6.386   5.064   7.433 -0.5082  0.5851  0.9321
 6943TIP3   OH242463   2.982   2.132   6.754 -0.2664  0.0816 -0.7732
 6943TIP3    H142464   2.987   2.135   6.659  2.4703  2.7633 -0.7098
 6943TIP3    H242465   3.000   2.222   6.782 -1.9656 -0.3950  2.2999
 6944TIP3   OH242466   1.033   1.564   7.480  0.3219 -0.0096 -0.2700
 6944TIP3    H142467   0.970   1.494   7.464  0.7219 -0.3670 -0.2992
 6944TIP3    H242468   1.031   1.578   7.574 -0.8614  0.9850 -0.4327
 6945TIP3   OH242469   2.657   0.921   0.967  0.3656  0.1669 -0.0022
 6945TIP3    H142470   2.607   0.914   1.048  1.1252  0.2224  0.4866
 6945TIP3    H242471   2.603   0.877   0.901 -0.6900  0.9415  0.3285
 6946TIP3   OH242472   6.129   4.968   0.866  0.1766 -0.5145  0.0944
 6946TIP3    H142473   6.157   4.876   0.874  0.8201 -0.5133 -1.7957
 6946TIP3    H242474   6.114   4.996   0.957  1.2851 -2.0779  0.8090
 6947TIP3   OH242475   2.657   5.863   7.340 -0.3967  0.0938 -0.1615
 6947TIP3    H142476   2.709   5.908   7.406 -0.6119  0.6727 -0.3861
 6947TIP3    H242477   2.716   5.795   7.306 -0.3158 -0.2662  0.6778
 6948TIP3   OH242478   6.587   0.296   1.994 -0.0028 -0.1910  0.1958
 6948TIP3    H142479   6.539   0.301   1.911 -0.2006 -1.3851  0.2229
 6948TIP3    H242480   6.518   0.285   2.060  0.1580  0.6921  0.5182
 6949TIP3   OH242481   4.074   6.114   0.064 -0.1112 -0.2614  0.2622
 6949TIP3    H142482   4.014   6.080   0.130 -1.9348  1.3708 -0.4335
 6949TIP3    H242483   4.118   6.187   0.107 -1.9103  1.3414 -0.4598
 6950TIP3   OH242484   2.636   5.167   0.918  0.0061 -0.0306 -0.1659
 6950TIP3    H142485   2.643   5.165   0.822  0.9672 -1.0813 -0.0922
 6950TIP3    H242486   2.583   5.091   0.940 -2.7075  1.7525  0.0158
 6951TIP3   OH242487   0.545   4.333   0.972 -0.0061  0.0826  0.2036
 6951TIP3    H142488   0.505   4.333   0.885  0.3620 -0.0744  0.0295
 6951TIP3    H242489   0.493   4.269   1.022 -0.1203  0.0550  0.0516
 6952TIP3   OH242490   1.563   3.938   1.996 -0.1114 -0.2952  0.0809
 6952TIP3    H142491   1.650   3.906   1.969 -0.1088  0.3186 -0.6510
 6952TIP3    H242492   1.551   3.901   2.084  1.3102  0.4009  0.5977
 6953TIP3   OH242493   0.559   5.780   1.753  0.4562  0.4083  0.6078
 6953TIP3    H142494   0.611   5.812   1.679  0.2612  0.3989  0.4683
 6953TIP3    H242495   0.612   5.709   1.789  0.6685  0.5742  0.6307
 6954TIP3   OH242496   6.019   2.715   1.216  0.0753  0.3711 -0.3114
 6954TIP3    H142497   6.026   2.724   1.311 -1.4302  0.4180 -0.1862
 6954TIP3    H242498   5.964   2.637   1.204  0.8576 -0.0623 -1.1672
 6955TIP3   OH242499   6.043   3.592   2.213  0.0405  0.3422  0.6537
 6955TIP3    H142500   6.100   3.601   2.137 -2.2990  1.2110 -1.1299
 6955TIP3    H242501   6.095   3.543   2.277  2.3051  0.0808 -1.2661
 6956TIP3   OH242502   1.712   2.742   7.262  0.1043 -0.1649  0.2693
 6956TIP3    H142503   1.671   2.657   7.250  1.6448 -1.1855  1.7852
 6956TIP3    H242504   1.760   2.735   7.345 -0.5289  2.5196  0.9720
 6957TIP3   OH242505   4.649   0.757   0.868 -0.8131 -0.2871 -0.0183
 6957TIP3    H142506   4.664   0.691   0.936 -2.1001 -2.4036 -1.6405
 6957TIP3    H242507   4.575   0.808   0.900 -2.0983 -1.9359 -0.1847
 6958TIP3   OH242508   3.383   3.803   1.451  0.0609  1.2496  0.2801
 6958TIP3    H142509   3.374   3.751   1.371 -0.6942  0.7953  0.6432
 6958TIP3    H242510   3.461   3.857   1.437  1.1483 -0.3032  0.0602
 6959TIP3   OH242511   4.974   6.713   6.484 -0.1024 -0.4638 -0.0270
 6959TIP3    H142512   4.978   6.626   6.443  0.5586 -0.6275  0.3584
 6959TIP3    H242513   4.967   6.694   6.578 -0.4836 -0.0972  0.0187
 6960TIP3   OH242514   5.141   0.881   2.147  0.3407 -0.1758  0.3968
 6960TIP3    H142515   5.058   0.857   2.188  0.6167  1.3479  1.9890
 6960TIP3    H242516   5.125   0.969   2.112  1.1956  0.0129  0.4643
 6961TIP3   OH242517   2.051   0.888   7.715  0.2755  0.2180 -0.1002
 6961TIP3    H142518   2.005   0.821   7.765 -0.0849  0.8326  0.3971
 6961TIP3    H242519   2.050   0.854   7.625 -1.9630  0.6126 -0.2955
 6962TIP3   OH242520   0.569   5.451   1.650 -0.5538  0.1007  0.7001
 6962TIP3    H142521   0.480   5.480   1.669 -0.2389  0.4742  1.6606
 6962TIP3    H242522   0.593   5.498   1.570 -1.1365  0.1499  0.5496
 6963TIP3   OH242523   4.406   6.478   1.590  0.4998 -0.6104 -0.0719
 6963TIP3    H142524   4.338   6.516   1.534 -0.3867 -0.4578  1.0594
 6963TIP3    H242525   4.471   6.443   1.529 -0.6139 -0.8026 -1.1924
 6964TIP3   OH242526   1.718   4.955   2.046  0.2166  0.1307  0.0073
 6964TIP3    H142527   1.771   4.951   2.126  0.7970  0.9301 -0.3181
 6964TIP3    H242528   1.627   4.952   2.077  0.4262 -1.8174  0.5400
 6965TIP3   OH242529   0.162   3.295   8.080  0.2547  0.1508 -0.4119
 6965TIP3    H142530   0.216   3.216   8.075 -0.4632 -0.5012  1.4367
 6965TIP3    H242531   0.129   3.307   7.991  1.2566 -0.9981 -0.9576
 6966TIP3   OH242532   0.537   5.736   0.676  0.1483 -0.2070  0.6865
 6966TIP3    H142533   0.558   5.644   0.691  0.7830 -0.5325 -1.7343
 6966TIP3    H242534   0.505   5.738   0.585  0.8674  2.0562  0.4320
 6967TIP3   OH242535   0.638   5.558   2.703  0.1899 -0.3682  0.0285
 6967TIP3    H142536   0.666   5.608   2.780 -0.1318  0.6257 -0.4843
 6967TIP3    H242537   0.669   5.469   2.720  0.9410  0.0378  0.8744
 6968TIP3   OH242538   0.269   4.899   0.053 -0.2272  0.0504  0.4717
 6968TIP3    H142539   0.196   4.860   0.101  0.6087  0.6967  2.3641
 6968TIP3    H242540   0.330   4.826   0.038 -0.7749 -0.2824 -0.2283
 6969TIP3   OH242541   1.707   3.640   7.440  0.4659 -0.7555  0.2447
 6969TIP3    H142542   1.797   3.650   7.469  0.8575 -2.0705 -0.4269
 6969TIP3    H242543   1.713   3.589   7.359 -0.6248  2.0659 -1.8008
 6970TIP3   OH242544   1.187   0.897   1.490 -0.1064  0.6469  0.5291
 6970TIP3    H142545   1.204   0.947   1.569  0.8454  1.0357  0.0904
 6970TIP3    H242546   1.206   0.806   1.513 -0.7909  0.6194  1.0170
 6971TIP3   OH242547   6.259   0.533   2.140  1.1099 -0.1314 -0.4778
 6971TIP3    H142548   6.231   0.624   2.146 -1.6081 -0.8364 -1.3069
 6971TIP3    H242549   6.354   0.538   2.127  1.1882  2.5098  0.5933
 6972TIP3   OH242550   3.137   4.058   3.024  0.1073 -0.0901 -0.0125
 6972TIP3    H142551   3.200   4.112   3.072  0.7751 -0.4558 -0.4627
 6972TIP3    H242552   3.055   4.108   3.027  0.9444  1.4379 -1.2718
 6973TIP3   OH242553   3.903   4.231   0.019  0.2696  0.1622  0.6748
 6973TIP3    H142554   3.891   4.325   0.007  1.0069  0.1966  0.1182
 6973TIP3    H242555   3.995   4.221   0.040  0.5268 -0.5349 -0.6424
 6974TIP3   OH242556   0.405   2.598   1.472 -0.2174  0.6087 -0.1921
 6974TIP3    H142557   0.468   2.644   1.417  2.5806 -1.8255  0.6979
 6974TIP3    H242558   0.361   2.667   1.522  1.8038  2.4705 -0.8447
 6975TIP3   OH242559   3.003   1.003   7.949 -0.3098  0.6495  0.0035
 6975TIP3    H142560   2.941   1.038   8.014  0.9953  0.5349  1.3641
 6975TIP3    H242561   2.948   0.954   7.888 -1.6877  1.5002  0.4996
 6976TIP3   OH242562   3.898   2.674   2.546 -0.3112  0.6226 -0.3534
 6976TIP3    H142563   3.827   2.644   2.602  0.3004 -0.2372 -0.0385
 6976TIP3    H242564   3.893   2.770   2.551 -2.7828  0.6763 -2.0048
 6977TIP3   OH242565   0.551   5.280   0.546 -0.3453  0.0446  0.1243
 6977TIP3    H142566   0.511   5.226   0.615  0.2825  1.7624  1.9163
 6977TIP3    H242567   0.479   5.297   0.485 -0.9095 -1.5620  0.2715
 6978TIP3   OH242568   5.177   0.573   8.276 -0.0553  0.0832 -0.2605
 6978TIP3    H142569   5.251   0.586   8.217 -1.7141  2.5166 -2.0155
 6978TIP3    H242570   5.180   0.648   8.335 -0.7543 -0.1508  0.0815
 6979TIP3   OH242571   1.357   0.836   0.079  0.0531 -0.1845  0.0513
 6979TIP3    H142572   1.387   0.778   0.149  1.2887  3.1827  2.6178
 6979TIP3    H242573   1.429   0.837   0.016  0.5325 -0.5267  0.5762
 6980TIP3   OH242574   0.352   0.543   7.213 -0.1797 -0.1634 -0.5470
 6980TIP3    H142575   0.287   0.474   7.199  0.2908 -0.4748 -1.2323
 6980TIP3    H242576   0.300   0.619   7.241 -0.5831 -1.1459  1.5464
 6981TIP3   OH242577   3.811   1.350   0.131  0.2494 -0.8742 -0.2221
 6981TIP3    H142578   3.776   1.286   0.070 -1.3988 -1.2550  1.0512
 6981TIP3    H242579   3.861   1.298   0.194  1.7562 -0.5059 -1.0494
 6982TIP3   OH242580   3.749   4.026   7.193 -0.2746  0.7255  0.0636
 6982TIP3    H142581   3.772   3.940   7.157 -0.7464  0.5826  0.0922
 6982TIP3    H242582   3.764   4.087   7.120 -2.5944  0.2584 -0.9012
 6983TIP3   OH242583   3.791   1.134   2.385 -0.0758  0.2659  0.2301
 6983TIP3    H142584   3.725   1.132   2.454 -0.3423  1.4867  0.0304
 6983TIP3    H242585   3.772   1.214   2.336  0.1179 -0.5670 -1.2589
 6984TIP3   OH242586   4.728   6.310   7.909  0.1794 -0.2568 -0.2533
 6984TIP3    H142587   4.783   6.293   7.985  2.2535  0.5048 -1.4889
 6984TIP3    H242588   4.682   6.391   7.929 -0.1419 -0.6424  0.6066
 6985TIP3   OH242589   0.090   5.789   2.332  0.0867  0.5711 -0.1212
 6985TIP3    H142590   0.149   5.855   2.296  0.4499 -0.2547 -1.0920
 6985TIP3    H242591   0.104   5.794   2.426  0.8453  1.1904 -0.2516
 6986TIP3   OH242592   0.311   3.656   1.517  0.6049 -0.6736 -0.3627
 6986TIP3    H142593   0.354   3.698   1.442  0.4947  0.4419  0.1764
 6986TIP3    H242594   0.383   3.634   1.577  0.4751  1.6654  0.7765
 6987TIP3   OH242595   2.728   2.353   7.950 -0.1912  0.4708 -0.0796
 6987TIP3    H142596   2.761   2.381   8.036  1.9716  0.3361 -0.8151
 6987TIP3    H242597   2.805   2.353   7.893 -1.1059 -1.7938 -1.4492
 6988TIP3   OH242598   0.713   2.707   2.874  0.8538  0.2079 -0.5067
 6988TIP3    H142599   0.783   2.744   2.820  1.8621 -1.0849 -0.1223
 6988TIP3    H242600   0.653   2.781   2.889  1.5114  1.0501 -1.8112
 6989TIP3   OH242601   1.921   0.329   1.428  0.4074  0.1438 -0.5595
 6989TIP3    H142602   1.894   0.415   1.397  0.5402 -0.2522 -1.8615
 6989TIP3    H242603   1.851   0.270   1.397  1.3690 -0.5039 -1.5747
 6990TIP3   OH242604   2.815   5.141   6.674  1.0138 -0.5172  0.0777
 6990TIP3    H142605   2.891   5.198   6.663  0.7710 -0.0360  0.8067
 6990TIP3    H242606   2.761   5.186   6.739 -1.1014  0.3883 -2.1828
 6991TIP3   OH242607   3.485   3.562   2.728  0.2756 -0.5200 -0.5654
 6991TIP3    H142608   3.469   3.470   2.750  2.0532 -0.7320  0.0031
 6991TIP3    H242609   3.537   3.595   2.801 -0.4963  1.0158 -0.6690
 6992TIP3   OH242610   2.462   3.920   0.840  0.3710  0.8346  0.8239
 6992TIP3    H142611   2.389   3.926   0.779 -0.8565 -0.6668  2.0321
 6992TIP3    H242612   2.465   4.006   0.883 -0.0686  1.2254  0.0834
 6993TIP3   OH242613   4.004   2.708   2.048 -0.1046 -0.3063  0.0519
 6993TIP3    H142614   3.946   2.654   2.101 -0.7999 -0.6334 -1.0106
 6993TIP3    H242615   4.067   2.647   2.010  0.3245 -0.0918  0.4121
 6994TIP3   OH242616   3.447   1.274   2.853  0.7470 -1.1106 -0.7052
 6994TIP3    H142617   3.416   1.362   2.830 -0.3778 -1.3559 -0.1858
 6994TIP3    H242618   3.532   1.290   2.895 -1.5194  0.3417  4.0709
 6995TIP3   OH242619   3.524   6.944   8.183 -0.1053  0.5562 -0.4147
 6995TIP3    H142620   3.615   6.970   8.170  0.1610  0.2429  0.7439
 6995TIP3    H242621   3.520   6.914   8.273 -1.3996  0.6925 -0.4101
 6996TIP3   OH242622   4.767   4.344   7.613 -0.0599  0.2121  0.1104
 6996TIP3    H142623   4.720   4.263   7.591 -0.3232  0.1314  0.9166
 6996TIP3    H242624   4.859   4.317   7.618  0.2330  0.5461 -2.3161
 6997TIP3   OH242625   4.216   5.847   0.276  0.0698 -0.2200 -0.1860
 6997TIP3    H142626   4.122   5.861   0.277  0.0611 -0.0372  2.6802
 6997TIP3    H242627   4.226   5.755   0.249 -0.7372  0.2665 -2.4059
 6998TIP3   OH242628   3.429   1.266   2.122  0.2724 -0.0430  0.3621
 6998TIP3    H142629   3.341   1.236   2.099 -0.3450  1.3982  0.7177
 6998TIP3    H242630   3.414   1.350   2.166  1.8121  0.0716  0.6985
 6999TIP3   OH242631   1.411   3.432   7.327  0.0080  0.1723  0.5809
 6999TIP3    H142632   1.505   3.450   7.328  0.2525 -1.0583  1.1285
 6999TIP3    H242633   1.405   3.340   7.304 -0.9446 -0.4004  2.8992
 7000TIP3   OH242634   6.777   0.640   7.794  0.3499  0.3273 -0.5183
 7000TIP3    H142635   6.825   0.557   7.785  0.0698 -0.0137  0.8237
 7000TIP3    H242636   6.845   0.707   7.794  0.5814  0.1055 -1.6040
 7001TIP3   OH242637   4.828   6.346   8.166 -0.0345  0.4339 -0.0288
 7001TIP3    H142638   4.747   6.359   8.215 -0.0903  0.3207 -0.0916
 7001TIP3    H242639   4.878   6.283   8.218 -0.5231 -0.4610 -0.6219
 7002TIP3   OH242640   0.046   5.924   6.962  0.3182  0.2754 -0.2231
 7002TIP3    H142641  -0.003   5.843   6.978 -2.6784  2.2349  1.5133
 7002TIP3    H242642   0.004   5.964   6.886 -1.4888  2.3316  1.7152
 7003TIP3   OH242643   5.062   6.003   1.270  0.0877  0.2132  0.5301
 7003TIP3    H142644   4.992   6.060   1.238 -0.1460 -0.6662 -0.5851
 7003TIP3    H242645   5.064   5.930   1.208  0.4347 -0.9563  1.8640
 7004TIP3   OH242646   1.175   0.096   0.894 -0.2379  0.4756 -0.1046
 7004TIP3    H142647   1.203   0.143   0.816  0.2791  1.4170  0.6199
 7004TIP3    H242648   1.088   0.131   0.913 -1.0556 -0.9095 -1.1434
 7005TIP3   OH242649   3.117   3.240   1.961  0.1558 -0.8560 -0.0502
 7005TIP3    H142650   3.110   3.190   1.880 -0.2108  0.1425 -0.6484
 7005TIP3    H242651   3.083   3.181   2.029  1.1595 -1.9723 -0.4872
 7006TIP3   OH242652   4.174   0.674   0.650 -0.1251 -0.2212 -0.5245
 7006TIP3    H142653   4.083   0.703   0.645 -1.3030 -3.1052  1.3294
 7006TIP3    H242654   4.208   0.716   0.729 -0.5502 -0.7795 -0.0368
 7007TIP3   OH242655   2.116   2.322   1.697 -0.2779  0.2351 -0.4938
 7007TIP3    H142656   2.148   2.258   1.632 -1.6298  0.7439 -1.7170
 7007TIP3    H242657   2.082   2.268   1.769  2.2828 -0.3319  0.4037
 7008TIP3   OH242658   0.725   1.293   0.823  0.1041 -0.0238 -0.5167
 7008TIP3    H142659   0.677   1.212   0.841  0.9188 -0.2193  1.0007
 7008TIP3    H242660   0.817   1.269   0.833  0.3232  1.4049  1.6903
 7009TIP3   OH242661   6.938   6.216   1.086  0.4422 -0.1325  0.1104
 7009TIP3    H142662   6.953   6.215   0.991  1.0319  1.6297  0.1335
 7009TIP3    H242663   6.857   6.266   1.096 -0.1893 -1.2193  0.4993
 7010TIP3   OH242664   4.854   2.112   2.171  0.1622  0.3785 -0.3948
 7010TIP3    H142665   4.842   2.086   2.262  0.8180  1.5927  0.0700
 7010TIP3    H242666   4.889   2.034   2.128 -0.5529 -0.3344  0.2865
 7011TIP3   OH242667   5.811   3.028   7.609  0.2686  0.6760 -0.1917
 7011TIP3    H142668   5.815   2.961   7.678 -0.3937  0.6228 -0.2024
 7011TIP3    H242669   5.892   3.015   7.559 -0.2122 -0.6381 -0.6749
 7012TIP3   OH242670   3.328   1.684   0.619 -0.2383 -0.2089  0.4359
 7012TIP3    H142671   3.306   1.775   0.639  2.0612  1.0349 -2.0412
 7012TIP3    H242672   3.266   1.658   0.551 -1.1688 -0.7170  1.4375
 7013TIP3   OH242673   6.766   2.252   8.406 -0.8635 -0.1153 -0.4578
 7013TIP3    H142674   6.676   2.235   8.434 -1.0541 -0.7703 -1.4162
 7013TIP3    H242675   6.810   2.168   8.413  0.4147  0.6739  2.4193
 7014TIP3   OH242676   6.713   1.116   8.298 -0.0542 -1.2115  0.5260
 7014TIP3    H142677   6.786   1.178   8.299 -0.2854 -0.9249  0.1519
 7014TIP3    H242678   6.636   1.171   8.283 -0.5915 -1.2860  2.7602
 7015TIP3   OH242679   6.428   5.608   0.892 -0.5362  0.4273  0.2271
 7015TIP3    H142680   6.379   5.542   0.843  2.1998  0.4562 -2.8853
 7015TIP3    H242681   6.415   5.689   0.843 -0.3053  1.2426  1.4759
 7016TIP3   OH242682   2.000   5.976   2.061  0.3771  0.0453 -0.0153
 7016TIP3    H142683   2.028   5.885   2.059 -1.9106 -0.7886  1.5434
 7016TIP3    H242684   2.024   6.007   2.149  0.6100  0.7940 -0.3267
 7017TIP3   OH242685   6.607   1.836   3.080 -0.0613 -0.4084  0.3470
 7017TIP3    H142686   6.695   1.802   3.064  0.1017  0.3668 -0.5113
 7017TIP3    H242687   6.611   1.927   3.051  0.0741  1.0592  4.2894
 7018TIP3   OH242688   6.085   4.423   0.571  0.1944  0.2869 -0.4401
 7018TIP3    H142689   6.159   4.413   0.511  2.7594  2.7435  2.0048
 7018TIP3    H242690   6.008   4.407   0.517  2.2987  1.5799 -4.1929
 7019TIP3   OH242691   2.784   3.097   7.822  0.0812  0.5458  0.8096
 7019TIP3    H142692   2.722   3.164   7.791  0.5816  1.2230  1.2262
 7019TIP3    H242693   2.782   3.105   7.917 -0.0382 -0.2207  0.8785
 7020TIP3   OH242694   4.023   1.823   2.411  0.3287  0.3649 -0.0652
 7020TIP3    H142695   4.033   1.892   2.476 -0.9061 -1.2103  1.9267
 7020TIP3    H242696   4.111   1.787   2.401  0.2174 -0.8865  2.6108
 7021TIP3   OH242697   2.960   3.189   1.372  0.6001 -0.2867 -0.5953
 7021TIP3    H142698   2.915   3.178   1.456  2.3567 -0.6386  0.3436
 7021TIP3    H242699   2.901   3.245   1.321 -0.3591  0.2382  0.9972
 7022TIP3   OH242700   4.057   4.801   1.058  0.0162  0.3130  0.3868
 7022TIP3    H142701   4.042   4.777   1.149  1.8917 -0.2817  0.5750
 7022TIP3    H242702   4.078   4.895   1.061 -3.8455  1.3748  0.0358
 7023TIP3   OH242703   4.237   2.007   8.090 -0.2826 -0.0744  0.3419
 7023TIP3    H142704   4.330   2.002   8.112 -0.1237 -0.6065 -0.4066
 7023TIP3    H242705   4.227   1.950   8.013 -0.4905  2.8431 -1.9794
 7024TIP3   OH242706   2.230   2.956   2.512  0.3448  0.7586 -0.3350
 7024TIP3    H142707   2.159   3.018   2.530  0.0013  0.0524  0.8520
 7024TIP3    H242708   2.194   2.871   2.535  0.8188  0.0877 -1.9143
 7025TIP3   OH242709   6.216   1.026   7.552 -0.3682  0.3564 -0.9049
 7025TIP3    H142710   6.126   0.997   7.536  0.0449 -0.8290 -1.1623
 7025TIP3    H242711   6.271   0.957   7.516  0.6573  0.9730 -0.5827
 7026TIP3   OH242712   3.498   3.485   7.975 -0.0157  0.1239  0.2261
 7026TIP3    H142713   3.421   3.497   8.031 -0.0748  0.3078  0.1087
 7026TIP3    H242714   3.552   3.563   7.991  0.5286 -0.3773  0.8978
 7027TIP3   OH242715   3.068   5.609   1.606  0.3760  0.1736  0.1676
 7027TIP3    H142716   2.979   5.598   1.572  0.1856 -0.4184  0.8198
 7027TIP3    H242717   3.123   5.562   1.543  0.1960  0.3311 -0.1074
 7028TIP3   OH242718   0.185   4.001   8.257 -0.3509 -0.0245  0.2822
 7028TIP3    H142719   0.119   3.944   8.218  0.1050 -0.3748  0.0093
 7028TIP3    H242720   0.239   4.030   8.183 -0.5795  0.7674  0.4157
 7029TIP3   OH242721   2.878   5.125   8.288  0.0547  0.4163 -0.2277
 7029TIP3    H142722   2.896   5.056   8.224  1.6469 -1.4313  2.0496
 7029TIP3    H242723   2.939   5.195   8.267  1.7692 -0.8878  0.2245
 7030TIP3   OH242724   1.151   3.504   0.288 -0.6687  0.2577 -0.1131
 7030TIP3    H142725   1.110   3.452   0.356 -1.6194  0.8500 -0.2049
 7030TIP3    H242726   1.244   3.502   0.308 -0.9477  0.5181  1.2711
 7031TIP3   OH242727   0.856   1.153   1.593  0.5578  0.2572  0.1444
 7031TIP3    H142728   0.765   1.142   1.567  0.9851  1.0372 -1.8444
 7031TIP3    H242729   0.852   1.174   1.686 -1.1939 -0.8920  0.3743
 7032TIP3   OH242730   1.576   4.394   1.912 -0.1133 -0.4424  0.3336
 7032TIP3    H142731   1.487   4.409   1.878  0.0416 -0.9325 -0.3124
 7032TIP3    H242732   1.600   4.307   1.878  0.4645 -0.4829  0.8289
 7033TIP3   OH242733   6.524   1.673   0.387 -0.1023  0.3617  0.4215
 7033TIP3    H142734   6.580   1.728   0.442 -1.2971  0.7380  1.2981
 7033TIP3    H242735   6.501   1.728   0.312  0.0448  0.4821  0.4661
 7034TIP3   OH242736   1.069   1.895   2.925  0.5543 -0.3204  0.3673
 7034TIP3    H142737   1.109   1.950   2.858 -0.3350  0.8006  0.7185
 7034TIP3    H242738   0.982   1.933   2.938  0.8741 -0.1960  2.4939
 7035TIP3   OH242739   2.965   5.869   0.760  0.4256 -0.2812 -0.4175
 7035TIP3    H142740   2.881   5.825   0.773 -0.1972  0.8497 -0.5027
 7035TIP3    H242741   3.016   5.846   0.838  0.1078 -1.1195 -0.4506
 7036TIP3   OH242742   3.205   2.739   2.311  0.1937  0.1205  0.0205
 7036TIP3    H142743   3.228   2.812   2.368  0.9985 -0.1607  0.0688
 7036TIP3    H242744   3.236   2.766   2.224 -0.2963  0.2057 -0.1282
 7037TIP3   OH242745   6.371   3.209   0.029 -0.4370  0.7814 -0.0467
 7037TIP3    H142746   6.299   3.184   0.087  0.1580  0.0984  0.4347
 7037TIP3    H242747   6.330   3.232  -0.054 -1.1949  0.2977  0.1903
 7038TIP3   OH242748   0.242   2.371   2.119  0.0185  0.0915  0.0453
 7038TIP3    H142749   0.171   2.430   2.094 -0.2187  0.1553  0.8357
 7038TIP3    H242750   0.321   2.411   2.082 -0.5501 -1.0202 -2.6100
 7039TIP3   OH242751   1.134   2.881   7.016  0.0576  0.7536  0.9096
 7039TIP3    H142752   1.043   2.898   7.041  0.0122  1.0805  0.5240
 7039TIP3    H242753   1.155   2.949   6.952 -0.1023 -0.5557 -0.6101
 7040TIP3   OH242754   5.955   5.480   1.027 -0.3911 -0.0219 -0.6994
 7040TIP3    H142755   5.925   5.389   1.025 -0.3316 -0.1058  0.9845
 7040TIP3    H242756   6.049   5.473   1.043 -0.2496  0.3291 -1.3626
 7041TIP3   OH242757   6.547   4.388   1.878  0.0942  0.6306 -0.5128
 7041TIP3    H142758   6.584   4.306   1.911  0.8784  1.6377  1.2679
 7041TIP3    H242759   6.560   4.450   1.949 -1.4249  2.0580 -1.4142
 7042TIP3   OH242760   6.590   4.806   1.156  0.3473  0.1704 -0.1099
 7042TIP3    H142761   6.521   4.859   1.195  0.2566 -0.3347  0.4314
 7042TIP3    H242762   6.549   4.721   1.140  0.9887 -0.3306  0.7891
 7043TIP3   OH242763   6.378   3.491   6.808 -0.0661 -0.0044 -0.2680
 7043TIP3    H142764   6.382   3.422   6.742  1.8564 -0.9448  0.7606
 7043TIP3    H242765   6.319   3.456   6.875 -0.7856  0.2811 -0.7475
 7044TIP3   OH242766   6.305   0.480   7.691  0.2576  0.2744  0.2600
 7044TIP3    H142767   6.264   0.521   7.767  1.0649  0.8589  0.3851
 7044TIP3    H242768   6.233   0.434   7.647  0.0373 -1.3626  2.1800
 7045TIP3   OH242769   0.086   5.988   0.361  0.6416  0.7211  0.4860
 7045TIP3    H142770   0.153   5.934   0.318 -0.0113 -0.2386  0.6308
 7045TIP3    H242771   0.005   5.937   0.351 -0.2074  2.1684 -0.2551
 7046TIP3   OH242772   0.677   5.904   7.072  0.0775 -0.3142  0.0647
 7046TIP3    H142773   0.733   5.949   7.008 -0.8282  1.5157  0.5001
 7046TIP3    H242774   0.659   5.819   7.032  1.3767 -0.1012 -1.0653
 7047TIP3   OH242775   1.334   4.401   8.219  0.0598  0.2061  0.2663
 7047TIP3    H142776   1.256   4.433   8.263  0.4296  0.7340  0.5500
 7047TIP3    H242777   1.334   4.445   8.135  1.0388  1.6836  1.0008
 7048TIP3   OH242778   1.807   6.712   1.733  0.0621 -0.1629 -0.0242
 7048TIP3    H142779   1.715   6.687   1.742 -0.5449  1.0360 -2.0474
 7048TIP3    H242780   1.854   6.630   1.718 -0.8914 -0.6728 -0.2568
 7049TIP3   OH242781   2.476   4.057   1.466  0.4512  0.0848 -0.4629
 7049TIP3    H142782   2.465   3.970   1.504  0.0521  0.1394 -0.4461
 7049TIP3    H242783   2.537   4.101   1.525 -1.0763  0.5700  0.8148
 7050TIP3   OH242784   0.508   0.377   7.923  0.3572  0.5766  0.4054
 7050TIP3    H142785   0.465   0.369   7.837 -1.1918  0.3846  1.1585
 7050TIP3    H242786   0.570   0.305   7.926  0.1335  0.3448 -0.4020
 7051TIP3   OH242787   3.550   3.585   1.798 -0.0564  0.8800  0.0093
 7051TIP3    H142788   3.524   3.536   1.876  3.9020 -2.1733 -0.2947
 7051TIP3    H242789   3.612   3.651   1.830  0.7892  0.3006 -0.4047
 7052TIP3   OH242790   0.965   6.696   7.672  0.7286  0.3281 -0.2944
 7052TIP3    H142791   0.869   6.703   7.663  0.7858  1.2343 -0.2501
 7052TIP3    H242792   0.979   6.670   7.763  0.5477  0.7999 -0.1302
 7053TIP3   OH242793   3.924   5.921   1.257  0.3149 -0.1238 -0.2130
 7053TIP3    H142794   4.003   5.949   1.303  0.1098 -0.1449  0.1535
 7053TIP3    H242795   3.876   5.870   1.322 -0.7685  1.2106  0.0663
 7054TIP3   OH242796   1.443   3.109   2.570  0.5783 -0.7447  0.0578
 7054TIP3    H142797   1.538   3.103   2.565  0.4333 -2.4578 -1.5371
 7054TIP3    H242798   1.418   3.160   2.492  0.1490 -0.8746  0.1080
 7055TIP3   OH242799   0.654   5.918   0.271 -0.1532  0.5772  0.4207
 7055TIP3    H142800   0.749   5.914   0.280 -0.0716  1.1653 -0.0912
 7055TIP3    H242801   0.633   6.011   0.280 -0.4206  0.7769 -1.8089
 7056TIP3   OH242802   0.753   1.652   7.741  0.1175  0.0517  0.3359
 7056TIP3    H142803   0.846   1.636   7.760 -0.0440  0.5601  1.7316
 7056TIP3    H242804   0.708   1.578   7.781 -0.0836 -0.1637 -0.2918
 7057TIP3   OH242805   6.168   5.641   7.717  0.0762 -0.3001  0.1461
 7057TIP3    H142806   6.128   5.572   7.664  0.1133 -1.3391  1.3960
 7057TIP3    H242807   6.105   5.657   7.787  0.4551  0.3228  0.3538
 7058TIP3   OH242808   5.928   6.091   2.298  0.6381 -0.4859  0.3288
 7058TIP3    H142809   5.882   6.023   2.347 -2.2453 -1.0503 -2.7854
 7058TIP3    H242810   5.885   6.173   2.325  0.4389 -0.5437  0.1844
 7059TIP3   OH242811   1.735   4.757   1.078 -0.4097  0.1264  0.1995
 7059TIP3    H142812   1.676   4.828   1.054 -0.6241 -0.3125 -0.6045
 7059TIP3    H242813   1.680   4.696   1.128 -0.0738  0.8156  1.4522
 7060TIP3   OH242814   1.127   2.412   1.940  0.1867  0.1311 -0.5059
 7060TIP3    H142815   1.105   2.427   2.032 -0.6481  0.0111 -0.6790
 7060TIP3    H242816   1.073   2.337   1.914  1.0389 -0.3745 -0.8647
 7061TIP3   OH242817   5.585   2.814   0.178 -0.0822 -0.2410 -0.4743
 7061TIP3    H142818   5.498   2.800   0.215  0.8555 -1.8604  1.2879
 7061TIP3    H242819   5.573   2.885   0.115 -2.5146  0.0923  0.2610
 7062TIP3   OH242820   3.396   5.155   0.050 -0.4822  0.4701 -0.3905
 7062TIP3    H142821   3.450   5.147   0.129  1.7923  0.7246 -1.8562
 7062TIP3    H242822   3.409   5.246   0.021  1.1458 -0.4094 -2.6736
 7063TIP3   OH242823   1.228   6.977   1.544  0.1900 -0.7668  0.0931
 7063TIP3    H142824   1.238   7.069   1.523 -0.1193 -0.4377  1.2926
 7063TIP3    H242825   1.278   6.931   1.476 -0.5269  0.2065 -1.1268
 7064TIP3   OH242826   0.913   6.277   0.479 -0.1898  0.0220  0.1677
 7064TIP3    H142827   0.894   6.358   0.432  1.9125  1.5995  1.8013
 7064TIP3    H242828   1.008   6.278   0.491  0.0129 -3.1096 -0.3710
 7065TIP3   OH242829   1.478   3.610   7.579 -0.5345  0.2057  0.0394
 7065TIP3    H142830   1.564   3.615   7.538 -0.3579  1.3126  0.5102
 7065TIP3    H242831   1.432   3.543   7.530 -0.3570  1.5023 -1.9988
 7066TIP3   OH242832   1.477   3.831   1.037 -0.3386  0.0654  0.0321
 7066TIP3    H142833   1.389   3.798   1.053 -0.9313  0.9561 -1.2104
 7066TIP3    H242834   1.475   3.861   0.946  0.9192  1.1270  0.3250
 7067TIP3   OH242835   0.885   1.099   0.299  0.4829 -0.7401  0.2013
 7067TIP3    H142836   0.842   1.181   0.324  1.7734  0.7892 -2.2148
 7067TIP3    H242837   0.827   1.030   0.333 -0.9006  1.1383  1.8855
 7068TIP3   OH242838   4.557   5.699   7.164 -0.3209  0.1471 -0.4131
 7068TIP3    H142839   4.638   5.664   7.201  0.7068  1.8374 -0.9202
 7068TIP3    H242840   4.521   5.628   7.112  0.3161 -0.9551  0.6090
 7069TIP3   OH242841   3.239   6.464   0.670 -0.0702  0.3591 -0.0509
 7069TIP3    H142842   3.291   6.464   0.589  1.4825  1.3125  0.8971
 7069TIP3    H242843   3.304   6.460   0.740 -1.2754  1.4450  1.1932
 7070TIP3   OH242844   2.830   4.606   7.954 -0.7810 -0.8527  0.1228
 7070TIP3    H142845   2.815   4.653   7.872  0.6300  0.3521  0.5067
 7070TIP3    H242846   2.862   4.520   7.928  0.5410 -0.1589 -0.5989
 7071TIP3   OH242847   2.854   3.960   0.517  0.2195 -0.2992  0.0815
 7071TIP3    H142848   2.940   3.947   0.479  0.3916 -0.9702  0.6811
 7071TIP3    H242849   2.870   4.017   0.593 -0.1998  1.5346 -1.1450
 7072TIP3   OH242850   2.809   1.913   7.796 -0.0244 -0.0682 -0.1273
 7072TIP3    H142851   2.889   1.875   7.760 -0.7713  0.6050 -2.7393
 7072TIP3    H242852   2.828   2.007   7.802 -0.7759  0.1759 -1.3158
 7073TIP3   OH242853   1.084   1.216   7.555 -0.7403 -0.0300 -0.2041
 7073TIP3    H142854   1.070   1.236   7.648  1.4864 -1.1410  0.4382
 7073TIP3    H242855   1.012   1.157   7.532 -1.4424  0.4274  0.7297
 7074TIP3   OH242856   4.430   2.131   1.523  0.4587  0.0610 -0.0383
 7074TIP3    H142857   4.436   2.145   1.617 -0.2320 -4.6800  0.9344
 7074TIP3    H242858   4.513   2.091   1.498  0.0127 -0.2492 -1.1134
 7075TIP3   OH242859   3.158   2.652   8.233  0.4118 -0.3686 -0.4187
 7075TIP3    H142860   3.103   2.574   8.230  1.0650 -0.8783  0.5282
 7075TIP3    H242861   3.178   2.671   8.141  0.2453 -1.2992 -0.6583
 7076TIP3   OH242862   1.150   1.273   1.283 -0.0503  0.2805 -0.1739
 7076TIP3    H142863   1.079   1.297   1.342  0.1242  0.3597  0.0052
 7076TIP3    H242864   1.228   1.315   1.320  0.0272  0.4777 -0.5574
 7077TIP3   OH242865   3.680   1.379   7.767 -0.0743  0.1571  0.5309
 7077TIP3    H142866   3.598   1.401   7.723 -0.0105  0.1475  0.4067
 7077TIP3    H242867   3.655   1.312   7.831  0.0526 -0.8196 -0.4142
 7078TIP3   OH242868   2.888   0.764   8.012  0.1402 -0.2216 -0.1409
 7078TIP3    H142869   2.945   0.835   8.042  0.3229 -0.3184 -0.2665
 7078TIP3    H242870   2.937   0.719   7.944 -0.4055  0.2012 -0.8322
 7079TIP3   OH242871   3.430   0.893   0.974  0.7639  0.4468 -0.1453
 7079TIP3    H142872   3.515   0.937   0.980  1.1935 -0.3418 -0.2676
 7079TIP3    H242873   3.404   0.880   1.065  2.0854 -1.7271 -0.0013
 7080TIP3   OH242874   1.829   2.220   2.508 -0.1759  0.4176 -0.5078
 7080TIP3    H142875   1.734   2.231   2.514 -0.1636  0.0666  0.5294
 7080TIP3    H242876   1.862   2.260   2.589  0.5984  0.9867 -1.1025
 7081TIP3   OH242877   0.663   5.059   7.844 -0.6683 -0.7064 -0.2522
 7081TIP3    H142878   0.655   4.964   7.832 -2.0793 -0.9221  1.7741
 7081TIP3    H242879   0.585   5.095   7.803 -0.4905 -0.4884 -0.4013
 7082TIP3   OH242880   1.310   4.943   2.817  0.0671 -0.3421 -0.6301
 7082TIP3    H142881   1.235   4.998   2.798 -0.9797 -1.2524  0.7053
 7082TIP3    H242882   1.273   4.859   2.843  1.4380 -0.4003  1.4503
 7083TIP3   OH242883   2.036   5.838   2.464 -0.1884  0.0984  0.0215
 7083TIP3    H142884   2.010   5.911   2.408  0.3978  1.0903  1.0106
 7083TIP3    H242885   1.956   5.815   2.512 -0.1607  0.6826  0.3533
 7084TIP3   OH242886   3.213   0.569   7.532  0.2927 -0.4130  0.4158
 7084TIP3    H142887   3.142   0.632   7.536 -0.4777 -1.2714  0.6763
 7084TIP3    H242888   3.226   0.554   7.438  0.2666 -0.1117  0.3634
 7085TIP3   OH242889   6.371   3.850   7.716  0.1648  0.2130 -0.1037
 7085TIP3    H142890   6.437   3.781   7.729 -0.6728 -0.8894 -1.3830
 7085TIP3    H242891   6.402   3.923   7.770  1.2474 -1.0464  1.0616
 7086TIP3   OH242892   2.311   6.325   1.035  0.3478 -0.3088  0.2108
 7086TIP3    H142893   2.368   6.294   1.106  0.1498  0.0923  0.5534
 7086TIP3    H242894   2.313   6.420   1.043  1.2309 -0.2110 -1.0573
 7087TIP3   OH242895   3.741   1.594   0.207  0.4361  0.4452 -0.1895
 7087TIP3    H142896   3.833   1.621   0.197  1.3701 -1.8670  1.0899
 7087TIP3    H242897   3.740   1.503   0.178 -2.1574  1.1769 -2.8631
 7088TIP3   OH242898   6.085   6.765   0.465 -0.1677  0.4767  0.3358
 7088TIP3    H142899   6.004   6.782   0.416  0.0203  1.9506  0.4853
 7088TIP3    H242900   6.086   6.833   0.533  1.1162  0.3761  0.4314
 7089TIP3   OH242901   6.376   1.338   6.150 -0.2077 -0.1940 -0.7471
 7089TIP3    H142902   6.306   1.374   6.205  0.0440  0.3758 -0.7883
 7089TIP3    H242903   6.429   1.285   6.210  0.7339  1.3592 -0.1575
 7090TIP3   OH242904   3.851   3.303   0.010  0.1471  0.8534 -0.6680
 7090TIP3    H142905   3.766   3.275  -0.024  0.4937  0.2211 -1.0246
 7090TIP3    H242906   3.846   3.284   0.104 -0.0255  0.6125 -0.7236
 7091TIP3   OH242907   6.020   3.191   1.922 -0.2765  0.0161 -0.4573
 7091TIP3    H142908   6.009   3.134   1.998 -0.0155  1.0149  0.3718
 7091TIP3    H242909   5.932   3.198   1.884 -0.6688  0.4530  0.4852
 7092TIP3   OH242910   6.166   2.375   7.067 -0.4047  0.2458 -0.1998
 7092TIP3    H142911   6.186   2.467   7.085 -0.2466 -0.1608  1.9789
 7092TIP3    H242912   6.252   2.335   7.051 -0.2267  0.1008  0.9840
 7093TIP3   OH242913   0.013   6.659   7.825  0.1441 -0.2597  0.4483
 7093TIP3    H142914   0.053   6.603   7.891 -0.9019 -0.7830  0.6656
 7093TIP3    H242915   0.036   6.619   7.741  2.3732  0.9947  0.3800
 7094TIP3   OH242916   3.241   5.654   8.402  0.3706 -0.2377  0.3036
 7094TIP3    H142917   3.219   5.674   8.493  0.0377  2.1506 -0.2597
 7094TIP3    H242918   3.159   5.661   8.354  1.0117  1.4428 -0.6232
 7095TIP3   OH242919   3.836   0.169   1.232 -0.3619  0.6165 -0.3905
 7095TIP3    H142920   3.807   0.217   1.310  0.1679 -0.0844  0.2429
 7095TIP3    H242921   3.903   0.226   1.193  0.6916  0.1570  0.6847
 7096TIP3   OH242922   6.771   1.992   7.521  0.6685  0.1117  0.1911
 7096TIP3    H142923   6.676   2.009   7.519  0.7895  0.8639 -1.1468
 7096TIP3    H242924   6.810   2.079   7.529  1.2554 -0.0301 -0.9227
 7097TIP3   OH242925   0.809   2.903   1.761  0.1465  0.5041 -0.2161
 7097TIP3    H142926   0.879   2.892   1.696  0.0504  2.0694 -0.6157
 7097TIP3    H242927   0.853   2.940   1.838 -0.1222  0.8638 -0.2312
 7098TIP3   OH242928   0.237   1.086   7.221 -0.5205  0.0097  0.3137
 7098TIP3    H142929   0.184   1.141   7.164 -0.1590 -1.7109 -1.7943
 7098TIP3    H242930   0.327   1.101   7.192 -0.1239  0.4335  1.6666
 7099TIP3   OH242931   1.924   4.112   2.708 -0.4806 -0.7806  0.2009
 7099TIP3    H142932   1.835   4.099   2.675  0.0004 -1.0471 -1.0610
 7099TIP3    H242933   1.948   4.199   2.677 -0.6669 -0.2648  1.4497
 7100TIP3   OH242934   5.111   6.896   0.670 -0.7195 -0.0770 -0.2459
 7100TIP3    H142935   5.019   6.868   0.678 -0.2628 -1.1576  2.1418
 7100TIP3    H242936   5.128   6.946   0.749  0.1827  2.0842 -1.7261
 7101TIP3   OH242937   4.573   3.161   1.727 -0.1384 -0.2119 -0.3111
 7101TIP3    H142938   4.502   3.225   1.729 -0.0462 -0.0859 -0.9196
 7101TIP3    H242939   4.546   3.096   1.662  0.3820 -0.0622 -0.6886
 7102TIP3   OH242940   3.955   5.942   0.729  0.6191  0.1899 -0.4889
 7102TIP3    H142941   3.937   5.876   0.796  0.2181 -1.0472 -1.7678
 7102TIP3    H242942   3.870   5.956   0.687  0.8732  0.9421 -0.7598
 7103TIP3   OH242943   6.992   4.877   0.048 -0.0367 -0.1489 -0.1814
 7103TIP3    H142944   6.999   4.964   0.008 -2.6079  0.3306  0.2905
 7103TIP3    H242945   6.962   4.820  -0.022 -2.4152  0.2539  0.4229
 7104TIP3   OH242946   3.619   6.073   8.283  0.0690  0.6681 -0.1817
 7104TIP3    H142947   3.541   6.129   8.288 -0.2238  0.1566  2.1106
 7104TIP3    H242948   3.626   6.035   8.370  1.7832 -0.8332 -0.9237
 7105TIP3   OH242949   0.428   0.913   8.340  0.0862 -0.1478 -0.0133
 7105TIP3    H142950   0.383   0.884   8.261  0.6868 -1.9150  0.2404
 7105TIP3    H242951   0.497   0.848   8.353  1.2139  1.1685  0.9117
 7106TIP3   OH242952   2.008   1.071   2.023  0.2073  0.3171 -0.9081
 7106TIP3    H142953   2.070   1.132   1.983 -0.3759  1.2524 -0.4240
 7106TIP3    H242954   2.063   1.000   2.056  1.0145  1.0175 -0.6753
 7107TIP3   OH242955   3.138   5.760   7.829 -0.4877 -0.4032  0.8139
 7107TIP3    H142956   3.222   5.718   7.812  0.1682  1.1154  0.0612
 7107TIP3    H242957   3.073   5.692   7.814  0.4438 -0.8383 -1.5780
 7108TIP3   OH242958   6.190   4.864   8.210 -0.1639 -0.7974  0.3959
 7108TIP3    H142959   6.273   4.852   8.255  1.0187 -2.2067 -1.9820
 7108TIP3    H242960   6.210   4.926   8.139 -1.3935 -0.3990  0.3707
 7109TIP3   OH242961   6.629   6.123   0.804 -0.0062  0.1403  0.1700
 7109TIP3    H142962   6.702   6.184   0.794  0.0762  0.1160  0.6266
 7109TIP3    H242963   6.612   6.093   0.715 -0.3426  1.1701 -0.1328
 7110TIP3   OH242964   2.786   1.591   7.478 -0.4236 -0.8449 -0.0310
 7110TIP3    H142965   2.720   1.582   7.547 -0.4712  1.0796  0.2343
 7110TIP3    H242966   2.735   1.595   7.397 -0.5480 -0.6979  0.0523
 7111TIP3   OH242967   4.031   5.982   8.042  0.3561  0.0244 -0.1119
 7111TIP3    H142968   3.966   6.044   8.075  0.7269  0.0364  0.6305
 7111TIP3    H242969   3.986   5.898   8.039  0.2018  0.1012  0.0477
 7112TIP3   OH242970   5.539   5.743   8.375  0.0536 -0.2860 -0.0624
 7112TIP3    H142971   5.601   5.780   8.438  0.4893  0.7642 -1.0575
 7112TIP3    H242972   5.568   5.653   8.363  0.0770 -0.4467  1.0755
 7113TIP3   OH242973   3.149   3.529   1.397 -0.6720  0.2350 -0.1799
 7113TIP3    H142974   3.144   3.433   1.404 -0.3593  0.2295 -0.0490
 7113TIP3    H242975   3.058   3.558   1.409 -0.5267  0.0678  1.5008
 7114TIP3   OH242976   0.777   0.005   1.413  0.5335 -0.1825 -0.3690
 7114TIP3    H142977   0.864   0.045   1.408  0.0176  1.1467  0.6077
 7114TIP3    H242978   0.765  -0.013   1.506 -0.5242  0.3535 -0.3893
 7115TIP3   OH242979   5.915   2.012   0.497 -0.2406 -0.3790  1.0387
 7115TIP3    H142980   5.982   2.020   0.565  0.7641 -0.4252  0.0707
 7115TIP3    H242981   5.921   2.094   0.447  0.1665 -1.0122  0.0108
 7116TIP3   OH242982   6.703   0.225   2.748  0.7725 -0.3764  0.1763
 7116TIP3    H142983   6.642   0.153   2.758 -0.8612  0.6781 -1.5598
 7116TIP3    H242984   6.648   0.304   2.749  2.0465  0.6174 -1.5014
 7117TIP3   OH242985   1.278   6.383   0.791  0.5151  0.2957  0.1410
 7117TIP3    H142986   1.364   6.357   0.758  0.9971  1.1544  0.6800
 7117TIP3    H242987   1.243   6.442   0.724 -0.3445 -1.2077 -0.8172
 7118TIP3   OH242988   2.908   0.119   1.015  0.2747 -0.5033  0.0548
 7118TIP3    H142989   2.921   0.085   1.104  0.0123 -1.0189 -0.0998
 7118TIP3    H242990   2.840   0.185   1.025 -1.5407 -2.2405 -0.1076
 7119TIP3   OH242991   1.153   5.620   1.129  0.0177 -0.2246  0.0958
 7119TIP3    H142992   1.167   5.594   1.220 -0.4422 -0.4799  0.0992
 7119TIP3    H242993   1.057   5.624   1.120  0.0500 -0.5584 -0.4666
 7120TIP3   OH242994   0.403   6.242   3.115 -0.5847  0.9668  0.2993
 7120TIP3    H142995   0.484   6.197   3.138  0.4130 -0.7853 -5.1583
 7120TIP3    H242996   0.333   6.189   3.154  0.6609  1.5123  3.6015
 7121TIP3   OH242997   6.514   6.291   1.997 -0.1167 -0.0161  0.1051
 7121TIP3    H142998   6.593   6.333   1.963 -0.0840  0.7693  1.1114
 7121TIP3    H242999   6.546   6.234   2.067 -0.6354  2.3278  2.3781
 7122TIP3   OH243000   0.294   2.020   1.556 -0.5056 -0.1929 -0.3917
 7122TIP3    H143001   0.201   2.033   1.577 -0.1471  1.0311  0.5171
 7122TIP3    H243002   0.293   1.982   1.468 -1.8143  1.4700 -1.1371
 7123TIP3   OH243003   0.051   1.944   8.012  0.6099 -0.0575 -0.6014
 7123TIP3    H143004  -0.012   1.978   7.948  0.5470 -0.0752 -0.5479
 7123TIP3    H243005   0.067   1.854   7.984 -1.4794 -0.9962  0.9671
 7124TIP3   OH243006   6.650   0.615   7.063  0.2987 -0.5176  0.7977
 7124TIP3    H143007   6.597   0.671   7.007 -0.5239  0.0351  2.0643
 7124TIP3    H243008   6.698   0.558   7.003 -1.1551 -0.5117 -0.4304
 7125TIP3   OH243009   5.894   3.314   3.099  0.5003  0.1794 -0.0040
 7125TIP3    H143010   5.882   3.345   3.189 -0.5299  0.9391 -0.3888
 7125TIP3    H243011   5.897   3.219   3.107 -0.0625  0.2156  0.7775
 7126TIP3   OH243012   4.779   2.187   7.677 -1.0160  0.1707 -0.0032
 7126TIP3    H143013   4.722   2.222   7.608  0.8138  0.1573 -1.5911
 7126TIP3    H243014   4.750   2.096   7.688 -0.6477 -0.1622 -1.5573
 7127TIP3   OH243015   5.866   2.267   7.895 -0.4693 -0.0017 -0.4746
 7127TIP3    H143016   5.831   2.220   7.820 -1.8864  0.4951 -0.1756
 7127TIP3    H243017   5.844   2.211   7.970 -3.3457  1.5812  0.0312
 7128TIP3   OH243018   5.092   2.244   2.244 -0.1709 -0.6079  0.0666
 7128TIP3    H143019   5.104   2.249   2.339 -0.0981 -1.7364  0.1343
 7128TIP3    H243020   4.997   2.236   2.233 -0.3184  0.9597 -0.0573
 7129TIP3   OH243021   4.831   3.553   0.891 -0.4481 -0.3235  0.0999
 7129TIP3    H143022   4.815   3.504   0.810  2.0167 -1.4160  0.1804
 7129TIP3    H243023   4.754   3.536   0.945 -2.0222  0.1928 -1.8559
 7130TIP3   OH243024   3.603   6.399   8.201 -0.6869 -0.2777 -0.5725
 7130TIP3    H143025   3.559   6.431   8.280 -0.0109  1.1895 -0.7513
 7130TIP3    H243026   3.533   6.358   8.149 -1.0797 -1.5928  0.9148
 7131TIP3   OH243027   0.291   3.127   1.883  0.2596  0.4974 -0.7250
 7131TIP3    H143028   0.265   3.082   1.964 -1.3021  0.0322 -1.4530
 7131TIP3    H243029   0.384   3.148   1.897  0.1335  0.1058  1.0302
 7132TIP3   OH243030   6.594   6.130   8.400 -0.2809 -0.1301 -0.1824
 7132TIP3    H143031   6.518   6.083   8.434  0.9414 -0.8026  1.7382
 7132TIP3    H243032   6.560   6.217   8.376 -2.2075 -1.3253 -2.1334
 7133TIP3   OH243033   6.025   1.335   0.297  0.2164  0.0850  0.3186
 7133TIP3    H143034   6.004   1.391   0.222  2.5757  0.2495 -0.3255
 7133TIP3    H243035   5.967   1.260   0.288 -0.4069  0.6866 -0.9686
 7134TIP3   OH243036   2.550   0.146   1.653 -0.1946  0.3273 -0.2857
 7134TIP3    H143037   2.517   0.147   1.563  0.3292  1.8088 -0.4806
 7134TIP3    H243038   2.619   0.080   1.653  0.4217  0.9552 -1.2178
 7135TIP3   OH243039   2.880   0.144   7.378 -0.2073  0.1243  0.0267
 7135TIP3    H143040   2.833   0.133   7.295 -0.3787 -1.0446  0.2578
 7135TIP3    H243041   2.960   0.191   7.354 -0.3589 -0.0034 -0.7663
 7136TIP3   OH243042   2.257   4.158   1.339  0.7632 -0.2104  0.5456
 7136TIP3    H143043   2.321   4.106   1.388  3.1311  0.0694 -2.0098
 7136TIP3    H243044   2.297   4.245   1.333 -0.0329  0.0831 -0.8185
 7137TIP3   OH243045   1.355   1.127   0.985  0.5787 -0.2995  0.0019
 7137TIP3    H143046   1.287   1.060   0.982  0.9359 -0.6827  0.2655
 7137TIP3    H243047   1.406   1.113   0.905  1.4626 -1.2239  0.7041
 7138TIP3   OH243048   1.350   3.856   0.385  0.3172 -0.2629  0.0315
 7138TIP3    H143049   1.348   3.769   0.344  1.1629  0.4903 -1.7405
 7138TIP3    H243050   1.324   3.916   0.315  0.3022  0.9708  1.0542
 7139TIP3   OH243051   3.441   6.657   6.718 -0.8295 -0.3379 -0.3381
 7139TIP3    H143052   3.422   6.563   6.717 -0.7677 -0.3524 -1.2970
 7139TIP3    H243053   3.361   6.697   6.685 -0.5182 -0.1218 -0.8307
 7140TIP3   OH243054   6.347   1.145   1.528 -0.2814 -0.2049  0.8180
 7140TIP3    H143055   6.278   1.176   1.470  0.6341 -1.1375 -0.8615
 7140TIP3    H243056   6.307   1.073   1.577 -0.2500 -1.5275 -0.9867
 7141TIP3   OH243057   6.315   3.503   8.153  0.3788 -0.3086  0.2768
 7141TIP3    H143058   6.393   3.502   8.209  1.3407 -0.7759 -1.0174
 7141TIP3    H243059   6.243   3.478   8.211  1.0508  0.9031  1.6828
 7142TIP3   OH243060   2.001   2.315   7.544 -0.3881  0.0962 -0.7152
 7142TIP3    H143061   1.945   2.285   7.615  0.0575  0.0503 -0.3771
 7142TIP3    H243062   2.090   2.301   7.576 -0.1256 -2.1080 -2.1860
 7143TIP3   OH243063   5.822   3.991   8.180  0.1369 -0.3754  0.1938
 7143TIP3    H143064   5.791   4.044   8.107 -1.8510 -1.1783  0.3748
 7143TIP3    H243065   5.913   4.015   8.191 -0.2197  1.6581 -0.8753
 7144TIP3   OH243066   3.372   5.628   1.319  0.5745 -0.0676  0.1344
 7144TIP3    H143067   3.346   5.706   1.368  0.4903  0.0866 -0.1587
 7144TIP3    H243068   3.462   5.647   1.290 -0.0739  0.6861 -1.4944
 7145TIP3   OH243069   2.562   3.476   7.845  0.2597 -0.1413 -0.2388
 7145TIP3    H143070   2.539   3.544   7.908 -1.9518 -0.8469 -0.2208
 7145TIP3    H243071   2.647   3.443   7.876  2.0880  3.3939 -0.9748
 7146TIP3   OH243072   2.589   3.382   2.967  0.1529 -0.7870 -0.0854
 7146TIP3    H143073   2.610   3.475   2.962  0.4779 -0.8405  0.2170
 7146TIP3    H243074   2.658   3.345   3.021 -1.0494 -0.8685  1.4562
 7147TIP3   OH243075   0.335   3.361   0.280  0.5151 -0.5542  0.1542
 7147TIP3    H143076   0.240   3.369   0.289  0.4822  0.1076 -0.7042
 7147TIP3    H243077   0.356   3.411   0.202  1.8316  0.9783  1.4361
 7148TIP3   OH243078   1.646   4.716   0.808 -0.4874 -0.0149  0.4294
 7148TIP3    H143079   1.711   4.675   0.864 -0.6606  1.6697  1.9586
 7148TIP3    H243080   1.579   4.748   0.868 -0.8171  1.6481 -0.7495
 7149TIP3   OH243081   3.465   6.219   1.202 -0.3440  0.6813 -0.3846
 7149TIP3    H143082   3.513   6.138   1.219 -1.7790 -0.8561 -2.8996
 7149TIP3    H243083   3.469   6.267   1.284 -0.5596 -2.5537  1.7232
 7150TIP3   OH243084   4.917   3.750   2.153  0.2439  0.2470  0.0879
 7150TIP3    H143085   4.823   3.754   2.135 -0.0875 -1.2750  1.2344
 7150TIP3    H243086   4.933   3.823   2.214  0.0702  1.2467 -1.0275
 7151TIP3   OH243087   6.683   5.895   8.227  0.2399 -0.3239 -0.5434
 7151TIP3    H143088   6.677   5.830   8.297 -2.4805 -0.1723 -0.5271
 7151TIP3    H243089   6.661   5.978   8.269  0.0881  0.0181 -1.2839
 7152TIP3   OH243090   2.019   4.759   1.442  0.1049  0.7367  0.0305
 7152TIP3    H143091   2.004   4.800   1.357  1.1252 -0.8366 -0.9885
 7152TIP3    H243092   2.051   4.671   1.420  0.8843  0.4626  2.0444
 7153TIP3   OH243093   3.000   1.983   0.641 -0.1368  0.2951  0.3728
 7153TIP3    H143094   3.063   2.031   0.695 -0.1854 -0.0002  0.6907
 7153TIP3    H243095   2.921   2.038   0.643  0.4586  1.2486 -0.9662
 7154TIP3   OH243096   3.832   6.857   1.946  0.8102 -0.5485  0.3050
 7154TIP3    H143097   3.810   6.950   1.951 -0.5257 -0.8946  2.0118
 7154TIP3    H243098   3.921   6.852   1.980  0.6151  0.0414  0.9314
 7155TIP3   OH243099   2.849   0.663   8.323 -0.4799  0.4087 -0.0938
 7155TIP3    H143100   2.908   0.621   8.260 -1.0954  1.0939 -1.1556
 7155TIP3    H243101   2.823   0.744   8.281 -0.9699  0.8570  1.0350
 7156TIP3   OH243102   5.903   3.811   1.631 -0.1370  0.0456 -0.2911
 7156TIP3    H143103   5.871   3.727   1.666 -0.7512 -0.3409 -1.7198
 7156TIP3    H243104   5.942   3.855   1.707  0.1722 -1.5166  0.4962
 7157TIP3   OH243105   2.537   5.477   7.035  0.1420 -0.5922 -0.0131
 7157TIP3    H143106   2.470   5.487   6.968 -0.7011  2.8531  1.1183
 7157TIP3    H243107   2.611   5.528   7.002  0.9179 -1.4528  0.3437
 7158TIP3   OH243108   6.478   2.886   0.171  0.3938  0.0589 -0.0331
 7158TIP3    H143109   6.455   2.978   0.180 -0.6224 -0.0078 -1.6100
 7158TIP3    H243110   6.400   2.845   0.133  0.4400 -1.6632  1.5267
 7159TIP3   OH243111   4.678   4.999   1.272 -0.2060 -0.0798 -0.0345
 7159TIP3    H143112   4.687   5.091   1.245 -1.9367 -0.1439 -0.9627
 7159TIP3    H243113   4.712   4.998   1.361  0.8451  1.2331 -0.3755
 7160TIP3   OH243114   6.806   5.044   0.600 -0.6106  0.1934 -0.2244
 7160TIP3    H143115   6.788   5.119   0.657 -1.9488  1.0677 -1.7308
 7160TIP3    H243116   6.776   4.969   0.650  1.6510  0.4656  1.7326
 7161TIP3   OH243117   6.200   5.859   7.299  0.1827  0.5394 -0.2746
 7161TIP3    H143118   6.287   5.819   7.308  0.5262  1.3593  0.1958
 7161TIP3    H243119   6.190   5.874   7.205  0.3984  0.1173 -0.3677
 7162TIP3   OH243120   5.173   0.055   0.917 -0.2863  0.7774  0.4130
 7162TIP3    H143121   5.140   0.143   0.933 -2.4627  0.1117 -0.0454
 7162TIP3    H243122   5.101  -0.003   0.944  0.5046 -0.7926 -0.6764
 7163TIP3   OH243123   2.564   4.885   0.363  0.6032 -0.6075 -0.0431
 7163TIP3    H143124   2.498   4.955   0.364 -0.5927 -1.6884  0.4005
 7163TIP3    H243125   2.636   4.920   0.311  0.3139  1.1844  0.6778
 7164TIP3   OH243126   1.346   4.430   7.724 -0.0040 -0.5052 -0.1844
 7164TIP3    H143127   1.349   4.334   7.723 -0.7157 -0.5612 -2.0404
 7164TIP3    H243128   1.368   4.455   7.634  0.6963  1.1125  0.4041
 7165TIP3   OH243129   5.887   5.378   7.847  0.0128  0.3787  0.1810
 7165TIP3    H143130   5.905   5.467   7.817  0.7855 -0.2892 -1.4727
 7165TIP3    H243131   5.826   5.343   7.782 -0.2765 -0.3136  0.8097
 7166TIP3   OH243132   4.999   6.099   0.619 -0.3582 -0.3081 -0.0737
 7166TIP3    H143133   4.934   6.030   0.604  1.4394 -2.2052  0.3520
 7166TIP3    H243134   4.947   6.178   0.635 -2.5118 -1.3901 -1.1959
 7167TIP3   OH243135   5.569   0.725   7.861  0.2561  0.2767 -0.6762
 7167TIP3    H143136   5.512   0.649   7.849 -1.1183  0.7904  1.8945
 7167TIP3    H243137   5.515   0.800   7.834 -0.2958  0.7450  1.5341
 7168TIP3   OH243138   2.809   3.478   2.574  0.4097  1.1483 -0.3681
 7168TIP3    H143139   2.897   3.503   2.545  0.9098  0.9838  0.9379
 7168TIP3    H243140   2.762   3.561   2.582 -0.4562  1.1286 -3.5804
 7169TIP3   OH243141   6.898   6.988   7.112  0.0124 -0.0595  0.5863
 7169TIP3    H143142   6.952   7.034   7.176 -0.9953  0.1688  1.2874
 7169TIP3    H243143   6.833   6.940   7.163 -0.6156 -0.1274 -0.2384
 7170TIP3   OH243144   6.027   4.088   6.681 -0.5548 -0.3168  0.4431
 7170TIP3    H143145   6.046   4.000   6.649 -0.4495  0.0332 -0.4800
 7170TIP3    H243146   6.108   4.115   6.725 -0.1632 -0.2376 -0.3028
 7171LIG     C143147   1.923   0.423   4.256 -0.6039  0.1000  0.8819
 7171LIG     N143148   2.053   0.375   4.226 -1.0281  0.4961  0.1851
 7171LIG     C243149   2.145   0.328   4.321 -0.0876 -0.6369  0.3505
 7171LIG     N243150   2.252   0.273   4.256 -0.4649 -0.4782  0.4631
 7171LIG     C343151   2.230   0.289   4.119 -0.7638  0.2406 -0.0907
 7171LIG     C443152   2.104   0.352   4.102 -0.2767  0.5187  0.1401
 7171LIG     C543153   2.061   0.391   3.974  0.9954 -0.2346 -0.1927
 7171LIG     O143154   1.957   0.457   3.952  0.3858 -0.2914  0.4966
 7171LIG     N343155   2.146   0.350   3.871 -0.9258  0.2116  0.6924
 7171LIG     C643156   2.258   0.265   3.882  0.4301 -0.5115  0.4705
 7171LIG     O243157   2.315   0.217   3.781  0.0997 -0.2010  0.1230
 7171LIG     N443158   2.305   0.237   4.008  0.2983 -0.5100 -1.0472
 7171LIG     C743159   2.418   0.154   4.036  0.5645  0.5822  0.2928
 7171LIG     C843160   2.101   0.360   3.732 -0.1655 -0.1413  0.0045
 7171LIG     H143161   1.903   0.520   4.205 -2.4974 -0.6669  0.0529
 7171LIG     H243162   1.902   0.450   4.362 -0.9176 -1.6562  1.2985
 7171LIG     H343163   1.840   0.351   4.236 -0.3559  0.1615 -0.4550
 7171LIG     H443164   2.122   0.337   4.428  1.1899  1.0100  0.5275
 7171LIG     H543165   2.396   0.053   3.997 -0.4528  1.1253 -0.5862
 7171LIG     H643166   2.430   0.141   4.146 -0.4110  0.8495  0.4353
 7171LIG     H743167   2.514   0.189   3.991  1.7210  0.7928  2.6921
 7171LIG     H843168   2.052   0.264   3.704 -0.5711  0.3992 -1.1797
 7171LIG     H943169   2.185   0.385   3.664 -1.5925  0.0532 -1.7628
 7171LIG    H1043170   2.016   0.431   3.736 -0.2679 -0.3026  2.5317
   7.00023   7.00023   8.41210
