Title
43188
    1CHL1    C3    1   4.516   3.415   6.761 -0.2295  0.2596  0.9684
    1CHL1    H3    2   4.514   3.522   6.733 -0.8264  0.0607  0.2204
    1CHL1    O3    3   4.490   3.390   6.899 -0.4564 -0.2460 -0.1781
    1CHL1   H3'    4   4.483   3.295   6.915 -0.7081  0.1933  2.9623
    1CHL1    C4    5   4.385   3.356   6.694 -0.2560 -0.1745  0.0691
    1CHL1   H4A    6   4.367   3.254   6.732 -2.9386  0.2704  0.2201
    1CHL1   H4B    7   4.293   3.412   6.723 -0.9393 -0.6637 -1.0798
    1CHL1    C5    8   4.376   3.357   6.544 -0.0157  0.3359  0.2294
    1CHL1    C6    9   4.272   3.401   6.475 -0.9898 -0.2942 -0.0604
    1CHL1    H6   10   4.185   3.438   6.531 -1.6866 -1.3077 -0.4571
    1CHL1    C7   11   4.270   3.395   6.321 -0.0179  0.4499  0.0255
    1CHL1   H7A   12   4.183   3.332   6.289  2.0679 -3.0010  0.6161
    1CHL1   H7B   13   4.263   3.501   6.288  2.7435  0.8473  0.5189
    1CHL1    C8   14   4.395   3.326   6.245  0.1381 -0.2564 -0.2314
    1CHL1    H8   15   4.394   3.217   6.222 -1.3965 -0.1124 -0.9147
    1CHL1   C14   16   4.419   3.396   6.113  0.1896  0.0819  0.5487
    1CHL1   H14   17   4.420   3.502   6.147 -1.2711  0.2449  0.1537
    1CHL1   C15   18   4.294   3.404   6.018  0.5460 -0.2545 -1.0452
    1CHL1  H15A   19   4.251   3.302   6.007 -2.4820  0.7922  0.1600
    1CHL1  H15B   20   4.220   3.481   6.050  0.0342 -1.1219 -0.0742
    1CHL1   C16   21   4.359   3.457   5.890 -0.0541  0.2605 -0.1777
    1CHL1  H16A   22   4.332   3.384   5.811 -0.5560  1.4670 -1.1430
    1CHL1  H16B   23   4.329   3.556   5.851  2.8943  1.0695 -0.6245
    1CHL1   C17   24   4.514   3.450   5.909  0.1443  0.3176  0.2019
    1CHL1   H17   25   4.543   3.556   5.927 -2.8979  1.3130 -0.1530
    1CHL1   C13   26   4.539   3.359   6.029 -0.0821  0.3406  0.4422
    1CHL1   C18   27   4.543   3.214   5.981  0.5226 -0.2982 -0.2338
    1CHL1  H18A   28   4.637   3.179   5.931  0.8492 -0.3470  0.4023
    1CHL1  H18B   29   4.544   3.145   6.068  1.0478 -0.6535 -0.5177
    1CHL1  H18C   30   4.449   3.190   5.927 -0.4570  0.3528  1.1348
    1CHL1   C12   31   4.659   3.390   6.111  0.2101  0.3196 -0.3528
    1CHL1  H12A   32   4.750   3.345   6.066  0.9697  0.7157  0.7328
    1CHL1  H12B   33   4.675   3.499   6.121 -0.0182  0.5821 -2.3732
    1CHL1   C11   34   4.646   3.318   6.252  0.5242 -0.3525 -0.4875
    1CHL1  H11A   35   4.662   3.209   6.253 -1.9775 -0.8096  1.5791
    1CHL1  H11B   36   4.726   3.367   6.311 -0.7137 -2.0755  2.8774
    1CHL1    C9   37   4.517   3.353   6.327 -0.9833  0.5922 -0.0388
    1CHL1    H9   38   4.521   3.464   6.333 -1.5950  0.8846 -3.2977
    1CHL1   C10   39   4.511   3.305   6.478  0.2108 -0.5430 -0.1741
    1CHL1   C19   40   4.506   3.149   6.473 -0.2335  0.4108  0.4626
    1CHL1  H19A   41   4.607   3.119   6.438 -0.1272 -1.8347  2.4306
    1CHL1  H19B   42   4.484   3.106   6.573 -2.9333  1.0317  0.2374
    1CHL1  H19C   43   4.428   3.104   6.407  0.0130 -0.5152  0.7839
    1CHL1    C1   44   4.642   3.356   6.550  0.0130 -0.0516 -0.2580
    1CHL1   H1A   45   4.732   3.303   6.511 -0.3438  0.0331 -1.2361
    1CHL1   H1B   46   4.661   3.461   6.520  0.0420  0.0992  0.2847
    1CHL1    C2   47   4.640   3.342   6.699  0.1682 -0.5302 -0.5882
    1CHL1   H2A   48   4.737   3.383   6.735  0.5480 -2.4575  0.7583
    1CHL1   H2B   49   4.650   3.232   6.716  3.1206 -0.4280 -1.1524
    1CHL1   C20   50   4.591   3.411   5.777  0.6747 -0.3380  0.1351
    1CHL1   H20   51   4.558   3.312   5.738  0.2946 -0.3739  0.5374
    1CHL1   C21   52   4.740   3.410   5.801 -0.0365 -0.8210  0.1350
    1CHL1  H21A   53   4.808   3.387   5.716  3.1195  0.8196  2.0238
    1CHL1  H21B   54   4.769   3.329   5.872  0.5521  0.0690  0.9302
    1CHL1  H21C   55   4.773   3.510   5.836 -0.5322 -0.4886 -0.3257
    1CHL1   C22   56   4.575   3.519   5.673  0.1840  0.6704  0.1316
    1CHL1  H22A   57   4.471   3.556   5.677  0.3926  1.2641  0.1121
    1CHL1  H22B   58   4.649   3.601   5.687  0.4547  0.7383 -1.4990
    1CHL1   C23   59   4.599   3.457   5.534 -0.6082  1.1164  0.4727
    1CHL1  H23A   60   4.701   3.414   5.530 -0.9915  0.1579  0.7452
    1CHL1  H23B   61   4.525   3.378   5.510  0.0625  0.7283 -0.3705
    1CHL1   C24   62   4.591   3.568   5.432 -0.2443 -0.3180 -0.6622
    1CHL1  H24A   63   4.488   3.610   5.431 -0.1296  0.0031  0.1193
    1CHL1  H24B   64   4.660   3.650   5.462 -1.5830  1.0390 -1.1468
    1CHL1   C25   65   4.630   3.521   5.285  0.4017  0.5135  0.0502
    1CHL1   H25   66   4.557   3.445   5.250 -0.2492  0.6799  1.0172
    1CHL1   C26   67   4.607   3.641   5.187 -0.1090 -0.2784  0.2506
    1CHL1  H26A   68   4.514   3.697   5.212  1.1072  2.1480 -0.2972
    1CHL1  H26B   69   4.686   3.720   5.187 -0.7151  0.3981  2.2977
    1CHL1  H26C   70   4.592   3.602   5.085  0.6857 -0.7557  0.3086
    1CHL1   C27   71   4.781   3.470   5.279  0.5253 -0.3448  0.2342
    1CHL1  H27A   72   4.860   3.544   5.306  1.3121 -1.0624 -0.0682
    1CHL1  H27B   73   4.792   3.392   5.356 -1.2711  0.9911  1.9675
    1CHL1  H27C   74   4.794   3.420   5.180  0.7629 -0.9103  0.5495
    2CHL1    C3   75   2.832   4.665   6.293  0.1990  0.6657 -0.3496
    2CHL1    H3   76   2.721   4.671   6.288 -0.0228  1.6364  2.8954
    2CHL1    O3   77   2.859   4.670   6.430 -0.0199  0.3976 -0.1814
    2CHL1   H3'   78   2.952   4.692   6.427  0.3015 -0.9583 -1.0362
    2CHL1    C4   79   2.874   4.522   6.245  0.7145  0.4007  0.0441
    2CHL1   H4A   80   2.983   4.508   6.266  0.9256 -0.3042 -1.4484
    2CHL1   H4B   81   2.809   4.455   6.304 -0.1169 -0.3207 -1.6270
    2CHL1    C5   82   2.846   4.511   6.096  0.1051 -0.6785 -0.1896
    2CHL1    C6   83   2.771   4.416   6.035 -0.7882  0.3700 -0.1699
    2CHL1    H6   84   2.729   4.335   6.096 -0.1398  0.4496  0.4035
    2CHL1    C7   85   2.754   4.398   5.889 -0.0167  0.2886  0.2333
    2CHL1   H7A   86   2.776   4.293   5.862 -0.0733  0.5874 -1.0805
    2CHL1   H7B   87   2.649   4.421   5.861 -0.2546  0.2761  1.0873
    2CHL1    C8   88   2.852   4.485   5.811 -0.0980  1.3996 -0.3314
    2CHL1    H8   89   2.951   4.438   5.821  0.9079  3.0045 -2.0076
    2CHL1   C14   90   2.816   4.486   5.667 -0.3675  0.0198  0.6079
    2CHL1   H14   91   2.723   4.547   5.663  1.3509  2.7708  0.6586
    2CHL1   C15   92   2.779   4.352   5.590 -0.2476 -0.2199 -0.4609
    2CHL1  H15A   93   2.857   4.276   5.610  1.0646  1.2363  0.1709
    2CHL1  H15B   94   2.679   4.317   5.624 -0.7761  1.6369  0.0374
    2CHL1   C16   95   2.786   4.394   5.439 -0.1070 -0.5602 -0.2349
    2CHL1  H16A   96   2.844   4.315   5.385  0.6408 -1.7537  2.1267
    2CHL1  H16B   97   2.683   4.394   5.398 -0.6732 -0.5267  1.1365
    2CHL1   C17   98   2.857   4.533   5.431  0.0174 -0.8157 -0.1774
    2CHL1   H17   99   2.772   4.604   5.423  0.7404 -0.0068 -0.8907
    2CHL1   C13  100   2.911   4.561   5.571  0.4504  0.9149  0.1790
    2CHL1   C18  101   3.054   4.492   5.588 -0.0300  0.1995  0.4859
    2CHL1  H18A  102   3.092   4.508   5.691 -1.1300  0.8476  0.8043
    2CHL1  H18B  103   3.045   4.381   5.583 -0.1700  0.2502 -0.6777
    2CHL1  H18C  104   3.131   4.529   5.518 -0.7637 -0.8904 -0.9450
    2CHL1   C12  105   2.908   4.700   5.614  0.1057 -0.4942 -0.7422
    2CHL1  H12A  106   2.970   4.765   5.548  0.3902  1.0536  0.9762
    2CHL1  H12B  107   2.809   4.750   5.608  0.4522  0.5870  1.4232
    2CHL1   C11  108   2.948   4.717   5.764  0.1299 -0.0765 -0.1267
    2CHL1  H11A  109   3.058   4.705   5.763 -0.0200 -1.8548  0.8123
    2CHL1  H11B  110   2.929   4.823   5.791 -0.2882 -0.0676 -0.4402
    2CHL1    C9  111   2.868   4.629   5.864  0.5554 -0.0801 -0.0103
    2CHL1    H9  112   2.766   4.671   5.872  1.0955  1.3913 -0.4486
    2CHL1   C10  113   2.906   4.630   6.017  0.3986  0.9888 -0.1500
    2CHL1   C19  114   3.058   4.617   6.021  0.2700  0.9078 -0.1756
    2CHL1  H19A  115   3.101   4.718   6.002  0.2760  0.5300 -2.3696
    2CHL1  H19B  116   3.100   4.597   6.122 -0.8373 -1.6752 -0.1485
    2CHL1  H19C  117   3.095   4.549   5.941 -2.8774  0.0264 -1.0091
    2CHL1    C1  118   2.857   4.767   6.077 -0.2907  0.2523  0.4842
    2CHL1   H1A  119   2.921   4.830   6.010  1.6075 -3.3037 -1.3188
    2CHL1   H1B  120   2.755   4.795   6.043  0.4007  0.4379 -1.5899
    2CHL1    C2  121   2.894   4.775   6.222  0.5676  0.0633  0.3682
    2CHL1   H2A  122   2.856   4.872   6.261 -0.6308 -0.3121  0.1797
    2CHL1   H2B  123   3.005   4.766   6.227  0.6786 -1.6890 -2.6619
    2CHL1   C20  124   2.955   4.566   5.309 -0.5130  0.7408 -0.9370
    2CHL1   H20  125   3.025   4.640   5.353  2.1528 -2.2695  0.2437
    2CHL1   C21  126   2.878   4.622   5.186  0.1928 -0.2122  0.0996
    2CHL1  H21A  127   2.818   4.711   5.213 -0.4089 -0.5610 -0.0560
    2CHL1  H21B  128   2.800   4.545   5.165 -0.4771  0.0287  1.5648
    2CHL1  H21C  129   2.942   4.643   5.098  0.7697 -2.0825  0.0208
    2CHL1   C22  130   3.040   4.441   5.270  0.0160  0.0577  0.0646
    2CHL1  H22A  131   3.069   4.389   5.363  0.9968 -0.8198 -0.7101
    2CHL1  H22B  132   2.980   4.379   5.200  1.2097 -0.6349 -0.3605
    2CHL1   C23  133   3.182   4.486   5.214  0.0340  0.0285  0.4069
    2CHL1  H23A  134   3.212   4.563   5.288  0.5410 -1.0787  1.3811
    2CHL1  H23B  135   3.244   4.395   5.230  0.7090  0.0000 -1.9366
    2CHL1   C24  136   3.188   4.528   5.069 -0.3788  0.2387  0.9932
    2CHL1  H24A  137   3.119   4.457   5.019 -2.0320  1.0743  1.9998
    2CHL1  H24B  138   3.153   4.634   5.063  1.1186  0.6856 -1.2142
    2CHL1   C25  139   3.325   4.515   5.002  0.6882  0.1953 -0.0806
    2CHL1   H25  140   3.368   4.412   5.003 -4.0109 -2.0149  0.4370
    2CHL1   C26  141   3.320   4.571   4.858 -0.5206 -0.2086  0.2244
    2CHL1  H26A  142   3.271   4.487   4.804 -1.3994  2.0841 -2.8176
    2CHL1  H26B  143   3.243   4.650   4.844 -2.0926 -1.4785  1.2377
    2CHL1  H26C  144   3.420   4.610   4.829 -0.4927  1.1186  1.9760
    2CHL1   C27  145   3.416   4.607   5.079 -0.5182 -0.5017 -0.4789
    2CHL1  H27A  146   3.514   4.614   5.028  0.4659 -2.0948  1.0760
    2CHL1  H27B  147   3.368   4.708   5.078 -0.4237 -0.4505 -1.9055
    2CHL1  H27C  148   3.428   4.569   5.183 -1.2389  1.2083  0.2807
    3CHL1    C3  149   5.703   4.906   6.496  0.4065  0.0451 -0.1055
    3CHL1    H3  150   5.627   4.986   6.486 -2.0477 -2.3714 -3.3964
    3CHL1    O3  151   5.674   4.851   6.623 -0.1453  0.0931 -0.6514
    3CHL1   H3'  152   5.589   4.882   6.652 -0.0774 -1.7900  1.9518
    3CHL1    C4  153   5.672   4.808   6.385  0.0124 -0.6285  0.1751
    3CHL1   H4A  154   5.741   4.722   6.399  3.1424  1.8557  1.2171
    3CHL1   H4B  155   5.570   4.765   6.399 -0.3589 -1.0454 -3.0296
    3CHL1    C5  156   5.692   4.867   6.246 -1.0035  0.0375 -0.2028
    3CHL1    C6  157   5.594   4.876   6.157 -0.8731 -0.4743  0.3795
    3CHL1    H6  158   5.496   4.832   6.179 -1.2843 -0.5268 -1.3708
    3CHL1    C7  159   5.619   4.918   6.014 -0.2554 -0.7092  0.4738
    3CHL1   H7A  160   5.583   4.852   5.933  3.8729 -0.5253 -1.7836
    3CHL1   H7B  161   5.552   5.006   6.001 -0.5348 -0.9200  0.4631
    3CHL1    C8  162   5.767   4.946   5.982  0.1856 -0.0475 -0.5046
    3CHL1    H8  163   5.815   4.848   5.962 -0.0710  0.1813 -2.4307
    3CHL1   C14  164   5.775   5.027   5.853  0.1655  0.2553  0.4704
    3CHL1   H14  165   5.718   5.120   5.875 -3.6771 -0.6271 -4.0155
    3CHL1   C15  166   5.719   4.972   5.717 -0.2276 -0.4265  0.5448
    3CHL1  H15A  167   5.751   4.865   5.713  0.8048 -0.1480  0.8364
    3CHL1  H15B  168   5.609   4.986   5.717 -0.4005 -0.4948 -3.6374
    3CHL1   C16  169   5.779   5.057   5.603 -1.3961 -0.3730  0.6558
    3CHL1  H16A  170   5.833   4.985   5.539 -2.8021 -0.8204 -0.0679
    3CHL1  H16B  171   5.705   5.109   5.539 -0.5784 -0.0182 -0.0231
    3CHL1   C17  172   5.876   5.154   5.676 -0.6246 -0.2539 -0.7467
    3CHL1   H17  173   5.816   5.237   5.720  0.5224 -1.1588  2.9489
    3CHL1   C13  174   5.913   5.077   5.812  0.8613  0.2173 -0.2613
    3CHL1   C18  175   6.009   4.969   5.774 -1.1501 -0.3136  0.3023
    3CHL1  H18A  176   6.111   5.008   5.754  0.6026 -4.4674  0.2288
    3CHL1  H18B  177   6.018   4.892   5.854  0.7873 -1.0580 -0.5756
    3CHL1  H18C  178   5.976   4.906   5.689 -0.5015 -2.0320  1.2752
    3CHL1   C12  179   5.964   5.163   5.924  0.2025 -0.1829 -0.8022
    3CHL1  H12A  180   6.068   5.193   5.901 -0.7706  1.8970 -2.8941
    3CHL1  H12B  181   5.906   5.257   5.938  1.1667  0.4969 -1.3007
    3CHL1   C11  182   5.968   5.079   6.053  0.1271 -0.3332  0.1010
    3CHL1  H11A  183   6.043   4.999   6.032  0.3368  0.5035 -2.8009
    3CHL1  H11B  184   5.995   5.148   6.135 -0.9170  1.6981 -1.1887
    3CHL1    C9  185   5.830   5.019   6.098 -0.2147  0.6724  0.4050
    3CHL1    H9  186   5.757   5.098   6.124  0.6899  1.4797  0.5309
    3CHL1   C10  187   5.834   4.928   6.229  0.4585 -0.1308  0.5110
    3CHL1   C19  188   5.943   4.820   6.218  0.3642 -0.0268 -0.3890
    3CHL1  H19A  189   5.948   4.764   6.314 -0.4726 -0.9304 -0.8596
    3CHL1  H19B  190   5.927   4.751   6.132 -1.7269 -0.1426  0.0572
    3CHL1  H19C  191   6.041   4.870   6.200  0.4925  0.9382  2.4952
    3CHL1    C1  192   5.865   5.024   6.344  0.2992 -0.0621 -0.1233
    3CHL1   H1A  193   5.965   5.073   6.343 -0.3713  1.4715  1.6797
    3CHL1   H1B  194   5.790   5.106   6.333 -0.2185 -0.3808  0.9090
    3CHL1    C2  195   5.847   4.957   6.484  0.2079  0.5694 -0.0046
    3CHL1   H2A  196   5.868   5.030   6.565  2.5036 -1.5304  1.4211
    3CHL1   H2B  197   5.914   4.873   6.511 -2.1547 -1.0027  1.3590
    3CHL1   C20  198   5.987   5.213   5.583  0.7507  0.0856 -0.2217
    3CHL1   H20  199   6.051   5.130   5.545  0.2950  0.0395 -0.8939
    3CHL1   C21  200   6.069   5.320   5.658 -0.2234  0.0935 -0.1157
    3CHL1  H21A  201   6.149   5.373   5.602 -0.4103  2.6981  1.9048
    3CHL1  H21B  202   6.118   5.266   5.742 -0.4367 -2.1230 -1.3507
    3CHL1  H21C  203   6.008   5.404   5.698 -1.5751 -1.7604  1.9351
    3CHL1   C22  204   5.910   5.277   5.462  0.1494 -0.5341 -0.6104
    3CHL1  H22A  205   5.872   5.195   5.398 -0.6861  0.2372 -1.1253
    3CHL1  H22B  206   5.816   5.330   5.489  0.7943  1.9270 -2.7715
    3CHL1   C23  207   5.990   5.372   5.373 -0.1799  0.4122  0.0434
    3CHL1  H23A  208   6.004   5.460   5.440 -1.4574 -0.2735  1.2563
    3CHL1  H23B  209   6.091   5.338   5.343 -0.5451 -0.4360 -0.2580
    3CHL1   C24  210   5.909   5.416   5.247 -0.3055  0.2031  0.0912
    3CHL1  H24A  211   5.886   5.321   5.194  2.7183 -2.0843  2.5155
    3CHL1  H24B  212   5.827   5.489   5.264  0.3265  0.8831  0.2626
    3CHL1   C25  213   6.011   5.472   5.150  0.1985 -0.0253 -0.1493
    3CHL1   H25  214   5.945   5.525   5.077  1.9830  0.7657 -1.2527
    3CHL1   C26  215   6.104   5.577   5.212  0.3954 -0.2718  0.1239
    3CHL1  H26A  216   6.183   5.527   5.272  1.4160  2.2547  1.0020
    3CHL1  H26B  217   6.172   5.622   5.137  0.1538 -0.0010  0.0668
    3CHL1  H26C  218   6.057   5.651   5.280 -0.1334  0.6339 -1.1823
    3CHL1   C27  219   6.088   5.361   5.073 -0.1147 -0.8544  1.0317
    3CHL1  H27A  220   6.039   5.264   5.048  0.1332 -0.1343 -2.8132
    3CHL1  H27B  221   6.106   5.408   4.975 -0.6044  0.8163  1.7099
    3CHL1  H27C  222   6.187   5.333   5.115 -0.0223  0.1849  1.5327
    4CHL1    C3  223   1.977   3.551   6.492 -0.4148  0.2350 -0.2934
    4CHL1    H3  224   1.936   3.649   6.460 -0.4992 -0.1530 -1.4091
    4CHL1    O3  225   1.961   3.533   6.632  0.0564  0.2357 -0.1630
    4CHL1   H3'  226   1.921   3.445   6.634 -0.0100  0.2612 -0.3050
    4CHL1    C4  227   1.909   3.439   6.423 -0.5956 -0.3759  0.4905
    4CHL1   H4A  228   1.970   3.350   6.452  1.7019  1.1180  0.5152
    4CHL1   H4B  229   1.808   3.424   6.466 -0.4192  0.2895  1.1488
    4CHL1    C5  230   1.911   3.443   6.271  0.4977 -0.5597  0.2467
    4CHL1    C6  231   1.799   3.428   6.200 -0.1001  0.1467  0.1071
    4CHL1    H6  232   1.696   3.423   6.240 -0.4087  2.3241 -0.2974
    4CHL1    C7  233   1.815   3.430   6.051 -0.1348 -0.3591 -0.4040
    4CHL1   H7A  234   1.745   3.361   6.000  0.3180 -0.6875 -0.5962
    4CHL1   H7B  235   1.779   3.527   6.009 -0.2120 -0.4909 -0.6456
    4CHL1    C8  236   1.959   3.411   5.997  0.5293  0.3562 -0.1132
    4CHL1    H8  237   1.979   3.303   6.015 -0.4879  0.3176  0.9097
    4CHL1   C14  238   1.971   3.451   5.849 -0.7752 -0.1017 -1.5330
    4CHL1   H14  239   1.945   3.559   5.847  3.3467  1.0858 -0.8020
    4CHL1   C15  240   1.865   3.391   5.756 -0.5324 -0.1099  0.3548
    4CHL1  H15A  241   1.851   3.281   5.771 -0.3259 -0.3981 -1.3704
    4CHL1  H15B  242   1.766   3.438   5.773 -0.0964  1.7900 -1.9422
    4CHL1   C16  243   1.924   3.421   5.613 -0.4570 -0.2888 -0.7710
    4CHL1  H16A  244   1.935   3.328   5.554 -0.9898 -1.3123  0.6928
    4CHL1  H16B  245   1.863   3.494   5.555 -0.2936  0.5128  0.0418
    4CHL1   C17  246   2.063   3.482   5.634 -0.5624 -0.7044  0.7139
    4CHL1   H17  247   2.051   3.592   5.635 -1.1667 -0.7627  0.1437
    4CHL1   C13  248   2.106   3.441   5.779  0.3948  0.3846  0.4531
    4CHL1   C18  249   2.148   3.293   5.775  0.6253  0.6728  0.1684
    4CHL1  H18A  250   2.103   3.226   5.699  1.9397 -0.3251  0.2264
    4CHL1  H18B  251   2.256   3.279   5.753  0.3318  0.8220 -1.4309
    4CHL1  H18C  252   2.133   3.241   5.873 -1.4932  2.6129  0.9492
    4CHL1   C12  253   2.206   3.534   5.853  0.9013  0.1650 -0.4864
    4CHL1  H12A  254   2.310   3.524   5.815  1.4922  2.5127  0.3142
    4CHL1  H12B  255   2.174   3.639   5.832 -0.8033  0.2698  2.1455
    4CHL1   C11  256   2.201   3.507   6.002 -0.0182  0.0068 -0.2220
    4CHL1  H11A  257   2.247   3.408   6.022  0.2926  0.6151  2.3946
    4CHL1  H11B  258   2.278   3.576   6.044  2.4504 -0.5822 -3.3852
    4CHL1    C9  259   2.059   3.497   6.072 -0.4844  1.1767  0.4014
    4CHL1    H9  260   2.021   3.602   6.066  1.6925  2.0827  1.3569
    4CHL1   C10  261   2.057   3.463   6.227 -0.2744  0.2971  0.7867
    4CHL1   C19  262   2.139   3.327   6.240  0.2687  0.7082 -0.3847
    4CHL1  H19A  263   2.141   3.290   6.345  1.7798  2.2881  0.1892
    4CHL1  H19B  264   2.095   3.256   6.167  1.3333  1.1148 -1.4528
    4CHL1  H19C  265   2.242   3.350   6.205  0.0214  0.7308 -1.1153
    4CHL1    C1  266   2.128   3.573   6.306 -0.3218  0.5615  0.8351
    4CHL1   H1A  267   2.236   3.563   6.283 -0.6238 -2.1847  0.2113
    4CHL1   H1B  268   2.096   3.675   6.278 -3.7982 -0.8145 -0.8987
    4CHL1    C2  269   2.126   3.557   6.463  0.8142  0.6896  1.0321
    4CHL1   H2A  270   2.182   3.644   6.504  0.3210  0.9077  1.2470
    4CHL1   H2B  271   2.180   3.465   6.493 -0.9271 -0.1000  1.8547
    4CHL1   C20  272   2.163   3.454   5.525 -0.7296  0.1384  0.5087
    4CHL1   H20  273   2.161   3.343   5.524 -1.8987  0.1394 -0.3795
    4CHL1   C21  274   2.308   3.503   5.557 -0.0377  0.5239 -0.5043
    4CHL1  H21A  275   2.387   3.494   5.480 -1.0403  0.6236 -1.5822
    4CHL1  H21B  276   2.342   3.443   5.644 -2.4632 -0.2186  0.0078
    4CHL1  H21C  277   2.298   3.604   5.602 -1.2087 -0.0364  0.5570
    4CHL1   C22  278   2.117   3.498   5.382 -0.3590  0.0813 -0.4049
    4CHL1  H22A  279   2.030   3.434   5.358 -0.8908  0.5988  0.1221
    4CHL1  H22B  280   2.071   3.598   5.395 -1.6128 -0.4131 -0.9265
    4CHL1   C23  281   2.219   3.498   5.269  0.0257 -0.1569 -0.5215
    4CHL1  H23A  282   2.294   3.580   5.274  2.0919 -2.0494  1.6858
    4CHL1  H23B  283   2.276   3.403   5.276  0.1248  0.0223  1.6782
    4CHL1   C24  284   2.148   3.512   5.134  0.0244 -0.0687 -1.1250
    4CHL1  H24A  285   2.060   3.445   5.134 -2.0060  2.3874  0.5075
    4CHL1  H24B  286   2.106   3.614   5.121 -1.0054 -0.1733  1.0078
    4CHL1   C25  287   2.239   3.468   5.013 -0.0196  0.0209 -0.2060
    4CHL1   H25  288   2.293   3.377   5.048  0.6953  0.1144 -1.0371
    4CHL1   C26  289   2.144   3.443   4.891 -0.2312  0.2513 -0.2438
    4CHL1  H26A  290   2.063   3.372   4.916  0.5316 -0.0991  1.3680
    4CHL1  H26B  291   2.097   3.528   4.836 -0.0593 -0.8575 -2.2268
    4CHL1  H26C  292   2.207   3.394   4.813 -0.1005 -0.8382  0.5299
    4CHL1   C27  293   2.351   3.572   4.994 -0.3413 -0.3386 -0.3568
    4CHL1  H27A  294   2.309   3.671   4.967 -3.0266 -1.9858 -2.7767
    4CHL1  H27B  295   2.409   3.575   5.089 -0.2496 -0.9913 -0.3876
    4CHL1  H27C  296   2.420   3.542   4.912 -0.2248  0.5598 -0.6034
    5CHL1    C3  297   2.819   6.816   5.825 -0.5010  0.3603 -0.0773
    5CHL1    H3  298   2.708   6.815   5.835 -0.4084 -1.4794  1.1304
    5CHL1    O3  299   2.888   6.815   5.946 -0.5716  0.7763  0.0995
    5CHL1   H3'  300   2.868   6.898   5.990 -0.3552  0.7196  0.3100
    5CHL1    C4  301   2.873   6.697   5.746 -0.4479 -0.3452  0.2976
    5CHL1   H4A  302   2.983   6.702   5.732 -0.4252 -1.2829  0.0624
    5CHL1   H4B  303   2.849   6.609   5.810  0.8635 -0.8639  0.1098
    5CHL1    C5  304   2.820   6.684   5.603  0.6347  0.5531  0.2635
    5CHL1    C6  305   2.756   6.573   5.562 -0.2474  0.7587 -0.1936
    5CHL1    H6  306   2.736   6.489   5.630 -2.2564  1.2655 -0.0988
    5CHL1    C7  307   2.703   6.563   5.421  0.1470 -0.2851 -0.4115
    5CHL1   H7A  308   2.736   6.469   5.372 -0.0747 -0.5069 -0.1367
    5CHL1   H7B  309   2.593   6.551   5.432  0.4340 -0.9970  3.0180
    5CHL1    C8  310   2.751   6.679   5.322 -0.2752  0.0908 -0.7561
    5CHL1    H8  311   2.846   6.645   5.274 -0.4610 -2.6474  0.6035
    5CHL1   C14  312   2.654   6.683   5.206  0.1477  0.3979  0.1585
    5CHL1   H14  313   2.558   6.708   5.257  0.1570  0.6170  0.0719
    5CHL1   C15  314   2.620   6.556   5.126  0.0793 -0.2398  0.1409
    5CHL1  H15A  315   2.714   6.498   5.117  0.3010  0.0419  0.6154
    5CHL1  H15B  316   2.536   6.489   5.154 -2.2904  2.2831 -0.5708
    5CHL1   C16  317   2.579   6.610   4.985 -0.8865 -0.0523  0.5126
    5CHL1  H16A  318   2.642   6.568   4.903 -2.7330  1.3584 -1.7349
    5CHL1  H16B  319   2.474   6.583   4.963 -0.7445  1.1712 -2.0960
    5CHL1   C17  320   2.592   6.761   4.996 -0.7083  0.3806 -0.3441
    5CHL1   H17  321   2.497   6.794   5.043 -1.0525 -0.6613 -0.2848
    5CHL1   C13  322   2.703   6.784   5.100  0.6638  0.1590  0.1304
    5CHL1   C18  323   2.837   6.738   5.041  0.0171 -0.0120 -0.3548
    5CHL1  H18A  324   2.882   6.810   4.971  2.7774  1.1447  2.3806
    5CHL1  H18B  325   2.915   6.732   5.120 -0.2954  0.2083 -0.0215
    5CHL1  H18C  326   2.839   6.640   4.989 -0.1863  0.2179 -0.8011
    5CHL1   C12  327   2.708   6.931   5.164 -0.5121  0.3825 -0.2447
    5CHL1  H12A  328   2.744   7.003   5.087 -0.7980  0.6360 -0.1438
    5CHL1  H12B  329   2.601   6.954   5.180 -0.4575 -0.1340  1.0001
    5CHL1   C11  330   2.790   6.929   5.293 -0.0183 -0.2782 -0.4047
    5CHL1  H11A  331   2.898   6.929   5.267  0.1766 -1.0392  0.3704
    5CHL1  H11B  332   2.782   7.031   5.337 -2.2866 -0.4851 -0.1948
    5CHL1    C9  333   2.754   6.813   5.388  0.6964 -0.0853  0.1198
    5CHL1    H9  334   2.648   6.831   5.419  0.4504  0.0282 -0.7472
    5CHL1   C10  335   2.842   6.814   5.518  0.3009 -0.1791  0.5463
    5CHL1   C19  336   2.988   6.811   5.479  0.0429 -0.1338  0.3928
    5CHL1  H19A  337   3.058   6.791   5.563  2.5047  0.7672 -1.3274
    5CHL1  H19B  338   3.009   6.740   5.396  0.3210  0.7651 -0.3380
    5CHL1  H19C  339   3.014   6.914   5.444 -0.8019 -0.1290 -0.2592
    5CHL1    C1  340   2.804   6.941   5.603  0.4542 -0.1408 -1.3462
    5CHL1   H1A  341   2.829   7.033   5.546 -1.3535 -0.1606 -2.2496
    5CHL1   H1B  342   2.693   6.935   5.614  0.6616 -0.5764  0.8919
    5CHL1    C2  343   2.857   6.948   5.748 -0.2402  0.7638 -0.4378
    5CHL1   H2A  344   2.825   7.045   5.791  0.6531  1.3473 -1.0426
    5CHL1   H2B  345   2.968   6.945   5.737 -0.2083 -1.8170  0.1427
    5CHL1   C20  346   2.599   6.836   4.863  0.1888 -0.6528  0.7889
    5CHL1   H20  347   2.706   6.851   4.835 -0.4159  0.7828 -0.8722
    5CHL1   C21  348   2.534   6.978   4.880 -0.2745 -0.0217  0.0472
    5CHL1  H21A  349   2.425   6.970   4.859 -0.0043  1.6886 -2.3884
    5CHL1  H21B  350   2.579   7.058   4.817 -0.5305  0.3545  0.3353
    5CHL1  H21C  351   2.547   7.010   4.986 -2.5011  2.4702 -0.3055
    5CHL1   C22  352   2.524   6.755   4.750 -0.5748  0.3772 -0.4849
    5CHL1  H22A  353   2.590   6.675   4.710 -1.8872 -0.7987 -0.3692
    5CHL1  H22B  354   2.430   6.715   4.794 -0.6425  0.7457 -0.2933
    5CHL1   C23  355   2.489   6.844   4.633  0.5728  1.0677 -0.4254
    5CHL1  H23A  356   2.392   6.888   4.666 -1.5962 -1.0418 -3.3879
    5CHL1  H23B  357   2.570   6.919   4.620  0.4305  1.0952 -1.2543
    5CHL1   C24  358   2.461   6.789   4.497 -0.1488 -0.1654 -0.3194
    5CHL1  H24A  359   2.453   6.878   4.430  1.5896  1.5817  1.6705
    5CHL1  H24B  360   2.557   6.744   4.466  1.7318  2.0103  1.9107
    5CHL1   C25  361   2.335   6.704   4.481 -1.4722 -0.4349  0.1522
    5CHL1   H25  362   2.327   6.627   4.560  0.4709 -0.3700  0.4483
    5CHL1   C26  363   2.213   6.795   4.487 -0.2322 -0.2623  0.0384
    5CHL1  H26A  364   2.188   6.850   4.393 -1.7147  0.8267  1.0215
    5CHL1  H26B  365   2.123   6.739   4.518  1.8061 -3.6370  0.3169
    5CHL1  H26C  366   2.220   6.866   4.572 -0.1968 -1.9876  1.5368
    5CHL1   C27  367   2.337   6.627   4.351 -0.3507  0.5031 -1.0566
    5CHL1  H27A  368   2.372   6.697   4.273  1.3592 -0.4417 -1.1899
    5CHL1  H27B  369   2.417   6.551   4.357  0.7336  1.6741 -0.1096
    5CHL1  H27C  370   2.239   6.578   4.331 -0.8304 -0.7283  3.1376
    6CHL1    C3  371   1.892   4.171   6.687 -0.2623 -0.6472  0.4767
    6CHL1    H3  372   1.796   4.214   6.651 -0.8118 -0.3179  2.2152
    6CHL1    O3  373   1.885   4.173   6.828  0.6548 -0.8050 -0.6153
    6CHL1   H3'  374   1.814   4.109   6.839  0.3733 -0.4599 -0.3926
    6CHL1    C4  375   1.904   4.018   6.655 -0.6188  0.2535  0.4002
    6CHL1   H4A  376   1.996   3.974   6.698  0.0121  1.2010  0.0442
    6CHL1   H4B  377   1.810   3.966   6.684 -0.6930 -0.6640 -1.3569
    6CHL1    C5  378   1.897   4.016   6.495  0.2854  0.4553  0.1647
    6CHL1    C6  379   1.803   3.945   6.422 -0.6747  0.2011  0.0418
    6CHL1    H6  380   1.725   3.881   6.465 -0.7167 -1.7951 -2.7562
    6CHL1    C7  381   1.806   3.924   6.273 -0.3854 -0.1195  0.1187
    6CHL1   H7A  382   1.787   3.815   6.263  0.3947 -0.3055  0.5562
    6CHL1   H7B  383   1.720   3.975   6.225 -0.3447 -1.2328 -1.1858
    6CHL1    C8  384   1.936   3.964   6.212 -0.2221 -0.1140 -0.3756
    6CHL1    H8  385   2.007   3.879   6.223  0.8374  0.4842 -2.1394
    6CHL1   C14  386   1.915   3.983   6.065  0.2364 -0.1052  1.2070
    6CHL1   H14  387   1.845   4.068   6.057 -2.9236 -2.6086 -0.0331
    6CHL1   C15  388   1.848   3.867   5.993 -0.5604  0.4120  0.3365
    6CHL1  H15A  389   1.890   3.770   6.026  2.8355  1.4436 -0.6272
    6CHL1  H15B  390   1.737   3.860   5.994 -0.4799 -1.6427  1.8521
    6CHL1   C16  391   1.907   3.872   5.850  0.5826 -0.1039  0.6413
    6CHL1  H16A  392   1.958   3.782   5.809 -1.8884 -1.2865 -0.0451
    6CHL1  H16B  393   1.826   3.891   5.777  1.4667  1.1596 -0.0525
    6CHL1   C17  394   1.976   4.008   5.841 -0.1614 -1.1838  0.3463
    6CHL1   H17  395   1.904   4.090   5.819  2.2875  0.8123 -0.7225
    6CHL1   C13  396   2.043   4.022   5.980 -1.1735 -0.2335  0.1308
    6CHL1   C18  397   2.149   3.909   5.993 -0.4281  0.0662  0.3154
    6CHL1  H18A  398   2.116   3.806   5.969  1.9228 -0.6805  0.1070
    6CHL1  H18B  399   2.235   3.935   5.928 -1.5027 -0.6797 -1.4687
    6CHL1  H18C  400   2.176   3.909   6.101 -0.8286 -0.6023  0.4162
    6CHL1   C12  401   2.078   4.161   6.035  0.8414  0.1171 -0.7295
    6CHL1  H12A  402   2.174   4.186   5.985  0.6826  0.9206 -0.6413
    6CHL1  H12B  403   1.986   4.219   6.012 -1.2768 -1.8209  2.2200
    6CHL1   C11  404   2.099   4.158   6.189  0.0446 -0.0525 -0.4278
    6CHL1  H11A  405   2.202   4.122   6.210  0.5774  1.6668  0.0834
    6CHL1  H11B  406   2.120   4.264   6.212  3.8965 -0.7544  0.0982
    6CHL1    C9  407   1.988   4.094   6.269 -0.0577  0.7047 -0.1769
    6CHL1    H9  408   1.908   4.170   6.259  0.3919  1.2298  0.1977
    6CHL1   C10  409   2.012   4.095   6.426  0.0142  0.0722  0.0455
    6CHL1   C19  410   2.144   4.027   6.463  0.6372 -0.0421  0.3547
    6CHL1  H19A  411   2.237   4.078   6.430  0.7149  0.4958  1.3480
    6CHL1  H19B  412   2.151   4.024   6.574 -0.4035 -0.2404  0.4194
    6CHL1  H19C  413   2.138   3.923   6.426  2.9963 -0.1606  0.1056
    6CHL1    C1  414   2.016   4.244   6.471  0.6887 -0.5505 -0.9451
    6CHL1   H1A  415   2.098   4.303   6.425  1.4271 -1.0994 -0.3567
    6CHL1   H1B  416   1.925   4.292   6.430  1.5308  2.8254  0.7845
    6CHL1    C2  417   2.015   4.254   6.625 -0.4939 -0.4087 -0.5590
    6CHL1   H2A  418   2.019   4.356   6.669  0.1956 -0.5886 -0.2010
    6CHL1   H2B  419   2.104   4.210   6.673 -0.0751  2.3192  1.4050
    6CHL1   C20  420   2.066   4.018   5.724 -0.2438  0.5743  0.3575
    6CHL1   H20  421   2.148   3.942   5.726  0.9592  1.7752 -1.0595
    6CHL1   C21  422   2.130   4.155   5.724  0.3728 -0.2255  0.5424
    6CHL1  H21A  423   2.180   4.173   5.626 -2.2279 -0.2478 -0.8586
    6CHL1  H21B  424   2.213   4.154   5.798  1.0706 -2.2074 -0.1853
    6CHL1  H21C  425   2.058   4.234   5.754  1.0872 -0.0019  1.7194
    6CHL1   C22  426   1.976   3.983   5.597 -0.4207 -0.6112 -0.4600
    6CHL1  H22A  427   1.960   3.874   5.583  2.3780 -1.1005 -0.5191
    6CHL1  H22B  428   1.880   4.038   5.609  0.3384  0.6391  0.1161
    6CHL1   C23  429   2.045   4.025   5.464 -0.5037  0.0095  0.6951
    6CHL1  H23A  430   2.048   4.133   5.441 -0.2705 -0.4264 -1.5466
    6CHL1  H23B  431   2.149   3.986   5.466  0.0168  1.3214  0.0797
    6CHL1   C24  432   1.973   3.965   5.334  0.6757  0.0718 -0.5612
    6CHL1  H24A  433   1.968   3.855   5.350  1.8342  0.1555  0.4923
    6CHL1  H24B  434   1.878   4.021   5.331  1.3040  1.1506 -0.8690
    6CHL1   C25  435   2.031   3.991   5.192 -0.3833  0.4203 -0.7111
    6CHL1   H25  436   2.138   3.967   5.204 -0.5658 -0.6862 -1.2671
    6CHL1   C26  437   1.970   3.904   5.086  0.6817  0.1387  0.3229
    6CHL1  H26A  438   1.969   3.796   5.110  1.5653 -0.5732 -2.4161
    6CHL1  H26B  439   1.867   3.937   5.061  0.8401  0.0413 -0.4887
    6CHL1  H26C  440   2.028   3.907   4.991  1.0798 -2.7207  0.4001
    6CHL1   C27  441   2.008   4.146   5.150 -0.4480  0.1876 -0.3389
    6CHL1  H27A  442   2.029   4.209   5.239 -0.8638  1.8454 -1.3777
    6CHL1  H27B  443   2.075   4.173   5.066  1.8935 -1.0562  1.0169
    6CHL1  H27C  444   1.903   4.162   5.115 -1.0293 -1.0705  0.7257
    7CHL1    C3  445   1.459   4.295   6.353 -0.8045  0.1531  0.5139
    7CHL1    H3  446   1.358   4.261   6.321 -0.4377 -0.7136  0.2413
    7CHL1    O3  447   1.469   4.286   6.496 -0.4928  0.1517  0.4434
    7CHL1   H3'  448   1.491   4.372   6.530  2.4024 -0.4560  0.3953
    7CHL1    C4  449   1.549   4.187   6.294  0.1888  0.3549 -0.2332
    7CHL1   H4A  450   1.654   4.201   6.327  0.5513  1.7303 -1.8144
    7CHL1   H4B  451   1.516   4.091   6.339 -0.7987  0.1433 -1.3522
    7CHL1    C5  452   1.536   4.183   6.144  1.0255 -0.3588 -0.5279
    7CHL1    C6  453   1.492   4.075   6.078  0.2804 -0.1545  0.1005
    7CHL1    H6  454   1.469   3.982   6.130 -0.3153 -1.0424 -1.6654
    7CHL1    C7  455   1.497   4.072   5.923  0.6512  0.3385 -0.0489
    7CHL1   H7A  456   1.537   3.973   5.893  0.6954 -0.0527  1.2378
    7CHL1   H7B  457   1.393   4.074   5.883  1.0499  3.4131 -1.1758
    7CHL1    C8  458   1.569   4.187   5.860  0.4148 -0.4640  0.0220
    7CHL1    H8  459   1.680   4.184   5.871  0.3720  1.4089  1.4567
    7CHL1   C14  460   1.535   4.187   5.711 -0.2971 -0.3234  0.5570
    7CHL1   H14  461   1.425   4.199   5.712 -0.1029  1.6712  0.8049
    7CHL1   C15  462   1.567   4.063   5.633 -0.3486  0.1538 -0.1074
    7CHL1  H15A  463   1.661   4.019   5.672 -1.0690 -0.7026  0.6994
    7CHL1  H15B  464   1.479   3.996   5.639 -0.0789 -0.0560  2.8948
    7CHL1   C16  465   1.585   4.106   5.489  0.1199 -0.0217  0.4431
    7CHL1  H16A  466   1.683   4.076   5.446 -0.1116 -1.1547  0.6854
    7CHL1  H16B  467   1.517   4.061   5.415  0.2097 -0.6778  0.7501
    7CHL1   C17  468   1.559   4.264   5.491  0.1818 -0.5710  0.3765
    7CHL1   H17  469   1.449   4.274   5.480  0.2604 -0.2536 -0.1690
    7CHL1   C13  470   1.591   4.309   5.638  0.2396  0.4718  0.2413
    7CHL1   C18  471   1.748   4.320   5.653 -0.0895  0.3534 -0.0480
    7CHL1  H18A  472   1.797   4.233   5.605  1.3804  0.0473  1.8508
    7CHL1  H18B  473   1.798   4.411   5.612  0.6761 -0.3511 -0.6982
    7CHL1  H18C  474   1.776   4.322   5.761 -0.6557 -0.8533  0.1239
    7CHL1   C12  475   1.534   4.434   5.700 -0.1588 -0.2811  0.2299
    7CHL1  H12A  476   1.575   4.523   5.649 -1.4890 -0.4948 -1.2805
    7CHL1  H12B  477   1.425   4.439   5.680 -0.2707 -1.8891  0.3056
    7CHL1   C11  478   1.561   4.446   5.847 -0.0046  0.3087  0.1122
    7CHL1  H11A  479   1.667   4.467   5.873 -0.4740 -0.4307  3.0469
    7CHL1  H11B  480   1.509   4.540   5.878  1.6711  1.2437  0.2016
    7CHL1    C9  481   1.518   4.317   5.922  0.4730 -0.2772  0.5915
    7CHL1    H9  482   1.407   4.318   5.915  0.5432 -0.0187 -0.8328
    7CHL1   C10  483   1.558   4.324   6.077 -0.6349  0.6516  0.8775
    7CHL1   C19  484   1.705   4.367   6.085 -0.4558 -0.7440  0.1954
    7CHL1  H19A  485   1.761   4.360   6.181 -0.2656 -1.6319  0.0242
    7CHL1  H19B  486   1.758   4.299   6.017 -1.1202  0.0169 -1.1197
    7CHL1  H19C  487   1.721   4.474   6.057 -5.0876 -0.4497 -2.3765
    7CHL1    C1  488   1.466   4.432   6.151 -0.4574  0.5423 -0.0591
    7CHL1   H1A  489   1.472   4.528   6.096  1.8490  0.6864  0.3739
    7CHL1   H1B  490   1.361   4.409   6.120 -1.6761  3.0353  1.8386
    7CHL1    C2  491   1.486   4.437   6.305  0.0060  1.0062  0.1461
    7CHL1   H2A  492   1.418   4.514   6.345 -2.2171 -0.9879  0.4024
    7CHL1   H2B  493   1.590   4.465   6.335  0.8365  0.1677 -1.7344
    7CHL1   C20  494   1.633   4.334   5.381 -0.5138  0.9095 -0.0831
    7CHL1   H20  495   1.742   4.325   5.400 -0.4590  2.0091  0.1842
    7CHL1   C21  496   1.590   4.482   5.369  0.0340  0.4535 -0.4808
    7CHL1  H21A  497   1.485   4.500   5.340  0.3034  1.8831 -0.6609
    7CHL1  H21B  498   1.645   4.524   5.282  0.2335 -0.4749 -0.8221
    7CHL1  H21C  499   1.622   4.531   5.463  0.2545 -2.4309  1.0654
    7CHL1   C22  500   1.607   4.265   5.247  0.2454  0.2919 -0.0600
    7CHL1  H22A  501   1.645   4.161   5.238  0.5326  0.4523 -0.7939
    7CHL1  H22B  502   1.498   4.257   5.225  0.6102 -0.0216 -1.9117
    7CHL1   C23  503   1.662   4.341   5.119  0.0882 -0.0366  0.1191
    7CHL1  H23A  504   1.618   4.441   5.103 -1.1520 -0.7483 -1.2015
    7CHL1  H23B  505   1.772   4.353   5.117  0.1064  0.0966 -2.8642
    7CHL1   C24  506   1.622   4.266   4.990  0.5585 -0.1073 -0.1941
    7CHL1  H24A  507   1.676   4.169   4.991  0.3571 -0.2246 -0.5038
    7CHL1  H24B  508   1.513   4.248   4.976  0.4915 -0.0040  0.1740
    7CHL1   C25  509   1.677   4.340   4.865  0.0292 -0.1526 -0.4271
    7CHL1   H25  510   1.631   4.441   4.865  0.2620 -0.0434 -0.9848
    7CHL1   C26  511   1.827   4.349   4.859 -0.3777  1.2847 -0.5608
    7CHL1  H26A  512   1.863   4.425   4.932 -1.0151 -0.7630  2.0816
    7CHL1  H26B  513   1.878   4.255   4.891  0.4927  1.5133 -1.2705
    7CHL1  H26C  514   1.855   4.376   4.755 -1.0175  0.5616 -0.9371
    7CHL1   C27  515   1.625   4.267   4.745 -0.4633  0.4029  0.0074
    7CHL1  H27A  516   1.515   4.275   4.729 -0.2162  1.7707 -1.1699
    7CHL1  H27B  517   1.671   4.304   4.651  2.1141 -1.4315  0.4382
    7CHL1  H27C  518   1.643   4.157   4.745  1.4367  0.6856  0.0239
    8CHL1    C3  519   5.546   3.749   6.689 -0.8882  0.6277 -0.6672
    8CHL1    H3  520   5.505   3.843   6.648  0.0363  0.1589 -2.7684
    8CHL1    O3  521   5.535   3.753   6.836 -0.1414 -0.3438  0.5364
    8CHL1   H3'  522   5.583   3.832   6.860 -0.8102  0.5326 -0.9001
    8CHL1    C4  523   5.465   3.638   6.623 -0.4717  0.4002  0.9393
    8CHL1   H4A  524   5.507   3.546   6.669 -0.9048 -0.1667  0.2139
    8CHL1   H4B  525   5.359   3.646   6.656 -0.8755 -0.1470 -0.1707
    8CHL1    C5  526   5.471   3.657   6.472  0.1775 -0.0377  0.0265
    8CHL1    C6  527   5.357   3.673   6.398  0.3424 -0.1382  0.4835
    8CHL1    H6  528   5.255   3.665   6.438  0.3808  0.9653  0.8268
    8CHL1    C7  529   5.365   3.670   6.246  0.4570  0.3369 -0.3378
    8CHL1   H7A  530   5.292   3.593   6.214 -0.1378  0.1989  1.2462
    8CHL1   H7B  531   5.350   3.773   6.208 -0.5239  0.3420  0.0224
    8CHL1    C8  532   5.508   3.627   6.190 -0.2833  0.7847  0.0032
    8CHL1    H8  533   5.527   3.518   6.201  0.5675  0.5944 -2.6113
    8CHL1   C14  534   5.525   3.673   6.046 -0.2526 -0.4917 -0.5213
    8CHL1   H14  535   5.524   3.783   6.039 -1.4359 -0.4196  0.5021
    8CHL1   C15  536   5.411   3.623   5.955  0.0788  0.3176 -0.5168
    8CHL1  H15A  537   5.377   3.522   5.984  0.0142  0.0645 -1.4367
    8CHL1  H15B  538   5.334   3.704   5.952 -0.2155  0.0101 -1.4419
    8CHL1   C16  539   5.476   3.611   5.821  0.4978  0.1078 -0.0106
    8CHL1  H16A  540   5.465   3.508   5.782  0.8573  0.4900 -1.1541
    8CHL1  H16B  541   5.416   3.682   5.759 -1.6257 -1.5957 -0.0189
    8CHL1   C17  542   5.622   3.648   5.830 -0.4236 -0.3279  0.0056
    8CHL1   H17  543   5.626   3.759   5.820 -0.0870 -0.3477 -0.1161
    8CHL1   C13  544   5.657   3.619   5.982  0.0037  0.0604  0.2741
    8CHL1   C18  545   5.682   3.475   6.008  0.2799 -0.2839  0.5165
    8CHL1  H18A  546   5.703   3.447   6.114 -2.8645 -2.3902  0.7249
    8CHL1  H18B  547   5.604   3.400   5.984  0.7736 -0.6141 -0.0746
    8CHL1  H18C  548   5.771   3.442   5.951 -0.0731 -0.3577  0.0030
    8CHL1   C12  549   5.769   3.700   6.052  0.3233 -0.0260 -0.0975
    8CHL1  H12A  550   5.872   3.682   6.013 -0.0324 -0.2182 -0.9705
    8CHL1  H12B  551   5.749   3.807   6.032 -3.7013 -0.6886 -0.4857
    8CHL1   C11  552   5.769   3.688   6.209 -0.1571 -0.5801  0.4059
    8CHL1  H11A  553   5.823   3.593   6.233  0.4445 -0.5532 -0.7674
    8CHL1  H11B  554   5.834   3.770   6.247  0.8141 -0.7379 -0.8407
    8CHL1    C9  555   5.628   3.687   6.273  0.0748 -0.3148 -0.1965
    8CHL1    H9  556   5.599   3.794   6.265 -2.2920 -1.0091 -2.3534
    8CHL1   C10  557   5.614   3.645   6.420 -1.0693 -0.2785 -0.2935
    8CHL1   C19  558   5.680   3.503   6.441  0.8838  0.3610  0.1731
    8CHL1  H19A  559   5.682   3.469   6.546 -0.4833  0.7846  0.3524
    8CHL1  H19B  560   5.623   3.428   6.381 -1.4163  1.1291  1.2810
    8CHL1  H19C  561   5.784   3.495   6.402  0.2790 -1.6932 -1.1587
    8CHL1    C1  562   5.706   3.753   6.495  0.5618  0.0506  0.4971
    8CHL1   H1A  563   5.807   3.718   6.463  0.4482  0.6146 -0.5369
    8CHL1   H1B  564   5.693   3.852   6.447  1.2059 -0.7818 -1.4896
    8CHL1    C2  565   5.691   3.758   6.648 -0.1344 -0.1705  0.1620
    8CHL1   H2A  566   5.737   3.851   6.686 -4.6845  2.3961  0.0880
    8CHL1   H2B  567   5.748   3.674   6.693  0.6152  0.1092 -0.2571
    8CHL1   C20  568   5.706   3.591   5.719  0.3362  0.6166 -0.2736
    8CHL1   H20  569   5.702   3.480   5.721 -1.0033  0.6386  1.3987
    8CHL1   C21  570   5.860   3.625   5.732  0.7035  0.2325  0.0616
    8CHL1  H21A  571   5.901   3.581   5.826  1.5423  0.0382 -0.3817
    8CHL1  H21B  572   5.878   3.734   5.725 -0.8535  0.4682 -0.6265
    8CHL1  H21C  573   5.908   3.570   5.648  1.9516  0.4529  0.6045
    8CHL1   C22  574   5.658   3.642   5.578 -0.5095 -0.0473  0.1522
    8CHL1  H22A  575   5.549   3.624   5.580 -0.2683 -1.6218  0.4625
    8CHL1  H22B  576   5.675   3.749   5.555 -0.0198  0.1137  1.2038
    8CHL1   C23  577   5.720   3.569   5.462  0.5445  0.7801  0.1898
    8CHL1  H23A  578   5.830   3.567   5.475  0.2751 -0.6504  2.9357
    8CHL1  H23B  579   5.686   3.463   5.458  0.7134  0.7414 -0.4312
    8CHL1   C24  580   5.671   3.617   5.330  0.1789 -0.1396  0.3966
    8CHL1  H24A  581   5.564   3.601   5.304 -0.0102  0.6232  0.6866
    8CHL1  H24B  582   5.672   3.728   5.328 -0.8264 -0.1253  0.2074
    8CHL1   C25  583   5.750   3.541   5.217  0.2090 -0.3657  0.2737
    8CHL1   H25  584   5.858   3.561   5.230  0.0585 -0.9080  2.7942
    8CHL1   C26  585   5.737   3.385   5.215  0.4588 -0.5446 -0.3448
    8CHL1  H26A  586   5.817   3.348   5.148 -0.1282 -1.5279 -0.5193
    8CHL1  H26B  587   5.753   3.335   5.313 -0.0170 -3.0274 -1.4595
    8CHL1  H26C  588   5.635   3.362   5.176  0.1481  0.2859 -0.0438
    8CHL1   C27  589   5.718   3.602   5.080 -0.6972 -0.0968  0.3532
    8CHL1  H27A  590   5.622   3.558   5.046 -2.1564  1.4557  2.2089
    8CHL1  H27B  591   5.709   3.713   5.088  0.5658 -0.0911  2.3144
    8CHL1  H27C  592   5.799   3.578   5.007  0.3466 -0.8167  1.7185
    9CHL1    C3  593   3.241   5.009   6.258  0.0104 -0.1982  0.4057
    9CHL1    H3  594   3.186   4.912   6.258  0.7088 -0.7457 -2.9534
    9CHL1    O3  595   3.280   5.051   6.385 -0.3530  0.2895  0.5736
    9CHL1   H3'  596   3.290   5.146   6.384 -2.1072  0.5475  2.0915
    9CHL1    C4  597   3.366   4.993   6.172 -0.2885  0.1587 -0.6587
    9CHL1   H4A  598   3.439   5.076   6.181  1.7194 -1.3468 -2.0513
    9CHL1   H4B  599   3.422   4.906   6.214  0.9677  0.0954 -2.3542
    9CHL1    C5  600   3.340   4.959   6.025 -0.1970  0.1247 -0.7401
    9CHL1    C6  601   3.394   4.849   5.969  0.7268  0.5454  0.4001
    9CHL1    H6  602   3.460   4.774   6.015  1.1088  1.2071  0.9521
    9CHL1    C7  603   3.373   4.811   5.825  0.8778 -0.4332  0.2255
    9CHL1   H7A  604   3.470   4.770   5.789  0.9065 -0.3811  0.2431
    9CHL1   H7B  605   3.299   4.728   5.818 -1.8589  1.5451  3.1056
    9CHL1    C8  606   3.330   4.931   5.736  0.6697  0.0248  0.0999
    9CHL1    H8  607   3.415   5.000   5.717 -0.4176  1.2261 -0.5559
    9CHL1   C14  608   3.282   4.883   5.602 -0.0757 -0.2460  0.0174
    9CHL1   H14  609   3.199   4.811   5.617  1.4330 -2.7018 -2.4800
    9CHL1   C15  610   3.378   4.814   5.502 -0.5337  0.9776 -0.2234
    9CHL1  H15A  611   3.479   4.859   5.503 -0.1055  0.0692 -1.1500
    9CHL1  H15B  612   3.387   4.711   5.541 -0.8451  1.8148  2.2879
    9CHL1   C16  613   3.318   4.836   5.367 -0.0853 -0.0089 -0.1524
    9CHL1  H16A  614   3.390   4.886   5.299 -0.2392 -1.8408 -1.7460
    9CHL1  H16B  615   3.293   4.747   5.305 -0.1334  0.2387 -0.4867
    9CHL1   C17  616   3.196   4.930   5.388 -0.1103  0.2984 -0.0526
    9CHL1   H17  617   3.112   4.858   5.396 -0.3806  0.7139  1.1246
    9CHL1   C13  618   3.225   4.995   5.522  0.8562  0.5896  0.4346
    9CHL1   C18  619   3.326   5.103   5.487 -0.8354  0.5446  0.7777
    9CHL1  H18A  620   3.266   5.188   5.450 -1.9802 -0.8787 -0.8102
    9CHL1  H18B  621   3.387   5.147   5.568  0.1735  1.2950 -0.3463
    9CHL1  H18C  622   3.399   5.070   5.409 -0.0740  0.5385  1.4848
    9CHL1   C12  623   3.098   5.051   5.585  0.6301 -0.0440  0.0410
    9CHL1  H12A  624   3.060   5.132   5.520  1.6699 -1.0627 -1.9248
    9CHL1  H12B  625   3.017   4.978   5.607  1.1346 -1.1402 -1.5615
    9CHL1   C11  626   3.133   5.107   5.724 -0.6419 -0.0078  0.2037
    9CHL1  H11A  627   3.192   5.200   5.713 -1.4022  0.3023 -1.7305
    9CHL1  H11B  628   3.044   5.134   5.785  0.0449  0.3027  1.0868
    9CHL1    C9  629   3.212   5.005   5.809 -0.4024 -0.0050 -0.2844
    9CHL1    H9  630   3.142   4.926   5.841  2.5344 -2.7294 -0.0704
    9CHL1   C10  631   3.255   5.068   5.951  1.2825  0.5689 -0.6173
    9CHL1   C19  632   3.352   5.183   5.929 -0.0707 -0.0378 -0.1214
    9CHL1  H19A  633   3.314   5.261   5.858  0.0464 -0.1228 -0.2784
    9CHL1  H19B  634   3.373   5.241   6.021  0.6335 -2.5471  1.3705
    9CHL1  H19C  635   3.447   5.157   5.878  0.0075 -2.3863  1.0913
    9CHL1    C1  636   3.126   5.100   6.043 -0.0495  0.3294  0.5795
    9CHL1   H1A  637   3.071   5.189   6.004 -2.0685 -1.0156  0.2182
    9CHL1   H1B  638   3.045   5.025   6.038  0.2698  0.0398 -1.7001
    9CHL1    C2  639   3.156   5.121   6.192 -0.0707 -0.5846  0.8385
    9CHL1   H2A  640   3.064   5.154   6.245  0.8065  3.7140  0.0333
    9CHL1   H2B  641   3.220   5.211   6.189 -0.0527 -0.5968  0.8682
    9CHL1   C20  642   3.149   5.017   5.269  0.2381 -0.7883 -0.3062
    9CHL1   H20  643   3.165   5.127   5.270  0.6406 -0.7925  2.7939
    9CHL1   C21  644   2.994   5.006   5.274  0.2820 -0.1610  0.2647
    9CHL1  H21A  645   2.935   5.062   5.198  1.3056 -0.1471 -0.5354
    9CHL1  H21B  646   2.958   5.049   5.370  0.0195  0.2754 -0.0247
    9CHL1  H21C  647   2.962   4.900   5.269  0.0036 -0.1039  0.7228
    9CHL1   C22  648   3.195   4.968   5.127  0.1060 -0.8314 -0.1278
    9CHL1  H22A  649   3.294   5.015   5.108 -0.8667  0.9995 -0.8373
    9CHL1  H22B  650   3.202   4.857   5.121  0.9238 -0.8548  0.8968
    9CHL1   C23  651   3.110   5.024   5.008  0.3705  0.6351 -0.3213
    9CHL1  H23A  652   3.018   4.962   5.005  0.4816  0.3792  0.9897
    9CHL1  H23B  653   3.088   5.130   5.028  1.9045  1.0741 -0.7924
    9CHL1   C24  654   3.189   5.024   4.874  0.2126  0.1834 -0.9041
    9CHL1  H24A  655   3.279   5.087   4.886  1.3114 -1.2709 -1.2257
    9CHL1  H24B  656   3.223   4.920   4.855  0.7386  0.1923 -0.0416
    9CHL1   C25  657   3.106   5.067   4.755  0.1338  0.0845  0.2095
    9CHL1   H25  658   3.066   5.168   4.778 -2.0743 -0.4101 -1.2517
    9CHL1   C26  659   3.195   5.097   4.637 -0.3680 -0.6878  0.1877
    9CHL1  H26A  660   3.258   5.186   4.659 -0.1683 -0.6868 -0.3644
    9CHL1  H26B  661   3.266   5.013   4.619  1.6269  0.8054  0.7190
    9CHL1  H26C  662   3.134   5.119   4.546  0.4956 -0.5749 -0.3756
    9CHL1   C27  663   2.996   4.962   4.710 -0.4103 -0.0268  0.8007
    9CHL1  H27A  664   2.940   4.929   4.801  0.3919  0.4084  1.4591
    9CHL1  H27B  665   2.924   5.020   4.648  1.8268  1.2136 -0.7487
    9CHL1  H27C  666   3.041   4.883   4.646  0.4014  1.0240  0.0536
   10CHL1    C3  667   3.231   0.576   6.056 -0.2128 -0.7934 -0.4800
   10CHL1    H3  668   3.125   0.552   6.080 -0.6357 -0.5731 -2.0604
   10CHL1    O3  669   3.292   0.624   6.171 -0.0821 -0.5110  0.3589
   10CHL1   H3'  670   3.311   0.541   6.217  0.9426 -0.9577 -0.8149
   10CHL1    C4  671   3.312   0.456   6.006  0.0873 -0.0767 -0.0769
   10CHL1   H4A  672   3.417   0.491   6.008  0.1221 -0.0086 -1.5501
   10CHL1   H4B  673   3.294   0.377   6.082  1.5136 -0.2052  0.1470
   10CHL1    C5  674   3.277   0.412   5.861  0.4988  0.1393 -0.0066
   10CHL1    C6  675   3.243   0.286   5.833  0.0722  0.2675 -0.3012
   10CHL1    H6  676   3.237   0.211   5.914 -2.1654  0.5329 -0.1757
   10CHL1    C7  677   3.211   0.236   5.694 -0.2980  0.1037 -0.8301
   10CHL1   H7A  678   3.262   0.141   5.667 -0.6773 -0.2631 -0.2713
   10CHL1   H7B  679   3.105   0.217   5.669 -0.2486  1.3661 -2.1018
   10CHL1    C8  680   3.254   0.344   5.594  0.6390 -0.2553  0.9927
   10CHL1    H8  681   3.366   0.343   5.595  0.6620  0.6144  0.2001
   10CHL1   C14  682   3.192   0.304   5.457 -0.3317  0.2612 -0.0183
   10CHL1   H14  683   3.083   0.310   5.473 -0.3724 -1.9458  0.9336
   10CHL1   C15  684   3.219   0.159   5.400 -0.0785 -0.2412 -0.1730
   10CHL1  H15A  685   3.326   0.131   5.405 -0.2990 -0.9099  1.2465
   10CHL1  H15B  686   3.142   0.099   5.452 -1.1919  1.6806  0.5132
   10CHL1   C16  687   3.188   0.172   5.251 -0.2573 -0.1438  1.0580
   10CHL1  H16A  688   3.283   0.144   5.200 -0.7835 -1.1223  0.5910
   10CHL1  H16B  689   3.101   0.115   5.212 -0.5217  1.2174 -0.4700
   10CHL1   C17  690   3.159   0.323   5.229  0.8435  0.5136  0.2756
   10CHL1   H17  691   3.049   0.337   5.234  0.6011 -1.4809  2.6651
   10CHL1   C13  692   3.222   0.400   5.343 -0.6737  0.4161 -0.1670
   10CHL1   C18  693   3.378   0.403   5.310  0.1146 -0.1061 -0.3193
   10CHL1  H18A  694   3.418   0.300   5.300  1.4071  0.3147  0.2817
   10CHL1  H18B  695   3.407   0.453   5.215 -0.4160  0.1288 -0.3616
   10CHL1  H18C  696   3.438   0.448   5.392 -1.3057  1.4140 -0.0587
   10CHL1   C12  697   3.169   0.540   5.380  0.1465 -0.5161 -0.4905
   10CHL1  H12A  698   3.204   0.600   5.293  1.0684 -0.8657 -0.3752
   10CHL1  H12B  699   3.059   0.552   5.390  0.3166  1.4420 -0.7099
   10CHL1   C11  700   3.237   0.587   5.506 -0.2088  0.7207  0.4636
   10CHL1  H11A  701   3.346   0.593   5.484 -0.6690 -1.3146 -3.3265
   10CHL1  H11B  702   3.208   0.691   5.532  1.5084  2.0319 -2.3236
   10CHL1    C9  703   3.218   0.486   5.629  0.2927 -0.7882 -0.7899
   10CHL1    H9  704   3.108   0.491   5.641  0.5023  1.2170  0.6832
   10CHL1   C10  705   3.265   0.537   5.769  0.5094 -0.8397  0.1969
   10CHL1   C19  706   3.417   0.583   5.749 -0.0194  0.3945  0.0522
   10CHL1  H19A  707   3.462   0.618   5.845  0.1001  1.3001 -0.3257
   10CHL1  H19B  708   3.489   0.507   5.711 -2.7884 -3.1459  1.3216
   10CHL1  H19C  709   3.411   0.667   5.677 -1.2163  2.1972  2.1307
   10CHL1    C1  710   3.178   0.652   5.823  0.2304 -0.5774  0.1655
   10CHL1   H1A  711   3.195   0.738   5.755  2.9672 -0.1314  1.2674
   10CHL1   H1B  712   3.070   0.629   5.814  0.2815 -0.4256 -1.0816
   10CHL1    C2  713   3.224   0.700   5.958 -0.1905  0.1275 -0.2436
   10CHL1   H2A  714   3.146   0.771   5.993 -0.4626 -0.5795  0.6450
   10CHL1   H2B  715   3.327   0.741   5.948  1.5312 -2.9231  2.7271
   10CHL1   C20  716   3.194   0.372   5.081 -0.6283  0.4624  0.3008
   10CHL1   H20  717   3.304   0.367   5.067 -0.8694 -0.2724 -1.6679
   10CHL1   C21  718   3.146   0.514   5.056  0.7236 -0.2477  0.3438
   10CHL1  H21A  719   3.084   0.520   4.964 -0.6054 -0.5234  1.1945
   10CHL1  H21B  720   3.220   0.597   5.055  0.4158  0.0273  0.1606
   10CHL1  H21C  721   3.067   0.550   5.125 -1.9946 -1.1494 -2.0530
   10CHL1   C22  722   3.136   0.273   4.979 -0.2229  0.0446  0.0894
   10CHL1  H22A  723   3.196   0.179   4.986  1.9343  1.0566 -2.8087
   10CHL1  H22B  724   3.033   0.239   4.998 -0.6953  0.7427 -1.1248
   10CHL1   C23  725   3.149   0.319   4.828  0.3634 -0.5695 -0.3592
   10CHL1  H23A  726   3.070   0.391   4.799 -0.5284 -0.8835  1.1985
   10CHL1  H23B  727   3.246   0.373   4.820 -0.2463  0.8152  1.0404
   10CHL1   C24  728   3.150   0.212   4.718 -0.0168 -0.3390  1.0185
   10CHL1  H24A  729   3.214   0.264   4.644 -0.5503  0.0779  0.8426
   10CHL1  H24B  730   3.214   0.124   4.741 -0.1097 -0.4440  0.8780
   10CHL1   C25  731   3.012   0.175   4.674 -0.1412 -0.9017 -0.4351
   10CHL1   H25  732   2.962   0.268   4.639  0.2580 -0.2782  0.5836
   10CHL1   C26  733   3.020   0.089   4.552 -0.1342 -0.9305  0.7268
   10CHL1  H26A  734   2.919   0.069   4.511  0.8248 -0.6141 -2.0537
   10CHL1  H26B  735   3.081   0.141   4.475 -1.4105 -0.4348  0.0178
   10CHL1  H26C  736   3.063  -0.012   4.566  1.7604 -0.5304 -1.4776
   10CHL1   C27  737   2.932   0.108   4.781 -0.5260  0.2258 -1.1818
   10CHL1  H27A  738   2.844   0.054   4.741 -0.2973 -1.3033  0.2778
   10CHL1  H27B  739   2.987   0.037   4.847 -0.3736  1.3911 -0.0087
   10CHL1  H27C  740   2.895   0.189   4.848  0.4782  2.3369 -3.0694
   11CHL1    C3  741   0.463   3.464   6.646 -0.1195  0.5080  0.6669
   11CHL1    H3  742   0.423   3.552   6.591  0.1115  0.0814 -0.1881
   11CHL1    O3  743   0.472   3.481   6.787  0.2143 -0.8636 -0.3872
   11CHL1   H3'  744   0.500   3.397   6.823 -0.0318  0.5912  3.6796
   11CHL1    C4  745   0.375   3.336   6.623  0.6054 -0.4101 -0.3107
   11CHL1   H4A  746   0.433   3.252   6.666  0.7494  0.0241  0.3558
   11CHL1   H4B  747   0.285   3.351   6.687  0.7095 -0.7814 -0.0730
   11CHL1    C5  748   0.355   3.331   6.478  1.0263 -0.1300  0.6385
   11CHL1    C6  749   0.231   3.341   6.433  0.5409 -0.2655 -0.6416
   11CHL1    H6  750   0.147   3.356   6.502  1.0981  1.4546 -0.2914
   11CHL1    C7  751   0.190   3.335   6.291  0.3123  0.0279 -0.2471
   11CHL1   H7A  752   0.101   3.268   6.283  0.8624 -1.0623  1.9714
   11CHL1   H7B  753   0.163   3.439   6.263  0.1948  0.1004  0.1215
   11CHL1    C8  754   0.304   3.278   6.203  1.0787  0.1415 -1.5114
   11CHL1    H8  755   0.306   3.167   6.211 -2.4340 -0.0079 -0.9907
   11CHL1   C14  756   0.265   3.303   6.065 -0.6191  0.3800  0.4625
   11CHL1   H14  757   0.252   3.414   6.061  1.5461  0.6701 -0.2629
   11CHL1   C15  758   0.135   3.245   6.006 -0.0540  0.3172 -1.2607
   11CHL1  H15A  759   0.128   3.135   6.022 -0.6058  0.6678  1.2697
   11CHL1  H15B  760   0.043   3.288   6.051  0.5508  0.7777 -0.4392
   11CHL1   C16  761   0.147   3.291   5.859  0.1712  0.8628 -0.3735
   11CHL1  H16A  762   0.110   3.209   5.794 -0.4863  2.3593 -1.9758
   11CHL1  H16B  763   0.084   3.377   5.827 -0.1584 -0.5297 -3.8466
   11CHL1   C17  764   0.294   3.319   5.832 -0.1657  0.3187  0.1702
   11CHL1   H17  765   0.304   3.429   5.836  1.4933  0.1823  0.5302
   11CHL1   C13  766   0.374   3.274   5.958 -0.2551  0.2009  0.1271
   11CHL1   C18  767   0.401   3.117   5.952 -0.1928 -1.0671 -0.1887
   11CHL1  H18A  768   0.494   3.102   5.892  1.0333  0.5128  1.2352
   11CHL1  H18B  769   0.427   3.069   6.048 -0.2092 -2.3887 -0.8187
   11CHL1  H18C  770   0.321   3.053   5.908 -1.9534  1.3911 -0.7787
   11CHL1   C12  771   0.498   3.347   5.997 -0.1261  0.6776 -0.7443
   11CHL1  H12A  772   0.583   3.313   5.934  0.1461  0.1820 -0.1147
   11CHL1  H12B  773   0.482   3.457   5.995  1.1917  0.9518  1.2496
   11CHL1   C11  774   0.545   3.304   6.140 -0.4832  0.1499  0.0150
   11CHL1  H11A  775   0.570   3.196   6.141 -1.9024 -0.2317 -1.4326
   11CHL1  H11B  776   0.635   3.365   6.164 -0.8897  0.3995  0.9267
   11CHL1    C9  777   0.435   3.337   6.249 -0.2087 -0.5003 -0.5789
   11CHL1    H9  778   0.419   3.447   6.247 -1.0629 -0.4976  2.3720
   11CHL1   C10  779   0.484   3.325   6.394 -0.6270  0.0231  0.5463
   11CHL1   C19  780   0.553   3.195   6.412 -0.1652  0.3000  0.3585
   11CHL1  H19A  781   0.584   3.181   6.518  0.2793  0.4267  0.2498
   11CHL1  H19B  782   0.485   3.110   6.388  1.3540 -0.5204 -1.3334
   11CHL1  H19C  783   0.641   3.189   6.343 -0.8656  0.5937 -0.5791
   11CHL1    C1  784   0.579   3.442   6.431  0.1738 -0.8302  0.4262
   11CHL1   H1A  785   0.666   3.412   6.369  1.1418 -1.7543  2.1580
   11CHL1   H1B  786   0.554   3.545   6.397 -2.6965 -1.8795 -1.0035
   11CHL1    C2  787   0.599   3.448   6.584  0.2047  0.1991  0.2997
   11CHL1   H2A  788   0.659   3.541   6.597  2.8060 -1.7075  3.2525
   11CHL1   H2B  789   0.659   3.362   6.620 -2.0122 -1.5666 -0.0077
   11CHL1   C20  790   0.340   3.276   5.691  0.4189 -0.4706 -0.1234
   11CHL1   H20  791   0.316   3.167   5.686 -0.2476 -0.3966  1.0001
   11CHL1   C21  792   0.489   3.307   5.667  0.0388 -1.1081  1.3702
   11CHL1  H21A  793   0.556   3.248   5.733  2.8639 -0.3783 -0.6241
   11CHL1  H21B  794   0.498   3.416   5.691  0.2637 -0.9415  0.5684
   11CHL1  H21C  795   0.512   3.272   5.564 -1.0655  1.3243  0.1921
   11CHL1   C22  796   0.252   3.330   5.572 -0.1109  0.2006 -0.5043
   11CHL1  H22A  797   0.151   3.351   5.611  1.1200  0.3818  2.9346
   11CHL1  H22B  798   0.300   3.429   5.556 -0.0285  0.6527  2.0591
   11CHL1   C23  799   0.255   3.236   5.449  0.3177  0.3203 -0.0818
   11CHL1  H23A  800   0.355   3.214   5.408  1.3025  3.2781  0.5025
   11CHL1  H23B  801   0.206   3.140   5.479 -3.5650  1.9028 -0.8016
   11CHL1   C24  802   0.163   3.296   5.341  0.4987  0.3176  0.7120
   11CHL1  H24A  803   0.065   3.325   5.384  0.0689  0.2370 -0.1887
   11CHL1  H24B  804   0.219   3.384   5.301 -0.1448 -0.8565 -3.2299
   11CHL1   C25  805   0.143   3.197   5.217  0.3271 -0.5314 -0.2419
   11CHL1   H25  806   0.242   3.163   5.181  1.1759 -0.2517  1.7191
   11CHL1   C26  807   0.047   3.079   5.258 -0.5074 -0.0172 -0.6328
   11CHL1  H26A  808   0.098   3.014   5.332 -0.5112 -2.3169 -2.5471
   11CHL1  H26B  809  -0.050   3.117   5.299 -0.4341  3.0053 -2.9295
   11CHL1  H26C  810   0.021   3.011   5.174 -1.4637  0.2691 -0.5890
   11CHL1   C27  811   0.073   3.283   5.112  0.3344 -0.3644  0.5307
   11CHL1  H27A  812   0.153   3.353   5.080 -0.1381  0.2514  0.6688
   11CHL1  H27B  813   0.042   3.217   5.028 -1.5407  0.4921  0.5192
   11CHL1  H27C  814  -0.011   3.343   5.153  1.2017  1.8993 -0.8553
   12CHL1    C3  815   0.833   2.801   6.501 -0.1667 -0.0049 -0.0059
   12CHL1    H3  816   0.891   2.895   6.493  1.5506 -0.9570  0.6056
   12CHL1    O3  817   0.794   2.783   6.632 -0.5993 -0.5049  0.2093
   12CHL1   H3'  818   0.773   2.872   6.659  0.2440  0.0069 -0.7323
   12CHL1    C4  819   0.709   2.823   6.411  0.2475  1.0917  0.4161
   12CHL1   H4A  820   0.630   2.751   6.443 -0.7900  1.3020 -1.5347
   12CHL1   H4B  821   0.668   2.922   6.442  1.1071  1.1748  1.3478
   12CHL1    C5  822   0.745   2.827   6.261  0.2707  0.0038  0.0224
   12CHL1    C6  823   0.694   2.929   6.188 -1.3095  0.2815  0.1405
   12CHL1    H6  824   0.626   2.995   6.244 -1.2128  0.7292 -0.2619
   12CHL1    C7  825   0.723   2.937   6.037  0.2432 -0.2791  0.1656
   12CHL1   H7A  826   0.633   2.970   5.981 -0.2382 -0.9507  0.5342
   12CHL1   H7B  827   0.799   3.015   6.016  1.5370 -1.5502  0.0499
   12CHL1    C8  828   0.771   2.807   5.979 -0.0147  0.5203 -0.0621
   12CHL1    H8  829   0.688   2.733   5.980  1.7055 -1.5243 -0.5369
   12CHL1   C14  830   0.826   2.825   5.836 -0.1751  0.1879 -0.1678
   12CHL1   H14  831   0.906   2.900   5.850 -1.0302  0.5480  4.0750
   12CHL1   C15  832   0.742   2.906   5.730  0.1491  0.0137  0.2872
   12CHL1  H15A  833   0.640   2.861   5.729 -0.6094  1.6915  0.2855
   12CHL1  H15B  834   0.740   3.014   5.756 -1.6942 -0.0892  0.7332
   12CHL1   C16  835   0.819   2.879   5.595  0.0380 -0.6782 -0.5566
   12CHL1  H16A  836   0.738   2.848   5.526 -0.7727 -0.4535  0.2501
   12CHL1  H16B  837   0.870   2.964   5.544  0.4249 -0.4475  0.1920
   12CHL1   C17  838   0.914   2.765   5.624 -0.3435  0.4689  0.1495
   12CHL1   H17  839   1.013   2.814   5.638 -0.8433  1.6741 -0.3508
   12CHL1   C13  840   0.873   2.708   5.761 -0.4107  0.2284 -0.6175
   12CHL1   C18  841   0.758   2.604   5.747  0.6605  0.3271  0.0860
   12CHL1  H18A  842   0.792   2.505   5.709 -0.9434 -0.3892  0.4238
   12CHL1  H18B  843   0.714   2.584   5.847 -1.6697 -0.7889 -1.0800
   12CHL1  H18C  844   0.682   2.649   5.679  1.3851 -1.1437 -1.8107
   12CHL1   C12  845   0.995   2.657   5.843 -0.1132 -0.7901 -0.5244
   12CHL1  H12A  846   1.038   2.572   5.787  0.5533 -1.7062  1.2802
   12CHL1  H12B  847   1.064   2.744   5.843 -1.6963  0.5170 -0.6388
   12CHL1   C11  848   0.957   2.624   5.997  0.2296  0.8867  0.0892
   12CHL1  H11A  849   0.889   2.536   6.005 -0.0625  0.8469 -2.2693
   12CHL1  H11B  850   1.049   2.590   6.051 -0.0296 -1.2395 -0.7066
   12CHL1    C9  851   0.882   2.743   6.065 -0.5262  0.1105 -0.1325
   12CHL1    H9  852   0.958   2.821   6.085  1.2257 -1.5534  0.0340
   12CHL1   C10  853   0.836   2.716   6.213  0.0914  0.3340 -0.6978
   12CHL1   C19  854   0.771   2.578   6.224  0.1214 -0.4124  0.8990
   12CHL1  H19A  855   0.705   2.558   6.137  0.3738  2.9398 -0.1915
   12CHL1  H19B  856   0.854   2.504   6.227 -0.1198 -0.6735  2.5283
   12CHL1  H19C  857   0.705   2.563   6.312 -0.4150 -1.3462  0.3574
   12CHL1    C1  858   0.954   2.706   6.312 -0.6510 -0.6362 -0.1330
   12CHL1   H1A  859   1.024   2.635   6.265  2.3294  1.1995  1.1684
   12CHL1   H1B  860   1.005   2.805   6.317 -1.6057 -0.1905  1.8984
   12CHL1    C2  861   0.918   2.686   6.463 -0.0133 -0.2799 -0.7204
   12CHL1   H2A  862   1.009   2.687   6.526  0.2665  3.1742 -0.9742
   12CHL1   H2B  863   0.861   2.594   6.488 -0.3101  0.2917  0.7790
   12CHL1   C20  864   0.939   2.666   5.501  0.7322 -0.2579  0.0502
   12CHL1   H20  865   0.985   2.573   5.541  1.2406 -0.0005  0.0743
   12CHL1   C21  866   1.038   2.740   5.417  0.1431 -0.3689  0.4583
   12CHL1  H21A  867   1.131   2.765   5.473 -0.1598  0.8244  0.4601
   12CHL1  H21B  868   0.989   2.832   5.380 -2.3681 -1.8669 -0.1965
   12CHL1  H21C  869   1.081   2.681   5.333 -0.4000 -0.7869  0.4719
   12CHL1   C22  870   0.824   2.620   5.417  0.3063 -0.5325 -0.1716
   12CHL1  H22A  871   0.731   2.595   5.473  0.8167  0.9237  1.4263
   12CHL1  H22B  872   0.785   2.695   5.345  1.4726 -0.9129 -1.2205
   12CHL1   C23  873   0.847   2.489   5.341  0.3112  0.2649  0.3409
   12CHL1  H23A  874   0.936   2.496   5.276 -0.6232 -1.4797 -1.2228
   12CHL1  H23B  875   0.870   2.413   5.419 -0.4972 -2.3111 -1.7888
   12CHL1   C24  876   0.725   2.437   5.258 -0.3521 -0.4892 -0.0213
   12CHL1  H24A  877   0.626   2.429   5.307 -0.7729 -0.8245 -0.9108
   12CHL1  H24B  878   0.712   2.512   5.177  1.1395  1.7022  1.6239
   12CHL1   C25  879   0.744   2.293   5.203 -0.6057 -0.7932  0.2028
   12CHL1   H25  880   0.749   2.225   5.290  2.7396  0.7632  1.3986
   12CHL1   C26  881   0.629   2.255   5.109  0.1141  0.2022 -0.5461
   12CHL1  H26A  882   0.643   2.152   5.071  1.1141  0.5522 -1.1710
   12CHL1  H26B  883   0.528   2.264   5.155 -0.2428  0.3354 -1.3334
   12CHL1  H26C  884   0.624   2.325   5.023  0.1230 -0.7209 -1.3176
   12CHL1   C27  885   0.879   2.284   5.133  0.1110  0.3926 -0.5205
   12CHL1  H27A  886   0.962   2.295   5.206  0.4490 -0.8468 -0.6829
   12CHL1  H27B  887   0.887   2.185   5.083  0.5248 -0.3859  1.0452
   12CHL1  H27C  888   0.904   2.364   5.060  0.5730  1.4483  0.7588
   13CHL1    C3  889   0.182   2.683   6.648  0.2351  0.2908 -0.4803
   13CHL1    H3  890   0.114   2.598   6.630  0.3876  0.0378  0.1164
   13CHL1    O3  891   0.185   2.701   6.789 -0.7417 -0.2168  0.3554
   13CHL1   H3'  892   0.247   2.633   6.818 -1.4042 -1.4699 -1.0253
   13CHL1    C4  893   0.323   2.648   6.596 -0.3317 -0.2030 -0.4908
   13CHL1   H4A  894   0.404   2.717   6.627  0.8514 -3.0281  3.5709
   13CHL1   H4B  895   0.357   2.557   6.648 -0.6877 -2.2442 -3.5949
   13CHL1    C5  896   0.335   2.639   6.444  0.6245 -0.6477  0.8998
   13CHL1    C6  897   0.379   2.528   6.389 -0.2270  0.5623  0.5535
   13CHL1    H6  898   0.413   2.442   6.449 -1.9034 -0.6834 -0.2148
   13CHL1    C7  899   0.379   2.507   6.243  0.0005 -0.1282  0.3052
   13CHL1   H7A  900   0.482   2.473   6.220 -0.0854  0.1087 -0.4540
   13CHL1   H7B  901   0.310   2.425   6.217  0.9752 -0.8393 -0.0955
   13CHL1    C8  902   0.348   2.633   6.158 -0.0652 -0.5269  0.1129
   13CHL1    H8  903   0.441   2.693   6.154  0.6736 -1.6726 -3.3102
   13CHL1   C14  904   0.311   2.591   6.020  0.2732 -0.4227 -0.0702
   13CHL1   H14  905   0.224   2.524   6.037  0.3974 -0.5966 -0.1266
   13CHL1   C15  906   0.411   2.501   5.933  0.8781  0.3390 -0.0342
   13CHL1  H15A  907   0.514   2.540   5.942  1.3201 -0.2751 -1.9581
   13CHL1  H15B  908   0.417   2.394   5.963 -0.3731 -0.1327 -1.3321
   13CHL1   C16  909   0.353   2.526   5.788  0.5504 -1.4193  0.2221
   13CHL1  H16A  910   0.441   2.547   5.723 -0.7207 -2.0152 -1.7908
   13CHL1  H16B  911   0.298   2.439   5.747  0.0855 -1.8319  1.6889
   13CHL1   C17  912   0.242   2.641   5.802 -0.2718 -0.6754  0.8291
   13CHL1   H17  913   0.152   2.575   5.810  1.1976 -2.7600  0.9180
   13CHL1   C13  914   0.276   2.714   5.931 -0.0221 -0.0501  0.6303
   13CHL1   C18  915   0.407   2.796   5.893 -0.2848  0.3632  0.3024
   13CHL1  H18A  916   0.381   2.875   5.820  0.8046  1.7180  1.3325
   13CHL1  H18B  917   0.442   2.855   5.980 -2.5579  0.7503  1.0323
   13CHL1  H18C  918   0.486   2.728   5.854  0.5242  1.2214  0.4116
   13CHL1   C12  919   0.151   2.790   5.987 -0.2994  0.0850 -0.1258
   13CHL1  H12A  920   0.132   2.877   5.920 -1.4604 -1.6840 -2.2357
   13CHL1  H12B  921   0.066   2.719   5.978 -1.1481  0.9986  0.4676
   13CHL1   C11  922   0.170   2.827   6.129 -0.3823  0.0401 -0.0177
   13CHL1  H11A  923   0.242   2.910   6.142 -0.5117  0.0738  0.5235
   13CHL1  H11B  924   0.074   2.862   6.174  0.1921  0.5017  0.8775
   13CHL1    C9  925   0.228   2.709   6.216 -0.3612 -0.1109 -1.0070
   13CHL1    H9  926   0.145   2.637   6.233  1.0870 -1.4731  0.5422
   13CHL1   C10  927   0.260   2.750   6.362 -0.0835  0.1835 -0.8248
   13CHL1   C19  928   0.361   2.865   6.376 -0.0421  0.0224 -0.3683
   13CHL1  H19A  929   0.395   2.884   6.480 -0.0786 -0.1369 -0.3277
   13CHL1  H19B  930   0.454   2.847   6.316  1.6338 -0.9099  2.3316
   13CHL1  H19C  931   0.315   2.963   6.351 -0.1736  0.9285  3.0016
   13CHL1    C1  932   0.130   2.793   6.436 -0.5765 -0.0995 -0.9604
   13CHL1   H1A  933   0.093   2.892   6.402  0.0453  0.6271  0.3942
   13CHL1   H1B  934   0.050   2.724   6.403 -1.1054  0.5961 -1.1574
   13CHL1    C2  935   0.131   2.809   6.588  0.4704 -0.3864 -0.1412
   13CHL1   H2A  936   0.032   2.825   6.636 -0.7764 -0.0367 -2.6820
   13CHL1   H2B  937   0.195   2.890   6.630  0.7789 -1.3699  1.4007
   13CHL1   C20  938   0.225   2.728   5.668  0.0626 -0.2724  0.1748
   13CHL1   H20  939   0.218   2.830   5.711 -1.1275 -0.2292 -0.0652
   13CHL1   C21  940   0.100   2.672   5.600 -0.2372  0.1954  0.1541
   13CHL1  H21A  941   0.023   2.657   5.679 -0.3158  1.1463  0.2769
   13CHL1  H21B  942   0.117   2.574   5.551  0.7319  1.5957 -2.4933
   13CHL1  H21C  943   0.058   2.742   5.524  2.2736 -0.2909 -1.8087
   13CHL1   C22  944   0.345   2.726   5.572  0.0619 -0.0101 -0.3210
   13CHL1  H22A  945   0.442   2.748   5.621  0.0222 -1.5934  0.5353
   13CHL1  H22B  946   0.346   2.625   5.526 -2.0639  0.8095 -2.3347
   13CHL1   C23  947   0.333   2.831   5.456  0.2474 -0.0803 -0.0680
   13CHL1  H23A  948   0.249   2.797   5.392  0.9227  0.3379 -1.2014
   13CHL1  H23B  949   0.296   2.923   5.506 -0.4996  0.1362 -0.9908
   13CHL1   C24  950   0.466   2.847   5.385 -0.6366 -0.1928  0.5430
   13CHL1  H24A  951   0.522   2.923   5.443 -2.1787  0.3103  1.4020
   13CHL1  H24B  952   0.506   2.743   5.385 -3.8352 -1.5428  0.3054
   13CHL1   C25  953   0.449   2.915   5.237 -0.3518 -0.3842 -0.3180
   13CHL1   H25  954   0.387   3.007   5.244 -0.7610 -0.4442 -2.4444
   13CHL1   C26  955   0.591   2.965   5.177 -0.0126  0.2406  0.8216
   13CHL1  H26A  956   0.646   2.869   5.170 -0.0295  0.3749 -2.3605
   13CHL1  H26B  957   0.583   3.017   5.079  0.0792  1.4937  1.4514
   13CHL1  H26C  958   0.650   3.028   5.248  1.0298  0.8159 -0.5218
   13CHL1   C27  959   0.372   2.822   5.144 -0.0989  0.1125  0.2562
   13CHL1  H27A  960   0.351   2.873   5.048 -0.7873  0.4816  0.5992
   13CHL1  H27B  961   0.409   2.717   5.133 -4.2562 -1.6488  1.2293
   13CHL1  H27C  962   0.274   2.787   5.184  0.8732  0.0630  2.7394
   14CHL1    C3  963   0.783   0.460   6.124 -0.0683  0.5995 -0.4004
   14CHL1    H3  964   0.838   0.415   6.039 -0.6554  1.2505 -1.1500
   14CHL1    O3  965   0.857   0.429   6.236  0.3841  0.3151  0.1947
   14CHL1   H3'  966   0.803   0.446   6.313  1.3709  0.6027  0.8524
   14CHL1    C4  967   0.774   0.608   6.110  0.4732  0.7218  0.8319
   14CHL1   H4A  968   0.739   0.649   6.207 -2.8155 -0.9636  0.4996
   14CHL1   H4B  969   0.877   0.648   6.099  1.1436 -1.0887  0.0776
   14CHL1    C5  970   0.672   0.651   6.003 -0.8461 -0.9615  0.0922
   14CHL1    C6  971   0.717   0.747   5.923  0.7495 -0.7497  0.0742
   14CHL1    H6  972   0.805   0.808   5.945  1.0452 -1.1211 -0.0605
   14CHL1    C7  973   0.645   0.796   5.807 -0.1933 -0.2720 -0.6122
   14CHL1   H7A  974   0.636   0.905   5.830  0.5845 -0.4543  0.6815
   14CHL1   H7B  975   0.712   0.779   5.720 -0.0415 -1.4002 -0.2831
   14CHL1    C8  976   0.504   0.746   5.798  0.4218  0.2054  0.1766
   14CHL1    H8  977   0.441   0.795   5.875  0.5382 -0.6638  0.8434
   14CHL1   C14  978   0.451   0.772   5.657 -0.4703  0.3116 -0.4496
   14CHL1   H14  979   0.510   0.711   5.586 -0.0626  0.1638  0.0150
   14CHL1   C15  980   0.467   0.913   5.597  0.3839  0.2753  0.0589
   14CHL1  H15A  981   0.431   0.991   5.668 -0.0951  0.2745 -0.1791
   14CHL1  H15B  982   0.571   0.934   5.566 -0.1017  0.7118 -1.3459
   14CHL1   C16  983   0.367   0.925   5.485 -0.2642 -0.0680 -0.8494
   14CHL1  H16A  984   0.317   1.024   5.491 -1.5472 -0.4549 -3.6345
   14CHL1  H16B  985   0.433   0.921   5.395  0.0007 -3.4985 -0.6422
   14CHL1   C17  986   0.282   0.796   5.489  0.0198 -0.7306  0.0441
   14CHL1   H17  987   0.324   0.722   5.418 -0.3863 -0.6779 -0.2543
   14CHL1   C13  988   0.299   0.738   5.631 -0.2500  0.9703 -0.4623
   14CHL1   C18  989   0.206   0.809   5.731  0.8718  0.4392  0.0828
   14CHL1  H18A  990   0.243   0.779   5.831  1.7884  2.5436  0.4169
   14CHL1  H18B  991   0.214   0.919   5.740  0.4238  0.3029  3.2524
   14CHL1  H18C  992   0.101   0.782   5.707  1.2101  0.2046 -1.2707
   14CHL1   C12  993   0.297   0.587   5.647 -0.3772 -0.5289 -0.4944
   14CHL1  H12A  994   0.192   0.554   5.638 -0.9416  0.7711  0.8474
   14CHL1  H12B  995   0.359   0.544   5.565 -2.4411  0.7836 -2.8722
   14CHL1   C11  996   0.358   0.535   5.784 -0.7621 -0.7605  0.7089
   14CHL1  H11A  997   0.279   0.541   5.863 -1.7569 -0.2140 -0.2965
   14CHL1  H11B  998   0.374   0.425   5.780 -1.6222 -0.8626 -0.5233
   14CHL1    C9  999   0.498   0.597   5.824 -0.1409 -0.1290 -0.1086
   14CHL1    H9 1000   0.577   0.554   5.758 -0.8205 -1.3672 -0.1405
   14CHL1   C10 1001   0.543   0.573   5.975  0.1918  0.2433  0.5682
   14CHL1   C19 1002   0.449   0.615   6.084 -0.3884  0.7982  0.3170
   14CHL1  H19A 1003   0.415   0.720   6.071 -2.0379  0.3055  0.3034
   14CHL1  H19B 1004   0.359   0.551   6.069  1.5422 -1.6266 -1.9008
   14CHL1  H19C 1005   0.482   0.612   6.189 -0.7394  0.0588  0.4108
   14CHL1    C1 1006   0.573   0.425   6.002  0.4967  0.5286  0.1665
   14CHL1   H1A 1007   0.480   0.362   6.004  2.2586 -2.2450  2.1267
   14CHL1   H1B 1008   0.648   0.382   5.933  2.6391 -0.7311  3.0773
   14CHL1    C2 1009   0.641   0.398   6.136  0.1412 -0.7451  0.0963
   14CHL1   H2A 1010   0.648   0.288   6.152  1.1383 -0.4235  2.0676
   14CHL1   H2B 1011   0.594   0.446   6.224  0.5227 -1.2857  0.6013
   14CHL1   C20 1012   0.139   0.845   5.450  0.7579  0.4507 -0.1859
   14CHL1   H20 1013   0.094   0.915   5.524 -1.9138 -1.0915 -0.2286
   14CHL1   C21 1014   0.043   0.722   5.456 -0.1342  0.9347  0.1092
   14CHL1  H21A 1015   0.038   0.683   5.560  0.4594 -0.7286 -0.4490
   14CHL1  H21B 1016   0.088   0.640   5.396 -1.3280  1.0083 -0.9249
   14CHL1  H21C 1017  -0.058   0.745   5.416  0.6905  0.2714 -2.5390
   14CHL1   C22 1018   0.134   0.912   5.312  0.5902  0.0902  0.0660
   14CHL1  H22A 1019   0.028   0.935   5.288  0.4085 -0.5622  0.2187
   14CHL1  H22B 1020   0.184   1.009   5.329  0.2998  0.0051  1.5539
   14CHL1   C23 1021   0.186   0.831   5.186  0.5516  0.5478  0.1513
   14CHL1  H23A 1022   0.285   0.786   5.207  0.6154 -0.2671 -1.7488
   14CHL1  H23B 1023   0.119   0.745   5.169  0.5295  0.3140  1.3445
   14CHL1   C24 1024   0.186   0.927   5.061 -0.4455  0.5179  0.0336
   14CHL1  H24A 1025   0.087   0.978   5.056 -1.4000 -0.8638  2.7853
   14CHL1  H24B 1026   0.274   0.987   5.091  0.3798 -2.0790  3.3434
   14CHL1   C25 1027   0.224   0.862   4.926 -0.4023 -0.0435 -0.6668
   14CHL1   H25 1028   0.140   0.798   4.888 -0.8976  1.9210 -3.1667
   14CHL1   C26 1029   0.241   0.983   4.831 -0.2180 -0.0702  0.6409
   14CHL1  H26A 1030   0.151   1.048   4.832 -2.4067 -2.9475  1.0768
   14CHL1  H26B 1031   0.323   1.045   4.875 -0.1054 -0.0562  0.4188
   14CHL1  H26C 1032   0.274   0.952   4.729 -1.8126 -0.0821  0.1111
   14CHL1   C27 1033   0.359   0.785   4.932  0.3448 -0.1675 -0.8000
   14CHL1  H27A 1034   0.449   0.847   4.952 -0.0808  0.6108 -1.2556
   14CHL1  H27B 1035   0.357   0.702   5.005 -1.8143 -1.1545 -1.8976
   14CHL1  H27C 1036   0.375   0.733   4.835 -0.0999 -3.4251  0.7522
   15CHL1    C3 1037   2.189   4.698   6.258  0.1604 -0.0643  0.1560
   15CHL1    H3 1038   2.122   4.771   6.210  0.2840 -0.5814 -0.8204
   15CHL1    O3 1039   2.172   4.703   6.396 -0.3069  0.5512 -0.6911
   15CHL1   H3' 1040   2.204   4.616   6.423  1.9546  0.9559 -1.8176
   15CHL1    C4 1041   2.149   4.564   6.199 -0.0204  0.3463  0.5300
   15CHL1   H4A 1042   2.206   4.476   6.235  1.3952  0.7245 -0.6795
   15CHL1   H4B 1043   2.048   4.542   6.239 -1.5234  2.1051 -1.9689
   15CHL1    C5 1044   2.153   4.575   6.049  0.0937  0.3783 -0.0324
   15CHL1    C6 1045   2.043   4.562   5.977 -0.4142  0.1923  0.0898
   15CHL1    H6 1046   1.945   4.535   6.018 -0.5484 -1.9504 -1.4734
   15CHL1    C7 1047   2.043   4.555   5.828  0.4601  0.4808 -0.3579
   15CHL1   H7A 1048   1.980   4.472   5.789 -0.8625  1.5605 -0.6013
   15CHL1   H7B 1049   1.993   4.649   5.796 -0.3002  0.4735  0.7408
   15CHL1    C8 1050   2.183   4.554   5.770 -0.7874 -0.1503  0.0898
   15CHL1    H8 1051   2.212   4.448   5.788 -3.2522 -0.8969 -0.0382
   15CHL1   C14 1052   2.184   4.589   5.617  0.7138 -0.1274 -0.4383
   15CHL1   H14 1053   2.161   4.697   5.618  0.0569 -0.2603  0.3561
   15CHL1   C15 1054   2.075   4.525   5.530 -0.1972 -0.0574  0.3686
   15CHL1  H15A 1055   2.074   4.416   5.550  0.6035  0.1268  1.4777
   15CHL1  H15B 1056   1.969   4.556   5.537 -0.2791 -0.4023  0.6402
   15CHL1   C16 1057   2.126   4.531   5.384  0.0524  0.0044 -0.1339
   15CHL1  H16A 1058   2.151   4.430   5.343 -0.6564  0.0492 -0.6941
   15CHL1  H16B 1059   2.061   4.584   5.312 -1.5085  0.0302  1.2523
   15CHL1   C17 1060   2.267   4.601   5.398 -0.6597  0.6002  0.4965
   15CHL1   H17 1061   2.237   4.708   5.388 -3.3335 -0.1611 -0.4333
   15CHL1   C13 1062   2.316   4.570   5.544  0.4811 -0.1228  0.4487
   15CHL1   C18 1063   2.353   4.423   5.559  0.1523 -1.2968 -0.0655
   15CHL1  H18A 1064   2.356   4.398   5.668  0.9527 -1.5251 -0.1325
   15CHL1  H18B 1065   2.280   4.355   5.511  0.0650 -1.2057 -0.0630
   15CHL1  H18C 1066   2.455   4.411   5.516 -0.2664  1.3383 -2.0500
   15CHL1   C12 1067   2.406   4.678   5.610  0.1890 -0.0601  0.3745
   15CHL1  H12A 1068   2.506   4.661   5.565  1.5578 -1.8771  3.8080
   15CHL1  H12B 1069   2.373   4.784   5.598  0.7150  0.2400  1.4862
   15CHL1   C11 1070   2.417   4.659   5.759  0.4228 -0.4695 -0.0252
   15CHL1  H11A 1071   2.465   4.559   5.773 -0.3371 -0.5954  2.0403
   15CHL1  H11B 1072   2.483   4.730   5.812  1.0214 -0.3921 -0.8520
   15CHL1    C9 1073   2.282   4.647   5.841 -0.2305 -0.3803 -0.4312
   15CHL1    H9 1074   2.242   4.751   5.835 -0.8039 -0.4544  1.3292
   15CHL1   C10 1075   2.297   4.608   5.991 -0.0398 -0.9296  0.2321
   15CHL1   C19 1076   2.386   4.479   6.007 -0.0176  0.3282  0.2003
   15CHL1  H19A 1077   2.341   4.399   5.944 -1.6815  0.7970  0.7375
   15CHL1  H19B 1078   2.493   4.501   5.987  0.0884 -0.5877 -0.2937
   15CHL1  H19C 1079   2.385   4.444   6.112  0.0795  0.1763  0.1509
   15CHL1    C1 1080   2.360   4.728   6.078 -0.1701 -0.9608 -0.2732
   15CHL1   H1A 1081   2.471   4.725   6.065  0.0482 -0.4959  1.2115
   15CHL1   H1B 1082   2.327   4.831   6.051 -1.0715 -0.3974  2.6056
   15CHL1    C2 1083   2.334   4.727   6.228  0.4396  1.1979 -0.5810
   15CHL1   H2A 1084   2.363   4.816   6.289 -1.8885  1.3159  0.4559
   15CHL1   H2B 1085   2.384   4.635   6.266 -1.5192 -0.2338 -1.3456
   15CHL1   C20 1086   2.362   4.567   5.286  0.0898  0.3463  0.6147
   15CHL1   H20 1087   2.393   4.460   5.287 -0.1868  0.2623  0.3996
   15CHL1   C21 1088   2.482   4.653   5.293 -0.5152 -0.4170 -0.5184
   15CHL1  H21A 1089   2.542   4.654   5.199 -0.3397  2.4523 -0.4711
   15CHL1  H21B 1090   2.549   4.606   5.368 -0.1678 -0.2051 -0.6885
   15CHL1  H21C 1091   2.453   4.755   5.326 -1.6188 -0.6340 -0.7868
   15CHL1   C22 1092   2.299   4.585   5.144 -0.1389 -0.2583 -0.8021
   15CHL1  H22A 1093   2.189   4.568   5.153 -0.2400  0.3158 -0.8801
   15CHL1  H22B 1094   2.320   4.690   5.113 -3.0415  0.0278 -2.1410
   15CHL1   C23 1095   2.347   4.483   5.047  0.0702 -0.2079  1.2451
   15CHL1  H23A 1096   2.456   4.491   5.029 -0.4956  4.0698 -1.7631
   15CHL1  H23B 1097   2.317   4.381   5.079 -1.5565 -0.4880 -0.9018
   15CHL1   C24 1098   2.285   4.510   4.906  0.2332  0.0853 -0.4003
   15CHL1  H24A 1099   2.176   4.523   4.926  0.1231 -2.7065  1.4654
   15CHL1  H24B 1100   2.309   4.607   4.859  1.1895 -0.6514 -1.4658
   15CHL1   C25 1101   2.305   4.394   4.800 -0.0096 -0.2417  1.2439
   15CHL1   H25 1102   2.246   4.436   4.715 -0.4530 -0.8380  1.2456
   15CHL1   C26 1103   2.451   4.368   4.759  0.5470 -0.2494 -0.8759
   15CHL1  H26A 1104   2.459   4.293   4.678  3.1836 -1.9391  0.8182
   15CHL1  H26B 1105   2.500   4.461   4.722 -0.2994  0.1364 -1.0674
   15CHL1  H26C 1106   2.510   4.335   4.847  0.6375  0.2174 -0.7565
   15CHL1   C27 1107   2.234   4.261   4.845 -0.1262 -0.3209  0.5287
   15CHL1  H27A 1108   2.224   4.185   4.765 -0.0955  1.4765 -1.2737
   15CHL1  H27B 1109   2.287   4.221   4.934  1.0267  1.7167  0.8237
   15CHL1  H27C 1110   2.127   4.286   4.861  0.3100  2.2757 -0.1358
   16CHL1    C3 1111   0.430   3.998   6.543  0.2211 -0.5989  0.4882
   16CHL1    H3 1112   0.459   4.103   6.519 -2.8838  0.0874 -0.6652
   16CHL1    O3 1113   0.435   3.989   6.679  0.0327 -0.2981 -0.5943
   16CHL1   H3' 1114   0.529   3.986   6.698 -0.1575 -0.5482  0.3451
   16CHL1    C4 1115   0.290   3.970   6.497  1.1978  0.6257  0.2232
   16CHL1   H4A 1116   0.241   3.877   6.533 -1.5148  2.0931  0.5886
   16CHL1   H4B 1117   0.229   4.049   6.547  0.6248  0.0087  0.5053
   16CHL1    C5 1118   0.286   3.987   6.347  0.0257 -0.0687  0.2420
   16CHL1    C6 1119   0.231   4.091   6.285  0.1105  0.2839 -0.9430
   16CHL1    H6 1120   0.179   4.171   6.341  0.3781 -1.2446  1.6457
   16CHL1    C7 1121   0.220   4.107   6.135 -0.0936 -0.8329  0.0287
   16CHL1   H7A 1122   0.125   4.159   6.110  1.1344  2.0252  0.9412
   16CHL1   H7B 1123   0.303   4.174   6.105 -1.5816  2.2772  2.2887
   16CHL1    C8 1124   0.237   3.972   6.065  0.5570 -0.8055  0.2960
   16CHL1    H8 1125   0.158   3.904   6.101 -0.1142  0.0270  0.4197
   16CHL1   C14 1126   0.236   3.993   5.909 -0.2266  0.0585 -0.0309
   16CHL1   H14 1127   0.316   4.068   5.896  0.8161 -0.7535  1.3468
   16CHL1   C15 1128   0.113   4.044   5.834 -0.2492 -0.7215 -0.0192
   16CHL1  H15A 1129   0.021   3.999   5.877 -0.6115 -0.1234 -0.1636
   16CHL1  H15B 1130   0.103   4.154   5.836  0.8013 -0.6161  0.0046
   16CHL1   C16 1131   0.130   3.990   5.688  0.2755  1.4208 -0.2725
   16CHL1  H16A 1132   0.043   3.924   5.670  0.8897  0.6560 -0.5117
   16CHL1  H16B 1133   0.124   4.060   5.602 -1.1471 -0.9178 -2.1803
   16CHL1   C17 1134   0.268   3.917   5.682  0.7360 -0.4278  0.2302
   16CHL1   H17 1135   0.350   3.992   5.676 -0.8369  1.3646  0.4095
   16CHL1   C13 1136   0.284   3.869   5.829  0.4703  0.3461  0.5284
   16CHL1   C18 1137   0.181   3.749   5.854  0.1872 -0.7942 -0.2923
   16CHL1  H18A 1138   0.164   3.737   5.963  1.0511 -0.0438 -0.0633
   16CHL1  H18B 1139   0.079   3.775   5.819  1.1346  2.7552 -0.7749
   16CHL1  H18C 1140   0.205   3.652   5.805 -0.7946 -0.4030 -1.5877
   16CHL1   C12 1141   0.429   3.831   5.872  0.0214 -0.3639 -0.1502
   16CHL1  H12A 1142   0.456   3.734   5.825  0.4425 -1.1113  1.5661
   16CHL1  H12B 1143   0.504   3.907   5.842 -0.3185 -0.8690 -2.5327
   16CHL1   C11 1144   0.423   3.806   6.017 -0.8573  0.0934 -0.0148
   16CHL1  H11A 1145   0.365   3.713   6.036  1.2300 -1.3197 -0.2208
   16CHL1  H11B 1146   0.524   3.778   6.054 -0.0161  1.9861 -0.7725
   16CHL1    C9 1147   0.370   3.914   6.111  0.3503 -0.6603  0.0774
   16CHL1    H9 1148   0.443   3.997   6.104  0.0174 -0.4571 -1.4423
   16CHL1   C10 1149   0.370   3.883   6.265 -0.3168 -0.4130  0.2453
   16CHL1   C19 1150   0.307   3.740   6.293 -0.6596 -0.4453 -0.0860
   16CHL1  H19A 1151   0.207   3.741   6.245  0.1928 -0.0543 -1.9141
   16CHL1  H19B 1152   0.361   3.661   6.238  1.1927  1.9771 -1.9781
   16CHL1  H19C 1153   0.300   3.723   6.403  0.9200  1.6725  0.3951
   16CHL1    C1 1154   0.518   3.891   6.326 -0.2367 -0.3860 -0.1868
   16CHL1   H1A 1155   0.589   3.814   6.290  0.1106 -0.7946  1.2905
   16CHL1   H1B 1156   0.569   3.986   6.298  3.0987 -1.6280  1.0592
   16CHL1    C2 1157   0.524   3.893   6.482 -0.1203 -0.0848  0.7343
   16CHL1   H2A 1158   0.630   3.912   6.509  0.7194 -3.6188  0.3169
   16CHL1   H2B 1159   0.507   3.790   6.518 -1.7688 -0.3882 -0.7677
   16CHL1   C20 1160   0.275   3.820   5.559 -0.6314 -1.0766  0.4399
   16CHL1   H20 1161   0.174   3.774   5.557 -0.9655 -0.3514 -0.7042
   16CHL1   C21 1162   0.392   3.726   5.563 -0.0234 -0.2012 -0.6022
   16CHL1  H21A 1163   0.478   3.781   5.606 -0.9511  0.5791  0.3218
   16CHL1  H21B 1164   0.410   3.669   5.469  2.0540 -1.1359  0.2948
   16CHL1  H21C 1165   0.367   3.646   5.636 -0.9762 -2.3235 -3.0748
   16CHL1   C22 1166   0.276   3.904   5.423 -0.1674  0.5418  0.6364
   16CHL1  H22A 1167   0.198   3.983   5.421  0.1515  0.8552  0.6131
   16CHL1  H22B 1168   0.374   3.956   5.420  1.1549 -1.8578 -0.3374
   16CHL1   C23 1169   0.276   3.821   5.292  0.3320 -0.4168  0.5427
   16CHL1  H23A 1170   0.378   3.780   5.273 -0.0589 -0.7156 -1.0747
   16CHL1  H23B 1171   0.211   3.732   5.304  0.6155 -0.6528  0.3466
   16CHL1   C24 1172   0.233   3.911   5.177  0.0357 -0.3518 -0.7157
   16CHL1  H24A 1173   0.126   3.943   5.180  0.3639  0.9912 -2.0083
   16CHL1  H24B 1174   0.287   4.007   5.186  1.1763 -1.2054  3.3278
   16CHL1   C25 1175   0.265   3.847   5.036  0.2610 -0.0681 -0.8013
   16CHL1   H25 1176   0.365   3.800   5.044 -0.1273 -0.8289 -0.2003
   16CHL1   C26 1177   0.164   3.732   5.001 -0.3849  0.4354  0.1459
   16CHL1  H26A 1178   0.192   3.684   4.905 -2.0599  2.2939 -1.3650
   16CHL1  H26B 1179   0.159   3.656   5.081  2.3591 -2.8409 -2.4967
   16CHL1  H26C 1180   0.066   3.784   5.001 -1.2227 -0.9939  2.8572
   16CHL1   C27 1181   0.266   3.963   4.935 -0.6396  0.2582 -0.4797
   16CHL1  H27A 1182   0.296   3.924   4.836  1.1283 -1.3974  0.6310
   16CHL1  H27B 1183   0.170   4.019   4.940 -0.3532  0.6803  0.5009
   16CHL1  H27C 1184   0.349   4.036   4.949  0.3746 -0.9435  0.0268
   17CHL1    C3 1185   6.617   2.189   6.868  0.2388 -0.4355 -0.4248
   17CHL1    H3 1186   6.728   2.190   6.868  0.2664  0.8478  1.3393
   17CHL1    O3 1187   6.554   2.159   6.988 -0.4675 -0.3657  0.8464
   17CHL1   H3' 1188   6.615   2.105   7.039 -1.8465 -2.6782  0.1837
   17CHL1    C4 1189   6.568   2.333   6.824  0.9047  0.1270  0.4965
   17CHL1   H4A 1190   6.458   2.335   6.843  0.4860 -1.9334 -1.2406
   17CHL1   H4B 1191   6.616   2.401   6.897  1.2218  0.4357  0.0073
   17CHL1    C5 1192   6.598   2.373   6.682  0.0065 -0.6224 -0.3984
   17CHL1    C6 1193   6.667   2.485   6.651  0.5170  0.4199  0.7017
   17CHL1    H6 1194   6.706   2.541   6.737 -2.5210  2.7380  0.7214
   17CHL1    C7 1195   6.693   2.527   6.511 -0.1095  0.3105  0.1194
   17CHL1   H7A 1196   6.689   2.637   6.498  2.0271  0.6073  1.4970
   17CHL1   H7B 1197   6.800   2.499   6.502 -0.1978 -1.0099  2.4799
   17CHL1    C8 1198   6.601   2.454   6.405  0.0189 -0.5673  0.0773
   17CHL1    H8 1199   6.501   2.503   6.409 -0.9305 -2.5119  2.2426
   17CHL1   C14 1200   6.651   2.472   6.264 -0.2374  0.2112  0.1811
   17CHL1   H14 1201   6.753   2.428   6.261 -1.0006 -2.2600  3.7117
   17CHL1   C15 1202   6.669   2.620   6.222  0.1265 -0.6187  0.9522
   17CHL1  H15A 1203   6.581   2.677   6.257  0.2935  0.4467 -0.2678
   17CHL1  H15B 1204   6.761   2.670   6.259  0.7575  0.3948 -1.7170
   17CHL1   C16 1205   6.675   2.610   6.063  0.3200 -0.4892  0.5030
   17CHL1  H16A 1206   6.607   2.689   6.025  0.2879 -0.2187  1.1141
   17CHL1  H16B 1207   6.775   2.632   6.019  1.0478 -1.9980  1.3122
   17CHL1   C17 1208   6.637   2.468   6.018  0.0928 -0.4127  0.1673
   17CHL1   H17 1209   6.727   2.406   5.998 -0.6085 -1.6204  0.6183
   17CHL1   C13 1210   6.567   2.408   6.147 -0.0572 -0.4730 -0.2736
   17CHL1   C18 1211   6.416   2.450   6.150  0.7721 -0.3371 -0.2828
   17CHL1  H18A 1212   6.409   2.558   6.128 -0.1721 -0.4473 -0.5718
   17CHL1  H18B 1213   6.360   2.394   6.072 -0.7596 -0.6772  1.0214
   17CHL1  H18C 1214   6.374   2.441   6.252 -2.2306 -0.4145 -1.4271
   17CHL1   C12 1215   6.566   2.256   6.174  0.0294  0.3509  0.0042
   17CHL1  H12A 1216   6.503   2.197   6.103  0.3891 -1.2746  0.9763
   17CHL1  H12B 1217   6.666   2.210   6.160  0.2092  1.0394 -1.1186
   17CHL1   C11 1218   6.519   2.228   6.323  0.1917  0.6063  0.9751
   17CHL1  H11A 1219   6.410   2.250   6.328  0.2114  0.6016  1.6102
   17CHL1  H11B 1220   6.546   2.122   6.343 -0.0752  0.0047 -1.5319
   17CHL1    C9 1221   6.593   2.305   6.438 -0.4028 -0.6004 -0.2813
   17CHL1    H9 1222   6.698   2.270   6.428 -0.6781 -0.6986 -4.3830
   17CHL1   C10 1223   6.542   2.270   6.580  0.1828 -0.1655 -0.1270
   17CHL1   C19 1224   6.383   2.278   6.586 -0.8215  0.3029  0.4544
   17CHL1  H19A 1225   6.329   2.248   6.679  0.1015  0.1223  0.9435
   17CHL1  H19B 1226   6.351   2.380   6.559 -2.2120 -0.1492  0.2999
   17CHL1  H19C 1227   6.335   2.215   6.508 -0.8616 -0.7832  1.3298
   17CHL1    C1 1228   6.593   2.137   6.622 -0.1877 -0.2683  0.9642
   17CHL1   H1A 1229   6.559   2.055   6.555 -0.0901  0.7571 -0.3820
   17CHL1   H1B 1230   6.702   2.127   6.605 -0.2977  0.6925 -0.4960
   17CHL1    C2 1231   6.563   2.096   6.765 -0.1876 -0.8655  0.5021
   17CHL1   H2A 1232   6.603   1.993   6.778 -1.5594 -1.6997 -1.4197
   17CHL1   H2B 1233   6.452   2.093   6.776 -0.2318 -0.6200  0.1612
   17CHL1   C20 1234   6.557   2.470   5.887  0.0766  0.1503 -0.3482
   17CHL1   H20 1235   6.469   2.538   5.888  0.2183  0.4206 -2.0505
   17CHL1   C21 1236   6.518   2.327   5.848 -0.0907  0.1427 -0.0458
   17CHL1  H21A 1237   6.605   2.259   5.854  0.7877  1.1024 -1.3722
   17CHL1  H21B 1238   6.484   2.330   5.742 -2.1332  2.7751  0.5794
   17CHL1  H21C 1239   6.428   2.288   5.902  0.3512  0.9940  1.3496
   17CHL1   C22 1240   6.649   2.542   5.777  0.9747 -0.7892  0.1848
   17CHL1  H22A 1241   6.672   2.645   5.810 -1.4656 -0.5965  1.5169
   17CHL1  H22B 1242   6.743   2.485   5.761  0.1006 -1.6968 -2.1568
   17CHL1   C23 1243   6.585   2.556   5.633 -0.2640  0.1029  0.0423
   17CHL1  H23A 1244   6.575   2.454   5.592 -0.8018 -0.1649  0.8353
   17CHL1  H23B 1245   6.488   2.608   5.648 -0.1771  0.5233 -0.7622
   17CHL1   C24 1246   6.682   2.637   5.542 -0.4414  0.0986  0.1583
   17CHL1  H24A 1247   6.711   2.739   5.577 -1.3346  0.4979 -0.2358
   17CHL1  H24B 1248   6.774   2.578   5.522  0.5381  0.6198  2.6842
   17CHL1   C25 1249   6.622   2.681   5.405  0.7378 -0.1828 -0.1945
   17CHL1   H25 1250   6.533   2.744   5.426  0.4114 -1.0299  1.0796
   17CHL1   C26 1251   6.720   2.767   5.324  0.0740  1.3022  0.0414
   17CHL1  H26A 1252   6.699   2.759   5.215  1.0039  1.3170 -0.1463
   17CHL1  H26B 1253   6.711   2.872   5.357 -0.7546  1.4706 -0.6765
   17CHL1  H26C 1254   6.821   2.731   5.353 -0.5525 -2.9485 -2.2733
   17CHL1   C27 1255   6.565   2.553   5.328 -1.0210 -0.6517 -0.3592
   17CHL1  H27A 1256   6.553   2.578   5.221 -0.0593 -0.7435 -0.5008
   17CHL1  H27B 1257   6.632   2.466   5.348 -1.1848 -0.4227  1.3083
   17CHL1  H27C 1258   6.465   2.534   5.372 -2.0094  0.8931 -1.8295
   18CHL1    C3 1259   0.748   1.524   5.954  0.3378 -0.2827  0.1529
   18CHL1    H3 1260   0.656   1.474   5.990  0.5318 -0.5792  0.2456
   18CHL1    O3 1261   0.816   1.588   6.059 -0.0574 -0.3988  0.2023
   18CHL1   H3' 1262   0.895   1.634   6.028  0.5998  0.9092  3.3989
   18CHL1    C4 1263   0.844   1.406   5.918  0.5149  0.0985  0.1900
   18CHL1   H4A 1264   0.950   1.440   5.912  1.0869 -0.9072  3.0799
   18CHL1   H4B 1265   0.847   1.337   6.005  2.3916 -1.7030 -1.1863
   18CHL1    C5 1266   0.808   1.344   5.785  0.1172 -0.5391  0.5693
   18CHL1    C6 1267   0.795   1.216   5.768  0.3439  1.1543  0.3671
   18CHL1    H6 1268   0.806   1.147   5.854 -2.5298  1.9463  1.4833
   18CHL1    C7 1269   0.764   1.155   5.635  0.0201 -0.0380 -0.4888
   18CHL1   H7A 1270   0.824   1.062   5.629 -1.9618 -1.3399 -1.4598
   18CHL1   H7B 1271   0.657   1.126   5.643  0.3306 -0.7217  2.3096
   18CHL1    C8 1272   0.789   1.241   5.503 -0.1728 -0.6103 -1.2517
   18CHL1    H8 1273   0.899   1.257   5.495 -0.4341  1.7994 -0.7333
   18CHL1   C14 1274   0.730   1.176   5.385 -0.0041  0.1391  0.1483
   18CHL1   H14 1275   0.620   1.166   5.401 -0.0651 -1.4396 -1.0008
   18CHL1   C15 1276   0.785   1.032   5.330  0.0407 -1.1785 -0.0960
   18CHL1  H15A 1277   0.896   1.032   5.336  0.1716  1.7637 -1.0663
   18CHL1  H15B 1278   0.743   0.946   5.386 -0.5647  1.4969  4.0601
   18CHL1   C16 1279   0.750   1.029   5.181 -0.5245  0.7981  0.4238
   18CHL1  H16A 1280   0.842   1.018   5.120  1.2952 -0.4102  3.2076
   18CHL1  H16B 1281   0.680   0.947   5.154  1.1386 -0.1774 -1.2451
   18CHL1   C17 1282   0.693   1.170   5.150  0.3466  0.2396 -0.2076
   18CHL1   H17 1283   0.584   1.172   5.172 -0.2269 -3.6891 -1.9034
   18CHL1   C13 1284   0.746   1.270   5.255 -0.5784 -0.2155 -0.2921
   18CHL1   C18 1285   0.891   1.305   5.229  0.2188 -0.0289  0.6113
   18CHL1  H18A 1286   0.954   1.225   5.185 -0.0819  0.1216 -0.1165
   18CHL1  H18B 1287   0.903   1.396   5.167  1.6131  1.0318  2.3364
   18CHL1  H18C 1288   0.933   1.336   5.327 -1.1923 -2.2897  2.0327
   18CHL1   C12 1289   0.661   1.396   5.285 -0.3208  0.4641  0.4080
   18CHL1  H12A 1290   0.673   1.457   5.193 -0.1469 -0.1006  0.0516
   18CHL1  H12B 1291   0.555   1.364   5.293 -0.2711  0.5565  1.5338
   18CHL1   C11 1292   0.703   1.467   5.413 -0.1489  0.2810 -0.8481
   18CHL1  H11A 1293   0.799   1.516   5.389 -0.0680  0.3098 -0.4676
   18CHL1  H11B 1294   0.630   1.544   5.445 -1.2070 -1.2320  0.5578
   18CHL1    C9 1295   0.725   1.375   5.535 -0.2797  0.8067 -0.9188
   18CHL1    H9 1296   0.620   1.346   5.558  0.7530 -2.4913  0.1765
   18CHL1   C10 1297   0.789   1.449   5.663  0.9362 -0.3460 -0.2587
   18CHL1   C19 1298   0.929   1.504   5.629 -0.2904 -0.2578  0.4025
   18CHL1  H19A 1299   0.924   1.569   5.538 -0.5232  0.1362  0.6921
   18CHL1  H19B 1300   0.968   1.566   5.713  0.0608 -0.5279  0.4383
   18CHL1  H19C 1301   1.002   1.421   5.624 -0.0216 -0.0459  0.7864
   18CHL1    C1 1302   0.691   1.561   5.715  0.2579 -0.3918  0.2526
   18CHL1   H1A 1303   0.693   1.648   5.647 -0.2528 -0.6726 -0.1220
   18CHL1   H1B 1304   0.589   1.520   5.729 -0.7422  1.6553 -0.7334
   18CHL1    C2 1305   0.720   1.628   5.845  0.2347 -0.3229  0.0295
   18CHL1   H2A 1306   0.645   1.701   5.882  0.7501 -0.2546  0.9755
   18CHL1   H2B 1307   0.810   1.691   5.827 -1.2461  1.2133 -2.3849
   18CHL1   C20 1308   0.705   1.192   4.994  0.4242  0.3809  0.2204
   18CHL1   H20 1309   0.813   1.178   4.971  0.5481 -0.6471  1.3450
   18CHL1   C21 1310   0.661   1.333   4.949 -0.2800 -0.6828 -1.2432
   18CHL1  H21A 1311   0.687   1.343   4.842 -1.5373 -2.4317 -1.7566
   18CHL1  H21B 1312   0.715   1.417   4.998 -1.3427 -0.6818 -0.0183
   18CHL1  H21C 1313   0.551   1.346   4.966  0.3082  0.3598  2.9519
   18CHL1   C22 1314   0.626   1.087   4.910  0.0328  0.2194  0.6159
   18CHL1  H22A 1315   0.628   0.985   4.953  2.0334 -0.2881 -0.5525
   18CHL1  H22B 1316   0.520   1.117   4.898 -0.2744 -0.9993  0.1469
   18CHL1   C23 1317   0.688   1.064   4.770  0.6277 -0.0130  0.0388
   18CHL1  H23A 1318   0.684   1.158   4.711 -3.0354 -0.4548 -0.6544
   18CHL1  H23B 1319   0.792   1.028   4.783  0.6252  0.4721  1.5915
   18CHL1   C24 1320   0.615   0.955   4.680 -0.5946  0.5466 -0.3027
   18CHL1  H24A 1321   0.605   0.858   4.733 -0.0966  0.5448 -0.1984
   18CHL1  H24B 1322   0.518   0.996   4.646  0.7068  2.9291 -1.3959
   18CHL1   C25 1323   0.696   0.935   4.546  0.3890  0.2346 -0.1604
   18CHL1   H25 1324   0.803   0.940   4.578 -0.6147  3.7017  3.3087
   18CHL1   C26 1325   0.667   0.800   4.474  0.0229 -0.6782  0.1846
   18CHL1  H26A 1326   0.696   0.714   4.538  0.6483  0.4938  1.5269
   18CHL1  H26B 1327   0.556   0.801   4.469  0.0063  0.5669  0.4355
   18CHL1  H26C 1328   0.709   0.794   4.371 -0.2071 -0.8072  0.0980
   18CHL1   C27 1329   0.676   1.043   4.442  1.1734 -0.0911 -0.1678
   18CHL1  H27A 1330   0.742   1.014   4.358  0.0274  0.9848 -1.4797
   18CHL1  H27B 1331   0.569   1.052   4.414  1.2238 -0.3597 -0.4477
   18CHL1  H27C 1332   0.712   1.140   4.482  2.4506 -0.0902 -1.2567
   19CHL1    C3 1333   6.328   6.771   6.390  0.3125 -0.1726 -0.2390
   19CHL1    H3 1334   6.347   6.880   6.383  2.8022 -0.5934 -1.1509
   19CHL1    O3 1335   6.298   6.741   6.526 -0.7554 -0.1853 -0.2633
   19CHL1   H3' 1336   6.383   6.727   6.568 -0.3521  2.2917 -0.1356
   19CHL1    C4 1337   6.218   6.721   6.300  0.9579 -0.0210  0.1231
   19CHL1   H4A 1338   6.193   6.616   6.326 -1.1974  0.5486  0.5652
   19CHL1   H4B 1339   6.131   6.781   6.335  0.4881  0.2035 -1.3221
   19CHL1    C5 1340   6.235   6.744   6.155 -0.4980  0.4774  0.1931
   19CHL1    C6 1341   6.135   6.809   6.088  1.0819 -0.1249 -0.5113
   19CHL1    H6 1342   6.039   6.841   6.132  1.3165  0.5034 -0.4551
   19CHL1    C7 1343   6.143   6.846   5.942 -0.2248 -0.0853  0.2141
   19CHL1   H7A 1344   6.054   6.820   5.881  0.8033 -0.6867 -1.0949
   19CHL1   H7B 1345   6.169   6.952   5.922  1.7664 -0.1243  2.1313
   19CHL1    C8 1346   6.268   6.779   5.875  0.9005 -0.5064  0.2235
   19CHL1    H8 1347   6.247   6.673   5.850  1.8410 -0.6335 -0.0586
   19CHL1   C14 1348   6.295   6.845   5.740 -0.5890 -0.4151 -0.4342
   19CHL1   H14 1349   6.330   6.946   5.769 -0.0671 -1.1206  1.4962
   19CHL1   C15 1350   6.185   6.855   5.631 -0.2350  0.0210 -0.4365
   19CHL1  H15A 1351   6.130   6.760   5.618 -0.9498  0.3597  0.0817
   19CHL1  H15B 1352   6.109   6.929   5.663  0.6253  0.8007 -0.1281
   19CHL1   C16 1353   6.259   6.910   5.507 -0.5837 -0.6272  0.1785
   19CHL1  H16A 1354   6.229   6.856   5.415 -1.7963 -0.8592  0.6826
   19CHL1  H16B 1355   6.215   7.009   5.484 -0.0947 -0.2049  1.0288
   19CHL1   C17 1356   6.409   6.893   5.534 -0.5959  0.3284 -0.0248
   19CHL1   H17 1357   6.453   6.987   5.572  2.7173 -1.7577  1.8534
   19CHL1   C13 1358   6.417   6.800   5.657 -0.4392  0.2312  0.3496
   19CHL1   C18 1359   6.400   6.660   5.606 -0.3011  0.7271 -0.1141
   19CHL1  H18A 1360   6.488   6.622   5.551 -0.9495 -0.2356 -0.5295
   19CHL1  H18B 1361   6.375   6.581   5.681  1.1498 -3.1399 -3.3539
   19CHL1  H18C 1362   6.316   6.648   5.534  0.2291 -0.9147 -0.5212
   19CHL1   C12 1363   6.542   6.815   5.746 -0.2331 -0.6570 -0.1531
   19CHL1  H12A 1364   6.635   6.778   5.697 -0.3937  0.6762 -1.5314
   19CHL1  H12B 1365   6.564   6.916   5.786 -3.5648  0.3564 -0.5960
   19CHL1   C11 1366   6.516   6.739   5.875 -0.4193  0.0123 -0.1699
   19CHL1  H11A 1367   6.491   6.634   5.849  0.3626 -0.1897 -0.1397
   19CHL1  H11B 1368   6.607   6.729   5.939 -1.3280  1.8486  1.5180
   19CHL1    C9 1369   6.397   6.782   5.964 -0.0728 -0.4336 -0.2121
   19CHL1    H9 1370   6.420   6.890   5.977 -0.9519 -0.0332 -1.6347
   19CHL1   C10 1371   6.377   6.718   6.105 -0.6425  0.3899  0.3748
   19CHL1   C19 1372   6.395   6.564   6.090 -0.1887 -0.3093  0.5273
   19CHL1  H19A 1373   6.337   6.544   5.997 -1.2440  1.0315  0.8794
   19CHL1  H19B 1374   6.502   6.536   6.074 -0.3301 -1.6114  1.6716
   19CHL1  H19C 1375   6.357   6.507   6.178  0.8935 -1.8010  0.0778
   19CHL1    C1 1376   6.488   6.760   6.199 -0.1620  0.4440 -0.1759
   19CHL1   H1A 1377   6.586   6.720   6.164 -0.5144 -2.7415  2.1297
   19CHL1   H1B 1378   6.486   6.871   6.201  0.6881  0.4613  1.5963
   19CHL1    C2 1379   6.469   6.719   6.344 -0.1157 -0.0783 -0.8850
   19CHL1   H2A 1380   6.545   6.765   6.411 -0.6064 -1.7263  0.9060
   19CHL1   H2B 1381   6.471   6.611   6.368 -0.7703 -0.4911 -2.5411
   19CHL1   C20 1382   6.493   6.859   5.411  0.0080  0.0425 -0.1529
   19CHL1   H20 1383   6.456   6.764   5.366  0.2103 -0.5173  0.8429
   19CHL1   C21 1384   6.639   6.833   5.444 -0.2186  0.0457 -0.3218
   19CHL1  H21A 1385   6.655   6.743   5.508 -1.2075 -0.7583 -1.1678
   19CHL1  H21B 1386   6.689   6.923   5.485  0.0554  0.9249 -2.4597
   19CHL1  H21C 1387   6.706   6.826   5.356  1.4485 -2.4560  1.0233
   19CHL1   C22 1388   6.477   6.971   5.314 -0.4874 -0.6227  0.0919
   19CHL1  H22A 1389   6.370   6.995   5.295 -0.7346 -1.5581  0.2486
   19CHL1  H22B 1390   6.526   7.062   5.354 -0.3988 -0.6163 -0.0309
   19CHL1   C23 1391   6.519   6.931   5.164 -0.0579 -0.5921 -0.4340
   19CHL1  H23A 1392   6.630   6.926   5.164 -0.0261 -0.1681  0.5412
   19CHL1  H23B 1393   6.477   6.830   5.141 -0.8076 -0.0458 -1.5615
   19CHL1   C24 1394   6.468   7.035   5.067 -0.7366  0.7806  0.2447
   19CHL1  H24A 1395   6.357   7.028   5.066 -0.7098 -0.4744  1.9617
   19CHL1  H24B 1396   6.496   7.134   5.108  2.9730  0.6606 -1.5597
   19CHL1   C25 1397   6.527   7.008   4.925  0.2581  0.0771  0.6035
   19CHL1   H25 1398   6.636   7.023   4.936  0.6727 -1.8792 -0.3375
   19CHL1   C26 1399   6.489   6.871   4.873 -0.4786  0.2731 -0.1175
   19CHL1  H26A 1400   6.534   6.854   4.773 -2.8479  0.1903 -1.2204
   19CHL1  H26B 1401   6.531   6.803   4.951  0.3212  0.8218 -0.0554
   19CHL1  H26C 1402   6.379   6.856   4.871 -0.2483 -1.4679 -2.3456
   19CHL1   C27 1403   6.489   7.112   4.827  0.2334 -0.7652  0.3255
   19CHL1  H27A 1404   6.553   7.102   4.736 -1.0699  3.0896 -1.2248
   19CHL1  H27B 1405   6.384   7.106   4.790  0.3495 -0.0267 -0.1543
   19CHL1  H27C 1406   6.515   7.215   4.859  0.1221 -0.8462  0.6779
   20CHL1    C3 1407   3.845   4.218   6.576 -0.2015 -0.0524 -0.1803
   20CHL1    H3 1408   3.778   4.307   6.581  3.0794  2.5372  2.6020
   20CHL1    O3 1409   3.827   4.151   6.699 -0.7939  0.0583 -0.7492
   20CHL1   H3' 1410   3.770   4.214   6.744  1.6357  2.0970 -0.3249
   20CHL1    C4 1411   3.805   4.123   6.460 -0.9909 -0.1468  0.0687
   20CHL1   H4A 1412   3.861   4.030   6.483  1.1846  1.5179  1.9530
   20CHL1   H4B 1413   3.698   4.091   6.466 -1.4231  0.9286 -1.3513
   20CHL1    C5 1414   3.843   4.173   6.316 -0.5635 -0.5303 -0.1483
   20CHL1    C6 1415   3.753   4.181   6.222  0.8954 -0.1642 -0.2730
   20CHL1    H6 1416   3.647   4.164   6.250  0.7869  0.4105 -0.3176
   20CHL1    C7 1417   3.788   4.219   6.084  0.0928 -0.2018  0.3005
   20CHL1   H7A 1418   3.738   4.155   6.008  1.4119 -0.1534 -0.6574
   20CHL1   H7B 1419   3.760   4.326   6.079 -0.3905 -0.1315  3.0120
   20CHL1    C8 1420   3.940   4.211   6.050  1.1404 -0.1202  0.0178
   20CHL1    H8 1421   3.970   4.104   6.043  1.3211 -0.0252 -0.7979
   20CHL1   C14 1422   3.951   4.287   5.916  0.5385 -0.3209 -0.5427
   20CHL1   H14 1423   3.949   4.392   5.955  0.1068 -0.2157 -0.8462
   20CHL1   C15 1424   3.846   4.281   5.804 -0.0198 -0.0641  0.4216
   20CHL1  H15A 1425   3.801   4.185   5.774 -0.7568 -0.6255  3.1061
   20CHL1  H15B 1426   3.766   4.353   5.832  0.4736  1.0174 -0.8008
   20CHL1   C16 1427   3.927   4.337   5.685 -0.1110 -0.3521  0.8106
   20CHL1  H16A 1428   3.933   4.260   5.604 -1.1324  1.5014 -1.1329
   20CHL1  H16B 1429   3.887   4.425   5.630  0.9599  0.3843  1.1866
   20CHL1   C17 1430   4.065   4.381   5.735  0.3590 -0.4898  0.5866
   20CHL1   H17 1431   4.059   4.484   5.775 -0.7794 -0.3169  0.0093
   20CHL1   C13 1432   4.094   4.288   5.863  0.6533 -0.1206  0.0629
   20CHL1   C18 1433   4.142   4.149   5.813 -0.1410 -0.5993  0.3068
   20CHL1  H18A 1434   4.084   4.101   5.731  2.0821 -2.5196 -0.2743
   20CHL1  H18B 1435   4.246   4.159   5.775 -0.8553 -1.5799 -2.1006
   20CHL1  H18C 1436   4.149   4.075   5.895  0.1353 -2.1745 -1.0644
   20CHL1   C12 1437   4.185   4.351   5.968  0.1250  0.7175 -1.0033
   20CHL1  H12A 1438   4.292   4.365   5.946  0.1821 -0.6694 -1.7060
   20CHL1  H12B 1439   4.153   4.457   5.981 -0.6708  0.2731  1.1993
   20CHL1   C11 1440   4.166   4.281   6.105 -0.1685 -0.0329 -0.3800
   20CHL1  H11A 1441   4.198   4.175   6.098 -1.1134 -0.4123  0.6654
   20CHL1  H11B 1442   4.231   4.331   6.180 -0.5139 -0.0827 -0.0402
   20CHL1    C9 1443   4.017   4.275   6.154 -0.3700 -0.4780  0.0295
   20CHL1    H9 1444   3.981   4.380   6.162  0.0033 -0.3624  0.2700
   20CHL1   C10 1445   3.988   4.216   6.292  0.1214 -0.4075 -0.2210
   20CHL1   C19 1446   4.079   4.096   6.317  0.2127  0.2385  0.3650
   20CHL1  H19A 1447   4.070   4.027   6.403 -2.0231 -3.5354 -2.5790
   20CHL1  H19B 1448   4.070   4.022   6.235  2.0407  0.0516  0.2915
   20CHL1  H19C 1449   4.186   4.125   6.312  0.0626  1.5943  3.1001
   20CHL1    C1 1450   4.012   4.324   6.411  0.2113  0.4721 -0.0841
   20CHL1   H1A 1451   4.118   4.358   6.404  0.3190  0.2669  0.4937
   20CHL1   H1B 1452   3.944   4.408   6.386  1.2416  1.7288  1.1170
   20CHL1    C2 1453   3.991   4.266   6.552 -0.2226  0.1996 -0.1172
   20CHL1   H2A 1454   4.011   4.332   6.639 -1.2979 -2.1255  2.0128
   20CHL1   H2B 1455   4.063   4.182   6.563  3.2084  2.5775 -2.2932
   20CHL1   C20 1456   4.182   4.394   5.625  0.1597 -0.2236 -0.5151
   20CHL1   H20 1457   4.279   4.377   5.677  0.2270  0.0933 -0.5335
   20CHL1   C21 1458   4.192   4.539   5.572  0.6684  0.4608  0.3079
   20CHL1  H21A 1459   4.217   4.618   5.646  1.9705  1.0439 -0.7046
   20CHL1  H21B 1460   4.088   4.566   5.544  0.3026 -0.7411  0.4711
   20CHL1  H21C 1461   4.265   4.559   5.491  0.0999  1.6106  0.0498
   20CHL1   C22 1462   4.171   4.298   5.513  0.4660  0.9921 -0.3823
   20CHL1  H22A 1463   4.153   4.194   5.548  2.9040  0.5521 -0.2674
   20CHL1  H22B 1464   4.087   4.323   5.445  0.3482 -0.5366 -0.8414
   20CHL1   C23 1465   4.298   4.288   5.421  0.0504 -0.1057  0.1983
   20CHL1  H23A 1466   4.320   4.391   5.386 -1.1371  1.2741  3.1392
   20CHL1  H23B 1467   4.386   4.242   5.470  2.2663  1.9724 -1.6130
   20CHL1   C24 1468   4.271   4.193   5.302 -0.2726  0.1751  0.3920
   20CHL1  H24A 1469   4.241   4.094   5.343 -0.7964  0.6292  1.1256
   20CHL1  H24B 1470   4.183   4.226   5.243 -0.2101  0.4434  0.4505
   20CHL1   C25 1471   4.381   4.178   5.199  0.2175 -0.2468 -0.0493
   20CHL1   H25 1472   4.416   4.279   5.167 -0.2541  0.7963  2.4090
   20CHL1   C26 1473   4.508   4.107   5.258 -0.1195 -0.0459 -0.1624
   20CHL1  H26A 1474   4.576   4.082   5.174  1.1541  1.8080  0.2603
   20CHL1  H26B 1475   4.555   4.180   5.327 -0.5130  0.6265 -0.5856
   20CHL1  H26C 1476   4.483   4.012   5.309  0.6536  0.1884  0.6771
   20CHL1   C27 1477   4.335   4.093   5.082 -0.6983  0.0113 -0.3551
   20CHL1  H27A 1478   4.418   4.085   5.009  0.0554  0.6577  0.4097
   20CHL1  H27B 1479   4.300   3.993   5.116  0.9811 -0.5799 -0.2569
   20CHL1  H27C 1480   4.250   4.137   5.027 -0.8646 -2.3111 -2.0868
   21CHL1    C3 1481   1.369   3.072   6.453  0.6096  0.0083  0.1480
   21CHL1    H3 1482   1.478   3.056   6.437 -0.0229 -3.2029 -1.8986
   21CHL1    O3 1483   1.365   3.090   6.599  0.4760 -0.1635  0.5419
   21CHL1   H3' 1484   1.293   3.151   6.615  0.6701 -0.3120  2.1502
   21CHL1    C4 1485   1.333   3.197   6.380 -0.7463 -0.1358  0.5433
   21CHL1   H4A 1486   1.224   3.211   6.395 -0.8814  0.1073 -0.5908
   21CHL1   H4B 1487   1.390   3.283   6.420 -1.6953  0.7326  0.0731
   21CHL1    C5 1488   1.361   3.170   6.234  0.9116 -0.5496  0.1745
   21CHL1    C6 1489   1.430   3.261   6.160 -0.5362 -0.0058 -0.5392
   21CHL1    H6 1490   1.468   3.352   6.210  1.2157  0.8954 -3.2797
   21CHL1    C7 1491   1.455   3.254   6.014  0.1276  0.4516 -0.0236
   21CHL1   H7A 1492   1.442   3.347   5.955 -1.0319 -0.1433 -0.7545
   21CHL1   H7B 1493   1.562   3.223   6.012 -0.7692 -3.1243  0.9728
   21CHL1    C8 1494   1.378   3.137   5.941 -0.8964  0.3865 -0.2718
   21CHL1    H8 1495   1.277   3.176   5.917 -1.0337 -0.1861 -0.6480
   21CHL1   C14 1496   1.454   3.098   5.818 -0.0720 -0.3968 -0.1305
   21CHL1   H14 1497   1.551   3.069   5.863  1.5157  0.7776 -2.5895
   21CHL1   C15 1498   1.502   3.210   5.723  0.1469  0.0477 -0.1631
   21CHL1  H15A 1499   1.413   3.272   5.697 -0.6414 -0.5180  1.0811
   21CHL1  H15B 1500   1.572   3.281   5.770  1.0628 -0.1793 -1.1520
   21CHL1   C16 1501   1.556   3.129   5.602 -0.6265 -0.1000 -0.3699
   21CHL1  H16A 1502   1.506   3.174   5.513  0.5010 -0.3154 -1.1346
   21CHL1  H16B 1503   1.665   3.117   5.585 -0.5577  0.3075 -0.2230
   21CHL1   C17 1504   1.505   2.984   5.616  0.1149 -0.6241  0.2421
   21CHL1   H17 1505   1.584   2.923   5.665 -0.4994 -1.4589  0.2274
   21CHL1   C13 1506   1.393   2.990   5.729 -0.8297 -0.1402 -0.2740
   21CHL1   C18 1507   1.262   3.044   5.671  0.1519 -0.0862 -0.1105
   21CHL1  H18A 1508   1.215   2.961   5.614  1.4022 -1.9789  1.4591
   21CHL1  H18B 1509   1.191   3.067   5.754  0.9391 -0.2324  0.6130
   21CHL1  H18C 1510   1.271   3.140   5.616 -0.0510  0.3497  0.6020
   21CHL1   C12 1511   1.367   2.863   5.814 -0.2178 -0.0055  0.1395
   21CHL1  H12A 1512   1.292   2.802   5.759  1.9192 -2.4693 -0.2483
   21CHL1  H12B 1513   1.462   2.821   5.851  0.5341  1.8316  0.3976
   21CHL1   C11 1514   1.294   2.895   5.950 -0.5468  0.3479  0.0608
   21CHL1  H11A 1515   1.188   2.921   5.928 -0.8824 -0.8927  0.1431
   21CHL1  H11B 1516   1.305   2.804   6.012 -2.4615 -0.1933 -0.3297
   21CHL1    C9 1517   1.355   3.014   6.030 -0.3252 -0.1616  0.4092
   21CHL1    H9 1518   1.456   2.977   6.054 -0.5461 -0.8256  0.3422
   21CHL1   C10 1519   1.297   3.037   6.169  0.9090 -0.0567 -0.0865
   21CHL1   C19 1520   1.149   3.063   6.148 -0.0037  0.4011  0.1953
   21CHL1  H19A 1521   1.104   2.968   6.112 -0.2772 -0.2679  2.1418
   21CHL1  H19B 1522   1.099   3.091   6.243 -0.8670  0.0168 -0.1367
   21CHL1  H19C 1523   1.135   3.134   6.065  0.9185 -1.2055 -1.4079
   21CHL1    C1 1524   1.326   2.920   6.265  0.2630 -0.1929  0.2044
   21CHL1   H1A 1525   1.264   2.833   6.236 -1.5532  0.5014  1.8087
   21CHL1   H1B 1526   1.430   2.881   6.257 -0.4614 -1.9388 -1.1829
   21CHL1    C2 1527   1.299   2.942   6.413  0.7155 -0.0811  0.1756
   21CHL1   H2A 1528   1.346   2.859   6.470  1.2365  0.3905  0.4558
   21CHL1   H2B 1529   1.193   2.961   6.441  0.9960  0.6722  0.7746
   21CHL1   C20 1530   1.472   2.922   5.484  0.3270  0.2930  0.0611
   21CHL1   H20 1531   1.380   2.968   5.441 -0.9267 -2.3414 -0.3547
   21CHL1   C21 1532   1.459   2.773   5.504  0.3399  0.3368  0.0898
   21CHL1  H21A 1533   1.376   2.744   5.572 -2.0428  1.5689 -2.1315
   21CHL1  H21B 1534   1.553   2.725   5.541 -1.5873 -2.2089  2.0280
   21CHL1  H21C 1535   1.444   2.724   5.406  2.3393 -0.6731  0.2301
   21CHL1   C22 1536   1.580   2.939   5.374 -0.7915 -0.6678  1.1389
   21CHL1  H22A 1537   1.628   3.039   5.378 -1.1277 -0.3259 -1.6172
   21CHL1  H22B 1538   1.662   2.869   5.397  0.8714  0.3893 -1.2463
   21CHL1   C23 1539   1.543   2.910   5.222  0.1307  0.2940 -0.0430
   21CHL1  H23A 1540   1.513   2.805   5.202  0.2799  0.2013  0.2153
   21CHL1  H23B 1541   1.457   2.978   5.206  0.3068  1.2202  2.3818
   21CHL1   C24 1542   1.658   2.937   5.122 -0.0567 -0.0894  0.5940
   21CHL1  H24A 1543   1.704   3.034   5.152 -1.3718  0.4603  0.8849
   21CHL1  H24B 1544   1.737   2.861   5.137 -1.8613 -1.9106  1.2928
   21CHL1   C25 1545   1.613   2.925   4.976  0.2215 -0.2619  0.3197
   21CHL1   H25 1546   1.573   2.821   4.969 -0.6584  0.0485  0.5842
   21CHL1   C26 1547   1.517   3.031   4.927  0.2844 -0.0482  0.3522
   21CHL1  H26A 1548   1.422   3.022   4.986  0.1738 -1.9164 -0.0252
   21CHL1  H26B 1549   1.572   3.125   4.948  3.0807 -1.7117  0.9911
   21CHL1  H26C 1550   1.497   3.006   4.821  2.6968 -0.1902 -0.1226
   21CHL1   C27 1551   1.740   2.910   4.887 -0.4061 -0.0501  0.1634
   21CHL1  H27A 1552   1.786   3.011   4.878 -1.9257  0.5170 -2.5500
   21CHL1  H27B 1553   1.796   2.819   4.915  0.2132 -0.4633 -2.1668
   21CHL1  H27C 1554   1.707   2.894   4.782 -1.0268 -0.6974  0.4494
   22CHL1    C3 1555   5.565   5.373   6.598 -0.4099  0.4059 -0.1597
   22CHL1    H3 1556   5.623   5.468   6.601  0.8395 -0.3278 -0.4743
   22CHL1    O3 1557   5.566   5.324   6.730  0.0296  0.6960  0.2029
   22CHL1   H3' 1558   5.472   5.312   6.743 -0.1524  1.8959  0.0446
   22CHL1    C4 1559   5.423   5.384   6.536 -0.2699  0.8161 -1.1348
   22CHL1   H4A 1560   5.375   5.284   6.547 -0.4050  0.7323 -2.3391
   22CHL1   H4B 1561   5.363   5.458   6.594 -1.3988  1.0214 -2.5038
   22CHL1    C5 1562   5.435   5.434   6.390 -0.7056  0.0479 -0.3608
   22CHL1    C6 1563   5.358   5.533   6.343  0.7790  0.2391 -0.2471
   22CHL1    H6 1564   5.270   5.563   6.401 -0.6484 -0.6748 -1.8435
   22CHL1    C7 1565   5.355   5.592   6.209 -0.6291  0.5357 -0.1644
   22CHL1   H7A 1566   5.251   5.606   6.175 -0.0803  1.6559 -1.4969
   22CHL1   H7B 1567   5.405   5.691   6.215 -0.5973  0.4329  1.6322
   22CHL1    C8 1568   5.426   5.493   6.113 -0.0310  0.6090 -0.1894
   22CHL1    H8 1569   5.359   5.409   6.082 -0.4633  0.5671  0.8337
   22CHL1   C14 1570   5.470   5.565   5.983 -0.0047 -0.4983 -0.0804
   22CHL1   H14 1571   5.539   5.646   6.016  1.8645 -1.3693 -1.6648
   22CHL1   C15 1572   5.361   5.645   5.912  0.1967 -0.4710 -0.5145
   22CHL1  H15A 1573   5.279   5.574   5.889 -0.6274  0.3775 -0.2748
   22CHL1  H15B 1574   5.320   5.731   5.970 -1.3822 -2.4705  1.5045
   22CHL1   C16 1575   5.428   5.678   5.777 -0.4856  0.4794  0.1037
   22CHL1  H16A 1576   5.353   5.630   5.711 -0.8772 -0.9446  1.5029
   22CHL1  H16B 1577   5.429   5.789   5.767 -0.2094  0.5329  0.6620
   22CHL1   C17 1578   5.565   5.605   5.776  0.2188  0.2866 -0.2843
   22CHL1   H17 1579   5.637   5.669   5.831  0.0035  0.1398  0.1734
   22CHL1   C13 1580   5.538   5.487   5.873 -0.4800 -0.2382 -0.1328
   22CHL1   C18 1581   5.467   5.360   5.825 -0.1723  0.3414 -0.0755
   22CHL1  H18A 1582   5.390   5.388   5.750  0.1936 -0.6886 -0.8548
   22CHL1  H18B 1583   5.531   5.300   5.757 -1.1223 -0.5264 -0.2240
   22CHL1  H18C 1584   5.421   5.297   5.904  0.4853  0.8468  0.7233
   22CHL1   C12 1585   5.664   5.435   5.936 -0.0669 -0.5636  0.3531
   22CHL1  H12A 1586   5.719   5.375   5.861 -0.8629 -1.0665  0.1622
   22CHL1  H12B 1587   5.736   5.518   5.956  1.4645 -1.5065 -1.0492
   22CHL1   C11 1588   5.647   5.369   6.070 -0.2818 -0.4230  0.4580
   22CHL1  H11A 1589   5.605   5.270   6.042  0.5230 -0.9713  1.1052
   22CHL1  H11B 1590   5.751   5.355   6.109  0.2926 -0.0493 -0.8642
   22CHL1    C9 1591   5.560   5.445   6.172  0.0111 -0.1315  0.2875
   22CHL1    H9 1592   5.604   5.545   6.194  0.2563  0.0049 -0.7406
   22CHL1   C10 1593   5.545   5.371   6.309 -0.2801 -0.5469 -0.0704
   22CHL1   C19 1594   5.498   5.226   6.274 -0.1542  0.4601  0.2504
   22CHL1  H19A 1595   5.450   5.184   6.366  0.2038  1.6268  0.9955
   22CHL1  H19B 1596   5.430   5.234   6.187  0.0441  1.8391  0.2063
   22CHL1  H19C 1597   5.580   5.154   6.255 -2.0355 -1.4673 -1.1213
   22CHL1    C1 1598   5.675   5.358   6.378 -0.1552  0.0387  0.2721
   22CHL1   H1A 1599   5.763   5.311   6.328 -0.8613 -0.2005 -0.7744
   22CHL1   H1B 1600   5.716   5.457   6.406 -2.1781  1.1676 -0.5701
   22CHL1    C2 1601   5.650   5.286   6.514  0.4815  0.5461  1.6821
   22CHL1   H2A 1602   5.750   5.274   6.560  0.0984 -3.9169  1.8242
   22CHL1   H2B 1603   5.606   5.184   6.511 -0.7696  0.9596  3.5702
   22CHL1   C20 1604   5.628   5.589   5.643  0.4893  0.3080 -0.0663
   22CHL1   H20 1605   5.691   5.498   5.640  0.5812  0.3794 -1.9620
   22CHL1   C21 1606   5.722   5.709   5.615 -0.1881  0.5310 -0.5892
   22CHL1  H21A 1607   5.668   5.804   5.599 -0.7905  0.3063  0.0455
   22CHL1  H21B 1608   5.787   5.690   5.527  0.0195 -2.3303  0.0785
   22CHL1  H21C 1609   5.788   5.724   5.703  0.1693 -2.3156 -0.2509
   22CHL1   C22 1610   5.528   5.562   5.520 -0.1797 -0.5384  0.0661
   22CHL1  H22A 1611   5.457   5.480   5.542 -0.5732 -0.2808 -0.2293
   22CHL1  H22B 1612   5.463   5.652   5.520  0.6746  0.1121 -0.9948
   22CHL1   C23 1613   5.593   5.559   5.384 -0.1917 -0.2348  0.0970
   22CHL1  H23A 1614   5.636   5.659   5.362  2.8795 -1.0111  1.9104
   22CHL1  H23B 1615   5.670   5.479   5.390 -1.4219 -1.5320 -1.0647
   22CHL1   C24 1616   5.492   5.523   5.277  0.3121  0.1245  0.9905
   22CHL1  H24A 1617   5.457   5.421   5.304  0.8121 -0.1957  0.4378
   22CHL1  H24B 1618   5.405   5.592   5.282  1.1843  1.4694 -1.0121
   22CHL1   C25 1619   5.541   5.511   5.129 -0.0585  0.1658 -0.2719
   22CHL1   H25 1620   5.623   5.437   5.119 -0.0481  0.1061  0.2266
   22CHL1   C26 1621   5.428   5.463   5.043  0.6698  0.2262 -0.6273
   22CHL1  H26A 1622   5.379   5.373   5.085  0.3248 -0.0374 -1.5701
   22CHL1  H26B 1623   5.355   5.547   5.030  0.0028 -0.1204  0.6418
   22CHL1  H26C 1624   5.458   5.437   4.939 -3.8506 -1.1998 -1.8139
   22CHL1   C27 1625   5.602   5.639   5.078 -0.2766 -0.4454 -0.2331
   22CHL1  H27A 1626   5.530   5.721   5.056  1.9388  1.4552 -0.8968
   22CHL1  H27B 1627   5.679   5.682   5.145 -2.0771  1.0544  0.9771
   22CHL1  H27C 1628   5.644   5.613   4.978 -0.7293  0.4498 -0.6648
   23CHL1    C3 1629   4.182   5.468   5.966 -0.8193 -0.5458 -0.2151
   23CHL1    H3 1630   4.219   5.363   5.958  0.7445 -0.0727  0.4322
   23CHL1    O3 1631   4.180   5.516   6.098 -0.2114  0.0467  0.1521
   23CHL1   H3' 1632   4.266   5.556   6.110 -1.5598  2.5161  2.8239
   23CHL1    C4 1633   4.283   5.559   5.884  0.2033 -0.6940 -0.5871
   23CHL1   H4A 1634   4.271   5.666   5.914 -1.7088 -1.7437  2.9467
   23CHL1   H4B 1635   4.376   5.536   5.941 -0.6402  1.0662  1.6565
   23CHL1    C5 1636   4.269   5.545   5.733 -0.3246  0.0487 -0.3606
   23CHL1    C6 1637   4.378   5.529   5.653  0.5303  0.2508 -0.2831
   23CHL1    H6 1638   4.477   5.538   5.702 -0.4591  2.2148  1.5051
   23CHL1    C7 1639   4.369   5.521   5.502  0.3108 -1.0567  0.0361
   23CHL1   H7A 1640   4.441   5.587   5.449  0.1563 -2.2022 -1.6693
   23CHL1   H7B 1641   4.395   5.416   5.477  0.6614 -1.1235  0.6656
   23CHL1    C8 1642   4.221   5.557   5.450 -0.1630  0.0599  0.0741
   23CHL1    H8 1643   4.218   5.668   5.455 -0.8510  0.2573 -2.9137
   23CHL1   C14 1644   4.208   5.506   5.310 -1.1850 -0.3619 -0.2403
   23CHL1   H14 1645   4.212   5.395   5.314 -2.3146 -0.4076 -0.2749
   23CHL1   C15 1646   4.321   5.552   5.211  0.4651  0.0099  0.0217
   23CHL1  H15A 1647   4.344   5.661   5.221  1.6560  0.1571 -3.1048
   23CHL1  H15B 1648   4.420   5.501   5.209  0.6431  0.2960  1.0288
   23CHL1   C16 1649   4.255   5.522   5.072  0.0969 -0.3065 -0.7930
   23CHL1  H16A 1650   4.249   5.618   5.016  1.9730  0.3840  0.1168
   23CHL1  H16B 1651   4.315   5.452   5.011 -1.1863 -1.4414 -0.8118
   23CHL1   C17 1652   4.106   5.472   5.102 -0.3804 -0.3660 -0.0236
   23CHL1   H17 1653   4.125   5.362   5.103  0.0555 -0.3033 -0.6698
   23CHL1   C13 1654   4.077   5.530   5.241 -0.7213  0.1077  0.0753
   23CHL1   C18 1655   4.046   5.676   5.226 -1.1927  0.1876  0.0130
   23CHL1  H18A 1656   4.106   5.726   5.147  0.0287  0.1206  0.8573
   23CHL1  H18B 1657   3.939   5.696   5.207 -1.3231  1.9896  2.2074
   23CHL1  H18C 1658   4.058   5.733   5.321  0.9915  1.1663 -0.7957
   23CHL1   C12 1659   3.962   5.468   5.327 -0.3679 -0.0159 -0.7226
   23CHL1  H12A 1660   3.861   5.490   5.286 -0.4561  1.0458  0.0223
   23CHL1  H12B 1661   3.971   5.357   5.323  1.1763  0.1177 -2.2053
   23CHL1   C11 1662   3.965   5.509   5.473 -0.4475 -0.3819  0.0634
   23CHL1  H11A 1663   3.935   5.616   5.474 -1.7464 -0.7305  0.5332
   23CHL1  H11B 1664   3.883   5.455   5.527 -1.4210 -1.2916 -2.2031
   23CHL1    C9 1665   4.107   5.488   5.537 -0.4839  0.0641 -0.0128
   23CHL1    H9 1666   4.130   5.379   5.544  1.3201  0.4222  0.3246
   23CHL1   C10 1667   4.119   5.538   5.683  0.6551  0.4411 -0.6408
   23CHL1   C19 1668   4.059   5.685   5.685 -0.3810  0.5550 -0.0456
   23CHL1  H19A 1669   3.950   5.669   5.672  0.2257 -1.7347 -3.7813
   23CHL1  H19B 1670   4.100   5.728   5.778  0.6091 -1.1192  0.3283
   23CHL1  H19C 1671   4.077   5.741   5.591 -0.6900 -2.3754 -2.0029
   23CHL1    C1 1672   4.029   5.440   5.768 -0.3633  0.4504 -0.2663
   23CHL1   H1A 1673   3.922   5.450   5.739 -0.6683 -1.4217  0.0684
   23CHL1   H1B 1674   4.059   5.333   5.758 -1.1030  0.3285 -1.2521
   23CHL1    C2 1675   4.040   5.479   5.915  0.1549 -0.5627  0.2954
   23CHL1   H2A 1676   3.981   5.432   5.997  0.0521  0.9233  1.1051
   23CHL1   H2B 1677   4.020   5.588   5.925  0.0459 -0.4739 -0.7307
   23CHL1   C20 1678   4.009   5.506   4.982  0.4015 -0.3750  0.2966
   23CHL1   H20 1679   3.994   5.616   4.977  2.1168 -0.1388 -0.4278
   23CHL1   C21 1680   3.880   5.429   4.986  0.4063  0.0918 -0.2279
   23CHL1  H21A 1681   3.833   5.420   4.885  1.9374 -2.5747 -0.8004
   23CHL1  H21B 1682   3.806   5.467   5.060  0.7243  0.6612 -0.2031
   23CHL1  H21C 1683   3.905   5.326   5.021  3.6469  0.4692 -1.1675
   23CHL1   C22 1684   4.070   5.479   4.841 -1.0042  0.1330 -0.2316
   23CHL1  H22A 1685   4.173   5.520   4.845 -1.3098  0.8111  1.9562
   23CHL1  H22B 1686   4.072   5.371   4.818  1.1480 -0.1804  1.1348
   23CHL1   C23 1687   3.999   5.561   4.734  0.3737  0.0880 -0.0778
   23CHL1  H23A 1688   3.899   5.523   4.704 -0.0231  1.8310 -1.1595
   23CHL1  H23B 1689   3.972   5.666   4.761 -1.6410  0.0784 -1.7506
   23CHL1   C24 1690   4.080   5.566   4.604 -0.2125  0.3282  0.2942
   23CHL1  H24A 1691   4.156   5.647   4.604 -0.6427  0.7354  0.4614
   23CHL1  H24B 1692   4.116   5.461   4.588 -0.9159 -0.0606  1.1991
   23CHL1   C25 1693   4.003   5.590   4.472 -0.1300 -0.0125 -0.2994
   23CHL1   H25 1694   3.943   5.500   4.446 -0.1333 -0.2969  0.6337
   23CHL1   C26 1695   3.901   5.704   4.487  0.1145 -0.2999  0.3664
   23CHL1  H26A 1696   3.952   5.790   4.535  0.3707 -0.4300  0.3336
   23CHL1  H26B 1697   3.866   5.735   4.386 -1.5101  1.3754  1.4074
   23CHL1  H26C 1698   3.826   5.680   4.564  1.2311  3.2684  2.8310
   23CHL1   C27 1699   4.105   5.622   4.361 -0.0952 -0.9384  0.4340
   23CHL1  H27A 1700   4.174   5.536   4.348 -0.5273 -1.3773  0.9670
   23CHL1  H27B 1701   4.055   5.649   4.266  0.0131  1.0334  0.8983
   23CHL1  H27C 1702   4.167   5.712   4.379  0.8743 -1.8392  1.8361
   24CHL1    C3 1703   6.943   1.407   6.511 -0.4112 -0.7265  0.1337
   24CHL1    H3 1704   6.931   1.515   6.534  0.9559 -0.7247  0.9722
   24CHL1    O3 1705   7.038   1.361   6.615  0.1605 -0.4478  0.1058
   24CHL1   H3' 1706   7.052   1.267   6.602 -1.9336 -1.0650  1.6924
   24CHL1    C4 1707   6.802   1.339   6.527 -0.5579 -0.0199 -0.6542
   24CHL1   H4A 1708   6.821   1.230   6.531 -2.0227 -0.2732  0.0123
   24CHL1   H4B 1709   6.762   1.357   6.629  1.6154  0.3384  0.1897
   24CHL1    C5 1710   6.705   1.368   6.410 -0.8263 -0.3228  0.3397
   24CHL1    C6 1711   6.581   1.412   6.437  0.0183  0.2676  0.7421
   24CHL1    H6 1712   6.570   1.432   6.544  0.4677  0.2110  0.7995
   24CHL1    C7 1713   6.478   1.425   6.324  0.5095 -0.7284 -0.2676
   24CHL1   H7A 1714   6.383   1.390   6.369  2.3300 -2.0662  2.8187
   24CHL1   H7B 1715   6.466   1.531   6.291  2.8382 -1.0974 -2.7357
   24CHL1    C8 1716   6.517   1.352   6.190  0.3382 -0.3849 -0.1370
   24CHL1    H8 1717   6.509   1.245   6.216  1.9923 -0.8394 -1.3266
   24CHL1   C14 1718   6.436   1.396   6.070  0.0901  0.4734 -0.1300
   24CHL1   H14 1719   6.452   1.502   6.043 -1.0453  0.3877 -1.2489
   24CHL1   C15 1720   6.282   1.393   6.082 -0.0441  0.1564 -0.3358
   24CHL1  H15A 1721   6.263   1.298   6.136  0.4051  0.2572  0.0080
   24CHL1  H15B 1722   6.249   1.483   6.139 -0.5389  1.3958 -2.4803
   24CHL1   C16 1723   6.235   1.412   5.940  0.1846  0.1046 -0.0491
   24CHL1  H16A 1724   6.141   1.356   5.925  0.4781 -0.9858  1.8188
   24CHL1  H16B 1725   6.219   1.521   5.929 -0.6784  0.2118  1.9207
   24CHL1   C17 1726   6.356   1.384   5.846  0.1801 -0.9370 -0.1847
   24CHL1   H17 1727   6.392   1.481   5.806  0.3191 -0.7567  0.3674
   24CHL1   C13 1728   6.470   1.329   5.936  0.5719  0.2005 -0.7006
   24CHL1   C18 1729   6.465   1.174   5.953  0.2855 -0.7057 -0.3386
   24CHL1  H18A 1730   6.507   1.127   5.861  0.5813  1.6957 -1.5014
   24CHL1  H18B 1731   6.539   1.151   6.033 -0.3006  1.2919  0.8318
   24CHL1  H18C 1732   6.373   1.127   5.993  0.9819  0.1612  2.5142
   24CHL1   C12 1733   6.611   1.381   5.900  0.3596 -0.1790  0.2324
   24CHL1  H12A 1734   6.645   1.341   5.802 -1.0102 -0.7009 -0.0376
   24CHL1  H12B 1735   6.612   1.492   5.909  3.7844 -0.0976  0.2485
   24CHL1   C11 1736   6.713   1.341   6.014  0.9647 -0.0431  0.5898
   24CHL1  H11A 1737   6.723   1.231   6.000 -1.5490 -0.5663  2.2497
   24CHL1  H11B 1738   6.810   1.391   5.992  0.0741  0.5159 -2.7431
   24CHL1    C9 1739   6.673   1.385   6.160  0.0315  0.8370  0.8667
   24CHL1    H9 1740   6.674   1.495   6.145  2.9828  1.0351  1.8385
   24CHL1   C10 1741   6.767   1.338   6.271 -0.1027 -1.2219  0.2655
   24CHL1   C19 1742   6.792   1.190   6.252  0.1968 -0.2720  0.1459
   24CHL1  H19A 1743   6.842   1.148   6.342 -0.5352 -0.8125  0.3017
   24CHL1  H19B 1744   6.698   1.138   6.224  0.5990 -0.0182 -1.8393
   24CHL1  H19C 1745   6.863   1.170   6.168 -0.0410  0.1621 -0.1605
   24CHL1    C1 1746   6.905   1.419   6.257 -0.1208  0.6294 -0.3791
   24CHL1   H1A 1747   6.961   1.384   6.168 -0.9603 -0.3444 -0.5469
   24CHL1   H1B 1748   6.875   1.525   6.244 -1.4405  0.2545 -0.5714
   24CHL1    C2 1749   7.002   1.390   6.373  0.9824 -0.3766  0.0077
   24CHL1   H2A 1750   7.080   1.468   6.375 -0.5795  1.2523  2.7655
   24CHL1   H2B 1751   7.040   1.286   6.364 -0.3019 -1.1254  2.3463
   24CHL1   C20 1752   6.326   1.308   5.714 -0.5730 -0.6159  0.1282
   24CHL1   H20 1753   6.299   1.210   5.756  3.5095 -1.5549  0.9586
   24CHL1   C21 1754   6.454   1.292   5.629 -0.3195  0.1862  0.3554
   24CHL1  H21A 1755   6.432   1.253   5.527  0.4814  1.8161 -0.4734
   24CHL1  H21B 1756   6.526   1.220   5.673  0.0044  2.0422  3.1087
   24CHL1  H21C 1757   6.506   1.390   5.624  0.1048 -0.0402  0.2936
   24CHL1   C22 1758   6.204   1.359   5.629  0.0551 -0.0443 -0.4243
   24CHL1  H22A 1759   6.183   1.288   5.546 -0.3697 -1.1747  0.6158
   24CHL1  H22B 1760   6.112   1.365   5.690  1.0108  0.6601  0.9820
   24CHL1   C23 1761   6.219   1.497   5.564  0.4866 -0.2736  0.4588
   24CHL1  H23A 1762   6.196   1.569   5.645 -0.4275  0.6914 -0.6248
   24CHL1  H23B 1763   6.321   1.507   5.520  0.4979  0.5972  0.6812
   24CHL1   C24 1764   6.116   1.509   5.455  0.5148 -0.3289  0.0839
   24CHL1  H24A 1765   6.143   1.445   5.369 -1.2957  0.1828 -0.9310
   24CHL1  H24B 1766   6.021   1.471   5.498 -0.1025  1.1072  0.0510
   24CHL1   C25 1767   6.097   1.653   5.412  0.2692 -0.8754  0.4051
   24CHL1   H25 1768   6.194   1.686   5.368 -0.2945  0.1656 -0.1006
   24CHL1   C26 1769   6.005   1.658   5.296  0.6382  0.1486 -0.3088
   24CHL1  H26A 1770   6.054   1.614   5.207  2.6052 -1.4386  1.4482
   24CHL1  H26B 1771   5.913   1.599   5.315  1.0764 -0.1404  1.0175
   24CHL1  H26C 1772   5.978   1.764   5.276  0.4725  0.1128 -0.2803
   24CHL1   C27 1773   6.044   1.753   5.523 -0.2859 -0.3421  0.0807
   24CHL1  H27A 1774   6.000   1.846   5.482 -1.1336  0.0219  1.7593
   24CHL1  H27B 1775   5.971   1.691   5.580  0.5330 -1.3432  0.0767
   24CHL1  H27C 1776   6.120   1.779   5.599  1.6376 -1.9360 -1.1887
   25CHL1    C3 1777   2.647   3.141   6.274 -0.1921  0.1076 -0.0356
   25CHL1    H3 1778   2.598   3.239   6.260 -2.6008 -1.0966 -0.6410
   25CHL1    O3 1779   2.649   3.117   6.416 -0.3861 -0.1761 -0.5893
   25CHL1   H3' 1780   2.660   3.022   6.409  1.3213 -0.1804  1.3777
   25CHL1    C4 1781   2.560   3.034   6.213  0.1970  0.2637 -0.4324
   25CHL1   H4A 1782   2.592   2.933   6.245 -0.8537 -0.2308 -0.8758
   25CHL1   H4B 1783   2.456   3.029   6.251 -0.3796  1.0656 -1.8279
   25CHL1    C5 1784   2.564   3.063   6.065 -0.2757 -0.4773  0.1011
   25CHL1    C6 1785   2.449   3.096   6.002 -0.2596  0.8067  0.3164
   25CHL1    H6 1786   2.355   3.089   6.058 -1.0142 -1.6168 -1.1132
   25CHL1    C7 1787   2.443   3.125   5.857 -0.9317  0.0088  0.4610
   25CHL1   H7A 1788   2.349   3.082   5.817 -0.4216  0.8504 -1.7977
   25CHL1   H7B 1789   2.443   3.235   5.843 -2.5233 -0.0702 -0.3199
   25CHL1    C8 1790   2.563   3.056   5.780  0.5997  0.3114 -0.3624
   25CHL1    H8 1791   2.554   2.945   5.781  1.0723  0.2405 -1.6236
   25CHL1   C14 1792   2.562   3.114   5.636 -0.5876 -0.4744  0.0411
   25CHL1   H14 1793   2.589   3.220   5.660  0.8325 -1.1151  1.4773
   25CHL1   C15 1794   2.435   3.131   5.553 -0.0380 -0.7780 -0.1631
   25CHL1  H15A 1795   2.384   3.032   5.555 -0.8963 -0.3617 -0.6651
   25CHL1  H15B 1796   2.369   3.213   5.591  1.8951  0.1767  1.3120
   25CHL1   C16 1797   2.488   3.162   5.410 -1.0658  0.1160  0.2084
   25CHL1  H16A 1798   2.447   3.083   5.344  0.5954  1.2065 -2.2805
   25CHL1  H16B 1799   2.456   3.266   5.389  1.1782  0.6521 -0.9165
   25CHL1   C17 1800   2.648   3.156   5.417 -0.0998  0.5053 -0.2690
   25CHL1   H17 1801   2.685   3.257   5.444 -2.9524  2.0195 -1.6285
   25CHL1   C13 1802   2.678   3.069   5.548 -0.6493  0.1977 -0.1672
   25CHL1   C18 1803   2.661   2.917   5.526  0.2080  0.2676 -0.8503
   25CHL1  H18A 1804   2.565   2.899   5.472 -0.4643 -1.4485  0.7699
   25CHL1  H18B 1805   2.744   2.885   5.459 -0.0581  1.7513 -1.9415
   25CHL1  H18C 1806   2.669   2.856   5.619 -0.2743 -0.7496 -1.4502
   25CHL1   C12 1807   2.812   3.098   5.619 -0.0049 -0.0789 -0.6733
   25CHL1  H12A 1808   2.894   3.062   5.555 -0.2410 -0.7660 -0.6028
   25CHL1  H12B 1809   2.833   3.207   5.620  1.3895 -0.3158 -1.8795
   25CHL1   C11 1810   2.821   3.046   5.761  0.4363 -0.2956 -0.6035
   25CHL1  H11A 1811   2.833   2.935   5.769 -0.5562 -0.3144  1.3198
   25CHL1  H11B 1812   2.910   3.095   5.806 -0.0454  1.6955 -1.7085
   25CHL1    C9 1813   2.695   3.090   5.845  0.8523  0.0313  0.2142
   25CHL1    H9 1814   2.704   3.200   5.839 -2.6289  0.6871  3.3849
   25CHL1   C10 1815   2.704   3.052   5.996  0.7653 -0.4915 -0.2255
   25CHL1   C19 1816   2.753   2.912   6.008  0.2338  0.5236 -0.3362
   25CHL1  H19A 1817   2.859   2.901   5.977  0.0818 -1.8467 -0.2540
   25CHL1  H19B 1818   2.751   2.878   6.114  0.0582  1.4408 -0.0368
   25CHL1  H19C 1819   2.692   2.841   5.948  0.7005  0.4191 -0.6941
   25CHL1    C1 1820   2.789   3.154   6.070 -0.1670 -0.2498  0.2954
   25CHL1   H1A 1821   2.891   3.139   6.028  0.2157 -0.6844  1.3539
   25CHL1   H1B 1822   2.754   3.256   6.044 -0.1027 -0.6613 -1.5215
   25CHL1    C2 1823   2.790   3.144   6.220 -0.6974 -0.2170  0.2052
   25CHL1   H2A 1824   2.860   3.222   6.258 -0.9220  1.4820 -2.5681
   25CHL1   H2B 1825   2.848   3.052   6.242  0.9031  0.5790 -0.5532
   25CHL1   C20 1826   2.714   3.120   5.280 -0.5516  0.1917 -0.5669
   25CHL1   H20 1827   2.664   3.025   5.253 -1.4655  0.6055 -0.3691
   25CHL1   C21 1828   2.872   3.090   5.289 -0.1948  0.5297  0.3495
   25CHL1  H21A 1829   2.914   3.184   5.330 -3.0717  1.0798  2.4092
   25CHL1  H21B 1830   2.900   3.068   5.184  0.7276 -1.0949  0.9011
   25CHL1  H21C 1831   2.905   3.007   5.356 -0.5948  0.5151  0.5347
   25CHL1   C22 1832   2.682   3.221   5.165  0.5351 -0.0282  0.3092
   25CHL1  H22A 1833   2.589   3.273   5.195  1.4782  0.8530  1.8586
   25CHL1  H22B 1834   2.761   3.297   5.186 -0.3840  0.9178  0.4430
   25CHL1   C23 1835   2.674   3.172   5.017  0.3359  0.0680  0.1175
   25CHL1  H23A 1836   2.770   3.122   4.991  1.0084  0.2534  2.0942
   25CHL1  H23B 1837   2.590   3.099   5.013 -0.8687  1.4159  0.1057
   25CHL1   C24 1838   2.658   3.281   4.902  0.7813  0.2898  0.0244
   25CHL1  H24A 1839   2.573   3.341   4.941  1.2006  0.9847 -0.0947
   25CHL1  H24B 1840   2.754   3.338   4.902  0.9004  0.1053  0.6785
   25CHL1   C25 1841   2.638   3.224   4.770  0.6638  0.2384  0.4331
   25CHL1   H25 1842   2.573   3.135   4.783 -0.0034  0.2640 -2.1280
   25CHL1   C26 1843   2.578   3.317   4.662  0.2111 -0.2758  0.0879
   25CHL1  H26A 1844   2.476   3.346   4.695  0.7670  0.1346  1.5440
   25CHL1  H26B 1845   2.646   3.404   4.653 -0.8615  1.1268  3.7371
   25CHL1  H26C 1846   2.580   3.260   4.567 -1.3865 -0.2838  0.0304
   25CHL1   C27 1847   2.765   3.166   4.722 -0.4103 -0.0333  0.6998
   25CHL1  H27A 1848   2.742   3.126   4.621  1.4900  0.6436 -0.0459
   25CHL1  H27B 1849   2.841   3.246   4.709  0.0763 -0.6322 -0.2509
   25CHL1  H27C 1850   2.807   3.084   4.784 -1.2116 -1.2413 -0.3225
   26CHL1    C3 1851   2.168   2.051   6.130 -0.9472 -0.2715 -0.5202
   26CHL1    H3 1852   2.085   1.984   6.100  0.0904 -2.6511  1.6003
   26CHL1    O3 1853   2.172   2.070   6.269  0.1146  0.1485 -0.5719
   26CHL1   H3' 1854   2.246   2.129   6.280  0.6525 -0.4304 -1.0068
   26CHL1    C4 1855   2.309   1.996   6.091  0.5870  0.4583 -0.2080
   26CHL1   H4A 1856   2.386   2.069   6.124  0.3705  2.3085 -3.3946
   26CHL1   H4B 1857   2.313   1.902   6.150 -1.9557  0.6975  0.4205
   26CHL1    C5 1858   2.316   1.972   5.941  0.0085  0.0813 -0.7550
   26CHL1    C6 1859   2.345   1.855   5.876  0.1717  0.0002 -0.1460
   26CHL1    H6 1860   2.356   1.767   5.941 -2.0477  0.0477  0.3806
   26CHL1    C7 1861   2.350   1.844   5.728 -0.3352 -0.4182  0.0761
   26CHL1   H7A 1862   2.440   1.782   5.710  0.2554  0.2301  0.7215
   26CHL1   H7B 1863   2.254   1.798   5.697  0.3707 -0.0564 -3.0157
   26CHL1    C8 1864   2.349   1.974   5.648  0.0939 -0.0447  0.1795
   26CHL1    H8 1865   2.452   2.017   5.657  1.2163 -2.5840  0.1973
   26CHL1   C14 1866   2.317   1.954   5.497  0.2875  0.0165  1.0334
   26CHL1   H14 1867   2.217   1.906   5.500 -0.9778  2.0598 -2.7647
   26CHL1   C15 1868   2.395   1.850   5.405  0.5192 -0.0571  0.5299
   26CHL1  H15A 1869   2.504   1.847   5.423  1.1832 -1.7991 -2.8745
   26CHL1  H15B 1870   2.373   1.748   5.442  1.8275 -0.8773 -0.8271
   26CHL1   C16 1871   2.362   1.886   5.264  0.2552 -0.6961  0.3190
   26CHL1  H16A 1872   2.458   1.908   5.212 -0.0549  0.3739  0.1809
   26CHL1  H16B 1873   2.297   1.811   5.213  1.4031 -0.1300 -2.1418
   26CHL1   C17 1874   2.285   2.018   5.275  0.7878  0.2690  0.0268
   26CHL1   H17 1875   2.182   1.979   5.289  0.9354  0.4549  1.7893
   26CHL1   C13 1876   2.320   2.083   5.417 -0.5390  0.1234  0.3851
   26CHL1   C18 1877   2.454   2.145   5.404  0.5558  0.3284  0.0276
   26CHL1  H18A 1878   2.529   2.075   5.361 -0.7138 -0.9006 -0.2826
   26CHL1  H18B 1879   2.451   2.231   5.333 -3.0995  1.2584  1.0849
   26CHL1  H18C 1880   2.488   2.178   5.504 -2.1609 -2.5463  2.0847
   26CHL1   C12 1881   2.209   2.173   5.483 -0.3882  0.8349  0.6274
   26CHL1  H12A 1882   2.197   2.269   5.429  2.2044  0.3027 -1.1187
   26CHL1  H12B 1883   2.113   2.118   5.480 -0.2110  0.4241  1.7997
   26CHL1   C11 1884   2.250   2.201   5.631  0.3172  0.0786 -0.4880
   26CHL1  H11A 1885   2.351   2.246   5.634  0.2555  0.2429 -0.8211
   26CHL1  H11B 1886   2.178   2.276   5.670  1.1851  0.2884  0.7545
   26CHL1    C9 1887   2.255   2.074   5.717  0.0236  0.3430  0.1119
   26CHL1    H9 1888   2.154   2.030   5.711  0.3115 -0.6673  1.8936
   26CHL1   C10 1889   2.287   2.103   5.867  0.4439  0.4926  0.0016
   26CHL1   C19 1890   2.417   2.190   5.879  0.2410 -0.1867  0.1945
   26CHL1  H19A 1891   2.394   2.287   5.831  0.3200 -0.9631 -1.4850
   26CHL1  H19B 1892   2.449   2.209   5.983  2.2082  2.4379 -0.7762
   26CHL1  H19C 1893   2.506   2.138   5.837  0.1060  0.0219 -0.3646
   26CHL1    C1 1894   2.162   2.178   5.915 -0.2626 -0.1270  0.0402
   26CHL1   H1A 1895   2.148   2.281   5.877 -0.5150  1.6460  4.3647
   26CHL1   H1B 1896   2.074   2.120   5.882 -0.8024  0.5335  0.2994
   26CHL1    C2 1897   2.148   2.195   6.065  0.0278 -0.5160 -0.6956
   26CHL1   H2A 1898   2.047   2.230   6.095  0.9815  1.6483  0.2500
   26CHL1   H2B 1899   2.208   2.275   6.114 -1.0337  0.3513 -0.7791
   26CHL1   C20 1900   2.297   2.106   5.150  0.6208 -0.5200  0.0705
   26CHL1   H20 1901   2.297   2.211   5.185 -2.5680 -0.1661 -0.7240
   26CHL1   C21 1902   2.159   2.081   5.078 -0.0282  0.3169  0.2504
   26CHL1  H21A 1903   2.080   2.100   5.154  0.2234 -0.3987  0.7006
   26CHL1  H21B 1904   2.155   1.976   5.040  0.4070  0.7030 -0.9137
   26CHL1  H21C 1905   2.154   2.147   4.989  2.0749 -1.2302 -1.1248
   26CHL1   C22 1906   2.420   2.084   5.050  1.2406 -0.4335 -0.3166
   26CHL1  H22A 1907   2.516   2.084   5.107  1.4813  2.4303 -0.5759
   26CHL1  H22B 1908   2.405   1.982   5.008 -1.4047  0.0474 -0.6709
   26CHL1   C23 1909   2.422   2.189   4.946 -0.3529  0.0652  0.0542
   26CHL1  H23A 1910   2.323   2.223   4.909 -0.1564  1.6727  0.8887
   26CHL1  H23B 1911   2.466   2.280   4.994  0.1003 -0.5775  0.8832
   26CHL1   C24 1912   2.530   2.172   4.831 -0.1606  0.0878  0.0372
   26CHL1  H24A 1913   2.622   2.131   4.877  0.5593  1.4574 -0.1379
   26CHL1  H24B 1914   2.487   2.093   4.766  0.7156 -1.5578  1.3706
   26CHL1   C25 1915   2.542   2.301   4.754  0.0374  1.2884 -0.6849
   26CHL1   H25 1916   2.560   2.383   4.827 -0.1302  0.2958  0.5094
   26CHL1   C26 1917   2.662   2.288   4.655  0.1023 -0.2578 -0.0413
   26CHL1  H26A 1918   2.635   2.217   4.574 -2.3492  0.1803  0.3102
   26CHL1  H26B 1919   2.665   2.391   4.612 -0.1034  0.4151  1.4967
   26CHL1  H26C 1920   2.757   2.257   4.703  1.0218  0.9461 -1.0056
   26CHL1   C27 1921   2.415   2.330   4.670  0.3159 -0.4234  0.4204
   26CHL1  H27A 1922   2.457   2.375   4.577 -0.1353 -0.5969  0.1318
   26CHL1  H27B 1923   2.367   2.237   4.635  0.2462 -0.5179  0.7664
   26CHL1  H27C 1924   2.336   2.389   4.721  1.3671  1.0399  0.4305
   27CHL1    C3 1925   6.830   5.904   6.461 -1.0610  0.0496  0.1885
   27CHL1    H3 1926   6.842   5.997   6.400  1.5767 -0.4098 -0.1476
   27CHL1    O3 1927   6.864   5.942   6.587  0.1851  0.2824 -0.0041
   27CHL1   H3' 1928   6.852   5.861   6.638  0.6950  0.6604  0.7371
   27CHL1    C4 1929   6.694   5.841   6.446  0.7904  0.8519 -0.2595
   27CHL1   H4A 1930   6.678   5.746   6.501 -4.3999  1.4947 -0.1801
   27CHL1   H4B 1931   6.617   5.909   6.489 -1.6534 -1.0603 -1.3223
   27CHL1    C5 1932   6.664   5.822   6.293 -0.3917 -0.1595 -0.1414
   27CHL1    C6 1933   6.563   5.887   6.235 -0.0827 -0.4668 -0.2478
   27CHL1    H6 1934   6.491   5.953   6.286  1.4987 -0.2240  1.7985
   27CHL1    C7 1935   6.541   5.885   6.089  0.7965 -0.3254  0.0593
   27CHL1   H7A 1936   6.433   5.885   6.063  1.1480 -1.6319 -1.6172
   27CHL1   H7B 1937   6.584   5.977   6.044 -0.4039  0.0166 -0.4360
   27CHL1    C8 1938   6.594   5.752   6.029 -0.7705  0.7901  0.3106
   27CHL1    H8 1939   6.535   5.666   6.066  0.6114 -0.2103  0.2452
   27CHL1   C14 1940   6.593   5.762   5.876  0.5360  0.1542  0.2565
   27CHL1   H14 1941   6.664   5.840   5.843 -1.5316  1.6067 -1.0173
   27CHL1   C15 1942   6.464   5.809   5.815  0.7138 -0.1066 -0.3932
   27CHL1  H15A 1943   6.385   5.740   5.854 -1.3096  0.7789 -2.6799
   27CHL1  H15B 1944   6.435   5.911   5.845 -0.1578 -0.8311  1.3706
   27CHL1   C16 1945   6.471   5.779   5.662  0.4650  0.0862 -0.4008
   27CHL1  H16A 1946   6.374   5.747   5.618 -0.7839  2.6139  0.3110
   27CHL1  H16B 1947   6.509   5.863   5.599 -1.1432  0.9069 -0.3299
   27CHL1   C17 1948   6.592   5.684   5.657  0.3948 -0.9666 -0.2966
   27CHL1   H17 1949   6.678   5.739   5.614 -2.2669  2.0425 -2.2783
   27CHL1   C13 1950   6.625   5.634   5.803 -0.2013  0.0178  0.0195
   27CHL1   C18 1951   6.538   5.511   5.844  0.0786  0.1100  0.0168
   27CHL1  H18A 1952   6.599   5.427   5.804  0.4065 -0.0925  0.9142
   27CHL1  H18B 1953   6.509   5.498   5.951 -1.0418 -2.2799 -0.5052
   27CHL1  H18C 1954   6.438   5.525   5.798 -0.1339  1.7061  0.9030
   27CHL1   C12 1955   6.776   5.614   5.834 -0.3314 -0.0427 -0.8667
   27CHL1  H12A 1956   6.819   5.516   5.804 -0.8872 -1.0853  1.5007
   27CHL1  H12B 1957   6.829   5.697   5.783 -1.2793  1.4050  0.4098
   27CHL1   C11 1958   6.799   5.605   5.989 -0.2764  0.1849 -0.2035
   27CHL1  H11A 1959   6.754   5.512   6.028  0.4903  1.0031  2.8736
   27CHL1  H11B 1960   6.909   5.599   6.006 -0.4487  2.2298  2.0716
   27CHL1    C9 1961   6.740   5.724   6.069 -0.1622  0.2213 -0.0842
   27CHL1    H9 1962   6.797   5.814   6.036  0.0934  0.8332  1.8530
   27CHL1   C10 1963   6.764   5.731   6.222  1.0133 -0.5274  0.3644
   27CHL1   C19 1964   6.741   5.591   6.282  0.6390  0.3415 -0.2163
   27CHL1  H19A 1965   6.749   5.596   6.393 -0.2678 -0.8681 -0.0684
   27CHL1  H19B 1966   6.636   5.560   6.262  0.6817  1.3987 -2.2864
   27CHL1  H19C 1967   6.819   5.517   6.255  1.1346  1.4638 -1.9773
   27CHL1    C1 1968   6.907   5.772   6.242 -0.2965  1.0378  0.5102
   27CHL1   H1A 1969   6.981   5.693   6.215  1.0454  2.0748  1.0296
   27CHL1   H1B 1970   6.935   5.862   6.184 -0.2454 -0.4557 -1.9407
   27CHL1    C2 1971   6.934   5.808   6.393  0.3337  0.0302 -0.6483
   27CHL1   H2A 1972   7.030   5.855   6.426 -0.1490  0.0050  0.9009
   27CHL1   H2B 1973   6.922   5.712   6.448  0.4993  0.6040  0.4273
   27CHL1   C20 1974   6.569   5.580   5.544  0.3752  0.5346 -1.2540
   27CHL1   H20 1975   6.484   5.515   5.575  0.4456  0.3988 -1.3489
   27CHL1   C21 1976   6.700   5.493   5.537 -0.1947 -0.0366  0.2507
   27CHL1  H21A 1977   6.702   5.415   5.458 -1.9210 -2.8287  2.7044
   27CHL1  H21B 1978   6.724   5.432   5.628  2.5502  0.5899  0.0265
   27CHL1  H21C 1979   6.789   5.558   5.527  0.9302 -1.1778  2.1320
   27CHL1   C22 1980   6.535   5.636   5.396  0.0081 -0.4475 -0.6032
   27CHL1  H22A 1981   6.439   5.692   5.399  0.3282  0.1475 -1.2039
   27CHL1  H22B 1982   6.613   5.713   5.378  0.8773 -1.2165 -0.1953
   27CHL1   C23 1983   6.522   5.542   5.275  0.4780 -0.3423 -0.3002
   27CHL1  H23A 1984   6.624   5.501   5.257  0.7532 -0.1451  0.7210
   27CHL1  H23B 1985   6.444   5.465   5.296 -0.3758  0.7372  0.6019
   27CHL1   C24 1986   6.485   5.632   5.151 -0.0741 -0.3451 -0.0834
   27CHL1  H24A 1987   6.384   5.674   5.173  0.1394  1.0344 -1.5435
   27CHL1  H24B 1988   6.564   5.709   5.136  0.0495  0.2516  2.9840
   27CHL1   C25 1989   6.479   5.553   5.016  0.3838  0.1693  0.4060
   27CHL1   H25 1990   6.407   5.471   5.042  0.4208  0.0314  0.0694
   27CHL1   C26 1991   6.415   5.630   4.906  1.0069  0.2569  0.4933
   27CHL1  H26A 1992   6.423   5.580   4.807  2.5904  1.0095  0.2096
   27CHL1  H26B 1993   6.308   5.646   4.932  0.2874 -2.2147 -0.6407
   27CHL1  H26C 1994   6.459   5.724   4.867  0.7478 -0.5755 -1.9857
   27CHL1   C27 1995   6.608   5.497   4.955 -1.2689  0.4770  0.0537
   27CHL1  H27A 1996   6.591   5.448   4.857  0.3679  0.1829 -0.1190
   27CHL1  H27B 1997   6.678   5.581   4.933  0.6706 -0.3979  2.4340
   27CHL1  H27C 1998   6.647   5.420   5.024 -1.6902  1.5400  1.5250
   28CHL1    C3 1999   3.629   3.174   6.453  0.2018 -0.5967  0.8356
   28CHL1    H3 2000   3.728   3.123   6.462  1.1954  0.8918 -0.9603
   28CHL1    O3 2001   3.579   3.183   6.588  0.4595  0.1132 -0.6740
   28CHL1   H3' 2002   3.508   3.118   6.588  3.2615 -3.2053 -0.6494
   28CHL1    C4 2003   3.660   3.321   6.402  0.6143  0.6706 -0.1267
   28CHL1   H4A 2004   3.571   3.380   6.430 -1.7875 -1.5978 -2.4323
   28CHL1   H4B 2005   3.749   3.342   6.466  0.3354  0.2964  0.3934
   28CHL1    C5 2006   3.705   3.330   6.254 -0.3056 -0.2664  0.5119
   28CHL1    C6 2007   3.821   3.392   6.227  0.4473  0.0002 -0.4057
   28CHL1    H6 2008   3.881   3.447   6.301  0.0012  0.0232 -0.0560
   28CHL1    C7 2009   3.882   3.405   6.091  0.7115 -0.0825  0.4904
   28CHL1   H7A 2010   3.908   3.510   6.070  3.8050 -0.4727  1.8876
   28CHL1   H7B 2011   3.977   3.347   6.088  1.9059  1.8326 -1.3354
   28CHL1    C8 2012   3.786   3.351   5.980 -1.1273 -0.0402  0.2701
   28CHL1    H8 2013   3.720   3.437   5.957 -1.6074 -0.6526 -0.7525
   28CHL1   C14 2014   3.863   3.311   5.848  0.8300 -0.5572  0.6650
   28CHL1   H14 2015   3.917   3.215   5.866  0.1968 -0.8744  0.8838
   28CHL1   C15 2016   3.978   3.403   5.803 -0.2660  0.5751 -0.3228
   28CHL1  H15A 2017   3.942   3.508   5.813  2.7291  1.5672  1.0545
   28CHL1  H15B 2018   4.069   3.394   5.866  0.0952 -3.0163 -1.1582
   28CHL1   C16 2019   4.008   3.357   5.661  0.2095  0.1936 -0.0676
   28CHL1  H16A 2020   4.031   3.445   5.597 -1.7688  0.5603 -0.3547
   28CHL1  H16B 2021   4.097   3.291   5.664  0.6105  0.7567  0.5118
   28CHL1   C17 2022   3.881   3.280   5.606 -0.4382  0.2758  0.0296
   28CHL1   H17 2023   3.922   3.177   5.621 -0.2201  0.6461  2.3521
   28CHL1   C13 2024   3.778   3.285   5.720 -0.4327 -0.1822 -0.5852
   28CHL1   C18 2025   3.678   3.405   5.679  0.7946  0.0643 -0.8028
   28CHL1  H18A 2026   3.607   3.441   5.756  0.6532  4.3290 -2.6083
   28CHL1  H18B 2027   3.730   3.501   5.659 -1.2933  2.0836  2.4075
   28CHL1  H18C 2028   3.618   3.380   5.589 -0.4817 -0.0346  0.0434
   28CHL1   C12 2029   3.696   3.153   5.763 -0.4435  0.5647  0.5189
   28CHL1  H12A 2030   3.622   3.124   5.685 -0.3563 -1.6790  1.1901
   28CHL1  H12B 2031   3.768   3.070   5.778  1.9557  2.2391 -0.9636
   28CHL1   C11 2032   3.619   3.177   5.894  0.5316  0.1380 -0.6834
   28CHL1  H11A 2033   3.540   3.250   5.867  1.0974  1.0632  0.0896
   28CHL1  H11B 2034   3.579   3.076   5.917 -0.5448  0.9149  1.0710
   28CHL1    C9 2035   3.702   3.228   6.016  0.8282 -0.9329  0.7052
   28CHL1    H9 2036   3.764   3.137   6.033  0.7157 -1.4386 -1.3615
   28CHL1   C10 2037   3.624   3.250   6.151 -0.3895 -0.2492 -0.3237
   28CHL1   C19 2038   3.497   3.334   6.127 -0.2154 -0.3083 -0.4064
   28CHL1  H19A 2039   3.431   3.357   6.214 -2.5430 -1.6419 -1.6997
   28CHL1  H19B 2040   3.505   3.420   6.057 -0.7902  0.7828  0.8195
   28CHL1  H19C 2041   3.433   3.264   6.070 -0.3456  0.2863 -1.0039
   28CHL1    C1 2042   3.594   3.106   6.208 -0.4163  0.1444  0.6216
   28CHL1   H1A 2043   3.518   3.056   6.145  0.7676 -1.5619  0.4823
   28CHL1   H1B 2044   3.686   3.044   6.211 -0.1199  0.4714 -0.9394
   28CHL1    C2 2045   3.536   3.099   6.348  0.2872 -0.7015 -0.9700
   28CHL1   H2A 2046   3.504   2.998   6.382 -2.1163  0.8916  1.9400
   28CHL1   H2B 2047   3.446   3.164   6.349  1.7905  1.5381 -1.9991
   28CHL1   C20 2048   3.859   3.306   5.459  0.1018 -0.0979  0.0158
   28CHL1   H20 2049   3.829   3.412   5.449 -1.1443 -0.2805  1.5148
   28CHL1   C21 2050   3.745   3.213   5.419 -0.0239  0.6318  0.4926
   28CHL1  H21A 2051   3.662   3.214   5.494  0.6300 -1.0301  1.2945
   28CHL1  H21B 2052   3.787   3.111   5.410  0.7587  0.9723  0.2634
   28CHL1  H21C 2053   3.702   3.237   5.319 -0.2457 -2.0097 -0.1261
   28CHL1   C22 2054   3.989   3.283   5.377  0.4017  0.3066 -0.1419
   28CHL1  H22A 2055   4.073   3.338   5.426  1.3019  1.4131 -2.7472
   28CHL1  H22B 2056   4.017   3.176   5.378 -0.0229  0.1405  2.8451
   28CHL1   C23 2057   3.976   3.339   5.230  0.1237  0.4749  0.3980
   28CHL1  H23A 2058   3.905   3.278   5.170 -0.8712  1.9146  0.0616
   28CHL1  H23B 2059   3.930   3.440   5.227 -0.3919  0.2297 -0.9977
   28CHL1   C24 2060   4.111   3.335   5.142  0.2498  0.3647 -0.1034
   28CHL1  H24A 2061   4.185   3.385   5.209  0.5587  0.3087 -0.4030
   28CHL1  H24B 2062   4.141   3.229   5.148  2.6722  1.0278  0.6528
   28CHL1   C25 2063   4.112   3.387   5.006 -1.2266  1.2394  0.5777
   28CHL1   H25 2064   4.211   3.365   4.962 -1.1647  0.6964  0.9751
   28CHL1   C26 2065   3.998   3.328   4.918 -0.3733  0.0685 -0.6618
   28CHL1  H26A 2066   3.914   3.372   4.976 -0.3316 -1.9280  1.0251
   28CHL1  H26B 2067   4.005   3.383   4.821 -1.2799  0.5142 -0.4858
   28CHL1  H26C 2068   4.004   3.218   4.908  1.0934  0.0633  0.0249
   28CHL1   C27 2069   4.106   3.543   5.000  0.0321  0.6025 -0.7158
   28CHL1  H27A 2070   4.112   3.570   4.893  2.2567  1.0716 -0.5094
   28CHL1  H27B 2071   4.018   3.577   5.058  0.2271  0.7511 -0.5051
   28CHL1  H27C 2072   4.199   3.575   5.051 -0.4940 -0.1601  0.7784
   29CHL1    C3 2073   1.924   2.055   2.708  0.4616 -0.6351 -0.3007
   29CHL1    H3 2074   2.032   2.034   2.694  0.7170 -0.1076  0.7050
   29CHL1    O3 2075   1.872   2.098   2.591  0.5493 -0.6077 -0.4857
   29CHL1   H3' 2076   1.791   2.149   2.603  1.1939 -0.1399  3.2300
   29CHL1    C4 2077   1.854   1.925   2.751 -0.3624 -0.0030  0.7419
   29CHL1   H4A 2078   1.749   1.957   2.768 -1.1507 -1.7493 -0.5211
   29CHL1   H4B 2079   1.859   1.855   2.665 -0.7297  1.0655 -0.1836
   29CHL1    C5 2080   1.913   1.866   2.881  0.8762 -0.9475  0.4700
   29CHL1    C6 2081   1.969   1.737   2.896  0.8120 -0.3238  0.4888
   29CHL1    H6 2082   1.960   1.663   2.814 -0.8062 -0.9266  1.1684
   29CHL1    C7 2083   2.006   1.677   3.028 -0.2535  0.4217 -0.0245
   29CHL1   H7A 2084   1.968   1.573   3.042 -1.1679  0.6700 -0.5855
   29CHL1   H7B 2085   2.117   1.672   3.021 -0.2701  0.4911 -0.3365
   29CHL1    C8 2086   1.966   1.760   3.154  0.3755  0.1869 -1.2721
   29CHL1    H8 2087   1.864   1.722   3.176 -0.0633  2.7625  1.6980
   29CHL1   C14 2088   2.063   1.723   3.266  0.7211 -0.2749 -0.8564
   29CHL1   H14 2089   2.168   1.753   3.243  0.4353  0.8018 -0.8283
   29CHL1   C15 2090   2.068   1.570   3.294 -0.0609  0.2031  0.0851
   29CHL1  H15A 2091   1.971   1.518   3.285  0.7890 -1.4861  0.2717
   29CHL1  H15B 2092   2.150   1.523   3.236 -0.3991 -0.3993  0.0898
   29CHL1   C16 2093   2.107   1.567   3.442 -0.0046 -0.4231 -0.0907
   29CHL1  H16A 2094   2.036   1.506   3.502 -0.6924  1.4156  1.0328
   29CHL1  H16B 2095   2.205   1.515   3.448  1.3210  2.0918  2.3663
   29CHL1   C17 2096   2.116   1.714   3.495 -0.0758 -0.2558  1.0978
   29CHL1   H17 2097   2.220   1.743   3.468  0.0045  0.5436  2.1785
   29CHL1   C13 2098   2.017   1.790   3.400 -0.3756  0.9305  0.0535
   29CHL1   C18 2099   1.874   1.761   3.439  0.3154  0.5387 -0.1255
   29CHL1  H18A 2100   1.798   1.795   3.364 -0.3354 -0.2226  0.1712
   29CHL1  H18B 2101   1.861   1.651   3.451  1.5685  0.3404 -0.4882
   29CHL1  H18C 2102   1.847   1.809   3.535  0.8029  0.1413  0.2094
   29CHL1   C12 2103   2.033   1.941   3.378  0.4957  0.1901 -0.0517
   29CHL1  H12A 2104   2.000   1.999   3.466 -1.2294 -1.5583  0.5266
   29CHL1  H12B 2105   2.137   1.977   3.363 -0.0557  2.1756  0.5816
   29CHL1   C11 2106   1.946   1.984   3.267  0.6389 -0.2614  0.2559
   29CHL1  H11A 2107   1.839   1.972   3.294  0.9622 -0.7118  1.3915
   29CHL1  H11B 2108   1.952   2.095   3.255 -1.0872 -0.0876  0.7130
   29CHL1    C9 2109   1.976   1.907   3.134  0.3673  0.0543 -0.1487
   29CHL1    H9 2110   2.082   1.935   3.113  0.3156  1.3242  1.2098
   29CHL1   C10 2111   1.893   1.962   3.011 -0.1810 -0.1485  0.3231
   29CHL1   C19 2112   1.740   1.981   3.041 -0.2807  1.1043  0.2439
   29CHL1  H19A 2113   1.706   1.878   3.067 -0.2522  1.0175 -0.0589
   29CHL1  H19B 2114   1.726   2.053   3.124  1.6835 -0.5361  2.1415
   29CHL1  H19C 2115   1.684   2.017   2.952  1.9324  1.7501 -0.9530
   29CHL1    C1 2116   1.958   2.100   2.961  0.4897 -0.2507  0.8351
   29CHL1   H1A 2117   1.925   2.173   3.038  0.7929 -1.0029  1.7068
   29CHL1   H1B 2118   2.069   2.089   2.955  0.4731  0.3536 -1.5300
   29CHL1    C2 2119   1.910   2.160   2.818  0.6497  1.3189 -0.7504
   29CHL1   H2A 2120   1.968   2.250   2.789  2.7481 -0.2003 -1.5388
   29CHL1   H2B 2121   1.802   2.184   2.824  0.1158 -0.9987  0.1468
   29CHL1   C20 2122   2.104   1.718   3.642 -0.7149  0.4894  0.5270
   29CHL1   H20 2123   2.016   1.657   3.670 -0.8932  0.4974 -0.0142
   29CHL1   C21 2124   2.071   1.859   3.693  0.8849  0.0809  0.2615
   29CHL1  H21A 2125   2.146   1.935   3.661  0.1712  0.6419 -0.1024
   29CHL1  H21B 2126   2.080   1.864   3.804  3.2453  1.4146  0.0799
   29CHL1  H21C 2127   1.966   1.888   3.669  1.5340  0.9585 -1.6997
   29CHL1   C22 2128   2.238   1.663   3.711  0.2317  0.0977  1.0013
   29CHL1  H22A 2129   2.266   1.566   3.664  1.9264  0.0358  2.0541
   29CHL1  H22B 2130   2.318   1.737   3.689 -2.1358  2.8139  1.0557
   29CHL1   C23 2131   2.242   1.648   3.863 -0.4503 -0.9363  0.2300
   29CHL1  H23A 2132   2.219   1.751   3.897 -2.8090 -1.5869  0.7950
   29CHL1  H23B 2133   2.162   1.572   3.881 -0.4841 -1.3760 -1.5683
   29CHL1   C24 2134   2.379   1.597   3.913  0.2228 -0.4503  0.4486
   29CHL1  H24A 2135   2.395   1.511   3.844 -2.1914 -1.4511  1.0574
   29CHL1  H24B 2136   2.458   1.674   3.894  0.4360 -1.4137 -3.3179
   29CHL1   C25 2137   2.379   1.560   4.064  0.4848 -0.0661 -0.2716
   29CHL1   H25 2138   2.303   1.483   4.089 -0.6196  1.0458 -0.1367
   29CHL1   C26 2139   2.512   1.502   4.110  0.1032  0.5293  0.0419
   29CHL1  H26A 2140   2.547   1.422   4.042 -0.1303 -0.4580  1.0571
   29CHL1  H26B 2141   2.581   1.587   4.126  1.5896 -0.5522 -0.4301
   29CHL1  H26C 2142   2.503   1.459   4.212 -1.8292  0.1195 -0.2553
   29CHL1   C27 2143   2.351   1.684   4.150  0.4074  0.5241 -0.7643
   29CHL1  H27A 2144   2.446   1.741   4.142  1.5854 -1.2513 -0.1082
   29CHL1  H27B 2145   2.267   1.742   4.105 -0.4076 -0.1543 -0.1261
   29CHL1  H27C 2146   2.332   1.662   4.257  0.8716  0.6203 -0.6577
   30CHL1    C3 2147   2.448   5.897   2.968 -0.1991 -0.3383 -0.2980
   30CHL1    H3 2148   2.498   5.808   2.924  1.6273 -0.1686  1.2700
   30CHL1    O3 2149   2.438   5.997   2.868  0.7839  0.0393 -0.2685
   30CHL1   H3' 2150   2.419   6.082   2.909 -0.2354  0.7254 -2.0012
   30CHL1    C4 2151   2.302   5.849   3.016 -0.1277  0.3011  0.1519
   30CHL1   H4A 2152   2.257   5.943   3.054  0.2021  0.5675 -0.1090
   30CHL1   H4B 2153   2.254   5.803   2.927  2.8702  0.2645 -1.5677
   30CHL1    C5 2154   2.338   5.750   3.127 -0.0328 -0.0687  1.1409
   30CHL1    C6 2155   2.295   5.621   3.116 -0.1076  0.1749 -0.0259
   30CHL1    H6 2156   2.222   5.591   3.040 -0.1630  0.4838 -0.0956
   30CHL1    C7 2157   2.317   5.512   3.214  0.4022  0.0963 -0.6315
   30CHL1   H7A 2158   2.233   5.440   3.223 -0.3983  1.1456  0.7807
   30CHL1   H7B 2159   2.398   5.447   3.175  0.4533 -1.5692  2.0288
   30CHL1    C8 2160   2.363   5.562   3.351 -0.2048 -1.1532 -0.0502
   30CHL1    H8 2161   2.268   5.596   3.397 -1.4152 -0.8329 -2.6468
   30CHL1   C14 2162   2.430   5.449   3.433  0.1720 -0.2217 -0.2695
   30CHL1   H14 2163   2.528   5.424   3.386  0.4444  1.1116 -0.4593
   30CHL1   C15 2164   2.356   5.317   3.441  0.4012 -0.3614 -0.0018
   30CHL1  H15A 2165   2.247   5.334   3.441  0.2892 -1.0516 -0.2533
   30CHL1  H15B 2166   2.384   5.244   3.362  1.0915  0.1865 -0.2750
   30CHL1   C16 2167   2.404   5.250   3.573  0.2851  0.1924  0.4382
   30CHL1  H16A 2168   2.312   5.226   3.631  0.4924 -3.1423 -0.3886
   30CHL1  H16B 2169   2.456   5.154   3.551 -3.1433 -2.1851  1.7717
   30CHL1   C17 2170   2.496   5.357   3.644  0.0167 -0.0059 -0.6816
   30CHL1   H17 2171   2.596   5.332   3.602  0.6152  0.6516  0.2969
   30CHL1   C13 2172   2.460   5.492   3.583  0.1489  0.3985  0.0267
   30CHL1   C18 2173   2.340   5.542   3.666 -0.2858  0.1052  0.1399
   30CHL1  H18A 2174   2.368   5.555   3.773  0.4512 -0.5699  0.0356
   30CHL1  H18B 2175   2.303   5.642   3.637  1.5203  0.6779 -0.2715
   30CHL1  H18C 2176   2.249   5.478   3.662 -2.9830  3.6535 -0.8795
   30CHL1   C12 2177   2.563   5.607   3.570 -0.3171  0.6501  0.4602
   30CHL1  H12A 2178   2.591   5.645   3.670  2.7857 -0.0503 -0.0370
   30CHL1  H12B 2179   2.656   5.567   3.525 -1.8968 -4.1781  0.8868
   30CHL1   C11 2180   2.521   5.719   3.473 -0.0382 -0.3660  0.1779
   30CHL1  H11A 2181   2.433   5.767   3.522 -0.3564  0.0705 -0.7867
   30CHL1  H11B 2182   2.600   5.796   3.480  0.6151 -0.7887 -1.8014
   30CHL1    C9 2183   2.466   5.677   3.337  0.7100  0.2382 -0.2530
   30CHL1    H9 2184   2.555   5.632   3.289  1.6669  3.4257 -1.6665
   30CHL1   C10 2185   2.426   5.800   3.249 -0.5133  0.7353 -0.1081
   30CHL1   C19 2186   2.339   5.899   3.331  0.5957  0.2411  0.2383
   30CHL1  H19A 2187   2.294   5.977   3.266  1.1891 -0.0926 -0.5858
   30CHL1  H19B 2188   2.248   5.849   3.371 -0.8277  0.9719 -1.8888
   30CHL1  H19C 2189   2.402   5.951   3.406 -1.8203  1.4986  1.4899
   30CHL1    C1 2190   2.553   5.860   3.188  0.1020  0.2450 -0.1579
   30CHL1   H1A 2191   2.607   5.899   3.277 -1.1206 -2.0674  1.7417
   30CHL1   H1B 2192   2.613   5.779   3.141 -1.8876 -0.5946 -1.3903
   30CHL1    C2 2193   2.524   5.962   3.081 -0.0320 -0.1734 -0.2207
   30CHL1   H2A 2194   2.617   6.002   3.035  0.0576 -3.4222 -3.2985
   30CHL1   H2B 2195   2.467   6.044   3.129 -1.8347 -0.3698 -1.8793
   30CHL1   C20 2196   2.515   5.336   3.797 -0.1059  0.0211 -0.1393
   30CHL1   H20 2197   2.424   5.373   3.848 -0.7987 -0.6241 -0.8639
   30CHL1   C21 2198   2.635   5.415   3.851  0.3871  0.3632  0.4671
   30CHL1  H21A 2199   2.740   5.386   3.827  0.5961  0.7233  0.9335
   30CHL1  H21B 2200   2.629   5.432   3.960 -4.1090  0.1998  0.4177
   30CHL1  H21C 2201   2.613   5.512   3.802 -2.4789 -1.7969 -3.0370
   30CHL1   C22 2202   2.520   5.184   3.838  0.7173  0.0239  0.7448
   30CHL1  H22A 2203   2.419   5.146   3.811  0.6193  1.4924 -1.2482
   30CHL1  H22B 2204   2.587   5.126   3.772 -1.2683 -1.1871 -0.3170
   30CHL1   C23 2205   2.554   5.159   3.983  0.1097 -0.0379 -0.3163
   30CHL1  H23A 2206   2.657   5.189   4.009 -0.6817  4.0590 -1.2109
   30CHL1  H23B 2207   2.489   5.225   4.044  0.8080 -0.0005  0.3976
   30CHL1   C24 2208   2.528   5.008   4.024 -1.0021 -0.3060 -0.3557
   30CHL1  H24A 2209   2.418   4.991   4.021 -0.8716 -1.6802  1.1637
   30CHL1  H24B 2210   2.584   4.951   3.947 -0.1375 -2.0851  1.5213
   30CHL1   C25 2211   2.587   4.987   4.167  0.1337 -0.1186  0.3168
   30CHL1   H25 2212   2.677   5.051   4.173  1.2373 -1.0532 -3.6281
   30CHL1   C26 2213   2.485   5.028   4.274 -0.9272 -0.3272  0.0264
   30CHL1  H26A 2214   2.518   4.986   4.371 -1.9256 -1.0813  0.0600
   30CHL1  H26B 2215   2.494   5.139   4.276  0.6342 -0.4025 -1.1119
   30CHL1  H26C 2216   2.382   5.003   4.242 -0.3501  0.1086 -2.2989
   30CHL1   C27 2217   2.631   4.841   4.193  1.2100 -0.0847 -1.4082
   30CHL1  H27A 2218   2.536   4.783   4.201  1.0468  0.1437 -1.6569
   30CHL1  H27B 2219   2.692   4.801   4.109  0.7144 -1.0761 -1.3152
   30CHL1  H27C 2220   2.687   4.835   4.288 -2.9927 -0.3633  1.3260
   31CHL1    C3 2221   5.592   1.662   3.439  0.7684 -0.2155 -0.1706
   31CHL1    H3 2222   5.540   1.577   3.489  0.6354  0.3504  0.6686
   31CHL1    O3 2223   5.545   1.685   3.307  0.0557 -0.5553  0.2919
   31CHL1   H3' 2224   5.571   1.777   3.295  2.7098 -1.0764  1.3807
   31CHL1    C4 2225   5.567   1.791   3.520 -0.2093  0.2153 -0.1508
   31CHL1   H4A 2226   5.611   1.870   3.456 -0.3457 -0.3636 -0.9854
   31CHL1   H4B 2227   5.460   1.815   3.508  0.1639  2.3535  0.4082
   31CHL1    C5 2228   5.626   1.780   3.661  0.6468  0.9441  0.2465
   31CHL1    C6 2229   5.544   1.800   3.762 -0.3477  0.2637 -0.6878
   31CHL1    H6 2230   5.436   1.813   3.740 -0.8454 -0.8056  0.9439
   31CHL1    C7 2231   5.579   1.785   3.912 -0.4321  0.5365 -0.4218
   31CHL1   H7A 2232   5.538   1.864   3.979  0.6284  2.1577 -1.6073
   31CHL1   H7B 2233   5.533   1.693   3.954 -1.5526  1.1464 -0.2647
   31CHL1    C8 2234   5.732   1.778   3.927  0.4011  0.5370 -0.1053
   31CHL1    H8 2235   5.766   1.884   3.918  0.7463  0.3582 -1.0894
   31CHL1   C14 2236   5.773   1.739   4.067  0.2531  0.2924 -0.2115
   31CHL1   H14 2237   5.743   1.632   4.068 -1.0889  0.6387 -1.0149
   31CHL1   C15 2238   5.694   1.798   4.189  0.0589 -0.0357  0.0361
   31CHL1  H15A 2239   5.651   1.896   4.160  0.8219 -0.0010 -1.0424
   31CHL1  H15B 2240   5.601   1.738   4.203  1.6417 -2.1446  2.4408
   31CHL1   C16 2241   5.795   1.799   4.301  1.0292 -0.3407  0.3819
   31CHL1  H16A 2242   5.814   1.904   4.331 -1.3143 -0.6170  3.3980
   31CHL1  H16B 2243   5.752   1.751   4.391 -0.1732  0.1699  0.1089
   31CHL1   C17 2244   5.921   1.725   4.248 -0.0476 -0.5617 -0.1576
   31CHL1   H17 2245   5.896   1.619   4.269  3.3091 -1.0679  2.1621
   31CHL1   C13 2246   5.926   1.751   4.099  0.5750  0.2108 -0.1185
   31CHL1   C18 2247   5.984   1.891   4.083  0.6206 -0.3384  0.5106
   31CHL1  H18A 2248   5.920   1.967   4.132 -0.0033  0.5828 -1.6479
   31CHL1  H18B 2249   6.086   1.904   4.126  1.7203 -0.7980 -1.8202
   31CHL1  H18C 2250   5.983   1.909   3.973  0.8245 -2.7686  0.0537
   31CHL1   C12 2251   5.993   1.649   4.013 -0.2947 -0.1212  0.5543
   31CHL1  H12A 2252   6.104   1.652   4.019 -0.1371 -2.0897 -0.6250
   31CHL1  H12B 2253   5.970   1.546   4.047 -1.2313 -0.3106 -0.5975
   31CHL1   C11 2254   5.957   1.679   3.863  0.6272 -0.1365 -0.3714
   31CHL1  H11A 2255   6.008   1.775   3.840  1.8299 -0.5909  0.2827
   31CHL1  H11B 2256   5.995   1.603   3.791 -0.9472  0.3641 -1.7966
   31CHL1    C9 2257   5.805   1.692   3.826 -0.2696 -0.0581  0.5807
   31CHL1    H9 2258   5.762   1.590   3.841 -1.2894  0.4104  0.8925
   31CHL1   C10 2259   5.771   1.729   3.678 -0.2395 -0.7239  0.4904
   31CHL1   C19 2260   5.849   1.847   3.629  0.2160 -0.5751  0.5411
   31CHL1  H19A 2261   5.822   1.874   3.525 -1.3088  1.0736  1.3060
   31CHL1  H19B 2262   5.812   1.936   3.684  0.0401  0.3368 -1.0172
   31CHL1  H19C 2263   5.958   1.828   3.640  0.1881 -1.8191 -0.9604
   31CHL1    C1 2264   5.790   1.599   3.591  0.2171  0.0408 -0.7357
   31CHL1   H1A 2265   5.893   1.561   3.603 -0.5960 -2.1444 -0.0474
   31CHL1   H1B 2266   5.741   1.508   3.633 -1.9752  1.3766 -0.1733
   31CHL1    C2 2267   5.744   1.623   3.447 -1.0203  0.5090  0.4797
   31CHL1   H2A 2268   5.766   1.530   3.390  1.7754  0.7788  0.9647
   31CHL1   H2B 2269   5.814   1.698   3.405  0.4720 -0.9810  0.1972
   31CHL1   C20 2270   6.051   1.756   4.335 -0.2472 -0.2770 -0.0023
   31CHL1   H20 2271   6.082   1.860   4.310 -0.6415  0.0878  0.9703
   31CHL1   C21 2272   6.161   1.658   4.307 -0.1577 -0.0146  0.8220
   31CHL1  H21A 2273   6.205   1.666   4.205  0.6408  0.6125  1.2006
   31CHL1  H21B 2274   6.125   1.556   4.330  0.4093  0.0791  2.2194
   31CHL1  H21C 2275   6.253   1.670   4.369  1.3447 -2.7470 -0.6969
   31CHL1   C22 2276   6.017   1.752   4.487  0.7957  0.5911  0.7518
   31CHL1  H22A 2277   6.115   1.759   4.539  1.5853 -1.8456 -0.2457
   31CHL1  H22B 2278   5.963   1.846   4.512  1.2022  0.0478  4.0227
   31CHL1   C23 2279   5.956   1.625   4.549 -0.1032 -0.5446  0.0761
   31CHL1  H23A 2280   5.858   1.608   4.498 -1.7067  2.1404  1.9742
   31CHL1  H23B 2281   6.020   1.542   4.514  0.2128  0.3413 -1.5425
   31CHL1   C24 2282   5.948   1.627   4.703 -0.7128  0.0425 -0.0076
   31CHL1  H24A 2283   6.045   1.667   4.742  0.5489  0.4465 -3.2810
   31CHL1  H24B 2284   5.874   1.707   4.727  0.7902  1.7666 -0.8416
   31CHL1   C25 2285   5.900   1.497   4.764  0.3410  0.2212  0.0556
   31CHL1   H25 2286   5.797   1.478   4.726 -0.2015  0.2260  1.4767
   31CHL1   C26 2287   5.987   1.380   4.742 -0.1791  0.1951  0.3823
   31CHL1  H26A 2288   5.963   1.332   4.645 -1.0224 -0.8723  1.0973
   31CHL1  H26B 2289   6.096   1.387   4.763 -0.1107  1.1945 -0.2260
   31CHL1  H26C 2290   5.943   1.304   4.810  0.5164 -0.8463 -0.2848
   31CHL1   C27 2291   5.881   1.527   4.912  0.6122  0.3709  0.1217
   31CHL1  H27A 2292   5.824   1.621   4.930  1.6969  0.9598  0.5545
   31CHL1  H27B 2293   5.828   1.444   4.963  1.4329 -0.4170 -0.2917
   31CHL1  H27C 2294   5.981   1.537   4.959  0.6164  1.2226 -0.0501
   32CHL1    C3 2295   1.693   6.947   3.306  0.5601 -0.6575  0.1185
   32CHL1    H3 2296   1.758   7.024   3.353  0.7707  0.4361 -1.8859
   32CHL1    O3 2297   1.733   6.930   3.170  0.0362 -0.1282 -0.0174
   32CHL1   H3' 2298   1.675   6.864   3.132 -1.1834  1.7826 -1.5869
   32CHL1    C4 2299   1.717   6.812   3.385  0.1731  0.1927 -0.0218
   32CHL1   H4A 2300   1.663   6.732   3.330  1.2600 -0.8504  0.3763
   32CHL1   H4B 2301   1.823   6.782   3.377 -0.4176 -2.5383  1.3987
   32CHL1    C5 2302   1.672   6.813   3.531  0.5103  0.2513  0.3517
   32CHL1    C6 2303   1.754   6.781   3.634  0.3596  0.1247  0.9992
   32CHL1    H6 2304   1.857   6.752   3.610  0.5808  1.6057  0.0088
   32CHL1    C7 2305   1.708   6.779   3.776  0.7805  0.1021  1.0979
   32CHL1   H7A 2306   1.745   6.684   3.819 -0.8867 -3.2188 -3.9475
   32CHL1   H7B 2307   1.746   6.873   3.823 -1.2958  1.3381  0.4294
   32CHL1    C8 2308   1.550   6.784   3.787 -0.7000  0.5460 -0.2301
   32CHL1    H8 2309   1.508   6.688   3.750 -0.5309  0.0200  0.8971
   32CHL1   C14 2310   1.508   6.802   3.930 -0.5220  0.4244 -0.5367
   32CHL1   H14 2311   1.556   6.896   3.964  1.4318 -0.6616 -0.1140
   32CHL1   C15 2312   1.571   6.705   4.036 -0.3397  0.3079 -0.0385
   32CHL1  H15A 2313   1.567   6.599   4.004 -0.5360 -0.4093  2.1889
   32CHL1  H15B 2314   1.675   6.740   4.047 -0.1356  0.2640 -1.6630
   32CHL1   C16 2315   1.470   6.724   4.158 -0.3841  0.2332  0.1868
   32CHL1  H16A 2316   1.423   6.628   4.188  1.0064 -0.8890 -1.0258
   32CHL1  H16B 2317   1.525   6.764   4.246  2.7190 -2.4370 -0.3418
   32CHL1   C17 2318   1.351   6.813   4.114  0.1501 -0.3890  0.3626
   32CHL1   H17 2319   1.382   6.917   4.139 -0.5907 -0.6784  2.7087
   32CHL1   C13 2320   1.358   6.809   3.956  0.1520  0.2536  1.2330
   32CHL1   C18 2321   1.291   6.672   3.923  0.3310  0.2691 -0.1700
   32CHL1  H18A 2322   1.319   6.592   3.995 -0.7418 -2.7068 -2.7967
   32CHL1  H18B 2323   1.180   6.676   3.915  0.1738 -0.6539  1.1860
   32CHL1  H18C 2324   1.328   6.628   3.828  2.0412 -0.2132  0.6907
   32CHL1   C12 2325   1.295   6.927   3.877 -0.0953 -0.1618  0.3012
   32CHL1  H12A 2326   1.184   6.936   3.880  0.0596  2.5759  0.6530
   32CHL1  H12B 2327   1.335   7.023   3.915 -0.6068 -0.1584  0.8446
   32CHL1   C11 2328   1.332   6.913   3.726  0.3531  0.2404 -0.1731
   32CHL1  H11A 2329   1.280   6.822   3.687  0.6311  0.9895 -2.4547
   32CHL1  H11B 2330   1.290   6.991   3.659 -2.8926 -2.5388 -1.7193
   32CHL1    C9 2331   1.489   6.889   3.709  0.2643 -0.5046  0.2660
   32CHL1    H9 2332   1.547   6.982   3.728  1.3718 -1.2102  0.4633
   32CHL1   C10 2333   1.525   6.863   3.553  0.5397 -0.0617 -0.1161
   32CHL1   C19 2334   1.435   6.745   3.491  0.8559  0.1030  0.0799
   32CHL1  H19A 2335   1.457   6.656   3.553 -1.3011 -0.0267  0.7353
   32CHL1  H19B 2336   1.324   6.757   3.485  0.8954  0.6300  0.3357
   32CHL1  H19C 2337   1.476   6.716   3.392  2.0713  3.3765 -0.5055
   32CHL1    C1 2338   1.512   7.004   3.471  0.6021 -0.0133  0.7995
   32CHL1   H1A 2339   1.404   7.026   3.483  0.5339  0.9864 -1.2263
   32CHL1   H1B 2340   1.574   7.085   3.516  2.2748 -0.4795 -0.5322
   32CHL1    C2 2341   1.552   6.986   3.317  0.1531 -0.2546  0.1417
   32CHL1   H2A 2342   1.528   7.079   3.261  2.6237  0.0911 -0.4429
   32CHL1   H2B 2343   1.500   6.906   3.261 -2.6394  1.5482 -0.0480
   32CHL1   C20 2344   1.220   6.783   4.189 -0.2665 -0.9365 -0.1142
   32CHL1   H20 2345   1.195   6.676   4.179 -0.4605 -1.0107  1.0568
   32CHL1   C21 2346   1.100   6.865   4.140  0.4455  0.1941 -0.1585
   32CHL1  H21A 2347   1.006   6.836   4.190  0.4360 -0.5325 -0.5775
   32CHL1  H21B 2348   1.087   6.859   4.029 -0.4138 -0.0324 -0.0505
   32CHL1  H21C 2349   1.126   6.971   4.158  0.1674  0.1843  0.3054
   32CHL1   C22 2350   1.241   6.804   4.338 -0.0155  0.1439 -0.7601
   32CHL1  H22A 2351   1.332   6.748   4.368  1.2219  0.6939 -3.2220
   32CHL1  H22B 2352   1.265   6.912   4.350 -0.9032  0.4058 -1.2286
   32CHL1   C23 2353   1.124   6.759   4.431  0.0552 -0.6081 -0.4320
   32CHL1  H23A 2354   1.052   6.840   4.454 -1.1550 -1.7583 -0.0968
   32CHL1  H23B 2355   1.064   6.680   4.382 -0.7618 -0.8612  0.9238
   32CHL1   C24 2356   1.164   6.714   4.569 -0.1252 -0.3255 -0.4392
   32CHL1  H24A 2357   1.226   6.797   4.610 -0.2328  1.0648 -2.8535
   32CHL1  H24B 2358   1.074   6.703   4.632  0.7466  1.3885  1.2388
   32CHL1   C25 2359   1.224   6.578   4.575 -0.5441  0.2151  0.2404
   32CHL1   H25 2360   1.184   6.520   4.489  0.6219  0.0896 -0.2331
   32CHL1   C26 2361   1.379   6.590   4.567  0.8036 -0.3664  0.6080
   32CHL1  H26A 2362   1.429   6.666   4.631  0.3310 -0.5642  1.2228
   32CHL1  H26B 2363   1.423   6.495   4.603  1.5261 -0.9154 -1.5522
   32CHL1  H26C 2364   1.417   6.609   4.464  1.2334  1.3874  1.0483
   32CHL1   C27 2365   1.182   6.494   4.698  0.1096 -0.1865  0.0196
   32CHL1  H27A 2366   1.071   6.486   4.700 -0.3967  2.2083 -4.7311
   32CHL1  H27B 2367   1.230   6.394   4.692 -0.9961 -0.7587  0.3108
   32CHL1  H27C 2368   1.216   6.534   4.795 -0.9991 -1.7700  1.1302
   33CHL1    C3 2369   0.316   5.138   2.985 -0.1478 -0.1404  0.1773
   33CHL1    H3 2370   0.332   5.231   3.042  1.4466 -0.4154  0.2276
   33CHL1    O3 2371   0.274   5.175   2.855 -0.2348 -0.0768 -0.0414
   33CHL1   H3' 2372   0.202   5.117   2.831  0.8574 -1.6109  0.2739
   33CHL1    C4 2373   0.450   5.065   2.979 -0.0480  0.0525  0.6508
   33CHL1   H4A 2374   0.448   4.973   2.917 -0.7614 -1.1136  2.3221
   33CHL1   H4B 2375   0.526   5.130   2.931  2.8694 -0.6702  3.9115
   33CHL1    C5 2376   0.492   5.033   3.118 -0.4308 -0.3752 -0.4943
   33CHL1    C6 2377   0.610   5.083   3.167  0.3537  0.1943  0.0932
   33CHL1    H6 2378   0.668   5.142   3.095  0.0143  0.5463  0.1081
   33CHL1    C7 2379   0.664   5.071   3.309  0.5029  0.4535  0.0903
   33CHL1   H7A 2380   0.770   5.039   3.308  0.5561  0.6383 -0.8027
   33CHL1   H7B 2381   0.658   5.171   3.356 -1.4495  0.2363  0.3950
   33CHL1    C8 2382   0.582   4.955   3.372  0.1509 -0.6957 -0.4290
   33CHL1    H8 2383   0.607   4.856   3.329 -0.9041 -1.7739  1.3057
   33CHL1   C14 2384   0.619   4.949   3.521  0.1455 -0.2709 -0.0688
   33CHL1   H14 2385   0.587   5.050   3.554  1.1813  1.3482 -3.5462
   33CHL1   C15 2386   0.768   4.934   3.556  0.1467  0.6730 -0.6777
   33CHL1  H15A 2387   0.813   4.850   3.498  1.2141  1.3044 -0.7816
   33CHL1  H15B 2388   0.823   5.029   3.536  2.3018 -0.5703 -1.0103
   33CHL1   C16 2389   0.759   4.902   3.707 -0.2754 -0.2775  0.3451
   33CHL1  H16A 2390   0.801   4.800   3.725 -0.4302 -0.0751  2.0485
   33CHL1  H16B 2391   0.804   4.985   3.766  0.3338 -1.9010  2.2870
   33CHL1   C17 2392   0.608   4.888   3.744  1.1028  0.4678 -0.3044
   33CHL1   H17 2393   0.583   4.991   3.778  1.7254 -0.1433  2.2128
   33CHL1   C13 2394   0.536   4.855   3.615 -0.4552 -0.4120  0.1806
   33CHL1   C18 2395   0.566   4.706   3.576 -0.3860  0.2116 -0.0240
   33CHL1  H18A 2396   0.497   4.641   3.635 -0.5728  0.0842 -0.3802
   33CHL1  H18B 2397   0.553   4.687   3.467 -2.1398  0.6494  0.0686
   33CHL1  H18C 2398   0.671   4.679   3.600 -0.2379  0.0975 -0.7762
   33CHL1   C12 2399   0.383   4.888   3.600  0.0967 -0.0846 -0.1083
   33CHL1  H12A 2400   0.324   4.816   3.661  0.3727 -0.1545  0.0814
   33CHL1  H12B 2401   0.375   4.991   3.642  2.8740  0.2698 -0.2602
   33CHL1   C11 2402   0.348   4.874   3.450 -0.5537 -0.3786  0.2058
   33CHL1  H11A 2403   0.346   4.770   3.413  0.7091 -0.0053 -0.9979
   33CHL1  H11B 2404   0.241   4.906   3.451 -1.1931 -2.1402 -2.2978
   33CHL1    C9 2405   0.428   4.966   3.358 -0.0471 -0.5530  0.3288
   33CHL1    H9 2406   0.403   5.067   3.398 -0.6116 -1.2478  1.8008
   33CHL1   C10 2407   0.386   4.962   3.207  0.5351  0.2960 -1.3439
   33CHL1   C19 2408   0.390   4.814   3.160  0.2118  0.0361  0.7050
   33CHL1  H19A 2409   0.494   4.775   3.169  0.2485  0.3662  1.9418
   33CHL1  H19B 2410   0.314   4.740   3.193  0.3345  0.4704  2.0201
   33CHL1  H19C 2411   0.370   4.829   3.052 -0.1394  3.0593  1.1110
   33CHL1    C1 2412   0.248   5.021   3.199  0.4316 -0.8658 -0.5440
   33CHL1   H1A 2413   0.172   4.952   3.243  1.4712 -1.2320  0.7659
   33CHL1   H1B 2414   0.245   5.116   3.256 -4.1203 -1.1362 -0.0244
   33CHL1    C2 2415   0.207   5.055   3.052 -0.4145  0.0666 -0.2445
   33CHL1   H2A 2416   0.111   5.110   3.067 -0.0998  0.2278  1.3153
   33CHL1   H2B 2417   0.202   4.960   2.994  0.7190  0.4811 -1.0618
   33CHL1   C20 2418   0.588   4.805   3.873 -0.2643  0.3860 -0.4315
   33CHL1   H20 2419   0.591   4.697   3.848 -2.9153  0.3839 -1.0331
   33CHL1   C21 2420   0.444   4.824   3.928 -0.2910  0.0465  0.0683
   33CHL1  H21A 2421   0.413   4.930   3.917 -1.3706 -0.0839  1.5710
   33CHL1  H21B 2422   0.447   4.801   4.037  3.3763  1.1736  0.3668
   33CHL1  H21C 2423   0.374   4.750   3.884 -1.1127  0.4989  0.6039
   33CHL1   C22 2424   0.698   4.855   3.972  0.1950  0.4030 -0.1080
   33CHL1  H22A 2425   0.800   4.831   3.935  0.0896  0.9370 -0.7645
   33CHL1  H22B 2426   0.706   4.966   3.971  1.7267  0.3686  1.8667
   33CHL1   C23 2427   0.690   4.784   4.114  0.7949 -0.0171 -0.3432
   33CHL1  H23A 2428   0.764   4.819   4.189  1.2442 -0.5569 -0.5346
   33CHL1  H23B 2429   0.593   4.817   4.157  0.2576 -1.2450 -0.5765
   33CHL1   C24 2430   0.699   4.630   4.103 -0.2968 -0.6439 -0.6209
   33CHL1  H24A 2431   0.646   4.591   4.192  0.5149 -1.3183 -0.4209
   33CHL1  H24B 2432   0.644   4.593   4.014 -1.9058 -1.5651  0.6982
   33CHL1   C25 2433   0.849   4.571   4.102  0.9028  0.1853 -0.5186
   33CHL1   H25 2434   0.913   4.657   4.071  1.4767 -0.1466 -0.2600
   33CHL1   C26 2435   0.889   4.531   4.248 -0.3207 -0.1736  0.5252
   33CHL1  H26A 2436   0.865   4.607   4.325  1.7203  0.0252  1.0248
   33CHL1  H26B 2437   0.830   4.440   4.273 -1.7401  0.7382  0.5998
   33CHL1  H26C 2438   0.998   4.508   4.244  0.0297  1.5320 -0.5370
   33CHL1   C27 2439   0.870   4.443   4.018  0.3133 -0.8462  0.4941
   33CHL1  H27A 2440   0.892   4.467   3.912  0.8883 -0.9302  0.5901
   33CHL1  H27B 2441   0.958   4.382   4.047  0.5063 -1.3882 -1.1499
   33CHL1  H27C 2442   0.785   4.372   4.019 -0.9891  0.6035 -1.1185
   34CHL1    C3 2443   4.820   2.998   6.645  0.4158 -0.6418  0.1649
   34CHL1    H3 2444   4.760   3.087   6.616 -1.3599 -2.2229 -1.2756
   34CHL1    O3 2445   4.868   3.024   6.773 -0.0382 -0.5357 -0.1133
   34CHL1   H3' 2446   4.923   3.102   6.777  0.3693 -0.8632  0.7507
   34CHL1    C4 2447   4.734   2.876   6.656 -0.2577 -0.6383  0.1325
   34CHL1   H4A 2448   4.790   2.787   6.690  0.9990 -0.6217 -1.7771
   34CHL1   H4B 2449   4.645   2.883   6.723  0.3566  0.9516  0.8259
   34CHL1    C5 2450   4.690   2.844   6.512 -0.0562  0.6025  0.7863
   34CHL1    C6 2451   4.557   2.823   6.493 -0.8949 -0.0467 -0.0122
   34CHL1    H6 2452   4.491   2.828   6.581 -2.1632 -2.0413 -0.7764
   34CHL1    C7 2453   4.494   2.789   6.359  0.1060 -0.9602  0.5181
   34CHL1   H7A 2454   4.417   2.709   6.369 -0.7788 -0.1144  0.6713
   34CHL1   H7B 2455   4.443   2.881   6.321 -0.2025 -1.2377  0.2513
   34CHL1    C8 2456   4.602   2.755   6.254 -1.1227 -0.2790 -0.2028
   34CHL1    H8 2457   4.634   2.652   6.279  1.5267  0.5228  0.0135
   34CHL1   C14 2458   4.544   2.756   6.117 -0.7048  0.2425  0.6261
   34CHL1   H14 2459   4.525   2.863   6.092 -3.1084 -0.3543 -0.3386
   34CHL1   C15 2460   4.417   2.672   6.090  0.2320 -0.1152  0.3243
   34CHL1  H15A 2461   4.424   2.574   6.141 -1.2710  0.4345  1.6733
   34CHL1  H15B 2462   4.331   2.734   6.123 -0.1317  0.8589 -2.1897
   34CHL1   C16 2463   4.409   2.654   5.935  0.1608  0.0156 -0.3782
   34CHL1  H16A 2464   4.414   2.546   5.910  0.1840  0.3589 -1.9589
   34CHL1  H16B 2465   4.319   2.696   5.887  1.3397  1.9183 -1.0508
   34CHL1   C17 2466   4.541   2.715   5.887  0.0071  0.3355 -0.4309
   34CHL1   H17 2467   4.525   2.825   5.883 -1.0186  0.1774 -1.1584
   34CHL1   C13 2468   4.643   2.714   6.004  0.1718 -0.3602 -0.5754
   34CHL1   C18 2469   4.691   2.575   6.029 -0.1764  0.5275  0.6224
   34CHL1  H18A 2470   4.754   2.551   5.940 -0.6693  0.4349  0.2918
   34CHL1  H18B 2471   4.752   2.563   6.120 -2.0440  1.7088  2.1067
   34CHL1  H18C 2472   4.602   2.510   6.040 -1.3868  2.2458  1.5006
   34CHL1   C12 2473   4.760   2.821   6.003  0.0168 -0.3734  0.0324
   34CHL1  H12A 2474   4.823   2.799   5.915 -0.9915  1.1762 -1.1222
   34CHL1  H12B 2475   4.710   2.919   5.988  1.3388  0.5316  1.2678
   34CHL1   C11 2476   4.823   2.826   6.137 -0.2677  0.6344  0.2776
   34CHL1  H11A 2477   4.879   2.732   6.157  0.2411  1.1381  1.2904
   34CHL1  H11B 2478   4.898   2.908   6.145 -2.1537  2.2886  2.6117
   34CHL1    C9 2479   4.733   2.848   6.261 -0.5218  0.0317  0.2525
   34CHL1    H9 2480   4.704   2.955   6.253 -0.3900 -0.0458 -1.6108
   34CHL1   C10 2481   4.804   2.838   6.402  0.2196 -0.8901 -0.6444
   34CHL1   C19 2482   4.881   2.707   6.422  0.3000  0.3173 -0.3485
   34CHL1  H19A 2483   4.969   2.707   6.355 -2.3868  0.1268 -4.1654
   34CHL1  H19B 2484   4.911   2.687   6.527  1.9344 -0.8017 -0.9946
   34CHL1  H19C 2485   4.817   2.628   6.378 -0.4369  0.4410  0.4779
   34CHL1    C1 2486   4.901   2.952   6.414  0.4983  1.0324 -1.0776
   34CHL1   H1A 2487   4.992   2.918   6.360  1.6851  0.7469  1.0073
   34CHL1   H1B 2488   4.856   3.046   6.375 -1.1350  0.9174  0.4048
   34CHL1    C2 2489   4.946   2.980   6.559 -0.2643 -0.0094 -0.0364
   34CHL1   H2A 2490   5.010   3.070   6.565 -1.7401  1.0083  1.6143
   34CHL1   H2B 2491   5.004   2.889   6.585  1.1236  0.4547 -1.4016
   34CHL1   C20 2492   4.591   2.678   5.747 -0.1479 -0.4296 -0.3431
   34CHL1   H20 2493   4.697   2.710   5.734  0.0968 -0.7245  0.8913
   34CHL1   C21 2494   4.515   2.767   5.637  0.5295  0.5105 -0.2104
   34CHL1  H21A 2495   4.550   2.871   5.654 -0.4795  0.4837  2.4330
   34CHL1  H21B 2496   4.404   2.769   5.650  0.6100 -0.0737  0.5829
   34CHL1  H21C 2497   4.552   2.743   5.535 -2.6089  1.0901 -1.6138
   34CHL1   C22 2498   4.575   2.527   5.710  0.2561  0.1879 -0.6858
   34CHL1  H22A 2499   4.599   2.462   5.796  1.0324 -0.1947 -1.1830
   34CHL1  H22B 2500   4.466   2.511   5.702  0.0828 -0.8447  2.5274
   34CHL1   C23 2501   4.666   2.473   5.596 -0.4380 -0.0463 -0.8818
   34CHL1  H23A 2502   4.607   2.510   5.509 -2.3293 -2.4345 -0.7306
   34CHL1  H23B 2503   4.766   2.520   5.601 -0.7036  0.4050  1.2112
   34CHL1   C24 2504   4.665   2.320   5.581  0.3668 -0.4894  0.5943
   34CHL1  H24A 2505   4.566   2.273   5.565  0.6005 -1.1152  0.9764
   34CHL1  H24B 2506   4.712   2.302   5.482 -1.2082 -1.2517 -0.0505
   34CHL1   C25 2507   4.733   2.243   5.695  0.6054 -0.4383 -0.0823
   34CHL1   H25 2508   4.675   2.266   5.787 -0.4106  0.2197 -0.8702
   34CHL1   C26 2509   4.730   2.093   5.661  0.2349 -0.2463  0.1201
   34CHL1  H26A 2510   4.629   2.063   5.625  0.6855 -0.8998 -0.6445
   34CHL1  H26B 2511   4.801   2.078   5.577 -1.6685  0.7187 -1.7547
   34CHL1  H26C 2512   4.756   2.013   5.733  3.7017 -2.3439 -3.1160
   34CHL1   C27 2513   4.878   2.280   5.713 -0.6365  0.0958  0.0913
   34CHL1  H27A 2514   4.928   2.251   5.619  0.0603  0.6554  0.2813
   34CHL1  H27B 2515   4.901   2.385   5.741 -1.8286  1.2896 -2.9390
   34CHL1  H27C 2516   4.919   2.223   5.800 -0.9302 -0.8348 -0.3603
   35CHL1    C3 2517   1.047   2.236   3.421  0.1148 -0.6276 -0.0177
   35CHL1    H3 2518   1.013   2.131   3.412 -2.0595  0.1380 -1.8056
   35CHL1    O3 2519   1.044   2.298   3.294  0.2921  0.1741 -0.1680
   35CHL1   H3' 2520   1.051   2.394   3.297 -1.4623  0.3375 -0.3828
   35CHL1    C4 2521   0.952   2.302   3.533  0.6605 -0.8014  0.9919
   35CHL1   H4A 2522   0.988   2.407   3.537  2.4350 -1.2984 -0.4851
   35CHL1   H4B 2523   0.845   2.303   3.502  0.3745  0.1642  1.9382
   35CHL1    C5 2524   0.962   2.230   3.668 -0.1789 -0.0405 -0.6187
   35CHL1    C6 2525   0.852   2.196   3.730  0.6502  0.0450  0.7617
   35CHL1    H6 2526   0.752   2.220   3.689  0.9329 -0.8967 -0.5515
   35CHL1    C7 2527   0.848   2.131   3.863  0.5638  0.1054  0.1300
   35CHL1   H7A 2528   0.770   2.185   3.920 -1.3913 -1.8340 -0.5985
   35CHL1   H7B 2529   0.806   2.030   3.844  1.3986 -0.1847 -0.2156
   35CHL1    C8 2530   0.983   2.135   3.933 -0.6197 -0.2419  0.4691
   35CHL1    H8 2531   1.003   2.234   3.978  1.5912 -1.4526  2.3857
   35CHL1   C14 2532   0.979   2.029   4.041  0.6826  0.1161  0.0046
   35CHL1   H14 2533   0.964   1.928   3.998  3.2536 -1.0644  1.6355
   35CHL1   C15 2534   0.870   2.038   4.146 -0.0530  0.5638  0.0206
   35CHL1  H15A 2535   0.865   2.143   4.183 -0.8561  0.1800  1.0513
   35CHL1  H15B 2536   0.771   2.000   4.113  1.2982 -3.0065 -0.3645
   35CHL1   C16 2537   0.929   1.945   4.264  0.9801  0.1344 -0.4322
   35CHL1  H16A 2538   0.910   1.987   4.366  0.5197  0.7600 -0.7716
   35CHL1  H16B 2539   0.878   1.847   4.253  1.4751 -0.0115 -1.5445
   35CHL1   C17 2540   1.074   1.922   4.230  0.1522 -0.1775  0.3310
   35CHL1   H17 2541   1.087   1.835   4.162 -0.5729 -0.1742  0.1749
   35CHL1   C13 2542   1.111   2.025   4.126 -0.5890 -0.1468 -0.0043
   35CHL1   C18 2543   1.131   2.154   4.204  0.1381  0.1689 -0.0521
   35CHL1  H18A 2544   1.225   2.158   4.263 -1.0549 -3.4136  2.4385
   35CHL1  H18B 2545   1.133   2.249   4.146 -1.4131  0.5905  0.5300
   35CHL1  H18C 2546   1.056   2.171   4.285  1.0439 -0.5847  0.9795
   35CHL1   C12 2547   1.229   1.990   4.030  0.5658 -0.4004 -0.3640
   35CHL1  H12A 2548   1.316   1.975   4.098 -3.0469  0.7159  5.2672
   35CHL1  H12B 2549   1.214   1.888   3.988  0.2518 -1.6657  2.5737
   35CHL1   C11 2550   1.236   2.089   3.920 -0.5105  0.5523  0.3347
   35CHL1  H11A 2551   1.247   2.190   3.965  0.1972 -0.5920  2.8520
   35CHL1  H11B 2552   1.326   2.076   3.856 -0.7588 -1.6876  0.3639
   35CHL1    C9 2553   1.102   2.101   3.839 -0.7334  0.6740 -0.3850
   35CHL1    H9 2554   1.085   2.002   3.792 -1.8818  1.4034 -1.5963
   35CHL1   C10 2555   1.107   2.205   3.719 -0.0988  0.3914 -0.5739
   35CHL1   C19 2556   1.173   2.334   3.766  0.3831  0.2190 -0.4736
   35CHL1  H19A 2557   1.127   2.383   3.855 -0.4340 -1.0870 -0.1482
   35CHL1  H19B 2558   1.282   2.320   3.779  0.1291 -0.5029  1.0559
   35CHL1  H19C 2559   1.172   2.391   3.671  3.2542 -4.1651 -3.4852
   35CHL1    C1 2560   1.186   2.139   3.610  0.3524 -0.6124 -0.0248
   35CHL1   H1A 2561   1.288   2.118   3.650  1.5089  2.0480 -1.2921
   35CHL1   H1B 2562   1.140   2.043   3.580 -0.6397  0.0014 -0.4962
   35CHL1    C2 2563   1.193   2.221   3.480  0.8729  0.2028  0.1898
   35CHL1   H2A 2564   1.265   2.174   3.409  1.1491 -1.6183  1.6030
   35CHL1   H2B 2565   1.229   2.323   3.506  0.1229  0.3681  0.6006
   35CHL1   C20 2566   1.173   1.904   4.351  0.3818 -0.4825  0.2893
   35CHL1   H20 2567   1.273   1.922   4.305 -0.5820  0.0579 -1.7270
   35CHL1   C21 2568   1.143   1.762   4.389  0.1092 -0.1078  0.0607
   35CHL1  H21A 2569   1.217   1.719   4.460  1.1665 -1.3040 -1.6868
   35CHL1  H21B 2570   1.145   1.684   4.310 -1.8614 -1.0520  0.8818
   35CHL1  H21C 2571   1.048   1.755   4.447 -1.0154  2.2943 -1.3309
   35CHL1   C22 2572   1.148   1.980   4.477 -0.2999  0.4597 -0.4137
   35CHL1  H22A 2573   1.095   2.075   4.456 -0.6977 -0.1206 -2.2206
   35CHL1  H22B 2574   1.076   1.930   4.546  1.6822 -0.1629  1.3143
   35CHL1   C23 2575   1.282   1.999   4.559  0.1352 -0.9851  0.0681
   35CHL1  H23A 2576   1.345   1.908   4.568 -1.8307 -2.3332  0.8615
   35CHL1  H23B 2577   1.338   2.068   4.491 -1.1931 -1.4545 -1.5879
   35CHL1   C24 2578   1.243   2.073   4.688  0.6284 -1.0307 -0.1702
   35CHL1  H24A 2579   1.330   2.126   4.733 -0.5042  0.9413 -0.2021
   35CHL1  H24B 2580   1.169   2.153   4.665  0.4606 -1.3969 -0.9345
   35CHL1   C25 2581   1.188   1.976   4.796  0.5227 -0.1280 -0.4153
   35CHL1   H25 2582   1.091   1.931   4.767 -0.7827  0.8928  2.0658
   35CHL1   C26 2583   1.286   1.860   4.826  0.7656 -0.0916 -0.0013
   35CHL1  H26A 2584   1.291   1.784   4.744  3.2578  0.0650 -0.0743
   35CHL1  H26B 2585   1.387   1.904   4.836  1.2481 -0.2246 -3.1878
   35CHL1  H26C 2586   1.255   1.812   4.921  0.7885  1.3233  0.7529
   35CHL1   C27 2587   1.164   2.057   4.935 -0.0418 -0.8233 -0.1077
   35CHL1  H27A 2588   1.134   1.998   5.025 -1.6060  1.6871  1.1369
   35CHL1  H27B 2589   1.256   2.110   4.965 -0.3359 -0.2687 -0.1760
   35CHL1  H27C 2590   1.086   2.134   4.917 -2.2888 -2.8384  0.4476
   36CHL1    C3 2591   2.895   1.373   4.667  0.1065  0.2658  0.0793
   36CHL1    H3 2592   2.943   1.462   4.713 -2.0074  1.6175 -0.1886
   36CHL1    O3 2593   2.890   1.392   4.529 -0.1447 -0.1133  0.0095
   36CHL1   H3' 2594   2.798   1.379   4.504 -1.2624  2.6828  2.0985
   36CHL1    C4 2595   2.980   1.244   4.691  0.5871 -0.0964 -0.3176
   36CHL1   H4A 2596   2.927   1.167   4.630 -0.0576  0.6596 -0.7336
   36CHL1   H4B 2597   3.085   1.249   4.655 -0.4017  0.2140 -3.4376
   36CHL1    C5 2598   2.978   1.198   4.836  0.0322  0.0905  0.2698
   36CHL1    C6 2599   3.093   1.176   4.899  0.0025 -0.6565  0.0582
   36CHL1    H6 2600   3.185   1.187   4.840 -1.5619  0.9840 -2.2852
   36CHL1    C7 2601   3.101   1.119   5.034  0.5090  0.7697  0.0978
   36CHL1   H7A 2602   3.156   1.023   5.030 -0.4584  0.2407 -2.9464
   36CHL1   H7B 2603   3.153   1.184   5.107  3.8474 -0.9707 -0.5445
   36CHL1    C8 2604   2.960   1.082   5.094  0.0891 -0.0637  0.1574
   36CHL1    H8 2605   2.941   0.979   5.057  2.2143 -0.7052  0.7159
   36CHL1   C14 2606   2.974   1.078   5.245 -0.2658  0.1070 -0.0840
   36CHL1   H14 2607   3.010   1.178   5.276  3.7617 -0.9636 -0.7019
   36CHL1   C15 2608   3.092   1.004   5.315  0.1027  0.4463  0.1551
   36CHL1  H15A 2609   3.117   0.916   5.252  0.3412 -0.3136  1.2728
   36CHL1  H15B 2610   3.180   1.073   5.313 -0.9294  2.0506 -4.9485
   36CHL1   C16 2611   3.035   0.967   5.457  0.4794 -0.2709 -0.2450
   36CHL1  H16A 2612   3.015   0.858   5.452 -3.1969  0.3366 -1.8220
   36CHL1  H16B 2613   3.099   0.991   5.544 -2.4956  1.1640  1.7112
   36CHL1   C17 2614   2.895   1.028   5.462 -0.5620 -0.0133 -0.0446
   36CHL1   H17 2615   2.901   1.134   5.495  1.1141 -1.0392  3.5091
   36CHL1   C13 2616   2.847   1.028   5.311 -0.3333  0.8656  0.1730
   36CHL1   C18 2617   2.805   0.877   5.278 -0.2666 -0.1135 -0.1144
   36CHL1  H18A 2618   2.876   0.800   5.316  0.1690  0.7627  0.9054
   36CHL1  H18B 2619   2.708   0.853   5.328  0.2119 -2.6665 -0.2615
   36CHL1  H18C 2620   2.787   0.853   5.171  0.4725  0.6086 -0.4116
   36CHL1   C12 2621   2.733   1.126   5.277 -0.1887  0.4503 -0.2031
   36CHL1  H12A 2622   2.636   1.103   5.324  0.6460 -4.2811 -0.2616
   36CHL1  H12B 2623   2.774   1.217   5.325  1.5112  1.0043 -2.5260
   36CHL1   C11 2624   2.707   1.142   5.124 -0.8562 -0.5883  0.0346
   36CHL1  H11A 2625   2.656   1.048   5.093 -3.4225 -0.3041  2.9216
   36CHL1  H11B 2626   2.633   1.222   5.104 -2.7549 -2.3654 -0.3079
   36CHL1    C9 2627   2.848   1.180   5.056 -0.2756 -1.0417  0.4662
   36CHL1    H9 2628   2.870   1.281   5.096  0.7027 -1.9505  2.3159
   36CHL1   C10 2629   2.838   1.191   4.904 -0.3189  0.1682  0.1516
   36CHL1   C19 2630   2.765   1.067   4.852 -0.2212  0.4385  0.6903
   36CHL1  H19A 2631   2.657   1.073   4.876 -0.7198 -0.0487 -1.2907
   36CHL1  H19B 2632   2.768   1.054   4.742  0.3678 -0.4682  0.8002
   36CHL1  H19C 2633   2.782   0.970   4.904  0.1550 -0.3314 -0.8283
   36CHL1    C1 2634   2.760   1.319   4.876  0.3459  0.2610  0.0532
   36CHL1   H1A 2635   2.656   1.307   4.913 -0.3402 -0.1188 -1.9048
   36CHL1   H1B 2636   2.806   1.404   4.931 -0.8138  1.7290 -1.1627
   36CHL1    C2 2637   2.753   1.355   4.724 -0.0975 -0.3142  0.1805
   36CHL1   H2A 2638   2.702   1.452   4.702 -2.0079 -1.5115 -0.9030
   36CHL1   H2B 2639   2.692   1.280   4.670 -0.2000 -0.8877  1.0608
   36CHL1   C20 2640   2.811   0.954   5.570 -1.1050 -0.4324 -0.2776
   36CHL1   H20 2641   2.798   0.850   5.533 -1.8367  0.2609 -2.0925
   36CHL1   C21 2642   2.671   1.006   5.586 -0.1345 -0.6968  0.1801
   36CHL1  H21A 2643   2.615   0.985   5.493  1.0927 -3.1521 -0.1075
   36CHL1  H21B 2644   2.675   1.113   5.614 -0.9387 -0.8575  0.9432
   36CHL1  H21C 2645   2.613   0.942   5.656 -3.0786  1.1634 -0.3936
   36CHL1   C22 2646   2.884   0.938   5.706  0.1565 -0.1479 -0.1755
   36CHL1  H22A 2647   2.969   0.867   5.691  0.6668  0.4078  0.0417
   36CHL1  H22B 2648   2.927   1.028   5.755 -1.8846 -0.1417  1.7632
   36CHL1   C23 2649   2.797   0.869   5.814  0.2854 -0.3265  0.1279
   36CHL1  H23A 2650   2.712   0.932   5.848 -1.1299 -0.9444 -2.0623
   36CHL1  H23B 2651   2.753   0.772   5.784  1.8621 -0.8904 -0.4622
   36CHL1   C24 2652   2.879   0.836   5.939  0.1090 -0.0546 -0.3400
   36CHL1  H24A 2653   2.933   0.740   5.928  1.1071  0.3000  1.2500
   36CHL1  H24B 2654   2.955   0.914   5.961  1.8746 -1.6555 -0.5592
   36CHL1   C25 2655   2.797   0.811   6.064  0.3750 -0.0381  0.4095
   36CHL1   H25 2656   2.723   0.731   6.043 -0.0153  0.7385 -1.2920
   36CHL1   C26 2657   2.882   0.741   6.161 -1.1702  0.1575  0.3542
   36CHL1  H26A 2658   2.930   0.649   6.122  0.9174  0.8657  1.0547
   36CHL1  H26B 2659   2.967   0.810   6.179 -1.2680  0.6467 -0.9177
   36CHL1  H26C 2660   2.826   0.712   6.252 -0.6701 -1.7577  0.1025
   36CHL1   C27 2661   2.722   0.934   6.127  0.2237  0.2400  0.4324
   36CHL1  H27A 2662   2.794   0.984   6.196 -0.7133  0.3012  1.4015
   36CHL1  H27B 2663   2.684   0.997   6.044  1.5468 -0.5737 -0.8356
   36CHL1  H27C 2664   2.639   0.894   6.190  0.0266 -1.3816 -0.8105
   37CHL1    C3 2665   6.195   2.670   3.551 -0.7820  0.0128 -1.1771
   37CHL1    H3 2666   6.277   2.743   3.535 -1.0902  0.4754 -0.6840
   37CHL1    O3 2667   6.142   2.626   3.430 -0.0631  0.5362 -0.0873
   37CHL1   H3' 2668   6.209   2.576   3.384  0.8388 -0.6209  2.2789
   37CHL1    C4 2669   6.245   2.545   3.627  0.5731  0.8415 -0.5661
   37CHL1   H4A 2670   6.171   2.463   3.634  0.8637  0.6548  0.5390
   37CHL1   H4B 2671   6.326   2.495   3.571  1.4610  1.0723  0.4795
   37CHL1    C5 2672   6.284   2.577   3.774  0.2054  0.9366  0.2151
   37CHL1    C6 2673   6.404   2.537   3.824  0.3145 -0.6825  0.0595
   37CHL1    H6 2674   6.474   2.496   3.750  1.2214  2.5108 -1.0035
   37CHL1    C7 2675   6.450   2.563   3.964  0.4770 -0.3283  0.1319
   37CHL1   H7A 2676   6.495   2.475   4.015 -0.4042 -1.3148 -0.7525
   37CHL1   H7B 2677   6.535   2.634   3.957 -0.7234  1.0945 -0.4538
   37CHL1    C8 2678   6.340   2.622   4.057 -0.6343  0.4365  0.0170
   37CHL1    H8 2679   6.281   2.534   4.089  1.6559 -0.8652  0.9515
   37CHL1   C14 2680   6.400   2.686   4.177 -0.2445 -0.0177 -0.5964
   37CHL1   H14 2681   6.464   2.769   4.139  1.3360 -0.9478 -0.0775
   37CHL1   C15 2682   6.488   2.602   4.272 -0.9161 -0.4059  0.5421
   37CHL1  H15A 2683   6.440   2.508   4.308  0.4359 -1.2356  0.2128
   37CHL1  H15B 2684   6.576   2.583   4.208 -1.8280 -1.8034 -0.3430
   37CHL1   C16 2685   6.514   2.694   4.394  0.2321 -0.3054 -0.6595
   37CHL1  H16A 2686   6.517   2.625   4.482 -2.8273 -0.9702 -0.9401
   37CHL1  H16B 2687   6.616   2.734   4.376  0.8056 -2.7694 -3.6900
   37CHL1   C17 2688   6.404   2.803   4.391 -0.3591  0.6360  0.9069
   37CHL1   H17 2689   6.458   2.889   4.347  0.1439  0.9762  2.1567
   37CHL1   C13 2690   6.306   2.756   4.276  0.0791  0.2415  1.0435
   37CHL1   C18 2691   6.200   2.656   4.334  0.1990 -0.2286 -0.7348
   37CHL1  H18A 2692   6.240   2.568   4.390 -1.5277  0.8346  2.4376
   37CHL1  H18B 2693   6.126   2.705   4.400 -0.1664 -3.7930  1.8081
   37CHL1  H18C 2694   6.133   2.609   4.259 -2.5370  1.7384  0.3487
   37CHL1   C12 2695   6.236   2.874   4.198  0.1545 -0.2000  0.3110
   37CHL1  H12A 2696   6.164   2.933   4.257  0.4833  0.9273 -0.3873
   37CHL1  H12B 2697   6.323   2.937   4.173  1.0344 -1.2167  0.7179
   37CHL1   C11 2698   6.164   2.804   4.078 -0.2639 -0.1677  0.6248
   37CHL1  H11A 2699   6.072   2.754   4.116  0.5939 -0.7776  1.9958
   37CHL1  H11B 2700   6.115   2.882   4.017 -0.7567 -0.7789  0.2287
   37CHL1    C9 2701   6.259   2.721   3.985  0.1741  0.5824  0.7315
   37CHL1    H9 2702   6.333   2.797   3.951  1.6127 -0.9426  0.3441
   37CHL1   C10 2703   6.186   2.666   3.860  0.1069  0.9389 -0.9955
   37CHL1   C19 2704   6.067   2.563   3.911 -0.2853 -0.5920 -0.1973
   37CHL1  H19A 2705   6.000   2.548   3.824 -0.3291  2.2271 -0.7271
   37CHL1  H19B 2706   6.123   2.472   3.941 -1.2012 -0.3924  2.3554
   37CHL1  H19C 2707   5.998   2.592   3.993 -0.9971 -0.1095 -0.9552
   37CHL1    C1 2708   6.135   2.787   3.777 -0.4104  0.0625 -0.4586
   37CHL1   H1A 2709   6.049   2.826   3.834  1.1547  2.5611  0.3609
   37CHL1   H1B 2710   6.217   2.861   3.764 -0.8155  0.3757 -1.2963
   37CHL1    C2 2711   6.083   2.748   3.633 -0.2549  0.2939  0.1514
   37CHL1   H2A 2712   6.061   2.831   3.563  0.4123 -0.7460 -1.3348
   37CHL1   H2B 2713   5.985   2.696   3.629  0.0186 -0.2267  0.0947
   37CHL1   C20 2714   6.363   2.836   4.532  0.1688  0.0965 -0.6208
   37CHL1   H20 2715   6.311   2.745   4.569 -0.9231 -0.3854 -3.1608
   37CHL1   C21 2716   6.254   2.953   4.536 -0.2663 -0.5595 -0.4001
   37CHL1  H21A 2717   6.302   3.048   4.505  0.9135 -0.4179  1.6659
   37CHL1  H21B 2718   6.217   2.977   4.638  1.1575 -0.4960  0.1230
   37CHL1  H21C 2719   6.157   2.933   4.484 -1.4166  0.6925  1.1333
   37CHL1   C22 2720   6.478   2.870   4.628  0.7073 -0.5292  0.0668
   37CHL1  H22A 2721   6.550   2.787   4.643  2.6292  1.4192  2.7079
   37CHL1  H22B 2722   6.538   2.957   4.592 -0.5788 -0.9159 -3.3471
   37CHL1   C23 2723   6.439   2.899   4.775  0.3561 -0.4221 -0.0802
   37CHL1  H23A 2724   6.373   2.988   4.760 -1.3875 -1.8434 -1.3365
   37CHL1  H23B 2725   6.377   2.812   4.806  0.7272 -0.1651  1.4701
   37CHL1   C24 2726   6.566   2.929   4.859 -0.1291  0.0643  0.2712
   37CHL1  H24A 2727   6.645   2.853   4.843  0.8077  0.8948  0.8797
   37CHL1  H24B 2728   6.617   3.022   4.826 -1.7007 -0.2240 -3.4093
   37CHL1   C25 2729   6.534   2.945   5.010 -0.0356  0.5371  0.0715
   37CHL1   H25 2730   6.640   2.942   5.042 -0.2133 -1.1155  0.5868
   37CHL1   C26 2731   6.471   3.083   5.041 -0.4443 -0.4538 -0.4791
   37CHL1  H26A 2732   6.467   3.109   5.149  0.0082  1.4379 -0.8757
   37CHL1  H26B 2733   6.533   3.161   4.991  0.1107 -1.9272 -2.2181
   37CHL1  H26C 2734   6.368   3.089   5.000 -0.3503  1.7364 -0.5300
   37CHL1   C27 2735   6.470   2.824   5.078 -0.0700 -0.0745 -0.3389
   37CHL1  H27A 2736   6.366   2.799   5.048  0.5184 -3.2313 -0.1262
   37CHL1  H27B 2737   6.541   2.739   5.067  0.4387  0.0268  1.7976
   37CHL1  H27C 2738   6.472   2.848   5.186 -0.1212  1.6474 -0.7005
   38CHL1    C3 2739   6.833   6.755   3.078  1.1814  0.0778 -0.7907
   38CHL1    H3 2740   6.846   6.645   3.063  0.6150 -0.2260  0.7654
   38CHL1    O3 2741   6.825   6.803   2.948 -0.0876 -0.3481 -0.5188
   38CHL1   H3' 2742   6.832   6.899   2.953 -1.5283 -0.1797 -1.3054
   38CHL1    C4 2743   6.708   6.788   3.172  0.4274  0.1528  0.1378
   38CHL1   H4A 2744   6.676   6.894   3.170 -0.1521 -0.0200 -1.8236
   38CHL1   H4B 2745   6.620   6.734   3.133 -1.3767  2.0206  1.4375
   38CHL1    C5 2746   6.723   6.742   3.317  0.1228  0.6567 -0.3404
   38CHL1    C6 2747   6.642   6.651   3.371 -0.1726  0.3773  0.8653
   38CHL1    H6 2748   6.563   6.609   3.308  0.6707 -0.2686  0.2064
   38CHL1    C7 2749   6.644   6.622   3.513  0.3758 -0.2934 -0.8796
   38CHL1   H7A 2750   6.542   6.624   3.558  0.1839  2.1471 -1.2646
   38CHL1   H7B 2751   6.686   6.520   3.517  1.3056  0.1059  2.4711
   38CHL1    C8 2752   6.739   6.714   3.597 -0.0966  0.1687  0.2215
   38CHL1    H8 2753   6.684   6.811   3.600 -0.3633  0.0653 -0.8995
   38CHL1   C14 2754   6.770   6.660   3.734 -0.2657 -0.1905 -0.1640
   38CHL1   H14 2755   6.818   6.560   3.728 -0.5544 -0.3274 -0.2071
   38CHL1   C15 2756   6.648   6.626   3.817  0.6712 -0.0473 -0.4768
   38CHL1  H15A 2757   6.576   6.707   3.792  0.5011 -0.2234 -0.5527
   38CHL1  H15B 2758   6.617   6.528   3.777  3.2762 -0.6702 -1.1633
   38CHL1   C16 2759   6.688   6.636   3.968 -0.6383  0.6471  0.1140
   38CHL1  H16A 2760   6.626   6.716   4.012  1.3196  1.2439  1.9464
   38CHL1  H16B 2761   6.686   6.541   4.025 -1.7429  0.9439  0.5893
   38CHL1   C17 2762   6.842   6.667   3.960  0.2786 -0.1139  0.7722
   38CHL1   H17 2763   6.893   6.569   3.946 -0.0768 -0.2031  0.0188
   38CHL1   C13 2764   6.867   6.739   3.822 -0.8897  0.1969  0.2560
   38CHL1   C18 2765   6.816   6.887   3.832  0.8676 -0.2199 -0.5251
   38CHL1  H18A 2766   6.881   6.949   3.898 -0.3551  0.0913  0.4353
   38CHL1  H18B 2767   6.805   6.935   3.733  0.1508 -0.7619 -0.7170
   38CHL1  H18C 2768   6.717   6.888   3.883  0.7249 -1.8152 -0.7161
   38CHL1   C12 2769   7.003   6.731   3.750 -0.0901 -0.8575  0.3104
   38CHL1  H12A 2770   7.085   6.789   3.797 -1.7084 -0.1036  2.3691
   38CHL1  H12B 2771   7.039   6.625   3.755  1.7332 -0.2695  0.4416
   38CHL1   C11 2772   6.987   6.788   3.605 -0.3687 -0.9162 -0.6372
   38CHL1  H11A 2773   6.965   6.896   3.620 -1.7906 -1.3598  0.7809
   38CHL1  H11B 2774   7.079   6.781   3.544  0.7063  0.9182  0.6628
   38CHL1    C9 2775   6.874   6.724   3.522 -0.1613  0.3115  0.1993
   38CHL1    H9 2776   6.903   6.618   3.505 -0.5207  0.3919 -1.0247
   38CHL1   C10 2777   6.854   6.795   3.384  0.5119 -0.1147 -0.0011
   38CHL1   C19 2778   6.829   6.951   3.405 -0.5212  0.0512  0.1424
   38CHL1  H19A 2779   6.732   6.970   3.455 -0.4260 -1.4694  0.9651
   38CHL1  H19B 2780   6.916   6.986   3.465 -0.6914 -0.0888  0.4734
   38CHL1  H19C 2781   6.846   6.996   3.304 -2.1484  1.2114  0.3508
   38CHL1    C1 2782   6.971   6.750   3.285 -0.0706 -0.0550  0.6167
   38CHL1   H1A 2783   7.072   6.777   3.322  0.1512 -0.8604  0.6154
   38CHL1   H1B 2784   6.978   6.639   3.288 -1.2332 -0.1412  0.6119
   38CHL1    C2 2785   6.960   6.807   3.141  0.2039  0.0278 -0.2122
   38CHL1   H2A 2786   7.049   6.778   3.081 -0.3000 -1.5190 -0.2606
   38CHL1   H2B 2787   6.969   6.917   3.132  4.2785 -0.1309  0.1068
   38CHL1   C20 2788   6.900   6.734   4.086 -0.3327 -0.0496 -0.4031
   38CHL1   H20 2789   6.880   6.843   4.086  0.3820  0.1047  0.8300
   38CHL1   C21 2790   7.052   6.693   4.095  0.2148 -0.5563 -0.3148
   38CHL1  H21A 2791   7.105   6.753   4.172  3.1838  0.5052 -2.9847
   38CHL1  H21B 2792   7.104   6.734   4.006  0.3342  1.3134  0.5654
   38CHL1  H21C 2793   7.079   6.585   4.094 -2.6094 -1.5120  3.6810
   38CHL1   C22 2794   6.823   6.690   4.216  0.1660 -0.3009  0.2653
   38CHL1  H22A 2795   6.723   6.737   4.205 -0.3421 -0.5527  3.0749
   38CHL1  H22B 2796   6.817   6.580   4.211 -0.1494 -0.2692 -0.0820
   38CHL1   C23 2797   6.875   6.741   4.356  0.4335  0.3463 -0.0435
   38CHL1  H23A 2798   6.975   6.700   4.380  0.6260 -0.4525 -1.9928
   38CHL1  H23B 2799   6.884   6.852   4.356  0.7766  0.3313 -0.9945
   38CHL1   C24 2800   6.770   6.708   4.468  0.0362 -0.1612 -0.4631
   38CHL1  H24A 2801   6.673   6.755   4.442 -0.0585  1.8796  2.9138
   38CHL1  H24B 2802   6.763   6.598   4.475  2.2745 -0.3121  0.2978
   38CHL1   C25 2803   6.805   6.774   4.610  0.0402 -0.2771 -0.2289
   38CHL1   H25 2804   6.717   6.758   4.676 -1.3045  0.7635 -1.6767
   38CHL1   C26 2805   6.927   6.722   4.686  0.4225  0.2843 -0.1774
   38CHL1  H26A 2806   7.017   6.724   4.621 -0.6040 -0.0925 -1.6815
   38CHL1  H26B 2807   6.943   6.771   4.784  3.5253 -1.7370  0.4470
   38CHL1  H26C 2808   6.897   6.618   4.711 -1.1856  0.2684 -1.9191
   38CHL1   C27 2809   6.805   6.927   4.600 -0.4508 -0.1873  0.0231
   38CHL1  H27A 2810   6.722   6.961   4.535 -0.0016  3.6587  1.2242
   38CHL1  H27B 2811   6.798   6.985   4.694  1.9382  1.1751 -0.5459
   38CHL1  H27C 2812   6.886   6.967   4.534 -3.5427  2.7771 -2.3325
   39CHL1    C3 2813   6.185   6.793   3.288  0.4985  0.0138  0.6064
   39CHL1    H3 2814   6.154   6.687   3.306  2.2564 -1.2914 -3.0451
   39CHL1    O3 2815   6.201   6.806   3.144  0.2233  0.1932  0.6496
   39CHL1   H3' 2816   6.123   6.761   3.112 -0.1031 -0.6411  2.5047
   39CHL1    C4 2817   6.082   6.891   3.355  0.6354 -0.0951  0.0969
   39CHL1   H4A 2818   6.110   6.988   3.308 -1.3710 -0.5631 -2.2414
   39CHL1   H4B 2819   5.985   6.859   3.312  1.0729  0.4373 -1.3076
   39CHL1    C5 2820   6.094   6.880   3.502  0.3493 -1.2501  0.4405
   39CHL1    C6 2821   5.977   6.851   3.562 -0.3438  0.3854  0.3880
   39CHL1    H6 2822   5.881   6.869   3.512 -0.7277  0.6014  1.1792
   39CHL1    C7 2823   5.964   6.854   3.715  0.4197 -0.2684 -0.1990
   39CHL1   H7A 2824   5.875   6.913   3.744 -0.2994  0.5846 -3.6648
   39CHL1   H7B 2825   5.963   6.750   3.754  0.3321  0.3687  1.5651
   39CHL1    C8 2826   6.091   6.920   3.779 -0.1619 -0.4502 -0.9924
   39CHL1    H8 2827   6.084   7.031   3.776 -2.5336 -0.5749 -1.7265
   39CHL1   C14 2828   6.099   6.880   3.930 -0.0780  0.6948  0.0713
   39CHL1   H14 2829   6.125   6.773   3.940  1.2395  1.0164  0.1969
   39CHL1   C15 2830   5.972   6.898   4.021 -0.3533 -0.0767  0.5064
   39CHL1  H15A 2831   5.938   7.000   3.994  2.9565  0.4621 -2.1715
   39CHL1  H15B 2832   5.888   6.827   4.003 -0.5459  0.5559 -1.2193
   39CHL1   C16 2833   6.024   6.886   4.163  0.7574 -0.0119  0.1801
   39CHL1  H16A 2834   5.981   6.975   4.215 -0.6068  0.2483 -1.3178
   39CHL1  H16B 2835   5.983   6.799   4.220 -0.5738 -1.0503 -2.2101
   39CHL1   C17 2836   6.184   6.891   4.154  0.6363 -0.5669  0.4339
   39CHL1   H17 2837   6.208   6.783   4.153 -1.2011 -0.9932 -0.1175
   39CHL1   C13 2838   6.213   6.946   4.012  0.0684 -0.1612 -0.6614
   39CHL1   C18 2839   6.207   7.099   4.019 -0.2391 -0.4576  0.7986
   39CHL1  H18A 2840   6.207   7.148   3.919 -0.9279 -1.1070  0.4667
   39CHL1  H18B 2841   6.114   7.122   4.076 -0.5377  0.2722  0.0414
   39CHL1  H18C 2842   6.296   7.140   4.071  1.4646 -0.3346 -2.0546
   39CHL1   C12 2843   6.347   6.899   3.946  0.0099 -0.0466 -0.2488
   39CHL1  H12A 2844   6.434   6.947   3.995 -0.5885  0.2689  0.5328
   39CHL1  H12B 2845   6.348   6.788   3.953  1.8909 -0.1273 -1.2569
   39CHL1   C11 2846   6.345   6.936   3.795  0.4769 -0.2967  0.1447
   39CHL1  H11A 2847   6.346   7.047   3.788 -0.3477 -0.0100  3.0506
   39CHL1  H11B 2848   6.435   6.900   3.742  0.9726  1.0291  0.0428
   39CHL1    C9 2849   6.227   6.878   3.715  0.8443  0.9078 -0.3286
   39CHL1    H9 2850   6.231   6.770   3.743 -0.3484  1.2619  1.3017
   39CHL1   C10 2851   6.219   6.899   3.573 -0.0529  0.3490  0.1495
   39CHL1   C19 2852   6.259   7.043   3.550 -0.0293  0.2649  0.9761
   39CHL1  H19A 2853   6.257   7.074   3.443 -1.8643 -1.9430  0.2900
   39CHL1  H19B 2854   6.213   7.128   3.606  0.2693 -1.3192  3.8380
   39CHL1  H19C 2855   6.368   7.051   3.567  0.4657  1.1614 -2.0503
   39CHL1    C1 2856   6.329   6.808   3.500  0.1292  0.3041  0.0871
   39CHL1   H1A 2857   6.430   6.829   3.543 -0.3485  1.9098  0.5152
   39CHL1   H1B 2858   6.310   6.704   3.535 -0.8785  0.6036  0.4721
   39CHL1    C2 2859   6.321   6.824   3.350 -0.5678  0.3343  0.4295
   39CHL1   H2A 2860   6.399   6.764   3.299 -1.5779 -0.9438  0.3358
   39CHL1   H2B 2861   6.342   6.929   3.323  1.3174 -0.0820  0.1814
   39CHL1   C20 2862   6.253   6.960   4.276 -0.5955  0.2536  0.7348
   39CHL1   H20 2863   6.234   7.069   4.264  1.2770  0.4008 -1.7332
   39CHL1   C21 2864   6.410   6.952   4.265  1.3284 -0.4014 -0.1107
   39CHL1  H21A 2865   6.455   6.972   4.365  1.1242  0.5874 -0.2066
   39CHL1  H21B 2866   6.447   7.027   4.193  1.3924 -0.2855  0.0420
   39CHL1  H21C 2867   6.429   6.849   4.227 -0.2372 -0.1932 -1.5763
   39CHL1   C22 2868   6.216   6.897   4.410  0.4658  0.2862  0.3159
   39CHL1  H22A 2869   6.259   6.964   4.487  1.1595 -0.2845  0.4380
   39CHL1  H22B 2870   6.106   6.907   4.421  0.0253 -2.4579 -0.8453
   39CHL1   C23 2871   6.250   6.747   4.420  0.1667  0.0904 -0.0369
   39CHL1  H23A 2872   6.205   6.680   4.344  0.0096 -1.4651  1.3582
   39CHL1  H23B 2873   6.360   6.732   4.422 -0.0740 -1.9680 -0.2483
   39CHL1   C24 2874   6.191   6.678   4.550  0.2503 -0.0437 -0.1902
   39CHL1  H24A 2875   6.209   6.746   4.637  1.0207  0.2261 -0.5498
   39CHL1  H24B 2876   6.082   6.698   4.542  0.0807 -0.5895  0.6335
   39CHL1   C25 2877   6.225   6.534   4.584  0.5702  0.8040  0.1113
   39CHL1   H25 2878   6.166   6.501   4.672  0.2586 -1.8044 -0.9592
   39CHL1   C26 2879   6.181   6.441   4.472 -0.2727  0.3201 -0.0910
   39CHL1  H26A 2880   6.208   6.339   4.505  4.4033  0.1547 -3.4892
   39CHL1  H26B 2881   6.071   6.444   4.454 -0.2656 -1.4496 -0.5833
   39CHL1  H26C 2882   6.246   6.451   4.383  2.9668 -1.8913  1.8448
   39CHL1   C27 2883   6.368   6.513   4.609 -0.2439 -1.2505 -0.1809
   39CHL1  H27A 2884   6.381   6.408   4.643  1.8199 -0.9096  0.1974
   39CHL1  H27B 2885   6.421   6.524   4.512 -0.2763 -0.0763 -0.0827
   39CHL1  H27C 2886   6.409   6.586   4.682  0.4412 -1.2194 -0.5862
   40CHL1    C3 2887   5.286   0.153   2.986 -1.0192  0.5219  0.8247
   40CHL1    H3 2888   5.377   0.094   3.010  0.3166  2.5302  0.9780
   40CHL1    O3 2889   5.298   0.215   2.856  0.1293  0.1800 -0.3385
   40CHL1   H3' 2890   5.218   0.268   2.855 -0.1884 -0.2915  0.1387
   40CHL1    C4 2891   5.154   0.069   3.000  0.2683 -0.3034 -0.4607
   40CHL1   H4A 2892   5.080   0.142   2.960  0.3508  0.0858  0.0930
   40CHL1   H4B 2893   5.167  -0.013   2.926 -2.0889 -1.2788  0.1213
   40CHL1    C5 2894   5.112   0.024   3.138 -0.2611 -0.1817  0.2806
   40CHL1    C6 2895   5.069  -0.099   3.163 -0.1558  0.7070 -0.4144
   40CHL1    H6 2896   5.068  -0.173   3.081  0.1718 -1.5698  1.5114
   40CHL1    C7 2897   5.028  -0.163   3.295 -0.0087  0.3132  0.2264
   40CHL1   H7A 2898   4.936  -0.225   3.279 -0.2845  0.8079 -0.1304
   40CHL1   H7B 2899   5.107  -0.231   3.334 -0.8412 -1.0480 -0.3467
   40CHL1    C8 2900   4.997  -0.051   3.396  0.2883  0.1163 -0.3808
   40CHL1    H8 2901   4.898  -0.007   3.374 -0.5383 -0.8004  1.3159
   40CHL1   C14 2902   4.996  -0.108   3.531 -0.2973 -0.3100  1.0586
   40CHL1   H14 2903   5.103  -0.129   3.550  0.2188 -0.2427 -1.4312
   40CHL1   C15 2904   4.911  -0.229   3.558  0.6544  0.6750  0.0235
   40CHL1  H15A 2905   4.806  -0.220   3.520 -0.4160 -2.1040  1.9545
   40CHL1  H15B 2906   4.951  -0.329   3.531  1.8955  1.2343 -0.2473
   40CHL1   C16 2907   4.908  -0.235   3.716  0.3970 -0.1525  0.8265
   40CHL1  H16A 2908   4.801  -0.236   3.747 -0.3123 -0.5142 -1.3976
   40CHL1  H16B 2909   4.952  -0.329   3.754 -1.2309 -0.9846  0.7240
   40CHL1   C17 2910   4.968  -0.104   3.764 -0.4353  0.2798  0.3525
   40CHL1   H17 2911   5.074  -0.135   3.776 -0.4730  0.6373  1.8046
   40CHL1   C13 2912   4.971  -0.008   3.639  0.5630 -0.0320  0.5244
   40CHL1   C18 2913   4.827   0.050   3.623  0.1467 -0.3261  0.5202
   40CHL1  H18A 2914   4.752  -0.032   3.622 -1.9184  1.4815 -0.4218
   40CHL1  H18B 2915   4.819   0.123   3.707  0.8482 -0.3837  0.6439
   40CHL1  H18C 2916   4.813   0.103   3.527  2.1570 -1.5610 -0.5176
   40CHL1   C12 2917   5.076   0.100   3.638  0.2665 -0.0254 -0.3106
   40CHL1  H12A 2918   5.038   0.184   3.701 -2.7831 -0.7092 -1.0527
   40CHL1  H12B 2919   5.166   0.059   3.689 -0.5220  2.8853  4.0342
   40CHL1   C11 2920   5.090   0.156   3.496 -0.0961 -0.0314  0.5227
   40CHL1  H11A 2921   4.999   0.218   3.480  0.3565  0.4587 -0.2204
   40CHL1  H11B 2922   5.180   0.221   3.495  0.4903 -0.8313 -0.0536
   40CHL1    C9 2923   5.104   0.055   3.385  0.0801 -0.1008 -0.4056
   40CHL1    H9 2924   5.191  -0.012   3.402  0.9993  1.0918 -0.3140
   40CHL1   C10 2925   5.120   0.125   3.244  0.9099 -0.2118  0.3171
   40CHL1   C19 2926   4.996   0.219   3.229  0.0360 -0.8032  0.3918
   40CHL1  H19A 2927   4.902   0.168   3.257 -0.0385 -0.8710  0.0145
   40CHL1  H19B 2928   5.003   0.307   3.296 -0.8213 -0.5889  0.2009
   40CHL1  H19C 2929   4.987   0.259   3.126 -3.4828 -0.6693  0.6446
   40CHL1    C1 2930   5.253   0.204   3.236 -0.6812  0.0399  0.2500
   40CHL1   H1A 2931   5.253   0.285   3.312  3.0765 -0.1992  0.6895
   40CHL1   H1B 2932   5.346   0.144   3.248  0.9136  1.8727 -1.9389
   40CHL1    C2 2933   5.271   0.267   3.099 -0.4588  0.3334  0.3504
   40CHL1   H2A 2934   5.371   0.316   3.106 -0.8072  1.0560  0.2840
   40CHL1   H2B 2935   5.192   0.336   3.063  0.7283  0.5308 -2.1183
   40CHL1   C20 2936   4.904  -0.057   3.896  0.1946  0.2011 -0.9564
   40CHL1   H20 2937   4.794  -0.058   3.886  0.1926  0.2084 -0.9360
   40CHL1   C21 2938   4.952   0.088   3.945  0.2538 -0.4328 -0.3044
   40CHL1  H21A 2939   5.061   0.098   3.964  0.0944  1.8445 -0.3185
   40CHL1  H21B 2940   4.893   0.117   4.035  0.3940  1.0414 -0.6648
   40CHL1  H21C 2941   4.916   0.162   3.870 -0.6250 -0.6644 -0.1218
   40CHL1   C22 2942   4.938  -0.153   4.018  0.8941 -0.8322  0.4017
   40CHL1  H22A 2943   4.892  -0.252   3.997  0.5943 -0.3838 -1.1446
   40CHL1  H22B 2944   5.048  -0.152   4.030  0.7530  0.8702  2.0681
   40CHL1   C23 2945   4.859  -0.111   4.149 -0.0736  0.7575 -0.1160
   40CHL1  H23A 2946   4.896  -0.011   4.182  0.0532  0.9833 -0.9059
   40CHL1  H23B 2947   4.754  -0.102   4.115  0.3795 -0.5608 -2.0713
   40CHL1   C24 2948   4.887  -0.201   4.273  0.3484  0.1401  0.0632
   40CHL1  H24A 2949   4.873  -0.308   4.245  2.1199  0.1635 -1.0472
   40CHL1  H24B 2950   4.995  -0.191   4.296  0.7313  0.1885 -1.6623
   40CHL1   C25 2951   4.815  -0.158   4.405  0.3308  0.0563 -0.2398
   40CHL1   H25 2952   4.826  -0.049   4.426 -1.6982 -0.1311  2.2543
   40CHL1   C26 2953   4.656  -0.184   4.381  0.4606 -0.0050  0.5642
   40CHL1  H26A 2954   4.620  -0.112   4.305  1.7627  3.5682  3.0523
   40CHL1  H26B 2955   4.636  -0.292   4.365  1.5950 -0.3136  1.0950
   40CHL1  H26C 2956   4.604  -0.151   4.474 -0.8769 -1.7830  0.5140
   40CHL1   C27 2957   4.856  -0.240   4.535  0.2266  0.4845 -0.8923
   40CHL1  H27A 2958   4.848  -0.350   4.517  0.5523 -0.1490  2.1950
   40CHL1  H27B 2959   4.960  -0.215   4.562  0.4678  1.0439 -2.2609
   40CHL1  H27C 2960   4.793  -0.215   4.623  1.0967  1.6675 -0.5852
   41CHL1    C3 2961   1.803   2.556   2.755 -0.2762  0.1387  0.0818
   41CHL1    H3 2962   1.834   2.450   2.755  0.2988  0.2967  0.8511
   41CHL1    O3 2963   1.807   2.593   2.618 -0.3901  0.5565  0.5163
   41CHL1   H3' 2964   1.733   2.652   2.605 -2.2296 -1.3640  1.5925
   41CHL1    C4 2965   1.662   2.566   2.809  0.0599 -0.8223  0.4073
   41CHL1   H4A 2966   1.635   2.674   2.801 -2.0753 -1.2509  1.1003
   41CHL1   H4B 2967   1.586   2.518   2.744  0.8086 -0.7166 -0.5756
   41CHL1    C5 2968   1.643   2.517   2.948  0.1185 -0.1477 -0.5232
   41CHL1    C6 2969   1.559   2.421   2.977 -0.0162  0.3519  1.0856
   41CHL1    H6 2970   1.502   2.377   2.894  2.3339 -3.1531  1.1036
   41CHL1    C7 2971   1.555   2.354   3.106 -0.8511  0.2835  0.0840
   41CHL1   H7A 2972   1.448   2.355   3.138 -0.3710  1.8401  1.8687
   41CHL1   H7B 2973   1.592   2.250   3.096 -0.8540  0.4526 -2.0869
   41CHL1    C8 2974   1.636   2.426   3.220  0.1936 -0.4620  0.6159
   41CHL1    H8 2975   1.562   2.501   3.254  0.2432 -1.3318  2.8429
   41CHL1   C14 2976   1.671   2.331   3.335 -0.0212 -0.2885  0.7221
   41CHL1   H14 2977   1.734   2.255   3.284 -1.1346 -0.4406 -0.4701
   41CHL1   C15 2978   1.553   2.240   3.387  0.3711 -0.0167 -0.1544
   41CHL1  H15A 2979   1.456   2.293   3.399  0.9454  1.5884 -2.1413
   41CHL1  H15B 2980   1.531   2.167   3.307 -0.2085  0.4870 -0.4598
   41CHL1   C16 2981   1.619   2.180   3.509  0.8317 -0.3081  0.0642
   41CHL1  H16A 2982   1.546   2.178   3.593 -0.0410 -0.6276 -0.6799
   41CHL1  H16B 2983   1.642   2.076   3.479 -0.7320 -0.5497 -0.3652
   41CHL1   C17 2984   1.746   2.262   3.539 -0.0146  0.2614 -0.5673
   41CHL1   H17 2985   1.827   2.197   3.499  0.1907  0.0634  0.1526
   41CHL1   C13 2986   1.744   2.388   3.455  0.2107 -0.2232 -0.2372
   41CHL1   C18 2987   1.652   2.487   3.522  0.0998 -0.1641  0.6880
   41CHL1  H18A 2988   1.626   2.561   3.443  0.3628 -1.0781 -0.2843
   41CHL1  H18B 2989   1.563   2.437   3.564  0.4808  0.4482  2.3097
   41CHL1  H18C 2990   1.707   2.533   3.607 -3.0978 -2.6826  4.4655
   41CHL1   C12 2991   1.875   2.437   3.395  0.0087  0.2945 -0.2180
   41CHL1  H12A 2992   1.919   2.485   3.485 -2.1024 -0.8458  1.5087
   41CHL1  H12B 2993   1.947   2.362   3.354  0.9201  1.2372 -0.4049
   41CHL1   C11 2994   1.854   2.538   3.277  0.3569  0.7473 -0.2131
   41CHL1  H11A 2995   1.810   2.629   3.322  0.2340  0.6059 -0.0471
   41CHL1  H11B 2996   1.958   2.559   3.244  1.8726 -1.3183  2.7769
   41CHL1    C9 2997   1.764   2.478   3.167 -0.1961  0.0172  0.6558
   41CHL1    H9 2998   1.817   2.391   3.121  0.4385 -0.1572  1.6900
   41CHL1   C10 2999   1.752   2.572   3.041 -0.0299  0.0342  0.0515
   41CHL1   C19 3000   1.698   2.712   3.084 -0.0273  1.4742 -0.3280
   41CHL1  H19A 3001   1.671   2.778   2.998 -0.2951  0.5783 -0.9419
   41CHL1  H19B 3002   1.608   2.690   3.144 -0.9354 -0.4293 -2.2659
   41CHL1  H19C 3003   1.774   2.758   3.151  1.6784 -2.3482  0.6425
   41CHL1    C1 3004   1.904   2.582   2.979  1.0244 -0.0886  0.1537
   41CHL1   H1A 3005   1.952   2.657   3.045 -0.2365  0.2490  0.7165
   41CHL1   H1B 3006   1.954   2.483   2.982  0.9749 -0.2779 -2.6492
   41CHL1    C2 3007   1.907   2.635   2.831  0.5294  0.0629 -0.8406
   41CHL1   H2A 3008   2.008   2.628   2.785  0.9976  0.2009  0.1331
   41CHL1   H2B 3009   1.866   2.738   2.841  0.9781  0.1757 -0.1312
   41CHL1   C20 3010   1.773   2.271   3.692  0.1319 -0.1647  0.1906
   41CHL1   H20 3011   1.705   2.344   3.740  0.5100 -0.6241  1.4696
   41CHL1   C21 3012   1.917   2.326   3.720  0.3563 -0.3030 -0.3264
   41CHL1  H21A 3013   1.932   2.430   3.684  1.7365 -0.8658 -1.4632
   41CHL1  H21B 3014   1.995   2.270   3.664 -0.0251 -0.4128 -0.7492
   41CHL1  H21C 3015   1.941   2.313   3.828 -0.9824  1.2128  0.1879
   41CHL1   C22 3016   1.744   2.136   3.776  0.4827 -0.0277  0.2807
   41CHL1  H22A 3017   1.643   2.098   3.753  0.5554 -0.3590  0.5038
   41CHL1  H22B 3018   1.814   2.056   3.745  0.2226 -0.0501 -0.2509
   41CHL1   C23 3019   1.756   2.161   3.929 -0.1296 -0.5416 -0.3729
   41CHL1  H23A 3020   1.863   2.171   3.956 -0.5055  0.4790  0.8612
   41CHL1  H23B 3021   1.700   2.254   3.954  0.3775  0.5927 -3.0266
   41CHL1   C24 3022   1.701   2.042   4.009  0.1563 -0.6860 -0.1080
   41CHL1  H24A 3023   1.614   2.002   3.952  1.0822 -2.7847 -0.1334
   41CHL1  H24B 3024   1.783   1.969   3.994  0.6979  0.1420 -1.3082
   41CHL1   C25 3025   1.668   2.067   4.165  0.6387  0.1447 -0.1658
   41CHL1   H25 3026   1.645   1.965   4.203  0.8286  1.0169  2.4884
   41CHL1   C26 3027   1.791   2.128   4.230  0.5984  0.1077 -0.8506
   41CHL1  H26A 3028   1.873   2.054   4.214  2.2198  1.0779  2.1945
   41CHL1  H26B 3029   1.826   2.227   4.194  1.8063  0.1957  0.4687
   41CHL1  H26C 3030   1.784   2.135   4.341 -0.6317 -0.6469 -0.8584
   41CHL1   C27 3031   1.541   2.150   4.181 -0.4029  0.3100 -0.2996
   41CHL1  H27A 3032   1.447   2.106   4.142 -0.1129 -0.9505  0.3609
   41CHL1  H27B 3033   1.505   2.164   4.286 -0.2463  0.2952 -0.2446
   41CHL1  H27C 3034   1.569   2.248   4.139  0.5876  0.0204 -0.3263
   42CHL1    C3 3035   3.218   5.693   2.875 -0.3895 -0.1854  1.2327
   42CHL1    H3 3036   3.124   5.634   2.866  0.3579 -1.2901  0.4956
   42CHL1    O3 3037   3.269   5.731   2.744 -0.1428 -0.0844  0.1963
   42CHL1   H3' 3038   3.341   5.794   2.754  0.5600 -0.5199 -1.6237
   42CHL1    C4 3039   3.188   5.822   2.958  0.1276  0.0255  0.2334
   42CHL1   H4A 3040   3.286   5.875   2.964  0.4251 -0.6751  2.1862
   42CHL1   H4B 3041   3.117   5.881   2.895 -0.7780 -0.1941  1.0305
   42CHL1    C5 3042   3.142   5.788   3.098  0.2895  0.1527  0.0200
   42CHL1    C6 3043   3.020   5.829   3.144 -0.6187  0.6046 -0.3149
   42CHL1    H6 3044   2.958   5.880   3.069  1.2256 -0.6504 -2.8262
   42CHL1    C7 3045   2.977   5.813   3.286 -0.0000 -0.0604  0.5345
   42CHL1   H7A 3046   2.943   5.913   3.322  0.4937 -1.5301  6.0471
   42CHL1   H7B 3047   2.893   5.741   3.293 -0.0057 -0.3570 -1.7527
   42CHL1    C8 3048   3.084   5.754   3.385  0.2475 -0.5605 -0.1303
   42CHL1    H8 3049   3.145   5.844   3.412 -2.4409  1.5294 -0.5388
   42CHL1   C14 3050   3.025   5.684   3.511 -0.2247  0.1418  0.0294
   42CHL1   H14 3051   2.969   5.594   3.477  4.2840 -3.4902  1.1858
   42CHL1   C15 3052   2.924   5.766   3.600 -0.2213  0.1545  0.1850
   42CHL1  H15A 3053   2.970   5.864   3.622  0.2716  0.0359 -0.2771
   42CHL1  H15B 3054   2.830   5.777   3.542 -0.1048 -0.8337 -0.2286
   42CHL1   C16 3055   2.912   5.677   3.727 -0.5169 -0.5275  0.6659
   42CHL1  H16A 3056   2.892   5.728   3.823 -0.3069 -0.7037  0.8052
   42CHL1  H16B 3057   2.825   5.612   3.701 -1.1544  0.5062  0.1568
   42CHL1   C17 3058   3.033   5.582   3.732 -0.4116  0.0983  0.1588
   42CHL1   H17 3059   3.002   5.481   3.699  0.7778 -0.2091 -0.0468
   42CHL1   C13 3060   3.126   5.630   3.616  0.9337  0.4406  0.0225
   42CHL1   C18 3061   3.213   5.750   3.668  0.8212 -0.1799 -0.7030
   42CHL1  H18A 3062   3.158   5.819   3.735  1.1791 -1.8971  1.4839
   42CHL1  H18B 3063   3.293   5.715   3.737 -2.4328 -0.4758  3.3003
   42CHL1  H18C 3064   3.256   5.806   3.583  0.7333  0.9827  0.0006
   42CHL1   C12 3065   3.209   5.525   3.540  0.2143 -0.6111 -0.7274
   42CHL1  H12A 3066   3.297   5.489   3.599 -0.1632 -3.2441 -1.6242
   42CHL1  H12B 3067   3.140   5.443   3.508  0.1733 -0.6618 -0.5106
   42CHL1   C11 3068   3.269   5.581   3.413 -0.0487 -0.0901  0.2768
   42CHL1  H11A 3069   3.331   5.668   3.443  0.2632 -0.2060 -0.0173
   42CHL1  H11B 3070   3.339   5.511   3.362  1.0989  1.2584 -0.0712
   42CHL1    C9 3071   3.177   5.657   3.319  0.7805 -0.3317  0.7609
   42CHL1    H9 3072   3.102   5.584   3.281 -0.9713  1.9077 -0.3756
   42CHL1   C10 3073   3.240   5.706   3.183 -1.0506 -0.2533  0.1095
   42CHL1   C19 3074   3.375   5.781   3.221 -0.5557 -0.9491  0.0143
   42CHL1  H19A 3075   3.427   5.807   3.126 -2.1482  0.7766 -0.4524
   42CHL1  H19B 3076   3.351   5.882   3.259  2.2912  0.0829 -0.6989
   42CHL1  H19C 3077   3.446   5.722   3.282  2.0223  2.0214  0.1000
   42CHL1    C1 3078   3.279   5.576   3.100  0.1286  0.4473  0.4910
   42CHL1   H1A 3079   3.370   5.538   3.150  1.3595  2.7211  0.1223
   42CHL1   H1B 3080   3.200   5.498   3.098 -1.0633  1.6415 -0.6125
   42CHL1    C2 3081   3.319   5.597   2.947  0.1489  1.1123 -0.1805
   42CHL1   H2A 3082   3.336   5.494   2.912 -2.5279  1.2640 -2.2555
   42CHL1   H2B 3083   3.417   5.648   2.941  1.2486 -0.9854 -0.9920
   42CHL1   C20 3084   3.092   5.568   3.873 -0.0163  0.4081  0.1860
   42CHL1   H20 3085   3.123   5.669   3.908 -0.0281  0.1427  0.9721
   42CHL1   C21 3086   3.219   5.473   3.873 -0.0609 -0.7129  0.2272
   42CHL1  H21A 3087   3.269   5.477   3.973  0.5073  2.6877 -0.0825
   42CHL1  H21B 3088   3.304   5.507   3.811 -0.1159  1.3879  1.2270
   42CHL1  H21C 3089   3.196   5.365   3.860  1.6996 -1.0979  0.0235
   42CHL1   C22 3090   2.982   5.516   3.971 -0.1587 -1.2413  0.5932
   42CHL1  H22A 3091   2.877   5.546   3.948  0.5067  0.2675 -0.7120
   42CHL1  H22B 3092   2.998   5.407   3.968 -0.7305 -1.4249  2.7105
   42CHL1   C23 3093   3.013   5.558   4.112 -0.2294 -0.5798 -0.1346
   42CHL1  H23A 3094   3.118   5.545   4.147 -0.6688 -0.1337  1.4189
   42CHL1  H23B 3095   3.003   5.668   4.104  2.7793 -0.1747  0.3443
   42CHL1   C24 3096   2.919   5.497   4.217  0.5377  0.2415  0.0769
   42CHL1  H24A 3097   2.940   5.544   4.316 -0.4761  0.7100  0.0750
   42CHL1  H24B 3098   2.820   5.521   4.174 -0.1175 -1.1470  0.7396
   42CHL1   C25 3099   2.939   5.346   4.241 -0.6725  0.3554 -0.5747
   42CHL1   H25 3100   2.951   5.288   4.146  0.4489 -0.1695 -0.1350
   42CHL1   C26 3101   3.072   5.327   4.323  0.2250  0.8416 -0.6666
   42CHL1  H26A 3102   3.111   5.223   4.315  0.6678  0.9218  0.2966
   42CHL1  H26B 3103   3.154   5.399   4.304  1.0782  0.1425  0.2261
   42CHL1  H26C 3104   3.042   5.337   4.429  1.1532 -1.4376 -0.1305
   42CHL1   C27 3105   2.824   5.270   4.316  0.2898 -0.3639  0.4543
   42CHL1  H27A 3106   2.852   5.162   4.313 -0.5980 -0.6140  1.0056
   42CHL1  H27B 3107   2.820   5.300   4.423 -1.3822 -0.0325  0.3168
   42CHL1  H27C 3108   2.730   5.285   4.260 -0.4261 -1.6372  1.2683
   43CHL1    C3 3109   1.086   1.234   3.121  0.1184 -0.8115 -0.9522
   43CHL1    H3 3110   0.995   1.296   3.131 -1.6503 -3.1508 -1.5348
   43CHL1    O3 3111   1.101   1.217   2.977 -0.2972 -0.1673  0.0292
   43CHL1   H3' 3112   1.185   1.260   2.958  0.9433 -2.1314  0.6415
   43CHL1    C4 3113   1.204   1.310   3.172 -0.4744  0.1725  0.3006
   43CHL1   H4A 3114   1.302   1.261   3.155 -0.8003 -0.2237 -0.4971
   43CHL1   H4B 3115   1.216   1.402   3.112 -1.8827 -0.9054 -1.7527
   43CHL1    C5 3116   1.176   1.339   3.319  0.0992 -0.5563  0.4885
   43CHL1    C6 3117   1.174   1.467   3.361 -0.1148 -0.4634  0.2853
   43CHL1    H6 3118   1.193   1.544   3.285  1.7926 -0.6522  0.5282
   43CHL1    C7 3119   1.150   1.505   3.504  0.2149 -0.5771  1.3102
   43CHL1   H7A 3120   1.227   1.584   3.522 -0.0694 -0.1260  0.6067
   43CHL1   H7B 3121   1.046   1.544   3.515  0.1046 -0.6342  0.5227
   43CHL1    C8 3122   1.171   1.394   3.612 -0.5534  1.0596  0.4848
   43CHL1    H8 3123   1.281   1.384   3.623 -0.5470 -0.8539 -0.8458
   43CHL1   C14 3124   1.103   1.421   3.740 -0.6081 -0.2592 -0.6265
   43CHL1   H14 3125   0.995   1.419   3.712 -1.0279  0.8782  0.7460
   43CHL1   C15 3126   1.134   1.559   3.812 -0.1709 -0.6916 -0.4307
   43CHL1  H15A 3127   1.238   1.594   3.794 -0.5252  0.6440  0.0045
   43CHL1  H15B 3128   1.072   1.635   3.760  1.0325  0.1142 -0.7385
   43CHL1   C16 3129   1.092   1.534   3.955  0.2946  0.1562 -0.2343
   43CHL1  H16A 3130   1.173   1.569   4.022  0.6052 -2.7066  1.0676
   43CHL1  H16B 3131   1.009   1.600   3.989  2.6301  3.7248 -0.9885
   43CHL1   C17 3132   1.064   1.383   3.971 -0.4723 -0.1750 -0.5513
   43CHL1   H17 3133   0.953   1.387   3.963 -0.7233 -0.6471  1.8028
   43CHL1   C13 3134   1.123   1.311   3.851  0.3159  0.8586 -0.8178
   43CHL1   C18 3135   1.275   1.283   3.884  0.0819 -0.8447  0.7407
   43CHL1  H18A 3136   1.333   1.279   3.789  1.4548 -1.7742  1.5773
   43CHL1  H18B 3137   1.324   1.359   3.948  1.1337  0.6034 -1.6517
   43CHL1  H18C 3138   1.291   1.181   3.925  1.1645 -1.2469 -0.5885
   43CHL1   C12 3139   1.041   1.187   3.790  0.1237  0.3029 -0.3606
   43CHL1  H12A 3140   1.044   1.100   3.858 -1.2949 -1.1652 -2.0650
   43CHL1  H12B 3141   0.939   1.227   3.772  0.4601  0.4627 -2.1182
   43CHL1   C11 3142   1.116   1.144   3.659 -0.5443  0.0951 -0.1875
   43CHL1  H11A 3143   1.213   1.094   3.683 -1.5874 -0.3996  3.6554
   43CHL1  H11B 3144   1.049   1.063   3.624 -2.4464  1.5053  0.0234
   43CHL1    C9 3145   1.109   1.260   3.554  0.4039 -0.5318  0.1685
   43CHL1    H9 3146   1.002   1.285   3.544  0.5173 -0.4739 -1.0648
   43CHL1   C10 3147   1.149   1.223   3.411  0.2529  0.4580  0.3179
   43CHL1   C19 3148   1.277   1.127   3.417  0.6729 -0.7006 -0.0295
   43CHL1  H19A 3149   1.266   1.040   3.485  1.2175 -0.3137  0.5706
   43CHL1  H19B 3150   1.312   1.093   3.318  0.3819 -0.2746 -0.2813
   43CHL1  H19C 3151   1.357   1.197   3.451  2.4339 -1.4817 -2.3209
   43CHL1    C1 3152   1.040   1.133   3.342 -0.2738 -0.1544 -0.3590
   43CHL1   H1A 3153   1.035   1.037   3.398 -1.2690 -1.3048 -2.3112
   43CHL1   H1B 3154   0.950   1.198   3.339  0.9482  1.9085  2.6856
   43CHL1    C2 3155   1.063   1.103   3.192 -0.2178 -0.0250  0.1470
   43CHL1   H2A 3156   0.971   1.056   3.152  0.3156 -1.2955  0.3495
   43CHL1   H2B 3157   1.146   1.030   3.176 -1.3478 -1.5055  0.7522
   43CHL1   C20 3158   1.096   1.326   4.111 -0.0373 -0.1948 -0.1307
   43CHL1   H20 3159   1.206   1.325   4.124  0.1799  1.9199 -1.1945
   43CHL1   C21 3160   1.049   1.177   4.121 -0.6703 -0.2689  0.4374
   43CHL1  H21A 3161   0.942   1.171   4.091 -0.3974  0.0250 -0.6507
   43CHL1  H21B 3162   1.055   1.134   4.223  0.6007 -0.4049  0.3216
   43CHL1  H21C 3163   1.117   1.110   4.065 -0.0718  0.5346  0.1764
   43CHL1   C22 3164   1.029   1.412   4.224 -0.9953  0.3521  0.6886
   43CHL1  H22A 3165   1.060   1.518   4.232 -1.4149  0.6331 -0.9606
   43CHL1  H22B 3166   0.919   1.420   4.207 -0.8220 -0.9246 -1.4415
   43CHL1   C23 3167   1.044   1.346   4.362  0.5056  0.3234 -0.6306
   43CHL1  H23A 3168   1.005   1.243   4.376  1.0506  0.3708  1.7911
   43CHL1  H23B 3169   1.150   1.349   4.398  0.4605  1.7623 -0.5524
   43CHL1   C24 3170   0.978   1.439   4.472 -0.0302  0.2390 -0.0805
   43CHL1  H24A 3171   0.984   1.537   4.419  0.7884 -0.1698 -0.7739
   43CHL1  H24B 3172   0.871   1.409   4.473  0.2553 -1.1971 -2.8671
   43CHL1   C25 3173   1.049   1.440   4.609  0.7405  0.2589  0.4635
   43CHL1   H25 3174   1.155   1.473   4.604  1.0507 -0.7843 -0.1647
   43CHL1   C26 3175   0.997   1.559   4.685 -0.0463  0.1076 -0.2867
   43CHL1  H26A 3176   1.042   1.567   4.787 -0.2875 -0.0471 -0.1689
   43CHL1  H26B 3177   1.002   1.657   4.634  2.0295 -0.7928 -1.9465
   43CHL1  H26C 3178   0.891   1.537   4.709  0.4588 -0.6445  1.4597
   43CHL1   C27 3179   1.050   1.308   4.685 -0.0274 -0.2304  0.5077
   43CHL1  H27A 3180   1.095   1.223   4.630 -0.2734  0.3072 -0.5440
   43CHL1  H27B 3181   1.094   1.315   4.787 -1.9612 -0.4433  1.3918
   43CHL1  H27C 3182   0.942   1.288   4.703  0.2843 -2.4556  0.1314
   44CHL1    C3 3183   6.061   1.012   3.196  0.3381 -0.4557 -0.2547
   44CHL1    H3 3184   6.134   0.929   3.202  1.5764  0.3633 -2.5221
   44CHL1    O3 3185   6.029   1.037   3.062  0.5779 -0.4502  0.3862
   44CHL1   H3' 3186   5.975   1.116   3.049  0.2611 -0.8704 -1.0863
   44CHL1    C4 3187   5.934   0.982   3.287 -0.3079  0.2662  0.0096
   44CHL1   H4A 3188   5.870   1.072   3.275  0.8059  1.0895  0.0791
   44CHL1   H4B 3189   5.873   0.894   3.260  0.3370 -0.0388 -0.4737
   44CHL1    C5 3190   5.970   0.979   3.429  0.3871  0.0652  0.2411
   44CHL1    C6 3191   5.960   0.866   3.500 -0.5419  0.0866 -0.3513
   44CHL1    H6 3192   5.917   0.774   3.458  0.2538 -0.3558 -0.2190
   44CHL1    C7 3193   5.984   0.865   3.653 -0.1922 -0.2084  0.5909
   44CHL1   H7A 3194   5.917   0.790   3.701 -1.4617  1.1603  1.0492
   44CHL1   H7B 3195   6.085   0.821   3.661  0.4936  0.7940 -1.7783
   44CHL1    C8 3196   5.984   1.003   3.720  0.8138 -0.4279 -0.1568
   44CHL1    H8 3197   5.880   1.042   3.713  0.4380 -1.5155 -1.1426
   44CHL1   C14 3198   6.013   0.994   3.871 -0.1781  0.4786  0.3374
   44CHL1   H14 3199   6.107   0.935   3.882 -1.7468 -1.9596  1.4850
   44CHL1   C15 3200   5.911   0.921   3.954 -0.3556  0.1609 -0.4361
   44CHL1  H15A 3201   5.811   0.951   3.916  0.1852 -0.7470 -2.7267
   44CHL1  H15B 3202   5.931   0.816   3.926  0.1905  0.3401 -0.7474
   44CHL1   C16 3203   5.939   0.966   4.095  0.2486 -0.7686  0.1282
   44CHL1  H16A 3204   5.845   1.002   4.141 -0.6806 -1.3815 -1.2342
   44CHL1  H16B 3205   5.987   0.883   4.152  1.0250 -0.4557 -0.0544
   44CHL1   C17 3206   6.048   1.080   4.085 -0.2465  0.4819 -0.7585
   44CHL1   H17 3207   6.151   1.039   4.088 -0.2510  0.5468  0.3766
   44CHL1   C13 3208   6.035   1.129   3.936  0.2181 -0.8547  0.4075
   44CHL1   C18 3209   5.905   1.213   3.925 -0.1528  0.1167  0.7864
   44CHL1  H18A 3210   5.918   1.308   3.982 -3.2740  0.2846  1.4220
   44CHL1  H18B 3211   5.870   1.239   3.822 -1.8724 -0.1629  1.2592
   44CHL1  H18C 3212   5.819   1.162   3.973 -1.0552  0.1665 -0.6983
   44CHL1   C12 3213   6.156   1.195   3.861  0.0261 -0.3921  0.1060
   44CHL1  H12A 3214   6.189   1.284   3.919 -2.2929  1.2600 -0.9295
   44CHL1  H12B 3215   6.234   1.117   3.869  1.0832  0.5458 -0.6911
   44CHL1   C11 3216   6.122   1.226   3.717  0.3436  0.2065 -0.3835
   44CHL1  H11A 3217   6.047   1.306   3.702  1.1359  0.7051 -1.9008
   44CHL1  H11B 3218   6.215   1.266   3.671 -0.2723  3.0918  0.6750
   44CHL1    C9 3219   6.080   1.093   3.639 -0.5989 -0.2270 -0.0996
   44CHL1    H9 3220   6.174   1.033   3.632  0.2290  0.8414  1.2660
   44CHL1   C10 3221   6.030   1.107   3.489  0.1582  0.1333  1.5048
   44CHL1   C19 3222   5.936   1.225   3.492 -0.0949 -0.4309 -0.8938
   44CHL1  H19A 3223   5.983   1.325   3.500  2.6889 -1.5620 -1.8071
   44CHL1  H19B 3224   5.865   1.230   3.406 -0.2501 -1.1866 -0.8208
   44CHL1  H19C 3225   5.869   1.213   3.580  2.1707 -0.3163  0.9331
   44CHL1    C1 3226   6.156   1.142   3.400 -0.3514  0.0495 -0.3434
   44CHL1   H1A 3227   6.183   1.244   3.434 -0.3829 -0.1768  0.3962
   44CHL1   H1B 3228   6.238   1.067   3.404  0.3041  0.7156 -1.0269
   44CHL1    C2 3229   6.127   1.140   3.247  0.3621 -0.3788 -0.3870
   44CHL1   H2A 3230   6.216   1.157   3.183 -0.4085  0.9087 -1.1482
   44CHL1   H2B 3231   6.065   1.231   3.229  0.7458  0.2945  1.5332
   44CHL1   C20 3232   6.043   1.178   4.197  0.0333  0.3611 -0.0296
   44CHL1   H20 3233   5.945   1.230   4.185 -0.4879 -0.8329 -1.2177
   44CHL1   C21 3234   6.151   1.282   4.186 -0.3947 -0.3856 -0.1902
   44CHL1  H21A 3235   6.175   1.340   4.278 -0.7273  1.7283 -1.3707
   44CHL1  H21B 3236   6.121   1.367   4.121  1.1337  0.3002 -0.0520
   44CHL1  H21C 3237   6.252   1.257   4.147 -0.4256  1.9631 -2.0374
   44CHL1   C22 3238   6.042   1.111   4.341 -0.1059  0.9286 -0.7317
   44CHL1  H22A 3239   6.042   1.194   4.415 -2.2711  0.2437  0.1404
   44CHL1  H22B 3240   5.947   1.054   4.350  2.4348 -4.0963 -2.1599
   44CHL1   C23 3241   6.165   1.031   4.365 -1.3565  0.3077 -0.6178
   44CHL1  H23A 3242   6.153   0.932   4.316 -1.4732 -0.2790  0.5362
   44CHL1  H23B 3243   6.255   1.076   4.319 -1.5147 -0.3757 -1.6210
   44CHL1   C24 3244   6.182   1.014   4.521 -0.6901 -0.5932 -0.3158
   44CHL1  H24A 3245   6.180   1.109   4.578 -1.5836 -1.2512  0.7813
   44CHL1  H24B 3246   6.097   0.965   4.573 -0.3635  0.9867  1.8591
   44CHL1   C25 3247   6.312   0.943   4.568  1.1353 -0.3760  0.2819
   44CHL1   H25 3248   6.315   0.855   4.501  0.0209  1.7524 -2.7981
   44CHL1   C26 3249   6.440   1.023   4.534 -0.1389  0.1385  0.0365
   44CHL1  H26A 3250   6.532   0.979   4.579 -0.7512  0.4792  1.6834
   44CHL1  H26B 3251   6.451   1.060   4.430  2.4378  3.6143  1.3707
   44CHL1  H26C 3252   6.435   1.109   4.604 -2.1999 -1.1633  1.6316
   44CHL1   C27 3253   6.304   0.900   4.713 -0.4737 -0.0378 -0.0081
   44CHL1  H27A 3254   6.203   0.859   4.731 -0.7137  1.4105  2.4425
   44CHL1  H27B 3255   6.373   0.821   4.750 -0.2833 -0.2994 -0.8969
   44CHL1  H27C 3256   6.311   0.985   4.785  0.2644 -0.9608  1.0461
   45CHL1    C3 3257   6.886   3.536   3.166 -0.6964 -0.3191  0.7013
   45CHL1    H3 3258   6.974   3.603   3.170 -0.8751  0.1064 -1.3582
   45CHL1    O3 3259   6.862   3.507   3.029 -0.3269  0.1358 -0.2324
   45CHL1   H3' 3260   6.915   3.572   2.983 -0.9140  0.2739 -0.7262
   45CHL1    C4 3261   6.899   3.405   3.237  0.1505 -0.3424 -0.0577
   45CHL1   H4A 3262   6.801   3.353   3.222 -2.3094  3.1964  2.1661
   45CHL1   H4B 3263   6.977   3.335   3.201  1.0978  0.5410  0.2452
   45CHL1    C5 3264   6.918   3.433   3.384 -0.1969 -0.9344  0.6600
   45CHL1    C6 3265   7.028   3.390   3.446  0.4739 -0.4879  0.1151
   45CHL1    H6 3266   7.103   3.335   3.388 -0.3432 -0.4778 -0.9652
   45CHL1    C7 3267   7.044   3.394   3.595  0.2337 -0.0101  0.1986
   45CHL1   H7A 3268   7.067   3.290   3.624 -1.9980 -1.1691 -1.7731
   45CHL1   H7B 3269   7.128   3.463   3.620  0.3729  0.1207 -0.6038
   45CHL1    C8 3270   6.910   3.424   3.667  0.3499  0.3749  0.2996
   45CHL1    H8 3271   6.845   3.333   3.671 -1.2004  1.4816  1.2818
   45CHL1   C14 3272   6.947   3.458   3.809  0.7508  0.1375  0.2759
   45CHL1   H14 3273   6.998   3.554   3.790 -1.2121  1.1898  0.0796
   45CHL1   C15 3274   7.030   3.355   3.886 -0.6349  0.3578  0.2776
   45CHL1  H15A 3275   6.990   3.255   3.859  0.2120  0.0878 -0.0162
   45CHL1  H15B 3276   7.138   3.353   3.859 -0.9498 -1.2056 -1.0183
   45CHL1   C16 3277   7.007   3.393   4.036 -0.1995  0.0452 -0.2918
   45CHL1  H16A 3278   6.953   3.314   4.093 -1.3805  0.8410 -0.2789
   45CHL1  H16B 3279   7.104   3.419   4.082 -1.8125  0.7205  3.0417
   45CHL1   C17 3280   6.902   3.514   4.036  0.1402 -0.1753 -0.0239
   45CHL1   H17 3281   6.967   3.603   4.021  0.0198  0.0314  0.6427
   45CHL1   C13 3282   6.824   3.495   3.900 -0.5657 -0.1114 -0.2711
   45CHL1   C18 3283   6.731   3.371   3.915 -0.0712  0.3377 -0.3751
   45CHL1  H18A 3284   6.686   3.341   3.818  0.7515  0.5139 -0.8202
   45CHL1  H18B 3285   6.783   3.291   3.972 -0.6499  1.5668  2.0141
   45CHL1  H18C 3286   6.642   3.406   3.972  0.2222  2.0826 -0.9266
   45CHL1   C12 3287   6.752   3.610   3.834 -0.0191  0.0062 -0.4415
   45CHL1  H12A 3288   6.661   3.636   3.891  0.3483  1.3567 -0.4234
   45CHL1  H12B 3289   6.817   3.701   3.831  0.0638 -0.0652 -2.0375
   45CHL1   C11 3290   6.711   3.579   3.689  0.0382 -0.3171 -0.1107
   45CHL1  H11A 3291   6.626   3.509   3.686  0.7446 -1.1647 -0.7482
   45CHL1  H11B 3292   6.678   3.676   3.646 -0.7466 -0.7382 -0.4719
   45CHL1    C9 3293   6.835   3.538   3.605  1.0071 -1.7793 -0.1895
   45CHL1    H9 3294   6.900   3.628   3.604 -0.6741 -0.4840  1.3813
   45CHL1   C10 3295   6.802   3.498   3.456  0.1637  0.9285 -0.1421
   45CHL1   C19 3296   6.684   3.398   3.448 -0.1888 -0.2066 -0.4779
   45CHL1  H19A 3297   6.602   3.438   3.511  0.1552 -0.4094  0.1090
   45CHL1  H19B 3298   6.648   3.386   3.343  2.4522 -1.3489 -1.3279
   45CHL1  H19C 3299   6.718   3.296   3.475  0.6479  0.2744  0.3533
   45CHL1    C1 3300   6.767   3.622   3.370  0.2634 -0.0263  0.1139
   45CHL1   H1A 3301   6.668   3.656   3.406  0.8352  0.7971  0.9562
   45CHL1   H1B 3302   6.847   3.694   3.399  1.7875 -1.7968  0.4820
   45CHL1    C2 3303   6.762   3.604   3.221 -0.2494  0.3976  0.6952
   45CHL1   H2A 3304   6.757   3.707   3.178 -0.5215  0.3126  0.5187
   45CHL1   H2B 3305   6.673   3.548   3.185  0.8993 -1.2917  0.4024
   45CHL1   C20 3306   6.822   3.530   4.171  0.2611  0.3287  0.2041
   45CHL1   H20 3307   6.741   3.454   4.178  0.2637  0.4587  2.5780
   45CHL1   C21 3308   6.771   3.668   4.178 -0.1806  0.2539 -0.2371
   45CHL1  H21A 3309   6.700   3.694   4.097 -0.1432 -0.0609 -0.3708
   45CHL1  H21B 3310   6.853   3.742   4.181 -1.0235  1.1925  1.1011
   45CHL1  H21C 3311   6.720   3.690   4.275  3.8923 -0.8468  2.4001
   45CHL1   C22 3312   6.919   3.501   4.290  0.6911  0.0205  0.4021
   45CHL1  H22A 3313   6.947   3.394   4.282 -0.0159 -0.2201  1.0111
   45CHL1  H22B 3314   7.016   3.554   4.275 -0.0036  2.0667  2.5211
   45CHL1   C23 3315   6.856   3.516   4.429  0.2608  0.2823  0.3408
   45CHL1  H23A 3316   6.837   3.625   4.445  3.8596  0.7599  2.6015
   45CHL1  H23B 3317   6.756   3.469   4.419  0.6099 -0.7703  1.4858
   45CHL1   C24 3318   6.921   3.446   4.540 -1.2796  0.2098 -0.7694
   45CHL1  H24A 3319   6.868   3.461   4.637 -2.5958  1.5533 -1.6446
   45CHL1  H24B 3320   6.942   3.339   4.521  1.3454  0.5113  0.0782
   45CHL1   C25 3321   7.058   3.508   4.574 -0.5482 -0.0095 -0.5251
   45CHL1   H25 3322   7.127   3.503   4.487  0.8535  2.2020  0.3651
   45CHL1   C26 3323   7.059   3.661   4.606 -0.7608  0.2625 -0.1057
   45CHL1  H26A 3324   6.961   3.701   4.640 -0.2544  1.1322  0.3717
   45CHL1  H26B 3325   7.116   3.691   4.697 -1.4352  1.5747 -0.0912
   45CHL1  H26C 3326   7.096   3.727   4.525  3.2601 -0.7553  0.7239
   45CHL1   C27 3327   7.119   3.431   4.690 -0.7900  0.0933  0.4564
   45CHL1  H27A 3328   7.220   3.477   4.705 -2.0854  3.3075  0.0877
   45CHL1  H27B 3329   7.053   3.442   4.779 -0.3747  0.5913  0.7107
   45CHL1  H27C 3330   7.118   3.323   4.665 -0.8332  0.9755 -4.0495
   46CHL1    C3 3331   3.241   1.360   2.760 -0.3896  0.2588  1.1927
   46CHL1    H3 3332   3.296   1.265   2.777  1.1645  1.4182  3.1356
   46CHL1    O3 3333   3.187   1.364   2.631 -0.2240 -0.2837 -0.1994
   46CHL1   H3' 3334   3.261   1.341   2.574  1.0710 -2.8170  2.2754
   46CHL1    C4 3335   3.124   1.379   2.865  0.1068 -0.2466  0.0689
   46CHL1   H4A 3336   3.078   1.475   2.833  0.8728  0.0788 -0.0676
   46CHL1   H4B 3337   3.050   1.298   2.845  0.0133  0.1068 -1.1332
   46CHL1    C5 3338   3.184   1.367   3.007  0.2811  0.0323  0.5423
   46CHL1    C6 3339   3.147   1.264   3.086 -0.1712 -0.5298  0.2596
   46CHL1    H6 3340   3.071   1.201   3.037 -2.1219  1.9591 -0.0751
   46CHL1    C7 3341   3.187   1.244   3.230 -0.3967 -0.2739  0.2566
   46CHL1   H7A 3342   3.104   1.219   3.299  0.8659  0.9702  2.3009
   46CHL1   H7B 3343   3.265   1.166   3.240  0.2909  0.0728 -1.7964
   46CHL1    C8 3344   3.263   1.378   3.281  0.1155  0.1088 -0.1244
   46CHL1    H8 3345   3.191   1.457   3.311  2.3797  1.9500  0.7645
   46CHL1   C14 3346   3.333   1.345   3.408 -0.0525 -0.1451  0.0855
   46CHL1   H14 3347   3.415   1.275   3.384  1.1604  1.2270  0.0994
   46CHL1   C15 3348   3.251   1.278   3.521 -0.2673 -0.0938  0.2018
   46CHL1  H15A 3349   3.153   1.329   3.518  0.0485  0.4756 -1.6142
   46CHL1  H15B 3350   3.248   1.169   3.502 -2.3792  0.2380 -1.7648
   46CHL1   C16 3351   3.327   1.318   3.646 -0.2019  0.5175  0.5262
   46CHL1  H16A 3352   3.254   1.365   3.715  0.1484 -1.1116  2.1185
   46CHL1  H16B 3353   3.363   1.239   3.716 -2.6649 -0.4620  0.7878
   46CHL1   C17 3354   3.455   1.405   3.601  0.8928 -0.1476 -0.7995
   46CHL1   H17 3355   3.539   1.333   3.586 -1.0113 -2.3978 -1.2649
   46CHL1   C13 3356   3.405   1.473   3.466  0.3006  0.6874 -0.3972
   46CHL1   C18 3357   3.306   1.590   3.489 -0.6917 -0.1348 -0.6106
   46CHL1  H18A 3358   3.266   1.641   3.399 -0.1633 -0.4383 -1.0201
   46CHL1  H18B 3359   3.225   1.562   3.559  1.0071 -0.9873  1.1127
   46CHL1  H18C 3360   3.365   1.665   3.547 -0.8007 -1.5942  1.4734
   46CHL1   C12 3361   3.513   1.510   3.362 -0.1966 -0.1103  0.1624
   46CHL1  H12A 3362   3.571   1.603   3.381  2.8846 -1.4294 -1.9278
   46CHL1  H12B 3363   3.593   1.433   3.351  0.8718  0.7167  1.8505
   46CHL1   C11 3364   3.451   1.545   3.224  0.6592  0.9563  0.2018
   46CHL1  H11A 3365   3.401   1.644   3.235  0.5250  1.1251 -1.6578
   46CHL1  H11B 3366   3.529   1.578   3.152 -2.2339  3.4198 -2.0725
   46CHL1    C9 3367   3.358   1.431   3.174 -0.4584  0.0130  0.1453
   46CHL1    H9 3368   3.424   1.345   3.145  2.2542  2.6200 -2.1079
   46CHL1   C10 3369   3.295   1.467   3.037 -0.0284 -0.5766  0.7831
   46CHL1   C19 3370   3.242   1.612   3.048  0.0434  0.3099  0.1495
   46CHL1  H19A 3371   3.327   1.677   3.017  0.8724 -0.4777  0.7140
   46CHL1  H19B 3372   3.166   1.642   2.973  0.9164  0.5968 -0.6403
   46CHL1  H19C 3373   3.196   1.636   3.147 -0.7789  1.9990 -0.6005
   46CHL1    C1 3374   3.404   1.460   2.916  0.0224 -0.0759  0.0628
   46CHL1   H1A 3375   3.472   1.546   2.936 -0.5017  0.0703  1.3509
   46CHL1   H1B 3376   3.464   1.367   2.927 -1.3145 -0.9517  0.1688
   46CHL1    C2 3377   3.339   1.473   2.775 -0.2992 -0.3742 -0.8287
   46CHL1   H2A 3378   3.418   1.469   2.697  0.0538 -0.4922 -0.4663
   46CHL1   H2B 3379   3.292   1.573   2.784  0.9956  0.0480  4.3054
   46CHL1   C20 3380   3.496   1.490   3.723  0.2921  1.1914  0.2890
   46CHL1   H20 3381   3.435   1.582   3.740 -2.1925 -0.4870  0.9589
   46CHL1   C21 3382   3.634   1.541   3.674 -0.1433  0.1578  0.2040
   46CHL1  H21A 3383   3.626   1.613   3.590  2.0102  1.3970  0.9847
   46CHL1  H21B 3384   3.705   1.458   3.656 -1.7093 -1.2613  0.2888
   46CHL1  H21C 3385   3.675   1.613   3.748 -0.1550  0.2780  0.0931
   46CHL1   C22 3386   3.514   1.396   3.852  0.0201 -0.1186  0.0435
   46CHL1  H22A 3387   3.417   1.363   3.895  0.0502 -0.6963 -0.3285
   46CHL1  H22B 3388   3.567   1.302   3.824  0.0717 -0.1406  0.2138
   46CHL1   C23 3389   3.589   1.454   3.978  0.4135 -0.1984  0.4562
   46CHL1  H23A 3390   3.690   1.483   3.943 -0.1034  0.4172 -0.5848
   46CHL1  H23B 3391   3.527   1.541   4.010 -2.2065 -2.2665  1.3448
   46CHL1   C24 3392   3.597   1.352   4.090  0.0374  0.0106  0.0196
   46CHL1  H24A 3393   3.497   1.311   4.116  0.2531 -0.2277  0.4728
   46CHL1  H24B 3394   3.653   1.266   4.047 -0.1857 -0.6040  0.9294
   46CHL1   C25 3395   3.671   1.392   4.223  0.0499 -0.4929  0.4350
   46CHL1   H25 3396   3.762   1.442   4.183 -2.2993  1.8090 -2.4731
   46CHL1   C26 3397   3.594   1.499   4.296  0.1963 -0.2439 -0.4127
   46CHL1  H26A 3398   3.561   1.579   4.226  0.9798  0.6206  0.1742
   46CHL1  H26B 3399   3.501   1.447   4.328 -0.8809 -0.0106 -2.9216
   46CHL1  H26C 3400   3.651   1.532   4.385 -2.1764  1.2730  0.6540
   46CHL1   C27 3401   3.696   1.271   4.308  0.1431  0.1200 -0.1842
   46CHL1  H27A 3402   3.734   1.182   4.254 -0.4502 -1.0328  1.2297
   46CHL1  H27B 3403   3.765   1.299   4.390 -0.9022  2.0026  0.1051
   46CHL1  H27C 3404   3.610   1.242   4.373  0.9507  2.3637  2.0737
   47CHL1    C3 3405   1.407   3.266   3.123 -0.1535 -0.4968  0.3797
   47CHL1    H3 3406   1.402   3.377   3.133  2.7700 -0.1731 -0.5849
   47CHL1    O3 3407   1.394   3.231   2.981  0.1469  0.1263 -1.1607
   47CHL1   H3' 3408   1.424   3.140   2.972  3.0681  0.9011 -0.2485
   47CHL1    C4 3409   1.540   3.221   3.165 -0.5360  0.3178  0.0409
   47CHL1   H4A 3410   1.554   3.114   3.138 -5.3532 -0.9111  1.4801
   47CHL1   H4B 3411   1.616   3.269   3.099 -0.5991  0.2916 -0.0512
   47CHL1    C5 3412   1.565   3.257   3.308  0.1105  0.1859 -0.2712
   47CHL1    C6 3413   1.670   3.337   3.340  0.0503 -0.5597 -0.8796
   47CHL1    H6 3414   1.731   3.378   3.258  1.5736 -0.9932  0.0008
   47CHL1    C7 3415   1.703   3.367   3.489 -0.0233  0.3551 -0.6687
   47CHL1   H7A 3416   1.813   3.354   3.496  0.0201 -0.2119 -2.1406
   47CHL1   H7B 3417   1.668   3.470   3.512 -0.9986 -0.0251 -0.3851
   47CHL1    C8 3418   1.623   3.276   3.590 -0.0943  0.4158  0.2660
   47CHL1    H8 3419   1.674   3.177   3.588  0.1692  0.5588 -0.0789
   47CHL1   C14 3420   1.633   3.339   3.736  0.4336 -0.0519 -0.1793
   47CHL1   H14 3421   1.569   3.429   3.730  0.3896  0.0583  1.4893
   47CHL1   C15 3422   1.771   3.372   3.794  0.4875  0.1324 -0.1959
   47CHL1  H15A 3423   1.846   3.290   3.790 -0.9490 -1.2127 -0.1619
   47CHL1  H15B 3424   1.814   3.461   3.743  0.4334  0.6692  0.6619
   47CHL1   C16 3425   1.737   3.405   3.939 -0.5357  0.8227  0.3243
   47CHL1  H16A 3426   1.810   3.367   4.014 -0.7778  0.9159  0.6112
   47CHL1  H16B 3427   1.735   3.516   3.949 -0.6825  0.9317 -0.8171
   47CHL1   C17 3428   1.595   3.342   3.966  0.2654  0.1926 -0.3072
   47CHL1   H17 3429   1.514   3.417   3.962 -1.2274 -1.3388  0.1300
   47CHL1   C13 3430   1.560   3.251   3.844  0.0291  0.2117  0.0593
   47CHL1   C18 3431   1.642   3.115   3.855  0.4337 -0.6015  0.3856
   47CHL1  H18A 3432   1.628   3.062   3.758 -1.9551  0.8625 -0.1505
   47CHL1  H18B 3433   1.751   3.128   3.871  0.4981 -1.4521  0.7097
   47CHL1  H18C 3434   1.598   3.051   3.935  1.6110 -0.0877  1.4854
   47CHL1   C12 3435   1.412   3.228   3.805 -0.6730  0.4944 -0.0287
   47CHL1  H12A 3436   1.369   3.151   3.873  0.2438 -2.7143 -2.7886
   47CHL1  H12B 3437   1.353   3.322   3.804  0.6106  1.3827  1.9984
   47CHL1   C11 3438   1.396   3.172   3.662 -0.2189  0.0792  0.3529
   47CHL1  H11A 3439   1.424   3.065   3.671 -1.0314 -0.3209 -1.4126
   47CHL1  H11B 3440   1.292   3.160   3.625  0.8279 -0.4557 -2.8166
   47CHL1    C9 3441   1.482   3.245   3.548 -0.2292 -0.2867 -0.2612
   47CHL1    H9 3442   1.432   3.343   3.533 -0.7314 -0.6394 -0.9678
   47CHL1   C10 3443   1.469   3.188   3.408  0.5081  0.0671  0.1765
   47CHL1   C19 3444   1.486   3.028   3.417  0.2818 -0.0407 -0.0084
   47CHL1  H19A 3445   1.473   2.982   3.316 -1.5764 -0.0959  0.2362
   47CHL1  H19B 3446   1.581   2.991   3.461  0.5023 -1.2902 -1.4484
   47CHL1  H19C 3447   1.396   2.987   3.468 -0.2222  0.7874 -0.2130
   47CHL1    C1 3448   1.322   3.216   3.354  0.0362 -0.4983  0.3510
   47CHL1   H1A 3449   1.252   3.144   3.401 -0.6979  1.2089  2.0021
   47CHL1   H1B 3450   1.282   3.317   3.380  1.9311  0.3040  0.3417
   47CHL1    C2 3451   1.297   3.201   3.202 -0.4892  0.8600 -0.0128
   47CHL1   H2A 3452   1.200   3.248   3.175 -1.7014 -1.4583  0.0766
   47CHL1   H2B 3453   1.306   3.095   3.172 -2.6570  0.3350  1.0067
   47CHL1   C20 3454   1.590   3.283   4.111  0.2228 -0.0927 -0.3278
   47CHL1   H20 3455   1.679   3.219   4.127  0.8109  0.3647 -1.6081
   47CHL1   C21 3456   1.455   3.208   4.130  0.2483 -0.3546 -0.0752
   47CHL1  H21A 3457   1.459   3.119   4.063  1.1803 -0.8767  0.6520
   47CHL1  H21B 3458   1.376   3.282   4.105  0.2779 -0.3449 -0.1382
   47CHL1  H21C 3459   1.439   3.173   4.235  1.2071  0.0020  0.1999
   47CHL1   C22 3460   1.606   3.397   4.215  0.0379 -0.7478 -0.7622
   47CHL1  H22A 3461   1.694   3.461   4.192  0.5666 -1.6505 -1.3398
   47CHL1  H22B 3462   1.514   3.459   4.212 -0.2163 -1.1537 -1.6019
   47CHL1   C23 3463   1.629   3.325   4.355  0.0192 -0.5861  0.4044
   47CHL1  H23A 3464   1.544   3.259   4.383 -1.6704  0.7411 -1.3702
   47CHL1  H23B 3465   1.719   3.260   4.355 -1.0107 -2.0851  1.6988
   47CHL1   C24 3466   1.663   3.424   4.462  0.8546 -0.3785 -0.5869
   47CHL1  H24A 3467   1.764   3.466   4.440  0.6238 -0.0479 -1.0289
   47CHL1  H24B 3468   1.593   3.510   4.453 -0.8005 -1.8512 -2.5827
   47CHL1   C25 3469   1.644   3.371   4.605 -0.0648 -0.4206 -0.7305
   47CHL1   H25 3470   1.543   3.326   4.609 -0.5008  0.5793  1.8757
   47CHL1   C26 3471   1.744   3.250   4.637  0.3071 -1.0653  1.2160
   47CHL1  H26A 3472   1.845   3.295   4.641  0.0605 -0.0977 -1.5194
   47CHL1  H26B 3473   1.704   3.218   4.736 -0.6544 -0.3111  1.0884
   47CHL1  H26C 3474   1.747   3.169   4.561  2.3030 -0.8488  1.0086
   47CHL1   C27 3475   1.653   3.477   4.718  0.2196  0.1276  0.0047
   47CHL1  H27A 3476   1.630   3.443   4.821  2.9293  1.3218  1.1143
   47CHL1  H27B 3477   1.760   3.505   4.727  0.3030 -0.5478  1.2432
   47CHL1  H27C 3478   1.599   3.573   4.705  0.5656  0.5206  1.3285
   48CHL1    C3 3479   3.541   6.456   2.842 -0.3083 -0.4341  0.3000
   48CHL1    H3 3480   3.627   6.387   2.858 -1.0678 -1.6625 -0.6470
   48CHL1    O3 3481   3.555   6.521   2.717  0.2010 -0.8183 -0.7532
   48CHL1   H3' 3482   3.498   6.598   2.724  1.4742  0.2426 -1.6873
   48CHL1    C4 3483   3.405   6.379   2.852  0.1972  0.8348 -0.5361
   48CHL1   H4A 3484   3.323   6.433   2.799 -3.2125 -3.4317 -0.2215
   48CHL1   H4B 3485   3.415   6.288   2.789 -0.2835  0.6764 -0.3876
   48CHL1    C5 3486   3.367   6.333   2.995  0.3377 -0.8409  0.0234
   48CHL1    C6 3487   3.325   6.210   3.025 -0.5779 -0.3156 -0.5565
   48CHL1    H6 3488   3.309   6.135   2.946 -1.5780  0.0748 -0.7356
   48CHL1    C7 3489   3.286   6.163   3.169  0.2633 -0.5311  0.3729
   48CHL1   H7A 3490   3.191   6.105   3.173 -1.5013  1.4622 -4.3972
   48CHL1   H7B 3491   3.371   6.103   3.206  1.8433  1.1275 -0.4145
   48CHL1    C8 3492   3.265   6.286   3.262  0.2978  0.2869 -0.3140
   48CHL1    H8 3493   3.166   6.328   3.236 -0.0920  0.0897  0.7701
   48CHL1   C14 3494   3.266   6.236   3.403  0.2600  0.1020 -0.3771
   48CHL1   H14 3495   3.369   6.212   3.436 -0.6801 -0.0193  2.7892
   48CHL1   C15 3496   3.186   6.106   3.433  0.3273 -0.4520  0.2145
   48CHL1  H15A 3497   3.095   6.103   3.369 -0.0841  1.2973  0.6817
   48CHL1  H15B 3498   3.255   6.019   3.420 -1.1964 -1.5752 -0.6817
   48CHL1   C16 3499   3.145   6.122   3.581 -0.7584  0.3646  0.1268
   48CHL1  H16A 3500   3.038   6.106   3.606 -0.6728  2.5572  2.1884
   48CHL1  H16B 3501   3.193   6.034   3.630 -1.3208  0.9942  1.8761
   48CHL1   C17 3502   3.198   6.260   3.627 -0.3536 -0.4284 -0.3590
   48CHL1   H17 3503   3.300   6.237   3.664 -0.3691  0.1192  0.0272
   48CHL1   C13 3504   3.219   6.343   3.501 -0.2995 -0.3345 -0.0613
   48CHL1   C18 3505   3.077   6.403   3.460 -0.3285 -0.0314  0.1291
   48CHL1  H18A 3506   3.097   6.462   3.368 -0.3689  0.0478  0.1708
   48CHL1  H18B 3507   3.003   6.326   3.431  0.7231 -0.8506 -0.4272
   48CHL1  H18C 3508   3.044   6.480   3.533 -1.4035  1.8832 -2.2391
   48CHL1   C12 3509   3.329   6.456   3.492  0.0504  0.0685  0.0055
   48CHL1  H12A 3510   3.303   6.551   3.543  1.3892  0.5951 -0.2587
   48CHL1  H12B 3511   3.416   6.404   3.537 -0.0003  1.2037  1.4791
   48CHL1   C11 3512   3.356   6.504   3.347  0.1386  0.0875 -0.1569
   48CHL1  H11A 3513   3.271   6.572   3.323  0.7017  0.3951 -1.3352
   48CHL1  H11B 3514   3.446   6.568   3.345  1.0762 -1.2127 -0.8549
   48CHL1    C9 3515   3.373   6.388   3.243 -0.0862 -0.1371 -0.5508
   48CHL1    H9 3516   3.470   6.340   3.269 -0.0678  0.4457  0.5234
   48CHL1   C10 3517   3.388   6.448   3.099  0.0538 -0.8387 -0.2591
   48CHL1   C19 3518   3.272   6.551   3.080  0.4273 -0.2446  0.8744
   48CHL1  H19A 3519   3.171   6.516   3.110 -0.4230 -0.3561 -1.7853
   48CHL1  H19B 3520   3.292   6.644   3.136 -0.3852 -1.4707  3.3232
   48CHL1  H19C 3521   3.259   6.569   2.971  3.2505 -1.4783  0.2347
   48CHL1    C1 3522   3.523   6.513   3.090  0.0722  0.5590  0.4720
   48CHL1   H1A 3523   3.524   6.598   3.161  1.8273  1.5129 -0.6256
   48CHL1   H1B 3524   3.603   6.439   3.112 -0.2784 -0.5824 -1.7721
   48CHL1    C2 3525   3.552   6.568   2.947 -0.2621 -0.1368 -0.0552
   48CHL1   H2A 3526   3.647   6.625   2.952  1.8915 -3.3900 -0.2051
   48CHL1   H2B 3527   3.472   6.642   2.926 -0.0990  0.1038  0.1788
   48CHL1   C20 3528   3.122   6.320   3.750 -0.1561 -0.9674 -0.1215
   48CHL1   H20 3529   3.022   6.355   3.717  0.7944  0.9789 -1.1738
   48CHL1   C21 3530   3.188   6.454   3.796  0.1241 -0.2413 -0.2132
   48CHL1  H21A 3531   3.167   6.478   3.903  1.1748 -1.9175  0.4203
   48CHL1  H21B 3532   3.161   6.535   3.726 -1.2605 -1.8912 -1.6821
   48CHL1  H21C 3533   3.298   6.436   3.802 -0.2018 -2.1030  1.3006
   48CHL1   C22 3534   3.101   6.226   3.876  0.5114  0.3757 -0.4490
   48CHL1  H22A 3535   3.045   6.291   3.947 -1.3613 -2.0652  0.4739
   48CHL1  H22B 3536   3.043   6.139   3.838  1.1760  0.7324 -2.3557
   48CHL1   C23 3537   3.221   6.172   3.941  0.5013 -0.2623 -0.2403
   48CHL1  H23A 3538   3.290   6.119   3.872 -1.1562  0.1461 -2.3161
   48CHL1  H23B 3539   3.277   6.260   3.978  0.9457 -0.5461 -0.2390
   48CHL1   C24 3540   3.191   6.068   4.059 -0.3471 -0.5673 -0.3794
   48CHL1  H24A 3541   3.134   5.984   4.014 -4.2061  2.0562 -0.8702
   48CHL1  H24B 3542   3.289   6.030   4.094 -1.1289 -0.2533  2.3734
   48CHL1   C25 3543   3.105   6.131   4.178  0.1084  0.0836 -0.0121
   48CHL1   H25 3544   3.002   6.145   4.139 -0.5023 -1.8368  0.7650
   48CHL1   C26 3545   3.103   6.017   4.281 -0.2910 -0.3851  0.3827
   48CHL1  H26A 3546   3.060   6.041   4.381  0.1819 -2.1886  1.0724
   48CHL1  H26B 3547   3.042   5.931   4.245  1.7513 -2.1857  0.9466
   48CHL1  H26C 3548   3.202   5.967   4.290 -0.5235 -0.8693  0.3387
   48CHL1   C27 3549   3.164   6.262   4.236  0.3349  0.1245 -0.0579
   48CHL1  H27A 3550   3.163   6.348   4.166  1.5208  1.0774  1.0467
   48CHL1  H27B 3551   3.097   6.301   4.316 -0.7488 -1.5310 -0.1070
   48CHL1  H27C 3552   3.267   6.261   4.277  1.2667 -2.7954 -2.1512
   49CHL1    C3 3553   0.861   0.686   2.960 -0.7985  0.4482  0.3672
   49CHL1    H3 3554   0.839   0.578   2.951  0.1324  0.4167 -2.3362
   49CHL1    O3 3555   0.917   0.743   2.839 -0.0345 -0.0403  0.3822
   49CHL1   H3' 3556   0.963   0.817   2.879 -3.3349  2.8561 -0.6950
   49CHL1    C4 3557   0.740   0.766   2.997 -0.6062 -0.1278  0.3474
   49CHL1   H4A 3558   0.779   0.868   3.020 -1.9052  1.2085 -2.8233
   49CHL1   H4B 3559   0.667   0.780   2.914  1.0397  1.2597 -0.9317
   49CHL1    C5 3560   0.680   0.702   3.117 -0.2508 -0.6956 -0.0151
   49CHL1    C6 3561   0.551   0.665   3.120  0.0357  0.5202  0.1201
   49CHL1    H6 3562   0.492   0.684   3.029  0.1253  1.6960  0.2809
   49CHL1    C7 3563   0.485   0.611   3.239  0.3311 -0.0726  0.0285
   49CHL1   H7A 3564   0.378   0.641   3.245  0.0152 -1.0980 -0.2723
   49CHL1   H7B 3565   0.496   0.500   3.240 -0.6876 -0.2031  2.3538
   49CHL1    C8 3566   0.567   0.642   3.371 -0.0356  0.6270  0.7976
   49CHL1    H8 3567   0.560   0.753   3.378  3.3007  0.9907  0.1072
   49CHL1   C14 3568   0.507   0.573   3.485  1.2580 -0.9289 -0.8562
   49CHL1   H14 3569   0.517   0.465   3.463 -2.4328 -1.2341 -1.7132
   49CHL1   C15 3570   0.361   0.598   3.523  0.9262 -0.3206 -0.2970
   49CHL1  H15A 3571   0.340   0.706   3.508 -0.7424 -0.6253 -0.3062
   49CHL1  H15B 3572   0.288   0.545   3.459 -0.6304  0.6177  0.6581
   49CHL1   C16 3573   0.337   0.558   3.666 -0.5211  0.0185 -0.3725
   49CHL1  H16A 3574   0.291   0.642   3.722 -1.1600  0.0836 -0.9712
   49CHL1  H16B 3575   0.283   0.461   3.665 -0.2124 -0.1993 -3.0176
   49CHL1   C17 3576   0.481   0.535   3.730 -0.5174 -0.1403 -0.5537
   49CHL1   H17 3577   0.495   0.425   3.720  3.7981  0.3329 -2.3404
   49CHL1   C13 3578   0.580   0.595   3.618  0.0879  0.8872 -0.4383
   49CHL1   C18 3579   0.585   0.745   3.654  0.0948  0.1312 -0.4050
   49CHL1  H18A 3580   0.487   0.786   3.686  0.5718  0.3891  0.7486
   49CHL1  H18B 3581   0.653   0.765   3.739 -0.7004 -0.7896  0.4821
   49CHL1  H18C 3582   0.620   0.800   3.564  0.9304  0.3396  0.0405
   49CHL1   C12 3583   0.725   0.543   3.602  0.5971  0.3719 -0.2794
   49CHL1  H12A 3584   0.790   0.564   3.689 -1.1739 -0.8233  1.4233
   49CHL1  H12B 3585   0.727   0.433   3.589 -0.8945  0.2194  0.5624
   49CHL1   C11 3586   0.790   0.615   3.481 -0.6851 -0.0662  0.1200
   49CHL1  H11A 3587   0.825   0.715   3.516  1.1745 -0.0474 -1.6517
   49CHL1  H11B 3588   0.882   0.555   3.470 -1.2423 -1.0548  0.6805
   49CHL1    C9 3589   0.715   0.610   3.351 -1.0969  0.1520 -0.2334
   49CHL1    H9 3590   0.711   0.503   3.321  3.6047  0.1208 -1.4733
   49CHL1   C10 3591   0.786   0.691   3.234  0.5042 -0.0347 -0.2941
   49CHL1   C19 3592   0.819   0.834   3.282  0.1430  0.8678 -0.0006
   49CHL1  H19A 3593   0.851   0.912   3.209  0.8450  1.8587  1.3232
   49CHL1  H19B 3594   0.731   0.877   3.334 -0.5558  0.7680 -1.0571
   49CHL1  H19C 3595   0.898   0.826   3.360 -0.3313 -1.0712  0.3488
   49CHL1    C1 3596   0.913   0.615   3.181 -0.0727  0.0863  0.1207
   49CHL1   H1A 3597   0.986   0.613   3.265  1.1147  1.4904 -0.8218
   49CHL1   H1B 3598   0.878   0.513   3.159 -0.9340  0.2155  0.8300
   49CHL1    C2 3599   0.977   0.684   3.065 -0.1212 -0.1696  0.1531
   49CHL1   H2A 3600   1.069   0.636   3.024  0.3970  1.1925 -0.3504
   49CHL1   H2B 3601   1.006   0.791   3.077 -0.7030  0.2747 -2.0514
   49CHL1   C20 3602   0.497   0.585   3.875 -0.2548 -0.2197  0.0443
   49CHL1   H20 3603   0.495   0.695   3.890  2.3070 -0.1663  0.5073
   49CHL1   C21 3604   0.641   0.550   3.926  0.6472  0.7610  0.2427
   49CHL1  H21A 3605   0.643   0.575   4.034 -1.4531 -0.5228  0.6347
   49CHL1  H21B 3606   0.722   0.607   3.877  0.6265  2.7733  2.3625
   49CHL1  H21C 3607   0.654   0.440   3.914  0.1007  0.6664  0.4775
   49CHL1   C22 3608   0.403   0.529   3.983 -0.9395  0.3511 -0.2124
   49CHL1  H22A 3609   0.303   0.547   3.940 -0.5860  0.0220 -1.2065
   49CHL1  H22B 3610   0.419   0.420   4.001  1.6860  1.0436  2.4402
   49CHL1   C23 3611   0.409   0.600   4.115  0.9587 -0.1200 -0.6685
   49CHL1  H23A 3612   0.501   0.576   4.173  1.1650  0.3612 -0.7930
   49CHL1  H23B 3613   0.416   0.709   4.096 -0.7002  0.1296  0.0177
   49CHL1   C24 3614   0.278   0.582   4.201 -0.5940 -0.0820  0.2633
   49CHL1  H24A 3615   0.187   0.614   4.147 -0.1710 -1.1946 -1.1971
   49CHL1  H24B 3616   0.256   0.473   4.202 -1.0747  0.0126  1.6810
   49CHL1   C25 3617   0.293   0.634   4.344 -0.8413  0.1642 -0.3885
   49CHL1   H25 3618   0.385   0.593   4.391 -1.3831 -1.9621 -1.0584
   49CHL1   C26 3619   0.276   0.783   4.359 -0.4502  0.2929 -0.2253
   49CHL1  H26A 3620   0.367   0.830   4.316  0.3256  0.3466  1.3929
   49CHL1  H26B 3621   0.182   0.825   4.317 -0.9818  0.6050  1.2236
   49CHL1  H26C 3622   0.278   0.810   4.467 -1.6993  2.0530 -0.5911
   49CHL1   C27 3623   0.170   0.568   4.419 -0.1334  0.7719  0.5143
   49CHL1  H27A 3624   0.193   0.460   4.418 -1.3149  0.5106  0.3515
   49CHL1  H27B 3625   0.149   0.611   4.520 -0.1836  1.8582  0.0538
   49CHL1  H27C 3626   0.085   0.608   4.360 -1.4683  0.9116  2.4066
   50CHL1    C3 3627   3.843   2.175   3.152  0.8101 -0.3360 -0.0366
   50CHL1    H3 3628   3.771   2.102   3.196 -0.1727 -0.0877 -1.1707
   50CHL1    O3 3629   3.841   2.156   3.009 -0.4679 -0.2633 -0.2077
   50CHL1   H3' 3630   3.874   2.238   2.972 -0.5057  1.0465  2.4128
   50CHL1    C4 3631   3.809   2.318   3.183  0.8283  0.0013  0.7360
   50CHL1   H4A 3632   3.871   2.395   3.131 -0.8907  1.8501  1.2924
   50CHL1   H4B 3633   3.703   2.332   3.150 -0.6835 -3.9615  3.1784
   50CHL1    C5 3634   3.820   2.355   3.327  0.9408 -0.6643  0.7842
   50CHL1    C6 3635   3.717   2.400   3.399 -0.4471 -0.0338  0.3177
   50CHL1    H6 3636   3.622   2.432   3.352  0.9774  1.4764 -1.7524
   50CHL1    C7 3637   3.730   2.429   3.547 -0.3139  0.8810  0.9541
   50CHL1   H7A 3638   3.671   2.522   3.561 -0.5405  0.9165 -0.1628
   50CHL1   H7B 3639   3.679   2.348   3.603 -0.0086 -0.2737 -0.3867
   50CHL1    C8 3640   3.874   2.447   3.604 -0.1051 -0.1700  0.2663
   50CHL1    H8 3641   3.920   2.543   3.570  2.9994 -1.7642 -0.4461
   50CHL1   C14 3642   3.875   2.437   3.753  0.2123 -0.3353  0.0974
   50CHL1   H14 3643   3.841   2.334   3.781 -1.2393 -0.0755 -0.6292
   50CHL1   C15 3644   3.782   2.539   3.822 -0.2671  0.6362  0.1129
   50CHL1  H15A 3645   3.795   2.641   3.781  0.1954 -0.3499 -2.3541
   50CHL1  H15B 3646   3.674   2.514   3.823 -0.2803  0.5633  2.1447
   50CHL1   C16 3647   3.837   2.543   3.970  0.9826  0.5800 -0.2895
   50CHL1  H16A 3648   3.851   2.646   4.008  0.3111  0.2494  0.9096
   50CHL1  H16B 3649   3.763   2.484   4.029  0.3492  0.1753 -1.4401
   50CHL1   C17 3650   3.968   2.457   3.967  0.3696  0.4142 -0.0360
   50CHL1   H17 3651   3.928   2.355   3.986 -0.7267  0.6119 -1.0758
   50CHL1   C13 3652   4.014   2.452   3.814  0.0376 -0.3757 -0.6641
   50CHL1   C18 3653   4.074   2.595   3.783 -0.0043 -0.7538 -0.3826
   50CHL1  H18A 3654   4.007   2.676   3.819  0.0127  0.3987 -2.7646
   50CHL1  H18B 3655   4.170   2.610   3.837 -0.1924  0.3080 -0.3176
   50CHL1  H18C 3656   4.096   2.610   3.676  0.3077  0.9670 -0.1011
   50CHL1   C12 3657   4.106   2.338   3.754  0.2538  0.0751 -0.1576
   50CHL1  H12A 3658   4.211   2.343   3.792  0.7662 -2.3883 -1.0670
   50CHL1  H12B 3659   4.070   2.239   3.789  1.7675 -1.3743 -2.4067
   50CHL1   C11 3660   4.110   2.339   3.603  0.2621  0.3388 -0.1731
   50CHL1  H11A 3661   4.161   2.432   3.570  0.6880  1.0764  2.3501
   50CHL1  H11B 3662   4.168   2.252   3.566 -2.0223  0.5488 -5.0648
   50CHL1    C9 3663   3.968   2.336   3.542 -0.1441 -0.3479  0.1282
   50CHL1    H9 3664   3.931   2.239   3.581 -0.9825 -0.4113 -0.7975
   50CHL1   C10 3665   3.959   2.322   3.382 -0.3054  0.3825  0.4950
   50CHL1   C19 3666   4.068   2.416   3.324  0.1502 -0.7661  0.1896
   50CHL1  H19A 3667   4.168   2.376   3.351  0.7873  0.1041 -0.7489
   50CHL1  H19B 3668   4.069   2.414   3.212  0.5498 -1.2272  0.1968
   50CHL1  H19C 3669   4.043   2.516   3.365  0.2589 -1.8772  3.1946
   50CHL1    C1 3670   3.997   2.173   3.351 -0.0451  0.4438  0.2639
   50CHL1   H1A 3671   4.103   2.156   3.378  1.0301  5.2799  0.1388
   50CHL1   H1B 3672   3.939   2.092   3.400  0.0023  0.8558  1.0176
   50CHL1    C2 3673   3.986   2.149   3.198  0.0974 -0.4631  0.5346
   50CHL1   H2A 3674   4.009   2.041   3.181 -2.1599 -1.1383  1.3931
   50CHL1   H2B 3675   4.065   2.203   3.141  0.9164 -2.6601 -0.5188
   50CHL1   C20 3676   4.062   2.483   4.079 -0.3278  0.0477 -0.3921
   50CHL1   H20 3677   4.121   2.575   4.059 -1.1034  0.5385 -0.4880
   50CHL1   C21 3678   4.153   2.356   4.091 -0.8769 -0.2857 -0.1080
   50CHL1  H21A 3679   4.090   2.270   4.122  0.1492  0.3990  4.7465
   50CHL1  H21B 3680   4.229   2.354   4.172  1.3311 -0.1357 -2.0616
   50CHL1  H21C 3681   4.207   2.326   3.999 -0.2459 -0.6691  0.3835
   50CHL1   C22 3682   3.999   2.489   4.221  1.2199 -1.1984  0.7283
   50CHL1  H22A 3683   3.911   2.557   4.217  2.1898  0.0646 -0.1029
   50CHL1  H22B 3684   3.952   2.394   4.252 -1.3077  0.4215  2.2289
   50CHL1   C23 3685   4.099   2.542   4.327 -0.2981 -0.0125  0.1863
   50CHL1  H23A 3686   4.183   2.472   4.347  1.0192  1.7091  0.8393
   50CHL1  H23B 3687   4.134   2.637   4.283  0.0255  0.7450  2.0054
   50CHL1   C24 3688   4.034   2.570   4.465 -0.2137 -0.6306  0.1371
   50CHL1  H24A 3689   3.945   2.635   4.455  0.6103  0.2838 -1.6783
   50CHL1  H24B 3690   3.986   2.482   4.513 -0.7233 -1.1231 -1.2407
   50CHL1   C25 3691   4.132   2.637   4.567  0.8595  0.4996  0.0322
   50CHL1   H25 3692   4.173   2.730   4.522  1.5797 -0.0499 -0.4676
   50CHL1   C26 3693   4.045   2.679   4.689  0.0139  0.0750  0.1744
   50CHL1  H26A 3694   3.991   2.600   4.745 -1.0227 -0.1384 -1.0555
   50CHL1  H26B 3695   4.115   2.735   4.754  2.1479 -0.9750 -1.1161
   50CHL1  H26C 3696   3.959   2.747   4.669 -1.6681 -1.8793  0.4838
   50CHL1   C27 3697   4.246   2.544   4.611  0.3220 -1.2194 -0.2142
   50CHL1  H27A 3698   4.307   2.571   4.700 -0.7648  1.2916 -0.1447
   50CHL1  H27B 3699   4.214   2.440   4.631 -3.4321 -0.0140  0.9249
   50CHL1  H27C 3700   4.325   2.547   4.532 -0.7159  1.7958 -1.3058
   51CHL1    C3 3701   5.411   3.041   3.407  0.4256  0.6999  0.5225
   51CHL1    H3 3702   5.467   2.949   3.433 -2.1836 -0.8692  0.9625
   51CHL1    O3 3703   5.417   3.052   3.268  0.2370 -0.3650  0.1569
   51CHL1   H3' 3704   5.334   3.024   3.228  2.4319 -1.9111 -3.9870
   51CHL1    C4 3705   5.264   3.031   3.447  0.3518 -0.1612 -0.4435
   51CHL1   H4A 3706   5.220   3.124   3.405  1.6283  0.5536 -0.2536
   51CHL1   H4B 3707   5.219   2.944   3.394  0.7537 -0.8584  0.3536
   51CHL1    C5 3708   5.243   3.009   3.593 -0.3593  0.2589 -0.8551
   51CHL1    C6 3709   5.189   2.900   3.639 -0.2117  0.5260  0.0425
   51CHL1    H6 3710   5.168   2.818   3.570  0.2323  1.5123 -1.3065
   51CHL1    C7 3711   5.168   2.868   3.782  0.6148  0.6566 -1.1132
   51CHL1   H7A 3712   5.065   2.829   3.794  1.0314 -0.5533 -1.2651
   51CHL1   H7B 3713   5.237   2.784   3.807  0.7173  0.9511 -0.4070
   51CHL1    C8 3714   5.188   2.985   3.886 -0.6344  0.0005  0.2760
   51CHL1    H8 3715   5.094   3.043   3.886 -0.9975 -0.5149 -1.4227
   51CHL1   C14 3716   5.222   2.945   4.024 -0.2548  0.3575  0.0873
   51CHL1   H14 3717   5.315   2.884   4.020  0.7672  1.7888  0.7665
   51CHL1   C15 3718   5.121   2.848   4.094 -0.2895  0.6889  0.5343
   51CHL1  H15A 3719   5.017   2.881   4.072 -1.6312 -2.2248  1.9138
   51CHL1  H15B 3720   5.136   2.743   4.061  1.1228  0.5432  1.5354
   51CHL1   C16 3721   5.156   2.860   4.240  0.3208 -1.0266 -0.2561
   51CHL1  H16A 3722   5.068   2.878   4.305  0.4196  1.5366 -0.7374
   51CHL1  H16B 3723   5.197   2.761   4.270  3.1593  0.2697  0.4755
   51CHL1   C17 3724   5.267   2.977   4.256  0.3323  0.3088  0.5701
   51CHL1   H17 3725   5.357   2.915   4.238 -0.9118 -1.0379 -1.3554
   51CHL1   C13 3726   5.246   3.058   4.128  0.6455  0.1593 -0.0564
   51CHL1   C18 3727   5.117   3.147   4.149  0.0565  0.3178  0.7029
   51CHL1  H18A 3728   5.140   3.220   4.230  1.2389 -1.8148  2.4113
   51CHL1  H18B 3729   5.092   3.205   4.058 -1.2888  2.5381  2.3754
   51CHL1  H18C 3730   5.031   3.083   4.178  1.3356 -1.7213  0.1658
   51CHL1   C12 3731   5.365   3.148   4.080 -0.1893 -0.0950  0.3819
   51CHL1  H12A 3732   5.398   3.220   4.157  1.6737  0.0327 -0.4831
   51CHL1  H12B 3733   5.452   3.079   4.074  0.0852  0.3610 -2.9042
   51CHL1   C11 3734   5.331   3.197   3.934  0.1250  0.0850  0.7682
   51CHL1  H11A 3735   5.255   3.277   3.929 -0.2411 -0.3514 -2.0654
   51CHL1  H11B 3736   5.419   3.242   3.883  0.2500 -1.4126 -0.4167
   51CHL1    C9 3737   5.301   3.073   3.835  0.2386 -0.2485  0.7626
   51CHL1    H9 3738   5.392   3.013   3.856  0.1300  0.2375  2.7735
   51CHL1   C10 3739   5.305   3.116   3.677  0.4970 -0.4355 -0.0891
   51CHL1   C19 3740   5.213   3.239   3.655 -0.3355  0.4068  0.0175
   51CHL1  H19A 3741   5.205   3.266   3.547  1.9003  0.2294 -0.2251
   51CHL1  H19B 3742   5.111   3.217   3.694  0.0891 -1.1037  0.3579
   51CHL1  H19C 3743   5.252   3.327   3.710 -0.2542 -0.1164  0.8219
   51CHL1    C1 3744   5.452   3.142   3.632 -0.3887  0.3917  0.2538
   51CHL1   H1A 3745   5.490   3.226   3.695 -0.4330 -0.7722  1.9086
   51CHL1   H1B 3746   5.509   3.054   3.668 -1.0013 -0.3794 -0.6489
   51CHL1    C2 3747   5.472   3.157   3.478  0.6087  0.3511  0.1671
   51CHL1   H2A 3748   5.572   3.175   3.433  0.6672 -0.5839 -0.0913
   51CHL1   H2B 3749   5.405   3.239   3.444 -2.5112 -1.7810  0.7814
   51CHL1   C20 3750   5.290   3.050   4.386  0.2559 -0.0637 -0.4533
   51CHL1   H20 3751   5.245   3.151   4.379  1.0677  0.4639  1.3019
   51CHL1   C21 3752   5.439   3.076   4.396 -0.9672 -0.2024 -0.7048
   51CHL1  H21A 3753   5.464   3.133   4.489 -0.7754 -0.2454 -0.7299
   51CHL1  H21B 3754   5.500   3.128   4.319  1.8749 -2.8019 -0.4162
   51CHL1  H21C 3755   5.481   2.973   4.407  2.9217  1.1019 -1.6718
   51CHL1   C22 3756   5.231   2.985   4.516  0.6440 -0.1854  0.1023
   51CHL1  H22A 3757   5.125   2.959   4.494  0.9732 -0.4769 -1.2670
   51CHL1  H22B 3758   5.287   2.889   4.524 -1.1292 -1.6852 -3.3369
   51CHL1   C23 3759   5.229   3.066   4.646 -0.3848  0.5336 -0.3626
   51CHL1  H23A 3760   5.333   3.092   4.674 -0.2798  1.8305 -1.8245
   51CHL1  H23B 3761   5.165   3.157   4.643 -0.2256  0.6312 -2.4871
   51CHL1   C24 3762   5.155   2.975   4.754  0.5904 -0.4646  0.2422
   51CHL1  H24A 3763   5.048   2.958   4.728 -0.3209  3.9163  0.3749
   51CHL1  H24B 3764   5.196   2.872   4.760 -1.4584 -1.3050  0.5691
   51CHL1   C25 3765   5.142   3.040   4.895 -0.0139  0.0591  0.0794
   51CHL1   H25 3766   5.241   3.089   4.908  0.4117 -0.0619 -2.3152
   51CHL1   C26 3767   5.042   3.156   4.898  1.2346 -0.1442 -0.3687
   51CHL1  H26A 3768   5.061   3.231   4.818  0.6766  1.0960  0.6376
   51CHL1  H26B 3769   4.943   3.109   4.877  0.4382  1.6144 -0.6904
   51CHL1  H26C 3770   5.031   3.210   4.994  1.2041  1.2064 -1.1010
   51CHL1   C27 3771   5.113   2.946   5.020  1.0120  0.7417  0.4402
   51CHL1  H27A 3772   5.134   2.999   5.115 -3.2124 -0.7800  2.4771
   51CHL1  H27B 3773   5.009   2.907   5.012  1.2312  0.2114  0.1173
   51CHL1  H27C 3774   5.187   2.864   5.007 -0.1762 -0.1781 -0.8576
   52CHL1    C3 3775   4.820   5.112   3.052  1.4727  0.5488  0.4805
   52CHL1    H3 3776   4.732   5.179   3.067  0.3630 -0.6972 -0.2304
   52CHL1    O3 3777   4.843   5.066   2.918 -0.6174  0.4263  0.2075
   52CHL1   H3' 3778   4.904   4.992   2.923 -0.5002  0.4038 -1.2492
   52CHL1    C4 3779   4.940   5.199   3.082 -0.2098  0.5624 -0.6904
   52CHL1   H4A 3780   5.035   5.146   3.062  0.3971 -0.5529  4.0212
   52CHL1   H4B 3781   4.931   5.291   3.020  1.4000  1.2442  0.0614
   52CHL1    C5 3782   4.940   5.244   3.226 -0.0720  1.0205  0.5528
   52CHL1    C6 3783   4.955   5.375   3.264 -0.7626 -0.5271  0.3499
   52CHL1    H6 3784   4.971   5.447   3.183  1.7762 -2.8967 -1.4494
   52CHL1    C7 3785   4.967   5.433   3.401 -0.4529 -0.8572  0.0521
   52CHL1   H7A 3786   5.058   5.496   3.407 -0.0232 -1.4869  0.2130
   52CHL1   H7B 3787   4.872   5.489   3.417 -0.5046  0.0209 -2.8717
   52CHL1    C8 3788   4.982   5.319   3.505  0.6122  0.1499  0.1491
   52CHL1    H8 3789   5.087   5.288   3.519  0.8291  1.5767  2.1597
   52CHL1   C14 3790   4.946   5.378   3.643 -0.2267  0.1890  0.0811
   52CHL1   H14 3791   4.840   5.406   3.631 -0.3302 -0.3099 -0.1701
   52CHL1   C15 3792   5.019   5.509   3.693 -0.4506 -0.7240 -0.1784
   52CHL1  H15A 3793   5.128   5.493   3.678  0.0726  2.0211  0.2635
   52CHL1  H15B 3794   4.984   5.596   3.634  1.0216  1.1737  1.5799
   52CHL1   C16 3795   4.993   5.511   3.843  0.1549  0.7069 -0.3017
   52CHL1  H16A 3796   5.094   5.518   3.891 -1.3052 -1.4031  3.4622
   52CHL1  H16B 3797   4.937   5.602   3.873  1.0546  1.0663  0.3340
   52CHL1   C17 3798   4.916   5.385   3.881  0.5507  0.1947 -0.0995
   52CHL1   H17 3799   4.809   5.417   3.877  0.5390  0.2801  0.7120
   52CHL1   C13 3800   4.948   5.287   3.761 -0.4636  0.5578  0.4463
   52CHL1   C18 3801   5.087   5.224   3.783  0.0739  0.2257  0.6688
   52CHL1  H18A 3802   5.125   5.186   3.685 -1.0364  1.8233 -0.4477
   52CHL1  H18B 3803   5.155   5.307   3.812 -1.7795  2.2622 -0.5038
   52CHL1  H18C 3804   5.081   5.148   3.863 -0.8327  0.3277  0.7137
   52CHL1   C12 3805   4.850   5.175   3.730  0.0925  0.0444  0.5400
   52CHL1  H12A 3806   4.858   5.098   3.810 -0.6405  1.4496  2.0123
   52CHL1  H12B 3807   4.744   5.208   3.739  0.1484  0.3682  0.0229
   52CHL1   C11 3808   4.882   5.103   3.591 -0.0928 -0.6986 -0.1524
   52CHL1  H11A 3809   4.976   5.045   3.601 -1.1918 -2.3426  1.1469
   52CHL1  H11B 3810   4.804   5.027   3.574 -1.6680  0.9285 -0.5220
   52CHL1    C9 3811   4.893   5.202   3.476  0.7357  0.0711 -0.2673
   52CHL1    H9 3812   4.793   5.250   3.478  1.2146  1.3687  4.3455
   52CHL1   C10 3813   4.927   5.135   3.339  0.5568  0.2475 -0.2116
   52CHL1   C19 3814   5.059   5.053   3.334 -0.9567 -0.1287 -0.1431
   52CHL1  H19A 3815   5.076   4.980   3.417 -3.1597  0.2945  0.7374
   52CHL1  H19B 3816   5.083   5.005   3.236  0.2402  1.7789 -0.8436
   52CHL1  H19C 3817   5.144   5.120   3.362 -1.1068 -0.7595  1.9619
   52CHL1    C1 3818   4.798   5.054   3.297 -0.2189 -0.4169  0.0924
   52CHL1   H1A 3819   4.791   4.973   3.373  0.8680  0.3962  1.1153
   52CHL1   H1B 3820   4.707   5.117   3.303  1.4992  2.1903  0.6631
   52CHL1    C2 3821   4.804   5.000   3.154  0.6747 -0.0772 -0.0881
   52CHL1   H2A 3822   4.722   4.931   3.123  1.2166 -0.1562 -1.4269
   52CHL1   H2B 3823   4.897   4.940   3.161 -0.3091 -1.5013  1.2252
   52CHL1   C20 3824   4.937   5.334   4.026  0.0442  0.3506  0.5788
   52CHL1   H20 3825   5.045   5.309   4.033 -0.1483 -0.5420  0.5030
   52CHL1   C21 3826   4.865   5.202   4.062 -0.3526  0.0974 -0.1685
   52CHL1  H21A 3827   4.858   5.171   4.169  0.1281 -0.7218 -0.3664
   52CHL1  H21B 3828   4.930   5.121   4.022  0.5178  0.3099  0.7677
   52CHL1  H21C 3829   4.760   5.212   4.027 -0.3767  0.6223  0.0433
   52CHL1   C22 3830   4.904   5.449   4.131 -0.0000 -0.1314 -0.6866
   52CHL1  H22A 3831   4.949   5.544   4.096  1.8134 -0.1954  1.2922
   52CHL1  H22B 3832   4.794   5.462   4.140  0.0848  0.2194 -0.1392
   52CHL1   C23 3833   4.951   5.420   4.273  0.0157 -0.2555  0.2554
   52CHL1  H23A 3834   4.910   5.501   4.337 -0.4718 -1.6304  1.7582
   52CHL1  H23B 3835   4.895   5.329   4.303 -1.3780  0.4015 -0.2632
   52CHL1   C24 3836   5.105   5.411   4.290  0.1818 -0.2097  0.5682
   52CHL1  H24A 3837   5.133   5.324   4.227 -2.1429 -0.7832  0.2227
   52CHL1  H24B 3838   5.152   5.503   4.250  1.0248 -1.1022 -0.5652
   52CHL1   C25 3839   5.150   5.373   4.435  0.6363  0.1690 -0.2583
   52CHL1   H25 3840   5.098   5.441   4.507 -0.8897  0.2717 -1.4000
   52CHL1   C26 3841   5.111   5.230   4.469 -0.2826 -1.0134 -0.1802
   52CHL1  H26A 3842   5.174   5.167   4.403 -1.2117  0.2929 -2.4369
   52CHL1  H26B 3843   5.134   5.204   4.574  0.1894 -3.2758 -0.7914
   52CHL1  H26C 3844   5.001   5.215   4.462 -0.9681  2.4039  1.2032
   52CHL1   C27 3845   5.304   5.392   4.454  1.0400 -0.3132 -0.7152
   52CHL1  H27A 3846   5.334   5.490   4.411 -0.1344 -0.5449 -2.1399
   52CHL1  H27B 3847   5.326   5.379   4.562  0.8205  0.2116 -0.6037
   52CHL1  H27C 3848   5.352   5.319   4.385 -0.4208 -0.8121 -1.2363
   53CHL1    C3 3849   2.303   1.500   2.689  0.3528  0.5252 -0.3159
   53CHL1    H3 3850   2.316   1.610   2.689  0.9140  0.6325 -4.2795
   53CHL1    O3 3851   2.220   1.468   2.576 -0.2236 -0.3141 -0.1698
   53CHL1   H3' 3852   2.237   1.378   2.546  2.0198  0.1962 -0.5919
   53CHL1    C4 3853   2.446   1.434   2.692 -0.6213  0.5635  0.7036
   53CHL1   H4A 3854   2.445   1.325   2.674  1.6635  0.6463 -0.3408
   53CHL1   H4B 3855   2.511   1.470   2.609 -1.0358  1.4239  0.7426
   53CHL1    C5 3856   2.527   1.453   2.820  0.4909 -0.3544  0.0456
   53CHL1    C6 3857   2.647   1.512   2.828  0.1715 -0.3190  0.2277
   53CHL1    H6 3858   2.704   1.527   2.735 -0.6237  1.6366  0.0171
   53CHL1    C7 3859   2.723   1.543   2.951  0.2055 -0.8714 -0.3943
   53CHL1   H7A 3860   2.829   1.508   2.949  0.3864 -0.3401 -3.2279
   53CHL1   H7B 3861   2.714   1.648   2.984  0.7002 -1.5183  1.9971
   53CHL1    C8 3862   2.666   1.457   3.070 -0.1388  0.6605 -0.5791
   53CHL1    H8 3863   2.695   1.354   3.040  0.5288  0.7553 -0.2740
   53CHL1   C14 3864   2.726   1.503   3.205 -0.8930  0.2279  0.3092
   53CHL1   H14 3865   2.690   1.607   3.221  0.5443  0.8072 -0.0405
   53CHL1   C15 3866   2.880   1.518   3.217  0.4287 -0.2888  0.4640
   53CHL1  H15A 3867   2.927   1.428   3.173 -1.6872 -0.8725 -0.7939
   53CHL1  H15B 3868   2.913   1.619   3.183  1.5805 -0.8398 -0.1113
   53CHL1   C16 3869   2.908   1.517   3.366  0.0853 -0.4540 -0.2797
   53CHL1  H16A 3870   2.964   1.422   3.382  0.7905 -0.1438 -0.8915
   53CHL1  H16B 3871   2.970   1.600   3.407  0.2468 -0.6966 -0.0304
   53CHL1   C17 3872   2.761   1.499   3.433  0.8091 -0.0922 -0.0649
   53CHL1   H17 3873   2.728   1.606   3.432  0.0987 -0.2473 -2.8700
   53CHL1   C13 3874   2.676   1.429   3.329 -0.3881  0.2190 -0.0828
   53CHL1   C18 3875   2.717   1.278   3.326  0.1137 -0.2647  0.1104
   53CHL1  H18A 3876   2.660   1.240   3.239 -0.9609  3.7522 -1.1660
   53CHL1  H18B 3877   2.827   1.266   3.328  0.0338 -1.0922 -0.0976
   53CHL1  H18C 3878   2.682   1.220   3.414  2.8736  0.2632  1.6744
   53CHL1   C12 3879   2.519   1.448   3.336  0.4238  0.1832  0.0188
   53CHL1  H12A 3880   2.484   1.379   3.415 -0.0358 -0.0300 -0.3637
   53CHL1  H12B 3881   2.491   1.551   3.367  0.7216 -0.1974  1.6011
   53CHL1   C11 3882   2.458   1.403   3.204 -0.2124 -0.3217 -0.0908
   53CHL1  H11A 3883   2.465   1.292   3.200  2.3245 -0.2014 -0.4110
   53CHL1  H11B 3884   2.349   1.427   3.204 -1.0333 -3.5527 -0.6806
   53CHL1    C9 3885   2.514   1.470   3.071 -0.1949 -0.2987 -0.4855
   53CHL1    H9 3886   2.496   1.580   3.073 -0.1672 -0.2442 -1.9886
   53CHL1   C10 3887   2.443   1.417   2.944 -0.0119 -0.4497  0.2859
   53CHL1   C19 3888   2.448   1.261   2.938  0.2497 -0.1206  0.7211
   53CHL1  H19A 3889   2.408   1.215   2.846 -0.3552  4.2810 -1.4627
   53CHL1  H19B 3890   2.554   1.230   2.955  0.9606  1.2013 -1.0449
   53CHL1  H19C 3891   2.390   1.228   3.027 -1.9464  0.3757 -0.4763
   53CHL1    C1 3892   2.293   1.468   2.947  0.4521  0.1975  0.1076
   53CHL1   H1A 3893   2.226   1.439   3.032 -0.2807  0.0727 -0.4998
   53CHL1   H1B 3894   2.301   1.578   2.953 -1.3801  0.4266 -1.0249
   53CHL1    C2 3895   2.223   1.444   2.809  0.1591  0.0107  0.0720
   53CHL1   H2A 3896   2.128   1.499   2.824  0.7232  0.9676  0.1955
   53CHL1   H2B 3897   2.205   1.335   2.795  1.7147 -0.4108  1.0535
   53CHL1   C20 3898   2.766   1.448   3.576  0.8919 -0.5220 -0.5645
   53CHL1   H20 3899   2.786   1.339   3.582 -0.5162 -0.7503  0.5072
   53CHL1   C21 3900   2.633   1.478   3.644  0.1577  0.3785 -0.2826
   53CHL1  H21A 3901   2.628   1.452   3.752 -3.4180  2.3728  0.2226
   53CHL1  H21B 3902   2.541   1.430   3.603 -0.1977  1.6825 -1.0669
   53CHL1  H21C 3903   2.611   1.587   3.645 -0.6037  0.2645  1.6273
   53CHL1   C22 3904   2.873   1.527   3.663 -0.0802  0.7548 -0.9497
   53CHL1  H22A 3905   2.967   1.550   3.609  1.2006 -0.9646  0.4204
   53CHL1  H22B 3906   2.829   1.629   3.675 -2.0517 -0.1845  0.4804
   53CHL1   C23 3907   2.910   1.461   3.802 -0.3471  0.1194 -0.8867
   53CHL1  H23A 3908   2.811   1.459   3.853  0.9287 -0.0165  1.7415
   53CHL1  H23B 3909   2.945   1.358   3.779  1.7669  0.6437 -0.2731
   53CHL1   C24 3910   3.025   1.529   3.874  0.2803  0.3432 -0.0659
   53CHL1  H24A 3911   3.111   1.524   3.805 -0.9652 -1.8772 -1.5723
   53CHL1  H24B 3912   2.987   1.632   3.891  1.9565  0.5947  2.6120
   53CHL1   C25 3913   3.046   1.473   4.021 -0.9436 -0.0059  0.4693
   53CHL1   H25 3914   3.040   1.362   4.011  1.6978 -0.5033  3.2027
   53CHL1   C26 3915   3.180   1.521   4.079  0.0437  0.2089 -0.3850
   53CHL1  H26A 3916   3.258   1.470   4.020  0.6607  1.8993 -1.1031
   53CHL1  H26B 3917   3.199   1.631   4.081 -2.4535  0.7777  3.9704
   53CHL1  H26C 3918   3.202   1.492   4.184  0.1463  1.8163  0.0705
   53CHL1   C27 3919   2.941   1.526   4.113 -0.6823  1.4957 -0.2460
   53CHL1  H27A 3920   2.973   1.501   4.216  1.0112 -0.0525 -1.0949
   53CHL1  H27B 3921   2.929   1.637   4.106  1.1934  1.7486  0.0550
   53CHL1  H27C 3922   2.850   1.470   4.084  0.7607 -1.5124  0.7048
   54CHL1    C3 3923   0.378   3.642   3.120 -0.1286 -0.2076 -0.6640
   54CHL1    H3 3924   0.305   3.564   3.148 -1.6350  0.9596 -1.2216
   54CHL1    O3 3925   0.391   3.672   2.978 -0.1274  0.6280 -0.8657
   54CHL1   H3' 3926   0.486   3.683   2.972 -0.1706  1.9233  0.1246
   54CHL1    C4 3927   0.335   3.770   3.199 -0.1703 -0.5936  0.2147
   54CHL1   H4A 3928   0.399   3.854   3.165 -0.2290 -1.0048 -0.9890
   54CHL1   H4B 3929   0.237   3.801   3.156  0.5900 -0.2448 -1.3698
   54CHL1    C5 3930   0.335   3.751   3.350  0.0411  0.0606 -0.2503
   54CHL1    C6 3931   0.226   3.778   3.428  0.1774 -0.2931 -0.1568
   54CHL1    H6 3932   0.141   3.825   3.376  0.4386 -0.2045 -0.5077
   54CHL1    C7 3933   0.226   3.776   3.578  0.5202 -0.0408 -0.0034
   54CHL1   H7A 3934   0.173   3.863   3.622  2.0147  0.4113  0.9620
   54CHL1   H7B 3935   0.166   3.687   3.607  0.2559  0.5723  1.3752
   54CHL1    C8 3936   0.371   3.756   3.634  0.4896 -0.0581  0.3331
   54CHL1    H8 3937   0.419   3.856   3.628 -0.8962  0.5599 -0.9055
   54CHL1   C14 3938   0.354   3.692   3.771 -0.6110 -0.1262 -0.1261
   54CHL1   H14 3939   0.297   3.598   3.755  0.6803 -0.9900  0.2235
   54CHL1   C15 3940   0.266   3.764   3.872  1.1488 -0.5943  0.3576
   54CHL1  H15A 3941   0.288   3.873   3.871  1.7372 -0.6946 -1.7117
   54CHL1  H15B 3942   0.157   3.756   3.855  1.0516 -0.7178  1.0206
   54CHL1   C16 3943   0.301   3.698   4.009  0.1849 -1.0542 -0.3004
   54CHL1  H16A 3944   0.339   3.784   4.068 -1.6631 -0.0968 -0.4336
   54CHL1  H16B 3945   0.222   3.646   4.068  0.6887 -3.2823 -1.4812
   54CHL1   C17 3946   0.419   3.599   3.985 -0.0525  0.6242 -0.0791
   54CHL1   H17 3947   0.369   3.503   3.958 -1.7625  1.0117  1.4665
   54CHL1   C13 3948   0.476   3.650   3.851  0.2822  0.3910 -1.1748
   54CHL1   C18 3949   0.568   3.774   3.861  0.8132  0.6399 -0.0884
   54CHL1  H18A 3950   0.515   3.852   3.919 -0.5507 -1.6531  1.9263
   54CHL1  H18B 3951   0.660   3.749   3.918  0.8019  0.8724  0.0303
   54CHL1  H18C 3952   0.590   3.821   3.763 -0.8573  2.1539  0.2108
   54CHL1   C12 3953   0.538   3.543   3.762  0.5592  0.0124 -0.2920
   54CHL1  H12A 3954   0.634   3.500   3.798  2.2901  2.2361 -1.9187
   54CHL1  H12B 3955   0.476   3.452   3.759  0.9233 -0.2629  0.3364
   54CHL1   C11 3956   0.570   3.595   3.620  0.2193  0.0274 -0.3185
   54CHL1  H11A 3957   0.644   3.677   3.627 -0.1316  0.2464  1.3624
   54CHL1  H11B 3958   0.619   3.512   3.565  0.3104 -0.6104  0.6937
   54CHL1    C9 3959   0.448   3.652   3.551  0.1941 -0.3912  0.2219
   54CHL1    H9 3960   0.376   3.569   3.538  0.3859 -0.5620  0.2385
   54CHL1   C10 3961   0.470   3.697   3.406 -0.3789  0.4518 -0.8536
   54CHL1   C19 3962   0.568   3.809   3.418 -0.2518  0.2894  0.2403
   54CHL1  H19A 3963   0.667   3.778   3.457 -1.1169 -1.7671  0.9633
   54CHL1  H19B 3964   0.599   3.857   3.322  1.2352 -0.7717  0.1472
   54CHL1  H19C 3965   0.534   3.893   3.482 -0.2191 -0.5058  1.3326
   54CHL1    C1 3966   0.524   3.577   3.316 -0.0953 -0.4435 -0.7628
   54CHL1   H1A 3967   0.631   3.555   3.333  0.2696 -1.1679 -3.5059
   54CHL1   H1B 3968   0.474   3.480   3.339 -0.5522 -0.2945 -1.1038
   54CHL1    C2 3969   0.521   3.601   3.165  0.3397  0.0062  0.7283
   54CHL1   H2A 3970   0.551   3.513   3.104 -2.3471 -0.5580  0.0849
   54CHL1   H2B 3971   0.593   3.685   3.152 -1.0207  1.2228  0.7335
   54CHL1   C20 3972   0.517   3.588   4.103 -0.0897 -0.9473  0.2394
   54CHL1   H20 3973   0.577   3.681   4.090 -1.8833  0.0157 -1.7045
   54CHL1   C21 3974   0.612   3.466   4.091  0.1605  0.2053  0.1993
   54CHL1  H21A 3975   0.561   3.368   4.106  1.2854 -0.6589 -1.2830
   54CHL1  H21B 3976   0.684   3.483   4.173 -0.3455  2.3106  0.2618
   54CHL1  H21C 3977   0.674   3.465   3.998 -0.4857 -0.9295 -0.2545
   54CHL1   C22 3978   0.447   3.595   4.241  0.3136  0.0232  0.0378
   54CHL1  H22A 3979   0.375   3.675   4.269  1.2062 -0.1548  3.3594
   54CHL1  H22B 3980   0.381   3.509   4.266 -2.2277  2.3841  2.1940
   54CHL1   C23 3981   0.550   3.588   4.360  0.2072 -0.0352  0.4215
   54CHL1  H23A 3982   0.580   3.481   4.354 -1.8936 -0.6595  0.1513
   54CHL1  H23B 3983   0.631   3.659   4.332  1.8371 -1.9989 -0.1402
   54CHL1   C24 3984   0.494   3.626   4.495 -0.7405  0.2963 -1.1362
   54CHL1  H24A 3985   0.428   3.712   4.470  1.8533  2.4547 -1.0327
   54CHL1  H24B 3986   0.431   3.543   4.533 -1.2784  0.5893 -1.3724
   54CHL1   C25 3987   0.592   3.671   4.602 -0.0482 -0.0821  0.4539
   54CHL1   H25 3988   0.678   3.725   4.557 -0.2446 -0.2883 -0.1793
   54CHL1   C26 3989   0.523   3.764   4.706 -0.4121 -0.1080 -0.1461
   54CHL1  H26A 3990   0.457   3.708   4.775 -0.1079 -1.5975 -1.0291
   54CHL1  H26B 3991   0.602   3.811   4.769  1.8560 -0.0872 -2.7868
   54CHL1  H26C 3992   0.467   3.848   4.660 -1.6741 -0.6870  0.2812
   54CHL1   C27 3993   0.643   3.540   4.663 -0.1949 -0.6325 -0.2759
   54CHL1  H27A 3994   0.572   3.497   4.737  0.8129  2.1400  2.5352
   54CHL1  H27B 3995   0.667   3.465   4.585  1.6976  1.2701 -1.6295
   54CHL1  H27C 3996   0.740   3.553   4.717  0.0252  2.8217 -1.3018
   55CHL1    C3 3997   2.770   0.316   3.103  0.5798  0.2442 -0.1293
   55CHL1    H3 3998   2.787   0.208   3.084 -1.1254 -0.0282 -0.2282
   55CHL1    O3 3999   2.765   0.381   2.977 -0.0688 -0.1194  0.0975
   55CHL1   H3' 4000   2.704   0.455   2.985  0.2454  0.0874  0.6806
   55CHL1    C4 4001   2.628   0.345   3.163 -0.3335 -0.7063 -0.1086
   55CHL1   H4A 4002   2.623   0.456   3.171  1.9821 -0.4938 -0.7864
   55CHL1   H4B 4003   2.550   0.323   3.086  0.1202 -0.1033 -0.7579
   55CHL1    C5 4004   2.605   0.296   3.297 -0.1287  0.0227  0.2033
   55CHL1    C6 4005   2.499   0.216   3.332  0.4113  0.5073  0.6806
   55CHL1    H6 4006   2.420   0.185   3.263 -1.1687  1.0714  2.1543
   55CHL1    C7 4007   2.484   0.157   3.469  0.4969 -0.2452 -0.5830
   55CHL1   H7A 4008   2.390   0.186   3.520  1.3616  0.4937  0.6526
   55CHL1   H7B 4009   2.490   0.046   3.458 -1.2705 -0.3876 -0.4360
   55CHL1    C8 4010   2.588   0.204   3.574 -0.6037 -0.5804 -0.6611
   55CHL1    H8 4011   2.540   0.292   3.623 -1.0748 -1.3848  0.3775
   55CHL1   C14 4012   2.602   0.096   3.685  0.6737 -0.2027  0.1296
   55CHL1   H14 4013   2.654   0.013   3.632 -1.3753 -0.3719 -1.7281
   55CHL1   C15 4014   2.471   0.047   3.755 -0.8466  0.5590 -0.2063
   55CHL1  H15A 4015   2.411   0.133   3.792 -0.2405 -0.1405  2.6122
   55CHL1  H15B 4016   2.411  -0.017   3.687 -0.7270  0.3740 -0.1366
   55CHL1   C16 4017   2.524  -0.029   3.875  0.0294  0.2788  1.1214
   55CHL1  H16A 4018   2.477   0.000   3.972  0.5830  2.3425  0.8139
   55CHL1  H16B 4019   2.516  -0.139   3.865 -0.2888  0.3387  0.6852
   55CHL1   C17 4020   2.672   0.014   3.888  0.1227 -0.0348 -0.2916
   55CHL1   H17 4021   2.728  -0.064   3.831 -0.8965  0.4371 -2.0140
   55CHL1   C13 4022   2.691   0.140   3.797 -1.1250 -0.3023  0.4871
   55CHL1   C18 4023   2.633   0.268   3.869  0.0477 -0.5819  0.0112
   55CHL1  H18A 4024   2.698   0.296   3.955  1.3089 -0.8631 -0.8251
   55CHL1  H18B 4025   2.637   0.356   3.801  1.8924  1.1355  2.1747
   55CHL1  H18C 4026   2.529   0.262   3.906  0.9577 -2.8900  2.5125
   55CHL1   C12 4027   2.834   0.166   3.744 -0.1071  0.6848  0.4593
   55CHL1  H12A 4028   2.897   0.217   3.821  0.1698 -0.1811  0.8127
   55CHL1  H12B 4029   2.877   0.070   3.708 -0.9531  0.4168  0.1497
   55CHL1   C11 4030   2.823   0.262   3.622  1.0142 -0.4336  0.2721
   55CHL1  H11A 4031   2.808   0.362   3.668  1.3470 -0.0907 -0.3535
   55CHL1  H11B 4032   2.927   0.259   3.583  0.4237  0.9583 -1.5694
   55CHL1    C9 4033   2.721   0.226   3.512  0.1342 -0.4050  0.3073
   55CHL1    H9 4034   2.750   0.132   3.461 -0.5193 -0.4769  0.0555
   55CHL1   C10 4035   2.719   0.328   3.395 -0.7326  0.0922  0.3394
   55CHL1   C19 4036   2.691   0.471   3.447  0.5128 -0.1360  0.9856
   55CHL1  H19A 4037   2.684   0.549   3.368 -0.1777 -0.2277  0.9528
   55CHL1  H19B 4038   2.597   0.485   3.503  2.1462 -0.3595  3.9570
   55CHL1  H19C 4039   2.764   0.516   3.517  0.4790  2.2793 -0.3872
   55CHL1    C1 4040   2.867   0.320   3.333 -0.8525  0.1848 -0.1219
   55CHL1   H1A 4041   2.940   0.381   3.391 -0.3388  0.2400 -0.8071
   55CHL1   H1B 4042   2.912   0.219   3.325  0.6456  0.6536  1.5483
   55CHL1    C2 4043   2.877   0.378   3.188  0.7715  0.3228 -0.0488
   55CHL1   H2A 4044   2.976   0.350   3.145  0.8633 -0.3464  0.5749
   55CHL1   H2B 4045   2.871   0.489   3.187 -1.5073  0.2699  1.1131
   55CHL1   C20 4046   2.716   0.017   4.039  0.8397 -0.3186  0.6040
   55CHL1   H20 4047   2.661   0.102   4.086 -0.3948 -0.8302  0.1349
   55CHL1   C21 4048   2.870   0.039   4.056  0.6922 -0.0512 -0.5386
   55CHL1  H21A 4049   2.900   0.027   4.162 -3.2412  0.1736  0.7833
   55CHL1  H21B 4050   2.893   0.146   4.037  0.4007  0.5196  1.9891
   55CHL1  H21C 4051   2.916  -0.031   3.983 -1.5981 -0.8468 -1.3170
   55CHL1   C22 4052   2.680  -0.110   4.128 -0.8030 -0.2630 -0.0915
   55CHL1  H22A 4053   2.731  -0.080   4.222  0.8235  2.6016 -1.7546
   55CHL1  H22B 4054   2.570  -0.121   4.133 -0.7269 -1.5822 -0.7837
   55CHL1   C23 4055   2.740  -0.246   4.076 -0.3235  0.0484  0.3151
   55CHL1  H23A 4056   2.695  -0.261   3.976  0.1443 -0.3137  0.1528
   55CHL1  H23B 4057   2.851  -0.236   4.078 -0.3721  0.5397  0.9992
   55CHL1   C24 4058   2.697  -0.360   4.173 -0.1425 -0.0291 -0.2783
   55CHL1  H24A 4059   2.755  -0.345   4.267 -0.4841 -1.6021  0.2129
   55CHL1  H24B 4060   2.589  -0.364   4.200  0.1210 -2.0661  0.7088
   55CHL1   C25 4061   2.726  -0.503   4.114  0.6511  0.2481 -0.4105
   55CHL1   H25 4062   2.642  -0.529   4.046 -0.7088 -0.2523  1.4038
   55CHL1   C26 4063   2.865  -0.512   4.054 -0.1772  0.3438  0.6251
   55CHL1  H26A 4064   2.862  -0.617   4.020  0.9654  0.3420  0.4970
   55CHL1  H26B 4065   2.863  -0.442   3.968  0.6093 -1.5159 -0.9554
   55CHL1  H26C 4066   2.945  -0.492   4.129  1.5950  1.7530 -1.5026
   55CHL1   C27 4067   2.721  -0.612   4.229  0.0446 -0.5920  0.5005
   55CHL1  H27A 4068   2.721  -0.709   4.175  0.9153  0.1269 -0.8394
   55CHL1  H27B 4069   2.808  -0.609   4.298  0.7981  1.7706 -0.4360
   55CHL1  H27C 4070   2.630  -0.598   4.291  0.1155 -0.1249  0.5024
   56CHL1    C3 4071   5.044   4.409   3.143  0.7712 -0.0878  0.4506
   56CHL1    H3 4072   4.933   4.405   3.141  0.6691  1.7248 -0.7702
   56CHL1    O3 4073   5.100   4.389   3.013 -0.2617 -0.7084 -0.3363
   56CHL1   H3' 4074   5.190   4.359   3.030 -0.9456 -2.4978  0.3615
   56CHL1    C4 4075   5.085   4.540   3.193 -0.3702 -0.1628  0.0543
   56CHL1   H4A 4076   5.195   4.528   3.202 -0.0244  2.0593 -0.4924
   56CHL1   H4B 4077   5.064   4.621   3.120 -2.2103 -0.1784  0.5077
   56CHL1    C5 4078   5.040   4.576   3.337  0.2000  0.2499  0.4133
   56CHL1    C6 4079   4.969   4.687   3.356  0.3815 -0.4432  0.1059
   56CHL1    H6 4080   4.933   4.743   3.268  0.2679 -1.9272 -0.8256
   56CHL1    C7 4081   4.912   4.728   3.488  0.0681 -0.7269  1.1228
   56CHL1   H7A 4082   4.937   4.832   3.516 -1.6961  0.4835 -1.3938
   56CHL1   H7B 4083   4.802   4.710   3.489 -0.2626  0.7114 -1.5551
   56CHL1    C8 4084   4.984   4.653   3.601  0.0503 -0.0186  0.3635
   56CHL1    H8 4085   5.087   4.693   3.601  0.1226 -0.1522  1.9903
   56CHL1   C14 4086   4.901   4.664   3.731 -0.4029 -0.5013  0.3881
   56CHL1   H14 4087   4.800   4.620   3.713  0.0445 -1.0845 -0.8056
   56CHL1   C15 4088   4.865   4.808   3.763  0.1197 -0.3758 -0.3813
   56CHL1  H15A 4089   4.957   4.867   3.744  0.5508 -0.0423  2.3114
   56CHL1  H15B 4090   4.784   4.843   3.695  0.9984  2.1068 -0.2435
   56CHL1   C16 4091   4.835   4.801   3.910  0.4844  0.0657  0.0607
   56CHL1  H16A 4092   4.909   4.866   3.962  0.7519  0.1007 -0.3578
   56CHL1  H16B 4093   4.729   4.817   3.940  0.1346 -1.9953  0.0450
   56CHL1   C17 4094   4.864   4.656   3.957  0.9893 -0.0145 -0.1140
   56CHL1   H17 4095   4.773   4.592   3.947  1.0913 -0.5188  1.7369
   56CHL1   C13 4096   4.964   4.596   3.848  0.2748 -0.0891  0.2136
   56CHL1   C18 4097   5.114   4.646   3.868  0.6223 -0.0528 -0.1815
   56CHL1  H18A 4098   5.118   4.756   3.882 -0.7559  0.0894 -0.7719
   56CHL1  H18B 4099   5.156   4.604   3.962  1.2840 -0.0235 -0.4548
   56CHL1  H18C 4100   5.181   4.614   3.784  0.6159  0.8817 -0.5616
   56CHL1   C12 4101   4.955   4.450   3.811  0.8764  0.4998 -0.1360
   56CHL1  H12A 4102   4.992   4.381   3.889  1.7445  2.7327  1.5202
   56CHL1  H12B 4103   4.853   4.418   3.784  0.7401  0.4903  0.3874
   56CHL1   C11 4104   5.041   4.419   3.686 -0.1992 -0.0531  1.0903
   56CHL1  H11A 4105   5.149   4.435   3.710 -0.0333 -1.4737  1.4440
   56CHL1  H11B 4106   5.021   4.311   3.665  1.1189 -0.1683  0.2961
   56CHL1    C9 4107   4.997   4.502   3.568 -0.3149 -0.1948 -0.2119
   56CHL1    H9 4108   4.899   4.465   3.531 -0.3425  0.4576 -0.8153
   56CHL1   C10 4109   5.084   4.475   3.444  0.0431  0.2313  0.4959
   56CHL1   C19 4110   5.241   4.480   3.476 -0.7938 -0.5864 -0.3802
   56CHL1  H19A 4111   5.300   4.455   3.385  1.2420 -1.5859  1.1242
   56CHL1  H19B 4112   5.263   4.580   3.520  0.6408 -1.6208  1.3760
   56CHL1  H19C 4113   5.272   4.402   3.549  1.0744 -2.2773 -2.7996
   56CHL1    C1 4114   5.056   4.330   3.392  0.2624  0.6496  0.2542
   56CHL1   H1A 4115   5.123   4.263   3.450  0.4841 -1.3178 -2.1169
   56CHL1   H1B 4116   4.951   4.306   3.418 -0.0650  1.5520 -0.2143
   56CHL1    C2 4117   5.096   4.301   3.246 -0.5678 -0.6424  0.2890
   56CHL1   H2A 4118   5.052   4.205   3.211 -1.3548  0.3148 -1.4983
   56CHL1   H2B 4119   5.206   4.301   3.238 -0.5741 -0.9247  0.1686
   56CHL1   C20 4120   4.908   4.643   4.105 -0.5077 -0.1837  0.0077
   56CHL1   H20 4121   5.017   4.663   4.104 -0.7543  1.4813 -1.8862
   56CHL1   C21 4122   4.888   4.495   4.157  0.3277  0.1784  0.0667
   56CHL1  H21A 4123   4.944   4.471   4.250 -1.8138 -0.1271  1.3707
   56CHL1  H21B 4124   4.925   4.425   4.079  0.1345  0.3394 -0.1704
   56CHL1  H21C 4125   4.780   4.472   4.172  0.7614 -1.5287  0.8265
   56CHL1   C22 4126   4.836   4.749   4.189 -0.3601 -0.3853 -0.9176
   56CHL1  H22A 4127   4.841   4.852   4.147 -0.5121  0.9557  2.0594
   56CHL1  H22B 4128   4.734   4.708   4.209 -0.4625  1.0867  2.2453
   56CHL1   C23 4129   4.907   4.760   4.329  0.3664  0.0803 -0.0964
   56CHL1  H23A 4130   4.878   4.680   4.401 -0.9636 -0.3655 -1.0812
   56CHL1  H23B 4131   5.015   4.750   4.303  0.2269 -0.7930 -0.3830
   56CHL1   C24 4132   4.885   4.892   4.400 -0.1413 -0.2389  0.9180
   56CHL1  H24A 4133   4.946   4.906   4.492  1.4402 -1.7741  0.1752
   56CHL1  H24B 4134   4.918   4.979   4.339  1.5060  0.6194  2.8905
   56CHL1   C25 4135   4.737   4.915   4.444  0.4208  0.3294 -0.6412
   56CHL1   H25 4136   4.676   4.926   4.352 -0.1479  3.3584 -0.0136
   56CHL1   C26 4137   4.672   4.796   4.527  0.4637 -0.1176  0.7510
   56CHL1  H26A 4138   4.666   4.704   4.466  0.4524 -0.2970  1.0204
   56CHL1  H26B 4139   4.726   4.782   4.623 -0.3440 -0.5608  1.1504
   56CHL1  H26C 4140   4.571   4.833   4.554 -0.2713 -1.8868  0.5199
   56CHL1   C27 4141   4.723   5.055   4.509 -0.4801 -0.2073 -0.2876
   56CHL1  H27A 4142   4.624   5.057   4.558  0.4485 -0.8078  1.7229
   56CHL1  H27B 4143   4.795   5.061   4.594 -1.0848  0.0307  0.2175
   56CHL1  H27C 4144   4.738   5.142   4.441  0.4233 -1.2430 -1.4422
   57SAPC     N 4145   5.701   4.593   7.091  0.1934 -0.0292  0.6541
   57SAPC   C12 4146   5.633   4.715   7.025  0.1474  0.2143 -0.0320
   57SAPC  H12A 4147   5.711   4.776   6.981  2.9288 -1.7943  1.7151
   57SAPC  H12B 4148   5.597   4.782   7.102  3.0406  1.3901  0.4646
   57SAPC   C13 4149   5.791   4.631   7.195  0.3852 -0.0826 -0.1793
   57SAPC  H13A 4150   5.742   4.688   7.272  0.8702 -1.5243  1.2478
   57SAPC  H13B 4151   5.833   4.546   7.246 -1.1901 -0.7754  0.0144
   57SAPC  H13C 4152   5.869   4.692   7.151  0.8878 -0.5862 -0.0064
   57SAPC   C14 4153   5.590   4.502   7.151 -1.2434 -0.1144  0.3538
   57SAPC  H14A 4154   5.506   4.494   7.085 -1.2093 -1.1469  0.4188
   57SAPC  H14B 4155   5.631   4.403   7.166 -0.3806 -0.0981 -1.5753
   57SAPC  H14C 4156   5.566   4.541   7.249 -1.8439 -0.4133  0.3317
   57SAPC   C15 4157   5.777   4.505   6.992 -0.5405  0.4588 -0.3411
   57SAPC  H15A 4158   5.833   4.434   7.052  1.5207  1.3506 -1.0917
   57SAPC  H15B 4159   5.712   4.449   6.926 -1.2035  1.3921 -0.4892
   57SAPC  H15C 4160   5.851   4.561   6.938 -0.1020 -1.6499 -2.0632
   57SAPC   C11 4161   5.525   4.677   6.925  0.4159 -1.0005 -0.3953
   57SAPC  H11A 4162   5.553   4.586   6.868 -1.2479 -1.1101 -1.0917
   57SAPC  H11B 4163   5.508   4.763   6.858 -2.9051 -1.0650  0.2099
   57SAPC     P 4164   5.301   4.744   7.037  0.3399  0.0740 -0.0101
   57SAPC   O13 4165   5.176   4.674   7.064 -0.4688  0.3093  0.1921
   57SAPC   O14 4166   5.355   4.816   7.156  0.4216  0.1053  0.4807
   57SAPC   O12 4167   5.406   4.642   6.994 -0.5827  0.6883 -0.1139
   57SAPC   O11 4168   5.276   4.850   6.926  0.1499  0.0316  0.0448
   57SAPC    C1 4169   5.139   4.879   6.887  0.1870 -0.1361 -0.1135
   57SAPC    HA 4170   5.074   4.885   6.977 -1.1566 -1.1573 -0.9911
   57SAPC    HB 4171   5.131   4.984   6.853 -0.2005 -0.4786 -1.1175
   57SAPC    C2 4172   5.082   4.784   6.769 -0.2715  0.5179 -0.0678
   57SAPC    HS 4173   5.053   4.693   6.827 -0.4828  0.4902 -0.2166
   57SAPC   O21 4174   5.192   4.761   6.683 -0.1814  0.3094 -0.4099
   57SAPC   C21 4175   5.229   4.631   6.673  0.1855 -1.6152  0.8688
   57SAPC   O22 4176   5.180   4.540   6.730  0.5592 -0.1656  0.3319
   57SAPC   C22 4177   5.344   4.624   6.575  0.4674  0.0668  0.0953
   57SAPC   H2R 4178   5.379   4.720   6.532 -0.3801  0.9086  1.2428
   57SAPC   H2S 4179   5.438   4.601   6.629  2.4680  0.8384 -2.8125
   57SAPC    C3 4180   4.967   4.851   6.701 -0.1756  0.7727  0.2794
   57SAPC    HX 4181   5.011   4.930   6.636  1.1535 -1.1543 -1.2907
   57SAPC    HY 4182   4.903   4.888   6.784 -0.2307  1.0147  0.1292
   57SAPC   O31 4183   4.901   4.751   6.619 -0.5650  0.1148  0.4427
   57SAPC   C31 4184   4.779   4.789   6.574  0.5365 -0.7935  0.7519
   57SAPC   O32 4185   4.717   4.888   6.614 -0.2697  0.3591 -0.6750
   57SAPC   C32 4186   4.730   4.699   6.459  0.5647  0.0995 -0.5258
   57SAPC   H2X 4187   4.626   4.667   6.477  0.7879 -0.3417  0.0122
   57SAPC   H2Y 4188   4.808   4.623   6.437 -1.0088 -1.2220 -1.7550
   57SAPC   C23 4189   5.316   4.517   6.467 -0.2688 -0.3567 -0.9688
   57SAPC   H3R 4190   5.344   4.415   6.501 -0.3090 -0.3340 -0.8675
   57SAPC   H3S 4191   5.391   4.546   6.390 -0.1685  0.4627 -0.5762
   57SAPC   C24 4192   5.173   4.523   6.407 -0.0235  0.0596 -0.1958
   57SAPC   H4R 4193   5.098   4.510   6.488  1.1811 -0.0104  0.9601
   57SAPC   H4S 4194   5.153   4.433   6.346  0.3568 -0.1708  0.0116
   57SAPC   C25 4195   5.149   4.649   6.331 -0.8283  0.5001  0.8395
   57SAPC   H5R 4196   5.105   4.731   6.389 -2.8151  2.2181 -2.7698
   57SAPC   C26 4197   5.172   4.675   6.199 -0.3299  0.0217  0.2212
   57SAPC   H6R 4198   5.151   4.773   6.153  1.2933  0.4095  0.2600
   57SAPC   C27 4199   5.234   4.584   6.095  0.2555  0.1904 -0.5199
   57SAPC   H7R 4200   5.286   4.497   6.141  0.7356  0.7120 -0.0702
   57SAPC   H7S 4201   5.309   4.645   6.040 -0.0873 -0.4452 -1.7210
   57SAPC   C28 4202   5.129   4.529   5.997 -1.0067 -0.4732 -0.2326
   57SAPC   H8R 4203   5.059   4.464   6.052 -1.0719  1.4105  2.0665
   57SAPC   C29 4204   5.114   4.541   5.863  0.1574 -0.0759 -0.0234
   57SAPC   H9R 4205   5.035   4.480   5.818  0.1169  0.4172 -0.6395
   57SAPC  C210 4206   5.189   4.629   5.768 -0.0913  0.2956  0.1735
   57SAPC  H10R 4207   5.218   4.714   5.833 -4.1838  1.0770  1.2278
   57SAPC  H10S 4208   5.118   4.648   5.686 -1.0343 -0.5150  0.7832
   57SAPC  C211 4209   5.313   4.555   5.718 -0.0367 -0.1736  0.2095
   57SAPC  H11R 4210   5.386   4.538   5.799  2.4446  0.9528 -1.6806
   57SAPC  C212 4211   5.343   4.512   5.596 -0.1909  0.0403 -0.2572
   57SAPC  H12R 4212   5.443   4.475   5.569 -0.0034 -0.4913  1.1159
   57SAPC  C213 4213   5.256   4.533   5.473 -0.2790  0.6622 -0.4508
   57SAPC  H13R 4214   5.149   4.516   5.500 -0.5660  1.7672 -0.8227
   57SAPC  H13S 4215   5.285   4.454   5.401 -0.2715 -0.6694  0.9641
   57SAPC  C214 4216   5.273   4.674   5.424 -0.2038  1.4515  0.5383
   57SAPC  H14R 4217   5.243   4.756   5.492 -1.1506  2.1050 -0.6304
   57SAPC  C215 4218   5.339   4.705   5.310 -0.5166 -0.1488 -0.0570
   57SAPC  H15R 4219   5.336   4.813   5.287 -0.7608 -0.2735 -0.6359
   57SAPC  C216 4220   5.396   4.616   5.197 -0.6807 -0.0722  0.3393
   57SAPC  H16R 4221   5.341   4.520   5.196 -2.8591  1.1022 -1.3136
   57SAPC  H16S 4222   5.502   4.586   5.210 -1.5463 -4.7614 -1.4979
   57SAPC  C217 4223   5.372   4.670   5.058 -0.3590  0.5254  0.3433
   57SAPC  H17R 4224   5.428   4.765   5.044  1.1227 -0.1606  1.2886
   57SAPC  H17S 4225   5.264   4.694   5.051 -0.5132  0.0755  1.0323
   57SAPC  C218 4226   5.412   4.578   4.942  0.5467 -0.6897 -0.0902
   57SAPC  H18R 4227   5.506   4.535   4.983  0.2311 -1.9978 -0.6897
   57SAPC  H18S 4228   5.415   4.631   4.845  1.4928 -1.3163 -0.4172
   57SAPC  C219 4229   5.312   4.463   4.938  0.1199 -0.3626  0.0388
   57SAPC  H19R 4230   5.209   4.499   4.919  0.4213  0.6904  0.3321
   57SAPC  H19S 4231   5.330   4.396   5.024  2.0240 -0.3907 -0.3279
   57SAPC  C220 4232   5.339   4.384   4.806 -0.0886 -0.1544  0.0519
   57SAPC  H20R 4233   5.305   4.440   4.717 -1.4292 -2.4754 -0.9964
   57SAPC  H20S 4234   5.277   4.292   4.809 -0.6674  0.2304  0.0903
   57SAPC  H20T 4235   5.446   4.361   4.790 -0.0060  0.0134  0.3584
   57SAPC   C33 4236   4.722   4.785   6.332  0.0908 -0.6522  0.2843
   57SAPC   H3X 4237   4.825   4.816   6.302  0.3072 -0.5784  1.0700
   57SAPC   H3Y 4238   4.666   4.879   6.350 -0.9835 -0.9671 -1.2378
   57SAPC   C34 4239   4.675   4.696   6.215  0.2938  1.4117 -0.0869
   57SAPC   H4X 4240   4.572   4.658   6.232  0.9816  0.0054  1.2346
   57SAPC   H4Y 4241   4.731   4.600   6.219 -1.4788  0.3436  0.0717
   57SAPC   C35 4242   4.686   4.767   6.081 -0.3390  0.2958  0.0493
   57SAPC   H5X 4243   4.791   4.790   6.052  0.1524 -2.8626 -1.0411
   57SAPC   H5Y 4244   4.626   4.861   6.074 -0.1082  0.3085 -2.3440
   57SAPC   C36 4245   4.635   4.669   5.980  0.1915  0.3341  0.3641
   57SAPC   H6X 4246   4.525   4.652   5.983  0.3425 -0.6808  0.4626
   57SAPC   H6Y 4247   4.682   4.571   6.000  0.7400  0.5141 -0.0067
   57SAPC   C37 4248   4.684   4.699   5.842 -0.2096 -0.3257  0.4928
   57SAPC   H7X 4249   4.791   4.676   5.823 -0.4158 -0.3179 -0.7862
   57SAPC   H7Y 4250   4.668   4.803   5.807  0.6918 -0.7762 -1.3804
   57SAPC   C38 4251   4.598   4.625   5.737  0.0444  0.5036  1.0454
   57SAPC   H8X 4252   4.500   4.676   5.745  0.4318  1.2260  1.3320
   57SAPC   H8Y 4253   4.591   4.520   5.770  0.1244  0.3679  0.6404
   57SAPC   C39 4254   4.666   4.622   5.599 -0.2238 -0.5642 -0.2712
   57SAPC   H9X 4255   4.705   4.715   5.551  0.0481 -1.1890 -1.2945
   57SAPC   H9Y 4256   4.595   4.584   5.522 -1.0185  0.8365 -0.2858
   57SAPC  C310 4257   4.790   4.519   5.599  0.2097 -0.3635  0.4944
   57SAPC  H10X 4258   4.741   4.420   5.607 -4.6605  1.5648 -1.9132
   57SAPC  H10Y 4259   4.865   4.544   5.677  0.4575 -0.6204  0.3433
   57SAPC  C311 4260   4.881   4.508   5.474  0.0498 -0.1491 -0.1275
   57SAPC  H11X 4261   4.950   4.422   5.487  0.0964  0.0507  1.1053
   57SAPC  H11Y 4262   4.942   4.600   5.482 -0.0603 -0.1335  0.6522
   57SAPC  C312 4263   4.803   4.490   5.342 -0.3140  0.2131  0.0802
   57SAPC  H12X 4264   4.748   4.585   5.325  0.3592  0.9609  1.8128
   57SAPC  H12Y 4265   4.735   4.402   5.349 -0.7887  0.3980 -1.8813
   57SAPC  C313 4266   4.894   4.452   5.226  0.0063 -0.4036 -0.2640
   57SAPC  H13X 4267   4.954   4.368   5.268  0.6450 -0.2097 -0.7751
   57SAPC  H13Y 4268   4.974   4.522   5.194  1.6535 -1.5090  1.2539
   57SAPC  C314 4269   4.801   4.409   5.105 -0.1887 -0.0689  0.1116
   57SAPC  H14X 4270   4.721   4.486   5.101  1.5191  1.8160  0.7326
   57SAPC  H14Y 4271   4.749   4.314   5.130  0.3064  0.4187  3.4985
   57SAPC  C315 4272   4.883   4.402   4.969  0.1337  0.2000 -0.2264
   57SAPC  H15X 4273   4.958   4.320   4.975 -1.1560 -0.9252  2.3147
   57SAPC  H15Y 4274   4.942   4.495   4.958  1.8909 -0.3974  2.7996
   57SAPC  C316 4275   4.798   4.382   4.844 -0.1315  0.1734  1.1582
   57SAPC  H16X 4276   4.719   4.460   4.843 -0.2994  0.0106  1.5380
   57SAPC  H16Y 4277   4.753   4.281   4.849  3.3716 -1.5953  0.1120
   57SAPC  C317 4278   4.870   4.381   4.706 -0.6253 -0.1680 -0.7635
   57SAPC  H17X 4279   4.803   4.330   4.633 -0.1738  0.4633 -1.6479
   57SAPC  H17Y 4280   4.955   4.311   4.716  0.0935  0.6861 -0.7073
   57SAPC  C318 4281   4.910   4.520   4.666  0.0434 -0.2746 -0.0901
   57SAPC  H18X 4282   4.943   4.535   4.561 -0.6769  0.4588 -0.2234
   57SAPC  H18Y 4283   4.996   4.555   4.727  2.0533  0.4940 -3.0832
   57SAPC  H18Z 4284   4.830   4.592   4.693  0.8158  0.1052  1.2565
   58SAPC     N 4285   5.794   1.409   6.873 -0.5364 -0.5720 -0.3663
   58SAPC   C12 4286   5.870   1.550   6.871 -0.5123 -0.6760  0.1118
   58SAPC  H12A 4287   5.976   1.527   6.871 -0.7296 -1.8685 -1.1864
   58SAPC  H12B 4288   5.848   1.599   6.964 -0.0460  0.2830 -0.2767
   58SAPC   C13 4289   5.646   1.430   6.892 -0.2971 -0.6009 -0.6037
   58SAPC  H13A 4290   5.604   1.498   6.819  1.6843  0.5670 -0.7102
   58SAPC  H13B 4291   5.594   1.336   6.878  1.4422 -1.6012 -0.5357
   58SAPC  H13C 4292   5.620   1.467   6.990 -2.0255  0.5158 -1.4276
   58SAPC   C14 4293   5.823   1.333   6.747  0.3197 -0.1289 -0.3458
   58SAPC  H14A 4294   5.927   1.305   6.756 -0.0027 -0.6583  3.4971
   58SAPC  H14B 4295   5.765   1.242   6.749 -0.9110  0.6284  0.7396
   58SAPC  H14C 4296   5.800   1.390   6.658 -1.1162  0.4239  0.3440
   58SAPC   C15 4297   5.837   1.331   6.986  0.1074 -0.3360  0.2644
   58SAPC  H15A 4298   5.810   1.377   7.080 -1.5639 -0.5443 -0.0781
   58SAPC  H15B 4299   5.792   1.233   6.994 -1.4242  0.0356 -2.5596
   58SAPC  H15C 4300   5.943   1.312   6.993  0.0108 -1.3896 -0.8281
   58SAPC   C11 4301   5.826   1.658   6.767 -0.6541  0.0002  0.0367
   58SAPC  H11A 4302   5.829   1.609   6.667  1.7265  0.2344 -0.0832
   58SAPC  H11B 4303   5.893   1.747   6.766 -3.1987  2.0314  0.8014
   58SAPC     P 4304   5.652   1.784   6.918 -0.3869 -0.5432 -0.0270
   58SAPC   O13 4305   5.516   1.738   6.948  0.7707  0.0626 -0.2231
   58SAPC   O14 4306   5.758   1.769   7.024 -0.4972  0.6055  0.3349
   58SAPC   O12 4307   5.701   1.711   6.788 -0.9664  0.5916  0.0533
   58SAPC   O11 4308   5.642   1.942   6.884 -0.3826 -0.1854 -0.7261
   58SAPC    C1 4309   5.548   1.972   6.782  0.6241  0.4068  0.0608
   58SAPC    HA 4310   5.466   1.897   6.774  1.0954 -0.1080 -0.0101
   58SAPC    HB 4311   5.499   2.071   6.795 -0.4352  0.1118 -1.4207
   58SAPC    C2 4312   5.610   1.978   6.641  0.8247  0.2606 -0.4888
   58SAPC    HS 4313   5.632   1.872   6.616 -0.1478  0.2730 -1.4457
   58SAPC   O21 4314   5.723   2.059   6.648 -0.7071 -0.2477 -0.0030
   58SAPC   C21 4315   5.823   2.036   6.563  0.8035  0.2785 -0.3546
   58SAPC   O22 4316   5.825   1.945   6.483  0.1557 -0.4211 -0.2643
   58SAPC   C22 4317   5.941   2.124   6.593 -1.3255  0.6161  0.2597
   58SAPC   H2R 4318   5.991   2.084   6.684 -0.0412  0.3736 -0.5287
   58SAPC   H2S 4319   5.999   2.106   6.500 -1.4395 -1.5985  0.5515
   58SAPC    C3 4320   5.510   2.016   6.527 -0.1451  0.2067  0.4026
   58SAPC    HX 4321   5.477   2.121   6.544 -1.4684  0.5022 -3.2246
   58SAPC    HY 4322   5.411   1.967   6.535 -0.8862  1.9260  4.8269
   58SAPC   O31 4323   5.571   2.019   6.404 -0.2227  0.3980  0.1559
   58SAPC   C31 4324   5.582   1.895   6.353  0.3075 -0.0228  0.7033
   58SAPC   O32 4325   5.554   1.784   6.403  0.7005  0.3055  0.3100
   58SAPC   C32 4326   5.670   1.902   6.223  0.1852 -0.4976 -0.1824
   58SAPC   H2X 4327   5.775   1.908   6.256  0.2646 -1.8945 -0.1174
   58SAPC   H2Y 4328   5.661   1.998   6.169  1.0926  0.1869  0.8492
   58SAPC   C23 4329   5.903   2.272   6.605  0.4195 -0.4328  0.4654
   58SAPC   H3R 4330   5.825   2.293   6.681 -1.2316  0.0242 -1.2638
   58SAPC   H3S 4331   5.863   2.318   6.512  2.0775  1.4236  0.5954
   58SAPC   C24 4332   6.027   2.362   6.641  0.4748 -0.2130 -0.2120
   58SAPC   H4R 4333   6.101   2.363   6.558  1.0312  0.7572  0.2812
   58SAPC   H4S 4334   6.083   2.322   6.729 -0.7564 -0.6580  0.3877
   58SAPC   C25 4335   5.984   2.499   6.683 -0.1426 -0.4989 -0.5275
   58SAPC   H5R 4336   5.979   2.510   6.793  1.0405  0.7402 -0.5698
   58SAPC   C26 4337   5.993   2.601   6.598  0.6632 -0.2530  0.2301
   58SAPC   H6R 4338   5.951   2.693   6.640  2.1882  0.5266  0.1022
   58SAPC   C27 4339   6.027   2.588   6.450 -0.7441  0.5850  0.1954
   58SAPC   H7R 4340   6.055   2.488   6.411  0.0115  1.7377 -2.4519
   58SAPC   H7S 4341   6.120   2.648   6.441  1.5429 -2.1806  3.0000
   58SAPC   C28 4342   5.922   2.665   6.377  0.1043  0.4662 -0.0262
   58SAPC   H8R 4343   5.952   2.771   6.383  3.4966 -0.4528  1.5515
   58SAPC   C29 4344   5.821   2.619   6.302  0.3603 -0.0944  0.2489
   58SAPC   H9R 4345   5.744   2.682   6.257 -0.2251 -0.8702  0.1340
   58SAPC  C210 4346   5.797   2.471   6.273  0.2518  0.1971 -0.4844
   58SAPC  H10R 4347   5.890   2.413   6.292 -0.0905 -1.1045 -2.4903
   58SAPC  H10S 4348   5.790   2.468   6.162 -0.5909  0.1676 -0.4342
   58SAPC  C211 4349   5.676   2.411   6.349 -1.2373  0.1554 -0.0463
   58SAPC  H11R 4350   5.677   2.426   6.458 -0.9091  2.8229 -0.3471
   58SAPC  C212 4351   5.577   2.345   6.297 -0.4175  0.7445  0.8635
   58SAPC  H12R 4352   5.501   2.298   6.361  2.6302 -1.8639  2.8870
   58SAPC  C213 4353   5.561   2.321   6.150  0.6785 -0.1178 -0.3680
   58SAPC  H13R 4354   5.614   2.230   6.115 -1.2911 -1.6349  0.3666
   58SAPC  H13S 4355   5.600   2.405   6.089 -1.3387  0.6749 -0.6449
   58SAPC  C214 4356   5.422   2.295   6.102 -0.8594  0.9155  0.5511
   58SAPC  H14R 4357   5.338   2.325   6.167  0.4373  2.1298  1.7287
   58SAPC  C215 4358   5.400   2.224   5.987  0.4838  0.1799  0.3785
   58SAPC  H15R 4359   5.297   2.202   5.956  0.5800  1.6386 -1.0828
   58SAPC  C216 4360   5.500   2.174   5.885  0.0879  0.4652 -0.4856
   58SAPC  H16R 4361   5.498   2.065   5.862 -0.1032  0.8760 -2.6210
   58SAPC  H16S 4362   5.608   2.194   5.903 -0.2216  0.1551  2.1116
   58SAPC  C217 4363   5.462   2.236   5.751 -0.4418  0.1548 -0.7839
   58SAPC  H17R 4364   5.449   2.345   5.763  0.1399  0.1143  0.3834
   58SAPC  H17S 4365   5.377   2.185   5.700  1.0670 -1.5396 -1.7549
   58SAPC  C218 4366   5.579   2.220   5.645 -0.3057 -0.4969 -0.2573
   58SAPC  H18R 4367   5.607   2.113   5.655 -0.8469 -0.4611  2.4208
   58SAPC  H18S 4368   5.663   2.280   5.687 -1.5294  0.5963  0.6914
   58SAPC  C219 4369   5.560   2.254   5.498  0.8870 -0.4184  0.2172
   58SAPC  H19R 4370   5.557   2.365   5.492 -2.1689 -0.4642 -1.2578
   58SAPC  H19S 4371   5.456   2.223   5.473  0.0536  1.9332  0.4738
   58SAPC  C220 4372   5.673   2.202   5.420 -0.1827  0.2351 -0.7729
   58SAPC  H20R 4373   5.680   2.094   5.446 -2.1672 -0.4140 -2.6710
   58SAPC  H20S 4374   5.764   2.262   5.442  0.5977 -0.0837 -2.8778
   58SAPC  H20T 4375   5.649   2.207   5.312 -1.0951 -0.3482 -0.6051
   58SAPC   C33 4376   5.645   1.775   6.135  0.4168 -0.2179 -0.3248
   58SAPC   H3X 4377   5.538   1.753   6.115 -0.1759  0.6769  1.5917
   58SAPC   H3Y 4378   5.678   1.683   6.188 -4.1167 -1.3549  0.9232
   58SAPC   C34 4379   5.714   1.779   6.003  0.1660  0.0973  0.8230
   58SAPC   H4X 4380   5.820   1.796   6.031  0.8549  1.5070 -2.2304
   58SAPC   H4Y 4381   5.689   1.856   5.926 -1.5099 -0.4452  0.7794
   58SAPC   C35 4382   5.697   1.644   5.938 -0.1612 -0.3676  0.0346
   58SAPC   H5X 4383   5.590   1.612   5.938 -1.2893  2.9670  1.7302
   58SAPC   H5Y 4384   5.757   1.568   5.992 -0.9376 -1.0287 -0.0118
   58SAPC   C36 4385   5.744   1.644   5.793 -0.3181 -0.0506 -0.0213
   58SAPC   H6X 4386   5.822   1.570   5.768 -0.8693 -0.8102  0.4485
   58SAPC   H6Y 4387   5.791   1.743   5.781  0.4093  0.0887  3.1011
   58SAPC   C37 4388   5.625   1.641   5.690 -0.8545  0.0260 -0.3743
   58SAPC   H7X 4389   5.563   1.732   5.704  0.3850  0.7302  0.7976
   58SAPC   H7Y 4390   5.550   1.561   5.708 -0.9678 -0.0192 -1.0404
   58SAPC   C38 4391   5.676   1.621   5.548 -0.3047 -0.2783 -0.4661
   58SAPC   H8X 4392   5.743   1.532   5.543  1.5769  1.0607 -0.4917
   58SAPC   H8Y 4393   5.747   1.706   5.536  1.6286 -1.6620  0.6440
   58SAPC   C39 4394   5.565   1.620   5.445  0.1509  0.2413  0.0616
   58SAPC   H9X 4395   5.537   1.716   5.396  0.1753 -0.6827 -1.8398
   58SAPC   H9Y 4396   5.482   1.556   5.481  1.1720 -0.8205  0.5718
   58SAPC  C310 4397   5.613   1.548   5.313  0.3383 -0.2272  0.6823
   58SAPC  H10X 4398   5.659   1.456   5.354  3.7120  2.0188  2.3212
   58SAPC  H10Y 4399   5.688   1.618   5.271  3.0672 -2.2863  1.8533
   58SAPC  C311 4400   5.505   1.505   5.212 -0.5150  0.5760 -0.2934
   58SAPC  H11X 4401   5.423   1.455   5.269  0.1481  0.6600  0.7578
   58SAPC  H11Y 4402   5.550   1.425   5.149  1.3232 -0.5476  2.2638
   58SAPC  C312 4403   5.445   1.622   5.127  0.2473 -0.7719  0.5851
   58SAPC  H12X 4404   5.519   1.672   5.060  0.0741 -0.4774  0.6084
   58SAPC  H12Y 4405   5.414   1.694   5.205  0.4442  1.5726 -1.3634
   58SAPC  C313 4406   5.317   1.599   5.036  0.2639  0.3416 -0.1825
   58SAPC  H13X 4407   5.232   1.589   5.107 -1.7657  2.0032 -2.2335
   58SAPC  H13Y 4408   5.323   1.509   4.971  1.5578 -0.1087  0.5335
   58SAPC  C314 4409   5.291   1.726   4.954  0.0184 -0.0054  0.7511
   58SAPC  H14X 4410   5.380   1.744   4.890 -2.2143  1.3915 -2.1417
   58SAPC  H14Y 4411   5.277   1.812   5.023  0.4584 -0.0006  0.8382
   58SAPC  C315 4412   5.161   1.726   4.870 -1.3520  0.4134  0.1540
   58SAPC  H15X 4413   5.144   1.628   4.820 -0.8209 -1.0343  2.6242
   58SAPC  H15Y 4414   5.158   1.807   4.794 -3.9739  0.8538  0.6285
   58SAPC  C316 4415   5.038   1.750   4.959 -0.0274 -0.0837 -0.0874
   58SAPC  H16X 4416   5.020   1.857   4.986 -1.3327 -0.6532  1.4956
   58SAPC  H16Y 4417   5.056   1.698   5.055 -0.3111 -0.6033 -0.3125
   58SAPC  C317 4418   4.911   1.692   4.899  0.9020  0.6786 -0.1728
   58SAPC  H17X 4419   4.927   1.582   4.888  0.0507  0.3558  1.6087
   58SAPC  H17Y 4420   4.894   1.744   4.802 -3.6614  0.4232  0.2592
   58SAPC  C318 4421   4.776   1.691   4.981 -1.3376  0.5305 -0.2065
   58SAPC  H18X 4422   4.681   1.664   4.930 -1.5467 -1.0109  0.9241
   58SAPC  H18Y 4423   4.759   1.794   5.021  0.8285  0.4948  0.9455
   58SAPC  H18Z 4424   4.797   1.627   5.069  0.0255 -1.6357 -2.0264
   59SAPC     N 4425   0.706   5.036   7.357 -0.5887  0.4154  0.5446
   59SAPC   C12 4426   0.854   5.069   7.321  0.1443  0.4661  0.1374
   59SAPC  H12A 4427   0.886   5.035   7.223 -2.1797 -0.1806 -0.4526
   59SAPC  H12B 4428   0.919   5.008   7.383  0.1158 -1.8431 -1.9318
   59SAPC   C13 4429   0.618   5.131   7.281  0.3408 -0.0784 -0.1191
   59SAPC  H13A 4430   0.515   5.118   7.312 -0.1693 -2.0945 -2.4106
   59SAPC  H13B 4431   0.650   5.231   7.306 -0.9315  0.9061 -2.1557
   59SAPC  H13C 4432   0.622   5.114   7.175  0.2380 -0.5414 -0.0509
   59SAPC   C14 4433   0.669   4.895   7.322 -0.0841 -0.4432  0.3346
   59SAPC  H14A 4434   0.722   4.822   7.380  0.9171 -0.2963 -0.3609
   59SAPC  H14B 4435   0.561   4.888   7.324 -0.2827  1.8364  0.8444
   59SAPC  H14C 4436   0.707   4.881   7.221  2.0970 -0.4878  1.1132
   59SAPC   C15 4437   0.679   5.060   7.501 -0.4016  0.2381 -0.6646
   59SAPC  H15A 4438   0.708   4.977   7.563  0.2769  0.0021 -1.2760
   59SAPC  H15B 4439   0.726   5.151   7.536 -1.9675  1.5692 -1.8752
   59SAPC  H15C 4440   0.576   5.078   7.527 -0.6363  0.1435 -1.4986
   59SAPC   C11 4441   0.895   5.219   7.336 -0.1015 -0.1098 -0.0174
   59SAPC  H11A 4442   1.005   5.235   7.345 -0.0535 -0.0500 -0.6578
   59SAPC  H11B 4443   0.855   5.251   7.434  0.3512 -1.7162  0.7221
   59SAPC     P 4444   0.936   5.359   7.117  0.6156 -0.1512 -0.4725
   59SAPC   O13 4445   1.008   5.472   7.185 -0.1522  0.3915 -0.4236
   59SAPC   O14 4446   1.007   5.246   7.053 -0.3250 -0.7456  0.1564
   59SAPC   O12 4447   0.840   5.286   7.225  0.3363  0.2859  0.1903
   59SAPC   O11 4448   0.824   5.411   7.028 -0.0002 -0.0624  0.4811
   59SAPC    C1 4449   0.734   5.331   6.954 -0.2002  0.3528 -0.9968
   59SAPC    HA 4450   0.761   5.226   6.977  3.1438  1.4681  0.7810
   59SAPC    HB 4451   0.628   5.351   6.983  0.0534  1.3027 -0.6997
   59SAPC    C2 4452   0.756   5.348   6.809 -0.0810  0.7448  0.1737
   59SAPC    HS 4453   0.861   5.324   6.784  0.3769 -0.1488  2.6042
   59SAPC   O21 4454   0.712   5.478   6.761 -0.7561  0.0742 -0.8084
   59SAPC   C21 4455   0.771   5.515   6.650 -0.3345  0.9563 -0.0870
   59SAPC   O22 4456   0.862   5.457   6.595  0.4646  0.1341 -0.1944
   59SAPC   C22 4457   0.708   5.637   6.598 -0.0956 -0.3218 -0.9719
   59SAPC   H2R 4458   0.601   5.610   6.591 -0.5884  1.0171  0.7935
   59SAPC   H2S 4459   0.721   5.724   6.666  2.0213 -0.3205 -1.2995
   59SAPC    C3 4460   0.680   5.224   6.738 -0.1425 -0.3558  0.0981
   59SAPC    HX 4461   0.576   5.242   6.773 -0.3201 -1.7750  0.3519
   59SAPC    HY 4462   0.715   5.125   6.773 -1.0293 -0.7831 -0.2209
   59SAPC   O31 4463   0.677   5.241   6.596  0.2328 -0.4917 -0.7737
   59SAPC   C31 4464   0.777   5.179   6.538 -0.0848 -0.3125 -0.5760
   59SAPC   O32 4465   0.870   5.116   6.586 -0.0303  0.1726  0.2148
   59SAPC   C32 4466   0.757   5.190   6.390 -0.6550  0.1428  0.0349
   59SAPC   H2X 4467   0.816   5.277   6.355 -1.2348  0.4102 -0.2941
   59SAPC   H2Y 4468   0.648   5.200   6.369 -0.3565 -0.2994 -1.9681
   59SAPC   C23 4469   0.765   5.676   6.455 -0.3221 -0.2119 -1.2180
   59SAPC   H3R 4470   0.876   5.666   6.464 -0.3511  0.7909  1.1120
   59SAPC   H3S 4471   0.750   5.786   6.450 -3.7555 -0.4874  0.4262
   59SAPC   C24 4472   0.706   5.598   6.343 -0.0266  0.0689  0.2281
   59SAPC   H4R 4473   0.597   5.582   6.358 -0.1419  0.6323  0.0095
   59SAPC   H4S 4474   0.748   5.496   6.342  0.2606  0.1101 -2.9141
   59SAPC   C25 4475   0.730   5.653   6.208  0.3248  0.2852  0.7190
   59SAPC   H5R 4476   0.678   5.747   6.183 -0.1756  0.0342  0.8134
   59SAPC   C26 4477   0.806   5.599   6.105 -0.1436 -1.1654  0.1511
   59SAPC   H6R 4478   0.814   5.660   6.014  0.8781 -0.3019  0.8056
   59SAPC   C27 4479   0.885   5.470   6.110  0.6153 -0.6416  0.3486
   59SAPC   H7R 4480   0.925   5.450   6.008 -1.0986 -0.7241 -0.3492
   59SAPC   H7S 4481   0.810   5.392   6.135 -2.4649  1.6333 -1.0058
   59SAPC   C28 4482   0.996   5.464   6.209  0.7373 -0.1928 -0.2007
   59SAPC   H8R 4483   0.965   5.490   6.311 -0.7035 -1.4239 -0.2943
   59SAPC   C29 4484   1.128   5.430   6.186  0.6244 -0.5360 -0.1500
   59SAPC   H9R 4485   1.207   5.446   6.261 -0.3379  0.5960  0.6637
   59SAPC  C210 4486   1.175   5.381   6.048 -0.0309 -0.8837 -0.2247
   59SAPC  H10R 4487   1.107   5.304   6.004  0.7983 -1.9594  0.3225
   59SAPC  H10S 4488   1.272   5.331   6.067  0.6122  0.1248 -0.7537
   59SAPC  C211 4489   1.207   5.492   5.940 -0.7170  0.9301  0.0220
   59SAPC  H11R 4490   1.231   5.594   5.973  1.4479  0.0611  1.4133
   59SAPC  C212 4491   1.215   5.470   5.810 -0.4346 -0.3381  0.1396
   59SAPC  H12R 4492   1.244   5.553   5.743 -0.3901  0.6204  1.3052
   59SAPC  C213 4493   1.191   5.338   5.736 -1.2202 -0.3731  0.1758
   59SAPC  H13R 4494   1.087   5.341   5.697 -0.5295 -1.3302 -1.9116
   59SAPC  H13S 4495   1.206   5.253   5.805  1.1143  0.6010  0.9980
   59SAPC  C214 4496   1.276   5.333   5.607 -0.1743 -0.2530  0.3657
   59SAPC  H14R 4497   1.369   5.278   5.626 -0.9074 -1.6153  0.1416
   59SAPC  C215 4498   1.234   5.386   5.485 -0.6044 -0.3025 -0.3791
   59SAPC  H15R 4499   1.309   5.372   5.405 -0.5088  2.7959 -0.9646
   59SAPC  C216 4500   1.106   5.453   5.457  0.2987 -0.6924  0.5819
   59SAPC  H16R 4501   1.037   5.455   5.543  0.4739  2.1776  0.7559
   59SAPC  H16S 4502   1.071   5.401   5.365  0.9355  2.1051 -1.3555
   59SAPC  C217 4503   1.128   5.601   5.425 -0.5553  0.4252 -0.3838
   59SAPC  H17R 4504   1.179   5.648   5.511 -0.2687 -1.0655  0.2862
   59SAPC  H17S 4505   1.031   5.654   5.411 -0.5031  0.6806  0.2410
   59SAPC  C218 4506   1.197   5.629   5.296  0.1666  0.1125  0.9296
   59SAPC  H18R 4507   1.290   5.571   5.279  0.5311  0.9116  0.1412
   59SAPC  H18S 4508   1.229   5.735   5.292 -1.0791  0.4762 -0.4306
   59SAPC  C219 4509   1.106   5.595   5.176  0.6132 -0.3855 -0.0509
   59SAPC  H19R 4510   1.009   5.645   5.197 -0.1068 -1.7170 -0.0978
   59SAPC  H19S 4511   1.083   5.487   5.164 -1.1145  0.2117 -3.4133
   59SAPC  C220 4512   1.166   5.640   5.042 -0.2388 -0.3731 -0.0161
   59SAPC  H20R 4513   1.182   5.749   5.059  2.0556 -0.8597  1.2658
   59SAPC  H20S 4514   1.096   5.632   4.956  0.1031  0.7792 -0.4264
   59SAPC  H20T 4515   1.255   5.585   5.007  0.7678  1.7560 -1.0281
   59SAPC   C33 4516   0.811   5.070   6.307 -0.2111 -0.0581 -0.7825
   59SAPC   H3X 4517   0.725   5.001   6.293 -1.0230  0.2863  1.9588
   59SAPC   H3Y 4518   0.881   5.006   6.365  2.4866  2.2221 -1.3404
   59SAPC   C34 4519   0.872   5.114   6.176  0.8318 -0.6592 -0.3604
   59SAPC   H4X 4520   0.965   5.174   6.189  0.7895 -0.8052  0.6622
   59SAPC   H4Y 4521   0.802   5.180   6.122  1.9564  1.4587  0.6475
   59SAPC   C35 4522   0.887   4.988   6.085 -0.1091 -0.4127 -0.0741
   59SAPC   H5X 4523   0.789   4.937   6.076  1.1186 -3.0019  0.4295
   59SAPC   H5Y 4524   0.945   4.930   6.159  0.4752 -1.6407 -1.4391
   59SAPC   C36 4525   0.950   5.017   5.949 -0.1645 -0.1248  0.0505
   59SAPC   H6X 4526   0.966   4.914   5.910 -1.9762  0.4443 -2.4646
   59SAPC   H6Y 4527   1.050   5.061   5.972 -0.1156  0.6528 -1.5066
   59SAPC   C37 4528   0.859   5.108   5.867  0.2617  0.0956 -0.7117
   59SAPC   H7X 4529   0.879   5.214   5.895 -1.6715  1.0452 -2.6096
   59SAPC   H7Y 4530   0.755   5.078   5.890  1.1882 -0.8482  2.8474
   59SAPC   C38 4531   0.884   5.088   5.716  0.0085 -0.4932  0.2544
   59SAPC   H8X 4532   0.990   5.071   5.689 -0.6002 -0.8177 -2.1516
   59SAPC   H8Y 4533   0.831   5.164   5.654 -1.1435  0.5070  2.3481
   59SAPC   C39 4534   0.828   4.954   5.656  0.4572 -0.1942  0.7640
   59SAPC   H9X 4535   0.732   4.927   5.705 -1.4000  1.9326 -1.4919
   59SAPC   H9Y 4536   0.900   4.874   5.686 -0.7292 -1.6751 -0.1952
   59SAPC  C310 4537   0.818   4.957   5.499  0.4128 -0.3474  0.7359
   59SAPC  H10X 4538   0.917   4.978   5.451  1.8581 -2.9294  2.3333
   59SAPC  H10Y 4539   0.744   5.030   5.459  1.7806 -0.3179 -2.0683
   59SAPC  C311 4540   0.782   4.819   5.442 -0.4338 -0.2842 -0.2061
   59SAPC  H11X 4541   0.703   4.764   5.496  0.6759 -0.2514  1.5243
   59SAPC  H11Y 4542   0.873   4.757   5.458 -1.2655 -1.1156  1.5216
   59SAPC  C312 4543   0.757   4.810   5.286 -0.4824  0.7118  0.1545
   59SAPC  H12X 4544   0.839   4.854   5.225  0.0355 -1.3934 -0.7900
   59SAPC  H12Y 4545   0.670   4.878   5.273 -0.7840  0.5607  1.2444
   59SAPC  C313 4546   0.706   4.675   5.237  0.0841  0.4962  0.1651
   59SAPC  H13X 4547   0.612   4.655   5.292  0.5101 -1.4471  0.2545
   59SAPC  H13Y 4548   0.772   4.586   5.247  0.2957  0.2128 -2.8183
   59SAPC  C314 4549   0.655   4.690   5.093 -0.8987 -0.4969 -0.4080
   59SAPC  H14X 4550   0.595   4.783   5.097 -0.3075  0.0284 -2.4854
   59SAPC  H14Y 4551   0.578   4.613   5.070 -1.7541  1.0133 -2.9944
   59SAPC  C315 4552   0.772   4.709   4.996  0.3751 -0.8668  0.1397
   59SAPC  H15X 4553   0.798   4.606   4.964  0.1168 -1.1568  0.8434
   59SAPC  H15Y 4554   0.861   4.759   5.038  1.6913 -2.0857 -1.0899
   59SAPC  C316 4555   0.732   4.785   4.868 -0.2944  0.0013  0.3803
   59SAPC  H16X 4556   0.716   4.889   4.905  0.3897 -0.7221  2.8764
   59SAPC  H16Y 4557   0.645   4.730   4.825 -0.0114 -1.9943  2.1857
   59SAPC  C317 4558   0.847   4.780   4.762 -0.0242  0.0164 -0.2568
   59SAPC  H17X 4559   0.939   4.831   4.799  0.0071  1.9836 -2.7153
   59SAPC  H17Y 4560   0.820   4.827   4.665 -1.3961  0.6386  0.3962
   59SAPC  C318 4561   0.883   4.639   4.718 -0.4680 -0.1426 -0.0888
   59SAPC  H18X 4562   0.914   4.572   4.802 -0.9299 -0.6687 -0.3334
   59SAPC  H18Y 4563   0.966   4.637   4.645 -1.3115 -2.0408 -1.0576
   59SAPC  H18Z 4564   0.798   4.589   4.668 -1.0884  0.9761 -0.1706
   60SAPC     N 4565   5.982   6.954   7.123 -0.0885  0.4020  0.5724
   60SAPC   C12 4566   6.032   6.872   6.997  0.7190  0.2832  0.1982
   60SAPC  H12A 4567   6.012   6.768   7.021 -0.6999  0.5116  0.0857
   60SAPC  H12B 4568   6.136   6.885   6.973  1.4515 -2.5384  1.3614
   60SAPC   C13 4569   6.063   6.906   7.248  0.3513  0.3216  0.8526
   60SAPC  H13A 4570   6.046   6.968   7.335  3.8955  1.4618  0.9227
   60SAPC  H13B 4571   6.030   6.804   7.263 -0.2421 -0.2877 -3.3795
   60SAPC  H13C 4572   6.170   6.902   7.230  0.1397 -0.0764 -0.4282
   60SAPC   C14 4573   6.024   7.098   7.103  0.6421 -0.5693 -0.4060
   60SAPC  H14A 4574   6.129   7.100   7.078  0.5455 -0.3990 -0.8118
   60SAPC  H14B 4575   5.965   7.146   7.026  0.1275  2.9828  1.9678
   60SAPC  H14C 4576   6.023   7.151   7.197 -0.2908 -0.0364 -0.6972
   60SAPC   C15 4577   5.834   6.942   7.149 -0.5927 -0.1865 -0.2230
   60SAPC  H15A 4578   5.802   6.861   7.213  1.4521 -0.7937  0.1107
   60SAPC  H15B 4579   5.792   7.029   7.198 -2.4573 -1.4985  0.6333
   60SAPC  H15C 4580   5.778   6.927   7.058 -2.4450 -1.6977  1.0847
   60SAPC   C11 4581   5.956   6.905   6.865  0.4366  0.1110  0.1358
   60SAPC  H11A 4582   6.002   6.845   6.784  2.3154 -0.7417  1.7265
   60SAPC  H11B 4583   5.964   7.014   6.845 -1.8843 -0.0071 -2.0238
   60SAPC     P 4584   5.746   6.744   6.861  0.0119 -0.0456 -0.1648
   60SAPC   O13 4585   5.830   6.642   6.926 -0.2488  0.0626 -0.0605
   60SAPC   O14 4586   5.607   6.770   6.912 -0.4402  0.6232 -0.8489
   60SAPC   O12 4587   5.817   6.884   6.871  1.1412 -0.7758 -0.0843
   60SAPC   O11 4588   5.727   6.719   6.705 -0.4084  0.6072  0.0348
   60SAPC    C1 4589   5.814   6.758   6.605 -0.4636 -0.5761 -0.3668
   60SAPC    HA 4590   5.809   6.868   6.596  0.3737 -0.5680 -0.8413
   60SAPC    HB 4591   5.917   6.729   6.634  0.4376  1.8005 -0.9595
   60SAPC    C2 4592   5.778   6.707   6.465 -0.0461  0.6005  0.2572
   60SAPC    HS 4593   5.874   6.709   6.409 -1.0270  0.2760 -1.5304
   60SAPC   O21 4594   5.672   6.791   6.409  0.6325 -0.1625  0.3740
   60SAPC   C21 4595   5.687   6.802   6.274 -0.5953 -0.0597  0.0139
   60SAPC   O22 4596   5.778   6.752   6.209  0.4124  0.2024 -0.1230
   60SAPC   C22 4597   5.582   6.892   6.218 -0.5317  0.0138  0.2977
   60SAPC   H2R 4598   5.484   6.890   6.270  0.2174 -0.8385  1.7469
   60SAPC   H2S 4599   5.628   6.993   6.230  0.4386 -0.2569 -0.9391
   60SAPC    C3 4600   5.715   6.565   6.474  0.5515 -0.4308 -0.0447
   60SAPC    HX 4601   5.605   6.577   6.489  0.5211 -1.3681  0.5569
   60SAPC    HY 4602   5.747   6.518   6.569 -1.1812 -1.5572  0.0201
   60SAPC   O31 4603   5.735   6.488   6.353 -0.1953 -0.6014 -0.4408
   60SAPC   C31 4604   5.854   6.446   6.339 -0.7372 -0.1754 -0.0620
   60SAPC   O32 4605   5.950   6.452   6.419  0.0015 -0.4315  0.0201
   60SAPC   C32 4606   5.865   6.373   6.203 -0.1428 -0.2439 -0.7023
   60SAPC   H2X 4607   5.773   6.314   6.186 -0.6616 -0.1802  1.5168
   60SAPC   H2Y 4608   5.948   6.299   6.214 -1.9975 -2.3970 -0.2641
   60SAPC   C23 4609   5.575   6.878   6.065 -0.1266 -0.1494  0.5161
   60SAPC   H3R 4610   5.547   6.775   6.033 -2.4786  0.9864 -1.4523
   60SAPC   H3S 4611   5.672   6.896   6.015  0.1990 -1.9208  0.4356
   60SAPC   C24 4612   5.478   6.973   6.002 -0.3527 -0.2484  0.7229
   60SAPC   H4R 4613   5.516   7.074   6.029  1.6030 -0.4994 -0.9176
   60SAPC   H4S 4614   5.383   6.959   6.059 -0.0897  0.9231  1.4962
   60SAPC   C25 4615   5.462   6.967   5.856 -0.0439  0.0059  1.2835
   60SAPC   H5R 4616   5.553   6.930   5.807  0.8782  1.0202  2.1856
   60SAPC   C26 4617   5.359   6.996   5.776 -0.1591  0.5573  0.2291
   60SAPC   H6R 4618   5.364   6.979   5.667  1.4270  0.6102  0.2584
   60SAPC   C27 4619   5.219   7.040   5.809  0.3279 -0.1228  0.1639
   60SAPC   H7R 4620   5.162   7.054   5.715  1.1496 -1.2426 -0.5283
   60SAPC   H7S 4621   5.209   7.137   5.862 -0.3880  1.0738 -2.0246
   60SAPC   C28 4622   5.139   6.932   5.893  0.1982  0.4051  0.8924
   60SAPC   H8R 4623   5.164   6.936   6.000 -0.2895 -1.2527  1.0893
   60SAPC   C29 4624   5.053   6.845   5.845  0.2164 -0.1494  0.0090
   60SAPC   H9R 4625   4.995   6.785   5.918  0.4149 -0.2940  0.0484
   60SAPC  C210 4626   5.008   6.830   5.703  0.3253  0.3627 -0.5668
   60SAPC  H10R 4627   5.065   6.748   5.654 -0.2456  0.0069 -0.6369
   60SAPC  H10S 4628   5.042   6.913   5.637  1.6550  0.5365  0.3029
   60SAPC  C211 4629   4.862   6.824   5.689  0.2529  0.2012 -0.0986
   60SAPC  H11R 4630   4.816   6.793   5.784 -0.2131  1.2795  0.0525
   60SAPC  C212 4631   4.786   6.848   5.577 -0.1534 -0.2116  0.4259
   60SAPC  H12R 4632   4.678   6.858   5.596 -0.3204 -0.2563 -0.4693
   60SAPC  C213 4633   4.837   6.918   5.456 -0.6674 -0.4020 -0.1639
   60SAPC  H13R 4634   4.898   6.851   5.391  0.1307 -0.6198  0.7800
   60SAPC  H13S 4635   4.907   6.998   5.487 -0.3760 -1.2081  1.3478
   60SAPC  C214 4636   4.725   6.965   5.370 -0.2506 -0.6967  0.5251
   60SAPC  H14R 4637   4.644   7.010   5.429  0.9465  0.7564  1.1264
   60SAPC  C215 4638   4.713   6.963   5.233  0.6621 -0.1217 -0.4615
   60SAPC  H15R 4639   4.619   6.994   5.184  1.6744  0.2160 -2.2934
   60SAPC  C216 4640   4.812   6.924   5.126 -0.2901 -0.2249 -0.6017
   60SAPC  H16R 4641   4.911   6.961   5.163 -0.4706  0.9229 -1.2112
   60SAPC  H16S 4642   4.779   6.972   5.031  0.9177  2.0013  0.0392
   60SAPC  C217 4643   4.828   6.770   5.108  0.2944 -0.5996 -0.6309
   60SAPC  H17R 4644   4.735   6.720   5.074 -0.5022  0.1308  0.4308
   60SAPC  H17S 4645   4.836   6.741   5.215 -0.8199 -2.7293 -1.0750
   60SAPC  C218 4646   4.956   6.721   5.037  0.1402 -0.5308 -0.2880
   60SAPC  H18R 4647   4.965   6.618   5.076  1.6661  0.3810  1.9801
   60SAPC  H18S 4648   5.043   6.786   5.058 -1.5974  1.1495  2.4597
   60SAPC  C219 4649   4.935   6.720   4.886  0.1840  0.2687  0.5739
   60SAPC  H19R 4650   4.910   6.816   4.834 -1.2181 -2.2228 -3.8960
   60SAPC  H19S 4651   4.849   6.656   4.857 -0.7413  1.6132  0.1988
   60SAPC  C220 4652   5.071   6.659   4.828  0.8765  0.2213 -0.6289
   60SAPC  H20R 4653   5.062   6.553   4.860 -1.4273  0.7156  0.5866
   60SAPC  H20S 4654   5.161   6.699   4.878  1.4378 -0.0270 -1.4216
   60SAPC  H20T 4655   5.085   6.686   4.721 -1.2049  1.6337 -0.6163
   60SAPC   C33 4656   5.895   6.477   6.092  0.0736  0.0019 -0.7049
   60SAPC   H3X 4657   6.002   6.505   6.105  0.3417 -1.7853  1.6502
   60SAPC   H3Y 4658   5.834   6.570   6.095  1.1444  0.7138 -0.1217
   60SAPC   C34 4659   5.888   6.419   5.951 -0.4001  0.0016  0.3993
   60SAPC   H4X 4660   5.791   6.370   5.929 -0.3313  0.5730 -1.4128
   60SAPC   H4Y 4661   5.970   6.346   5.935 -0.2314  0.2594  0.0446
   60SAPC   C35 4662   5.914   6.526   5.838 -0.4819 -0.5778  0.9517
   60SAPC   H5X 4663   6.022   6.549   5.851 -0.4409 -0.9116  1.2053
   60SAPC   H5Y 4664   5.854   6.617   5.859 -0.8635 -0.1235 -1.7407
   60SAPC   C36 4665   5.881   6.479   5.700  0.2780 -1.1529 -0.4850
   60SAPC   H6X 4666   5.772   6.487   5.681 -0.1289 -4.0801  0.0998
   60SAPC   H6Y 4667   5.912   6.373   5.683  1.3180 -1.0597  0.7181
   60SAPC   C37 4668   5.949   6.563   5.586  0.9500 -0.0881  0.3330
   60SAPC   H7X 4669   6.059   6.547   5.591  0.8396 -0.8367  0.5110
   60SAPC   H7Y 4670   5.933   6.670   5.613  1.4914  0.2213 -0.5309
   60SAPC   C38 4671   5.905   6.521   5.445 -0.5321 -0.0825 -0.2246
   60SAPC   H8X 4672   5.796   6.503   5.438 -0.4989 -0.5662  0.3676
   60SAPC   H8Y 4673   5.946   6.421   5.418  0.5135 -0.5256  2.6235
   60SAPC   C39 4674   5.963   6.620   5.341  0.0742  0.0208  0.2483
   60SAPC   H9X 4675   5.951   6.575   5.240  0.1087 -0.6831  0.5467
   60SAPC   H9Y 4676   6.071   6.621   5.366 -0.0977  2.2844  1.0469
   60SAPC  C310 4677   5.899   6.758   5.340  0.5719 -0.4220  0.6871
   60SAPC  H10X 4678   5.912   6.802   5.441 -0.5958  0.0185  0.6710
   60SAPC  H10Y 4679   5.791   6.739   5.319  0.5365 -0.2088  0.6735
   60SAPC  C311 4680   5.966   6.843   5.237 -0.0240 -0.7730  0.8203
   60SAPC  H11X 4681   5.973   6.795   5.137  0.5827 -0.6361  0.7889
   60SAPC  H11Y 4682   6.073   6.854   5.265 -0.0439 -0.0652  0.6453
   60SAPC  C312 4683   5.911   6.987   5.208 -0.5508  0.4437 -0.0308
   60SAPC  H12X 4684   5.939   7.069   5.278  1.2152 -0.2927  0.1712
   60SAPC  H12Y 4685   5.802   6.975   5.222 -0.4468 -1.6572 -0.6614
   60SAPC  C313 4686   5.917   7.029   5.062 -0.2753 -0.5496  0.9858
   60SAPC  H13X 4687   5.855   7.116   5.033  3.6161  1.8070 -1.2253
   60SAPC  H13Y 4688   5.875   6.939   5.013  0.4346  0.0797 -0.8472
   60SAPC  C314 4689   6.061   7.041   5.009  0.1695 -0.1848  0.2318
   60SAPC  H14X 4690   6.121   6.958   5.051 -1.2043 -1.8003 -0.8466
   60SAPC  H14Y 4691   6.101   7.137   5.049  1.4260 -0.3623 -0.5569
   60SAPC  C315 4692   6.061   7.038   4.852  0.9442 -0.6366  0.1769
   60SAPC  H15X 4693   5.975   6.983   4.807 -0.2863  1.0005  0.4201
   60SAPC  H15Y 4694   6.161   7.005   4.819  0.6807 -0.3134 -0.9941
   60SAPC  C316 4695   6.060   7.178   4.791 -0.5224 -0.2433 -0.8329
   60SAPC  H16X 4696   6.142   7.236   4.838 -1.1524  1.4778 -1.7776
   60SAPC  H16Y 4697   5.963   7.226   4.816  0.7311  0.4136  3.8934
   60SAPC  C317 4698   6.069   7.173   4.638  0.0432 -0.6230 -0.2532
   60SAPC  H17X 4699   6.158   7.113   4.610 -0.3845 -1.4493  0.1198
   60SAPC  H17Y 4700   6.084   7.278   4.604 -0.3965 -0.4693  0.0219
   60SAPC  C318 4701   5.948   7.101   4.588  0.4585  0.0312  0.4680
   60SAPC  H18X 4702   5.977   6.995   4.579  1.8593  0.3324  1.0420
   60SAPC  H18Y 4703   5.916   7.139   4.489  1.9865  0.9869  0.2946
   60SAPC  H18Z 4704   5.874   7.116   4.669  1.7458  1.1091  1.5101
   61SAPC     N 4705   2.713   5.995   7.404 -0.4969  0.1519  0.7958
   61SAPC   C12 4706   2.748   5.868   7.334 -1.0606 -0.0265  0.9965
   61SAPC  H12A 4707   2.669   5.797   7.357 -0.0057 -1.7495 -0.3827
   61SAPC  H12B 4708   2.832   5.821   7.382 -2.6796 -1.7935  2.2581
   61SAPC   C13 4709   2.834   6.081   7.410 -0.2504  0.0370  0.2161
   61SAPC  H13A 4710   2.867   6.100   7.309 -0.5897 -0.2487  0.0454
   61SAPC  H13B 4711   2.819   6.176   7.458 -0.2065  0.1409  0.0231
   61SAPC  H13C 4712   2.909   6.031   7.469 -0.3383 -0.7705 -0.3422
   61SAPC   C14 4713   2.603   6.065   7.327 -0.3074 -0.3747 -0.1545
   61SAPC  H14A 4714   2.512   6.010   7.309 -0.2633  0.0909 -1.9943
   61SAPC  H14B 4715   2.570   6.149   7.387  0.8528  0.5519 -0.7764
   61SAPC  H14C 4716   2.631   6.113   7.235  1.0377  0.7577  0.7976
   61SAPC   C15 4717   2.667   5.977   7.543  0.1626 -0.5309  0.3861
   61SAPC  H15A 4718   2.562   5.951   7.547 -0.6502  2.1834 -1.2386
   61SAPC  H15B 4719   2.725   5.909   7.605  0.7459  0.0721  0.5061
   61SAPC  H15C 4720   2.670   6.068   7.601  0.0614  0.0632 -0.5382
   61SAPC   C11 4721   2.781   5.873   7.188 -0.6756  0.0343 -0.2001
   61SAPC  H11A 4722   2.811   5.772   7.152  1.2782  1.2227 -2.2033
   61SAPC  H11B 4723   2.874   5.934   7.182  0.6954 -1.9088  0.1412
   61SAPC     P 4724   2.549   5.832   7.071  0.1004  0.2424 -0.0997
   61SAPC   O13 4725   2.572   5.690   7.123 -0.4461  0.4924  0.3349
   61SAPC   O14 4726   2.430   5.896   7.132 -0.3788 -1.0773  0.2934
   61SAPC   O12 4727   2.677   5.913   7.103 -0.0937  0.2316  0.5285
   61SAPC   O11 4728   2.545   5.839   6.912  0.2992  0.3417 -0.7671
   61SAPC    C1 4729   2.541   5.970   6.853  0.4615 -0.6434 -0.6249
   61SAPC    HA 4730   2.551   6.054   6.925 -0.7349  1.1277 -2.4044
   61SAPC    HB 4731   2.623   5.986   6.781  1.2258  0.6418  0.4868
   61SAPC    C2 4732   2.401   5.985   6.794 -0.4153 -0.3154  0.7384
   61SAPC    HS 4733   2.337   5.978   6.884 -0.2392 -2.6188  0.7468
   61SAPC   O21 4734   2.374   5.876   6.705 -0.2215  0.0560 -0.0998
   61SAPC   C21 4735   2.249   5.842   6.690  0.4828  0.3669 -0.8880
   61SAPC   O22 4736   2.162   5.883   6.766  0.0380 -0.0253  0.1296
   61SAPC   C22 4737   2.232   5.744   6.573 -0.3255 -0.6308  0.0600
   61SAPC   H2R 4738   2.167   5.792   6.498 -2.0532 -1.0105  1.2551
   61SAPC   H2S 4739   2.329   5.723   6.522 -0.4822  1.4670 -1.2168
   61SAPC    C3 4740   2.381   6.120   6.728  0.6362  0.1914 -0.3236
   61SAPC    HX 4741   2.389   6.204   6.800 -1.0989  1.6591 -1.7110
   61SAPC    HY 4742   2.278   6.128   6.686  1.1932 -0.0884 -1.8261
   61SAPC   O31 4743   2.479   6.157   6.629 -0.7057  0.4732  0.0128
   61SAPC   C31 4744   2.446   6.131   6.504 -0.4994  0.0514 -0.0569
   61SAPC   O32 4745   2.341   6.078   6.467  0.2566 -0.6842  0.0584
   61SAPC   C32 4746   2.561   6.163   6.411  0.2444 -0.8843  0.5392
   61SAPC   H2X 4747   2.653   6.128   6.461  0.4903 -0.2346  0.5486
   61SAPC   H2Y 4748   2.568   6.274   6.412 -0.3242 -0.8417  0.3061
   61SAPC   C23 4749   2.153   5.611   6.610  0.4605  0.6607 -0.0923
   61SAPC   H3R 4750   2.084   5.630   6.695 -2.5656  0.6929 -2.4277
   61SAPC   H3S 4751   2.234   5.542   6.643  0.7972  1.7917  1.6539
   61SAPC   C24 4752   2.075   5.551   6.491  0.6530 -0.7658 -1.0246
   61SAPC   H4R 4753   2.042   5.450   6.521 -1.7277 -0.0377 -0.9692
   61SAPC   H4S 4754   2.156   5.522   6.421  0.5100  0.1308 -1.5818
   61SAPC   C25 4755   1.963   5.628   6.433 -0.2518  0.2482  0.4352
   61SAPC   H5R 4756   1.891   5.672   6.504 -0.7878  0.5900 -0.3042
   61SAPC   C26 4757   1.957   5.667   6.309 -0.4434  0.0199 -0.0777
   61SAPC   H6R 4758   1.881   5.738   6.273 -1.9355 -2.0554 -1.2360
   61SAPC   C27 4759   2.056   5.637   6.198 -0.5367  1.0200  0.4691
   61SAPC   H7R 4760   2.121   5.549   6.219 -1.7203  0.0474  0.1236
   61SAPC   H7S 4761   2.126   5.720   6.174  0.8275 -0.0276  0.6432
   61SAPC   C28 4762   1.984   5.586   6.070 -0.3257 -0.3649 -0.6321
   61SAPC   H8R 4763   1.940   5.486   6.070  3.0247 -1.9537 -0.2165
   61SAPC   C29 4764   1.962   5.671   5.964 -0.2503 -0.0893  0.3495
   61SAPC   H9R 4765   1.914   5.631   5.874 -1.6986 -1.0098  1.4878
   61SAPC  C210 4766   1.998   5.819   5.961 -0.0205 -0.3729  0.7548
   61SAPC  H10R 4767   1.985   5.852   6.066  2.0357 -1.7974  1.4986
   61SAPC  H10S 4768   1.934   5.878   5.891  1.0344 -0.2336 -0.1241
   61SAPC  C211 4769   2.140   5.863   5.937 -0.5590 -0.0874  0.2971
   61SAPC  H11R 4770   2.197   5.884   6.028  1.7031 -0.8595 -0.8633
   61SAPC  C212 4771   2.192   5.882   5.815  0.5435 -0.9004  0.0339
   61SAPC  H12R 4772   2.292   5.930   5.812 -0.3695  1.1674  0.6515
   61SAPC  C213 4773   2.123   5.861   5.686  0.6253  1.0375 -0.1975
   61SAPC  H13R 4774   2.032   5.924   5.677 -0.9260 -1.0651  0.0491
   61SAPC  H13S 4775   2.087   5.756   5.683 -0.6883  1.4422  0.8766
   61SAPC  C214 4776   2.201   5.871   5.553  0.6791  0.2596  0.2437
   61SAPC  H14R 4777   2.310   5.876   5.566  0.5021  1.5537  1.4910
   61SAPC  C215 4778   2.144   5.904   5.433 -0.3780 -0.9556  0.2678
   61SAPC  H15R 4779   2.207   5.917   5.345 -0.8190 -1.6430 -0.1592
   61SAPC  C216 4780   2.001   5.900   5.397 -0.1731  0.4510 -0.4105
   61SAPC  H16R 4781   1.965   6.005   5.387  2.8297  1.4824 -1.5332
   61SAPC  H16S 4782   1.952   5.847   5.481 -1.1681 -1.9932 -2.4095
   61SAPC  C217 4783   1.969   5.818   5.273 -0.2350 -0.0434 -0.4923
   61SAPC  H17R 4784   1.858   5.818   5.272 -0.2400 -0.7248 -1.0583
   61SAPC  H17S 4785   2.002   5.714   5.296 -0.8102 -0.2665 -0.6342
   61SAPC  C218 4786   2.018   5.888   5.142 -0.3763  0.0956 -0.6285
   61SAPC  H18R 4787   2.125   5.919   5.146 -0.1749 -0.4120 -1.6646
   61SAPC  H18S 4788   1.960   5.982   5.155 -0.2261  0.1968 -0.6866
   61SAPC  C219 4789   2.002   5.813   5.013 -0.4315  1.0714  0.2510
   61SAPC  H19R 4790   2.054   5.716   4.998 -0.1325  0.9843  1.6688
   61SAPC  H19S 4791   2.048   5.867   4.928  1.1140 -1.4959 -0.6677
   61SAPC  C220 4792   1.857   5.781   4.989  1.2861 -0.8126 -0.8745
   61SAPC  H20R 4793   1.805   5.879   4.996  1.5565 -0.6169 -1.4951
   61SAPC  H20S 4794   1.819   5.712   5.066 -0.6786 -0.5465 -1.5530
   61SAPC  H20T 4795   1.837   5.747   4.885 -0.8226 -0.3308 -0.6824
   61SAPC   C33 4796   2.540   6.111   6.262  0.2240  0.2757  0.1027
   61SAPC   H3X 4797   2.448   6.158   6.224 -0.6730 -2.6166 -1.6197
   61SAPC   H3Y 4798   2.520   6.002   6.269 -0.8288  0.4992  0.8543
   61SAPC   C34 4799   2.660   6.139   6.177  0.1870  0.3488  0.1245
   61SAPC   H4X 4800   2.752   6.089   6.215 -0.1136 -1.7014 -1.6327
   61SAPC   H4Y 4801   2.677   6.248   6.176 -2.4080  0.8451 -1.8749
   61SAPC   C35 4802   2.635   6.071   6.043  0.8279  0.3460 -0.3891
   61SAPC   H5X 4803   2.538   6.108   6.002  1.1116 -1.4464 -2.8980
   61SAPC   H5Y 4804   2.628   5.961   6.040 -1.3947  0.4619 -2.5278
   61SAPC   C36 4805   2.742   6.123   5.952 -0.0086 -0.1879 -0.1205
   61SAPC   H6X 4806   2.833   6.062   5.969  0.0025  0.2390  1.5049
   61SAPC   H6Y 4807   2.763   6.229   5.976  0.2332 -0.4174  0.7179
   61SAPC   C37 4808   2.702   6.115   5.806  0.8334 -0.3726 -0.0285
   61SAPC   H7X 4809   2.609   6.174   5.799  0.3530 -1.2583 -1.7949
   61SAPC   H7Y 4810   2.670   6.009   5.795 -1.9850  0.5337 -1.3544
   61SAPC   C38 4811   2.810   6.138   5.706 -0.0103 -0.7036  0.3138
   61SAPC   H8X 4812   2.900   6.075   5.722  0.6666  0.2154  0.1773
   61SAPC   H8Y 4813   2.858   6.232   5.740  2.0390 -2.3225  2.1942
   61SAPC   C39 4814   2.789   6.147   5.557  0.3988  0.0143 -0.0492
   61SAPC   H9X 4815   2.882   6.155   5.497  0.5999  1.3155  0.4061
   61SAPC   H9Y 4816   2.738   6.244   5.539  0.7093  0.4365  1.2458
   61SAPC  C310 4817   2.708   6.030   5.498  0.6183 -0.2292  0.8630
   61SAPC  H10X 4818   2.597   6.036   5.508  0.8309  0.0855  4.5610
   61SAPC  H10Y 4819   2.732   5.942   5.560  0.4998 -0.9576 -0.1078
   61SAPC  C311 4820   2.734   5.995   5.356  0.8254 -0.0105  0.6543
   61SAPC  H11X 4821   2.703   5.892   5.328 -2.0652  1.2505 -1.2409
   61SAPC  H11Y 4822   2.843   5.995   5.332  1.0631 -0.9899  1.6218
   61SAPC  C312 4823   2.662   6.087   5.255  0.2595  0.2971  0.0490
   61SAPC  H12X 4824   2.693   6.193   5.263  1.8034 -0.0875 -0.4581
   61SAPC  H12Y 4825   2.555   6.088   5.281 -0.2905  1.9535 -2.0144
   61SAPC  C313 4826   2.669   6.039   5.109 -0.9785  0.0702  0.0131
   61SAPC  H13X 4827   2.631   5.934   5.108  0.8708 -0.6462  0.7382
   61SAPC  H13Y 4828   2.776   6.045   5.082 -0.8292 -0.8070  0.3652
   61SAPC  C314 4829   2.593   6.140   5.022  0.2919  0.3457  0.2651
   61SAPC  H14X 4830   2.640   6.239   5.043  1.3491 -0.4876  2.0466
   61SAPC  H14Y 4831   2.491   6.156   5.063 -0.1873  0.8085 -1.0325
   61SAPC  C315 4832   2.577   6.108   4.880 -0.8025 -0.3150 -0.3605
   61SAPC  H15X 4833   2.517   6.014   4.877  1.2769 -1.8546  2.2429
   61SAPC  H15Y 4834   2.667   6.078   4.823 -0.5720 -1.0240  0.3598
   61SAPC  C316 4835   2.520   6.231   4.806  0.7639 -0.4450  0.1130
   61SAPC  H16X 4836   2.610   6.291   4.781  1.3319 -0.6327  1.6537
   61SAPC  H16Y 4837   2.462   6.298   4.872  0.5240 -2.2205  1.8031
   61SAPC  C317 4838   2.449   6.192   4.670 -0.0003  0.3139  0.0371
   61SAPC  H17X 4839   2.341   6.167   4.676  0.2280 -0.6015  0.5334
   61SAPC  H17Y 4840   2.509   6.113   4.621 -2.0234  0.6074 -3.1846
   61SAPC  C318 4841   2.462   6.303   4.567 -1.0174  0.5830 -0.2182
   61SAPC  H18X 4842   2.391   6.302   4.482 -1.0947 -0.3347 -0.1480
   61SAPC  H18Y 4843   2.567   6.312   4.530 -0.4447  1.0182  1.3895
   61SAPC  H18Z 4844   2.446   6.396   4.626 -0.5851  0.2359  0.4661
   62SAPC     N 4845   4.888   3.982   7.492  0.2954  0.4418 -0.5503
   62SAPC   C12 4846   4.992   3.907   7.403  0.1507 -0.3456 -0.3222
   62SAPC  H12A 4847   5.005   3.809   7.446 -2.2592 -0.2209  0.8805
   62SAPC  H12B 4848   5.084   3.964   7.408  0.5113 -0.9668  0.1995
   62SAPC   C13 4849   4.919   3.975   7.644  0.4947  1.2424  0.2865
   62SAPC  H13A 4850   4.859   4.043   7.701  2.1903  0.7940  2.7504
   62SAPC  H13B 4851   4.900   3.876   7.682  0.0016  0.8390 -0.9434
   62SAPC  H13C 4852   5.025   3.996   7.648  0.8829  0.8170 -3.6509
   62SAPC   C14 4853   4.882   4.128   7.463 -0.6908  0.6842  0.1700
   62SAPC  H14A 4854   4.977   4.178   7.474 -0.3312  0.2567 -0.8675
   62SAPC  H14B 4855   4.858   4.144   7.359  0.8453  3.7246  0.1894
   62SAPC  H14C 4856   4.812   4.183   7.524 -1.7169  0.6185 -0.9197
   62SAPC   C15 4857   4.749   3.921   7.469 -0.1916 -0.1167  0.0956
   62SAPC  H15A 4858   4.679   3.963   7.539 -1.0368 -1.4050  0.0671
   62SAPC  H15B 4859   4.717   3.959   7.373  1.1681  0.4150 -0.1640
   62SAPC  H15C 4860   4.742   3.814   7.486  0.0469 -0.0435  0.6907
   62SAPC   C11 4861   4.974   3.891   7.251  0.7836  0.1792 -0.2773
   62SAPC  H11A 4862   4.874   3.844   7.240  0.5633 -0.1722  2.5100
   62SAPC  H11B 4863   5.039   3.814   7.205  1.5270 -0.9595  2.4904
   62SAPC     P 4864   5.118   4.079   7.156  0.0218 -0.7802 -0.2535
   62SAPC   O13 4865   5.106   4.206   7.083  0.1150 -0.4010 -0.3699
   62SAPC   O14 4866   5.175   4.122   7.287 -0.3177  0.1170 -0.5785
   62SAPC   O12 4867   4.976   4.014   7.174 -0.4001 -0.1324 -0.2484
   62SAPC   O11 4868   5.211   3.977   7.086  0.4983  0.2803 -0.4457
   62SAPC    C1 4869   5.219   3.969   6.943 -0.5775 -0.7080  0.2429
   62SAPC    HA 4870   5.248   3.866   6.916 -0.3175 -0.9822  1.5049
   62SAPC    HB 4871   5.118   3.975   6.896  0.0235 -0.5685 -1.0636
   62SAPC    C2 4872   5.310   4.082   6.880 -0.0883 -0.2573  0.3904
   62SAPC    HS 4873   5.257   4.180   6.871  2.9400  1.4551 -0.2878
   62SAPC   O21 4874   5.367   4.050   6.752  0.5929  0.3359  0.2323
   62SAPC   C21 4875   5.291   4.086   6.645 -0.6597 -0.4881 -0.0569
   62SAPC   O22 4876   5.178   4.128   6.648 -0.2950 -0.3458 -0.0042
   62SAPC   C22 4877   5.358   4.047   6.518 -0.1710 -0.1952  0.7980
   62SAPC   H2R 4878   5.451   4.106   6.502  0.8143 -2.0734 -1.0236
   62SAPC   H2S 4879   5.383   3.939   6.528  1.5486  0.2693  1.9332
   62SAPC    C3 4880   5.428   4.109   6.978  1.1027 -0.5855 -0.4067
   62SAPC    HX 4881   5.472   4.027   7.039  1.3725 -0.1495 -0.0103
   62SAPC    HY 4882   5.387   4.181   7.052  0.0268  0.0029 -1.5401
   62SAPC   O31 4883   5.536   4.180   6.912  0.4049 -0.0794 -0.4580
   62SAPC   C31 4884   5.641   4.105   6.897  0.3559  0.1516  0.2322
   62SAPC   O32 4885   5.649   3.986   6.927  0.8958 -0.6489 -0.5807
   62SAPC   C32 4886   5.758   4.192   6.848  1.1429  0.6541  0.1512
   62SAPC   H2X 4887   5.826   4.189   6.936  1.1025  1.2631  0.2049
   62SAPC   H2Y 4888   5.724   4.297   6.834 -0.6910  0.5599  3.1825
   62SAPC   C23 4889   5.270   4.069   6.385  0.0725 -0.5326  0.8157
   62SAPC   H3R 4890   5.195   4.150   6.397  0.4461 -0.1623  0.6566
   62SAPC   H3S 4891   5.209   3.977   6.371  0.5161 -1.2878  3.3233
   62SAPC   C24 4892   5.356   4.093   6.254  0.4510 -0.4564  0.3150
   62SAPC   H4R 4893   5.456   4.046   6.267 -0.0055 -1.3729  0.5992
   62SAPC   H4S 4894   5.378   4.202   6.250 -2.8695  0.3012 -2.3599
   62SAPC   C25 4895   5.308   4.057   6.116 -0.6238 -0.3708 -0.2108
   62SAPC   H5R 4896   5.249   3.965   6.105 -0.2563 -0.7870  1.1244
   62SAPC   C26 4897   5.346   4.128   6.005 -0.4526  0.2366  0.4136
   62SAPC   H6R 4898   5.328   4.088   5.904  1.2759 -1.4373  0.7208
   62SAPC   C27 4899   5.434   4.248   5.991 -0.1400  0.6176  0.1312
   62SAPC   H7R 4900   5.397   4.320   6.068  0.4156  1.6300 -0.5345
   62SAPC   H7S 4901   5.413   4.299   5.895  2.3969 -2.9736 -2.6118
   62SAPC   C28 4902   5.582   4.222   6.011  0.0397  0.3569  0.2058
   62SAPC   H8R 4903   5.615   4.120   6.038 -1.0712  0.3149  1.4819
   62SAPC   C29 4904   5.670   4.314   6.026 -0.3124  0.2240 -0.1910
   62SAPC   H9R 4905   5.776   4.284   6.032 -0.6888 -1.5442 -1.6948
   62SAPC  C210 4906   5.637   4.460   6.025 -0.1797 -0.7256 -0.7979
   62SAPC  H10R 4907   5.582   4.484   6.119 -2.1035 -3.3538 -1.1390
   62SAPC  H10S 4908   5.571   4.491   5.941  0.6140  0.4242 -1.0218
   62SAPC  C211 4909   5.759   4.545   6.023 -0.0252  0.3910  0.2255
   62SAPC  H11R 4910   5.801   4.587   6.116 -0.8902  2.9384 -0.4636
   62SAPC  C212 4911   5.836   4.567   5.911  0.6883  0.4985  0.4628
   62SAPC  H12R 4912   5.921   4.634   5.929 -1.0367  2.5386  1.6384
   62SAPC  C213 4913   5.810   4.517   5.772 -0.2577  0.8551 -0.0491
   62SAPC  H13R 4914   5.796   4.407   5.776  0.6229  0.7331 -0.0960
   62SAPC  H13S 4915   5.905   4.537   5.718  0.2032 -0.2319  0.3349
   62SAPC  C214 4916   5.705   4.584   5.695  0.5890 -0.2005  0.4636
   62SAPC  H14R 4917   5.632   4.655   5.735  0.1120  0.2108 -1.0683
   62SAPC  C215 4918   5.690   4.579   5.560 -0.2487  0.0200  0.2452
   62SAPC  H15R 4919   5.607   4.637   5.516 -0.6437 -2.1578 -2.0853
   62SAPC  C216 4920   5.772   4.502   5.451  0.2056  0.2497 -0.5711
   62SAPC  H16R 4921   5.696   4.446   5.392  0.6019 -1.5053  0.4859
   62SAPC  H16S 4922   5.832   4.420   5.497 -1.5775 -0.6585  0.2518
   62SAPC  C217 4923   5.849   4.591   5.365 -0.1223  0.7920  0.0099
   62SAPC  H17R 4924   5.906   4.662   5.429  1.8797 -0.8127  0.1101
   62SAPC  H17S 4925   5.774   4.643   5.302 -1.7012 -1.4889 -0.1008
   62SAPC  C218 4926   5.945   4.509   5.271 -0.0229 -0.3670 -0.2936
   62SAPC  H18R 4927   6.025   4.457   5.327  2.2609  1.2774 -1.8474
   62SAPC  H18S 4928   5.989   4.588   5.206  0.9874 -0.0078  0.8122
   62SAPC  C219 4929   5.862   4.405   5.198  0.2833  0.4056  0.1049
   62SAPC  H19R 4930   5.768   4.454   5.166 -0.9474 -0.0169  2.7576
   62SAPC  H19S 4931   5.829   4.324   5.267 -1.3092 -0.4759 -1.6092
   62SAPC  C220 4932   5.933   4.332   5.079  0.1418 -0.4009 -0.6330
   62SAPC  H20R 4933   5.860   4.258   5.040  0.3075 -0.6160 -0.5355
   62SAPC  H20S 4934   6.027   4.282   5.112  0.7517  0.5063 -0.9614
   62SAPC  H20T 4935   5.956   4.409   5.003  0.3266 -1.4673 -1.6920
   62SAPC   C33 4936   5.839   4.133   6.733  0.5634 -0.8200 -0.0314
   62SAPC   H3X 4937   5.856   4.024   6.743  2.7925 -0.6705 -1.5230
   62SAPC   H3Y 4938   5.941   4.177   6.741 -0.3753  1.7495 -1.3113
   62SAPC   C34 4939   5.787   4.164   6.594  0.3901 -0.0534 -0.2881
   62SAPC   H4X 4940   5.797   4.273   6.575  1.0438 -0.1964 -0.8068
   62SAPC   H4Y 4941   5.681   4.132   6.598  0.1941  0.6792  1.4170
   62SAPC   C35 4942   5.874   4.100   6.486 -0.4925 -0.4280 -0.1974
   62SAPC   H5X 4943   5.896   3.992   6.500 -1.9616 -0.9791 -1.7358
   62SAPC   H5Y 4944   5.972   4.152   6.487  0.1981 -1.6643 -0.4645
   62SAPC   C36 4945   5.824   4.129   6.347 -0.7346  0.0469  0.3739
   62SAPC   H6X 4946   5.815   4.237   6.322 -1.4582 -0.5500 -2.2882
   62SAPC   H6Y 4947   5.727   4.076   6.347 -1.5680  1.4855  1.2644
   62SAPC   C37 4948   5.923   4.066   6.236 -0.0603  0.2033 -0.6542
   62SAPC   H7X 4949   5.857   4.067   6.146  0.9375  1.8014 -1.4083
   62SAPC   H7Y 4950   5.964   3.964   6.244 -0.8806 -0.0763  0.0883
   62SAPC   C38 4951   6.046   4.159   6.203  0.4068  0.0742 -0.3929
   62SAPC   H8X 4952   6.111   4.134   6.289 -0.3609  0.4892  0.3275
   62SAPC   H8Y 4953   6.011   4.264   6.203  0.6144  0.1587 -1.7955
   62SAPC   C39 4954   6.116   4.124   6.075 -0.3613 -0.6253  0.0455
   62SAPC   H9X 4955   6.132   4.015   6.066 -0.3114 -1.0079  3.3962
   62SAPC   H9Y 4956   6.215   4.174   6.072 -0.0110 -0.8838  3.2438
   62SAPC  C310 4957   6.041   4.169   5.947  1.0350 -0.6324 -0.2748
   62SAPC  H10X 4958   6.017   4.277   5.950 -0.8241 -0.8622 -3.4794
   62SAPC  H10Y 4959   5.940   4.126   5.961  0.8168  0.1390  0.6679
   62SAPC  C311 4960   6.101   4.134   5.814  0.3534  0.2661 -0.4115
   62SAPC  H11X 4961   6.018   4.158   5.744 -1.2694 -1.4969  0.7839
   62SAPC  H11Y 4962   6.127   4.026   5.805 -0.6800  0.0271 -0.6350
   62SAPC  C312 4963   6.221   4.213   5.776  0.2133 -0.5725  0.1465
   62SAPC  H12X 4964   6.300   4.179   5.847  0.0041  0.5010  0.9132
   62SAPC  H12Y 4965   6.205   4.322   5.795  2.5733 -0.0858 -0.2957
   62SAPC  C313 4966   6.265   4.190   5.628  0.1773 -0.0009 -0.3763
   62SAPC  H13X 4967   6.289   4.082   5.614 -0.9989 -0.3809  0.3520
   62SAPC  H13Y 4968   6.354   4.250   5.599 -1.3407  2.5295 -0.0820
   62SAPC  C314 4969   6.154   4.230   5.528  0.1484 -0.8081 -0.2666
   62SAPC  H14X 4970   6.112   4.329   5.558  1.6941 -0.5405  1.1105
   62SAPC  H14Y 4971   6.063   4.166   5.533 -0.9778  0.7846  0.6035
   62SAPC  C315 4972   6.193   4.225   5.377  0.1454  0.4249 -0.0355
   62SAPC  H15X 4973   6.266   4.305   5.350  0.1349  0.9521  1.3971
   62SAPC  H15Y 4974   6.105   4.234   5.310  2.0350 -0.5594 -2.7990
   62SAPC  C316 4975   6.260   4.094   5.337  0.3226  0.0848  0.1760
   62SAPC  H16X 4976   6.220   4.008   5.395  0.6677  0.0470  0.3558
   62SAPC  H16Y 4977   6.366   4.098   5.369  0.4843  0.0819 -0.3451
   62SAPC  C317 4978   6.249   4.071   5.184  0.1253 -0.3777  0.8186
   62SAPC  H17X 4979   6.284   4.155   5.121 -0.6802 -1.0246 -0.5175
   62SAPC  H17Y 4980   6.145   4.037   5.168  0.3042  0.1485 -1.9605
   62SAPC  C318 4981   6.336   3.952   5.136  0.3407 -0.7543 -0.0950
   62SAPC  H18X 4982   6.316   3.953   5.027  0.4756 -2.1576 -0.1545
   62SAPC  H18Y 4983   6.303   3.854   5.177  0.4665 -0.4875  0.6668
   62SAPC  H18Z 4984   6.441   3.968   5.169  0.6902  1.3696 -1.9746
   63SAPC     N 4985   0.663   6.489   7.157 -0.2451 -0.4896 -0.3967
   63SAPC   C12 4986   0.655   6.362   7.075  0.5956  0.5017  0.0622
   63SAPC  H12A 4987   0.631   6.276   7.137  0.2556  0.3309 -0.2989
   63SAPC  H12B 4988   0.748   6.328   7.033 -0.1051  1.5611 -2.5258
   63SAPC   C13 4989   0.550   6.509   7.250  0.3443  0.1416 -0.1302
   63SAPC  H13A 4990   0.577   6.594   7.311  1.6424  0.8551 -1.6057
   63SAPC  H13B 4991   0.462   6.535   7.193 -1.3846  0.1083  2.3920
   63SAPC  H13C 4992   0.524   6.420   7.304  0.3224 -0.5006 -1.1761
   63SAPC   C14 4993   0.795   6.498   7.227 -0.5913  0.7838 -0.1820
   63SAPC  H14A 4994   0.791   6.580   7.297 -3.8466  0.0770  0.6506
   63SAPC  H14B 4995   0.816   6.417   7.295 -0.0790 -0.2151 -1.4797
   63SAPC  H14C 4996   0.879   6.489   7.159 -1.0310  1.7688 -0.8789
   63SAPC   C15 4997   0.652   6.611   7.066 -0.3793  0.0295  0.0813
   63SAPC  H15A 4998   0.651   6.705   7.120  1.0394  0.4774 -0.6138
   63SAPC  H15B 4999   0.730   6.616   6.991 -1.7950  1.9874 -1.3858
   63SAPC  H15C 5000   0.560   6.610   7.009 -0.1907 -2.5618 -0.2668
   63SAPC   C11 5001   0.545   6.360   6.968 -0.6879 -0.4062  0.2504
   63SAPC  H11A 5002   0.545   6.265   6.909 -1.0095  0.0987 -0.5748
   63SAPC  H11B 5003   0.560   6.435   6.888  0.0306  0.1257  0.8710
   63SAPC     P 5004   0.302   6.471   6.988 -0.2114  0.3957  0.3025
   63SAPC   O13 5005   0.179   6.425   7.045 -0.1230 -0.0649 -0.0103
   63SAPC   O14 5006   0.353   6.605   7.024 -0.0043 -0.4269 -0.0674
   63SAPC   O12 5007   0.411   6.361   7.026 -0.0745 -0.1758  0.9554
   63SAPC   O11 5008   0.299   6.452   6.830 -0.7709 -0.0966 -0.3058
   63SAPC    C1 5009   0.282   6.326   6.773  0.0028  0.3591  0.2657
   63SAPC    HA 5010   0.375   6.309   6.715  1.2092  1.1933  1.9040
   63SAPC    HB 5011   0.251   6.246   6.844 -1.6265  1.3413  0.7033
   63SAPC    C2 5012   0.166   6.331   6.667 -0.4521  0.3205 -0.1170
   63SAPC    HS 5013   0.157   6.225   6.635  1.8268 -0.0958  0.4035
   63SAPC   O21 5014   0.200   6.421   6.559 -0.4280  0.0896 -0.1625
   63SAPC   C21 5015   0.274   6.370   6.460 -0.8322 -0.2703 -0.7496
   63SAPC   O22 5016   0.331   6.265   6.452  0.1438  0.3626  0.4271
   63SAPC   C22 5017   0.271   6.472   6.343  0.2765 -0.1302 -0.5180
   63SAPC   H2R 5018   0.179   6.439   6.289  1.8365 -0.2024 -3.2916
   63SAPC   H2S 5019   0.267   6.579   6.376  0.2866 -0.3720  0.2908
   63SAPC    C3 5020   0.040   6.392   6.727  0.3241 -0.0681  0.5648
   63SAPC    HX 5021   0.062   6.501   6.739 -1.5055  0.1888  2.1745
   63SAPC    HY 5022   0.031   6.343   6.827  0.2382 -0.6549  0.2695
   63SAPC   O31 5023  -0.086   6.372   6.647  0.5016  0.4966  0.0262
   63SAPC   C31 5024  -0.179   6.302   6.700  0.4796  0.2191  0.0885
   63SAPC   O32 5025  -0.170   6.239   6.806 -0.1175 -0.2433  0.1363
   63SAPC   C32 5026  -0.309   6.323   6.621 -0.3927 -0.3456  0.5462
   63SAPC   H2X 5027  -0.312   6.433   6.611 -0.2202 -0.3469  0.4748
   63SAPC   H2Y 5028  -0.390   6.294   6.691 -1.2025 -0.2596 -0.3434
   63SAPC   C23 5029   0.390   6.470   6.254 -0.2777 -0.1861  1.0001
   63SAPC   H3R 5030   0.414   6.363   6.236  2.6893  0.3205  1.4384
   63SAPC   H3S 5031   0.479   6.528   6.286 -0.7201  1.3272 -0.3718
   63SAPC   C24 5032   0.358   6.546   6.121  0.5403 -0.2970  0.8525
   63SAPC   H4R 5033   0.347   6.656   6.137 -2.4440 -0.3449 -0.2941
   63SAPC   H4S 5034   0.256   6.511   6.094  0.4233  0.5908  0.0684
   63SAPC   C25 5035   0.450   6.516   6.006 -1.1600 -0.4460  0.1053
   63SAPC   H5R 5036   0.497   6.608   5.967 -2.9567 -0.0851 -1.3136
   63SAPC   C26 5037   0.478   6.399   5.955 -0.1910  0.1901  0.2923
   63SAPC   H6R 5038   0.563   6.399   5.885 -0.6632  0.7922 -0.2829
   63SAPC   C27 5039   0.395   6.278   5.971 -0.1413 -0.4674  0.1653
   63SAPC   H7R 5040   0.356   6.272   6.075  1.7375 -3.6560  0.7940
   63SAPC   H7S 5041   0.459   6.188   5.962  0.6897  0.1398 -0.1671
   63SAPC   C28 5042   0.273   6.249   5.888  0.0684 -0.1482  0.3122
   63SAPC   H8R 5043   0.174   6.243   5.937  0.4572  0.6914  1.2376
   63SAPC   C29 5044   0.278   6.214   5.757  0.5212 -0.1022 -0.5199
   63SAPC   H9R 5045   0.191   6.180   5.699 -0.1606  0.6571  0.0316
   63SAPC  C210 5046   0.401   6.228   5.669 -0.2305 -0.0561 -0.0564
   63SAPC  H10R 5047   0.418   6.126   5.627  0.7177  0.2808 -0.5129
   63SAPC  H10S 5048   0.489   6.252   5.732  0.3210  0.7529 -1.1098
   63SAPC  C211 5049   0.385   6.348   5.577  0.4684 -0.1921  0.3348
   63SAPC  H11R 5050   0.359   6.441   5.631  2.2104 -0.0618  0.9883
   63SAPC  C212 5051   0.405   6.353   5.445 -0.3257  0.0009  0.0392
   63SAPC  H12R 5052   0.365   6.439   5.390 -1.6078 -0.0004  0.9130
   63SAPC  C213 5053   0.457   6.240   5.364  0.5376 -0.1600  0.6226
   63SAPC  H13R 5054   0.552   6.201   5.406  0.6379  1.8296  2.4697
   63SAPC  H13S 5055   0.478   6.279   5.262 -2.4180 -2.3005 -0.9585
   63SAPC  C214 5056   0.358   6.133   5.330  0.2170  0.1348 -0.1238
   63SAPC  H14R 5057   0.255   6.173   5.336  0.7440  1.7817 -1.1816
   63SAPC  C215 5058   0.371   5.999   5.305 -0.1269  0.3565  0.5707
   63SAPC  H15R 5059   0.281   5.937   5.288 -0.2399  0.3894  1.0318
   63SAPC  C216 5060   0.502   5.917   5.298 -0.0701  0.3557 -0.3143
   63SAPC  H16R 5061   0.525   5.871   5.396  2.7004 -0.2280 -1.1444
   63SAPC  H16S 5062   0.590   5.981   5.278  0.3305  2.0961  5.3082
   63SAPC  C217 5063   0.483   5.817   5.175  0.1519 -0.3035 -0.0494
   63SAPC  H17R 5064   0.473   5.877   5.082  2.8349  0.1494 -0.1203
   63SAPC  H17S 5065   0.387   5.764   5.188  1.1938 -2.3171 -0.1548
   63SAPC  C218 5066   0.603   5.727   5.154 -0.3275 -0.1591  0.4053
   63SAPC  H18R 5067   0.616   5.673   5.250  3.2378 -0.0220  0.1359
   63SAPC  H18S 5068   0.698   5.780   5.130 -1.6326  1.8105 -0.6990
   63SAPC  C219 5069   0.589   5.621   5.042  1.0111 -0.3127  0.3010
   63SAPC  H19R 5070   0.582   5.678   4.946  0.5405 -1.9037 -0.6547
   63SAPC  H19S 5071   0.500   5.562   5.072  0.9240  0.9220  2.6834
   63SAPC  C220 5072   0.710   5.529   5.042  0.7259 -0.3391 -0.7091
   63SAPC  H20R 5073   0.752   5.528   5.145 -1.0147  0.6352  0.0381
   63SAPC  H20S 5074   0.789   5.568   4.973  0.4234 -0.2796 -1.0232
   63SAPC  H20T 5075   0.675   5.426   5.021 -1.8594  0.4616 -0.6953
   63SAPC   C33 5076  -0.329   6.250   6.482 -0.5704 -0.3167  0.6832
   63SAPC   H3X 5077  -0.431   6.269   6.442  0.7576  0.9718 -2.3581
   63SAPC   H3Y 5078  -0.314   6.140   6.490  0.5400 -0.1738  0.5930
   63SAPC   C34 5079  -0.235   6.303   6.373 -0.7332 -0.2768  0.1002
   63SAPC   H4X 5080  -0.133   6.298   6.417 -0.1492  2.6977 -0.7101
   63SAPC   H4Y 5081  -0.258   6.409   6.349  1.0271  0.1471  0.1935
   63SAPC   C35 5082  -0.256   6.238   6.234 -0.3774 -0.6702 -0.9431
   63SAPC   H5X 5083  -0.351   6.275   6.191 -1.2681 -0.6326  0.9337
   63SAPC   H5Y 5084  -0.265   6.129   6.253 -0.9445 -0.0387  3.6234
   63SAPC   C36 5085  -0.143   6.266   6.135 -0.1020 -0.5516  0.0968
   63SAPC   H6X 5086  -0.045   6.252   6.187 -0.3331 -1.5489  0.2976
   63SAPC   H6Y 5087  -0.161   6.371   6.105 -1.8281 -0.4999  1.1900
   63SAPC   C37 5088  -0.134   6.192   6.002  1.0666 -0.1227 -0.6733
   63SAPC   H7X 5089  -0.137   6.084   6.029  0.6586  0.4005  1.5111
   63SAPC   H7Y 5090  -0.035   6.204   5.952  1.3752  2.8515  0.4190
   63SAPC   C38 5091  -0.244   6.233   5.909  0.7483 -0.1519  0.1812
   63SAPC   H8X 5092  -0.233   6.338   5.875  1.0359  0.2288  1.4120
   63SAPC   H8Y 5093  -0.340   6.241   5.964 -0.0723  2.2863 -1.4604
   63SAPC   C39 5094  -0.269   6.140   5.793  0.0555 -0.3429  0.0543
   63SAPC   H9X 5095  -0.334   6.191   5.719 -2.2310 -1.8409  0.9353
   63SAPC   H9Y 5096  -0.323   6.050   5.827  0.2848 -0.4533  0.1317
   63SAPC  C310 5097  -0.142   6.100   5.713 -0.0867 -0.2837  0.2819
   63SAPC  H10X 5098  -0.076   6.034   5.772  0.3301  0.4888  0.6857
   63SAPC  H10Y 5099  -0.095   6.200   5.701  0.0862 -0.4248 -0.2635
   63SAPC  C311 5100  -0.189   6.050   5.578  0.0420  0.0794  0.3023
   63SAPC  H11X 5101  -0.252   6.119   5.518  0.2809 -0.2526 -0.3383
   63SAPC  H11Y 5102  -0.246   5.957   5.601  1.7161 -1.7124 -2.3085
   63SAPC  C312 5103  -0.069   6.016   5.492  0.8993  0.4151  0.0502
   63SAPC  H12X 5104   0.016   5.983   5.555 -2.6323 -3.2834  3.4604
   63SAPC  H12Y 5105  -0.045   6.110   5.437  1.3708  1.2005  1.5201
   63SAPC  C313 5106  -0.100   5.889   5.406 -0.6569  0.4576 -0.5457
   63SAPC  H13X 5107  -0.199   5.895   5.354 -1.3773 -0.0509  0.7114
   63SAPC  H13Y 5108  -0.108   5.796   5.465  1.4835 -0.5737 -1.7798
   63SAPC  C314 5109  -0.007   5.855   5.281  1.6135  0.0728  0.1202
   63SAPC  H14X 5110   0.086   5.825   5.334  1.6157  0.9015  0.6069
   63SAPC  H14Y 5111   0.005   5.943   5.215  2.2620 -0.6124 -0.7078
   63SAPC  C315 5112  -0.070   5.740   5.194  0.1246 -0.0559 -0.0276
   63SAPC  H15X 5113  -0.145   5.785   5.125 -0.1450  1.0748  0.9803
   63SAPC  H15Y 5114  -0.117   5.684   5.277  3.4263  0.8179  2.6420
   63SAPC  C316 5115   0.031   5.661   5.120 -0.0024 -0.2881  0.1956
   63SAPC  H16X 5116  -0.003   5.558   5.095 -0.3046 -0.8132  2.5853
   63SAPC  H16Y 5117   0.118   5.646   5.187  2.4990 -2.0067 -3.1273
   63SAPC  C317 5118   0.074   5.737   4.997  0.0107 -0.7052  0.9286
   63SAPC  H17X 5119   0.084   5.844   5.026 -0.4467 -0.7200  1.1544
   63SAPC  H17Y 5120  -0.005   5.724   4.921 -1.8773  1.3099  2.4205
   63SAPC  C318 5121   0.205   5.688   4.933 -0.1643  0.3142 -0.0202
   63SAPC  H18X 5122   0.277   5.670   5.016  0.2111 -0.1896 -0.4479
   63SAPC  H18Y 5123   0.241   5.760   4.857 -1.5150 -0.2298 -1.2280
   63SAPC  H18Z 5124   0.197   5.590   4.881 -0.3803  0.2430  0.1436
   64SAPC     N 5125   6.276   1.769   7.719  0.1349 -0.1143  0.2874
   64SAPC   C12 5126   6.167   1.866   7.673  0.5701  0.0730  0.1160
   64SAPC  H12A 5127   6.166   1.948   7.744  2.0605 -1.7455  2.3399
   64SAPC  H12B 5128   6.072   1.814   7.674  0.5506 -0.0260 -1.9693
   64SAPC   C13 5129   6.400   1.844   7.741  0.4534 -0.2960 -0.4259
   64SAPC  H13A 5130   6.403   1.934   7.801 -0.6916 -1.0939  0.8664
   64SAPC  H13B 5131   6.480   1.782   7.780  0.5306  0.4962  0.7513
   64SAPC  H13C 5132   6.449   1.883   7.653  3.3627 -0.2272  1.1053
   64SAPC   C14 5133   6.232   1.710   7.848  0.2162  0.0169 -0.2064
   64SAPC  H14A 5134   6.211   1.779   7.928  1.6842  0.9788 -0.6084
   64SAPC  H14B 5135   6.137   1.664   7.825 -0.0446  0.4544 -0.0045
   64SAPC  H14C 5136   6.302   1.633   7.879  0.4729  0.4801  0.3767
   64SAPC   C15 5137   6.305   1.650   7.634 -0.3141 -0.5692  0.1073
   64SAPC  H15A 5138   6.366   1.573   7.678 -1.8187 -1.7913  0.1102
   64SAPC  H15B 5139   6.208   1.609   7.611 -1.2076  1.5776 -0.2618
   64SAPC  H15C 5140   6.345   1.692   7.542  0.0308  2.0141  1.3317
   64SAPC   C11 5141   6.178   1.923   7.528 -0.3036  0.5940 -0.1552
   64SAPC  H11A 5142   6.284   1.955   7.521  0.0990 -0.3289  1.2387
   64SAPC  H11B 5143   6.109   2.009   7.515  0.6573  1.2479 -1.0784
   64SAPC     P 5144   6.222   1.830   7.297 -0.1816  0.0576 -0.0012
   64SAPC   O13 5145   6.146   1.742   7.205 -0.5083  0.4890  0.0919
   64SAPC   O14 5146   6.257   1.966   7.249  0.3781 -0.0793 -0.3873
   64SAPC   O12 5147   6.138   1.827   7.433 -0.1310  1.3622  0.1998
   64SAPC   O11 5148   6.355   1.759   7.343 -0.5792  0.4889  0.0090
   64SAPC    C1 5149   6.381   1.629   7.277 -0.2960 -0.0103 -0.2672
   64SAPC    HA 5150   6.426   1.563   7.355  1.8660 -0.3315 -1.6859
   64SAPC    HB 5151   6.288   1.574   7.254 -1.4433  2.0167 -0.6851
   64SAPC    C2 5152   6.468   1.638   7.148 -0.2521  0.1194  0.4087
   64SAPC    HS 5153   6.551   1.709   7.168 -1.0293  1.3086 -0.3984
   64SAPC   O21 5154   6.384   1.700   7.047  0.8667  0.0447  0.0559
   64SAPC   C21 5155   6.439   1.780   6.964 -1.4486  0.0921 -0.8816
   64SAPC   O22 5156   6.551   1.830   6.972 -0.7365 -0.6346 -0.3261
   64SAPC   C22 5157   6.341   1.804   6.857  0.1999 -0.1012 -0.8534
   64SAPC   H2R 5158   6.241   1.775   6.897  1.1783  0.0527  1.9245
   64SAPC   H2S 5159   6.327   1.915   6.858  0.0742 -0.1129 -0.0713
   64SAPC    C3 5160   6.512   1.498   7.097  0.5460 -0.0189  0.0048
   64SAPC    HX 5161   6.421   1.438   7.073  0.2674 -0.7727  2.6377
   64SAPC    HY 5162   6.561   1.447   7.183 -2.5148 -3.3283  0.0545
   64SAPC   O31 5163   6.597   1.496   6.981  0.0970  0.0298 -0.0423
   64SAPC   C31 5164   6.726   1.533   6.994 -0.4417 -0.2885  1.0024
   64SAPC   O32 5165   6.780   1.549   7.100  0.2888  0.1127  0.7834
   64SAPC   C32 5166   6.796   1.549   6.854  0.1939  0.0426 -0.1178
   64SAPC   H2X 5167   6.714   1.536   6.780  0.5719  0.2096 -0.5702
   64SAPC   H2Y 5168   6.882   1.481   6.835  1.8013  1.8888  0.1814
   64SAPC   C23 5169   6.383   1.749   6.725 -0.0628 -0.7906 -0.4698
   64SAPC   H3R 5170   6.461   1.670   6.732 -2.3575 -3.0943  0.2337
   64SAPC   H3S 5171   6.416   1.832   6.658 -1.8863  0.6336  0.3221
   64SAPC   C24 5172   6.266   1.677   6.649  0.2098 -0.4906  0.5176
   64SAPC   H4R 5173   6.218   1.596   6.708  2.1033 -0.2396  2.5409
   64SAPC   H4S 5174   6.317   1.624   6.566 -1.7173 -1.6523  0.0072
   64SAPC   C25 5175   6.163   1.770   6.589  0.2281 -0.2315 -0.4007
   64SAPC   H5R 5176   6.084   1.771   6.666  0.1358 -2.2142 -0.4290
   64SAPC   C26 5177   6.160   1.834   6.473 -0.3150  0.4452  0.2559
   64SAPC   H6R 5178   6.075   1.899   6.447 -1.5544 -1.3506 -0.3422
   64SAPC   C27 5179   6.262   1.834   6.359 -0.8396 -0.7323  0.3868
   64SAPC   H7R 5180   6.341   1.760   6.386  0.9405  0.1094 -2.0929
   64SAPC   H7S 5181   6.315   1.932   6.366 -3.1083  0.5419  0.6089
   64SAPC   C28 5182   6.210   1.809   6.217  0.4931 -0.1645 -0.0839
   64SAPC   H8R 5183   6.209   1.702   6.189 -3.4701 -0.6190  1.1656
   64SAPC   C29 5184   6.173   1.895   6.122 -0.0497 -0.0094 -0.2443
   64SAPC   H9R 5185   6.132   1.853   6.029  2.1551  2.3494 -2.4264
   64SAPC  C210 5186   6.155   2.041   6.133  0.3954 -0.4641  0.3329
   64SAPC  H10R 5187   6.202   2.101   6.052 -1.2012  0.0106 -0.2875
   64SAPC  H10S 5188   6.211   2.083   6.219  0.6001  0.7506 -0.3674
   64SAPC  C211 5189   6.008   2.079   6.147  0.7499 -0.0397 -0.2352
   64SAPC  H11R 5190   5.958   2.040   6.237  0.9526 -1.5967 -0.7724
   64SAPC  C212 5191   5.929   2.144   6.063 -0.5815  0.4841 -0.1303
   64SAPC  H12R 5192   5.829   2.168   6.100 -0.0109  0.4613  1.4870
   64SAPC  C213 5193   5.972   2.182   5.927  0.4053  0.5884  0.0556
   64SAPC  H13R 5194   5.923   2.111   5.857  1.4909 -0.3675  0.2368
   64SAPC  H13S 5195   6.071   2.141   5.901  0.6987 -0.2514  2.2602
   64SAPC  C214 5196   5.938   2.321   5.893  0.5558  0.2545 -0.0609
   64SAPC  H14R 5197   5.831   2.346   5.897  0.7666  1.2215 -0.1401
   64SAPC  C215 5198   6.025   2.400   5.824  0.7721 -0.5282  0.8896
   64SAPC  H15R 5199   5.980   2.499   5.809 -3.0613 -2.2774 -0.4737
   64SAPC  C216 5200   6.170   2.375   5.797 -0.2590  1.0251 -0.5429
   64SAPC  H16R 5201   6.214   2.293   5.858  1.7494  0.0956 -3.0343
   64SAPC  H16S 5202   6.226   2.471   5.811 -2.7517  2.7393 -1.5356
   64SAPC  C217 5203   6.188   2.323   5.649 -0.1135 -0.6421 -0.5563
   64SAPC  H17R 5204   6.271   2.382   5.605  0.7179 -1.3517  0.0347
   64SAPC  H17S 5205   6.099   2.361   5.594 -1.3223  0.6752  2.1603
   64SAPC  C218 5206   6.191   2.169   5.637  0.5894  0.0369  0.7679
   64SAPC  H18R 5207   6.086   2.138   5.655  0.1154 -0.1499 -1.9048
   64SAPC  H18S 5208   6.250   2.133   5.724  0.1650  2.2147  2.0429
   64SAPC  C219 5209   6.210   2.108   5.500 -0.0754 -0.4027  0.3666
   64SAPC  H19R 5210   6.125   2.130   5.432 -1.8442  0.1639  2.6669
   64SAPC  H19S 5211   6.212   1.998   5.518  0.3839 -0.7973 -1.8320
   64SAPC  C220 5212   6.342   2.152   5.428  0.0248 -0.3722 -0.4856
   64SAPC  H20R 5213   6.428   2.135   5.497  0.8354  1.5200 -0.9651
   64SAPC  H20S 5214   6.343   2.262   5.408 -0.1673 -0.6194 -2.0163
   64SAPC  H20T 5215   6.360   2.105   5.329 -0.6020 -0.7254 -0.4336
   64SAPC   C33 5216   6.843   1.698   6.848  0.0620  0.0907  0.1257
   64SAPC   H3X 5217   6.934   1.699   6.912  1.9369 -1.6506 -2.3056
   64SAPC   H3Y 5218   6.762   1.764   6.887 -0.5561 -0.4988 -0.1455
   64SAPC   C34 5219   6.883   1.744   6.708 -0.0492 -1.4696  0.3841
   64SAPC   H4X 5220   6.975   1.688   6.681  1.7991  1.0796  0.9949
   64SAPC   H4Y 5221   6.915   1.850   6.700 -0.2356 -1.4835 -0.7452
   64SAPC   C35 5222   6.767   1.728   6.596  0.6716  0.1240 -0.3036
   64SAPC   H5X 5223   6.673   1.775   6.630 -0.8168 -2.4374 -0.5898
   64SAPC   H5Y 5224   6.744   1.619   6.599  0.5565  0.1645  1.1613
   64SAPC   C36 5225   6.804   1.771   6.455 -0.1563 -0.6561  0.7794
   64SAPC   H6X 5226   6.891   1.711   6.422  0.9690  2.0526 -1.5862
   64SAPC   H6Y 5227   6.836   1.877   6.448 -1.0195 -0.3890  0.7829
   64SAPC   C37 5228   6.699   1.746   6.355  0.4845 -0.1979  0.2400
   64SAPC   H7X 5229   6.596   1.767   6.394 -0.4595 -0.8772 -1.7620
   64SAPC   H7Y 5230   6.687   1.637   6.340 -2.3445 -0.2585  1.9923
   64SAPC   C38 5231   6.705   1.838   6.229 -0.3875  0.2470 -0.5360
   64SAPC   H8X 5232   6.795   1.831   6.164 -1.5059  0.7410 -2.2157
   64SAPC   H8Y 5233   6.698   1.942   6.268 -0.1333 -0.2209  0.8118
   64SAPC   C39 5234   6.576   1.823   6.142  0.1705  0.0859 -0.8634
   64SAPC   H9X 5235   6.498   1.877   6.200 -0.0479 -0.8805 -0.2359
   64SAPC   H9Y 5236   6.550   1.716   6.127 -0.4260  0.0838  0.1001
   64SAPC  C310 5237   6.593   1.877   5.997 -0.2539 -0.2412 -0.0190
   64SAPC  H10X 5238   6.672   1.813   5.953 -0.6890 -1.9815  1.6497
   64SAPC  H10Y 5239   6.633   1.981   5.995  1.2122 -0.7546  1.2587
   64SAPC  C311 5240   6.475   1.881   5.906  0.0201 -0.0936  0.7362
   64SAPC  H11X 5241   6.403   1.962   5.928  1.5092  2.0863 -1.7317
   64SAPC  H11Y 5242   6.412   1.791   5.925  1.1266 -0.5841  2.2415
   64SAPC  C312 5243   6.502   1.873   5.755  0.6859 -0.1030 -0.0072
   64SAPC  H12X 5244   6.576   1.949   5.720  0.5131 -0.0439 -0.2454
   64SAPC  H12Y 5245   6.408   1.892   5.700  0.9488  0.4953 -0.2605
   64SAPC  C313 5246   6.560   1.746   5.697  0.0698 -1.2158  0.2167
   64SAPC  H13X 5247   6.495   1.656   5.705 -0.7875 -0.5795  0.6508
   64SAPC  H13Y 5248   6.653   1.727   5.754  0.3546  2.6453  1.3374
   64SAPC  C314 5249   6.603   1.763   5.547 -0.5631 -0.2261  0.0831
   64SAPC  H14X 5250   6.690   1.831   5.531  0.5047 -1.3054  1.1135
   64SAPC  H14Y 5251   6.512   1.815   5.510 -1.1374 -1.0545  0.3112
   64SAPC  C315 5252   6.628   1.635   5.475 -0.6230  0.7777 -0.0949
   64SAPC  H15X 5253   6.546   1.561   5.488 -0.6600  0.9725  0.8166
   64SAPC  H15Y 5254   6.719   1.596   5.526 -0.8247 -1.1479 -1.0782
   64SAPC  C316 5255   6.648   1.646   5.325  0.7704  0.3220  0.3199
   64SAPC  H16X 5256   6.738   1.708   5.304 -1.3492  3.2473 -0.8153
   64SAPC  H16Y 5257   6.560   1.696   5.278 -0.3387  0.6259  2.5951
   64SAPC  C317 5258   6.662   1.501   5.259  0.4726 -0.2725  0.5470
   64SAPC  H17X 5259   6.734   1.438   5.314  0.1299  0.8046  2.3011
   64SAPC  H17Y 5260   6.710   1.520   5.161 -1.7509 -0.9123 -0.7526
   64SAPC  C318 5261   6.530   1.434   5.242 -0.2482 -0.3896 -0.3408
   64SAPC  H18X 5262   6.544   1.335   5.194  1.3617  0.6282 -2.1183
   64SAPC  H18Y 5263   6.460   1.497   5.184  0.9049  0.8004 -0.5001
   64SAPC  H18Z 5264   6.490   1.420   5.345  0.2238 -2.0779 -0.3614
   65SAPC     N 5265   0.563   3.569   2.459  0.8731  0.4000  0.7208
   65SAPC   C12 5266   0.518   3.544   2.605 -0.3263  0.0176 -0.3824
   65SAPC  H12A 5267   0.412   3.521   2.607 -0.0678 -1.1678  0.2990
   65SAPC  H12B 5268   0.540   3.634   2.660  1.7220 -1.0618  0.6518
   65SAPC   C13 5269   0.714   3.584   2.453  0.7907 -0.1610  0.0698
   65SAPC  H13A 5270   0.748   3.489   2.491  0.1214 -0.2977  0.3325
   65SAPC  H13B 5271   0.747   3.609   2.353  0.3661  1.1982  0.2487
   65SAPC  H13C 5272   0.749   3.669   2.509 -1.9210 -0.2865  2.1427
   65SAPC   C14 5273   0.526   3.449   2.370 -1.1252  0.0954  0.2662
   65SAPC  H14A 5274   0.585   3.366   2.405 -0.8852  0.4869  0.8111
   65SAPC  H14B 5275   0.424   3.415   2.369 -0.8568 -0.7294  0.3063
   65SAPC  H14C 5276   0.547   3.476   2.268  0.8919  1.6040  1.0058
   65SAPC   C15 5277   0.488   3.685   2.408 -0.0511  0.4178  0.3789
   65SAPC  H15A 5278   0.543   3.730   2.327 -0.8092  1.2233  0.2876
   65SAPC  H15B 5279   0.390   3.657   2.372 -0.3199  0.0230  1.3927
   65SAPC  H15C 5280   0.489   3.764   2.481  2.5251  2.4313 -1.6166
   65SAPC   C11 5281   0.583   3.423   2.688  0.2485 -0.2086 -0.0243
   65SAPC  H11A 5282   0.573   3.330   2.627 -1.8423 -0.8538  1.2014
   65SAPC  H11B 5283   0.519   3.411   2.777  0.5806  1.9541  0.5702
   65SAPC     P 5284   0.751   3.541   2.847  0.1954  0.3490 -0.1865
   65SAPC   O13 5285   0.886   3.595   2.820 -0.0870  0.1022  0.1635
   65SAPC   O14 5286   0.646   3.644   2.857  0.5146  0.2027  0.4284
   65SAPC   O12 5287   0.724   3.446   2.717 -0.1844  0.4196  0.2941
   65SAPC   O11 5288   0.752   3.442   2.969  0.2218  0.4067 -0.1964
   65SAPC    C1 5289   0.802   3.305   2.952  0.4936 -0.2622  0.6755
   65SAPC    HA 5290   0.769   3.255   2.859 -1.6814  0.1380  1.1643
   65SAPC    HB 5291   0.913   3.310   2.956  0.4969 -0.7357  1.3063
   65SAPC    C2 5292   0.743   3.215   3.066 -0.7868  0.4531  0.0451
   65SAPC    HS 5293   0.764   3.107   3.050  0.2044  0.2742  2.1846
   65SAPC   O21 5294   0.603   3.233   3.095 -0.3154 -0.1046  0.5305
   65SAPC   C21 5295   0.524   3.218   2.989 -0.9101  0.0639  0.0451
   65SAPC   O22 5296   0.555   3.174   2.878 -0.5126 -0.1874  0.3820
   65SAPC   C22 5297   0.383   3.264   3.022  0.1470 -0.6979 -0.4080
   65SAPC   H2R 5298   0.376   3.306   3.125 -1.2529  1.4597 -1.3173
   65SAPC   H2S 5299   0.373   3.362   2.971  1.5795  0.1798  0.8985
   65SAPC    C3 5300   0.820   3.247   3.204  0.0124 -0.0187  0.1015
   65SAPC    HX 5301   0.777   3.344   3.236 -1.0464 -1.0261  1.8577
   65SAPC    HY 5302   0.928   3.270   3.185  0.1129 -1.3164 -1.0446
   65SAPC   O31 5303   0.793   3.153   3.309 -0.0357  0.2764 -0.3384
   65SAPC   C31 5304   0.893   3.059   3.337 -1.1764  0.3793  0.9157
   65SAPC   O32 5305   0.996   3.054   3.273  0.5791 -0.1435 -0.0208
   65SAPC   C32 5306   0.861   2.965   3.448 -0.6393  0.4137 -0.3716
   65SAPC   H2X 5307   0.910   2.871   3.412 -0.2281  0.6032 -0.3145
   65SAPC   H2Y 5308   0.754   2.937   3.438 -0.3379 -1.1012  0.2949
   65SAPC   C23 5309   0.265   3.171   2.992  0.0480 -0.1494  0.5520
   65SAPC   H3R 5310   0.284   3.110   2.901  0.5239  1.9245 -0.7924
   65SAPC   H3S 5311   0.177   3.236   2.971  0.9629  0.3884 -1.8991
   65SAPC   C24 5312   0.219   3.079   3.112 -0.0054  0.2244 -0.2237
   65SAPC   H4R 5313   0.120   3.037   3.087  1.0006 -3.1798  0.9096
   65SAPC   H4S 5314   0.200   3.145   3.199  0.7729 -0.0584  0.1685
   65SAPC   C25 5315   0.319   2.964   3.133 -0.1983  0.0378  0.6978
   65SAPC   H5R 5316   0.330   2.889   3.053  1.5953  0.4922  0.4722
   65SAPC   C26 5317   0.385   2.947   3.247 -0.2415  0.3297 -0.4628
   65SAPC   H6R 5318   0.473   2.881   3.240  0.5264  1.4252 -1.5694
   65SAPC   C27 5319   0.360   3.023   3.377 -0.3238 -0.1232  1.0461
   65SAPC   H7R 5320   0.385   2.952   3.458  0.7155 -1.3299 -0.2727
   65SAPC   H7S 5321   0.253   3.053   3.383 -0.6247 -0.8457 -0.4011
   65SAPC   C28 5322   0.438   3.149   3.379 -0.4727 -0.3018  0.3707
   65SAPC   H8R 5323   0.512   3.168   3.299 -1.6906  1.8647 -0.3216
   65SAPC   C29 5324   0.449   3.234   3.480 -0.1638  0.4698 -0.1948
   65SAPC   H9R 5325   0.525   3.313   3.472 -0.2171  0.4879 -0.5088
   65SAPC  C210 5326   0.390   3.202   3.620  0.0269 -0.4956 -0.7972
   65SAPC  H10R 5327   0.282   3.186   3.599 -0.3969  1.9294 -0.6480
   65SAPC  H10S 5328   0.372   3.298   3.673  0.1570 -0.2370 -1.2207
   65SAPC  C211 5329   0.455   3.091   3.706 -0.0948  0.0798  0.9976
   65SAPC  H11R 5330   0.520   3.032   3.639  2.9921  3.9560  0.2066
   65SAPC  C212 5331   0.469   3.075   3.835 -0.8542  0.0878 -0.3976
   65SAPC  H12R 5332   0.534   2.994   3.871 -1.2190  0.0234  0.1254
   65SAPC  C213 5333   0.398   3.148   3.949 -0.4727  1.0317 -0.7678
   65SAPC  H13R 5334   0.369   3.248   3.909 -0.5499  1.3455  0.0521
   65SAPC  H13S 5335   0.475   3.169   4.027 -0.2249 -2.1438 -0.0090
   65SAPC  C214 5336   0.292   3.070   4.020  0.2044 -0.4193 -0.7011
   65SAPC  H14R 5337   0.239   3.003   3.951 -0.3838 -0.7493  0.0490
   65SAPC  C215 5338   0.251   3.082   4.153 -0.6501  0.4401 -0.0005
   65SAPC  H15R 5339   0.171   3.009   4.177 -2.3002  1.8884 -0.8885
   65SAPC  C216 5340   0.312   3.163   4.261  0.2418 -0.0336 -1.2879
   65SAPC  H16R 5341   0.233   3.196   4.333  1.8894  1.0519  0.0991
   65SAPC  H16S 5342   0.371   3.251   4.231 -0.0487  0.3045 -0.8742
   65SAPC  C217 5343   0.414   3.081   4.341  0.6354  1.1936  0.3147
   65SAPC  H17R 5344   0.469   3.150   4.408 -0.2101  1.6417  0.5667
   65SAPC  H17S 5345   0.475   3.017   4.273 -1.2430 -2.7141  1.9383
   65SAPC  C218 5346   0.354   2.975   4.449 -0.3164  0.3593 -0.4839
   65SAPC  H18R 5347   0.274   2.923   4.391 -0.1394  0.1092 -0.5065
   65SAPC  H18S 5348   0.303   3.039   4.524  1.8529  0.0603  1.3687
   65SAPC  C219 5349   0.439   2.866   4.525  0.5259  0.1809  0.3093
   65SAPC  H19R 5350   0.374   2.809   4.594 -3.0356  1.0382 -2.0538
   65SAPC  H19S 5351   0.517   2.924   4.580  1.6893 -0.8286 -0.2207
   65SAPC  C220 5352   0.512   2.779   4.420  0.4357  0.0148 -0.4293
   65SAPC  H20R 5353   0.448   2.759   4.331 -0.0712  1.0889 -0.3217
   65SAPC  H20S 5354   0.546   2.681   4.459  1.0009 -0.1018 -1.1766
   65SAPC  H20T 5355   0.603   2.832   4.386  1.7160 -1.6700  0.1914
   65SAPC   C33 5356   0.909   3.002   3.591  0.3653 -0.3501  0.2367
   65SAPC   H3X 5357   1.011   3.047   3.595  0.5952 -0.9071  0.7874
   65SAPC   H3Y 5358   0.916   2.913   3.657 -0.7841 -1.0226 -0.5132
   65SAPC   C34 5359   0.805   3.098   3.655  0.0496  0.1103  0.3134
   65SAPC   H4X 5360   0.704   3.057   3.679 -2.2017  5.0218  0.5204
   65SAPC   H4Y 5361   0.771   3.167   3.575  1.3274 -1.2611 -1.4874
   65SAPC   C35 5362   0.857   3.178   3.779 -0.2274 -0.7887 -0.2686
   65SAPC   H5X 5363   0.791   3.264   3.802 -1.6835 -1.2064 -2.5491
   65SAPC   H5Y 5364   0.954   3.228   3.763 -0.0116 -0.4220  1.8194
   65SAPC   C36 5365   0.861   3.087   3.899  0.8574 -0.1935 -0.0614
   65SAPC   H6X 5366   0.930   3.002   3.877  1.3232  0.3346 -0.6770
   65SAPC   H6Y 5367   0.761   3.041   3.916  1.0593 -0.2949  0.9694
   65SAPC   C37 5368   0.905   3.156   4.030  0.0320  0.3992 -0.9332
   65SAPC   H7X 5369   0.869   3.261   4.038 -1.2982 -0.1384  0.9921
   65SAPC   H7Y 5370   1.014   3.144   4.045  0.3753  0.8501 -2.8156
   65SAPC   C38 5371   0.844   3.080   4.150 -0.0321  0.0782  0.1928
   65SAPC   H8X 5372   0.888   2.978   4.142 -0.5964 -0.0818 -1.1163
   65SAPC   H8Y 5373   0.734   3.076   4.140 -0.1185 -2.4646  1.4419
   65SAPC   C39 5374   0.883   3.138   4.287 -0.2520 -0.5323 -0.4585
   65SAPC   H9X 5375   0.866   3.248   4.285  0.0589 -0.4604  0.4199
   65SAPC   H9Y 5376   0.989   3.137   4.320 -0.5075 -2.0821  0.4315
   65SAPC  C310 5377   0.790   3.073   4.398 -0.0134  0.1841 -0.1491
   65SAPC  H10X 5378   0.809   2.964   4.409  1.9347  0.4223 -0.9107
   65SAPC  H10Y 5379   0.684   3.096   4.372 -0.5019 -2.0074 -0.3052
   65SAPC  C311 5380   0.828   3.130   4.532  0.1910 -0.1374 -0.0834
   65SAPC  H11X 5381   0.817   3.240   4.515 -0.1127 -0.2888 -0.8927
   65SAPC  H11Y 5382   0.932   3.104   4.562  0.6070  2.2125  0.8107
   65SAPC  C312 5383   0.735   3.077   4.643  0.1222  0.2474 -0.8575
   65SAPC  H12X 5384   0.724   2.967   4.634 -0.3227  0.2595 -0.5027
   65SAPC  H12Y 5385   0.631   3.109   4.624  0.0897  0.5778 -0.1600
   65SAPC  C313 5386   0.790   3.112   4.781  0.0480  0.3935 -0.2790
   65SAPC  H13X 5387   0.900   3.127   4.784  0.0135  0.7310 -0.6764
   65SAPC  H13Y 5388   0.762   3.035   4.856 -1.7591  0.7144 -0.5793
   65SAPC  C314 5389   0.721   3.240   4.833 -0.0718 -0.4454  0.1677
   65SAPC  H14X 5390   0.612   3.226   4.851  0.5740 -2.6247  3.1797
   65SAPC  H14Y 5391   0.723   3.315   4.752 -1.0907 -0.5821  0.0064
   65SAPC  C315 5392   0.790   3.281   4.961 -0.6128  0.0156 -0.6058
   65SAPC  H15X 5393   0.890   3.327   4.942 -0.8995 -0.4272 -3.8619
   65SAPC  H15Y 5394   0.813   3.187   5.016 -1.1399 -0.1837 -0.7235
   65SAPC  C316 5395   0.694   3.370   5.044  0.7495 -0.0420  0.0589
   65SAPC  H16X 5396   0.588   3.338   5.041  0.3487  1.2752 -0.4328
   65SAPC  H16Y 5397   0.696   3.467   4.991 -0.6598 -0.8024 -1.4562
   65SAPC  C317 5398   0.736   3.387   5.192  0.5202 -0.2456  0.0505
   65SAPC  H17X 5399   0.817   3.463   5.194 -0.2800  0.6422 -0.2390
   65SAPC  H17Y 5400   0.785   3.294   5.229  0.3948 -0.3976 -0.1667
   65SAPC  C318 5401   0.623   3.420   5.293 -0.9472  0.0294  0.0450
   65SAPC  H18X 5402   0.565   3.509   5.262  2.4269  2.3159 -0.2405
   65SAPC  H18Y 5403   0.665   3.458   5.389  0.2961  0.9997 -0.8519
   65SAPC  H18Z 5404   0.568   3.326   5.314 -1.4629  0.3912  0.3184
   66SAPC     N 5405   4.158   6.247   2.035 -0.3728 -0.1333 -0.3925
   66SAPC   C12 5406   4.266   6.228   2.137  0.2948  0.8374 -0.5518
   66SAPC  H12A 5407   4.353   6.279   2.098 -0.0773  1.6886 -0.3087
   66SAPC  H12B 5408   4.301   6.126   2.139  1.1169  1.1233 -0.0336
   66SAPC   C13 5409   4.223   6.189   1.910  0.7137  0.0522  0.6577
   66SAPC  H13A 5410   4.237   6.082   1.917  0.2425  0.0298  1.4395
   66SAPC  H13B 5411   4.155   6.201   1.827 -1.0354 -0.1132  2.0113
   66SAPC  H13C 5412   4.316   6.234   1.878 -0.0829  0.3926 -1.3150
   66SAPC   C14 5413   4.034   6.180   2.071 -0.2920  0.4166  0.0799
   66SAPC  H14A 5414   4.041   6.076   2.101  0.9921  0.6928  0.8271
   66SAPC  H14B 5415   3.985   6.233   2.151  1.5722 -0.2816  1.7823
   66SAPC  H14C 5416   3.964   6.186   1.989  0.2561 -0.2753 -0.4608
   66SAPC   C15 5417   4.129   6.388   2.018 -0.3301  0.2406  0.1731
   66SAPC  H15A 5418   4.099   6.428   2.114 -1.8554 -0.0146 -0.1808
   66SAPC  H15B 5419   4.211   6.439   1.968 -0.4583  1.0686  0.7702
   66SAPC  H15C 5420   4.049   6.406   1.947  0.5287  0.2433 -0.8186
   66SAPC   C11 5421   4.241   6.271   2.282  0.5612  0.2605 -0.6277
   66SAPC  H11A 5422   4.317   6.228   2.350  1.0464  1.9532 -0.0556
   66SAPC  H11B 5423   4.148   6.227   2.323  0.5721 -1.4965 -2.3051
   66SAPC     P 5424   4.288   6.494   2.412 -0.2755  0.1405  0.2051
   66SAPC   O13 5425   4.436   6.500   2.407  0.3463  0.2209 -0.2732
   66SAPC   O14 5426   4.227   6.626   2.431  0.5455 -0.2579  0.0862
   66SAPC   O12 5427   4.238   6.418   2.290 -0.4088  0.3840  0.9127
   66SAPC   O11 5428   4.250   6.406   2.537  0.3823  0.1537  0.3477
   66SAPC    C1 5429   4.126   6.430   2.607 -0.3063  0.0812 -0.2757
   66SAPC    HA 5430   4.053   6.493   2.554 -0.8527  0.6937  1.1496
   66SAPC    HB 5431   4.077   6.332   2.625  0.8730 -0.5318 -0.2745
   66SAPC    C2 5432   4.144   6.502   2.745 -0.6685 -0.6152 -0.2817
   66SAPC    HS 5433   4.176   6.607   2.728 -1.5978 -0.4091 -0.7870
   66SAPC   O21 5434   4.219   6.414   2.829  0.2385  0.2167  0.1930
   66SAPC   C21 5435   4.325   6.466   2.877  0.6057 -0.1884 -0.2990
   66SAPC   O22 5436   4.370   6.581   2.865  0.8135  0.4296 -0.0746
   66SAPC   C22 5437   4.399   6.369   2.960  0.4475  0.1702  0.8158
   66SAPC   H2R 5438   4.319   6.331   3.026  1.0344  0.6479  1.8273
   66SAPC   H2S 5439   4.432   6.292   2.888 -2.2658  1.8061 -2.4802
   66SAPC    C3 5440   4.003   6.523   2.806  0.3031 -0.8659  0.2756
   66SAPC    HX 5441   3.950   6.426   2.815 -1.0341 -0.1557  0.2633
   66SAPC    HY 5442   3.942   6.584   2.736 -1.6407  2.4541  4.3803
   66SAPC   O31 5443   4.019   6.589   2.938  0.4719 -0.1591  0.3676
   66SAPC   C31 5444   3.957   6.700   2.956  0.2305 -0.2891 -0.7185
   66SAPC   O32 5445   3.871   6.750   2.882 -0.0207  0.4790  0.2014
   66SAPC   C32 5446   3.987   6.739   3.104  0.1881  0.3859  0.3674
   66SAPC   H2X 5447   3.926   6.679   3.174 -0.2014  1.3891  0.9115
   66SAPC   H2Y 5448   3.964   6.848   3.110 -0.3619  0.3804 -1.1940
   66SAPC   C23 5449   4.519   6.418   3.034 -0.7791  0.4671 -0.7947
   66SAPC   H3R 5450   4.572   6.483   2.961 -0.5947  0.4994 -0.6338
   66SAPC   H3S 5451   4.586   6.332   3.058 -0.6214  1.2645  1.9568
   66SAPC   C24 5452   4.494   6.502   3.160 -0.1105 -0.8177 -0.1393
   66SAPC   H4R 5453   4.454   6.432   3.236  0.6116 -2.0094 -0.8162
   66SAPC   H4S 5454   4.411   6.575   3.156  0.6358  0.1071  0.8746
   66SAPC   C25 5455   4.616   6.580   3.212  0.0051  0.3185  0.0243
   66SAPC   H5R 5456   4.644   6.664   3.146  0.5604 -1.0910 -1.6019
   66SAPC   C26 5457   4.672   6.560   3.330 -0.6451  0.0677  0.5026
   66SAPC   H6R 5458   4.765   6.612   3.354 -0.8150  0.1709  0.9523
   66SAPC   C27 5459   4.636   6.447   3.427 -0.5244  0.2278 -0.2364
   66SAPC   H7R 5460   4.605   6.357   3.369  0.8192  0.4948 -1.4110
   66SAPC   H7S 5461   4.553   6.485   3.490 -0.1679  0.0943  0.3167
   66SAPC   C28 5462   4.760   6.402   3.510 -0.0007 -0.5649  0.1731
   66SAPC   H8R 5463   4.844   6.380   3.443 -1.1170 -1.5768 -0.9717
   66SAPC   C29 5464   4.775   6.370   3.640 -0.8494  0.0936  1.3142
   66SAPC   H9R 5465   4.869   6.325   3.673  0.7108  2.7584  0.7752
   66SAPC  C210 5466   4.679   6.387   3.753 -0.3493 -0.5117  0.2280
   66SAPC  H10R 5467   4.615   6.297   3.763 -0.0161 -0.8424 -0.5097
   66SAPC  H10S 5468   4.614   6.475   3.732 -2.6028 -2.4359 -1.4410
   66SAPC  C211 5469   4.746   6.397   3.887  0.2585 -0.4825  0.1549
   66SAPC  H11R 5470   4.852   6.369   3.887  0.5388  0.3173  2.6106
   66SAPC  C212 5471   4.688   6.456   3.994  0.1788 -0.4556  0.0638
   66SAPC  H12R 5472   4.736   6.446   4.092  0.8240  0.7217 -0.1119
   66SAPC  C213 5473   4.551   6.519   4.014 -0.7318 -0.0084  0.7907
   66SAPC  H13R 5474   4.500   6.532   3.916  1.6736 -1.0493 -0.6867
   66SAPC  H13S 5475   4.564   6.615   4.069  0.5728  2.2666 -3.0725
   66SAPC  C214 5476   4.463   6.422   4.095 -0.3100  1.0102  0.2259
   66SAPC  H14R 5477   4.494   6.317   4.092 -0.2361  1.0466 -0.3077
   66SAPC  C215 5478   4.382   6.458   4.191 -0.6237 -0.2499  0.1714
   66SAPC  H15R 5479   4.305   6.384   4.220 -0.6281 -0.1298  0.4711
   66SAPC  C216 5480   4.343   6.603   4.217 -0.3573 -0.4189  0.1846
   66SAPC  H16R 5481   4.365   6.664   4.127  0.3575 -0.3515  0.3964
   66SAPC  H16S 5482   4.407   6.641   4.300  0.1482  1.1400 -0.8876
   66SAPC  C217 5483   4.191   6.629   4.250 -0.8464  0.4377 -0.2585
   66SAPC  H17R 5484   4.166   6.580   4.346 -1.3729  1.3611  0.0921
   66SAPC  H17S 5485   4.139   6.581   4.165 -1.4305  0.3102  0.1632
   66SAPC  C218 5486   4.149   6.770   4.262 -0.8785  0.7431  0.2650
   66SAPC  H18R 5487   4.038   6.765   4.250 -0.6731  0.0132 -1.6756
   66SAPC  H18S 5488   4.190   6.835   4.182 -0.8198  2.3898  1.5585
   66SAPC  C219 5489   4.174   6.847   4.398  0.5886  0.5876 -0.0453
   66SAPC  H19R 5490   4.273   6.889   4.371  1.1060 -1.9349 -2.6067
   66SAPC  H19S 5491   4.192   6.773   4.479 -1.2073 -2.3259 -2.0692
   66SAPC  C220 5492   4.070   6.954   4.432 -0.0134  0.0743  0.1437
   66SAPC  H20R 5493   4.083   7.005   4.530 -1.7922 -1.1776  1.0736
   66SAPC  H20S 5494   3.973   6.901   4.438  0.5393 -1.0409 -0.4032
   66SAPC  H20T 5495   4.063   7.032   4.353 -1.9691  0.1061  0.3047
   66SAPC   C33 5496   4.136   6.721   3.145  0.1125  0.0231 -0.0217
   66SAPC   H3X 5497   4.210   6.778   3.085  0.8034 -0.7373  0.0813
   66SAPC   H3Y 5498   4.172   6.616   3.135 -2.1724 -0.7609 -0.4882
   66SAPC   C34 5499   4.151   6.761   3.291  0.4438 -1.0278  0.5215
   66SAPC   H4X 5500   4.077   6.701   3.348  0.1000 -0.0786  1.0864
   66SAPC   H4Y 5501   4.158   6.871   3.304  0.0118 -1.1793  2.2155
   66SAPC   C35 5502   4.288   6.702   3.336 -0.1869  0.0757 -0.2583
   66SAPC   H5X 5503   4.367   6.754   3.278  0.3554  0.6968  0.9780
   66SAPC   H5Y 5504   4.290   6.592   3.320 -0.0057  0.4736 -3.6201
   66SAPC   C36 5505   4.315   6.725   3.482 -0.2011  0.1723 -0.2365
   66SAPC   H6X 5506   4.317   6.835   3.497 -3.5569  0.6450 -2.2116
   66SAPC   H6Y 5507   4.408   6.672   3.511 -0.1188 -0.4000 -1.4824
   66SAPC   C37 5508   4.209   6.682   3.587  0.6187  0.6052  0.1453
   66SAPC   H7X 5509   4.104   6.699   3.557  1.1719  0.6143 -1.9937
   66SAPC   H7Y 5510   4.234   6.750   3.671 -0.9906  2.6377 -0.9234
   66SAPC   C38 5511   4.222   6.533   3.626  0.2389  0.2371 -0.0234
   66SAPC   H8X 5512   4.324   6.522   3.670 -0.1844  1.7532  1.4852
   66SAPC   H8Y 5513   4.210   6.473   3.533 -1.2458  0.9337 -0.3189
   66SAPC   C39 5514   4.113   6.494   3.726 -0.2126  0.0809  0.4249
   66SAPC   H9X 5515   4.012   6.520   3.689  0.4629  1.6524 -0.3862
   66SAPC   H9Y 5516   4.122   6.546   3.824 -1.7221 -2.1620  1.8394
   66SAPC  C310 5517   4.120   6.345   3.760 -0.5054  0.8438  0.6407
   66SAPC  H10X 5518   4.073   6.299   3.670  1.1368 -1.3062  0.8160
   66SAPC  H10Y 5519   4.050   6.319   3.842  0.4106  0.7713  1.4025
   66SAPC  C311 5520   4.267   6.288   3.785  0.3553 -0.6930 -0.4134
   66SAPC  H11X 5521   4.301   6.355   3.867 -0.6009 -1.1987  0.4156
   66SAPC  H11Y 5522   4.321   6.313   3.691 -1.1580 -0.0202 -1.1538
   66SAPC  C312 5523   4.269   6.143   3.832  0.0417 -0.5787 -0.1337
   66SAPC  H12X 5524   4.181   6.122   3.897  0.4645  1.5520  1.2498
   66SAPC  H12Y 5525   4.352   6.129   3.905  1.7902  1.6903 -1.5764
   66SAPC  C313 5526   4.270   6.045   3.708 -0.2448  0.2549 -0.6814
   66SAPC  H13X 5527   4.349   6.077   3.637  0.8836 -0.1271  0.3631
   66SAPC  H13Y 5528   4.171   6.058   3.659 -1.5656 -1.3340  1.3789
   66SAPC  C314 5529   4.291   5.892   3.749  0.7298 -0.1259 -0.5052
   66SAPC  H14X 5530   4.270   5.823   3.664  0.0492 -1.5443  0.7767
   66SAPC  H14Y 5531   4.222   5.881   3.835  1.3845  2.6357  0.4717
   66SAPC  C315 5532   4.435   5.877   3.802 -0.7089  0.3941 -0.0958
   66SAPC  H15X 5533   4.442   5.794   3.876 -0.9721 -1.4980 -2.0718
   66SAPC  H15Y 5534   4.457   5.971   3.857  2.8621 -0.0040 -0.5904
   66SAPC  C316 5535   4.540   5.856   3.693 -0.4172  0.4316 -0.1708
   66SAPC  H16X 5536   4.550   5.946   3.629  1.9668 -1.0208 -2.0573
   66SAPC  H16Y 5537   4.516   5.767   3.630  1.1344  0.4513 -0.8316
   66SAPC  C317 5538   4.679   5.847   3.756 -0.3365 -0.6235 -0.7961
   66SAPC  H17X 5539   4.680   5.768   3.834 -1.9824  0.2711  0.1772
   66SAPC  H17Y 5540   4.705   5.942   3.807 -1.3577  0.0720 -1.5339
   66SAPC  C318 5541   4.800   5.811   3.655  1.5864 -0.0192  0.4920
   66SAPC  H18X 5542   4.803   5.867   3.559  0.5092 -2.2658 -0.9286
   66SAPC  H18Y 5543   4.799   5.703   3.629 -1.4521 -0.4040  1.7685
   66SAPC  H18Z 5544   4.897   5.816   3.709  1.0510  0.5112  1.4289
   67SAPC     N 5545   1.388   3.822   2.803  0.0764  0.3133  0.1736
   67SAPC   C12 5546   1.396   3.967   2.751 -0.2495  0.1918 -0.0020
   67SAPC  H12A 5547   1.457   3.957   2.662 -2.7874  0.2077 -1.8454
   67SAPC  H12B 5548   1.453   4.037   2.809  0.4676 -0.1942 -0.2220
   67SAPC   C13 5549   1.333   3.722   2.712 -0.0503  0.7345  0.4177
   67SAPC  H13A 5550   1.366   3.725   2.609 -1.5879  1.5374 -0.0971
   67SAPC  H13B 5551   1.348   3.624   2.753  0.8313  1.4417  1.8830
   67SAPC  H13C 5552   1.225   3.730   2.707 -0.1296 -0.6155 -0.9688
   67SAPC   C14 5553   1.525   3.777   2.841  0.4527 -0.4536  0.0785
   67SAPC  H14A 5554   1.562   3.846   2.915 -1.0716 -0.0152  0.4756
   67SAPC  H14B 5555   1.533   3.677   2.883 -3.0812 -1.6281 -1.6245
   67SAPC  H14C 5556   1.598   3.787   2.763  1.2464 -0.4775  0.8094
   67SAPC   C15 5557   1.306   3.821   2.925 -0.2182 -0.1689  0.1711
   67SAPC  H15A 5558   1.258   3.725   2.940 -0.7707  0.0365 -0.2535
   67SAPC  H15B 5559   1.360   3.841   3.017 -1.6698 -0.5059  1.1486
   67SAPC  H15C 5560   1.226   3.892   2.912  0.0125 -0.2919 -2.3655
   67SAPC   C11 5561   1.267   4.039   2.697 -0.1304  0.3187  0.2306
   67SAPC  H11A 5562   1.243   3.985   2.603 -3.3939  4.5556 -1.6470
   67SAPC  H11B 5563   1.294   4.144   2.674 -1.6061  0.6727  0.0595
   67SAPC     P 5564   1.022   4.087   2.754  0.0163  0.5790  0.0959
   67SAPC   O13 5565   1.022   4.233   2.731 -1.3752  0.0660  0.4915
   67SAPC   O14 5566   0.975   3.998   2.645  0.5589 -0.0405  0.3526
   67SAPC   O12 5567   1.164   4.040   2.792 -0.0831 -0.2426  0.1746
   67SAPC   O11 5568   0.948   4.053   2.890  0.2401  0.0643  0.0452
   67SAPC    C1 5569   0.935   3.907   2.918 -0.3952 -0.1788  0.0870
   67SAPC    HA 5570   0.841   3.877   2.867 -1.8528  3.4342  0.3501
   67SAPC    HB 5571   1.022   3.846   2.888  1.1778  2.0932 -0.2122
   67SAPC    C2 5572   0.920   3.894   3.070  0.6809  1.4324  0.3201
   67SAPC    HS 5573   1.013   3.940   3.111  0.8713 -0.5513  2.2627
   67SAPC   O21 5574   0.918   3.753   3.102  0.0268 -0.1907 -0.0247
   67SAPC   C21 5575   0.996   3.718   3.206  0.2891 -0.5466  0.6851
   67SAPC   O22 5576   1.063   3.785   3.280 -0.2328 -0.4829  0.2005
   67SAPC   C22 5577   0.972   3.564   3.214 -0.1019  0.3219 -0.1800
   67SAPC   H2R 5578   0.868   3.528   3.199  0.0799 -1.2237  1.8274
   67SAPC   H2S 5579   1.026   3.502   3.138  1.0320  0.5774  0.3921
   67SAPC    C3 5580   0.800   3.963   3.140 -0.8367  0.5972  0.2101
   67SAPC    HX 5581   0.707   3.915   3.105 -1.6321  1.1680  1.4722
   67SAPC    HY 5582   0.790   4.067   3.099 -0.4877  0.8238  0.6950
   67SAPC   O31 5583   0.808   3.958   3.286  0.0028  0.0337  0.0289
   67SAPC   C31 5584   0.872   4.063   3.339 -0.7275  0.0524 -0.9765
   67SAPC   O32 5585   0.912   4.160   3.279 -0.2416  0.0634  0.1319
   67SAPC   C32 5586   0.864   4.046   3.497  0.3570  0.3341  0.4589
   67SAPC   H2X 5587   0.895   3.940   3.510 -2.8924 -0.5583  1.9839
   67SAPC   H2Y 5588   0.764   4.052   3.545  0.6762 -1.0253  1.3649
   67SAPC   C23 5589   1.020   3.509   3.353  0.1609 -0.3342 -0.2759
   67SAPC   H3R 5590   1.099   3.575   3.394  0.6913 -0.3599 -1.2385
   67SAPC   H3S 5591   1.067   3.410   3.339 -1.0123 -1.0917  0.9131
   67SAPC   C24 5592   0.908   3.503   3.449  0.6109 -0.2389  0.5333
   67SAPC   H4R 5593   0.822   3.446   3.409  0.4645  1.0435 -1.1028
   67SAPC   H4S 5594   0.876   3.610   3.451  0.5769 -0.2556  2.1830
   67SAPC   C25 5595   0.955   3.457   3.576 -0.6145 -0.3175 -0.4024
   67SAPC   H5R 5596   0.955   3.347   3.574 -2.4148 -0.3723  0.7659
   67SAPC   C26 5597   1.008   3.527   3.686  0.5346 -0.7223 -0.9404
   67SAPC   H6R 5598   1.052   3.465   3.766  2.8120  1.5980 -0.2495
   67SAPC   C27 5599   1.005   3.678   3.707 -0.5250 -0.7427 -0.5286
   67SAPC   H7R 5600   0.948   3.740   3.633  1.3618 -0.0246 -1.4511
   67SAPC   H7S 5601   1.107   3.717   3.686 -0.1881 -1.1721  0.2780
   67SAPC   C28 5602   0.964   3.734   3.847 -0.0058  0.2255  0.4155
   67SAPC   H8R 5603   0.879   3.803   3.839 -0.6295 -0.6932 -1.9455
   67SAPC   C29 5604   1.016   3.697   3.961  0.4477  0.3909 -0.3232
   67SAPC   H9R 5605   0.976   3.740   4.055 -0.3558  0.3264 -0.6297
   67SAPC  C210 5606   1.154   3.623   3.979 -0.9489  0.3443 -0.2325
   67SAPC  H10R 5607   1.214   3.629   3.886  0.9305  0.4147  0.9396
   67SAPC  H10S 5608   1.129   3.515   3.995 -3.5864  1.0974  1.3748
   67SAPC  C211 5609   1.237   3.679   4.088 -0.5909  0.4021 -0.2682
   67SAPC  H11R 5610   1.287   3.774   4.063 -0.4741 -0.2252 -2.7256
   67SAPC  C212 5611   1.257   3.623   4.210 -0.3054 -0.4754 -0.3341
   67SAPC  H12R 5612   1.319   3.671   4.287 -0.1530 -0.3569 -0.5310
   67SAPC  C213 5613   1.200   3.489   4.262 -0.4402  0.0162  0.2850
   67SAPC  H13R 5614   1.274   3.452   4.337  0.0543 -0.1575 -0.2799
   67SAPC  H13S 5615   1.194   3.407   4.187 -0.4853  1.8644 -1.8539
   67SAPC  C214 5616   1.068   3.513   4.328 -0.4880 -0.6817  0.1908
   67SAPC  H14R 5617   0.994   3.561   4.262  0.2276  1.4851  0.8620
   67SAPC  C215 5618   1.026   3.478   4.449 -0.0654  0.5606  0.0078
   67SAPC  H15R 5619   0.921   3.490   4.479  0.3854  0.1268  1.9035
   67SAPC  C216 5620   1.113   3.407   4.550  0.7941 -0.3940  0.5252
   67SAPC  H16R 5621   1.221   3.432   4.543  0.3548  1.2318 -0.9649
   67SAPC  H16S 5622   1.111   3.297   4.533  0.1696 -0.6218  1.8779
   67SAPC  C217 5623   1.082   3.452   4.699  0.4651  0.5050  0.1226
   67SAPC  H17R 5624   0.979   3.428   4.731  1.1183 -0.9138  1.3214
   67SAPC  H17S 5625   1.093   3.562   4.691 -0.7499  0.5709 -0.7638
   67SAPC  C218 5626   1.187   3.406   4.810 -0.1323  0.8402 -0.4996
   67SAPC  H18R 5627   1.293   3.412   4.777  0.1349  1.1052  0.3857
   67SAPC  H18S 5628   1.158   3.299   4.820 -1.3557  1.1618 -0.4039
   67SAPC  C219 5629   1.157   3.481   4.941  0.1985  0.9781  0.0066
   67SAPC  H19R 5630   1.052   3.458   4.971  1.4241 -1.2069  3.0935
   67SAPC  H19S 5631   1.156   3.589   4.918  0.0016  0.8124 -0.8246
   67SAPC  C220 5632   1.252   3.452   5.052  0.2147 -0.4561 -0.1472
   67SAPC  H20R 5633   1.214   3.501   5.144  1.1437 -1.3738  0.7605
   67SAPC  H20S 5634   1.352   3.496   5.030  0.5678 -1.0744  0.1915
   67SAPC  H20T 5635   1.260   3.342   5.067 -2.3297 -0.7908 -0.8332
   67SAPC   C33 5636   0.960   4.140   3.567 -0.3543 -0.0037  0.2199
   67SAPC   H3X 5637   0.923   4.244   3.549 -1.3237 -0.1523  1.2180
   67SAPC   H3Y 5638   1.061   4.130   3.523  0.2786  2.8977  0.7797
   67SAPC   C34 5639   0.987   4.106   3.715  0.8024  0.5892  0.0813
   67SAPC   H4X 5640   1.020   4.000   3.710 -1.2232 -0.2141  2.0267
   67SAPC   H4Y 5641   0.890   4.104   3.770  0.9754 -2.2709  0.4581
   67SAPC   C35 5642   1.094   4.192   3.787  0.4343 -0.1177  0.4439
   67SAPC   H5X 5643   1.046   4.289   3.813  2.1698  0.7971  0.3562
   67SAPC   H5Y 5644   1.190   4.194   3.731  0.5679 -1.1589  0.6051
   67SAPC   C36 5645   1.117   4.124   3.926  0.1367  0.2238  0.6163
   67SAPC   H6X 5646   1.168   4.032   3.891  0.2976  0.8721 -0.9322
   67SAPC   H6Y 5647   1.018   4.109   3.974 -0.4437 -1.3597 -0.9905
   67SAPC   C37 5648   1.218   4.196   4.022  0.4572  0.1129 -0.2524
   67SAPC   H7X 5649   1.170   4.293   4.051 -0.3258 -0.1916 -0.5026
   67SAPC   H7Y 5650   1.312   4.229   3.974 -0.4265  1.9970 -0.8167
   67SAPC   C38 5651   1.239   4.121   4.156 -0.3695  0.4368  0.0646
   67SAPC   H8X 5652   1.279   4.020   4.136 -1.2777  0.1466 -0.3414
   67SAPC   H8Y 5653   1.141   4.107   4.206  0.4246 -2.6922  0.9315
   67SAPC   C39 5654   1.325   4.204   4.251  0.0400  0.0462  0.0263
   67SAPC   H9X 5655   1.280   4.305   4.245  0.6507  0.2403 -2.6587
   67SAPC   H9Y 5656   1.428   4.225   4.213 -1.1129  3.2268 -1.6827
   67SAPC  C310 5657   1.333   4.144   4.394  1.0636 -0.1601  0.0224
   67SAPC  H10X 5658   1.242   4.174   4.450  0.0021  1.2501 -2.2906
   67SAPC  H10Y 5659   1.421   4.187   4.446  0.3762 -0.5736  1.6024
   67SAPC  C311 5660   1.352   3.990   4.399 -0.5623 -0.3260  0.5150
   67SAPC  H11X 5661   1.453   3.972   4.356  0.1986  2.5286  0.8451
   67SAPC  H11Y 5662   1.273   3.936   4.344  0.1556 -1.9879  1.0458
   67SAPC  C312 5663   1.345   3.958   4.551 -0.4936  0.6604 -0.3768
   67SAPC  H12X 5664   1.244   3.971   4.594  0.1497  0.0596  1.3939
   67SAPC  H12Y 5665   1.413   4.026   4.606 -0.1357 -0.2912  0.3841
   67SAPC  C313 5666   1.375   3.807   4.565  0.2884 -0.0194 -0.4941
   67SAPC  H13X 5667   1.484   3.788   4.549  0.8300  1.0889  1.5033
   67SAPC  H13Y 5668   1.316   3.744   4.496  0.0165 -0.3545  0.0349
   67SAPC  C314 5669   1.343   3.752   4.708  0.4081  0.0556 -0.6594
   67SAPC  H14X 5670   1.388   3.650   4.704  0.0864 -0.0653 -1.7347
   67SAPC  H14Y 5671   1.233   3.743   4.721  0.5007  0.4248  0.4206
   67SAPC  C315 5672   1.394   3.843   4.810  0.0461  0.1740 -0.4687
   67SAPC  H15X 5673   1.340   3.939   4.818 -2.0644 -0.9034 -1.1432
   67SAPC  H15Y 5674   1.502   3.862   4.791  0.2673  1.2185  1.5646
   67SAPC  C316 5675   1.394   3.787   4.957  0.1151  0.2793  0.4789
   67SAPC  H16X 5676   1.462   3.700   4.959  0.8919  0.8101 -1.0975
   67SAPC  H16Y 5677   1.294   3.744   4.977  1.1424 -2.2609  0.4513
   67SAPC  C317 5678   1.433   3.890   5.054 -0.0276  0.5134  0.2936
   67SAPC  H17X 5679   1.380   3.987   5.047  2.3716  1.9476  0.9303
   67SAPC  H17Y 5680   1.541   3.913   5.040  0.4431 -2.4803 -1.8609
   67SAPC  C318 5681   1.426   3.834   5.198  0.5704 -0.5632  0.3902
   67SAPC  H18X 5682   1.476   3.905   5.267  0.3304  1.1934 -1.1802
   67SAPC  H18Y 5683   1.477   3.735   5.195  0.0740 -0.8360  0.7455
   67SAPC  H18Z 5684   1.326   3.813   5.241 -0.3911  1.5040 -0.7060
   68SAPC     N 5685   3.672   0.592   2.409  0.0406  0.2983 -0.0149
   68SAPC   C12 5686   3.596   0.616   2.540 -0.2837 -0.4582  0.0342
   68SAPC  H12A 5687   3.671   0.602   2.616 -1.0290  0.1428  0.8973
   68SAPC  H12B 5688   3.525   0.536   2.558  1.6726 -1.5536  3.7269
   68SAPC   C13 5689   3.789   0.681   2.405  0.4318  0.0824  0.4962
   68SAPC  H13A 5690   3.864   0.652   2.477  0.3690 -2.3020 -0.3195
   68SAPC  H13B 5691   3.832   0.677   2.306  0.9920  0.1340  0.7316
   68SAPC  H13C 5692   3.760   0.785   2.416  1.4479  0.3887  0.3927
   68SAPC   C14 5693   3.739   0.456   2.413  0.2381  0.3888  0.3904
   68SAPC  H14A 5694   3.670   0.373   2.411  1.3390 -0.5523 -0.4534
   68SAPC  H14B 5695   3.814   0.434   2.338 -0.0757 -0.2865  0.2632
   68SAPC  H14C 5696   3.794   0.441   2.505  1.2776  0.9973 -0.1108
   68SAPC   C15 5697   3.588   0.595   2.289  0.0329  0.5181 -0.8458
   68SAPC  H15A 5698   3.647   0.585   2.199  3.1708  0.4625  1.0781
   68SAPC  H15B 5699   3.517   0.513   2.285 -0.4663  0.9827 -1.8262
   68SAPC  H15C 5700   3.537   0.690   2.285  3.6108  2.8643  2.5435
   68SAPC   C11 5701   3.520   0.748   2.575 -0.2227 -0.1590 -0.3079
   68SAPC  H11A 5702   3.589   0.835   2.586 -0.4488 -0.0368  0.1637
   68SAPC  H11B 5703   3.482   0.750   2.679  1.3296  0.6171  0.2881
   68SAPC     P 5704   3.271   0.725   2.509 -0.0348 -0.3625  0.1091
   68SAPC   O13 5705   3.192   0.767   2.387 -0.0593 -0.2535 -0.4441
   68SAPC   O14 5706   3.272   0.579   2.534  0.1874 -0.6311 -0.0012
   68SAPC   O12 5707   3.417   0.786   2.486  0.3469 -0.2377  0.2009
   68SAPC   O11 5708   3.212   0.803   2.629 -0.0317  0.3300 -0.3330
   68SAPC    C1 5709   3.249   0.929   2.669 -0.2314 -0.3245  0.8817
   68SAPC    HA 5710   3.358   0.934   2.692 -0.8552  1.7923  3.8953
   68SAPC    HB 5711   3.226   1.011   2.598  3.1227  0.7974  0.9212
   68SAPC    C2 5712   3.157   0.965   2.788 -0.6378 -0.8995  0.2311
   68SAPC    HS 5713   3.199   1.060   2.828  0.9110 -0.3320 -2.4732
   68SAPC   O21 5714   3.167   0.871   2.896 -0.3053  0.4503 -0.4560
   68SAPC   C21 5715   3.283   0.859   2.956 -0.2770 -0.2095  0.0809
   68SAPC   O22 5716   3.382   0.928   2.933  0.3763  0.1747  0.0351
   68SAPC   C22 5717   3.278   0.726   3.041 -0.1209  0.0261  0.2419
   68SAPC   H2R 5718   3.174   0.713   3.077  0.1633 -1.2935  0.6312
   68SAPC   H2S 5719   3.302   0.649   2.964  0.3820  1.0604 -0.6572
   68SAPC    C3 5720   3.010   0.998   2.746  0.1746  0.6296  0.4203
   68SAPC    HX 5721   2.974   0.926   2.669  0.7858  0.0648  0.6543
   68SAPC    HY 5722   3.013   1.091   2.684  0.3456 -0.8228 -1.8583
   68SAPC   O31 5723   2.930   1.012   2.864 -0.1224 -0.2058  0.2082
   68SAPC   C31 5724   2.871   0.895   2.900  0.2418  0.3848 -0.6941
   68SAPC   O32 5725   2.871   0.788   2.839  0.5032 -0.7857 -0.2270
   68SAPC   C32 5726   2.786   0.915   3.025 -0.4481 -0.0213  0.0225
   68SAPC   H2X 5727   2.690   0.861   3.009 -1.1321  0.5593  1.9256
   68SAPC   H2Y 5728   2.765   1.023   3.041 -0.4932 -0.2051  1.2635
   68SAPC   C23 5729   3.388   0.707   3.147 -0.1320  0.5154 -0.4201
   68SAPC   H3R 5730   3.484   0.744   3.106  0.8792 -1.8433 -0.3579
   68SAPC   H3S 5731   3.404   0.597   3.155 -1.8992  0.2074 -0.5277
   68SAPC   C24 5732   3.357   0.759   3.291  1.0781  0.4550  0.5768
   68SAPC   H4R 5733   3.410   0.693   3.363 -0.1464 -0.8708  0.3124
   68SAPC   H4S 5734   3.251   0.734   3.312  1.2493  0.6571  1.7147
   68SAPC   C25 5735   3.382   0.901   3.324 -0.4842 -0.5450 -0.3578
   68SAPC   H5R 5736   3.361   0.966   3.239  1.5655  1.0683  0.2979
   68SAPC   C26 5737   3.428   0.952   3.437 -0.6778 -0.1657 -0.2969
   68SAPC   H6R 5738   3.437   1.062   3.438  0.4736 -0.2162 -1.4803
   68SAPC   C27 5739   3.496   0.883   3.555 -0.1134  0.4662 -0.3171
   68SAPC   H7R 5740   3.577   0.941   3.604  1.1267 -0.0880 -1.6122
   68SAPC   H7S 5741   3.546   0.790   3.520  0.3506  0.7126 -0.3190
   68SAPC   C28 5742   3.385   0.844   3.651 -0.3483  0.0127 -0.0962
   68SAPC   H8R 5743   3.292   0.800   3.612 -0.3255  0.2660 -0.4463
   68SAPC   C29 5744   3.375   0.881   3.781 -0.2416 -0.1414 -0.4924
   68SAPC   H9R 5745   3.287   0.853   3.842  0.7206  0.2764  1.1218
   68SAPC  C210 5746   3.491   0.924   3.856  0.3363 -0.2882 -0.0914
   68SAPC  H10R 5747   3.547   0.990   3.786 -0.7479 -2.5775 -3.3322
   68SAPC  H10S 5748   3.544   0.827   3.871 -1.5493 -1.6299 -1.6151
   68SAPC  C211 5749   3.457   1.001   3.981 -0.7940  0.5079  0.3752
   68SAPC  H11R 5750   3.381   1.081   3.981  0.0244  1.3038 -0.3342
   68SAPC  C212 5751   3.528   0.989   4.094  0.3434 -0.1943 -0.2742
   68SAPC  H12R 5752   3.490   1.055   4.174 -0.0219  0.4434 -0.9546
   68SAPC  C213 5753   3.642   0.903   4.135 -0.3144  0.1100 -0.0556
   68SAPC  H13R 5754   3.718   0.951   4.200  1.9573 -2.8875 -0.2945
   68SAPC  H13S 5755   3.690   0.863   4.044  0.8748  0.2194  0.5121
   68SAPC  C214 5756   3.589   0.791   4.224 -0.2599 -0.7170 -0.5176
   68SAPC  H14R 5757   3.502   0.819   4.286 -0.3486 -1.5683 -0.2499
   68SAPC  C215 5758   3.615   0.662   4.234 -0.7377  0.5283  0.5333
   68SAPC  H15R 5759   3.540   0.599   4.285  0.0444  0.1067  1.1905
   68SAPC  C216 5760   3.721   0.593   4.150 -0.6434 -0.6813  0.1153
   68SAPC  H16R 5761   3.759   0.660   4.071  1.4672 -1.0980  0.7147
   68SAPC  H16S 5762   3.679   0.497   4.112 -1.9903  0.2911 -0.9736
   68SAPC  C217 5763   3.842   0.577   4.244 -0.4813  0.4257 -0.3072
   68SAPC  H17R 5764   3.872   0.675   4.286  0.9772 -0.5637  1.0846
   68SAPC  H17S 5765   3.924   0.548   4.175  1.1230  0.2056  1.5987
   68SAPC  C218 5766   3.832   0.481   4.358  0.7853  0.7244 -0.1127
   68SAPC  H18R 5767   3.762   0.516   4.436 -1.9763 -2.2192 -1.0698
   68SAPC  H18S 5768   3.933   0.481   4.403  0.2990 -0.9711  1.0539
   68SAPC  C219 5769   3.817   0.338   4.312  0.1313 -0.0497 -0.3655
   68SAPC  H19R 5770   3.903   0.316   4.246  0.4151 -0.8180  0.2323
   68SAPC  H19S 5771   3.726   0.326   4.250 -0.7418  1.3418  0.5828
   68SAPC  C220 5772   3.806   0.223   4.422 -0.4976  0.3794  0.2335
   68SAPC  H20R 5773   3.703   0.210   4.459 -0.3928  0.3070  0.5021
   68SAPC  H20S 5774   3.870   0.256   4.507 -0.7768 -1.0897  1.0473
   68SAPC  H20T 5775   3.844   0.127   4.382 -0.6786  0.8475 -1.1199
   68SAPC   C33 5776   2.848   0.860   3.164 -0.2681 -0.5156  0.3007
   68SAPC   H3X 5777   2.853   0.750   3.175  0.8786 -0.4217  0.9177
   68SAPC   H3Y 5778   2.769   0.885   3.238  0.1373  1.0342  0.2425
   68SAPC   C34 5779   2.968   0.933   3.221 -0.6055 -0.4426 -0.4062
   68SAPC   H4X 5780   2.963   1.043   3.227 -0.9363 -0.5342  1.7426
   68SAPC   H4Y 5781   3.055   0.923   3.151  0.4950  1.9448  0.5339
   68SAPC   C35 5782   3.016   0.890   3.362  1.0325  0.1120 -0.7757
   68SAPC   H5X 5783   3.124   0.909   3.382  1.1078 -2.3816  1.7292
   68SAPC   H5Y 5784   3.012   0.779   3.359 -0.9174  0.0427  1.4653
   68SAPC   C36 5785   2.915   0.944   3.470 -0.4996  0.6346 -0.3610
   68SAPC   H6X 5786   2.823   0.881   3.471 -0.6925  0.9202  0.0659
   68SAPC   H6Y 5787   2.885   1.047   3.443  0.2214  0.7136 -0.9031
   68SAPC   C37 5788   2.979   0.944   3.609 -0.5779 -0.2210 -0.1683
   68SAPC   H7X 5789   3.078   0.993   3.612 -0.1420 -1.1205  1.3063
   68SAPC   H7Y 5790   3.000   0.840   3.641 -0.5678  0.0438  0.7225
   68SAPC   C38 5791   2.883   1.008   3.713 -1.0878  0.6572 -0.3854
   68SAPC   H8X 5792   2.789   0.965   3.674  0.4994  0.1206 -4.1397
   68SAPC   H8Y 5793   2.874   1.119   3.706  1.3240  0.9228 -0.3808
   68SAPC   C39 5794   2.936   0.967   3.848 -0.3754  0.0739 -0.2611
   68SAPC   H9X 5795   3.038   1.010   3.856 -0.5941  0.4460  0.7803
   68SAPC   H9Y 5796   2.948   0.858   3.866 -1.6204  0.0749  0.7775
   68SAPC  C310 5797   2.835   1.012   3.951  0.1331  0.0991 -0.6574
   68SAPC  H10X 5798   2.741   0.955   3.938  0.9327 -1.1808 -0.9594
   68SAPC  H10Y 5799   2.808   1.118   3.934 -2.1094 -0.2091  0.5901
   68SAPC  C311 5800   2.886   0.994   4.093  0.0081  0.4739  0.0530
   68SAPC  H11X 5801   2.890   0.885   4.114  0.7179  0.0681 -1.9797
   68SAPC  H11Y 5802   2.810   1.029   4.167  1.6926  0.2872  1.9548
   68SAPC  C312 5803   3.022   1.056   4.136 -0.3975  0.2329  0.3345
   68SAPC  H12X 5804   3.056   1.121   4.054 -0.0002 -0.3438  0.0318
   68SAPC  H12Y 5805   3.092   0.971   4.122 -0.9588  0.1887 -3.2107
   68SAPC  C313 5806   3.008   1.135   4.260 -0.2866 -0.1022 -0.2525
   68SAPC  H13X 5807   2.976   1.067   4.342 -0.1028  1.5949  1.3140
   68SAPC  H13Y 5808   2.940   1.221   4.246  0.8032  0.6660 -1.0227
   68SAPC  C314 5809   3.133   1.199   4.322 -0.3774  0.1567  0.4849
   68SAPC  H14X 5810   3.082   1.279   4.380  1.0532  3.4777 -2.4646
   68SAPC  H14Y 5811   3.190   1.257   4.247  1.2461  1.1820  2.3966
   68SAPC  C315 5812   3.222   1.109   4.399  0.7137 -0.0156 -0.0915
   68SAPC  H15X 5813   3.260   1.026   4.337 -1.2285  0.6111 -2.2778
   68SAPC  H15Y 5814   3.175   1.065   4.490 -0.7747  2.1079  0.2613
   68SAPC  C316 5815   3.344   1.199   4.443 -0.3899 -0.0516  0.1579
   68SAPC  H16X 5816   3.310   1.302   4.465  1.3417  0.4223  0.7694
   68SAPC  H16Y 5817   3.425   1.199   4.367  1.7798 -0.4236  2.3237
   68SAPC  C317 5818   3.413   1.150   4.571  0.0817  0.2143  0.2289
   68SAPC  H17X 5819   3.335   1.141   4.649 -0.6077 -0.6421 -0.5323
   68SAPC  H17Y 5820   3.487   1.227   4.602  1.8742 -0.5999 -1.7415
   68SAPC  C318 5821   3.487   1.013   4.557  0.5108 -0.3933 -0.0472
   68SAPC  H18X 5822   3.558   1.014   4.471  1.0618 -0.5456  0.3970
   68SAPC  H18Y 5823   3.406   0.937   4.549  1.0137 -0.8735 -0.8250
   68SAPC  H18Z 5824   3.543   0.991   4.650 -2.0525 -1.5635  1.3165
   69SAPC     N 5825   2.428   2.681   2.025 -0.5885  0.1368  0.3766
   69SAPC   C12 5826   2.555   2.638   2.077  0.1672 -0.1139 -0.3200
   69SAPC  H12A 5827   2.614   2.718   2.119 -0.1741  0.3185 -0.6594
   69SAPC  H12B 5828   2.610   2.616   1.986 -0.9652  0.8840 -1.2761
   69SAPC   C13 5829   2.343   2.559   1.996  0.6390  0.2077 -0.5987
   69SAPC  H13A 5830   2.314   2.493   2.077 -0.7472 -0.4669 -1.6005
   69SAPC  H13B 5831   2.258   2.596   1.942 -1.3292 -1.5839  1.0931
   69SAPC  H13C 5832   2.392   2.494   1.925 -0.9004 -0.5802 -0.9814
   69SAPC   C14 5833   2.349   2.764   2.121  0.0345  0.3459  0.3178
   69SAPC  H14A 5834   2.259   2.798   2.072 -0.6745 -0.7607  0.8101
   69SAPC  H14B 5835   2.329   2.703   2.208  3.1351 -0.5412  0.5395
   69SAPC  H14C 5836   2.408   2.848   2.155  0.2109  0.0614  0.7284
   69SAPC   C15 5837   2.442   2.753   1.897 -0.4689  0.7667 -0.0764
   69SAPC  H15A 5838   2.469   2.856   1.915  2.3294  0.6865 -2.8592
   69SAPC  H15B 5839   2.514   2.706   1.832 -1.5501 -0.3676 -0.4983
   69SAPC  H15C 5840   2.346   2.760   1.847 -0.6662 -1.7045 -0.1763
   69SAPC   C11 5841   2.552   2.522   2.177  0.3184 -0.0078 -0.9588
   69SAPC  H11A 5842   2.455   2.532   2.232  0.2688  2.1126 -1.3225
   69SAPC  H11B 5843   2.633   2.540   2.251  0.5596  0.5880 -1.3609
   69SAPC     P 5844   2.690   2.300   2.100 -0.0975  0.2594 -0.4562
   69SAPC   O13 5845   2.638   2.165   2.080  0.0333  0.5019  0.4018
   69SAPC   O14 5846   2.783   2.353   1.999 -0.2576 -0.0888  0.0395
   69SAPC   O12 5847   2.570   2.398   2.118  0.0352  0.6273 -0.1996
   69SAPC   O11 5848   2.757   2.315   2.250  0.5413  0.1366  0.4094
   69SAPC    C1 5849   2.681   2.256   2.358 -0.1517 -0.0014  0.7335
   69SAPC    HA 5850   2.592   2.317   2.384 -0.0017 -0.1967  1.7385
   69SAPC    HB 5851   2.640   2.157   2.331 -0.7352  0.5761 -0.6049
   69SAPC    C2 5852   2.773   2.229   2.481  0.0957  0.0665 -0.5253
   69SAPC    HS 5853   2.731   2.140   2.532 -1.0828  1.4100  0.9524
   69SAPC   O21 5854   2.785   2.343   2.567 -0.0595  0.4835  0.0819
   69SAPC   C21 5855   2.715   2.327   2.678 -1.1157  0.3684 -0.5108
   69SAPC   O22 5856   2.677   2.222   2.727 -0.5286  0.1439 -0.4735
   69SAPC   C22 5857   2.705   2.458   2.747  0.6919 -0.1224  0.0626
   69SAPC   H2R 5858   2.721   2.546   2.681 -2.5285  0.5990  0.0852
   69SAPC   H2S 5859   2.606   2.468   2.795  0.4633 -1.2839 -0.1403
   69SAPC    C3 5860   2.914   2.178   2.440  0.5622  0.2662 -0.3263
   69SAPC    HX 5861   2.956   2.244   2.360  0.5711  0.2995 -0.2942
   69SAPC    HY 5862   2.904   2.073   2.406  0.4487  0.0805  0.2759
   69SAPC   O31 5863   3.016   2.193   2.541  0.6428 -0.6659 -1.0705
   69SAPC   C31 5864   3.128   2.117   2.530 -0.7070 -0.1566  0.5236
   69SAPC   O32 5865   3.149   2.055   2.431 -0.3624  0.7349 -0.2337
   69SAPC   C32 5866   3.224   2.151   2.645  0.2087 -1.1852  0.6745
   69SAPC   H2X 5867   3.322   2.101   2.626  0.1243 -0.8936 -0.5996
   69SAPC   H2Y 5868   3.178   2.099   2.732 -0.8032 -0.5174  0.5485
   69SAPC   C23 5869   2.815   2.478   2.858  0.7368  0.3248  0.2096
   69SAPC   H3R 5870   2.809   2.584   2.891  1.5688  0.2156  0.7401
   69SAPC   H3S 5871   2.912   2.464   2.805  0.0060  0.8281 -1.3347
   69SAPC   C24 5872   2.805   2.372   2.974 -0.3983 -0.2551 -0.7227
   69SAPC   H4R 5873   2.878   2.390   3.056 -2.4458 -2.2045  1.7053
   69SAPC   H4S 5874   2.826   2.274   2.927 -2.7404 -1.5310  0.6529
   69SAPC   C25 5875   2.667   2.364   3.041  0.0453 -0.2190 -0.1546
   69SAPC   H5R 5876   2.594   2.322   2.969  1.1383 -0.5785 -1.0754
   69SAPC   C26 5877   2.634   2.412   3.165 -0.1439 -0.6187  0.0271
   69SAPC   H6R 5878   2.531   2.398   3.201 -0.5594  1.0044 -0.4487
   69SAPC   C27 5879   2.738   2.457   3.263 -0.6928  0.0074 -0.3120
   69SAPC   H7R 5880   2.800   2.530   3.207 -2.8679 -0.0112 -2.9100
   69SAPC   H7S 5881   2.793   2.366   3.294 -2.0289 -1.1522 -1.2242
   69SAPC   C28 5882   2.689   2.546   3.377 -0.0965  0.0883 -0.7336
   69SAPC   H8R 5883   2.657   2.646   3.342  2.2640  0.9596 -0.5632
   69SAPC   C29 5884   2.686   2.510   3.508 -0.4971  0.8039  0.1756
   69SAPC   H9R 5885   2.654   2.590   3.577 -0.2793  0.7725  0.3149
   69SAPC  C210 5886   2.727   2.380   3.572 -0.5158 -0.2837 -0.1166
   69SAPC  H10R 5887   2.820   2.333   3.532  0.7314  0.2675  1.9625
   69SAPC  H10S 5888   2.648   2.310   3.538 -0.6293 -0.7814  1.0843
   69SAPC  C211 5889   2.744   2.357   3.718 -0.4012 -0.1810  0.2683
   69SAPC  H11R 5890   2.703   2.264   3.761  0.7518  0.5548  3.2738
   69SAPC  C212 5891   2.812   2.428   3.809 -0.2694  0.2084 -0.8312
   69SAPC  H12R 5892   2.798   2.393   3.912 -1.5492 -2.5176 -1.8235
   69SAPC  C213 5893   2.883   2.563   3.797  0.0967  0.7697  0.6143
   69SAPC  H13R 5894   2.887   2.601   3.692  1.1305  0.2344  0.4520
   69SAPC  H13S 5895   2.988   2.542   3.826  0.5592  0.8282 -0.9230
   69SAPC  C214 5896   2.826   2.665   3.894  1.0877  0.1184  0.4654
   69SAPC  H14R 5897   2.722   2.692   3.871  1.4188 -1.0117 -2.8369
   69SAPC  C215 5898   2.891   2.741   3.987 -0.3422 -0.1156 -0.1355
   69SAPC  H15R 5899   2.850   2.828   4.042  0.1176 -0.3183  0.5381
   69SAPC  C216 5900   3.037   2.724   4.018  0.5971 -0.5123 -0.5471
   69SAPC  H16R 5901   3.082   2.825   4.025 -0.5367 -0.0823  1.0992
   69SAPC  H16S 5902   3.088   2.683   3.928 -1.1726 -0.7090 -1.5119
   69SAPC  C217 5903   3.061   2.646   4.148  0.0969  0.1594 -0.3255
   69SAPC  H17R 5904   3.031   2.697   4.242  2.0914 -0.2693  0.6020
   69SAPC  H17S 5905   3.171   2.629   4.150 -0.0782 -1.0009  1.1363
   69SAPC  C218 5906   3.005   2.502   4.139 -0.3140  0.2621  0.4545
   69SAPC  H18R 5907   3.033   2.477   4.034  3.4580  1.9081  0.8932
   69SAPC  H18S 5908   2.894   2.495   4.145 -0.4247 -4.3473 -2.2257
   69SAPC  C219 5909   3.064   2.389   4.229  0.4371  0.5909 -0.2541
   69SAPC  H19R 5910   3.174   2.395   4.243  0.2067  3.1115  0.9954
   69SAPC  H19S 5911   3.039   2.299   4.169  1.7894  0.2313 -0.2998
   69SAPC  C220 5912   3.011   2.382   4.369 -0.0187 -0.1897 -0.1094
   69SAPC  H20R 5913   2.906   2.351   4.351  0.0284 -0.7120  0.4764
   69SAPC  H20S 5914   3.031   2.477   4.424 -0.9961 -0.6306  1.0395
   69SAPC  H20T 5915   3.055   2.297   4.426 -0.6816  0.1304  0.8952
   69SAPC   C33 5916   3.231   2.305   2.672  0.1256  0.3770  0.2879
   69SAPC   H3X 5917   3.133   2.356   2.681  0.2879  0.7307  0.1007
   69SAPC   H3Y 5918   3.285   2.359   2.592 -0.1141  0.8421  0.4350
   69SAPC   C34 5919   3.288   2.336   2.813 -0.6520  0.0647 -0.2964
   69SAPC   H4X 5920   3.312   2.444   2.823  0.9252 -0.3994  1.5936
   69SAPC   H4Y 5921   3.393   2.300   2.822 -0.6583 -0.1564 -1.0362
   69SAPC   C35 5922   3.205   2.301   2.937 -0.3390 -0.2224 -0.2518
   69SAPC   H5X 5923   3.192   2.192   2.952 -0.8368 -0.0944  0.2824
   69SAPC   H5Y 5924   3.099   2.333   2.925 -0.7166 -1.3225 -0.0088
   69SAPC   C36 5925   3.270   2.346   3.070  0.3513 -0.2244  0.0285
   69SAPC   H6X 5926   3.311   2.448   3.061 -0.5437  0.4135  2.4045
   69SAPC   H6Y 5927   3.348   2.272   3.100  1.0975  0.7413  0.5183
   69SAPC   C37 5928   3.163   2.341   3.186 -0.5752 -0.1196 -0.2276
   69SAPC   H7X 5929   3.169   2.237   3.225  0.8467  0.5048  1.3236
   69SAPC   H7Y 5930   3.061   2.359   3.147 -1.2357  1.0760  1.9070
   69SAPC   C38 5931   3.194   2.428   3.307 -0.3977  0.6198  0.4086
   69SAPC   H8X 5932   3.193   2.536   3.282 -0.3946  0.4223 -0.5027
   69SAPC   H8Y 5933   3.297   2.418   3.347  0.8979  0.0626 -2.7576
   69SAPC   C39 5934   3.099   2.403   3.421  0.2583 -0.0321  0.2228
   69SAPC   H9X 5935   3.071   2.295   3.423 -0.6950  0.2088  0.5412
   69SAPC   H9Y 5936   3.005   2.455   3.394 -0.3958 -1.6094 -0.7012
   69SAPC  C310 5937   3.139   2.467   3.552 -1.0690 -0.0157  0.4016
   69SAPC  H10X 5938   3.045   2.460   3.611 -1.4988  0.6427 -0.1924
   69SAPC  H10Y 5939   3.147   2.577   3.542  0.3713 -0.2646 -2.0131
   69SAPC  C311 5940   3.265   2.404   3.616  0.1784 -0.5675 -0.4556
   69SAPC  H11X 5941   3.354   2.450   3.566  0.1262 -0.1906 -0.2073
   69SAPC  H11Y 5942   3.253   2.296   3.593 -0.8077 -0.1637 -1.9724
   69SAPC  C312 5943   3.283   2.441   3.768 -0.3234  0.7547 -0.1066
   69SAPC  H12X 5944   3.192   2.414   3.825  0.2520 -1.0319  0.0391
   69SAPC  H12Y 5945   3.310   2.549   3.763  1.2288  0.4180  0.2701
   69SAPC  C313 5946   3.389   2.358   3.826 -0.1772 -0.0494  0.1063
   69SAPC  H13X 5947   3.493   2.376   3.793 -0.0585 -1.6131 -0.4516
   69SAPC  H13Y 5948   3.371   2.254   3.790  1.3015  0.2445 -1.6393
   69SAPC  C314 5949   3.378   2.347   3.979 -0.3743 -0.1295  0.2491
   69SAPC  H14X 5950   3.272   2.323   3.999 -0.3992 -0.3195 -0.1071
   69SAPC  H14Y 5951   3.409   2.444   4.023  2.6212 -1.0479  0.3859
   69SAPC  C315 5952   3.468   2.240   4.028  0.3264 -0.0129  0.3924
   69SAPC  H15X 5953   3.568   2.259   3.984  0.0583 -0.0942 -0.2607
   69SAPC  H15Y 5954   3.439   2.139   3.991  0.4701 -0.3247  1.1072
   69SAPC  C316 5955   3.467   2.237   4.183  0.0001  0.2912  0.9714
   69SAPC  H16X 5956   3.499   2.139   4.225 -0.6329  0.7383  2.5593
   69SAPC  H16Y 5957   3.364   2.261   4.216  0.4070  1.3854  1.4999
   69SAPC  C317 5958   3.568   2.335   4.243  0.3993 -0.2012 -0.3351
   69SAPC  H17X 5959   3.522   2.435   4.226  1.4693  0.0449 -2.0641
   69SAPC  H17Y 5960   3.659   2.326   4.180  0.2318 -2.6515 -0.3094
   69SAPC  C318 5961   3.613   2.297   4.390  0.3036  0.8010  0.0381
   69SAPC  H18X 5962   3.634   2.189   4.410  0.5175  0.6465 -0.9709
   69SAPC  H18Y 5963   3.527   2.324   4.455 -0.5267 -0.1196 -0.6455
   69SAPC  H18Z 5964   3.704   2.354   4.418 -0.7981  1.2716  3.1345
   70SAPC     N 5965   3.360   6.598   2.382 -0.0382  0.2320  0.7501
   70SAPC   C12 5966   3.400   6.475   2.456 -0.5419 -0.5573 -0.0781
   70SAPC  H12A 5967   3.309   6.430   2.493 -0.6525 -0.1194  0.1950
   70SAPC  H12B 5968   3.458   6.506   2.542 -1.0965 -0.4480  0.2646
   70SAPC   C13 5969   3.463   6.696   2.354  0.1270 -0.1236  0.5230
   70SAPC  H13A 5970   3.552   6.653   2.312  0.7489  0.6622  1.0172
   70SAPC  H13B 5971   3.436   6.770   2.280  0.4228 -2.0987 -1.6899
   70SAPC  H13C 5972   3.504   6.747   2.440 -1.3950  0.4887  0.9196
   70SAPC   C14 5973   3.293   6.552   2.258 -0.1890  0.2539  1.1016
   70SAPC  H14A 5974   3.215   6.481   2.280 -1.4554  0.8850 -1.0494
   70SAPC  H14B 5975   3.262   6.634   2.194  1.3136  0.0375  0.0555
   70SAPC  H14C 5976   3.361   6.502   2.191 -0.1864 -1.1347  2.0963
   70SAPC   C15 5977   3.255   6.656   2.468  0.2849 -0.1879 -0.1102
   70SAPC  H15A 5978   3.174   6.697   2.411 -0.6343 -1.8189 -0.0394
   70SAPC  H15B 5979   3.203   6.581   2.526 -0.6449  0.5303  0.0187
   70SAPC  H15C 5980   3.300   6.736   2.525  0.4071 -0.5860  0.3595
   70SAPC   C11 5981   3.479   6.367   2.383  0.1561 -0.2921 -0.1482
   70SAPC  H11A 5982   3.511   6.307   2.471  0.2570  2.1734  1.5978
   70SAPC  H11B 5983   3.571   6.411   2.339  1.0941 -0.4378  1.5980
   70SAPC     P 5984   3.344   6.154   2.322 -0.2272  0.1228 -0.3407
   70SAPC   O13 5985   3.215   6.176   2.390  0.6731  0.0836 -0.1386
   70SAPC   O14 5986   3.338   6.088   2.194 -0.4062  0.2913  0.6904
   70SAPC   O12 5987   3.413   6.290   2.292 -0.6919 -0.8906 -0.2288
   70SAPC   O11 5988   3.424   6.077   2.424  0.2185 -0.0182 -0.2335
   70SAPC    C1 5989   3.545   6.017   2.417 -0.4710  0.2461  0.2134
   70SAPC    HA 5990   3.557   5.943   2.334  0.7433 -2.1730  2.3914
   70SAPC    HB 5991   3.633   6.083   2.403 -0.5265 -0.1987 -3.0289
   70SAPC    C2 5992   3.560   5.931   2.547  0.2082 -0.3777 -0.2837
   70SAPC    HS 5993   3.455   5.907   2.573 -0.7915  2.6343 -1.1064
   70SAPC   O21 5994   3.631   6.002   2.651  0.0587  0.5253  0.2727
   70SAPC   C21 5995   3.589   5.983   2.772  0.5909 -0.6063  0.2850
   70SAPC   O22 5996   3.484   5.918   2.797 -1.1287  0.3883 -0.0224
   70SAPC   C22 5997   3.677   6.051   2.879 -0.3595 -0.7348 -0.2923
   70SAPC   H2R 5998   3.752   6.104   2.816 -4.0796  0.0629 -4.5015
   70SAPC   H2S 5999   3.604   6.116   2.931  0.1946  1.1529 -1.7688
   70SAPC    C3 6000   3.624   5.794   2.517  0.5101 -0.2006 -0.0610
   70SAPC    HX 6001   3.733   5.805   2.502  0.4747  0.1410 -0.0713
   70SAPC    HY 6002   3.581   5.757   2.421 -0.4755 -0.2711  0.3960
   70SAPC   O31 6003   3.583   5.708   2.621  0.0971 -0.2342  0.8161
   70SAPC   C31 6004   3.649   5.595   2.634  0.4530 -0.6385  0.0557
   70SAPC   O32 6005   3.713   5.542   2.548  0.0815  1.2849  0.5473
   70SAPC   C32 6006   3.634   5.531   2.774  0.1150 -0.1121  0.1698
   70SAPC   H2X 6007   3.528   5.500   2.779  0.2234 -0.5560 -0.1535
   70SAPC   H2Y 6008   3.645   5.605   2.856  0.2434 -0.2336  0.2628
   70SAPC   C23 6009   3.726   5.934   2.959 -1.1247  0.4995 -0.2960
   70SAPC   H3R 6010   3.812   5.890   2.904  0.3463 -0.1439  2.3435
   70SAPC   H3S 6011   3.654   5.849   2.968  1.1274 -1.3514  1.8063
   70SAPC   C24 6012   3.782   5.988   3.089  0.1290 -0.3518 -0.2118
   70SAPC   H4R 6013   3.858   6.068   3.078  0.6043 -0.3344  2.4130
   70SAPC   H4S 6014   3.832   5.907   3.147 -1.4558 -1.3077 -0.1223
   70SAPC   C25 6015   3.680   6.056   3.176  0.7303 -0.1480  0.1518
   70SAPC   H5R 6016   3.614   6.130   3.129  0.5093  0.4160  1.2943
   70SAPC   C26 6017   3.648   6.026   3.308  0.4787 -0.4328  0.5780
   70SAPC   H6R 6018   3.557   6.068   3.352 -1.4703 -2.1902 -1.4919
   70SAPC   C27 6019   3.720   5.926   3.393  1.1247  0.4343  0.2048
   70SAPC   H7R 6020   3.811   5.980   3.428  1.1115  0.6814 -0.1389
   70SAPC   H7S 6021   3.755   5.843   3.328 -0.1306  0.9330 -1.1478
   70SAPC   C28 6022   3.637   5.865   3.502 -0.2536 -0.0671  0.2886
   70SAPC   H8R 6023   3.582   5.771   3.485  1.0283 -1.2457  2.3129
   70SAPC   C29 6024   3.639   5.908   3.630 -0.3828  0.1605  0.0863
   70SAPC   H9R 6025   3.585   5.851   3.706  0.3206  1.9711  2.0347
   70SAPC  C210 6026   3.722   6.019   3.687  0.2910 -0.4944 -0.4860
   70SAPC  H10R 6027   3.824   6.033   3.646 -0.6040  3.0995 -1.9176
   70SAPC  H10S 6028   3.733   6.007   3.797  0.7896  1.4146 -0.2902
   70SAPC  C211 6029   3.646   6.152   3.675  0.6685  0.1073  0.0561
   70SAPC  H11R 6030   3.616   6.181   3.574  2.1008  0.4965 -0.2825
   70SAPC  C212 6031   3.639   6.251   3.771  0.5790 -0.5489 -0.3345
   70SAPC  H12R 6032   3.582   6.343   3.748 -0.9809 -1.5495 -0.6465
   70SAPC  C213 6033   3.691   6.241   3.913  0.1480  0.6093 -0.1169
   70SAPC  H13R 6034   3.736   6.335   3.950 -1.9459  0.4036  3.4259
   70SAPC  H13S 6035   3.776   6.170   3.922  0.1302  0.6622  0.5382
   70SAPC  C214 6036   3.594   6.193   4.023 -0.6057 -0.3870 -0.2168
   70SAPC  H14R 6037   3.620   6.090   4.050  5.2808  0.9507  0.7200
   70SAPC  C215 6038   3.513   6.266   4.102  0.2877  0.5565  0.2485
   70SAPC  H15R 6039   3.453   6.214   4.179 -1.0519  0.5853 -0.7373
   70SAPC  C216 6040   3.490   6.409   4.072 -0.1998 -0.2697  0.3853
   70SAPC  H16R 6041   3.381   6.410   4.093  0.0397 -1.1983  1.7800
   70SAPC  H16S 6042   3.491   6.444   3.966 -1.3706  1.4478  0.9017
   70SAPC  C217 6043   3.550   6.506   4.168 -0.1057 -0.0529  0.3553
   70SAPC  H17R 6044   3.535   6.477   4.274 -0.1423  1.3211  0.7407
   70SAPC  H17S 6045   3.497   6.603   4.154 -1.4745 -0.9542 -1.1128
   70SAPC  C218 6046   3.705   6.516   4.152  0.3960  0.6893 -0.0288
   70SAPC  H18R 6047   3.745   6.413   4.150  2.2444  1.3285  1.2259
   70SAPC  H18S 6048   3.752   6.556   4.245  1.7225 -2.2965  0.7086
   70SAPC  C219 6049   3.745   6.595   4.029  0.1464  0.3424  0.1354
   70SAPC  H19R 6050   3.711   6.699   4.049 -0.2475  0.0535  1.0195
   70SAPC  H19S 6051   3.689   6.560   3.939 -0.6688  2.3026 -0.1698
   70SAPC  C220 6052   3.890   6.600   4.011 -0.4115 -0.7463 -0.3657
   70SAPC  H20R 6053   3.943   6.638   4.100  1.2049  0.0954 -1.6321
   70SAPC  H20S 6054   3.913   6.676   3.933  0.9504  2.4945  2.9276
   70SAPC  H20T 6055   3.947   6.506   3.992 -0.7574 -1.0034 -0.1454
   70SAPC   C33 6056   3.720   5.407   2.791 -0.3261 -0.3898 -0.6802
   70SAPC   H3X 6057   3.829   5.427   2.779 -0.3256 -1.0547 -1.9381
   70SAPC   H3Y 6058   3.691   5.335   2.712 -0.9136  0.7787 -1.5695
   70SAPC   C34 6059   3.709   5.341   2.922 -0.8529  0.4092 -0.3380
   70SAPC   H4X 6060   3.794   5.270   2.933  0.5725  2.1309  0.2282
   70SAPC   H4Y 6061   3.611   5.289   2.926 -0.7475  0.2624  0.7881
   70SAPC   C35 6062   3.706   5.430   3.039  0.5112  0.5419 -1.0189
   70SAPC   H5X 6063   3.614   5.493   3.041  0.3783  0.3842 -1.8055
   70SAPC   H5Y 6064   3.794   5.498   3.049  0.5745  0.2461  0.7107
   70SAPC   C36 6065   3.701   5.349   3.168 -0.2431 -0.5879  0.1377
   70SAPC   H6X 6066   3.802   5.305   3.185  0.5691  0.9341 -0.5761
   70SAPC   H6Y 6067   3.638   5.260   3.147  1.6297 -1.4787 -2.3262
   70SAPC   C37 6068   3.647   5.423   3.287  0.0687 -0.7423  0.1559
   70SAPC   H7X 6069   3.701   5.519   3.294  0.9639 -0.9820 -2.5615
   70SAPC   H7Y 6070   3.544   5.452   3.258  0.1405 -1.0143 -0.3729
   70SAPC   C38 6071   3.656   5.365   3.423 -0.7094  0.5823  0.4281
   70SAPC   H8X 6072   3.760   5.332   3.447 -1.6576 -0.7613  3.1677
   70SAPC   H8Y 6073   3.609   5.264   3.430 -1.1651  0.8571  1.5480
   70SAPC   C39 6074   3.607   5.465   3.529 -0.5395  0.2197 -0.2524
   70SAPC   H9X 6075   3.496   5.469   3.535 -0.5392  4.4969 -0.4414
   70SAPC   H9Y 6076   3.621   5.567   3.488 -0.9512 -0.6591 -2.7570
   70SAPC  C310 6077   3.660   5.446   3.675  0.1427  0.6619 -0.4729
   70SAPC  H10X 6078   3.771   5.451   3.672  0.2449 -0.8615 -0.4249
   70SAPC  H10Y 6079   3.635   5.342   3.708  2.1316  0.2776 -0.0209
   70SAPC  C311 6080   3.609   5.546   3.777  0.4655  0.3535 -0.1124
   70SAPC  H11X 6081   3.499   5.538   3.764  0.6652 -0.5125 -1.4804
   70SAPC  H11Y 6082   3.631   5.649   3.742 -0.7303 -0.3523 -3.3125
   70SAPC  C312 6083   3.642   5.510   3.918  1.2671  0.1910  0.1497
   70SAPC  H12X 6084   3.672   5.403   3.918  1.4720  0.2416 -0.6760
   70SAPC  H12Y 6085   3.559   5.533   3.988  1.3132  1.6881 -0.2498
   70SAPC  C313 6086   3.767   5.583   3.967 -0.6746  0.3696 -0.1897
   70SAPC  H13X 6087   3.861   5.547   3.919 -0.7897 -0.3646  0.1266
   70SAPC  H13Y 6088   3.783   5.544   4.070  0.5423 -3.5624 -1.7221
   70SAPC  C314 6089   3.772   5.741   3.967  0.7635  0.4425 -0.0150
   70SAPC  H14X 6090   3.684   5.772   4.027 -0.2989 -0.7044 -0.9212
   70SAPC  H14Y 6091   3.765   5.781   3.863  1.0885  2.3577  0.6584
   70SAPC  C315 6092   3.905   5.795   4.030  0.9927 -0.6886 -0.4706
   70SAPC  H15X 6093   3.989   5.747   3.977  1.0719  0.8093 -1.7739
   70SAPC  H15Y 6094   3.899   5.764   4.137  0.1812 -1.2450 -0.6703
   70SAPC  C316 6095   3.920   5.945   4.007  0.4351  0.2654  0.6406
   70SAPC  H16X 6096   3.818   5.987   4.023  0.1167 -0.1974 -0.1167
   70SAPC  H16Y 6097   3.948   5.962   3.900 -1.4505  0.7945  0.1969
   70SAPC  C317 6098   4.015   6.029   4.103  0.6937  0.6071 -0.1512
   70SAPC  H17X 6099   3.969   6.042   4.203  0.2873 -0.0366 -0.2530
   70SAPC  H17Y 6100   4.029   6.129   4.056  1.6738  1.1435  1.2124
   70SAPC  C318 6101   4.158   5.964   4.129 -0.2198 -0.1411  0.7008
   70SAPC  H18X 6102   4.201   5.945   4.028  0.7731 -0.8738  1.2473
   70SAPC  H18Y 6103   4.153   5.870   4.187 -2.4832 -1.6457 -1.7031
   70SAPC  H18Z 6104   4.208   6.040   4.193  0.4442 -0.0688  0.1025
   71SAPC     N 6105   4.129   3.840   2.601  0.3123 -0.4327 -0.7970
   71SAPC   C12 6106   4.106   3.795   2.747  0.6433  0.2128 -0.2962
   71SAPC  H12A 6107   4.060   3.873   2.806  0.1180 -0.1729 -0.1924
   71SAPC  H12B 6108   4.203   3.771   2.787  0.4329 -1.1323 -0.5495
   71SAPC   C13 6109   3.996   3.880   2.535 -0.9000  0.1219  0.3430
   71SAPC  H13A 6110   3.962   3.977   2.568 -0.3926  0.5198 -0.2886
   71SAPC  H13B 6111   4.008   3.891   2.428  0.7321  2.2268  0.6832
   71SAPC  H13C 6112   3.927   3.797   2.534 -0.1382 -0.5234 -0.2987
   71SAPC   C14 6113   4.206   3.969   2.613 -0.7570 -0.0193  0.1312
   71SAPC  H14A 6114   4.217   4.005   2.511 -3.0681  0.9211  0.1584
   71SAPC  H14B 6115   4.158   4.047   2.670 -0.2471  1.0683 -0.8698
   71SAPC  H14C 6116   4.309   3.960   2.643 -0.4185 -1.5260 -1.3038
   71SAPC   C15 6117   4.192   3.736   2.515  0.5215 -0.0735 -0.2172
   71SAPC  H15A 6118   4.122   3.654   2.505  2.2055 -1.4820 -1.1043
   71SAPC  H15B 6119   4.214   3.774   2.416  0.5123  0.5902  0.0352
   71SAPC  H15C 6120   4.285   3.703   2.560  0.9639 -0.0285 -1.0657
   71SAPC   C11 6121   4.043   3.661   2.772  0.3774 -0.8473 -0.3625
   71SAPC  H11A 6122   4.032   3.648   2.882 -1.4421 -1.8368 -0.6193
   71SAPC  H11B 6123   4.108   3.577   2.739  0.4207 -1.4345  1.1400
   71SAPC     P 6124   3.841   3.525   2.674 -0.3354  0.0115 -0.4845
   71SAPC   O13 6125   3.692   3.534   2.678  0.5412  0.2785 -0.6577
   71SAPC   O14 6126   3.900   3.488   2.542  0.1090  0.6900  0.6177
   71SAPC   O12 6127   3.914   3.658   2.720  0.1904  0.1612  0.1980
   71SAPC   O11 6128   3.885   3.412   2.777 -0.5690  0.1732  0.3725
   71SAPC    C1 6129   3.820   3.416   2.903 -0.6249 -0.0715 -0.1611
   71SAPC    HA 6130   3.772   3.513   2.925  0.6466  0.7072 -0.7076
   71SAPC    HB 6131   3.747   3.333   2.888  0.6790 -1.4223  0.6250
   71SAPC    C2 6132   3.915   3.370   3.021 -0.0402  0.0529 -0.0301
   71SAPC    HS 6133   3.850   3.349   3.108 -1.1090  0.2613 -0.7627
   71SAPC   O21 6134   4.022   3.459   3.057 -0.2340  0.6298 -0.5481
   71SAPC   C21 6135   4.003   3.534   3.161  0.8717  0.4127 -0.4136
   71SAPC   O22 6136   3.904   3.525   3.236 -0.2378 -0.0344  0.2294
   71SAPC   C22 6137   4.120   3.630   3.201 -0.7115  0.3693 -0.1807
   71SAPC   H2R 6138   4.211   3.575   3.231 -0.2130  1.5475  0.5397
   71SAPC   H2S 6139   4.159   3.677   3.108  0.9242 -0.4602  0.0577
   71SAPC    C3 6140   3.979   3.232   2.992 -0.4647 -0.6667  0.3867
   71SAPC    HX 6141   4.048   3.244   2.906  0.0436  1.7721  1.0462
   71SAPC    HY 6142   3.892   3.170   2.959 -0.3301 -1.1137  0.8556
   71SAPC   O31 6143   4.035   3.166   3.112  0.2618 -0.1414 -0.4840
   71SAPC   C31 6144   4.168   3.178   3.123 -0.1146  0.1651 -1.2557
   71SAPC   O32 6145   4.254   3.209   3.044  0.1526 -0.4400  0.3261
   71SAPC   C32 6146   4.211   3.125   3.260 -0.0702  0.0026  0.5777
   71SAPC   H2X 6147   4.291   3.050   3.243  1.7037  2.0346 -0.5151
   71SAPC   H2Y 6148   4.129   3.077   3.317  2.3517 -2.5426  2.1525
   71SAPC   C23 6149   4.080   3.732   3.315 -0.2185 -0.2664  0.2254
   71SAPC   H3R 6150   4.041   3.677   3.403  2.1554 -1.9291  0.3303
   71SAPC   H3S 6151   3.994   3.784   3.268  0.7123 -1.3511 -2.8742
   71SAPC   C24 6152   4.190   3.831   3.362  0.1884 -0.3141 -0.1270
   71SAPC   H4R 6153   4.139   3.910   3.421  2.3200  1.3555 -0.4078
   71SAPC   H4S 6154   4.238   3.875   3.273  1.2940 -0.9931  0.1185
   71SAPC   C25 6155   4.281   3.752   3.448 -0.1480  0.0320 -0.2360
   71SAPC   H5R 6156   4.243   3.744   3.551  2.3762  3.1060  1.1001
   71SAPC   C26 6157   4.405   3.708   3.422 -0.1665  0.0828  0.1183
   71SAPC   H6R 6158   4.455   3.642   3.494  0.2518 -2.8769 -2.6298
   71SAPC   C27 6159   4.479   3.727   3.297  0.6971 -0.0256  0.7120
   71SAPC   H7R 6160   4.569   3.785   3.327  1.5125 -0.4692 -0.7798
   71SAPC   H7S 6161   4.413   3.771   3.219  1.2871 -1.9137 -0.9330
   71SAPC   C28 6162   4.524   3.591   3.246  0.6646 -0.3598  0.3327
   71SAPC   H8R 6163   4.443   3.517   3.235  1.6275 -1.7578  2.1206
   71SAPC   C29 6164   4.647   3.540   3.234  0.5152 -1.2342  0.0393
   71SAPC   H9R 6165   4.663   3.442   3.187  0.5810 -0.1572 -2.3365
   71SAPC  C210 6166   4.777   3.620   3.246 -0.5833 -0.0102  0.4153
   71SAPC  H10R 6167   4.776   3.713   3.306  0.5120  1.2153 -1.3783
   71SAPC  H10S 6168   4.831   3.634   3.150  0.4000 -1.3711  0.7476
   71SAPC  C211 6169   4.875   3.521   3.312 -0.0137  0.2212  0.1449
   71SAPC  H11R 6170   4.910   3.445   3.241  0.2913  1.3068 -0.8852
   71SAPC  C212 6171   4.892   3.501   3.450 -0.1307  0.2832 -0.0359
   71SAPC  H12R 6172   4.973   3.432   3.477 -0.7983 -0.2623  0.6561
   71SAPC  C213 6173   4.826   3.579   3.569  0.5904  0.4766 -0.1110
   71SAPC  H13R 6174   4.716   3.577   3.555  0.7070  0.5436 -1.1602
   71SAPC  H13S 6175   4.867   3.681   3.582  0.8299  0.2293  1.1512
   71SAPC  C214 6176   4.849   3.493   3.691  0.5753 -0.0207 -0.2446
   71SAPC  H14R 6177   4.769   3.419   3.709  1.4977 -0.5674  2.0090
   71SAPC  C215 6178   4.955   3.490   3.768  0.7764 -0.9067 -0.1170
   71SAPC  H15R 6179   4.960   3.411   3.844 -1.8092 -1.4772 -0.4420
   71SAPC  C216 6180   5.084   3.569   3.751 -0.1027  0.2902  0.0439
   71SAPC  H16R 6181   5.076   3.644   3.669  1.9333  0.8073  0.2646
   71SAPC  H16S 6182   5.175   3.507   3.736 -1.8609 -1.9585 -2.4749
   71SAPC  C217 6183   5.100   3.670   3.864  0.6262  0.3241 -0.3452
   71SAPC  H17R 6184   5.032   3.757   3.850  2.4595  2.2130  1.7202
   71SAPC  H17S 6185   5.202   3.713   3.870  1.2584 -1.2099  0.5002
   71SAPC  C218 6186   5.092   3.615   4.010  0.0828 -0.0423 -0.2614
   71SAPC  H18R 6187   5.141   3.516   4.026  0.7968  0.2368 -0.7248
   71SAPC  H18S 6188   4.984   3.589   4.019  0.2283 -0.5437  0.1518
   71SAPC  C219 6189   5.119   3.716   4.114 -0.2012 -1.0961 -0.3736
   71SAPC  H19R 6190   5.058   3.809   4.106  0.9025 -0.2664  0.5524
   71SAPC  H19S 6191   5.224   3.749   4.124 -0.1719 -1.3359  0.1830
   71SAPC  C220 6192   5.074   3.649   4.250 -0.6635  0.5500  0.6521
   71SAPC  H20R 6193   5.114   3.547   4.269 -0.7867  0.6598  1.5216
   71SAPC  H20S 6194   4.963   3.644   4.254 -0.6419 -1.0077 -0.0311
   71SAPC  H20T 6195   5.099   3.705   4.343 -0.4336  1.1474  0.2382
   71SAPC   C33 6196   4.278   3.227   3.346 -0.9823 -0.1659 -1.0320
   71SAPC   H3X 6197   4.203   3.306   3.368 -1.3730 -0.2820 -1.9207
   71SAPC   H3Y 6198   4.359   3.272   3.286  0.3246  1.4305  1.7189
   71SAPC   C34 6199   4.339   3.175   3.473 -0.3941  0.1249  0.0477
   71SAPC   H4X 6200   4.405   3.089   3.451 -2.4558 -1.0611 -1.7952
   71SAPC   H4Y 6201   4.271   3.129   3.548  1.1111 -2.1013  0.1397
   71SAPC   C35 6202   4.427   3.272   3.549 -0.0591 -0.1345  0.5021
   71SAPC   H5X 6203   4.499   3.307   3.472 -0.1393  2.3397  1.4764
   71SAPC   H5Y 6204   4.477   3.213   3.628 -1.2632 -0.0566  1.3552
   71SAPC   C36 6205   4.354   3.383   3.610  0.2478 -1.0151 -0.3960
   71SAPC   H6X 6206   4.279   3.337   3.677  0.0243 -0.7299 -0.4496
   71SAPC   H6Y 6207   4.303   3.440   3.529 -1.0458 -1.4965  0.0725
   71SAPC   C37 6208   4.436   3.469   3.702  0.3306 -0.7275 -0.6587
   71SAPC   H7X 6209   4.392   3.570   3.687  0.8660 -0.4967 -0.7115
   71SAPC   H7Y 6210   4.534   3.475   3.649  1.0601 -1.8335  0.4983
   71SAPC   C38 6211   4.448   3.419   3.846 -0.2218 -0.2869 -0.5349
   71SAPC   H8X 6212   4.491   3.317   3.838 -0.3369 -0.3157 -0.8018
   71SAPC   H8Y 6213   4.349   3.415   3.896  0.5167  0.8734  1.1386
   71SAPC   C39 6214   4.544   3.513   3.922 -0.5352  0.2482  0.7505
   71SAPC   H9X 6215   4.637   3.523   3.862  1.5137 -0.5843  3.6244
   71SAPC   H9Y 6216   4.574   3.495   4.027 -0.6721 -1.0271  0.5775
   71SAPC  C310 6217   4.488   3.660   3.940 -0.8000 -0.0887  0.4366
   71SAPC  H10X 6218   4.401   3.656   4.009  1.1719  0.3845  3.1141
   71SAPC  H10Y 6219   4.471   3.698   3.837  2.5811 -0.4530 -0.3795
   71SAPC  C311 6220   4.603   3.748   3.994  0.0259  0.6937 -0.3234
   71SAPC  H11X 6221   4.563   3.852   3.996  0.1317  0.8328 -2.7447
   71SAPC  H11Y 6222   4.694   3.747   3.930 -0.0498 -0.4743 -0.4222
   71SAPC  C312 6223   4.659   3.710   4.132  0.0570  0.1905  0.2254
   71SAPC  H12X 6224   4.724   3.792   4.169 -0.5512  0.1763  1.3928
   71SAPC  H12Y 6225   4.727   3.623   4.140 -1.7066 -1.1075  2.5999
   71SAPC  C313 6226   4.549   3.690   4.236 -0.0465  0.2889  0.1146
   71SAPC  H13X 6227   4.487   3.600   4.213  2.5912 -1.3724 -0.8674
   71SAPC  H13Y 6228   4.480   3.777   4.233 -2.7724 -1.7040  0.5520
   71SAPC  C314 6229   4.595   3.688   4.382  0.3096 -0.1973  0.1164
   71SAPC  H14X 6230   4.654   3.780   4.401 -2.3749  1.3351  1.4697
   71SAPC  H14Y 6231   4.657   3.599   4.409 -0.4075 -0.5966  0.4605
   71SAPC  C315 6232   4.477   3.694   4.484  1.0166  0.2050 -0.4063
   71SAPC  H15X 6233   4.419   3.603   4.461  1.8247  0.0450 -1.9418
   71SAPC  H15Y 6234   4.417   3.785   4.466  0.6813 -0.1609 -1.1555
   71SAPC  C316 6235   4.531   3.704   4.631  0.0551  0.0818  0.7245
   71SAPC  H16X 6236   4.591   3.612   4.647  0.7952  0.1193 -1.4322
   71SAPC  H16Y 6237   4.440   3.704   4.695 -0.5381 -0.1548 -0.1030
   71SAPC  C317 6238   4.623   3.827   4.665  0.2808  0.2114 -0.2790
   71SAPC  H17X 6239   4.725   3.817   4.623 -0.2950 -0.7074 -1.5088
   71SAPC  H17Y 6240   4.646   3.820   4.773 -0.6565  0.0718 -0.0756
   71SAPC  C318 6241   4.550   3.961   4.641 -0.0577 -0.2068 -0.1984
   71SAPC  H18X 6242   4.505   3.956   4.540 -1.9896 -2.1612  0.6861
   71SAPC  H18Y 6243   4.621   4.047   4.638  1.0135 -0.9818 -5.1676
   71SAPC  H18Z 6244   4.471   3.981   4.716 -0.1867 -1.1811 -0.0675
   72SAPC     N 6245   3.465   3.700   2.423 -0.4616 -0.1710  0.0121
   72SAPC   C12 6246   3.365   3.615   2.501 -0.3396 -0.0304  0.2338
   72SAPC  H12A 6247   3.421   3.608   2.593  1.2060  2.0446 -0.4692
   72SAPC  H12B 6248   3.367   3.519   2.451  1.9526  0.2783 -0.3607
   72SAPC   C13 6249   3.409   3.719   2.288  0.4003  0.4231  0.7225
   72SAPC  H13A 6250   3.436   3.634   2.226  0.9397  0.7951  0.4329
   72SAPC  H13B 6251   3.303   3.740   2.291  0.0073 -1.3440  0.3057
   72SAPC  H13C 6252   3.460   3.803   2.242  0.6104  0.2156  0.5752
   72SAPC   C14 6253   3.479   3.833   2.487  0.3458  0.0059  0.5091
   72SAPC  H14A 6254   3.515   3.906   2.417 -0.1381 -1.2015 -1.0670
   72SAPC  H14B 6255   3.384   3.881   2.505  0.3700  1.0608 -1.8142
   72SAPC  H14C 6256   3.529   3.832   2.583  0.8968 -0.7215  0.2291
   72SAPC   C15 6257   3.599   3.636   2.413 -0.2150  0.8690  0.4741
   72SAPC  H15A 6258   3.650   3.625   2.507  0.8665 -1.1039 -0.2838
   72SAPC  H15B 6259   3.602   3.540   2.363 -4.0635  0.5126  0.6454
   72SAPC  H15C 6260   3.657   3.694   2.342 -0.3243 -0.4131 -0.7117
   72SAPC   C11 6261   3.226   3.662   2.529 -0.0412 -0.3471  1.4221
   72SAPC  H11A 6262   3.174   3.586   2.592  1.5357 -2.5852  0.1324
   72SAPC  H11B 6263   3.175   3.669   2.431  2.7508 -2.1506 -0.2855
   72SAPC     P 6264   3.236   3.783   2.754 -0.1691 -0.0007 -0.1828
   72SAPC   O13 6265   3.314   3.900   2.802 -0.2743 -0.3441  0.0357
   72SAPC   O14 6266   3.098   3.773   2.812  0.0677  0.4376  0.4048
   72SAPC   O12 6267   3.221   3.786   2.598  0.1816 -0.0454  0.3331
   72SAPC   O11 6268   3.315   3.647   2.787 -0.1713 -0.7629  0.0106
   72SAPC    C1 6269   3.272   3.554   2.890 -0.4069 -0.7757  0.8451
   72SAPC    HA 6270   3.164   3.558   2.917 -1.0583 -1.4754 -1.3924
   72SAPC    HB 6271   3.300   3.449   2.869 -1.3499 -1.0853  1.0960
   72SAPC    C2 6272   3.352   3.580   3.022 -0.1513 -0.6250  0.1593
   72SAPC    HS 6273   3.324   3.501   3.094 -0.3865  0.6629  1.5436
   72SAPC   O21 6274   3.322   3.711   3.079 -0.1992  0.1317 -0.3014
   72SAPC   C21 6275   3.193   3.732   3.119 -0.4119  0.4898  0.4884
   72SAPC   O22 6276   3.103   3.647   3.123 -0.2349  0.1184 -0.1462
   72SAPC   C22 6277   3.169   3.873   3.170  0.2403  0.2290 -0.6223
   72SAPC   H2R 6278   3.258   3.937   3.149  2.9062 -2.6289  0.9874
   72SAPC   H2S 6279   3.075   3.914   3.129  0.9888 -0.0186 -2.7243
   72SAPC    C3 6280   3.503   3.565   3.002  0.4027  1.0455 -0.0088
   72SAPC    HX 6281   3.524   3.634   2.918  0.4000 -0.6721 -1.4934
   72SAPC    HY 6282   3.520   3.461   2.967  2.8945  0.8142  1.6120
   72SAPC   O31 6283   3.564   3.565   3.133 -0.8397 -0.3469 -0.0401
   72SAPC   C31 6284   3.618   3.687   3.166  0.9665 -0.0868  0.1097
   72SAPC   O32 6285   3.633   3.781   3.090  0.6361 -0.5219 -0.1238
   72SAPC   C32 6286   3.637   3.697   3.314 -0.3765 -0.1578 -0.3910
   72SAPC   H2X 6287   3.744   3.673   3.335 -0.6128 -1.5690 -0.7363
   72SAPC   H2Y 6288   3.579   3.627   3.377 -2.2601  1.1174 -0.6431
   72SAPC   C23 6289   3.152   3.883   3.325 -0.0529  0.1662 -0.3265
   72SAPC   H3R 6290   3.241   3.836   3.371 -0.5992  0.0175  0.6086
   72SAPC   H3S 6291   3.069   3.812   3.344  2.1122 -2.2204  0.9165
   72SAPC   C24 6292   3.128   4.022   3.383  0.5277 -0.6245 -0.3849
   72SAPC   H4R 6293   3.212   4.081   3.342  0.9896 -0.3568  0.9114
   72SAPC   H4S 6294   3.158   4.026   3.490  0.4092 -0.0926 -0.3710
   72SAPC   C25 6295   3.000   4.092   3.342  0.2381  0.2165  0.5745
   72SAPC   H5R 6296   2.985   4.134   3.241 -2.7019  0.4745  1.0244
   72SAPC   C26 6297   2.892   4.104   3.430 -0.7568 -0.6877 -0.2965
   72SAPC   H6R 6298   2.804   4.160   3.394 -0.0027  0.1910 -0.7926
   72SAPC   C27 6299   2.868   4.032   3.558 -0.0379  0.0744  0.1185
   72SAPC   H7R 6300   2.933   3.942   3.557  2.1675  1.5757 -1.6957
   72SAPC   H7S 6301   2.762   3.998   3.554 -0.4956  1.3311  0.9002
   72SAPC   C28 6302   2.885   4.112   3.677 -0.1931  0.4354 -0.0987
   72SAPC   H8R 6303   2.857   4.217   3.662 -0.4678  0.0820 -2.3872
   72SAPC   C29 6304   2.947   4.069   3.790 -0.1061  0.2901  0.6103
   72SAPC   H9R 6305   2.957   4.140   3.874  2.6388  1.2997 -0.4429
   72SAPC  C210 6306   3.009   3.936   3.820  0.2283 -0.4507 -0.5721
   72SAPC  H10R 6307   2.947   3.860   3.768 -1.3305  1.4450 -1.6237
   72SAPC  H10S 6308   2.991   3.920   3.928 -0.9339 -6.7652 -1.3474
   72SAPC  C211 6309   3.154   3.909   3.790  0.2050 -0.2178  0.1278
   72SAPC  H11R 6310   3.168   3.863   3.692  3.0882 -0.9698  0.8163
   72SAPC  C212 6311   3.263   3.939   3.857 -0.0224  0.1265  0.6612
   72SAPC  H12R 6312   3.358   3.913   3.809 -1.6276 -0.3072 -2.6097
   72SAPC  C213 6313   3.265   4.004   3.988 -0.5072  0.2288 -0.5886
   72SAPC  H13R 6314   3.165   4.030   4.028  0.2538 -0.7046  2.1846
   72SAPC  H13S 6315   3.319   4.100   3.974 -3.0353  1.8905  0.4141
   72SAPC  C214 6316   3.332   3.906   4.086  0.1072  0.0593 -0.4257
   72SAPC  H14R 6317   3.293   3.803   4.086  3.7663 -1.5239  1.0486
   72SAPC  C215 6318   3.450   3.925   4.145 -0.6439 -0.7379 -0.2521
   72SAPC  H15R 6319   3.485   3.846   4.214  2.0944  0.6437  0.0627
   72SAPC  C216 6320   3.534   4.056   4.147  0.5407  0.5891 -0.0366
   72SAPC  H16R 6321   3.584   4.067   4.246 -0.3747 -0.5791  0.5839
   72SAPC  H16S 6322   3.466   4.144   4.145  1.2963  1.2057  0.6966
   72SAPC  C217 6323   3.628   4.077   4.028 -0.2918  0.1159  0.1019
   72SAPC  H17R 6324   3.579   4.097   3.930  2.8021 -0.7378 -1.8088
   72SAPC  H17S 6325   3.684   3.983   4.004  1.8745  0.5574  2.9139
   72SAPC  C218 6326   3.730   4.189   4.049  0.1072 -0.3678 -0.6800
   72SAPC  H18R 6327   3.664   4.276   4.067  1.1882  0.3393 -0.0368
   72SAPC  H18S 6328   3.800   4.204   3.965 -1.0724  1.3033 -1.4208
   72SAPC  C219 6329   3.818   4.177   4.171 -0.0123 -0.3152  0.2902
   72SAPC  H19R 6330   3.870   4.078   4.172  0.9296  0.1664  1.0151
   72SAPC  H19S 6331   3.752   4.188   4.260 -1.8279 -1.3876 -0.8526
   72SAPC  C220 6332   3.925   4.294   4.178 -0.4573 -0.4728  0.1394
   72SAPC  H20R 6333   3.988   4.295   4.086  0.1130  0.4817  0.5298
   72SAPC  H20S 6334   3.987   4.274   4.268 -0.3595  1.5118  0.5428
   72SAPC  H20T 6335   3.885   4.397   4.192  2.3054  0.6646  0.2491
   72SAPC   C33 6336   3.605   3.837   3.373  0.3761  0.3444  0.9755
   72SAPC   H3X 6337   3.501   3.873   3.361  0.3311  0.4072  1.5072
   72SAPC   H3Y 6338   3.662   3.920   3.325  0.1670  0.3455  0.7262
   72SAPC   C34 6339   3.650   3.836   3.516 -0.0238  0.0463 -0.2560
   72SAPC   H4X 6340   3.759   3.817   3.512  0.3655  1.6784  1.2124
   72SAPC   H4Y 6341   3.587   3.752   3.552  0.9329 -0.1111  1.1271
   72SAPC   C35 6342   3.619   3.964   3.600  0.2588  0.7688 -0.0894
   72SAPC   H5X 6343   3.626   3.920   3.702 -0.1761  0.4392 -0.2005
   72SAPC   H5Y 6344   3.528   4.013   3.558 -1.1530 -1.6390 -0.0203
   72SAPC   C36 6345   3.728   4.066   3.577 -0.1750  0.0385  0.0793
   72SAPC   H6X 6346   3.784   4.053   3.482  1.7281  0.0202  1.1570
   72SAPC   H6Y 6347   3.796   4.044   3.663  2.0467  1.6738 -1.1310
   72SAPC   C37 6348   3.687   4.206   3.585  0.0984  0.0522  0.0698
   72SAPC   H7X 6349   3.747   4.253   3.666 -1.2940 -1.0097  1.8060
   72SAPC   H7Y 6350   3.578   4.203   3.608 -0.3836  1.9517 -1.6898
   72SAPC   C38 6351   3.707   4.281   3.445  0.0187 -0.0274 -0.0770
   72SAPC   H8X 6352   3.659   4.232   3.358  1.4451  0.1394 -1.0068
   72SAPC   H8Y 6353   3.813   4.296   3.414 -0.2685 -0.8424 -1.5721
   72SAPC   C39 6354   3.648   4.420   3.451 -0.5078 -0.0258 -0.0797
   72SAPC   H9X 6355   3.538   4.411   3.467 -0.2625 -0.8999  1.3034
   72SAPC   H9Y 6356   3.672   4.470   3.355  2.4339 -0.3272  0.4162
   72SAPC  C310 6357   3.696   4.506   3.565 -0.3526 -0.1339 -0.0574
   72SAPC  H10X 6358   3.685   4.458   3.665 -0.7799  2.9411  1.4700
   72SAPC  H10Y 6359   3.634   4.598   3.573 -0.1424 -0.0917  1.4251
   72SAPC  C311 6360   3.839   4.561   3.535 -0.3279  0.0922 -1.0657
   72SAPC  H11X 6361   3.845   4.620   3.441 -1.1057  0.7974 -0.6800
   72SAPC  H11Y 6362   3.913   4.484   3.504 -0.5185  0.1303 -1.6304
   72SAPC  C312 6363   3.903   4.649   3.646  0.6152  0.0313 -0.1336
   72SAPC  H12X 6364   3.848   4.745   3.656 -2.6692 -1.8848  3.7021
   72SAPC  H12Y 6365   4.013   4.659   3.636  1.1299 -1.5000  2.7014
   72SAPC  C313 6366   3.879   4.609   3.797  0.0978  0.9275  0.4887
   72SAPC  H13X 6367   3.921   4.510   3.823  1.1377  1.0313 -0.6914
   72SAPC  H13Y 6368   3.769   4.599   3.811 -0.3773 -2.3451 -3.5680
   72SAPC  C314 6369   3.928   4.717   3.898 -0.0348  0.4266  0.0436
   72SAPC  H14X 6370   3.886   4.819   3.879 -1.9784 -0.0664  1.3728
   72SAPC  H14Y 6371   4.039   4.718   3.896  0.0149 -1.6208 -0.7206
   72SAPC  C315 6372   3.890   4.680   4.044 -0.0783  0.1785 -0.7106
   72SAPC  H15X 6373   3.937   4.583   4.073  2.5459  1.7578  0.7401
   72SAPC  H15Y 6374   3.780   4.682   4.057 -0.0361 -0.3121 -0.2638
   72SAPC  C316 6375   3.951   4.781   4.147 -0.2783 -0.6070 -0.3002
   72SAPC  H16X 6376   3.922   4.885   4.120 -0.4722  0.5445  3.6822
   72SAPC  H16Y 6377   4.061   4.776   4.161 -0.6523 -1.1141  3.5346
   72SAPC  C317 6378   3.889   4.756   4.284 -0.5029 -0.3460 -1.4591
   72SAPC  H17X 6379   3.785   4.721   4.269 -1.5137  0.6577  2.2282
   72SAPC  H17Y 6380   3.869   4.846   4.347 -3.1714 -2.0617  0.3473
   72SAPC  C318 6381   3.966   4.643   4.362  0.0065 -0.6663 -0.1464
   72SAPC  H18X 6382   3.958   4.542   4.315  1.7463 -1.0564  0.3442
   72SAPC  H18Y 6383   3.917   4.634   4.461 -1.0463  1.9032 -0.3512
   72SAPC  H18Z 6384   4.073   4.672   4.367 -0.0668 -0.5257  4.1788
   73SLPC     N 6385   3.841   5.509   6.937 -0.8693 -0.5057 -0.1064
   73SLPC   C13 6386   3.813   5.608   7.035  0.2800 -0.5144 -0.3043
   73SLPC  H13A 6387   3.890   5.684   7.032 -0.1353  0.0369  1.7343
   73SLPC  H13B 6388   3.720   5.661   7.024  0.2374  0.6928  4.0798
   73SLPC  H13C 6389   3.811   5.576   7.138  0.9560  0.9593  0.1931
   73SLPC   C14 6390   3.731   5.408   6.937  0.1779  0.1928  0.0620
   73SLPC  H14A 6391   3.646   5.459   6.895  0.2729  0.6513  0.4101
   73SLPC  H14B 6392   3.758   5.321   6.880 -1.4439 -0.7409  0.6525
   73SLPC  H14C 6393   3.712   5.372   7.037  1.0138 -1.0350 -0.1915
   73SLPC   C15 6394   3.956   5.419   6.965 -0.5803 -0.0283 -0.1455
   73SLPC  H15A 6395   3.957   5.348   6.883  1.0004  0.3499 -0.4870
   73SLPC  H15B 6396   4.051   5.470   6.973 -0.1905 -0.5282 -1.3075
   73SLPC  H15C 6397   3.949   5.354   7.051 -0.2894 -0.3058 -0.3229
   73SLPC   C12 6398   3.860   5.560   6.793  0.3069  0.3960 -0.1918
   73SLPC  H12A 6399   3.861   5.478   6.723  0.9749 -0.7360  1.1043
   73SLPC  H12B 6400   3.958   5.605   6.788  0.7106 -0.6071 -2.5545
   73SLPC   C11 6401   3.752   5.653   6.737 -0.2551  0.5581  0.0710
   73SLPC  H11A 6402   3.780   5.675   6.631 -1.0598 -0.2464 -0.3254
   73SLPC  H11B 6403   3.757   5.757   6.777 -0.5842  1.7185 -2.6572
   73SLPC     P 6404   3.588   5.485   6.621 -0.0113 -0.0965  0.2762
   73SLPC   O13 6405   3.705   5.402   6.599 -0.0983  0.0191 -0.2642
   73SLPC   O14 6406   3.454   5.422   6.661  0.0004  0.0919  0.0644
   73SLPC   O12 6407   3.620   5.588   6.740  0.0649  0.0275  0.2116
   73SLPC   O11 6408   3.556   5.577   6.498  0.2092 -0.4752 -0.0030
   73SLPC    C1 6409   3.493   5.707   6.512 -0.1623 -0.9449 -1.0348
   73SLPC    HA 6410   3.509   5.757   6.609 -5.3102  2.9189 -1.7322
   73SLPC    HB 6411   3.530   5.777   6.434 -0.0449  2.9654  2.2012
   73SLPC    C2 6412   3.337   5.696   6.508 -0.2504 -0.7125 -0.1052
   73SLPC    HS 6413   3.310   5.643   6.602  0.4927 -0.1266  0.4475
   73SLPC   O21 6414   3.300   5.626   6.387  0.3137  0.0058  0.2525
   73SLPC   C21 6415   3.187   5.564   6.384  0.0941  0.2668 -0.6232
   73SLPC   O22 6416   3.113   5.553   6.482  0.2253 -0.2950  0.0486
   73SLPC   C22 6417   3.171   5.489   6.252  0.1158  0.2883  0.1926
   73SLPC   H2R 6418   3.264   5.429   6.241 -2.1144 -3.6441  1.0747
   73SLPC   H2S 6419   3.100   5.405   6.264  0.9862 -0.3664  0.9038
   73SLPC    C3 6420   3.259   5.836   6.520  0.3640 -0.4494 -0.0108
   73SLPC    HX 6421   3.307   5.891   6.604 -1.0398 -0.4307  0.7978
   73SLPC    HY 6422   3.156   5.814   6.554  0.1464 -0.6250 -0.7643
   73SLPC   O31 6423   3.262   5.913   6.396 -0.0798 -0.1031  0.3650
   73SLPC   C31 6424   3.150   5.901   6.325  0.6934 -0.5908  0.3451
   73SLPC   O32 6425   3.047   5.845   6.352  0.6508  0.0641  0.1725
   73SLPC   C32 6426   3.167   5.979   6.196  0.7736  0.4803  0.0228
   73SLPC   H2X 6427   3.257   6.038   6.221  0.6999 -0.2102  2.0688
   73SLPC   H2Y 6428   3.077   6.044   6.197  2.0322  2.3139 -0.4056
   73SLPC   C23 6429   3.127   5.560   6.123  0.7855 -0.0998  0.5344
   73SLPC   H3R 6430   3.213   5.612   6.076  0.9989 -0.6894  0.2564
   73SLPC   H3S 6431   3.047   5.632   6.149  0.9417  0.7483 -1.1950
   73SLPC   C24 6432   3.064   5.469   6.014 -0.5684 -0.1697 -0.6140
   73SLPC   H4R 6433   2.987   5.411   6.069  0.9141  0.3538  2.1900
   73SLPC   H4S 6434   3.144   5.401   5.977 -0.1182  0.2460 -0.4089
   73SLPC   C25 6435   3.025   5.559   5.894  0.1235  0.3797 -0.0042
   73SLPC   H5R 6436   3.116   5.601   5.848  1.0776  0.0840  1.5472
   73SLPC   H5S 6437   2.963   5.646   5.925  0.7221  0.6250  0.5330
   73SLPC   C26 6438   2.964   5.492   5.771 -0.4420  0.6096  0.8488
   73SLPC   H6R 6439   2.867   5.453   5.808 -0.6705  0.8221  0.4789
   73SLPC   H6S 6440   3.038   5.412   5.751 -1.6596 -0.4947  0.6341
   73SLPC   C27 6441   2.932   5.572   5.640 -0.9537 -0.4097  0.2135
   73SLPC   H7R 6442   3.029   5.613   5.604 -1.1734 -1.5991 -1.9555
   73SLPC   H7S 6443   2.864   5.657   5.661 -1.5040 -0.3463 -1.5856
   73SLPC   C28 6444   2.872   5.485   5.528 -0.2693 -0.6054 -0.0247
   73SLPC   H8R 6445   2.823   5.548   5.451 -0.2298 -0.7739 -0.1878
   73SLPC   H8S 6446   2.794   5.414   5.560 -1.5005  0.8762  0.3966
   73SLPC   C29 6447   2.980   5.405   5.461  0.7794  0.6503 -0.0594
   73SLPC   H9R 6448   3.069   5.384   5.522  1.5514  2.4526 -0.4917
   73SLPC  C210 6449   2.972   5.358   5.333  0.5862 -0.1862  0.2383
   73SLPC  H10R 6450   3.060   5.304   5.293 -0.6494 -1.4824 -0.8131
   73SLPC  C211 6451   2.859   5.375   5.235 -0.1210  0.3481  0.1026
   73SLPC  H11R 6452   2.764   5.382   5.293  0.1172  0.4571  0.4822
   73SLPC  H11S 6453   2.858   5.284   5.171  0.3924 -1.3075  2.3207
   73SLPC  C212 6454   2.867   5.499   5.148  0.1097  0.3222 -0.1163
   73SLPC  H12R 6455   2.881   5.592   5.204  0.2665  0.0455  0.3079
   73SLPC  C213 6456   2.868   5.508   5.014  0.0537  0.3732 -0.1958
   73SLPC  H13R 6457   2.885   5.608   4.972  2.4862  0.9006  1.7788
   73SLPC  C214 6458   2.854   5.401   4.911 -0.2423  0.0167 -0.8914
   73SLPC  H14R 6459   2.862   5.300   4.956  0.1097  0.4963  0.1601
   73SLPC  H14S 6460   2.941   5.409   4.843  2.2687  2.1612  2.2560
   73SLPC  C215 6461   2.733   5.436   4.828 -0.2277  0.5832 -0.0578
   73SLPC  H15R 6462   2.738   5.529   4.768  2.9403  0.9021  0.5527
   73SLPC  H15S 6463   2.637   5.438   4.885 -0.1441  1.0441  0.0636
   73SLPC  C216 6464   2.717   5.326   4.720 -0.2381  0.8375  0.4703
   73SLPC  H16R 6465   2.733   5.224   4.760  0.2858  0.2102 -1.2440
   73SLPC  H16S 6466   2.802   5.340   4.650 -0.4563 -1.4819 -0.3566
   73SLPC  C217 6467   2.591   5.323   4.633 -0.0262 -0.4210 -0.8162
   73SLPC  H17R 6468   2.609   5.413   4.572 -0.0138  1.0188  1.2002
   73SLPC  H17S 6469   2.502   5.338   4.698 -0.1238 -1.9953 -0.5333
   73SLPC  C218 6470   2.564   5.198   4.550 -0.2335  0.7468 -0.3916
   73SLPC  H18R 6471   2.651   5.155   4.496 -0.1329  1.2216 -0.6182
   73SLPC  H18S 6472   2.492   5.222   4.469  0.4343  1.0114 -0.9205
   73SLPC  H18T 6473   2.516   5.121   4.614  2.8071 -0.7059  0.3253
   73SLPC   C33 6474   3.182   5.888   6.071 -0.4351 -0.4068 -0.5298
   73SLPC   H3X 6475   3.114   5.801   6.069  0.5449 -1.2213 -3.1625
   73SLPC   H3Y 6476   3.285   5.846   6.074 -0.4097 -0.2683  0.7513
   73SLPC   C34 6477   3.192   5.968   5.944  0.4297 -0.2887 -0.2594
   73SLPC   H4X 6478   3.277   6.039   5.948 -0.8299  1.2717 -0.4102
   73SLPC   H4Y 6479   3.109   6.041   5.935 -1.0897 -1.9792 -0.7890
   73SLPC   C35 6480   3.204   5.887   5.816  0.2501 -0.0825  0.1588
   73SLPC   H5X 6481   3.118   5.819   5.799  1.7604 -1.9274 -0.4209
   73SLPC   H5Y 6482   3.289   5.818   5.833  0.9564  0.9873  1.1195
   73SLPC   C36 6483   3.231   5.966   5.688 -0.0706  0.7755 -0.3409
   73SLPC   H6X 6484   3.328   6.021   5.690  0.8314 -0.6740 -1.9754
   73SLPC   H6Y 6485   3.161   6.053   5.686  3.6730  4.0992 -2.1989
   73SLPC   C37 6486   3.219   5.890   5.556  0.9259  0.2518 -0.6517
   73SLPC   H7X 6487   3.245   5.786   5.586 -1.5406 -0.0936  0.5955
   73SLPC   H7Y 6488   3.283   5.942   5.482 -0.2003  0.8109 -1.2473
   73SLPC   C38 6489   3.076   5.873   5.491  1.0845  0.9250  0.5050
   73SLPC   H8X 6490   3.021   5.968   5.474 -1.0236 -0.2547  0.4136
   73SLPC   H8Y 6491   3.022   5.811   5.566  1.2257 -0.5123 -0.5420
   73SLPC   C39 6492   3.064   5.789   5.363 -0.0430  0.1523 -0.6966
   73SLPC   H9X 6493   2.963   5.747   5.346 -0.0962 -0.3446  0.6898
   73SLPC   H9Y 6494   3.140   5.708   5.363  0.5526  0.6980 -0.3363
   73SLPC  C310 6495   3.094   5.882   5.245 -0.6976 -0.4939  0.1387
   73SLPC  H10X 6496   3.202   5.907   5.247 -0.6585 -0.7022  0.7870
   73SLPC  H10Y 6497   3.037   5.978   5.241 -1.5241 -1.0113 -2.4457
   73SLPC  C311 6498   3.070   5.817   5.103 -0.1969  0.0936 -0.1465
   73SLPC  H11X 6499   2.970   5.774   5.081  0.2217  0.3033 -2.8181
   73SLPC  H11Y 6500   3.133   5.725   5.106  0.0138  0.1561 -1.6451
   73SLPC  C312 6501   3.110   5.912   4.989 -1.0114 -0.1374 -0.4832
   73SLPC  H12X 6502   3.220   5.922   5.000 -0.9756 -0.8978 -0.0302
   73SLPC  H12Y 6503   3.057   6.009   5.003 -1.0591 -0.3929  1.4409
   73SLPC  C313 6504   3.082   5.861   4.843  0.2012  0.6082 -0.1000
   73SLPC  H13X 6505   3.113   5.755   4.853  1.5351  1.1460  2.3815
   73SLPC  H13Y 6506   3.149   5.909   4.768 -0.3109  0.5335 -0.6062
   73SLPC  C314 6507   2.937   5.875   4.795  0.1747  0.1493 -0.2232
   73SLPC  H14X 6508   2.910   5.982   4.783 -0.0912  0.0568 -0.4563
   73SLPC  H14Y 6509   2.869   5.816   4.860  1.2381  0.2492  1.0145
   73SLPC  C315 6510   2.901   5.802   4.665  0.4375  0.7110  0.3518
   73SLPC  H15X 6511   2.922   5.694   4.681 -1.0576  0.1887 -0.8303
   73SLPC  H15Y 6512   2.963   5.837   4.580  2.6065  0.6128  1.8275
   73SLPC  C316 6513   2.749   5.807   4.615 -0.2586  0.3230  0.0922
   73SLPC  H16X 6514   2.692   5.903   4.617 -2.4726 -0.9345  1.1399
   73SLPC  H16Y 6515   2.691   5.738   4.679  0.8684  0.7756  1.6646
   73SLPC  C317 6516   2.731   5.753   4.471  0.2459  0.0781  0.1074
   73SLPC  H17X 6517   2.621   5.744   4.455  0.4800 -1.1404 -0.9721
   73SLPC  H17Y 6518   2.772   5.649   4.468 -1.5354 -0.7041  1.2046
   73SLPC  C318 6519   2.791   5.840   4.365 -1.0197 -0.4706  0.2869
   73SLPC  H18X 6520   2.897   5.815   4.342 -1.4659 -0.3567 -2.1880
   73SLPC  H18Y 6521   2.785   5.949   4.386  2.0652  0.1660 -1.4644
   73SLPC  H18Z 6522   2.751   5.824   4.262  0.7983 -0.2640 -0.4850
   74SLPC     N 6523   5.512   2.085   7.267 -0.0864 -0.1270 -0.5348
   74SLPC   C13 6524   5.453   1.950   7.245 -0.2979 -0.5168  0.3927
   74SLPC  H13A 6525   5.482   1.887   7.328  2.6590  0.4806  0.2184
   74SLPC  H13B 6526   5.346   1.964   7.235  0.0143  2.3638  0.2338
   74SLPC  H13C 6527   5.492   1.904   7.156  0.0154 -0.8634  0.7041
   74SLPC   C14 6528   5.656   2.084   7.293  0.3151  0.4745 -0.2353
   74SLPC  H14A 6529   5.691   2.024   7.375 -3.1793 -0.1539  0.9571
   74SLPC  H14B 6530   5.710   2.043   7.209  0.6705  3.4469 -1.5958
   74SLPC  H14C 6531   5.699   2.182   7.304  0.3552  0.2938  1.4485
   74SLPC   C15 6532   5.446   2.160   7.376 -0.1847  0.2856 -0.2798
   74SLPC  H15A 6533   5.456   2.112   7.472  0.1377 -2.8445 -1.7594
   74SLPC  H15B 6534   5.491   2.257   7.391 -3.5839  2.1699 -1.2552
   74SLPC  H15C 6535   5.342   2.179   7.354 -0.5951 -3.3636 -2.2727
   74SLPC   C12 6536   5.498   2.177   7.141 -0.3244  0.6566  0.6825
   74SLPC  H12A 6537   5.571   2.164   7.063  0.0581  3.1825  0.5530
   74SLPC  H12B 6538   5.520   2.278   7.172  1.4880  0.2852  0.6989
   74SLPC   C11 6539   5.354   2.164   7.070  0.0464  0.1433 -0.0527
   74SLPC  H11A 6540   5.336   2.059   7.040  0.0171  0.3018 -0.6061
   74SLPC  H11B 6541   5.378   2.223   6.979  1.2719  1.0136  0.8025
   74SLPC     P 6542   5.199   2.351   7.167 -0.0992  0.2648 -0.1180
   74SLPC   O13 6543   5.131   2.362   7.299  0.7510  0.0488 -1.1505
   74SLPC   O14 6544   5.313   2.443   7.138 -0.0524 -0.1970 -0.0943
   74SLPC   O12 6545   5.241   2.206   7.147 -0.5099 -0.5102 -0.0094
   74SLPC   O11 6546   5.092   2.381   7.052  0.4207 -0.2556 -0.0148
   74SLPC    C1 6547   5.008   2.275   7.005  0.9897 -0.0042 -0.4615
   74SLPC    HA 6548   4.998   2.189   7.074 -1.4519 -0.7069 -1.5542
   74SLPC    HB 6549   4.906   2.311   6.980  1.0118  0.0052 -0.5386
   74SLPC    C2 6550   5.059   2.218   6.873  1.2751  0.7942  0.1604
   74SLPC    HS 6551   5.157   2.174   6.900  0.0169  0.1049  4.3411
   74SLPC   O21 6552   5.064   2.325   6.780 -0.0123  0.0139 -0.0656
   74SLPC   C21 6553   5.169   2.317   6.702 -0.3682 -0.0888 -0.1335
   74SLPC   O22 6554   5.252   2.226   6.695 -0.1095 -0.0248 -0.1650
   74SLPC   C22 6555   5.167   2.436   6.602 -0.6141  0.3179  0.3916
   74SLPC   H2R 6556   5.138   2.528   6.656 -2.9829 -0.7139  1.0229
   74SLPC   H2S 6557   5.268   2.435   6.554 -0.1486 -3.1475  1.1737
   74SLPC    C3 6558   4.969   2.093   6.827  0.0611 -0.3285  0.3384
   74SLPC    HX 6559   4.865   2.128   6.841  0.1539  0.4575 -0.8046
   74SLPC    HY 6560   4.969   2.010   6.901 -1.1708  1.4486  2.4421
   74SLPC   O31 6561   4.982   2.060   6.687  0.9278 -0.4154 -0.4579
   74SLPC   C31 6562   5.082   1.969   6.676 -0.5859  0.1158  0.3730
   74SLPC   O32 6563   5.152   1.928   6.766  0.8120 -0.7844 -0.0478
   74SLPC   C32 6564   5.094   1.918   6.536  0.1834  0.0576 -0.3084
   74SLPC   H2X 6565   5.177   1.972   6.486  0.3144 -2.0495 -2.6074
   74SLPC   H2Y 6566   4.999   1.942   6.484 -0.1090  0.2750  0.3286
   74SLPC   C23 6567   5.063   2.415   6.487 -0.6847 -0.1919  0.2995
   74SLPC   H3R 6568   5.063   2.515   6.439  1.0927 -0.1802  0.2537
   74SLPC   H3S 6569   4.961   2.404   6.530 -0.7113 -3.4075 -0.3121
   74SLPC   C24 6570   5.093   2.303   6.392 -0.4652  0.5392 -0.9201
   74SLPC   H4R 6571   5.076   2.210   6.450 -1.5105  2.4838  2.0936
   74SLPC   H4S 6572   5.199   2.294   6.357  0.4843 -0.3494  1.9498
   74SLPC   C25 6573   5.001   2.293   6.265  0.0524 -0.1678 -0.1060
   74SLPC   H5R 6574   4.987   2.396   6.228 -0.3275 -0.0701  0.2989
   74SLPC   H5S 6575   4.905   2.255   6.305 -0.7108  0.5073 -1.2558
   74SLPC   C26 6576   5.047   2.209   6.147 -0.6424 -0.6834  0.3169
   74SLPC   H6R 6577   5.152   2.235   6.122 -0.2054 -0.6656  2.0181
   74SLPC   H6S 6578   4.980   2.217   6.059 -0.6181 -4.6764 -0.2494
   74SLPC   C27 6579   5.050   2.062   6.171  0.6241  0.2341 -0.1427
   74SLPC   H7R 6580   4.956   2.028   6.219  1.7868 -1.9207  0.7373
   74SLPC   H7S 6581   5.131   2.028   6.240  0.5509 -1.5644 -0.8893
   74SLPC   C28 6582   5.084   1.971   6.046  0.3308 -0.1005  0.3380
   74SLPC   H8R 6583   5.085   1.865   6.080  1.5587 -0.6039 -1.1295
   74SLPC   H8S 6584   5.185   1.999   6.009 -0.6108  0.2519 -2.1885
   74SLPC   C29 6585   4.993   1.971   5.919 -0.9605  0.0925  0.3021
   74SLPC   H9R 6586   4.892   2.008   5.941 -0.6988  0.7678  0.4141
   74SLPC  C210 6587   5.035   1.938   5.790  0.0797 -0.5264  0.2153
   74SLPC  H10R 6588   4.958   1.931   5.712  1.2548 -0.7259 -0.9641
   74SLPC  C211 6589   5.174   1.905   5.736  0.1881 -0.1256 -0.6424
   74SLPC  H11R 6590   5.240   1.899   5.825  2.9771 -1.5946 -2.6417
   74SLPC  H11S 6591   5.214   1.997   5.688  0.2896  1.3333  2.0674
   74SLPC  C212 6592   5.183   1.790   5.630 -0.4343  0.1747 -0.1150
   74SLPC  H12R 6593   5.197   1.686   5.664 -0.7215 -0.4499 -1.8102
   74SLPC  C213 6594   5.165   1.807   5.498 -0.1967  0.3893  0.4371
   74SLPC  H13R 6595   5.181   1.719   5.433  0.3141 -1.6608  3.1278
   74SLPC  C214 6596   5.133   1.944   5.437  0.1126  0.1744  0.1855
   74SLPC  H14R 6597   5.093   2.009   5.518  2.0319 -1.0129  2.2126
   74SLPC  H14S 6598   5.052   1.938   5.361  0.4019 -0.8768 -0.0548
   74SLPC  C215 6599   5.254   2.025   5.396  0.1050 -0.5563  0.3502
   74SLPC  H15R 6600   5.283   1.977   5.300  1.0873 -0.2619  0.4980
   74SLPC  H15S 6601   5.344   2.032   5.459 -0.4493  2.2423  0.9717
   74SLPC  C216 6602   5.210   2.172   5.375  0.4736 -0.0199  0.5295
   74SLPC  H16R 6603   5.218   2.236   5.465  0.3408 -1.5105  1.6542
   74SLPC  H16S 6604   5.105   2.157   5.341  1.9362 -3.2716 -3.4168
   74SLPC  C217 6605   5.286   2.242   5.264  0.9377  0.0270 -0.3503
   74SLPC  H17R 6606   5.379   2.182   5.254  0.8637  0.0707 -1.4814
   74SLPC  H17S 6607   5.298   2.346   5.301 -0.1326 -0.2698  0.9038
   74SLPC  C218 6608   5.222   2.246   5.130  0.0533  0.5196 -0.5128
   74SLPC  H18R 6609   5.209   2.145   5.086  1.5487  0.1062 -0.0573
   74SLPC  H18S 6610   5.296   2.290   5.061 -0.9692  1.1221 -1.2500
   74SLPC  H18T 6611   5.128   2.304   5.127 -0.5445 -0.3940 -0.0354
   74SLPC   C33 6612   5.132   1.766   6.522  0.1488  0.2150 -0.5426
   74SLPC   H3X 6613   5.055   1.702   6.570  0.5088  1.8833  2.5284
   74SLPC   H3Y 6614   5.222   1.740   6.582 -0.3437 -0.6615 -0.1658
   74SLPC   C34 6615   5.174   1.734   6.383  0.8475  0.1739 -0.5365
   74SLPC   H4X 6616   5.267   1.792   6.371  0.1141  1.7125  0.8289
   74SLPC   H4Y 6617   5.104   1.786   6.315  1.5092  3.3759  1.0739
   74SLPC   C35 6618   5.210   1.586   6.360 -0.0795  0.3309 -0.1505
   74SLPC   H5X 6619   5.115   1.528   6.354  1.0145 -1.4557 -0.9590
   74SLPC   H5Y 6620   5.266   1.535   6.441  0.8241 -1.1049 -1.6242
   74SLPC   C36 6621   5.286   1.560   6.235  0.0853  0.0673  1.0791
   74SLPC   H6X 6622   5.320   1.455   6.221 -1.9669 -0.6700  1.2145
   74SLPC   H6Y 6623   5.368   1.634   6.231  0.7243 -0.6316  1.0954
   74SLPC   C37 6624   5.208   1.580   6.100  0.2692  0.1316 -0.2166
   74SLPC   H7X 6625   5.169   1.684   6.093  3.3338  1.3764 -0.1010
   74SLPC   H7Y 6626   5.123   1.508   6.103  0.0930  0.3333 -0.4213
   74SLPC   C38 6627   5.300   1.559   5.981 -0.2381  1.0310 -0.3560
   74SLPC   H8X 6628   5.363   1.479   6.025 -1.3741  1.4802  2.2461
   74SLPC   H8Y 6629   5.361   1.647   5.951 -1.2377  1.3385 -1.5888
   74SLPC   C39 6630   5.213   1.509   5.868  0.2456  0.2211  0.4445
   74SLPC   H9X 6631   5.143   1.584   5.824 -0.5354 -0.8376 -0.1776
   74SLPC   H9Y 6632   5.148   1.427   5.907  1.5482  0.0454  2.3772
   74SLPC  C310 6633   5.294   1.432   5.767  0.0373  0.4276  0.5869
   74SLPC  H10X 6634   5.351   1.348   5.811  0.3897  0.4938  0.2614
   74SLPC  H10Y 6635   5.364   1.504   5.719 -0.5050  0.7244  0.2206
   74SLPC  C311 6636   5.198   1.375   5.664 -0.2796 -0.2036  0.0623
   74SLPC  H11X 6637   5.133   1.457   5.627  1.4052  0.9296 -0.4933
   74SLPC  H11Y 6638   5.132   1.300   5.713  0.0132  0.8065  2.1223
   74SLPC  C312 6639   5.278   1.315   5.551 -0.1974 -0.2502  0.2236
   74SLPC  H12X 6640   5.368   1.258   5.581  0.0591 -0.0988 -0.2337
   74SLPC  H12Y 6641   5.319   1.404   5.498 -0.6569 -0.3887 -0.3759
   74SLPC  C313 6642   5.202   1.232   5.438 -0.8211  0.5063 -0.6746
   74SLPC  H13X 6643   5.163   1.133   5.468  1.3084 -0.2886 -0.3742
   74SLPC  H13Y 6644   5.293   1.230   5.374  0.5659  0.9409  1.2178
   74SLPC  C314 6645   5.093   1.317   5.376  0.0613  0.7393 -0.8078
   74SLPC  H14X 6646   5.143   1.404   5.327  0.4993  0.9582  0.0104
   74SLPC  H14Y 6647   5.016   1.354   5.447  0.2395 -1.0386  0.3587
   74SLPC  C315 6648   5.017   1.243   5.262  0.0915  0.0473  0.0685
   74SLPC  H15X 6649   4.964   1.162   5.317  1.8249 -0.0248  1.7772
   74SLPC  H15Y 6650   5.086   1.204   5.184  1.1566  1.6357  0.1737
   74SLPC  C316 6651   4.909   1.328   5.188  0.7328  1.2465 -0.7873
   74SLPC  H16X 6652   4.959   1.408   5.131 -1.6581  1.2748 -3.0374
   74SLPC  H16Y 6653   4.838   1.368   5.264 -1.0776  0.6345 -2.0793
   74SLPC  C317 6654   4.826   1.231   5.103  0.0652 -0.0989 -0.3208
   74SLPC  H17X 6655   4.890   1.182   5.027 -0.9276 -0.7340 -0.7805
   74SLPC  H17Y 6656   4.762   1.293   5.037 -0.7390 -0.0676  0.4561
   74SLPC  C318 6657   4.739   1.125   5.177  0.3811 -0.1955 -0.0525
   74SLPC  H18X 6658   4.804   1.052   5.229  2.6046  0.4100 -1.7885
   74SLPC  H18Y 6659   4.668   1.075   5.107 -0.0487 -1.3374  1.1693
   74SLPC  H18Z 6660   4.675   1.184   5.246  0.0567 -0.1523 -0.3892
   75SLPC     N 6661   1.820   0.580   6.829 -0.1006 -0.1826  0.3433
   75SLPC   C13 6662   1.825   0.679   6.714  0.0038  0.7335 -0.8974
   75SLPC  H13A 6663   1.820   0.780   6.752  0.6159  0.6319 -0.5468
   75SLPC  H13B 6664   1.909   0.658   6.650 -0.2620 -0.6469 -0.8165
   75SLPC  H13C 6665   1.744   0.659   6.645  0.4560 -0.5643 -1.0678
   75SLPC   C14 6666   1.688   0.610   6.899  0.1116  0.8804 -0.5426
   75SLPC  H14A 6667   1.597   0.599   6.841  0.9086  0.4473 -1.7611
   75SLPC  H14B 6668   1.679   0.547   6.986 -0.8686  0.6282 -0.8176
   75SLPC  H14C 6669   1.689   0.712   6.934  0.0297  1.0750 -1.0902
   75SLPC   C15 6670   1.931   0.599   6.929  0.1137 -0.7571 -0.2335
   75SLPC  H15A 6671   1.935   0.698   6.972  0.4691 -1.6314  1.8288
   75SLPC  H15B 6672   1.917   0.530   7.010 -1.0637 -2.2738 -1.6712
   75SLPC  H15C 6673   2.024   0.558   6.892  0.0223 -0.8972 -0.3062
   75SLPC   C12 6674   1.814   0.435   6.780 -0.1700 -0.6382 -0.2450
   75SLPC  H12A 6675   1.785   0.370   6.861  0.9841  0.7951  1.3902
   75SLPC  H12B 6676   1.912   0.415   6.740  0.1164  1.3672 -0.6484
   75SLPC   C11 6677   1.725   0.409   6.655  0.4358  0.2816  0.0591
   75SLPC  H11A 6678   1.714   0.298   6.650  2.9998  0.0188 -1.0641
   75SLPC  H11B 6679   1.780   0.432   6.561 -2.7046  1.2431 -1.7239
   75SLPC     P 6680   1.521   0.529   6.545 -0.2446 -0.4190 -0.2176
   75SLPC   O13 6681   1.385   0.485   6.567  0.1353  0.2612 -0.7325
   75SLPC   O14 6682   1.555   0.674   6.535  0.4988 -0.2100  0.0366
   75SLPC   O12 6683   1.599   0.476   6.666 -0.3153 -0.4382 -0.6198
   75SLPC   O11 6684   1.571   0.450   6.426 -0.6683  0.4624  0.0990
   75SLPC    C1 6685   1.547   0.306   6.410  0.1496 -0.3235 -0.3787
   75SLPC    HA 6686   1.627   0.251   6.463  0.8170 -1.8279 -2.8089
   75SLPC    HB 6687   1.452   0.291   6.466  0.9161  0.2106  1.1289
   75SLPC    C2 6688   1.552   0.257   6.266  0.5238  0.1652  0.0766
   75SLPC    HS 6689   1.486   0.322   6.205 -0.6908 -0.7394  0.3696
   75SLPC   O21 6690   1.523   0.114   6.262 -0.2089  0.2264 -0.1840
   75SLPC   C21 6691   1.389   0.099   6.240 -0.2647 -0.2466  0.6929
   75SLPC   O22 6692   1.316   0.191   6.209  0.1109 -0.4755 -0.1589
   75SLPC   C22 6693   1.345  -0.047   6.241 -0.1307  0.6482  0.0655
   75SLPC   H2R 6694   1.314  -0.072   6.345 -0.6350  1.2244  0.0548
   75SLPC   H2S 6695   1.254  -0.053   6.177  0.7365  0.5384 -1.1976
   75SLPC    C3 6696   1.697   0.289   6.205 -0.1545  1.1536  0.7966
   75SLPC    HX 6697   1.778   0.270   6.279 -0.8591  0.5535  1.4294
   75SLPC    HY 6698   1.701   0.398   6.182 -1.1019  0.6546 -2.2032
   75SLPC   O31 6699   1.728   0.222   6.079 -0.1679  0.3332  0.6435
   75SLPC   C31 6700   1.846   0.264   6.027  0.4419  0.1291  0.2077
   75SLPC   O32 6701   1.919   0.342   6.084 -0.2433 -0.3240 -0.1610
   75SLPC   C32 6702   1.854   0.209   5.894  0.3927 -0.3521  0.7711
   75SLPC   H2X 6703   1.826   0.297   5.833  1.2717  0.2951  1.2758
   75SLPC   H2Y 6704   1.771   0.135   5.891  0.3424 -0.2852  0.4826
   75SLPC   C23 6705   1.453  -0.150   6.187  0.2591 -0.1533  0.2847
   75SLPC   H3R 6706   1.403  -0.246   6.215 -0.9082  0.4872  0.4506
   75SLPC   H3S 6707   1.549  -0.160   6.240  1.0291 -1.0349 -1.1995
   75SLPC   C24 6708   1.481  -0.136   6.041 -0.2023  0.1213  0.1793
   75SLPC   H4R 6709   1.567  -0.200   6.011 -0.3670 -1.2059  2.3521
   75SLPC   H4S 6710   1.514  -0.030   6.036  1.4546 -0.3512  0.7495
   75SLPC   C25 6711   1.362  -0.163   5.949  0.1799 -0.8325 -0.1345
   75SLPC   H5R 6712   1.381  -0.093   5.864 -0.2685  0.7010  0.9740
   75SLPC   H5S 6713   1.267  -0.130   5.997 -0.2764 -0.8891 -0.9758
   75SLPC   C26 6714   1.350  -0.310   5.899  0.0476 -0.3095  0.2610
   75SLPC   H6R 6715   1.296  -0.381   5.967  0.5622  0.1124  1.1317
   75SLPC   H6S 6716   1.455  -0.343   5.887  0.8679  2.4997 -1.0403
   75SLPC   C27 6717   1.274  -0.306   5.764 -0.1470  0.2636  0.1872
   75SLPC   H7R 6718   1.204  -0.219   5.763 -1.2693 -0.5405 -2.6759
   75SLPC   H7S 6719   1.212  -0.394   5.736 -1.1993  1.6396 -2.1626
   75SLPC   C28 6720   1.362  -0.299   5.635 -0.7104 -0.5800 -0.4122
   75SLPC   H8R 6721   1.389  -0.405   5.613 -0.0534 -0.8214  1.3744
   75SLPC   H8S 6722   1.455  -0.241   5.653  0.0840 -1.6372 -0.9484
   75SLPC   C29 6723   1.286  -0.244   5.520 -0.1080  0.1285 -0.1871
   75SLPC   H9R 6724   1.264  -0.136   5.522 -1.0506 -0.0126 -1.4624
   75SLPC  C210 6725   1.250  -0.311   5.413 -0.2591  0.0498  0.2497
   75SLPC  H10R 6726   1.187  -0.265   5.335 -0.3512 -0.0113  0.2882
   75SLPC  C211 6727   1.291  -0.453   5.378  0.1756  0.1023  0.8597
   75SLPC  H11R 6728   1.254  -0.511   5.465 -1.0446 -1.3824 -0.5752
   75SLPC  H11S 6729   1.401  -0.462   5.388  0.2342 -3.1878 -1.1898
   75SLPC  C212 6730   1.248  -0.529   5.250 -0.3185 -0.5762  0.1259
   75SLPC  H12R 6731   1.212  -0.631   5.269  1.8973 -1.2685  0.8993
   75SLPC  C213 6732   1.251  -0.467   5.134  0.7072  0.2860 -0.1862
   75SLPC  H13R 6733   1.202  -0.527   5.056  1.4383 -1.6147  0.7499
   75SLPC  C214 6734   1.316  -0.340   5.088 -0.0159 -0.2556  1.1013
   75SLPC  H14R 6735   1.393  -0.363   5.012  2.0976  0.0701  3.0306
   75SLPC  H14S 6736   1.369  -0.283   5.167  1.6339 -0.4732  0.1883
   75SLPC  C215 6737   1.210  -0.245   5.023  1.0491 -0.9577 -0.5634
   75SLPC  H15R 6738   1.155  -0.206   5.111  1.9767  0.8840 -0.7440
   75SLPC  H15S 6739   1.153  -0.311   4.954 -1.3030  0.9690 -0.6310
   75SLPC  C216 6740   1.263  -0.136   4.925  0.4293  0.4748 -0.3151
   75SLPC  H16R 6741   1.170  -0.096   4.881 -0.1025  0.1267  0.4757
   75SLPC  H16S 6742   1.313  -0.186   4.840 -0.4373  0.4006 -0.7884
   75SLPC  C217 6743   1.355  -0.037   4.991  0.1552 -0.2004  0.0650
   75SLPC  H17R 6744   1.438  -0.095   5.038 -0.6266 -0.5113  1.0885
   75SLPC  H17S 6745   1.288   0.011   5.065 -0.8896 -0.5877 -0.6101
   75SLPC  C218 6746   1.430   0.066   4.903  0.2902 -0.0233  0.0147
   75SLPC  H18R 6747   1.440   0.163   4.957  1.6752  0.2416 -0.6829
   75SLPC  H18S 6748   1.382   0.090   4.806  1.1970  1.2078 -0.1554
   75SLPC  H18T 6749   1.534   0.032   4.886  0.6901  1.1797 -0.0577
   75SLPC   C33 6750   1.991   0.162   5.844 -0.0293 -0.2178 -0.0743
   75SLPC   H3X 6751   1.970   0.111   5.748  0.6683  0.4290 -0.5759
   75SLPC   H3Y 6752   2.019   0.083   5.917 -0.3036 -0.6745 -0.4557
   75SLPC   C34 6753   2.096   0.272   5.824 -0.4959 -0.2758 -0.2393
   75SLPC   H4X 6754   2.125   0.317   5.921 -0.6721 -0.3324 -0.1595
   75SLPC   H4Y 6755   2.048   0.356   5.768  0.5947  1.0258  0.7081
   75SLPC   C35 6756   2.219   0.220   5.746  0.5761 -0.2583  0.8281
   75SLPC   H5X 6757   2.239   0.120   5.789  1.2543 -0.9227 -0.9306
   75SLPC   H5Y 6758   2.305   0.284   5.774  0.2439  0.8709 -0.6398
   75SLPC   C36 6759   2.207   0.225   5.588 -0.0713 -0.3057 -0.4975
   75SLPC   H6X 6760   2.183   0.328   5.553  1.3211 -0.1603 -1.0836
   75SLPC   H6Y 6761   2.122   0.162   5.555  0.3893 -1.8372  1.1141
   75SLPC   C37 6762   2.337   0.171   5.521 -0.0595  0.4011  0.0398
   75SLPC   H7X 6763   2.362   0.074   5.569  2.0246 -0.7579 -3.0824
   75SLPC   H7Y 6764   2.423   0.232   5.556 -0.5257  0.7213  0.6503
   75SLPC   C38 6765   2.330   0.134   5.366 -1.0727  0.9587 -0.5901
   75SLPC   H8X 6766   2.239   0.073   5.344  1.4623 -3.2837 -0.4530
   75SLPC   H8Y 6767   2.416   0.073   5.330 -0.5151  2.3390 -1.6997
   75SLPC   C39 6768   2.331   0.255   5.289 -0.0244 -0.2726 -0.2073
   75SLPC   H9X 6769   2.411   0.325   5.321 -0.0430 -1.4889  2.8385
   75SLPC   H9Y 6770   2.238   0.312   5.310  0.3795  0.3950 -0.1826
   75SLPC  C310 6771   2.327   0.229   5.134  0.1876  0.3388 -0.2274
   75SLPC  H10X 6772   2.253   0.150   5.112  0.8986  0.2032 -2.3419
   75SLPC  H10Y 6773   2.429   0.202   5.100 -0.0705 -1.7787  0.5385
   75SLPC  C311 6774   2.267   0.344   5.055 -0.6401 -0.4250 -0.0194
   75SLPC  H11X 6775   2.307   0.438   5.099  0.8368 -1.4295  0.8913
   75SLPC  H11Y 6776   2.160   0.356   5.080 -0.7808 -0.9925 -0.3300
   75SLPC  C312 6777   2.300   0.347   4.903  0.0784  0.0203 -0.3656
   75SLPC  H12X 6778   2.408   0.327   4.884  0.2889 -0.4629  1.2154
   75SLPC  H12Y 6779   2.270   0.446   4.863 -1.3100 -0.4886 -0.6333
   75SLPC  C313 6780   2.215   0.241   4.833  0.2210 -0.4687  0.2189
   75SLPC  H13X 6781   2.106   0.262   4.837  0.2307 -0.4148  0.2042
   75SLPC  H13Y 6782   2.229   0.146   4.889  2.5475  1.6645  3.6422
   75SLPC  C314 6783   2.248   0.218   4.683  0.0973 -0.3604 -0.3434
   75SLPC  H14X 6784   2.172   0.147   4.644 -1.0014  0.0463  0.9589
   75SLPC  H14Y 6785   2.348   0.170   4.680 -0.2950 -1.6685  2.8200
   75SLPC  C315 6786   2.253   0.350   4.609 -0.0851  0.1812  1.0564
   75SLPC  H15X 6787   2.350   0.403   4.625 -0.8614  3.2498 -2.8130
   75SLPC  H15Y 6788   2.172   0.423   4.632  0.3852  0.7278  1.0115
   75SLPC  C316 6789   2.240   0.326   4.461  0.0641 -0.4226 -0.3389
   75SLPC  H16X 6790   2.234   0.427   4.415  2.4936  0.0720  0.2630
   75SLPC  H16Y 6791   2.147   0.269   4.439 -0.8221  0.3582  1.2257
   75SLPC  C317 6792   2.366   0.257   4.404  0.0121 -0.0300  0.0676
   75SLPC  H17X 6793   2.367   0.154   4.447 -1.1555 -0.0056  0.1841
   75SLPC  H17Y 6794   2.460   0.311   4.427 -1.1888  2.8149 -1.3361
   75SLPC  C318 6795   2.357   0.235   4.252  0.3524  0.1514  0.5337
   75SLPC  H18X 6796   2.443   0.176   4.213  0.2604  0.9169 -0.8854
   75SLPC  H18Y 6797   2.349   0.331   4.198 -1.0084 -0.2717 -0.0562
   75SLPC  H18Z 6798   2.268   0.172   4.229  0.2436  0.5120 -0.0314
   76SLPC     N 6799   5.031   6.384   6.847  0.5100  0.5237  0.5181
   76SLPC   C13 6800   5.169   6.335   6.861 -0.0284  0.2230 -0.1290
   76SLPC  H13A 6801   5.175   6.261   6.783 -1.1947 -0.2892  0.2423
   76SLPC  H13B 6802   5.229   6.423   6.842 -2.4085  1.8035 -0.7615
   76SLPC  H13C 6803   5.194   6.285   6.954 -0.7729  0.2788  0.1069
   76SLPC   C14 6804   5.017   6.439   6.715  1.0078 -0.4074 -0.2875
   76SLPC  H14A 6805   5.045   6.359   6.647  0.9781 -1.4003  0.8334
   76SLPC  H14B 6806   4.918   6.475   6.692  0.5884  0.1536  2.1350
   76SLPC  H14C 6807   5.080   6.527   6.705  0.9935 -0.2809  0.6547
   76SLPC   C15 6808   5.011   6.487   6.956  0.4351  0.4522  1.0178
   76SLPC  H15A 6809   4.917   6.539   6.949  0.1228 -0.1446  0.8201
   76SLPC  H15B 6810   5.022   6.434   7.049 -0.3659 -0.1038  0.8028
   76SLPC  H15C 6811   5.090   6.561   6.945 -1.0430  1.7229 -2.2696
   76SLPC   C12 6812   4.942   6.269   6.877  0.0757  0.8819 -0.3147
   76SLPC  H12A 6813   4.845   6.311   6.900 -0.6366 -1.4714  1.2905
   76SLPC  H12B 6814   4.975   6.234   6.973 -1.1323  0.0724 -0.1744
   76SLPC   C11 6815   4.936   6.150   6.775  0.1685 -0.5170 -0.3794
   76SLPC  H11A 6816   4.881   6.199   6.692  0.0610  0.1881  0.1091
   76SLPC  H11B 6817   4.865   6.069   6.804 -0.5914  0.9180  1.9950
   76SLPC     P 6818   5.129   5.970   6.766 -0.1349 -0.2056  0.1117
   76SLPC   O13 6819   5.190   5.987   6.903  0.1865  0.6888  0.6608
   76SLPC   O14 6820   5.030   5.864   6.744 -0.2136  0.0298 -0.1430
   76SLPC   O12 6821   5.061   6.110   6.729 -0.2626  0.2815  0.0710
   76SLPC   O11 6822   5.250   5.956   6.662 -0.0326 -0.6528 -0.1553
   76SLPC    C1 6823   5.228   5.918   6.527  0.3053  0.2361  0.1618
   76SLPC    HA 6824   5.319   5.872   6.482  0.4570  0.5934  0.0968
   76SLPC    HB 6825   5.161   5.831   6.509 -1.6223  1.9821 -1.4720
   76SLPC    C2 6826   5.166   6.023   6.437  0.7721 -0.1118  0.2515
   76SLPC    HS 6827   5.069   6.056   6.481  0.4242 -1.1702  0.3026
   76SLPC   O21 6828   5.148   5.969   6.312  0.9353  0.1293  0.0924
   76SLPC   C21 6829   5.066   6.031   6.230  0.3202  0.7223 -0.8297
   76SLPC   O22 6830   4.999   6.128   6.256  0.8333 -0.4397  0.2041
   76SLPC   C22 6831   5.054   5.943   6.099 -0.6334 -0.6926 -0.0577
   76SLPC   H2R 6832   5.103   5.844   6.110 -0.1058 -0.5609 -1.1056
   76SLPC   H2S 6833   4.951   5.943   6.058 -0.6353  0.9827 -0.1391
   76SLPC    C3 6834   5.267   6.143   6.434  0.8338  0.2786  0.1230
   76SLPC    HX 6835   5.363   6.088   6.427  0.3146 -0.9116  1.9209
   76SLPC    HY 6836   5.260   6.191   6.534  2.5290 -1.9291  1.3726
   76SLPC   O31 6837   5.254   6.228   6.316  0.3618  0.0831  0.3332
   76SLPC   C31 6838   5.347   6.330   6.335  0.0489 -0.5994 -0.1763
   76SLPC   O32 6839   5.423   6.340   6.431  0.1976 -0.6571  0.3994
   76SLPC   C32 6840   5.343   6.420   6.218 -0.3574 -0.6675 -0.0732
   76SLPC   H2X 6841   5.356   6.522   6.259 -2.8488 -0.0673 -0.6106
   76SLPC   H2Y 6842   5.239   6.420   6.179  0.3042 -0.7077 -1.9049
   76SLPC   C23 6843   5.146   6.011   5.996 -1.0300  0.7461 -0.3249
   76SLPC   H3R 6844   5.251   5.987   6.023 -0.8877  2.4685  0.8659
   76SLPC   H3S 6845   5.141   6.122   5.994  1.2583  0.9222  0.2762
   76SLPC   C24 6846   5.108   5.950   5.857 -0.0041  0.3571 -1.0309
   76SLPC   H4R 6847   5.008   5.996   5.839 -1.0801  0.3156  3.6175
   76SLPC   H4S 6848   5.096   5.840   5.865  0.1399  0.4878  2.5335
   76SLPC   C25 6849   5.210   5.987   5.752 -1.0125  0.6882  0.6131
   76SLPC   H5R 6850   5.302   5.949   5.801 -0.7120  0.0807 -0.3762
   76SLPC   H5S 6851   5.226   6.095   5.731  0.8680  0.2035 -0.6961
   76SLPC   C26 6852   5.177   5.930   5.613 -0.0957  0.3558  0.3483
   76SLPC   H6R 6853   5.092   5.993   5.577  0.4431  0.5064 -0.7000
   76SLPC   H6S 6854   5.135   5.828   5.608 -1.6275  0.8933  1.5374
   76SLPC   C27 6855   5.294   5.945   5.516  0.3097 -0.0297  0.2218
   76SLPC   H7R 6856   5.388   5.913   5.566 -2.7853 -4.0390  4.2714
   76SLPC   H7S 6857   5.312   6.053   5.492  1.0018  0.2459  1.8261
   76SLPC   C28 6858   5.277   5.865   5.392  0.3982 -0.0141  0.0497
   76SLPC   H8R 6859   5.168   5.851   5.374  0.2812  0.0687  0.6459
   76SLPC   H8S 6860   5.314   5.761   5.401  0.8772  0.0174 -1.3206
   76SLPC   C29 6861   5.330   5.917   5.268 -0.2768 -0.9359 -0.1582
   76SLPC   H9R 6862   5.424   5.869   5.237 -1.6474 -2.8181 -1.6618
   76SLPC  C210 6863   5.279   6.010   5.186 -0.2898  0.4291 -0.1532
   76SLPC  H10R 6864   5.326   6.056   5.099  0.1308  0.3760  0.0434
   76SLPC  C211 6865   5.139   6.069   5.208 -0.0841 -0.9422  0.2671
   76SLPC  H11R 6866   5.149   6.142   5.291 -0.1349 -0.6014 -0.0232
   76SLPC  H11S 6867   5.076   5.986   5.248 -0.5086  0.5047  2.7866
   76SLPC  C212 6868   5.079   6.140   5.094 -0.1946 -0.7727 -0.3638
   76SLPC  H12R 6869   5.063   6.248   5.095  0.1547 -0.7139 -0.8595
   76SLPC  C213 6870   5.036   6.084   4.978  0.1189  0.6164  0.5053
   76SLPC  H13R 6871   4.994   6.145   4.897 -0.1417  1.6684  1.4100
   76SLPC  C214 6872   5.042   5.937   4.948  0.0644 -0.1175  0.7107
   76SLPC  H14R 6873   4.950   5.897   4.900 -0.5928  0.9169  1.0795
   76SLPC  H14S 6874   5.071   5.870   5.031  0.0369 -0.3548  0.5313
   76SLPC  C215 6875   5.142   5.908   4.831  0.8934 -0.5244 -0.1680
   76SLPC  H15R 6876   5.142   5.801   4.802  1.1544 -0.6064  0.1334
   76SLPC  H15S 6877   5.243   5.938   4.865  0.3892  0.1936  0.7394
   76SLPC  C216 6878   5.115   5.977   4.696 -0.1533  0.1888 -0.7354
   76SLPC  H16R 6879   5.085   6.083   4.710  0.9835  0.3834  0.3446
   76SLPC  H16S 6880   5.020   5.923   4.672  0.6482 -0.5424 -2.4506
   76SLPC  C217 6881   5.229   5.963   4.594 -0.5439 -0.0459  0.3545
   76SLPC  H17R 6882   5.316   6.023   4.630 -0.5957  1.4170 -1.7318
   76SLPC  H17S 6883   5.189   6.019   4.507 -0.4390  1.4709  1.2462
   76SLPC  C218 6884   5.271   5.816   4.547  0.4613 -0.5777  0.3148
   76SLPC  H18R 6885   5.179   5.760   4.521  0.7167 -0.4374 -0.9574
   76SLPC  H18S 6886   5.328   5.758   4.623  0.2072 -0.4497  0.6023
   76SLPC  H18T 6887   5.340   5.826   4.460 -1.2054 -0.3244 -1.0223
   76SLPC   C33 6888   5.455   6.378   6.119  0.4041 -0.1939 -0.2230
   76SLPC   H3X 6889   5.410   6.304   6.049 -3.6447  0.5356  1.3034
   76SLPC   H3Y 6890   5.547   6.344   6.171 -1.0182 -1.6662  1.4558
   76SLPC   C34 6891   5.496   6.489   6.021  0.4477  0.4254  0.0420
   76SLPC   H4X 6892   5.591   6.461   5.971 -0.3274 -0.2085 -1.1128
   76SLPC   H4Y 6893   5.511   6.579   6.085  0.6265  0.3875  0.0556
   76SLPC   C35 6894   5.389   6.521   5.914  0.2269  0.6897  0.0639
   76SLPC   H5X 6895   5.310   6.587   5.957  1.6039  1.2585  1.8642
   76SLPC   H5Y 6896   5.344   6.422   5.891 -0.6470  1.0418  0.2179
   76SLPC   C36 6897   5.460   6.599   5.796  0.0577 -0.7713  0.2897
   76SLPC   H6X 6898   5.525   6.530   5.737 -0.1541 -0.4528 -0.3290
   76SLPC   H6Y 6899   5.513   6.688   5.837 -2.7085  0.1698  2.1071
   76SLPC   C37 6900   5.355   6.646   5.701  0.4110  0.6493  0.0663
   76SLPC   H7X 6901   5.290   6.719   5.755  1.0190  0.9771  0.3568
   76SLPC   H7Y 6902   5.299   6.552   5.680 -0.9798  0.6932  3.0848
   76SLPC   C38 6903   5.421   6.699   5.570 -0.7481  0.0077 -0.0400
   76SLPC   H8X 6904   5.475   6.615   5.521 -0.5958  1.0654 -1.7772
   76SLPC   H8Y 6905   5.504   6.769   5.593  0.4566 -1.4591  0.2589
   76SLPC   C39 6906   5.329   6.770   5.472  0.3973  0.4227  0.1882
   76SLPC   H9X 6907   5.402   6.828   5.411 -0.8065 -0.5312 -2.3251
   76SLPC   H9Y 6908   5.271   6.835   5.541  1.6463  0.2877  1.4011
   76SLPC  C310 6909   5.245   6.674   5.378  0.2491  0.6723 -0.2617
   76SLPC  H10X 6910   5.183   6.733   5.306 -1.8657 -0.1738  0.7837
   76SLPC  H10Y 6911   5.177   6.611   5.439  1.1358  1.4338  1.5663
   76SLPC  C311 6912   5.325   6.568   5.294  0.0511 -0.2306 -0.9315
   76SLPC  H11X 6913   5.328   6.474   5.352  3.0778  1.5336  2.1926
   76SLPC  H11Y 6914   5.432   6.598   5.299  0.7396 -2.5111 -0.8392
   76SLPC  C312 6915   5.268   6.546   5.157 -0.0069  0.0868  0.0318
   76SLPC  H12X 6916   5.255   6.645   5.108  0.5971  0.0825 -0.1459
   76SLPC  H12Y 6917   5.165   6.511   5.176  0.8314 -1.4397  2.1508
   76SLPC  C313 6918   5.340   6.442   5.076  0.0987 -0.0844 -0.0462
   76SLPC  H13X 6919   5.290   6.430   4.978 -1.2917  1.2743  0.4608
   76SLPC  H13Y 6920   5.334   6.348   5.136  0.9551  0.0096  0.2033
   76SLPC  C314 6921   5.490   6.469   5.053  0.1724 -0.1978  0.4692
   76SLPC  H14X 6922   5.528   6.380   4.998 -0.3303  0.2141 -0.5761
   76SLPC  H14Y 6923   5.545   6.474   5.149  3.1857 -1.9995 -1.0218
   76SLPC  C315 6924   5.516   6.581   4.956  0.1858 -0.3672 -0.3640
   76SLPC  H15X 6925   5.506   6.675   5.014  2.5284  0.9517 -1.9826
   76SLPC  H15Y 6926   5.433   6.589   4.882 -1.5795  2.4770  1.7098
   76SLPC  C316 6927   5.655   6.586   4.905 -0.6375  0.2045  0.4442
   76SLPC  H16X 6928   5.675   6.488   4.856  0.3209  0.7297 -0.2521
   76SLPC  H16Y 6929   5.740   6.601   4.975  0.4964  1.5727 -1.1343
   76SLPC  C317 6930   5.671   6.688   4.798  0.0107  0.2774 -0.2666
   76SLPC  H17X 6931   5.650   6.791   4.835 -1.2773  0.1011 -0.4669
   76SLPC  H17Y 6932   5.604   6.681   4.710 -0.1681 -2.0684 -0.0115
   76SLPC  C318 6933   5.806   6.676   4.724  0.4176  0.3581 -0.7271
   76SLPC  H18X 6934   5.832   6.568   4.713  0.6130  0.2323  0.7990
   76SLPC  H18Y 6935   5.897   6.723   4.766  0.9674 -1.0712 -0.2514
   76SLPC  H18Z 6936   5.786   6.726   4.627 -1.7318  0.8768 -0.0843
   77SLPC     N 6937   5.045   5.576   7.094 -0.2568  0.6643  0.1415
   77SLPC   C13 6938   4.969   5.691   7.152 -0.3043  0.1613  0.1040
   77SLPC  H13A 6939   4.911   5.738   7.074 -2.7588 -2.5456  0.1128
   77SLPC  H13B 6940   4.891   5.662   7.221  1.8097 -0.0409  2.5366
   77SLPC  H13C 6941   5.036   5.761   7.199  0.9433  1.4679 -3.2892
   77SLPC   C14 6942   4.948   5.477   7.034  0.1924 -0.0558  0.5108
   77SLPC  H14A 6943   4.922   5.522   6.939  1.4800 -3.8625 -1.8674
   77SLPC  H14B 6944   4.995   5.383   7.007 -0.8631 -0.9002  1.4757
   77SLPC  H14C 6945   4.854   5.461   7.086 -1.8820  0.8380 -2.6723
   77SLPC   C15 6946   5.116   5.487   7.202 -0.2989  0.0560 -0.0320
   77SLPC  H15A 6947   5.047   5.462   7.282  0.6849 -1.6851  0.3159
   77SLPC  H15B 6948   5.147   5.396   7.154 -0.9323  0.2604 -0.8561
   77SLPC  H15C 6949   5.201   5.541   7.240 -0.1533  1.4135 -2.1587
   77SLPC   C12 6950   5.140   5.630   6.987 -0.6096 -0.0996 -0.7233
   77SLPC  H12A 6951   5.200   5.707   7.032  1.5709 -2.7082  1.0956
   77SLPC  H12B 6952   5.077   5.688   6.920  0.5634  1.6257 -0.4051
   77SLPC   C11 6953   5.235   5.542   6.902 -0.1792  0.3934  0.4859
   77SLPC  H11A 6954   5.302   5.501   6.981 -0.8882 -0.7266  0.5130
   77SLPC  H11B 6955   5.299   5.605   6.836  0.4681  0.1269  0.8418
   77SLPC     P 6956   5.183   5.288   6.844  0.1505 -0.3479  0.1163
   77SLPC   O13 6957   5.327   5.251   6.824 -0.3638  0.3937 -0.0256
   77SLPC   O14 6958   5.114   5.237   6.965  1.0939 -0.1885  0.0897
   77SLPC   O12 6959   5.164   5.442   6.833  0.2369  0.0108 -0.0022
   77SLPC   O11 6960   5.116   5.233   6.711 -0.1203  0.0128 -0.1082
   77SLPC    C1 6961   4.984   5.265   6.653 -0.1455  0.1300 -0.0240
   77SLPC    HA 6962   4.937   5.169   6.623 -2.0636  0.5220  1.5619
   77SLPC    HB 6963   4.921   5.313   6.730  1.3018 -2.4951  2.9935
   77SLPC    C2 6964   4.989   5.378   6.540 -0.8265  0.4229 -0.0155
   77SLPC    HS 6965   4.882   5.383   6.508 -1.2477 -3.7868  0.1131
   77SLPC   O21 6966   5.066   5.330   6.431 -0.1730  0.7269 -0.3198
   77SLPC   C21 6967   5.003   5.234   6.357 -0.0708  0.1581 -0.4203
   77SLPC   O22 6968   4.887   5.196   6.380  0.2897  0.4413 -0.9834
   77SLPC   C22 6969   5.101   5.199   6.241  0.5131 -0.1649 -0.6589
   77SLPC   H2R 6970   5.108   5.294   6.184  1.4786 -0.3991 -0.9464
   77SLPC   H2S 6971   5.203   5.172   6.276  0.1699  0.0809  0.5628
   77SLPC    C3 6972   5.043   5.521   6.578  0.6210 -0.0577  0.5334
   77SLPC    HX 6973   5.152   5.512   6.596  0.5291 -3.1652  0.1135
   77SLPC    HY 6974   4.997   5.539   6.677 -1.5774 -0.9001 -0.2603
   77SLPC   O31 6975   5.005   5.617   6.486  0.1349 -0.0559  0.3166
   77SLPC   C31 6976   4.878   5.658   6.484  0.3990  0.7818 -0.2572
   77SLPC   O32 6977   4.791   5.634   6.566 -0.2576  0.0646  0.3848
   77SLPC   C32 6978   4.863   5.759   6.366 -0.4216  0.2640 -0.1466
   77SLPC   H2X 6979   4.962   5.799   6.334  0.7541 -1.5685  1.0354
   77SLPC   H2Y 6980   4.794   5.842   6.395  0.7887  1.9995 -1.9442
   77SLPC   C23 6981   5.046   5.088   6.146  0.7209 -0.5619  0.4945
   77SLPC   H3R 6982   4.943   5.118   6.118  1.4102  0.8042 -0.6770
   77SLPC   H3S 6983   5.032   4.988   6.193 -0.6378 -0.6952 -0.1603
   77SLPC   C24 6984   5.135   5.081   6.018  0.3976  0.7305  0.6684
   77SLPC   H4R 6985   5.241   5.055   6.040 -0.1222 -1.4910  0.8866
   77SLPC   H4S 6986   5.138   5.180   5.969 -0.1913  0.6110  0.3764
   77SLPC   C25 6987   5.078   4.967   5.923  0.0602 -0.2557  0.5233
   77SLPC   H5R 6988   4.968   4.984   5.933  0.4256  1.7077  1.6770
   77SLPC   H5S 6989   5.107   4.865   5.956  1.8426  0.2915  0.7172
   77SLPC   C26 6990   5.127   4.993   5.778  0.5104  0.0792  0.0259
   77SLPC   H6R 6991   5.085   5.090   5.743  0.4904 -0.1689 -0.6535
   77SLPC   H6S 6992   5.090   4.918   5.704  0.0253 -0.3497  0.6867
   77SLPC   C27 6993   5.278   5.002   5.754 -0.6480 -0.7928  0.3432
   77SLPC   H7R 6994   5.322   4.907   5.790 -0.9045 -1.4950 -1.1095
   77SLPC   H7S 6995   5.325   5.086   5.809  0.8373 -2.3599  1.5426
   77SLPC   C28 6996   5.312   5.020   5.612  0.3656 -0.8580 -0.1576
   77SLPC   H8R 6997   5.275   4.931   5.556  1.5132 -1.4432 -0.0156
   77SLPC   H8S 6998   5.421   5.003   5.605  0.4135 -0.4352 -0.4849
   77SLPC   C29 6999   5.278   5.158   5.556  0.3488  0.4169 -0.3892
   77SLPC   H9R 7000   5.298   5.247   5.616 -1.2880  1.8159 -1.8167
   77SLPC  C210 7001   5.238   5.187   5.433 -0.4660 -0.0642  0.3370
   77SLPC  H10R 7002   5.209   5.291   5.412 -1.7802 -0.3181  0.7522
   77SLPC  C211 7003   5.219   5.092   5.320  0.4220  0.0194  0.5214
   77SLPC  H11R 7004   5.186   4.992   5.354 -1.3407  0.3098 -0.2113
   77SLPC  H11S 7005   5.322   5.065   5.292  0.0467 -0.4239 -0.4737
   77SLPC  C212 7006   5.143   5.139   5.203 -0.4835 -0.6767  0.0238
   77SLPC  H12R 7007   5.049   5.195   5.218 -1.2920 -2.0417  0.2344
   77SLPC  C213 7008   5.158   5.100   5.078  0.2139 -0.9332  0.2810
   77SLPC  H13R 7009   5.098   5.150   5.001 -0.0647 -0.5782  0.7274
   77SLPC  C214 7010   5.275   5.020   5.023 -0.4171 -0.2365  0.5560
   77SLPC  H14R 7011   5.245   4.923   4.979  1.1115  0.2501 -1.6878
   77SLPC  H14S 7012   5.357   4.993   5.092  0.6483 -2.5272 -1.4613
   77SLPC  C215 7013   5.335   5.100   4.906  0.3958 -0.6574  0.2822
   77SLPC  H15R 7014   5.370   5.204   4.927 -0.6605 -0.0924 -0.6360
   77SLPC  H15S 7015   5.258   5.101   4.826 -0.3049 -2.6729  0.8610
   77SLPC  C216 7016   5.458   5.026   4.844 -0.2477  0.1096 -0.8220
   77SLPC  H16R 7017   5.417   4.936   4.795  0.1370 -0.7283  0.3537
   77SLPC  H16S 7018   5.529   4.987   4.920 -0.6341 -0.7906 -0.9143
   77SLPC  C217 7019   5.546   5.091   4.737 -0.4587  0.2326  0.0250
   77SLPC  H17R 7020   5.632   5.023   4.720  2.0324  3.1838 -0.1068
   77SLPC  H17S 7021   5.597   5.180   4.780 -1.8425 -0.2668  2.9501
   77SLPC  C218 7022   5.477   5.122   4.603 -0.2715  0.1378 -0.4209
   77SLPC  H18R 7023   5.450   5.027   4.553 -1.2357 -0.4232  1.0790
   77SLPC  H18S 7024   5.540   5.181   4.534 -0.5864  1.5459  0.4437
   77SLPC  H18T 7025   5.376   5.169   4.614 -1.0696 -1.3902 -0.9171
   77SLPC   C33 7026   4.784   5.695   6.249 -0.9107  0.2759 -0.1931
   77SLPC   H3X 7027   4.730   5.773   6.191 -2.9037 -0.9237 -0.0423
   77SLPC   H3Y 7028   4.711   5.626   6.297 -1.4422  1.7830  1.2647
   77SLPC   C34 7029   4.882   5.625   6.151 -0.1181  0.3608 -0.3193
   77SLPC   H4X 7030   4.931   5.536   6.196  0.5164  0.7699 -0.1796
   77SLPC   H4Y 7031   4.955   5.701   6.115 -2.1524  1.5965 -2.0504
   77SLPC   C35 7032   4.814   5.601   6.008  0.6074  0.5878 -0.2995
   77SLPC   H5X 7033   4.765   5.699   5.989  1.3120  1.2034  0.9141
   77SLPC   H5Y 7034   4.735   5.528   6.033  0.1736  2.0889  3.4866
   77SLPC   C36 7035   4.914   5.551   5.905  0.7670  0.0462  0.0274
   77SLPC   H6X 7036   4.951   5.450   5.935  1.2047 -0.3509 -1.6952
   77SLPC   H6Y 7037   5.001   5.620   5.901  2.0589 -1.5554 -1.8540
   77SLPC   C37 7038   4.856   5.531   5.766  0.5239 -0.0007  0.1934
   77SLPC   H7X 7039   4.824   5.635   5.742  1.5374  0.8355  2.2266
   77SLPC   H7Y 7040   4.772   5.461   5.785 -0.1724  0.6906 -0.2750
   77SLPC   C38 7041   4.947   5.484   5.654  0.3565  0.4291  0.5612
   77SLPC   H8X 7042   4.976   5.378   5.666 -0.5899  0.0072 -0.6306
   77SLPC   H8Y 7043   5.041   5.543   5.656 -0.0814  1.3242 -1.6985
   77SLPC   C39 7044   4.897   5.508   5.508  0.5536  0.2288  0.0924
   77SLPC   H9X 7045   4.843   5.605   5.518 -1.2613 -0.9580  3.0490
   77SLPC   H9Y 7046   4.820   5.436   5.473  0.4690 -0.7149  2.1255
   77SLPC  C310 7047   5.015   5.509   5.406  0.2383 -0.8193 -0.3364
   77SLPC  H10X 7048   5.045   5.405   5.380  1.0413 -0.5005 -0.7353
   77SLPC  H10Y 7049   5.102   5.557   5.456  0.8251 -1.0760 -1.0955
   77SLPC  C311 7050   4.990   5.572   5.266  0.0463 -0.8361 -0.1396
   77SLPC  H11X 7051   4.943   5.673   5.269  0.3816 -0.5702 -2.3462
   77SLPC  H11Y 7052   4.925   5.494   5.222  0.1700 -1.0367  0.0340
   77SLPC  C312 7053   5.108   5.567   5.174  0.2526 -0.7024  0.0328
   77SLPC  H12X 7054   5.163   5.471   5.186  0.4449 -0.6829 -0.6726
   77SLPC  H12Y 7055   5.171   5.653   5.206  0.0512  0.0184 -1.4261
   77SLPC  C313 7056   5.078   5.602   5.021 -0.3162  0.0138 -0.7702
   77SLPC  H13X 7057   5.164   5.644   4.965  3.5393 -0.2555  4.2864
   77SLPC  H13Y 7058   4.997   5.678   5.020  2.4354  3.1757 -0.1309
   77SLPC  C314 7059   5.021   5.480   4.948 -0.4712 -0.0608  0.1982
   77SLPC  H14X 7060   4.926   5.444   4.993 -0.0505 -0.8159  0.5088
   77SLPC  H14Y 7061   5.097   5.399   4.945 -1.3118 -0.9380  1.7455
   77SLPC  C315 7062   4.989   5.504   4.799 -0.4330 -0.0729  0.7350
   77SLPC  H15X 7063   4.966   5.399   4.770  3.2370 -0.6084 -0.7876
   77SLPC  H15Y 7064   5.083   5.538   4.751 -1.3078  1.6706  0.1678
   77SLPC  C316 7065   4.870   5.606   4.785 -0.3724  1.4825  0.5257
   77SLPC  H16X 7066   4.889   5.696   4.848  2.5521  0.5521  1.1214
   77SLPC  H16Y 7067   4.780   5.558   4.830  0.3164  0.5693  0.9692
   77SLPC  C317 7068   4.828   5.639   4.643  0.6111 -0.2659  0.4879
   77SLPC  H17X 7069   4.781   5.551   4.594 -0.6191 -0.1126  1.3487
   77SLPC  H17Y 7070   4.914   5.668   4.579 -0.0347 -2.0661 -1.3101
   77SLPC  C318 7071   4.727   5.758   4.640 -0.2636  0.2043  0.2718
   77SLPC  H18X 7072   4.632   5.709   4.671 -0.9206  1.3930  0.1820
   77SLPC  H18Y 7073   4.714   5.790   4.534  0.7259 -1.9134 -0.5449
   77SLPC  H18Z 7074   4.749   5.846   4.703 -0.0232  1.7257 -1.8222
   78SLPC     N 7075   0.286   1.364   6.958  0.6627  0.4290  1.0973
   78SLPC   C13 7076   0.386   1.425   7.053 -0.0419  0.3560  0.5066
   78SLPC  H13A 7077   0.486   1.402   7.019 -0.0167  1.0443  0.1024
   78SLPC  H13B 7078   0.380   1.532   7.043 -1.1133  0.3823  1.2788
   78SLPC  H13C 7079   0.371   1.388   7.153 -2.1061 -2.1356 -0.5847
   78SLPC   C14 7080   0.145   1.399   7.009 -0.1421 -0.5782 -0.8562
   78SLPC  H14A 7081   0.068   1.363   6.943 -0.5144 -1.1788 -0.1113
   78SLPC  H14B 7082   0.126   1.358   7.107  1.0247  1.4832  0.3004
   78SLPC  H14C 7083   0.136   1.506   7.019  0.6684 -0.6755  2.0142
   78SLPC   C15 7084   0.301   1.216   6.949 -0.1016  0.1572 -0.6007
   78SLPC  H15A 7085   0.300   1.180   7.050  1.2531 -1.1574 -1.0305
   78SLPC  H15B 7086   0.227   1.164   6.890 -0.6881  0.3834 -0.0659
   78SLPC  H15C 7087   0.402   1.191   6.922  0.4636  0.1042  1.4106
   78SLPC   C12 7088   0.301   1.416   6.816  0.4943 -0.1151 -0.5667
   78SLPC  H12A 7089   0.253   1.359   6.738 -2.6718  1.4580  0.0552
   78SLPC  H12B 7090   0.406   1.404   6.795  0.8662 -0.7057  1.3515
   78SLPC   C11 7091   0.269   1.566   6.803  0.5004  0.0601  1.0314
   78SLPC  H11A 7092   0.179   1.602   6.857 -0.3236 -1.5060  0.7356
   78SLPC  H11B 7093   0.263   1.582   6.693 -0.0776  0.0948  1.0695
   78SLPC     P 7094   0.384   1.767   6.930  0.3262 -0.1184 -0.3427
   78SLPC   O13 7095   0.338   1.713   7.064 -0.1891  0.1435 -0.3754
   78SLPC   O14 7096   0.525   1.816   6.933  0.0821  0.1444 -0.4770
   78SLPC   O12 7097   0.383   1.641   6.841 -0.4209 -0.3885  0.0164
   78SLPC   O11 7098   0.271   1.874   6.873  0.1803 -0.1118  0.2240
   78SLPC    C1 7099   0.306   2.007   6.834 -0.0419 -0.2501  0.2252
   78SLPC    HA 7100   0.283   2.073   6.921 -1.0964  1.2364 -1.1252
   78SLPC    HB 7101   0.413   2.013   6.805  0.7697 -0.6801  2.8448
   78SLPC    C2 7102   0.226   2.073   6.709  0.2861  1.4684 -0.3740
   78SLPC    HS 7103   0.127   2.101   6.751 -1.1465 -3.3219  0.0170
   78SLPC   O21 7104   0.183   1.972   6.616  0.0365 -0.1224 -0.0415
   78SLPC   C21 7105   0.278   1.907   6.553  0.0774  0.6694 -0.5154
   78SLPC   O22 7106   0.398   1.925   6.548 -0.4623  0.1898 -0.0017
   78SLPC   C22 7107   0.216   1.791   6.463 -0.0189  0.6157 -0.0930
   78SLPC   H2R 7108   0.192   1.709   6.534  0.5101  0.1135 -0.4785
   78SLPC   H2S 7109   0.117   1.820   6.420  0.4119  2.5187  0.1348
   78SLPC    C3 7110   0.298   2.190   6.639 -0.0131 -0.4368 -0.2479
   78SLPC    HX 7111   0.404   2.162   6.650 -0.2674 -0.6102  2.8176
   78SLPC    HY 7112   0.286   2.275   6.710  1.5669 -0.4659  0.0888
   78SLPC   O31 7113   0.255   2.215   6.503  0.0909 -1.0775  0.2143
   78SLPC   C31 7114   0.141   2.282   6.482 -0.5615  0.3360  0.0999
   78SLPC   O32 7115   0.072   2.331   6.566  0.3071 -0.0254 -0.8055
   78SLPC   C32 7116   0.096   2.278   6.340  0.2255  0.0858  0.1473
   78SLPC   H2X 7117   0.137   2.365   6.283 -1.5461 -0.0699 -1.4625
   78SLPC   H2Y 7118  -0.014   2.286   6.330  0.2651 -1.4975 -2.8385
   78SLPC   C23 7119   0.314   1.735   6.362  0.2820 -0.2341 -0.2950
   78SLPC   H3R 7120   0.317   1.624   6.367  1.2259 -0.2261 -0.4133
   78SLPC   H3S 7121   0.418   1.763   6.391  0.5409 -1.7866  0.3979
   78SLPC   C24 7122   0.286   1.777   6.217 -0.0979  0.8361  0.1414
   78SLPC   H4R 7123   0.371   1.735   6.159  1.0506  0.1821  2.2220
   78SLPC   H4S 7124   0.299   1.887   6.211 -1.8232  1.0646  0.0753
   78SLPC   C25 7125   0.148   1.735   6.161 -0.4848  0.4473  0.0907
   78SLPC   H5R 7126   0.058   1.784   6.203 -0.1649 -0.5094  1.9922
   78SLPC   H5S 7127   0.145   1.630   6.196  0.3821 -0.0888 -1.3112
   78SLPC   C26 7128   0.154   1.738   6.011 -0.3410  0.1115  0.0998
   78SLPC   H6R 7129   0.223   1.665   5.964 -0.2851  0.8528 -0.9978
   78SLPC   H6S 7130   0.176   1.838   5.967 -1.2030 -1.1951 -3.6293
   78SLPC   C27 7131   0.012   1.700   5.953 -0.2172  0.7799 -0.0858
   78SLPC   H7R 7132  -0.060   1.777   5.989  1.6862  1.9237  1.4746
   78SLPC   H7S 7133  -0.007   1.596   5.987 -0.4125  1.0269  0.5753
   78SLPC   C28 7134   0.019   1.691   5.801 -0.1273 -0.0169 -0.2505
   78SLPC   H8R 7135  -0.072   1.638   5.765 -0.7474 -0.3474  1.7066
   78SLPC   H8S 7136   0.106   1.632   5.764 -0.0682  1.0506 -1.8901
   78SLPC   C29 7137   0.028   1.826   5.738 -0.2091  0.1383  0.2798
   78SLPC   H9R 7138  -0.052   1.898   5.760 -0.6511  0.5648 -2.4256
   78SLPC  C210 7139   0.123   1.861   5.654 -0.1599  0.0125 -0.0426
   78SLPC  H10R 7140   0.113   1.966   5.623 -1.4499  0.2959  1.2592
   78SLPC  C211 7141   0.250   1.790   5.613 -0.2640  0.8152  0.0333
   78SLPC  H11R 7142   0.301   1.729   5.690  1.5869 -0.1773 -1.8940
   78SLPC  H11S 7143   0.313   1.879   5.593 -1.3115  1.8910  1.2673
   78SLPC  C212 7144   0.229   1.702   5.488 -0.7212 -0.7369  0.5582
   78SLPC  H12R 7145   0.149   1.627   5.491 -0.6530 -0.7952  1.1643
   78SLPC  C213 7146   0.315   1.707   5.387  0.2375  0.1584 -0.4367
   78SLPC  H13R 7147   0.300   1.645   5.297  2.9159 -0.5980 -0.4445
   78SLPC  C214 7148   0.433   1.794   5.371 -0.3452 -0.2603  0.9190
   78SLPC  H14R 7149   0.514   1.721   5.353 -1.9295 -2.2229  1.3592
   78SLPC  H14S 7150   0.457   1.865   5.453  1.9980 -0.5697  0.5570
   78SLPC  C215 7151   0.405   1.865   5.239  0.9649  0.6368 -0.2641
   78SLPC  H15R 7152   0.409   1.792   5.156  1.2222 -0.9937  1.1288
   78SLPC  H15S 7153   0.498   1.925   5.236  0.6499  1.1310 -0.3329
   78SLPC  C216 7154   0.301   1.983   5.246  0.2426  0.5341 -0.5940
   78SLPC  H16R 7155   0.364   2.075   5.237 -1.0960  1.3921 -1.7636
   78SLPC  H16S 7156   0.257   1.975   5.347 -0.1079  2.7869 -0.5192
   78SLPC  C217 7157   0.189   1.984   5.138 -0.6028  0.0000 -0.0948
   78SLPC  H17R 7158   0.102   2.036   5.182 -0.6425  0.0100 -0.1841
   78SLPC  H17S 7159   0.159   1.879   5.117 -0.6307 -0.3702  1.6524
   78SLPC  C218 7160   0.235   2.045   5.010 -0.1223  0.3125 -0.3555
   78SLPC  H18R 7161   0.266   2.147   5.041  0.1630  0.3305 -0.6872
   78SLPC  H18S 7162   0.143   2.054   4.948 -0.0815  1.9472 -0.2297
   78SLPC  H18T 7163   0.317   1.997   4.953 -1.8267 -2.0687 -0.9616
   78SLPC   C33 7164   0.136   2.150   6.266  0.3026  0.3019 -0.3078
   78SLPC   H3X 7165   0.127   2.063   6.334  1.3973  1.2715  1.1450
   78SLPC   H3Y 7166   0.241   2.144   6.230  0.7657 -0.6647  1.0947
   78SLPC   C34 7167   0.035   2.120   6.155 -0.9975  0.3971  0.3081
   78SLPC   H4X 7168  -0.070   2.141   6.186 -0.6440 -0.6299  2.3231
   78SLPC   H4Y 7169   0.044   2.010   6.144  0.6724  0.2893  2.3741
   78SLPC   C35 7170   0.066   2.191   6.026  0.3334  0.2211 -0.2138
   78SLPC   H5X 7171   0.171   2.169   5.995  0.1870 -3.5834  1.3910
   78SLPC   H5Y 7172   0.052   2.298   6.052 -2.4313 -0.2636  0.6512
   78SLPC   C36 7173  -0.033   2.151   5.909  0.3641 -0.2203  0.2244
   78SLPC   H6X 7174  -0.137   2.180   5.936 -0.2675 -1.7217 -0.4675
   78SLPC   H6Y 7175  -0.023   2.041   5.904  1.4387 -0.0985 -0.6610
   78SLPC   C37 7176   0.004   2.226   5.779  0.3978 -0.6328 -0.2671
   78SLPC   H7X 7177   0.098   2.182   5.738 -0.6894 -2.1342 -1.2870
   78SLPC   H7Y 7178   0.029   2.327   5.817  0.5331 -1.0421  0.7657
   78SLPC   C38 7179  -0.110   2.244   5.674  0.2846 -0.5075 -0.1760
   78SLPC   H8X 7180  -0.109   2.350   5.639 -2.9094  0.1659  1.3607
   78SLPC   H8Y 7181  -0.210   2.237   5.722  0.5556 -1.3138  0.2867
   78SLPC   C39 7182  -0.094   2.164   5.545  0.0735 -0.2573  0.7422
   78SLPC   H9X 7183  -0.113   2.056   5.561  0.6663 -0.2340  1.6614
   78SLPC   H9Y 7184   0.009   2.164   5.502  0.5258  0.2302  1.8019
   78SLPC  C310 7185  -0.194   2.210   5.431 -0.0891 -0.3849  0.2213
   78SLPC  H10X 7186  -0.176   2.317   5.407 -0.9307 -0.5257 -1.0730
   78SLPC  H10Y 7187  -0.297   2.213   5.473  0.7464 -0.3979  2.4234
   78SLPC  C311 7188  -0.194   2.113   5.313 -0.1318  0.0356  0.3515
   78SLPC  H11X 7189  -0.233   2.018   5.354 -1.3225  0.1069 -0.5531
   78SLPC  H11Y 7190  -0.103   2.081   5.259 -0.5373 -0.5606  0.0079
   78SLPC  C312 7191  -0.295   2.164   5.206 -0.7372 -0.1794 -0.2961
   78SLPC  H12X 7192  -0.258   2.245   5.140  0.2294 -1.5044 -1.4304
   78SLPC  H12Y 7193  -0.394   2.195   5.246  0.1059  0.7576  1.2038
   78SLPC  C313 7194  -0.323   2.045   5.104 -0.4295  0.2999 -0.4000
   78SLPC  H13X 7195  -0.417   2.055   5.045 -1.5099 -0.3607  1.1374
   78SLPC  H13Y 7196  -0.347   1.958   5.170 -0.6728  0.0495 -0.8086
   78SLPC  C314 7197  -0.200   2.020   5.017  0.1006  0.0416 -0.0219
   78SLPC  H14X 7198  -0.112   1.989   5.078  0.2293  0.9658  0.2781
   78SLPC  H14Y 7199  -0.176   2.114   4.964  3.5523 -1.5138 -1.5244
   78SLPC  C315 7200  -0.224   1.922   4.906  0.3910  0.7753  0.5538
   78SLPC  H15X 7201  -0.306   1.951   4.837  0.6884 -0.8279 -0.5505
   78SLPC  H15Y 7202  -0.256   1.824   4.948 -0.6769  1.3011  1.0102
   78SLPC  C316 7203  -0.104   1.888   4.813 -0.1341  0.7416 -0.0629
   78SLPC  H16X 7204  -0.130   1.794   4.758  0.9090  1.9765 -2.8531
   78SLPC  H16Y 7205  -0.016   1.854   4.871 -1.8497 -1.1501  1.5796
   78SLPC  C317 7206  -0.062   2.008   4.730  0.2421 -0.0683  0.4450
   78SLPC  H17X 7207  -0.042   2.089   4.803 -2.0970  2.1158 -1.1604
   78SLPC  H17Y 7208  -0.152   2.032   4.670  0.6796  0.3864 -0.0437
   78SLPC  C318 7209   0.068   1.988   4.647 -0.3992 -0.4274  0.0879
   78SLPC  H18X 7210   0.078   1.889   4.597  1.6815 -0.0564 -0.3605
   78SLPC  H18Y 7211   0.155   1.993   4.717  1.3847  1.9675 -2.0769
   78SLPC  H18Z 7212   0.076   2.064   4.566  1.3507  1.0848  1.5895
   79SLPC     N 7213   0.022   5.078   7.092  0.7779 -0.2200 -0.1704
   79SLPC   C13 7214   0.108   4.984   7.165 -0.9491 -0.1134 -0.6932
   79SLPC  H13A 7215   0.204   5.026   7.191 -0.4669 -0.5408 -1.7362
   79SLPC  H13B 7216   0.053   4.946   7.250  0.4842 -1.1826 -0.2097
   79SLPC  H13C 7217   0.121   4.894   7.108  0.6814 -0.7156  0.5623
   79SLPC   C14 7218   0.074   5.115   6.957 -0.3891  0.2906  0.3020
   79SLPC  H14A 7219   0.013   5.184   6.900  1.7274  1.3439 -0.7968
   79SLPC  H14B 7220   0.178   5.141   6.967  0.0882 -1.3129 -0.0632
   79SLPC  H14C 7221   0.083   5.021   6.904 -1.1436 -0.8398  2.0913
   79SLPC   C15 7222   0.016   5.197   7.179  0.5089 -0.4119  0.2695
   79SLPC  H15A 7223  -0.052   5.184   7.262 -1.0060 -3.3240 -1.2616
   79SLPC  H15B 7224   0.105   5.213   7.238  0.6602 -0.2362 -0.0003
   79SLPC  H15C 7225  -0.018   5.285   7.126 -2.1202 -1.8311 -0.6145
   79SLPC   C12 7226  -0.119   5.011   7.081 -0.3454  0.7265 -0.4407
   79SLPC  H12A 7227  -0.115   4.941   7.000 -0.0004  0.0160  0.1770
   79SLPC  H12B 7228  -0.182   5.093   7.050  0.4451  0.4137 -3.0550
   79SLPC   C11 7229  -0.182   4.950   7.211  0.6892  0.0941 -0.6460
   79SLPC  H11A 7230  -0.291   4.936   7.195  0.5240 -0.1155  0.5800
   79SLPC  H11B 7231  -0.180   5.033   7.284 -0.5670  3.1102 -3.7684
   79SLPC     P 7232  -0.150   4.692   7.187 -0.1628  0.0611 -0.4052
   79SLPC   O13 7233  -0.060   4.583   7.232 -0.8318 -0.0372  0.9579
   79SLPC   O14 7234  -0.298   4.674   7.210 -0.1400  0.6041  0.2208
   79SLPC   O12 7235  -0.111   4.828   7.253  0.2563 -0.0867  0.0475
   79SLPC   O11 7236  -0.127   4.716   7.032 -0.0244  0.1280 -0.5674
   79SLPC    C1 7237  -0.232   4.686   6.935  0.4184 -0.7573  0.0190
   79SLPC    HA 7238  -0.332   4.720   6.970  0.7509 -0.5067  0.7233
   79SLPC    HB 7239  -0.213   4.746   6.843 -1.1831 -0.3844 -0.1064
   79SLPC    C2 7240  -0.229   4.539   6.890  0.5608  0.1380  0.2407
   79SLPC    HS 7241  -0.235   4.462   6.970  1.7072  0.6423  0.8476
   79SLPC   O21 7242  -0.098   4.518   6.833  0.4397  0.1004  0.0236
   79SLPC   C21 7243  -0.064   4.400   6.791 -0.7824  0.5804  0.3455
   79SLPC   O22 7244  -0.128   4.299   6.807  0.7934  0.2914  0.0567
   79SLPC   C22 7245   0.071   4.412   6.721  0.0335 -1.0898  0.2083
   79SLPC   H2R 7246   0.121   4.511   6.726 -0.1287 -1.0560  1.4795
   79SLPC   H2S 7247   0.140   4.339   6.767  0.5805 -0.5613  0.2339
   79SLPC    C3 7248  -0.346   4.502   6.793  0.1482  0.3536  0.1004
   79SLPC    HX 7249  -0.434   4.539   6.849  0.6609 -0.0867  1.2495
   79SLPC    HY 7250  -0.351   4.391   6.786 -0.0082  0.3179  0.7120
   79SLPC   O31 7251  -0.342   4.557   6.655  0.3891  0.2402  0.3710
   79SLPC   C31 7252  -0.401   4.672   6.646  0.2920  0.2918  0.8882
   79SLPC   O32 7253  -0.491   4.713   6.719 -0.5776  0.1430 -0.5081
   79SLPC   C32 7254  -0.348   4.751   6.523 -0.0342  0.0473 -0.1365
   79SLPC   H2X 7255  -0.266   4.817   6.559 -0.1827 -0.4769  1.2570
   79SLPC   H2Y 7256  -0.431   4.815   6.485 -0.9556 -1.3944 -0.6519
   79SLPC   C23 7257   0.050   4.394   6.572 -1.1467 -0.9545 -0.2246
   79SLPC   H3R 7258  -0.041   4.449   6.541 -0.0713  1.0843  0.0872
   79SLPC   H3S 7259   0.039   4.287   6.542 -0.8563 -0.4668 -2.1577
   79SLPC   C24 7260   0.167   4.463   6.489  0.0255 -0.2886  1.0949
   79SLPC   H4R 7261   0.234   4.380   6.457  0.6443  1.1070 -1.4764
   79SLPC   H4S 7262   0.230   4.534   6.548  0.4303 -0.5066  0.9279
   79SLPC   C25 7263   0.117   4.527   6.358  0.1099  0.4330 -0.1373
   79SLPC   H5R 7264   0.054   4.613   6.392 -2.0106 -0.7408 -0.9103
   79SLPC   H5S 7265   0.049   4.455   6.308 -1.9878 -0.0176  3.0673
   79SLPC   C26 7266   0.235   4.565   6.263 -0.1886 -0.0863  0.0867
   79SLPC   H6R 7267   0.308   4.483   6.245  1.6839  1.1494  1.7241
   79SLPC   H6S 7268   0.287   4.650   6.312  0.7766  1.3772 -3.1666
   79SLPC   C27 7269   0.192   4.606   6.122 -0.6783 -0.0486 -0.3119
   79SLPC   H7R 7270   0.267   4.683   6.093 -1.1666  0.7487  0.4853
   79SLPC   H7S 7271   0.095   4.660   6.122 -0.1832  1.0880  2.9493
   79SLPC   C28 7272   0.195   4.484   6.025  0.1275  0.4255 -0.1100
   79SLPC   H8R 7273   0.118   4.417   6.069  0.6594 -0.1134  0.0089
   79SLPC   H8S 7274   0.294   4.433   6.021 -0.3139 -0.3764 -1.9376
   79SLPC   C29 7275   0.142   4.537   5.892  0.1760 -0.1701 -0.1385
   79SLPC   H9R 7276   0.070   4.619   5.905 -1.4549 -1.4873 -0.6163
   79SLPC  C210 7277   0.170   4.491   5.772 -0.7874 -0.6690  0.0167
   79SLPC  H10R 7278   0.123   4.536   5.684 -0.3574 -2.5333 -1.2433
   79SLPC  C211 7279   0.258   4.371   5.735  0.0570  0.1166  0.3577
   79SLPC  H11R 7280   0.182   4.299   5.695  0.9840 -0.1891 -0.9336
   79SLPC  H11S 7281   0.298   4.322   5.826  1.0455  1.0177  0.4142
   79SLPC  C212 7282   0.362   4.432   5.642 -0.1671  0.2780 -0.7518
   79SLPC  H12R 7283   0.443   4.491   5.687  0.6566 -1.8496  0.7186
   79SLPC  C213 7284   0.380   4.412   5.513  0.3566 -0.4228 -1.3330
   79SLPC  H13R 7285   0.466   4.457   5.461  0.5379  0.3493 -0.3754
   79SLPC  C214 7286   0.290   4.332   5.419 -0.2836 -0.2846 -0.3884
   79SLPC  H14R 7287   0.191   4.302   5.459  0.2955 -0.6354  0.8295
   79SLPC  H14S 7288   0.345   4.238   5.397  1.0126  0.0452  1.1985
   79SLPC  C215 7289   0.266   4.410   5.282  0.1596 -0.4689 -0.4451
   79SLPC  H15R 7290   0.363   4.441   5.239 -0.3470 -0.8132 -1.9163
   79SLPC  H15S 7291   0.207   4.502   5.304  1.5826  0.0513  1.4448
   79SLPC  C216 7292   0.201   4.318   5.178  0.3460 -0.8921 -0.1104
   79SLPC  H16R 7293   0.120   4.250   5.215  2.1805 -2.7549  0.6851
   79SLPC  H16S 7294   0.282   4.252   5.142  1.3756  0.6353 -0.6580
   79SLPC  C217 7295   0.144   4.390   5.056 -0.1739 -0.6720  0.1284
   79SLPC  H17R 7296   0.069   4.465   5.091  0.3437  0.1606 -0.5242
   79SLPC  H17S 7297   0.105   4.306   4.994  1.8071 -0.8805 -0.9143
   79SLPC  C218 7298   0.248   4.469   4.983 -0.3070  0.0481  0.4320
   79SLPC  H18R 7299   0.273   4.566   5.031  1.5609  0.4520 -1.2087
   79SLPC  H18S 7300   0.205   4.495   4.884  0.7085  2.6592  0.5850
   79SLPC  H18T 7301   0.342   4.409   4.981 -0.9102 -0.9099 -0.4862
   79SLPC   C33 7302  -0.293   4.663   6.412 -0.1998  0.7448  0.5348
   79SLPC   H3X 7303  -0.370   4.587   6.382 -0.1422 -0.6475  3.5323
   79SLPC   H3Y 7304  -0.199   4.612   6.442  1.5124  2.9011 -0.9113
   79SLPC   C34 7305  -0.254   4.748   6.287  0.1114 -0.2281 -0.0380
   79SLPC   H4X 7306  -0.176   4.826   6.301  0.5740 -0.9423  1.6010
   79SLPC   H4Y 7307  -0.348   4.803   6.264 -0.8362 -1.1129  1.5652
   79SLPC   C35 7308  -0.199   4.661   6.173  0.4738 -0.0771  0.0006
   79SLPC   H5X 7309  -0.279   4.588   6.151  0.3844  0.0663 -0.1505
   79SLPC   H5Y 7310  -0.114   4.603   6.216  0.1031  0.5431  1.6270
   79SLPC   C36 7311  -0.170   4.739   6.047 -0.0635  0.4191  0.6003
   79SLPC   H6X 7312  -0.063   4.770   6.049  0.5702 -1.6133  2.1003
   79SLPC   H6Y 7313  -0.235   4.828   6.053  1.5133  1.5583  1.2530
   79SLPC   C37 7314  -0.201   4.650   5.926 -0.7008  0.2549  0.8699
   79SLPC   H7X 7315  -0.307   4.619   5.914 -0.4768  0.0522 -0.7820
   79SLPC   H7Y 7316  -0.140   4.561   5.952 -1.0108 -0.2243 -0.0005
   79SLPC   C38 7317  -0.152   4.705   5.789  0.2604  0.1697 -0.2475
   79SLPC   H8X 7318  -0.046   4.738   5.788  0.6049 -0.8908 -1.0071
   79SLPC   H8Y 7319  -0.224   4.781   5.754  1.2269  1.3545  0.2558
   79SLPC   C39 7320  -0.165   4.595   5.680 -0.6927 -1.0716  0.7532
   79SLPC   H9X 7321  -0.273   4.569   5.674 -1.6400  2.5624 -0.2959
   79SLPC   H9Y 7322  -0.101   4.507   5.704 -0.5293 -1.1257  0.1149
   79SLPC  C310 7323  -0.112   4.658   5.545  0.9735  0.0883  0.3105
   79SLPC  H10X 7324  -0.004   4.677   5.564  1.4272 -1.8309 -0.1227
   79SLPC  H10Y 7325  -0.180   4.746   5.533  1.8319  1.1906  2.7462
   79SLPC  C311 7326  -0.135   4.561   5.425 -0.7417  0.3593 -0.1576
   79SLPC  H11X 7327  -0.065   4.477   5.444 -1.5307 -0.6966 -1.7131
   79SLPC  H11Y 7328  -0.117   4.615   5.330  0.1565  0.8122  0.2649
   79SLPC  C312 7329  -0.277   4.518   5.415  1.1450 -0.3368 -0.1594
   79SLPC  H12X 7330  -0.346   4.605   5.416 -0.5878 -1.6350 -0.6202
   79SLPC  H12Y 7331  -0.317   4.443   5.487 -1.7954  2.0425  0.9077
   79SLPC  C313 7332  -0.321   4.458   5.277 -0.1636  0.2002 -0.3962
   79SLPC  H13X 7333  -0.410   4.391   5.288  0.5545 -0.6568  0.3789
   79SLPC  H13Y 7334  -0.237   4.400   5.234  0.0316  0.0986  0.1175
   79SLPC  C314 7335  -0.367   4.556   5.170 -0.0299  0.9656 -0.0298
   79SLPC  H14X 7336  -0.292   4.634   5.146  2.7739 -1.7673 -0.9020
   79SLPC  H14Y 7337  -0.457   4.604   5.214  0.1429 -0.0196  1.4753
   79SLPC  C315 7338  -0.385   4.478   5.036 -0.0581 -0.2959  0.2635
   79SLPC  H15X 7339  -0.447   4.545   4.972  0.2549  0.6767  0.9500
   79SLPC  H15Y 7340  -0.451   4.391   5.054 -2.9963  0.9437 -3.2824
   79SLPC  C316 7341  -0.251   4.458   4.960  0.4325  0.6092 -0.8321
   79SLPC  H16X 7342  -0.194   4.384   5.020  0.4100 -0.6452 -2.3084
   79SLPC  H16Y 7343  -0.195   4.554   4.953  2.1183 -0.0877  1.5922
   79SLPC  C317 7344  -0.267   4.400   4.822  0.6745  0.4393 -0.1516
   79SLPC  H17X 7345  -0.324   4.472   4.759 -1.5849 -1.8075 -0.8716
   79SLPC  H17Y 7346  -0.324   4.305   4.830  1.8853 -0.2097  1.2264
   79SLPC  C318 7347  -0.146   4.366   4.748  0.3585  0.0669 -0.3158
   79SLPC  H18X 7348  -0.092   4.277   4.787  1.2293  0.0830 -1.4310
   79SLPC  H18Y 7349  -0.086   4.459   4.755  0.1830  0.0904  1.0582
   79SLPC  H18Z 7350  -0.176   4.333   4.646 -0.0716  1.5794 -0.7018
   80SLPC     N 7351   4.246   2.997   7.432 -0.2538  0.0238 -0.3256
   80SLPC   C13 7352   4.269   2.988   7.585 -0.2701 -0.4619  0.5000
   80SLPC  H13A 7353   4.366   3.023   7.617 -1.2051  1.7603  1.1286
   80SLPC  H13B 7354   4.191   3.044   7.635 -1.7346  0.4636 -2.5693
   80SLPC  H13C 7355   4.271   2.886   7.619 -0.4222 -1.7041 -2.8512
   80SLPC   C14 7356   4.277   3.137   7.385  0.2882 -0.4436  0.2688
   80SLPC  H14A 7357   4.372   3.172   7.424  0.0626  1.5660 -0.8776
   80SLPC  H14B 7358   4.271   3.153   7.278 -1.0176  0.1435  0.4131
   80SLPC  H14C 7359   4.212   3.210   7.430 -0.1083 -0.5131 -0.1848
   80SLPC   C15 7360   4.106   2.967   7.404  0.4860  0.2248 -0.4854
   80SLPC  H15A 7361   4.066   2.883   7.458  0.4789  1.0278  0.7935
   80SLPC  H15B 7362   4.047   3.047   7.446 -0.2356 -0.3304 -0.4146
   80SLPC  H15C 7363   4.087   2.939   7.301  1.3082 -0.1721 -0.5357
   80SLPC   C12 7364   4.337   2.900   7.365 -0.0420 -0.0475 -0.1534
   80SLPC  H12A 7365   4.328   2.803   7.411 -1.6659  0.9095  1.7093
   80SLPC  H12B 7366   4.441   2.924   7.380 -0.1915 -0.1120  1.0675
   80SLPC   C11 7367   4.322   2.884   7.206  0.2378 -0.1035 -0.1769
   80SLPC  H11A 7368   4.216   2.868   7.175 -0.6604  1.8059  1.6826
   80SLPC  H11B 7369   4.386   2.800   7.172  0.1721 -0.6514  1.0113
   80SLPC     P 7370   4.315   3.038   6.998 -0.1437  0.2268  0.2252
   80SLPC   O13 7371   4.185   3.100   7.019  0.2558  0.3597  0.0297
   80SLPC   O14 7372   4.421   3.118   6.929  0.0638  0.1140 -0.1355
   80SLPC   O12 7373   4.376   2.998   7.142 -0.0308 -1.0525 -0.2978
   80SLPC   O11 7374   4.297   2.898   6.933  0.1496  0.3505  0.2933
   80SLPC    C1 7375   4.419   2.832   6.902 -0.1154  0.5877 -0.8159
   80SLPC    HA 7376   4.471   2.881   6.817  2.8904 -0.9581 -0.0054
   80SLPC    HB 7377   4.488   2.818   6.988 -1.4642  1.4208  0.4357
   80SLPC    C2 7378   4.395   2.687   6.848 -1.0451 -0.3494  0.0175
   80SLPC    HS 7379   4.372   2.625   6.937 -0.1629 -1.1905 -0.3234
   80SLPC   O21 7380   4.517   2.637   6.778  0.5129 -0.1721 -0.3658
   80SLPC   C21 7381   4.548   2.517   6.812  0.8313 -0.4698  0.0907
   80SLPC   O22 7382   4.476   2.440   6.882 -0.8856  0.1833 -0.5808
   80SLPC   C22 7383   4.694   2.486   6.771  0.2634  0.6150  0.4644
   80SLPC   H2R 7384   4.746   2.577   6.734 -0.4989  0.4678 -1.0377
   80SLPC   H2S 7385   4.734   2.453   6.869 -0.4110  0.9576  0.8643
   80SLPC    C3 7386   4.283   2.691   6.745 -0.6549 -0.5990  0.1977
   80SLPC    HX 7387   4.304   2.774   6.674 -0.1681 -1.9574 -1.3169
   80SLPC    HY 7388   4.187   2.721   6.792 -0.6542 -0.9531  0.4303
   80SLPC   O31 7389   4.263   2.574   6.663 -0.2922  0.3107  0.4973
   80SLPC   C31 7390   4.202   2.478   6.711  0.4635 -0.0294  0.0068
   80SLPC   O32 7391   4.167   2.459   6.830 -0.0930  0.1704 -0.2152
   80SLPC   C32 7392   4.180   2.371   6.602 -0.5897 -0.0364 -0.2578
   80SLPC   H2X 7393   4.072   2.347   6.609 -0.2634 -2.3376 -2.0416
   80SLPC   H2Y 7394   4.232   2.277   6.632 -0.3038 -0.5761 -2.2762
   80SLPC   C23 7395   4.711   2.367   6.670 -0.2818  1.2735 -0.4859
   80SLPC   H3R 7396   4.663   2.268   6.685 -0.9184  1.6113 -0.2590
   80SLPC   H3S 7397   4.820   2.344   6.663 -0.4426  0.3828 -0.2697
   80SLPC   C24 7398   4.650   2.406   6.532 -0.1051  0.1146  0.0023
   80SLPC   H4R 7399   4.730   2.463   6.480 -1.6672  3.1352  0.6648
   80SLPC   H4S 7400   4.561   2.471   6.545  0.5908  1.5247 -1.8325
   80SLPC   C25 7401   4.614   2.283   6.441 -0.2093  0.4319 -1.3531
   80SLPC   H5R 7402   4.521   2.227   6.466  0.8118 -1.3345 -1.4258
   80SLPC   H5S 7403   4.697   2.212   6.453 -1.4664 -0.9888 -0.8003
   80SLPC   C26 7404   4.587   2.319   6.300  0.3551 -0.4503  0.5772
   80SLPC   H6R 7405   4.655   2.398   6.263 -0.1080 -0.2763  0.0807
   80SLPC   H6S 7406   4.489   2.371   6.302 -0.6619 -2.2949  3.2219
   80SLPC   C27 7407   4.582   2.203   6.206 -0.5312 -0.6731  0.5038
   80SLPC   H7R 7408   4.503   2.133   6.241 -0.3006 -0.8347  0.7076
   80SLPC   H7S 7409   4.672   2.138   6.213 -0.5069 -0.5230  1.7987
   80SLPC   C28 7410   4.558   2.239   6.059 -0.0572 -0.1353 -0.5602
   80SLPC   H8R 7411   4.653   2.278   6.017  0.1932 -0.5064 -0.3328
   80SLPC   H8S 7412   4.484   2.322   6.058  0.5473  0.4130 -0.8420
   80SLPC   C29 7413   4.521   2.111   5.981 -0.4702 -0.1774 -0.8999
   80SLPC   H9R 7414   4.569   2.017   6.012  2.1682  0.4820 -2.6597
   80SLPC  C210 7415   4.435   2.105   5.879  0.1700  0.0416 -0.3059
   80SLPC  H10R 7416   4.440   2.012   5.821  0.3667 -0.9305  1.1871
   80SLPC  C211 7417   4.365   2.224   5.816  0.0908  0.1776 -0.5633
   80SLPC  H11R 7418   4.416   2.257   5.723  3.9181  1.5540  1.8047
   80SLPC  H11S 7419   4.368   2.316   5.878 -0.1175 -0.9707  1.2140
   80SLPC  C212 7420   4.222   2.193   5.788 -0.0016  0.1705 -0.6455
   80SLPC  H12R 7421   4.156   2.190   5.876 -0.3626  1.1101 -0.8698
   80SLPC  C213 7422   4.168   2.180   5.669 -0.2801  0.7210 -0.1139
   80SLPC  H13R 7423   4.060   2.161   5.657  0.3119 -2.1192 -2.2471
   80SLPC  C214 7424   4.242   2.183   5.537  0.1540 -0.3198  0.8132
   80SLPC  H14R 7425   4.191   2.109   5.471 -1.7317 -1.1526  3.0483
   80SLPC  H14S 7426   4.347   2.150   5.553  0.3126 -0.4658 -0.4628
   80SLPC  C215 7427   4.222   2.316   5.469 -0.4400  0.5568 -0.2141
   80SLPC  H15R 7428   4.285   2.392   5.520 -0.3663  1.4294 -1.5467
   80SLPC  H15S 7429   4.117   2.352   5.461 -1.5434 -1.9897  1.4605
   80SLPC  C216 7430   4.284   2.315   5.323 -0.4701  0.6357  0.3409
   80SLPC  H16R 7431   4.224   2.269   5.241 -2.0689 -0.2398  1.9425
   80SLPC  H16S 7432   4.378   2.256   5.326 -0.9066 -0.0758  0.1775
   80SLPC  C217 7433   4.318   2.460   5.270 -0.9026 -0.3994  0.4041
   80SLPC  H17R 7434   4.406   2.440   5.205 -0.4084 -0.2386  1.0146
   80SLPC  H17S 7435   4.359   2.514   5.358  0.6925 -4.3759  2.3579
   80SLPC  C218 7436   4.211   2.531   5.190 -0.3982  0.2402 -0.2299
   80SLPC  H18R 7437   4.125   2.547   5.260  0.7911 -0.2038  1.3964
   80SLPC  H18S 7438   4.174   2.479   5.100 -0.9831 -0.6115  0.4825
   80SLPC  H18T 7439   4.230   2.634   5.154 -4.1793  0.3651 -2.3918
   80SLPC   C33 7440   4.215   2.406   6.452  0.7341 -0.6065 -0.9720
   80SLPC   H3X 7441   4.319   2.444   6.445  0.6951 -0.4055 -0.4919
   80SLPC   H3Y 7442   4.142   2.486   6.428  0.2763  0.2609  2.6700
   80SLPC   C34 7443   4.192   2.290   6.353  0.1344 -0.8232  0.1620
   80SLPC   H4X 7444   4.091   2.246   6.365  0.8544 -2.5320  0.1100
   80SLPC   H4Y 7445   4.260   2.206   6.378 -0.8843 -1.5516  0.5606
   80SLPC   C35 7446   4.204   2.337   6.205 -0.1109  0.6763  0.0073
   80SLPC   H5X 7447   4.213   2.247   6.141  0.0476  0.8717 -0.2488
   80SLPC   H5Y 7448   4.291   2.406   6.203  0.9045 -0.5205  1.1031
   80SLPC   C36 7449   4.085   2.421   6.162  0.0796 -0.1167  0.3504
   80SLPC   H6X 7450   4.094   2.512   6.226 -0.8616  0.1637  0.0995
   80SLPC   H6Y 7451   3.984   2.379   6.182  0.1113 -0.2572  0.2155
   80SLPC   C37 7452   4.101   2.458   6.014 -0.4780  0.1056  0.0610
   80SLPC   H7X 7453   4.080   2.374   5.945 -0.0466 -0.0187  0.0756
   80SLPC   H7Y 7454   4.211   2.471   6.012 -0.3109 -1.2300 -0.6242
   80SLPC   C38 7455   4.018   2.573   5.969 -0.0385 -0.4839  0.4936
   80SLPC   H8X 7456   4.060   2.665   6.016 -1.7437  0.8015 -0.3501
   80SLPC   H8Y 7457   3.916   2.554   6.008  1.0073 -1.5347  2.9357
   80SLPC   C39 7458   4.016   2.599   5.819 -0.1362 -0.0258 -0.1814
   80SLPC   H9X 7459   4.118   2.626   5.785  0.4021  0.3749  1.6211
   80SLPC   H9Y 7460   3.950   2.687   5.804 -0.1261  0.0017 -0.0642
   80SLPC  C310 7461   3.957   2.491   5.728 -0.2474  0.1778  0.4726
   80SLPC  H10X 7462   3.861   2.452   5.766 -0.6101  0.2962 -0.2953
   80SLPC  H10Y 7463   4.033   2.410   5.715 -0.7495 -0.0991 -1.0167
   80SLPC  C311 7464   3.932   2.547   5.581  0.4164 -0.1298 -0.1631
   80SLPC  H11X 7465   3.943   2.456   5.519  0.4212 -0.9005  0.9422
   80SLPC  H11Y 7466   4.005   2.626   5.554 -1.0361  1.7339  1.0491
   80SLPC  C312 7467   3.794   2.612   5.569  0.0904  0.5106  0.5821
   80SLPC  H12X 7468   3.778   2.701   5.634 -0.7185  0.3944  0.5546
   80SLPC  H12Y 7469   3.725   2.531   5.603  0.7382 -0.1882  0.2638
   80SLPC  C313 7470   3.776   2.626   5.422 -0.2455  0.0103  0.4803
   80SLPC  H13X 7471   3.668   2.640   5.398 -0.6549  0.4904  2.4025
   80SLPC  H13Y 7472   3.812   2.532   5.375 -1.2897  0.0167 -0.3785
   80SLPC  C314 7473   3.855   2.740   5.354 -0.2176  0.1663  0.8419
   80SLPC  H14X 7474   3.961   2.718   5.376  0.1983  0.3233 -0.9027
   80SLPC  H14Y 7475   3.835   2.841   5.395 -0.0153  0.9253 -0.8671
   80SLPC  C315 7476   3.828   2.749   5.208  0.8339  0.6631  0.8141
   80SLPC  H15X 7477   3.724   2.786   5.192  0.7769 -0.2263 -1.1941
   80SLPC  H15Y 7478   3.838   2.654   5.151  0.7616  1.3266 -0.3256
   80SLPC  C316 7479   3.922   2.853   5.141  0.7545 -0.0380 -0.4648
   80SLPC  H16X 7480   4.027   2.830   5.169  0.7125 -0.5863 -0.7399
   80SLPC  H16Y 7481   3.905   2.952   5.187 -0.0442 -0.7919  0.9523
   80SLPC  C317 7482   3.908   2.858   4.989 -0.8788  0.3209  0.1979
   80SLPC  H17X 7483   3.961   2.768   4.953 -2.6581 -1.5608  2.0214
   80SLPC  H17Y 7484   3.968   2.948   4.961 -0.2795  0.2302  1.1466
   80SLPC  C318 7485   3.764   2.869   4.937  0.6135  0.0271  0.5568
   80SLPC  H18X 7486   3.764   2.871   4.826  1.4027  2.0672  0.5557
   80SLPC  H18Y 7487   3.717   2.964   4.971  2.2424  1.0158  0.1638
   80SLPC  H18Z 7488   3.696   2.785   4.963  0.3846  0.0074 -0.0840
   81SLPC     N 7489   0.169   6.672   2.348 -0.0125 -0.9564 -0.4196
   81SLPC   C13 7490   0.058   6.731   2.278 -0.7402  0.1884 -1.0858
   81SLPC  H13A 7491   0.093   6.781   2.189 -0.4467  1.1368 -0.4515
   81SLPC  H13B 7492  -0.002   6.647   2.244  1.2907 -1.5002 -0.6841
   81SLPC  H13C 7493   0.004   6.800   2.341 -0.0061 -0.8036  0.6978
   81SLPC   C14 7494   0.283   6.761   2.358 -0.3100 -0.5789 -0.2992
   81SLPC  H14A 7495   0.373   6.708   2.386 -0.0814  0.3762  0.9073
   81SLPC  H14B 7496   0.300   6.815   2.266 -1.8190  2.1965  0.9075
   81SLPC  H14C 7497   0.269   6.843   2.428 -1.2490  0.3307 -1.5109
   81SLPC   C15 7498   0.209   6.559   2.263  0.2141 -0.4699 -0.0980
   81SLPC  H15A 7499   0.293   6.509   2.309 -1.5810  0.3468  4.5354
   81SLPC  H15B 7500   0.129   6.487   2.270 -0.2448  0.1352  1.1115
   81SLPC  H15C 7501   0.213   6.589   2.159 -1.2436  0.9937  0.2262
   81SLPC   C12 7502   0.131   6.627   2.490  0.1716  0.8248 -0.5685
   81SLPC  H12A 7503   0.116   6.718   2.547 -2.6444 -0.3301  0.7096
   81SLPC  H12B 7504   0.209   6.571   2.538 -0.4334  0.3444 -0.1254
   81SLPC   C11 7505  -0.010   6.558   2.505 -0.3662 -0.5638  0.1329
   81SLPC  H11A 7506  -0.076   6.630   2.453  1.9674  0.6952 -1.2450
   81SLPC  H11B 7507  -0.038   6.549   2.612  1.7960 -0.8250  0.7129
   81SLPC     P 7508   0.049   6.304   2.484 -0.0059 -0.2661 -0.1552
   81SLPC   O13 7509   0.027   6.203   2.372  1.0825 -0.3298  0.0855
   81SLPC   O14 7510   0.198   6.322   2.505  0.5621 -0.1018  0.4338
   81SLPC   O12 7511  -0.021   6.437   2.435 -0.1554  0.0701  0.7130
   81SLPC   O11 7512  -0.028   6.267   2.617  0.1939  0.2238 -0.0813
   81SLPC    C1 7513   0.035   6.296   2.741 -0.1649  0.3185  0.3616
   81SLPC    HA 7514   0.083   6.396   2.739  1.9663 -0.6565 -1.2534
   81SLPC    HB 7515  -0.042   6.291   2.821 -0.5948  0.8934 -0.0104
   81SLPC    C2 7516   0.146   6.189   2.781 -0.3124 -0.6088  0.4145
   81SLPC    HS 7517   0.226   6.187   2.704 -0.2516 -0.2184  0.4645
   81SLPC   O21 7518   0.081   6.065   2.781 -0.0666 -0.3998  0.3530
   81SLPC   C21 7519   0.158   5.965   2.792 -0.6043 -0.2104 -0.4389
   81SLPC   O22 7520   0.284   5.969   2.797 -0.3734 -0.3738  0.1494
   81SLPC   C22 7521   0.086   5.833   2.796  0.2933 -0.3963  0.4929
   81SLPC   H2R 7522  -0.021   5.844   2.771  0.4817  0.3344 -0.0097
   81SLPC   H2S 7523   0.123   5.773   2.710 -3.2824 -0.9193 -0.8502
   81SLPC    C3 7524   0.210   6.220   2.926  0.2110 -0.0582  0.5903
   81SLPC    HX 7525   0.255   6.321   2.925  1.6607 -0.6308 -1.6506
   81SLPC    HY 7526   0.302   6.158   2.938  0.2589 -0.4018 -1.2187
   81SLPC   O31 7527   0.114   6.191   3.036  0.0598  0.2092  0.1572
   81SLPC   C31 7528   0.055   6.299   3.081 -0.2803 -0.0029  0.1656
   81SLPC   O32 7529   0.070   6.419   3.051 -0.9741  0.5533  0.0276
   81SLPC   C32 7530  -0.027   6.262   3.207  0.4177  0.3149  0.3867
   81SLPC   H2X 7531  -0.081   6.167   3.186  0.2884 -0.0931  2.3498
   81SLPC   H2Y 7532  -0.101   6.343   3.223  2.5890  2.1760  1.5669
   81SLPC   C23 7533   0.115   5.755   2.926 -0.1806  0.6133 -0.5791
   81SLPC   H3R 7534   0.224   5.737   2.934 -0.1237  0.8639 -0.7881
   81SLPC   H3S 7535   0.060   5.658   2.929 -1.3517  1.2781  0.4638
   81SLPC   C24 7536   0.084   5.835   3.055  0.1633 -0.3296  0.7134
   81SLPC   H4R 7537  -0.014   5.885   3.061  0.2607 -0.1861  1.1326
   81SLPC   H4S 7538   0.149   5.923   3.072 -0.4344  0.3819 -0.5423
   81SLPC   C25 7539   0.099   5.756   3.184 -0.7318 -0.1589  0.2823
   81SLPC   H5R 7540   0.204   5.720   3.191 -0.1221  1.4216 -0.2675
   81SLPC   H5S 7541   0.020   5.679   3.174 -2.4580  1.7134 -1.2008
   81SLPC   C26 7542   0.078   5.836   3.312  0.4545  0.4202 -0.3600
   81SLPC   H6R 7543  -0.023   5.884   3.307  1.7105  3.5109  1.4661
   81SLPC   H6S 7544   0.143   5.926   3.313  0.1738  0.6215  0.1427
   81SLPC   C27 7545   0.073   5.749   3.438 -0.1125  0.4529  0.4042
   81SLPC   H7R 7546   0.157   5.678   3.422  0.6604  1.7469 -1.5977
   81SLPC   H7S 7547  -0.014   5.680   3.450 -1.6308  1.8751 -1.7711
   81SLPC   C28 7548   0.075   5.822   3.577  0.4108  0.2197 -0.2668
   81SLPC   H8R 7549  -0.020   5.880   3.574 -0.3099 -0.9474 -0.4178
   81SLPC   H8S 7550   0.164   5.889   3.574 -0.6202  1.7023  0.8438
   81SLPC   C29 7551   0.080   5.734   3.696 -0.2640 -0.2760  0.2025
   81SLPC   H9R 7552   0.069   5.628   3.667  0.9174 -0.1966 -0.6065
   81SLPC  C210 7553   0.103   5.774   3.821 -0.5351 -0.2274 -0.9947
   81SLPC  H10R 7554   0.103   5.693   3.895 -0.8254  1.1331  0.5613
   81SLPC  C211 7555   0.135   5.906   3.889  0.9473  0.3619  0.4403
   81SLPC  H11R 7556   0.039   5.937   3.936 -0.0014  2.7495 -2.7631
   81SLPC  H11S 7557   0.148   5.991   3.819  3.5649  0.5005  0.9986
   81SLPC  C212 7558   0.245   5.904   3.995 -0.7222 -0.5353 -0.1846
   81SLPC  H12R 7559   0.342   5.921   3.945 -0.8102 -0.2637 -0.2668
   81SLPC  C213 7560   0.240   5.899   4.131 -0.1552 -0.1208 -0.1721
   81SLPC  H13R 7561   0.333   5.911   4.188 -1.8706  1.2849  2.5561
   81SLPC  C214 7562   0.123   5.887   4.224 -0.4975 -0.5224  0.6220
   81SLPC  H14R 7563   0.037   5.936   4.175 -1.0219  0.7541  2.7084
   81SLPC  H14S 7564   0.152   5.942   4.316  0.8090  0.1116 -0.1414
   81SLPC  C215 7565   0.076   5.741   4.251 -0.0455  0.5353  0.5962
   81SLPC  H15R 7566   0.067   5.695   4.150  0.5292  0.3002  0.6506
   81SLPC  H15S 7567  -0.017   5.755   4.311 -0.1313  0.3605  0.5070
   81SLPC  C216 7568   0.164   5.644   4.337 -0.0543 -0.3419  0.0539
   81SLPC  H16R 7569   0.268   5.658   4.300 -0.1143  1.0087  0.3592
   81SLPC  H16S 7570   0.134   5.538   4.318  0.7574 -0.3243 -1.4347
   81SLPC  C217 7571   0.162   5.677   4.487  0.4554 -0.4679 -0.4166
   81SLPC  H17R 7572   0.062   5.675   4.535 -0.9078  0.8642 -2.9783
   81SLPC  H17S 7573   0.223   5.770   4.488 -1.6618  1.0166 -0.7079
   81SLPC  C218 7574   0.248   5.566   4.557  0.2099 -0.2228  0.2693
   81SLPC  H18R 7575   0.197   5.467   4.556  0.2622 -0.2507  0.4232
   81SLPC  H18S 7576   0.275   5.583   4.663  1.9934 -2.1755  0.1849
   81SLPC  H18T 7577   0.339   5.553   4.495 -1.3671  0.0616 -2.2584
   81SLPC   C33 7578   0.046   6.231   3.339  0.0951 -0.5942 -0.7731
   81SLPC   H3X 7579   0.143   6.182   3.315  0.5777 -0.0219 -0.0322
   81SLPC   H3Y 7580  -0.009   6.149   3.391 -0.9278  1.3573  1.4179
   81SLPC   C34 7581   0.046   6.350   3.430  0.6671  0.1496  1.1361
   81SLPC   H4X 7582  -0.054   6.399   3.432  0.3521 -0.4509  0.4152
   81SLPC   H4Y 7583   0.109   6.426   3.380 -0.5487 -0.3646 -1.3235
   81SLPC   C35 7584   0.105   6.316   3.565 -0.7320  0.0796  0.3431
   81SLPC   H5X 7585   0.167   6.405   3.591  1.3319 -0.3452 -2.6428
   81SLPC   H5Y 7586   0.179   6.233   3.561 -0.0377  0.7281 -1.0923
   81SLPC   C36 7587   0.004   6.291   3.678 -0.2574  0.1754  0.6302
   81SLPC   H6X 7588  -0.044   6.195   3.649  2.2709 -0.8908 -0.3094
   81SLPC   H6Y 7589  -0.071   6.372   3.671  0.1779  0.4212 -2.4271
   81SLPC   C37 7590   0.068   6.288   3.820  0.3320  0.1456 -0.1837
   81SLPC   H7X 7591   0.102   6.390   3.848 -1.6754  1.4758 -2.2578
   81SLPC   H7Y 7592   0.153   6.216   3.824  0.3960  0.0198 -2.6211
   81SLPC   C38 7593  -0.022   6.239   3.933  0.1567 -0.0075 -0.6397
   81SLPC   H8X 7594  -0.019   6.128   3.937 -0.0325  0.0247  1.8528
   81SLPC   H8Y 7595  -0.127   6.273   3.922  0.8658  2.5513 -0.0578
   81SLPC   C39 7596   0.039   6.281   4.071 -0.3627  0.6364  0.3678
   81SLPC   H9X 7597   0.048   6.391   4.063  1.7923  0.4656 -0.1011
   81SLPC   H9Y 7598   0.138   6.231   4.078 -0.7029 -0.4238 -1.5119
   81SLPC  C310 7599  -0.058   6.246   4.183  0.6591  0.4624  0.5012
   81SLPC  H10X 7600  -0.062   6.137   4.204  0.5596  0.3814  0.0774
   81SLPC  H10Y 7601  -0.158   6.282   4.150 -0.1382 -1.1720  1.0554
   81SLPC  C311 7602  -0.023   6.316   4.315  0.0289  0.3911 -0.4373
   81SLPC  H11X 7603   0.003   6.421   4.289  3.8654  0.0637  1.4093
   81SLPC  H11Y 7604   0.074   6.284   4.358 -0.0223 -1.2700 -1.4853
   81SLPC  C312 7605  -0.129   6.303   4.418  0.8025  0.5398 -0.4669
   81SLPC  H12X 7606  -0.154   6.196   4.434  1.8781  0.2728 -0.4604
   81SLPC  H12Y 7607  -0.223   6.355   4.391  0.7715  0.7347  0.0015
   81SLPC  C313 7608  -0.087   6.347   4.560  0.4408 -0.0927  0.1764
   81SLPC  H13X 7609  -0.175   6.375   4.622  0.5006  1.1781 -0.2719
   81SLPC  H13Y 7610  -0.026   6.439   4.553 -0.0172  0.1533 -0.7548
   81SLPC  C314 7611  -0.008   6.240   4.632  0.1193 -0.0867 -0.0669
   81SLPC  H14X 7612   0.080   6.201   4.576  1.8189  2.8729  0.3681
   81SLPC  H14Y 7613  -0.068   6.152   4.664  0.7931  0.1019  1.8524
   81SLPC  C315 7614   0.036   6.294   4.772  0.2883 -0.1117 -0.0448
   81SLPC  H15X 7615  -0.056   6.305   4.833 -0.2889 -1.2126 -0.6852
   81SLPC  H15Y 7616   0.082   6.394   4.758  0.6134 -0.1992  0.4008
   81SLPC  C316 7617   0.150   6.217   4.838  0.1325  1.0895 -0.3715
   81SLPC  H16X 7618   0.233   6.179   4.775  0.5768 -0.2508  0.9574
   81SLPC  H16Y 7619   0.108   6.126   4.887  2.5281 -1.0562 -2.0268
   81SLPC  C317 7620   0.225   6.309   4.935 -0.5320  0.4379 -0.2039
   81SLPC  H17X 7621   0.160   6.334   5.022 -0.3705  3.7710 -0.8968
   81SLPC  H17Y 7622   0.250   6.409   4.895 -2.1653  0.4161 -1.4095
   81SLPC  C318 7623   0.353   6.253   4.989 -1.1201  0.4760  0.6581
   81SLPC  H18X 7624   0.418   6.332   5.034 -1.5234  0.7842  0.6986
   81SLPC  H18Y 7625   0.413   6.206   4.908 -1.5392 -1.1553  1.2653
   81SLPC  H18Z 7626   0.341   6.166   5.057  2.3681 -0.3440  0.4508
   82SLPC     N 7627   5.987   5.422   2.514 -0.9179 -0.1617  0.0369
   82SLPC   C13 7628   6.029   5.325   2.626  0.9402 -0.9030 -0.3956
   82SLPC  H13A 7629   5.952   5.252   2.649 -0.2801  0.6726  0.7221
   82SLPC  H13B 7630   6.116   5.267   2.599  0.8267 -1.4506  0.3747
   82SLPC  H13C 7631   6.038   5.385   2.715 -0.8873 -1.8555  0.4995
   82SLPC   C14 7632   5.875   5.502   2.569  0.1928 -0.0063  0.3300
   82SLPC  H14A 7633   5.903   5.573   2.644  0.3050 -0.0155  0.2963
   82SLPC  H14B 7634   5.827   5.555   2.488  0.5702 -0.9301 -0.5253
   82SLPC  H14C 7635   5.803   5.431   2.607  0.8751 -0.2113  1.2713
   82SLPC   C15 7636   5.951   5.326   2.403  0.0759 -0.0514 -0.1045
   82SLPC  H15A 7637   5.888   5.246   2.441 -0.6209 -0.3962 -1.8732
   82SLPC  H15B 7638   5.910   5.377   2.317  1.6900  0.1870 -0.7722
   82SLPC  H15C 7639   6.039   5.280   2.361  0.5028  0.7945 -0.1543
   82SLPC   C12 7640   6.106   5.517   2.485 -0.0399 -0.0711  0.0404
   82SLPC  H12A 7641   6.134   5.562   2.579 -0.0174 -1.4612  0.7258
   82SLPC  H12B 7642   6.065   5.587   2.414  1.3981  0.6143 -0.1500
   82SLPC   C11 7643   6.235   5.455   2.427 -0.4481  0.2110 -0.1892
   82SLPC  H11A 7644   6.279   5.551   2.394 -1.2897  0.7722  0.2617
   82SLPC  H11B 7645   6.218   5.391   2.337  0.9865  1.4674 -1.3912
   82SLPC     P 7646   6.468   5.349   2.499 -0.0750  0.1625 -0.4129
   82SLPC   O13 7647   6.495   5.206   2.532 -0.0927 -0.2930 -0.0946
   82SLPC   O14 7648   6.504   5.397   2.361  0.3448  0.1070  0.0106
   82SLPC   O12 7649   6.311   5.378   2.531 -0.4251 -0.6245  0.2074
   82SLPC   O11 7650   6.537   5.445   2.598  0.2559  0.0495 -0.2505
   82SLPC    C1 7651   6.476   5.510   2.707  0.6849 -0.9163 -0.3140
   82SLPC    HA 7652   6.530   5.605   2.728  0.8874 -1.0549 -0.2063
   82SLPC    HB 7653   6.373   5.547   2.687  0.9136  0.2783  0.6130
   82SLPC    C2 7654   6.466   5.424   2.838  0.2690  0.1389  0.4927
   82SLPC    HS 7655   6.441   5.491   2.922  0.5639  0.3235  0.4357
   82SLPC   O21 7656   6.588   5.350   2.862  0.4870  0.0754 -0.2964
   82SLPC   C21 7657   6.679   5.419   2.927  0.7569 -0.0518  0.6801
   82SLPC   O22 7658   6.668   5.527   2.980  0.1202  0.1753 -0.5132
   82SLPC   C22 7659   6.797   5.322   2.938 -0.5032  0.6292  0.2730
   82SLPC   H2R 7660   6.758   5.227   2.981  0.6965  0.9565  2.2061
   82SLPC   H2S 7661   6.832   5.317   2.833  0.8438  0.0024  0.7321
   82SLPC    C3 7662   6.356   5.317   2.837  0.4921 -0.3397 -0.0777
   82SLPC    HX 7663   6.373   5.236   2.764 -0.7851 -0.4099 -0.3145
   82SLPC    HY 7664   6.259   5.360   2.804 -0.1687 -1.1311  0.7921
   82SLPC   O31 7665   6.326   5.266   2.974 -0.6834  0.4774  0.1465
   82SLPC   C31 7666   6.386   5.149   3.004 -0.1360  0.3400  0.2376
   82SLPC   O32 7667   6.451   5.076   2.932  0.3941  0.2293 -0.1026
   82SLPC   C32 7668   6.353   5.116   3.150  0.1580 -0.6733  0.3889
   82SLPC   H2X 7669   6.274   5.039   3.144 -2.9161  2.1054  2.2236
   82SLPC   H2Y 7670   6.319   5.212   3.195  0.9267  1.4639 -3.1776
   82SLPC   C23 7671   6.915   5.375   3.024 -0.8075 -1.1940 -0.6175
   82SLPC   H3R 7672   6.914   5.486   3.015  0.6801 -1.2962 -2.6493
   82SLPC   H3S 7673   7.013   5.343   2.983  0.5282 -1.0719  2.2296
   82SLPC   C24 7674   6.911   5.325   3.170  0.1152  0.0686 -1.1647
   82SLPC   H4R 7675   6.999   5.351   3.233  0.0533 -0.5724 -0.8059
   82SLPC   H4S 7676   6.900   5.215   3.181 -1.4451  0.2701 -0.5196
   82SLPC   C25 7677   6.789   5.382   3.247 -0.1006 -0.6075  0.6131
   82SLPC   H5R 7678   6.701   5.320   3.218  0.0282 -0.4068 -0.2344
   82SLPC   H5S 7679   6.779   5.482   3.201 -0.7936 -1.3398 -0.9076
   82SLPC   C26 7680   6.786   5.398   3.399 -0.4417 -0.4137  0.8226
   82SLPC   H6R 7681   6.878   5.456   3.421 -2.2126  2.9662  0.0103
   82SLPC   H6S 7682   6.795   5.295   3.439  2.8988 -0.8011 -0.5473
   82SLPC   C27 7683   6.669   5.481   3.459 -0.8549  0.3516  0.5843
   82SLPC   H7R 7684   6.575   5.423   3.461 -0.2110 -0.7473 -0.2626
   82SLPC   H7S 7685   6.645   5.572   3.400 -1.2112 -0.2136 -0.1563
   82SLPC   C28 7686   6.702   5.530   3.599 -0.1918 -0.5050 -1.5662
   82SLPC   H8R 7687   6.775   5.613   3.594 -1.0515  0.5881  1.4980
   82SLPC   H8S 7688   6.744   5.440   3.650  0.4017  0.5010 -0.2198
   82SLPC   C29 7689   6.583   5.582   3.680  1.2780  0.6599 -0.0472
   82SLPC   H9R 7690   6.526   5.659   3.625  0.9778 -0.0342 -0.7426
   82SLPC  C210 7691   6.554   5.551   3.809 -0.5423 -0.7976  0.6540
   82SLPC  H10R 7692   6.459   5.580   3.857  0.0426 -0.5071  1.6786
   82SLPC  C211 7693   6.624   5.452   3.901 -1.4565  0.2056  0.3984
   82SLPC  H11R 7694   6.681   5.378   3.842  2.4697  2.0689  1.4830
   82SLPC  H11S 7695   6.552   5.392   3.960 -1.9625 -3.7880 -3.7398
   82SLPC  C212 7696   6.740   5.517   3.981  0.7649 -0.5450  0.0779
   82SLPC  H12R 7697   6.796   5.601   3.937  1.6225 -1.5303 -0.7604
   82SLPC  C213 7698   6.774   5.483   4.107 -0.3120  0.1238 -0.2178
   82SLPC  H13R 7699   6.863   5.529   4.152 -0.3679  1.1946 -1.1561
   82SLPC  C214 7700   6.733   5.360   4.192 -1.0534  0.0769  0.1750
   82SLPC  H14R 7701   6.823   5.295   4.188 -1.0693 -0.0272  1.0836
   82SLPC  H14S 7702   6.649   5.306   4.144 -0.3462 -0.7534 -0.1537
   82SLPC  C215 7703   6.690   5.379   4.336  0.2328 -0.5874 -0.1607
   82SLPC  H15R 7704   6.616   5.305   4.373 -0.2999 -0.5756 -1.1768
   82SLPC  H15S 7705   6.653   5.483   4.347 -0.0473 -0.6194 -0.8091
   82SLPC  C216 7706   6.807   5.371   4.436 -0.6091 -0.5236 -0.2281
   82SLPC  H16R 7707   6.899   5.422   4.401 -1.2926  1.0545  0.2036
   82SLPC  H16S 7708   6.822   5.261   4.437 -1.1323 -0.5959  0.3793
   82SLPC  C217 7709   6.773   5.413   4.584  0.6124  0.3876  0.1324
   82SLPC  H17R 7710   6.667   5.387   4.604  0.5183  0.8371  0.2415
   82SLPC  H17S 7711   6.777   5.524   4.580  0.2487  0.4197  0.6525
   82SLPC  C218 7712   6.854   5.348   4.696 -0.1067  0.5993 -0.0731
   82SLPC  H18R 7713   6.807   5.389   4.787 -0.5575  0.3744 -0.2029
   82SLPC  H18S 7714   6.960   5.381   4.687  0.3176 -0.9341 -1.3758
   82SLPC  H18T 7715   6.852   5.237   4.707 -1.3390  0.5598 -0.5733
   82SLPC   C33 7716   6.464   5.048   3.240  0.3455 -0.4463  1.0153
   82SLPC   H3X 7717   6.545   5.124   3.233 -1.6636  1.8608  1.3543
   82SLPC   H3Y 7718   6.504   4.954   3.198 -1.8423 -0.0523 -2.3387
   82SLPC   C34 7719   6.439   5.058   3.389 -0.7649 -0.1705 -0.0231
   82SLPC   H4X 7720   6.405   5.163   3.404 -0.1014 -0.0133  0.3757
   82SLPC   H4Y 7721   6.533   5.051   3.446 -0.7550 -0.1904 -0.0411
   82SLPC   C35 7722   6.329   4.964   3.452 -0.0676 -0.4161  0.4290
   82SLPC   H5X 7723   6.238   4.977   3.390  0.1029 -0.2771  0.2061
   82SLPC   H5Y 7724   6.311   5.015   3.549  0.1092  2.8565 -1.1231
   82SLPC   C36 7725   6.379   4.816   3.456 -0.3611 -0.7182 -0.4503
   82SLPC   H6X 7726   6.470   4.804   3.518 -0.0196 -0.1015 -0.8292
   82SLPC   H6Y 7727   6.414   4.777   3.358 -0.2052  0.0931 -0.7253
   82SLPC   C37 7728   6.270   4.724   3.506 -0.3215  0.3169 -0.0645
   82SLPC   H7X 7729   6.298   4.619   3.481 -2.2839 -0.1732 -0.3572
   82SLPC   H7Y 7730   6.177   4.738   3.447 -1.1552 -1.0225  0.8495
   82SLPC   C38 7731   6.241   4.737   3.653 -0.2650  0.5211 -0.9029
   82SLPC   H8X 7732   6.172   4.823   3.668 -0.0239  0.8408 -1.6030
   82SLPC   H8Y 7733   6.331   4.775   3.706 -0.1098 -0.2851 -0.5789
   82SLPC   C39 7734   6.192   4.603   3.719  0.0032 -0.1150 -0.1077
   82SLPC   H9X 7735   6.278   4.532   3.716  0.8196  0.8692 -2.7222
   82SLPC   H9Y 7736   6.121   4.553   3.650  1.0492 -1.3231 -0.3511
   82SLPC  C310 7737   6.137   4.621   3.864  0.0230 -0.0332  0.0569
   82SLPC  H10X 7738   6.089   4.527   3.899 -0.6904  0.3761  0.1667
   82SLPC  H10Y 7739   6.050   4.689   3.858  0.5741  0.6365 -0.6207
   82SLPC  C311 7740   6.232   4.676   3.968  0.3655 -0.0302 -0.2729
   82SLPC  H11X 7741   6.262   4.780   3.944 -0.3260  0.2709  0.1429
   82SLPC  H11Y 7742   6.320   4.607   3.972  0.3284 -0.0977 -0.5858
   82SLPC  C312 7743   6.166   4.685   4.111 -0.1442 -0.2841 -0.4365
   82SLPC  H12X 7744   6.072   4.743   4.099  0.5774  1.4215  1.6993
   82SLPC  H12Y 7745   6.218   4.757   4.178 -0.6142  0.7818 -1.1842
   82SLPC  C313 7746   6.124   4.555   4.169 -1.2273 -0.1177 -0.2931
   82SLPC  H13X 7747   6.190   4.466   4.160 -0.5352  0.0874  2.0507
   82SLPC  H13Y 7748   6.022   4.525   4.138 -1.9377  0.3190  1.5142
   82SLPC  C314 7749   6.111   4.567   4.323  0.2692  0.1977 -0.3050
   82SLPC  H14X 7750   6.067   4.476   4.368 -0.0470  1.1907  1.4836
   82SLPC  H14Y 7751   6.036   4.646   4.348  0.5563  1.2643 -2.5843
   82SLPC  C315 7752   6.246   4.570   4.396  0.2274  0.2066 -0.3596
   82SLPC  H15X 7753   6.276   4.677   4.394  1.2980 -0.0869 -1.4518
   82SLPC  H15Y 7754   6.314   4.500   4.342  1.1542 -0.6745  1.8458
   82SLPC  C316 7755   6.258   4.517   4.540  0.2370 -0.3688 -0.2126
   82SLPC  H16X 7756   6.365   4.489   4.532  0.8128  1.8615 -1.2363
   82SLPC  H16Y 7757   6.196   4.426   4.550 -1.6088  0.8317 -0.2338
   82SLPC  C317 7758   6.223   4.621   4.650  0.0474 -0.1466  0.2246
   82SLPC  H17X 7759   6.113   4.641   4.649  0.2726  1.1723  0.7202
   82SLPC  H17Y 7760   6.271   4.720   4.637 -0.7729  0.3239  0.6499
   82SLPC  C318 7761   6.261   4.568   4.789 -0.4205  0.5521 -0.3666
   82SLPC  H18X 7762   6.286   4.656   4.852 -1.9028  0.2503  0.7117
   82SLPC  H18Y 7763   6.352   4.505   4.775 -1.1546 -0.3846 -1.0298
   82SLPC  H18Z 7764   6.179   4.508   4.834  0.3665 -0.3305 -0.0672
   83SLPC     N 7765   1.748   6.371   2.252 -0.9255  0.4511  0.2580
   83SLPC   C13 7766   1.672   6.496   2.266  0.3734 -0.5735  0.4791
   83SLPC  H13A 7767   1.689   6.566   2.186 -2.3231  0.5795  0.7903
   83SLPC  H13B 7768   1.567   6.470   2.260  0.1951  0.3887 -1.3547
   83SLPC  H13C 7769   1.690   6.543   2.361  2.1668  2.3901 -1.1975
   83SLPC   C14 7770   1.896   6.402   2.236 -0.5486  0.7054 -0.7012
   83SLPC  H14A 7771   1.950   6.312   2.210  1.4401  1.0649  1.8049
   83SLPC  H14B 7772   1.908   6.466   2.150 -0.8516  0.5719 -0.8423
   83SLPC  H14C 7773   1.936   6.448   2.325 -0.4405 -3.8359  1.8822
   83SLPC   C15 7774   1.703   6.299   2.132 -0.1333 -0.2720 -0.1030
   83SLPC  H15A 7775   1.736   6.196   2.138  0.0492 -0.2885 -1.2101
   83SLPC  H15B 7776   1.595   6.301   2.124 -0.0011 -0.0435 -2.3402
   83SLPC  H15C 7777   1.739   6.343   2.041 -0.7262  0.6463  0.0924
   83SLPC   C12 7778   1.719   6.287   2.373 -0.0500 -0.3760 -0.4479
   83SLPC  H12A 7779   1.760   6.190   2.350 -0.8185 -0.6242 -0.8035
   83SLPC  H12B 7780   1.612   6.282   2.386 -0.2019 -0.3830 -1.6419
   83SLPC   C11 7781   1.778   6.345   2.507 -0.0881 -0.1255  0.2258
   83SLPC  H11A 7782   1.884   6.372   2.490 -0.0388  0.2134  1.0170
   83SLPC  H11B 7783   1.778   6.275   2.594 -2.6857 -3.1170 -1.9557
   83SLPC     P 7784   1.567   6.457   2.619 -0.0144 -0.1705  0.0299
   83SLPC   O13 7785   1.508   6.594   2.622 -0.2686  0.5402  0.9474
   83SLPC   O14 7786   1.486   6.354   2.555 -0.1657 -0.4165 -0.4269
   83SLPC   O12 7787   1.702   6.457   2.544 -0.3495 -0.3489 -0.0612
   83SLPC   O11 7788   1.600   6.421   2.766  0.1709 -0.1689 -0.2550
   83SLPC    C1 7789   1.612   6.286   2.801  0.8057 -0.0307 -0.1254
   83SLPC    HA 7790   1.576   6.209   2.729 -0.6745 -0.0273  0.5728
   83SLPC    HB 7791   1.719   6.266   2.825  1.4343  1.9635 -1.0865
   83SLPC    C2 7792   1.520   6.260   2.927  0.1523  0.2330  0.0454
   83SLPC    HS 7793   1.419   6.301   2.905  0.6139  1.0681 -0.6123
   83SLPC   O21 7794   1.585   6.315   3.045  0.3313 -0.6992 -0.1630
   83SLPC   C21 7795   1.503   6.364   3.138 -0.3051  0.0622 -0.3355
   83SLPC   O22 7796   1.381   6.351   3.137 -0.2031 -0.0006 -0.2110
   83SLPC   C22 7797   1.584   6.427   3.255 -0.0709  0.0966  0.6874
   83SLPC   H2R 7798   1.680   6.456   3.208 -0.2242 -1.4259 -0.6698
   83SLPC   H2S 7799   1.529   6.519   3.284  0.3430  0.0888  1.5122
   83SLPC    C3 7800   1.494   6.100   2.941  0.3396 -0.3942  0.1063
   83SLPC    HX 7801   1.599   6.064   2.940  0.8879  0.3049  5.2413
   83SLPC    HY 7802   1.439   6.066   2.851 -0.5519  0.5449  0.2755
   83SLPC   O31 7803   1.434   6.060   3.068 -0.3073  0.0785 -0.1719
   83SLPC   C31 7804   1.306   6.049   3.060 -0.3611 -0.6193  0.0943
   83SLPC   O32 7805   1.234   6.073   2.962 -0.6713 -0.2147  0.4600
   83SLPC   C32 7806   1.243   6.030   3.198  0.2214 -0.5066  0.2199
   83SLPC   H2X 7807   1.188   5.933   3.195 -1.1144  0.1777  1.6618
   83SLPC   H2Y 7808   1.167   6.107   3.220  2.0214  1.5711 -0.4677
   83SLPC   C23 7809   1.588   6.337   3.384 -0.2213 -0.1770 -0.2613
   83SLPC   H3R 7810   1.652   6.250   3.358 -0.5779  0.1997 -2.6157
   83SLPC   H3S 7811   1.490   6.300   3.421  0.4116 -1.0331  0.5994
   83SLPC   C24 7812   1.670   6.408   3.495 -0.9117  0.9348  0.0243
   83SLPC   H4R 7813   1.623   6.503   3.525 -1.0765  1.5511 -2.0219
   83SLPC   H4S 7814   1.774   6.429   3.463 -1.3812 -0.2786 -2.5228
   83SLPC   C25 7815   1.680   6.319   3.623  0.1403  0.0117 -0.3741
   83SLPC   H5R 7816   1.716   6.215   3.605  0.4093 -0.3586  1.9835
   83SLPC   H5S 7817   1.577   6.304   3.663 -0.5644  0.0883 -2.0971
   83SLPC   C26 7818   1.773   6.377   3.729  0.6686  0.6797  0.1333
   83SLPC   H6R 7819   1.713   6.464   3.765 -0.5292  0.2222 -0.7180
   83SLPC   H6S 7820   1.868   6.401   3.676  1.0707  0.2682  0.6479
   83SLPC   C27 7821   1.815   6.276   3.838  0.2301 -0.3184 -0.2335
   83SLPC   H7R 7822   1.905   6.314   3.890  0.4464 -2.4527  1.0741
   83SLPC   H7S 7823   1.837   6.181   3.785 -0.6650 -0.0356 -1.1515
   83SLPC   C28 7824   1.701   6.250   3.936 -0.2814 -0.5601  0.4274
   83SLPC   H8R 7825   1.613   6.205   3.885 -0.0074 -1.7027  0.9446
   83SLPC   H8S 7826   1.670   6.349   3.977 -3.2813 -0.7924 -0.9815
   83SLPC   C29 7827   1.741   6.146   4.038 -0.0156 -0.0955 -0.9295
   83SLPC   H9R 7828   1.748   6.192   4.137  1.7670  2.8809 -2.2989
   83SLPC  C210 7829   1.762   6.014   4.022  0.6584 -0.1127  0.0494
   83SLPC  H10R 7830   1.800   5.959   4.109 -0.9429 -1.0658  0.1721
   83SLPC  C211 7831   1.764   5.934   3.897 -0.6076 -0.3705 -0.0758
   83SLPC  H11R 7832   1.735   5.998   3.812 -0.2042  0.3897  0.3430
   83SLPC  H11S 7833   1.680   5.863   3.909 -1.1591  0.1689 -0.6785
   83SLPC  C212 7834   1.897   5.871   3.857 -0.1419  0.3625  0.0704
   83SLPC  H12R 7835   1.958   5.925   3.783  1.1261 -3.3012 -1.7956
   83SLPC  C213 7836   1.951   5.757   3.903 -0.2454  0.9052 -0.2852
   83SLPC  H13R 7837   2.041   5.719   3.852 -1.1663 -1.7993 -0.0669
   83SLPC  C214 7838   1.882   5.668   4.005 -0.0012 -0.2923 -0.4254
   83SLPC  H14R 7839   1.875   5.565   3.964  0.3596  0.2379 -1.8831
   83SLPC  H14S 7840   1.773   5.691   4.013 -0.1628 -1.4151  0.9975
   83SLPC  C215 7841   1.949   5.655   4.143  0.0763 -0.7874  0.3849
   83SLPC  H15R 7842   1.959   5.758   4.181  1.3637 -0.4864 -0.6800
   83SLPC  H15S 7843   2.049   5.612   4.120 -0.1273 -0.2429 -1.7049
   83SLPC  C216 7844   1.868   5.558   4.241  0.2871 -0.0714  0.4680
   83SLPC  H16R 7845   1.837   5.477   4.172  1.5580 -0.3529  0.1999
   83SLPC  H16S 7846   1.786   5.618   4.284 -0.6757 -1.5734  0.8120
   83SLPC  C217 7847   1.943   5.505   4.365  0.4108 -0.2714  0.0871
   83SLPC  H17R 7848   2.004   5.587   4.409 -0.3481  0.5156 -0.2997
   83SLPC  H17S 7849   2.011   5.426   4.327  0.2262 -0.2266 -0.3520
   83SLPC  C218 7850   1.842   5.442   4.463  0.2761 -0.0327  0.6157
   83SLPC  H18R 7851   1.769   5.385   4.401 -0.4141  1.9633 -0.5164
   83SLPC  H18S 7852   1.785   5.515   4.525  0.3685 -0.3332  1.0555
   83SLPC  H18T 7853   1.902   5.373   4.526 -0.7307  0.4632  2.1477
   83SLPC   C33 7854   1.349   6.047   3.308 -0.9899 -0.5250  0.4096
   83SLPC   H3X 7855   1.382   6.153   3.315 -1.5414 -0.4068  1.3716
   83SLPC   H3Y 7856   1.446   5.995   3.292  0.2339  1.8218 -0.1782
   83SLPC   C34 7857   1.298   6.005   3.445 -0.5964  0.2042  0.0567
   83SLPC   H4X 7858   1.197   6.046   3.467  0.7537  2.6668  2.2831
   83SLPC   H4Y 7859   1.377   6.036   3.516  1.6822 -0.4731 -2.0634
   83SLPC   C35 7860   1.283   5.854   3.474  0.0458 -0.9275  0.9703
   83SLPC   H5X 7861   1.389   5.820   3.470 -0.1202 -1.8105  2.9202
   83SLPC   H5Y 7862   1.232   5.807   3.387  1.4531 -0.4115 -0.1953
   83SLPC   C36 7863   1.220   5.824   3.604 -0.1588 -0.0164 -0.3747
   83SLPC   H6X 7864   1.208   5.715   3.618 -2.1206 -0.0584 -1.9569
   83SLPC   H6Y 7865   1.121   5.874   3.604  0.8449  2.0810 -0.6183
   83SLPC   C37 7866   1.312   5.852   3.726  0.4338  0.5439  0.0939
   83SLPC   H7X 7867   1.323   5.961   3.739  0.6297  0.4248  1.0752
   83SLPC   H7Y 7868   1.411   5.809   3.699  0.2709 -0.3680  0.8721
   83SLPC   C38 7869   1.254   5.795   3.859  0.1979  0.5354  0.0281
   83SLPC   H8X 7870   1.313   5.832   3.946 -0.6202  0.4920  0.6174
   83SLPC   H8Y 7871   1.263   5.685   3.849 -0.6992  0.4222  0.3288
   83SLPC   C39 7872   1.106   5.820   3.896 -0.4330 -0.3048  0.1566
   83SLPC   H9X 7873   1.059   5.742   3.833 -0.7935 -0.0999  0.1665
   83SLPC   H9Y 7874   1.095   5.928   3.870  1.7165 -0.7409 -3.0881
   83SLPC  C310 7875   1.079   5.787   4.041 -1.3634  0.2262  0.0076
   83SLPC  H10X 7876   1.137   5.859   4.103 -0.8868  0.8622 -1.1552
   83SLPC  H10Y 7877   1.109   5.682   4.062  1.2393  1.2381  1.8979
   83SLPC  C311 7878   0.932   5.798   4.086  0.2773 -0.6297  0.0056
   83SLPC  H11X 7879   0.930   5.723   4.167  1.0310  0.0379  0.6640
   83SLPC  H11Y 7880   0.871   5.765   3.999 -0.2232  1.2706 -0.4141
   83SLPC  C312 7881   0.897   5.943   4.100 -0.0573 -0.9259 -0.1328
   83SLPC  H12X 7882   0.884   5.983   3.997  1.2042  0.2658  0.1427
   83SLPC  H12Y 7883   0.978   6.001   4.148  0.3719  0.4462 -2.3801
   83SLPC  C313 7884   0.767   5.961   4.183 -1.1024  0.2946  0.4540
   83SLPC  H13X 7885   0.688   5.907   4.127  1.1867 -0.4425 -2.3548
   83SLPC  H13Y 7886   0.748   6.069   4.194 -1.3147  0.3643 -0.5280
   83SLPC  C314 7887   0.777   5.911   4.328  0.7443 -0.6276  0.0595
   83SLPC  H14X 7888   0.877   5.922   4.376  0.6707 -1.0631  0.3091
   83SLPC  H14Y 7889   0.757   5.802   4.332 -0.2984 -0.4332  0.4499
   83SLPC  C315 7890   0.670   5.986   4.409 -0.2531 -0.0868  0.0434
   83SLPC  H15X 7891   0.574   5.955   4.364 -0.6165  0.9480  0.0856
   83SLPC  H15Y 7892   0.685   6.096   4.402  2.7988 -0.4986 -2.1353
   83SLPC  C316 7893   0.679   5.940   4.555  0.4499 -0.5539  0.2835
   83SLPC  H16X 7894   0.602   6.002   4.606 -0.1827 -1.4848  0.4787
   83SLPC  H16Y 7895   0.783   5.961   4.589  0.6747 -0.6459 -0.3437
   83SLPC  C317 7896   0.645   5.789   4.573  1.0508  0.6435  0.5479
   83SLPC  H17X 7897   0.740   5.734   4.556  1.1559  1.2531 -1.0008
   83SLPC  H17Y 7898   0.562   5.761   4.505  2.2771 -0.8404 -0.4227
   83SLPC  C318 7899   0.616   5.759   4.720 -0.3085 -0.8784  0.7720
   83SLPC  H18X 7900   0.685   5.822   4.780 -2.2051  0.4092  1.6929
   83SLPC  H18Y 7901   0.626   5.652   4.748  0.9150 -0.7944  0.7296
   83SLPC  H18Z 7902   0.518   5.798   4.751 -0.5171 -1.5700  1.0107
   84SLPC     N 7903   1.675   5.258   2.344 -0.4715  0.5765 -0.0090
   84SLPC   C13 7904   1.764   5.162   2.418 -0.7990 -0.0404  0.3281
   84SLPC  H13A 7905   1.720   5.108   2.501  1.6988 -0.7682  1.2507
   84SLPC  H13B 7906   1.798   5.084   2.350  2.2671 -0.4003  2.0950
   84SLPC  H13C 7907   1.853   5.214   2.450 -2.8178  2.9644  1.5622
   84SLPC   C14 7908   1.577   5.177   2.263  0.2546  0.7918  0.1050
   84SLPC  H14A 7909   1.602   5.081   2.221 -1.1337 -1.1179  3.3297
   84SLPC  H14B 7910   1.491   5.162   2.326  0.1912  1.7805  0.2784
   84SLPC  H14C 7911   1.534   5.241   2.187  2.3862  2.0663 -0.1332
   84SLPC   C15 7912   1.768   5.320   2.244 -0.2804  0.5377 -0.5082
   84SLPC  H15A 7913   1.830   5.239   2.210 -0.2371  0.7199 -0.8682
   84SLPC  H15B 7914   1.731   5.369   2.155  2.4537  0.2714 -1.8836
   84SLPC  H15C 7915   1.814   5.399   2.302  0.9079 -0.7845  0.4008
   84SLPC   C12 7916   1.611   5.359   2.434 -0.1718 -0.5569 -0.5099
   84SLPC  H12A 7917   1.535   5.311   2.494  1.3967 -1.0117  1.2193
   84SLPC  H12B 7918   1.558   5.427   2.370  0.3826 -0.1817 -0.5722
   84SLPC   C11 7919   1.699   5.448   2.531 -0.3641  0.0453  0.2454
   84SLPC  H11A 7920   1.746   5.379   2.605 -1.3677 -1.0134 -0.0786
   84SLPC  H11B 7921   1.625   5.511   2.586  0.1029  0.5055  0.3546
   84SLPC     P 7922   1.761   5.684   2.426  0.1968  0.3006 -0.3758
   84SLPC   O13 7923   1.869   5.735   2.341 -0.6649  0.2027  0.2506
   84SLPC   O14 7924   1.622   5.706   2.370 -0.4235 -0.4717  0.2081
   84SLPC   O12 7925   1.794   5.534   2.463  0.0925 -0.4120 -0.1397
   84SLPC   O11 7926   1.765   5.767   2.564  0.1727 -0.4557 -0.0470
   84SLPC    C1 7927   1.855   5.740   2.670 -0.3572  0.1318 -0.5343
   84SLPC    HA 7928   1.828   5.650   2.731  1.7082 -0.2866 -0.1701
   84SLPC    HB 7929   1.954   5.724   2.623 -0.3613 -0.6609 -0.2972
   84SLPC    C2 7930   1.873   5.861   2.756 -0.4091 -0.4429 -0.0742
   84SLPC    HS 7931   1.969   5.849   2.811  1.0828  1.7395 -2.0464
   84SLPC   O21 7932   1.764   5.881   2.843  0.4010  1.0548 -0.8805
   84SLPC   C21 7933   1.756   5.802   2.947  0.4636  0.0985  0.4979
   84SLPC   O22 7934   1.850   5.733   2.991  0.3291 -0.5958 -0.1503
   84SLPC   C22 7935   1.627   5.810   3.025 -0.0483 -0.3057  0.1918
   84SLPC   H2R 7936   1.634   5.902   3.088  1.5457  0.4117 -0.9711
   84SLPC   H2S 7937   1.546   5.824   2.951  1.8232 -0.7007 -2.0463
   84SLPC    C3 7938   1.892   5.991   2.668  0.5009 -0.3763 -0.3287
   84SLPC    HX 7939   1.805   6.009   2.601 -0.0406  1.6655  0.8307
   84SLPC    HY 7940   1.976   5.985   2.596  1.9598 -0.1877  1.2919
   84SLPC   O31 7941   1.912   6.111   2.748  0.6646  0.0327 -0.9366
   84SLPC   C31 7942   2.041   6.144   2.774 -0.7920 -0.4063 -0.2154
   84SLPC   O32 7943   2.139   6.082   2.737  0.0629  0.0554  0.1707
   84SLPC   C32 7944   2.058   6.271   2.856  0.9237 -0.5303 -0.1936
   84SLPC   H2X 7945   2.018   6.356   2.796 -1.3292 -0.6292  1.0395
   84SLPC   H2Y 7946   2.167   6.280   2.872  0.8767 -0.4164  0.0654
   84SLPC   C23 7947   1.610   5.684   3.119 -0.7022  0.2926 -0.4018
   84SLPC   H3R 7948   1.674   5.692   3.210  0.1456  1.1072 -1.0597
   84SLPC   H3S 7949   1.648   5.588   3.078  0.1186  0.3513  0.1922
   84SLPC   C24 7950   1.461   5.661   3.162 -0.3682  0.5574  0.2036
   84SLPC   H4R 7951   1.431   5.735   3.239 -0.0323  0.1380  0.7384
   84SLPC   H4S 7952   1.462   5.565   3.217 -1.0420  1.8730  2.6397
   84SLPC   C25 7953   1.358   5.643   3.042  0.2533 -1.0718  0.4901
   84SLPC   H5R 7954   1.388   5.551   2.987 -0.2603 -0.3224 -1.1062
   84SLPC   H5S 7955   1.362   5.730   2.973  1.3064  0.5029  2.4196
   84SLPC   C26 7956   1.218   5.628   3.094 -0.4663 -0.7917  0.1559
   84SLPC   H6R 7957   1.222   5.663   3.200  1.1766 -1.5973  0.3944
   84SLPC   H6S 7958   1.207   5.518   3.108  3.3643 -1.2786  0.4723
   84SLPC   C27 7959   1.102   5.683   3.015 -0.6035  0.2447  0.8136
   84SLPC   H7R 7960   1.106   5.631   2.917 -0.0830 -2.2957  2.1040
   84SLPC   H7S 7961   1.118   5.793   3.014  1.3983 -0.0128  0.3126
   84SLPC   C28 7962   0.966   5.669   3.085  0.4629  0.1633 -0.1163
   84SLPC   H8R 7963   0.937   5.564   3.106  2.4729 -0.5235 -0.5084
   84SLPC   H8S 7964   0.894   5.694   3.003 -3.3281 -0.1556  2.8340
   84SLPC   C29 7965   0.944   5.767   3.200  0.5928  0.4497  0.3573
   84SLPC   H9R 7966   0.917   5.871   3.178  2.1722  1.5303  2.9937
   84SLPC  C210 7967   0.952   5.743   3.335  0.3840  0.3215  0.1616
   84SLPC  H10R 7968   0.939   5.826   3.407  0.1645  2.6593 -2.4137
   84SLPC  C211 7969   0.978   5.610   3.405 -0.1629  0.0560 -0.5057
   84SLPC  H11R 7970   1.022   5.628   3.506 -0.8189 -0.7584 -0.0635
   84SLPC  H11S 7971   1.051   5.549   3.348 -0.4279 -1.9111  1.1360
   84SLPC  C212 7972   0.857   5.520   3.422 -0.4775  0.2328 -0.4147
   84SLPC  H12R 7973   0.760   5.559   3.387 -1.4941 -1.5656  0.2638
   84SLPC  C213 7974   0.867   5.407   3.492  0.1665 -0.1376  0.1407
   84SLPC  H13R 7975   0.773   5.350   3.499 -0.6446  1.0292 -0.9876
   84SLPC  C214 7976   0.989   5.348   3.557  0.8304  0.5331  0.0750
   84SLPC  H14R 7977   1.083   5.407   3.554  1.5467 -0.5728  0.2112
   84SLPC  H14S 7978   1.013   5.264   3.489 -0.5512  0.6396 -0.5981
   84SLPC  C215 7979   0.965   5.308   3.698 -0.7783 -0.7542 -0.2949
   84SLPC  H15R 7980   1.059   5.263   3.738  0.1918  0.2647 -1.3468
   84SLPC  H15S 7981   0.879   5.238   3.697 -0.7675 -0.7627 -1.3573
   84SLPC  C216 7982   0.936   5.423   3.801  0.2474  0.2664  0.7421
   84SLPC  H16R 7983   0.831   5.457   3.785 -0.3683 -0.7611  2.3811
   84SLPC  H16S 7984   1.009   5.507   3.791  2.6974 -1.8235 -0.0706
   84SLPC  C217 7985   0.943   5.374   3.949 -0.2047  0.1593 -0.6500
   84SLPC  H17R 7986   0.933   5.459   4.019  0.6354 -0.9908  0.9423
   84SLPC  H17S 7987   1.046   5.338   3.970  0.1154  2.2184  1.8353
   84SLPC  C218 7988   0.840   5.265   3.989 -0.8156  0.1976  0.2080
   84SLPC  H18R 7989   0.851   5.180   3.917  0.0582 -0.1772  0.7692
   84SLPC  H18S 7990   0.736   5.294   4.012 -0.7971 -0.7584  1.6397
   84SLPC  H18T 7991   0.862   5.218   4.087 -1.7432 -1.6791 -0.4331
   84SLPC   C33 7992   1.970   6.265   2.982  0.4331  0.0752 -0.5382
   84SLPC   H3X 7993   1.861   6.257   2.964  0.5026  0.1120 -1.0076
   84SLPC   H3Y 7994   1.994   6.362   3.031 -0.9914 -0.1912  0.7438
   84SLPC   C34 7995   2.004   6.146   3.082  0.1137 -0.4008  0.1515
   84SLPC   H4X 7996   2.090   6.172   3.148 -1.0995  2.0451  0.9159
   84SLPC   H4Y 7997   2.042   6.061   3.023 -1.1729  0.3775 -1.8864
   84SLPC   C35 7998   1.889   6.096   3.175  0.0815  0.0171 -0.0827
   84SLPC   H5X 7999   1.814   6.062   3.101  1.3283  1.8753 -2.3318
   84SLPC   H5Y 8000   1.855   6.176   3.245 -0.0729 -1.4579  1.5941
   84SLPC   C36 8001   1.934   5.974   3.254 -0.3531  0.2223 -0.8143
   84SLPC   H6X 8002   2.032   5.995   3.303 -0.9845  0.7687  0.2536
   84SLPC   H6Y 8003   1.944   5.885   3.189  2.4562 -1.3799  1.5832
   84SLPC   C37 8004   1.840   5.958   3.368  1.1627  0.1404 -0.0285
   84SLPC   H7X 8005   1.747   5.910   3.332 -0.3290  2.2976  0.7002
   84SLPC   H7Y 8006   1.816   6.055   3.418 -2.1863 -0.6257  0.0863
   84SLPC   C38 8007   1.901   5.862   3.471 -0.1465 -0.7682 -1.0014
   84SLPC   H8X 8008   1.833   5.840   3.556  0.3065  0.4255 -0.2884
   84SLPC   H8Y 8009   1.977   5.927   3.522  0.9586 -1.7119 -1.4041
   84SLPC   C39 8010   1.958   5.735   3.411 -0.0657 -0.2986 -0.7529
   84SLPC   H9X 8011   2.056   5.752   3.361 -0.3329 -1.0267 -1.5636
   84SLPC   H9Y 8012   1.887   5.700   3.332 -0.8812 -3.7012  1.2620
   84SLPC  C310 8013   1.976   5.622   3.515  0.3868 -0.4982 -0.3875
   84SLPC  H10X 8014   2.015   5.654   3.614  3.1840 -2.2001 -0.8183
   84SLPC  H10Y 8015   2.044   5.555   3.457 -0.7172 -1.4491 -0.6202
   84SLPC  C311 8016   1.849   5.552   3.545  0.6481 -0.0691  0.7844
   84SLPC  H11X 8017   1.798   5.504   3.458 -2.2751  0.3506  2.1449
   84SLPC  H11Y 8018   1.775   5.628   3.578 -0.9101 -0.8724 -0.6602
   84SLPC  C312 8019   1.861   5.445   3.656 -0.5162 -1.3112  0.5575
   84SLPC  H12X 8020   1.766   5.397   3.689 -1.8805  0.2171 -0.9608
   84SLPC  H12Y 8021   1.903   5.499   3.744  0.0638  0.8846 -0.9917
   84SLPC  C313 8022   1.966   5.341   3.617  0.2498  0.3049 -0.1081
   84SLPC  H13X 8023   2.065   5.387   3.595  0.1673  0.1778 -0.7512
   84SLPC  H13Y 8024   1.947   5.290   3.520 -0.2811 -0.6843  0.5033
   84SLPC  C314 8025   1.981   5.237   3.726 -0.0703 -0.1658  0.8640
   84SLPC  H14X 8026   2.032   5.146   3.687  0.5861  0.6854 -0.2977
   84SLPC  H14Y 8027   1.879   5.205   3.756 -0.5345  1.5144  1.1710
   84SLPC  C315 8028   2.058   5.292   3.851 -0.6106  0.0090 -0.2298
   84SLPC  H15X 8029   2.016   5.392   3.877  1.0043  0.5350  0.5052
   84SLPC  H15Y 8030   2.165   5.294   3.820 -1.1769 -3.0900 -2.9006
   84SLPC  C316 8031   2.048   5.196   3.974 -0.0660  0.7031 -0.5476
   84SLPC  H16X 8032   2.111   5.107   3.958 -1.1781 -0.4671  1.2063
   84SLPC  H16Y 8033   1.947   5.152   3.986  0.2028 -0.1855 -1.4841
   84SLPC  C317 8034   2.097   5.257   4.106 -0.4989  0.1102 -0.1587
   84SLPC  H17X 8035   2.040   5.349   4.130  1.3878  1.5639 -1.0146
   84SLPC  H17Y 8036   2.203   5.287   4.089 -0.7960  1.2129 -0.1523
   84SLPC  C318 8037   2.083   5.158   4.227  0.3075  0.3632 -0.0922
   84SLPC  H18X 8038   1.979   5.134   4.259  0.4438  0.3528  0.3543
   84SLPC  H18Y 8039   2.132   5.211   4.312 -2.2178  1.7985  0.5637
   84SLPC  H18Z 8040   2.135   5.064   4.198  0.4388  0.1355  0.8415
   85SLPC     N 8041   6.513   1.957   2.409 -0.4176  0.2961 -0.2523
   85SLPC   C13 8042   6.492   2.023   2.278 -0.0045  0.5565 -0.2421
   85SLPC  H13A 8043   6.409   2.091   2.282 -0.0956  0.4097  0.3404
   85SLPC  H13B 8044   6.579   2.080   2.249 -0.6139  0.4591 -2.4291
   85SLPC  H13C 8045   6.473   1.947   2.204  0.0503 -0.5420  0.8360
   85SLPC   C14 8046   6.525   2.057   2.520 -0.3834  0.2653  0.4770
   85SLPC  H14A 8047   6.592   2.136   2.491  3.3073 -2.5469  0.6243
   85SLPC  H14B 8048   6.429   2.100   2.547  0.4166  0.8030  2.6656
   85SLPC  H14C 8049   6.562   2.016   2.613 -0.4561  0.3664  0.5508
   85SLPC   C15 8050   6.651   1.895   2.397 -0.5315 -0.0053  0.6522
   85SLPC  H15A 8051   6.673   1.829   2.480  1.3926 -1.0846 -0.6365
   85SLPC  H15B 8052   6.661   1.833   2.309  1.1431  3.8717 -2.1393
   85SLPC  H15C 8053   6.736   1.961   2.396 -0.0273 -0.6222 -1.5214
   85SLPC   C12 8054   6.410   1.858   2.445  0.5214  0.0408 -1.3621
   85SLPC  H12A 8055   6.434   1.828   2.546 -1.4093  2.3268 -0.1416
   85SLPC  H12B 8056   6.432   1.767   2.391 -1.0074 -1.4691  0.4525
   85SLPC   C11 8057   6.261   1.894   2.426 -0.4811  0.3376  0.0566
   85SLPC  H11A 8058   6.206   1.805   2.464  0.3064  1.1914  3.5452
   85SLPC  H11B 8059   6.240   1.893   2.317 -0.1770  1.4753 -0.0206
   85SLPC     P 8060   6.179   2.008   2.651  0.1406 -0.1199  0.1616
   85SLPC   O13 8061   6.251   2.115   2.725 -0.3571  0.0394  0.3153
   85SLPC   O14 8062   6.031   2.015   2.653 -0.5399 -0.1565  0.0855
   85SLPC   O12 8063   6.229   2.011   2.503  0.2073  0.7055  0.6364
   85SLPC   O11 8064   6.228   1.866   2.704 -0.0465 -0.0654 -0.3456
   85SLPC    C1 8065   6.354   1.850   2.776 -0.3378 -0.5135  0.7185
   85SLPC    HA 8066   6.389   1.744   2.773  1.6748 -0.0129  2.7935
   85SLPC    HB 8067   6.439   1.909   2.736 -1.3368  0.8635  0.5680
   85SLPC    C2 8068   6.337   1.873   2.925 -0.3616  0.4180  0.3104
   85SLPC    HS 8069   6.340   1.983   2.943 -1.6145  0.5323 -0.1234
   85SLPC   O21 8070   6.452   1.820   2.994  0.3090 -0.1767  0.3138
   85SLPC   C21 8071   6.503   1.896   3.092  0.6616 -0.2597  0.4776
   85SLPC   O22 8072   6.472   2.012   3.121 -0.5438  0.2759 -0.0963
   85SLPC   C22 8073   6.617   1.827   3.161  0.5306  0.4031  0.2281
   85SLPC   H2R 8074   6.589   1.722   3.186  2.6745 -0.9276 -2.3894
   85SLPC   H2S 8075   6.701   1.837   3.088 -0.7451  2.8646 -1.0107
   85SLPC    C3 8076   6.211   1.816   2.986  0.3602  0.0887  0.1867
   85SLPC    HX 8077   6.220   1.706   2.975  0.4603 -0.0309  1.3080
   85SLPC    HY 8078   6.125   1.854   2.927  0.4658 -0.2537 -0.1883
   85SLPC   O31 8079   6.202   1.838   3.131  0.0093 -0.3579  0.3307
   85SLPC   C31 8080   6.150   1.955   3.168  0.0661 -0.0681  0.2559
   85SLPC   O32 8081   6.100   2.038   3.095  0.1246  0.0846  0.1243
   85SLPC   C32 8082   6.166   1.974   3.325 -0.4418  0.2646  0.1313
   85SLPC   H2X 8083   6.082   1.933   3.385  0.0746 -0.7337  0.1968
   85SLPC   H2Y 8084   6.172   2.082   3.349  1.1875  0.5517 -1.3651
   85SLPC   C23 8085   6.659   1.896   3.294 -0.2068  0.1528 -0.8432
   85SLPC   H3R 8086   6.575   1.932   3.357  0.4827  0.8443 -0.3061
   85SLPC   H3S 8087   6.728   1.981   3.275  0.1501 -0.3125 -1.6929
   85SLPC   C24 8088   6.734   1.801   3.389 -0.2887 -0.3625 -0.2772
   85SLPC   H4R 8089   6.821   1.764   3.330  0.9765 -1.2585  2.0425
   85SLPC   H4S 8090   6.676   1.719   3.437 -0.2293 -0.1144  0.2265
   85SLPC   C25 8091   6.800   1.879   3.505 -0.0329 -1.0501 -0.1326
   85SLPC   H5R 8092   6.880   1.944   3.466  1.4237 -2.7252 -0.0426
   85SLPC   H5S 8093   6.726   1.954   3.541 -0.5416 -1.8404  0.5256
   85SLPC   C26 8094   6.845   1.799   3.629  0.0146  0.0510  1.3861
   85SLPC   H6R 8095   6.898   1.707   3.596 -0.8291 -0.1606  0.5839
   85SLPC   H6S 8096   6.759   1.746   3.676  1.0182 -2.2685  0.7821
   85SLPC   C27 8097   6.915   1.890   3.726 -0.0911  0.5762 -0.6054
   85SLPC   H7R 8098   6.851   1.973   3.762 -0.0121  0.0687  0.7966
   85SLPC   H7S 8099   6.994   1.938   3.664 -0.5297  0.3349 -1.3631
   85SLPC   C28 8100   6.997   1.822   3.839  0.4250 -0.1153 -0.0222
   85SLPC   H8R 8101   7.080   1.892   3.862 -0.7318  0.8039  1.5363
   85SLPC   H8S 8102   7.042   1.731   3.795 -0.1883 -0.6674  0.4724
   85SLPC   C29 8103   6.912   1.780   3.957  0.4261 -1.1253  0.2356
   85SLPC   H9R 8104   6.806   1.806   3.944  0.4357 -2.1331 -2.3539
   85SLPC  C210 8105   6.962   1.730   4.069  0.3367 -0.1512 -0.1388
   85SLPC  H10R 8106   6.901   1.699   4.155  0.9092 -0.0955  0.2936
   85SLPC  C211 8107   7.108   1.694   4.092  0.0935  0.4938  0.0671
   85SLPC  H11R 8108   7.162   1.697   3.996 -0.5836 -3.7718 -0.6430
   85SLPC  H11S 8109   7.111   1.587   4.119  0.0025  0.4942  0.0826
   85SLPC  C212 8110   7.156   1.784   4.198 -0.3652  0.0743  0.6421
   85SLPC  H12R 8111   7.207   1.874   4.163 -1.8096  0.4088 -0.7315
   85SLPC  C213 8112   7.150   1.749   4.325  0.2484 -0.0052  0.7355
   85SLPC  H13R 8113   7.197   1.813   4.401  0.8558  1.2083 -0.6212
   85SLPC  C214 8114   7.099   1.627   4.393 -0.6390  0.7464  0.1780
   85SLPC  H14R 8115   7.047   1.556   4.325  2.6653 -1.8562  0.1213
   85SLPC  H14S 8116   7.025   1.660   4.469 -0.3266  0.7761  0.4710
   85SLPC  C215 8117   7.219   1.554   4.468 -0.0496  0.4593 -0.1273
   85SLPC  H15R 8118   7.245   1.615   4.557 -2.4409 -0.7080  1.4806
   85SLPC  H15S 8119   7.306   1.549   4.399  0.7972 -0.9065  0.9925
   85SLPC  C216 8120   7.181   1.418   4.537  0.2231  0.7735 -0.6357
   85SLPC  H16R 8121   7.264   1.351   4.505 -0.0396  0.3623 -0.4595
   85SLPC  H16S 8122   7.080   1.382   4.507 -0.3756  1.5393  0.3956
   85SLPC  C217 8123   7.195   1.410   4.694  0.0012 -0.2091  0.4796
   85SLPC  H17R 8124   7.178   1.308   4.733  0.3994 -1.3216 -2.0967
   85SLPC  H17S 8125   7.119   1.473   4.746  1.1513  0.1520  1.7998
   85SLPC  C218 8126   7.331   1.448   4.742 -0.0576  0.2474  0.4152
   85SLPC  H18R 8127   7.345   1.557   4.762  0.3240 -0.0565  1.8856
   85SLPC  H18S 8128   7.401   1.411   4.664  0.4685 -1.0745  1.4953
   85SLPC  H18T 8129   7.361   1.393   4.833  4.7322 -0.5021 -1.3133
   85SLPC   C33 8130   6.299   1.915   3.379  0.4636  0.7747  0.4364
   85SLPC   H3X 8131   6.382   1.987   3.363  0.7933  0.8178  2.2180
   85SLPC   H3Y 8132   6.319   1.819   3.327 -1.3282 -0.4549  1.8845
   85SLPC   C34 8133   6.296   1.870   3.526  0.1231  0.3921 -0.6984
   85SLPC   H4X 8134   6.403   1.864   3.556  0.1997  1.6760 -0.6767
   85SLPC   H4Y 8135   6.243   1.773   3.541 -0.4491  0.7452 -0.4510
   85SLPC   C35 8136   6.239   1.972   3.624  0.4503 -0.2240 -0.5146
   85SLPC   H5X 8137   6.129   1.960   3.612  0.5614 -0.9337 -0.8837
   85SLPC   H5Y 8138   6.262   2.072   3.583 -3.1776  1.6498  1.4602
   85SLPC   C36 8139   6.285   1.956   3.769 -0.2399  0.2813  0.1845
   85SLPC   H6X 8140   6.381   1.901   3.784 -2.1956 -3.7244 -0.7259
   85SLPC   H6Y 8141   6.217   1.884   3.820 -0.7664 -0.3605 -1.3900
   85SLPC   C37 8142   6.280   2.088   3.841  0.5337 -0.3057  0.3792
   85SLPC   H7X 8143   6.176   2.128   3.843  0.9632  0.8716  0.2114
   85SLPC   H7Y 8144   6.328   2.169   3.782  0.4884 -1.4164 -1.2331
   85SLPC   C38 8145   6.324   2.085   3.989 -0.0413 -0.1195 -0.2975
   85SLPC   H8X 8146   6.435   2.088   3.993 -0.0663  3.2458  2.2431
   85SLPC   H8Y 8147   6.298   1.991   4.041  1.1117 -0.0348  0.4516
   85SLPC   C39 8148   6.270   2.208   4.071  0.8701  0.0353 -0.4111
   85SLPC   H9X 8149   6.161   2.197   4.091  1.0385  0.8326  1.1085
   85SLPC   H9Y 8150   6.286   2.304   4.018 -1.3376  0.7869  0.1692
   85SLPC  C310 8151   6.339   2.215   4.206 -0.0332  0.1508 -0.0129
   85SLPC  H10X 8152   6.336   2.324   4.229  1.6742  0.2412 -0.1395
   85SLPC  H10Y 8153   6.446   2.188   4.198 -0.5410 -1.5970 -1.8156
   85SLPC  C311 8154   6.273   2.137   4.320  0.0050 -0.4086  0.7684
   85SLPC  H11X 8155   6.253   2.039   4.271 -0.5427  0.2688 -0.4029
   85SLPC  H11Y 8156   6.177   2.184   4.352  0.8318  1.5144  0.5498
   85SLPC  C312 8157   6.362   2.134   4.445 -0.0350 -0.5891  0.4634
   85SLPC  H12X 8158   6.356   2.228   4.504 -0.1350 -0.0187 -0.4310
   85SLPC  H12Y 8159   6.469   2.120   4.420 -0.4025 -1.0818 -0.9240
   85SLPC  C313 8160   6.317   2.038   4.550  0.1845 -0.1087  0.2753
   85SLPC  H13X 8161   6.320   1.938   4.501 -0.0948  0.7268 -1.5373
   85SLPC  H13Y 8162   6.209   2.059   4.564  0.2028  0.9243 -0.9241
   85SLPC  C314 8163   6.392   2.052   4.683  0.1270 -0.0973  0.6613
   85SLPC  H14X 8164   6.395   2.161   4.704 -0.9825 -0.0173  0.4966
   85SLPC  H14Y 8165   6.495   2.016   4.665  1.1454  2.9994 -0.3725
   85SLPC  C315 8166   6.330   1.993   4.805 -0.8727 -0.0307  0.1233
   85SLPC  H15X 8167   6.233   2.032   4.841  1.1188  0.8304  5.6067
   85SLPC  H15Y 8168   6.393   1.995   4.897 -0.5662  1.5315 -0.0886
   85SLPC  C316 8169   6.312   1.837   4.796  0.2515 -0.2596  0.0000
   85SLPC  H16X 8170   6.412   1.792   4.780  0.4096 -0.2879  0.9664
   85SLPC  H16Y 8171   6.238   1.806   4.720 -0.7589 -0.7452  1.1460
   85SLPC  C317 8172   6.253   1.784   4.936 -0.3898 -0.3933  0.1600
   85SLPC  H17X 8173   6.180   1.701   4.931 -0.1482 -0.6417  0.6758
   85SLPC  H17Y 8174   6.196   1.863   4.990  0.9604  0.1165  0.8730
   85SLPC  C318 8175   6.368   1.748   5.027 -0.2208  0.2252 -0.1414
   85SLPC  H18X 8176   6.415   1.840   5.066 -0.5170  0.1191  0.4669
   85SLPC  H18Y 8177   6.446   1.683   4.981 -2.0018 -0.5469 -2.2606
   85SLPC  H18Z 8178   6.330   1.685   5.110  0.1682  1.2907  0.8750
   86SLPC     N 8179   6.475   5.073   2.151 -0.1767 -0.4844 -0.3721
   86SLPC   C13 8180   6.601   5.065   2.067 -0.0929 -0.2505  0.4319
   86SLPC  H13A 8181   6.638   4.964   2.054  1.5585  0.0379  2.4234
   86SLPC  H13B 8182   6.588   5.113   1.971  1.7065  0.6429  0.6051
   86SLPC  H13C 8183   6.679   5.115   2.120 -1.6577  1.5918  1.0896
   86SLPC   C14 8184   6.373   4.976   2.101 -0.0395  0.3260  0.4428
   86SLPC  H14A 8185   6.372   4.981   1.993  1.0151  1.1695  0.4597
   86SLPC  H14B 8186   6.399   4.874   2.126  0.8189  0.1458 -1.0805
   86SLPC  H14C 8187   6.277   5.005   2.140  0.6304  0.6235  1.9264
   86SLPC   C15 8188   6.419   5.208   2.150  0.1201 -0.1011 -0.0944
   86SLPC  H15A 8189   6.336   5.213   2.220  1.6743  1.6788  1.7574
   86SLPC  H15B 8190   6.483   5.285   2.191 -0.8355  0.5490  0.2212
   86SLPC  H15C 8191   6.383   5.238   2.053  0.5839  1.1494  0.1079
   86SLPC   C12 8192   6.519   5.044   2.298  0.9173  0.4187  0.7574
   86SLPC  H12A 8193   6.433   5.014   2.355  1.2686 -0.1576  0.9981
   86SLPC  H12B 8194   6.566   5.134   2.333  0.0048  0.6156  1.5090
   86SLPC   C11 8195   6.612   4.923   2.338 -0.0327 -0.2811  0.5935
   86SLPC  H11A 8196   6.548   4.839   2.301 -0.2142  0.3941 -0.7105
   86SLPC  H11B 8197   6.623   4.924   2.448  1.3930 -1.3531  0.4896
   86SLPC     P 8198   6.861   4.991   2.311 -0.0860  0.2569  0.4152
   86SLPC   O13 8199   6.972   4.968   2.211  0.1459  0.1493 -0.4392
   86SLPC   O14 8200   6.811   5.128   2.334 -0.5261  0.4406 -0.4904
   86SLPC   O12 8201   6.736   4.910   2.266  0.2355 -0.3654 -0.5138
   86SLPC   O11 8202   6.898   4.924   2.448 -0.2640 -0.5471  0.6413
   86SLPC    C1 8203   6.935   4.799   2.484 -0.3681  0.9602 -0.4720
   86SLPC    HA 8204   6.927   4.724   2.402 -0.4395  0.5522 -0.0959
   86SLPC    HB 8205   7.042   4.798   2.514  0.5175  0.4678 -3.3457
   86SLPC    C2 8206   6.838   4.735   2.589  0.4999  1.1621  0.0999
   86SLPC    HS 8207   6.734   4.751   2.555 -0.3968  0.5387  2.3786
   86SLPC   O21 8208   6.872   4.799   2.714  0.2164  0.2526  0.5565
   86SLPC   C21 8209   6.774   4.805   2.803 -0.6547 -0.4583  0.1721
   86SLPC   O22 8210   6.661   4.757   2.796 -0.4869  0.6261  0.7077
   86SLPC   C22 8211   6.816   4.898   2.925 -0.3372  0.6896 -1.1699
   86SLPC   H2R 8212   6.920   4.877   2.960 -1.7245 -2.3619  1.7435
   86SLPC   H2S 8213   6.818   5.000   2.881 -0.3258  1.4608  0.5522
   86SLPC    C3 8214   6.878   4.577   2.597 -0.7535 -0.0816 -0.0675
   86SLPC    HX 8215   6.989   4.576   2.606 -0.7135 -0.0118 -0.5548
   86SLPC    HY 8216   6.850   4.541   2.496 -0.0825 -2.6453  0.5997
   86SLPC   O31 8217   6.808   4.500   2.698  0.3674  0.3959 -0.4720
   86SLPC   C31 8218   6.679   4.463   2.684  0.0581  0.0792 -0.5783
   86SLPC   O32 8219   6.618   4.474   2.582  0.4898 -0.1593  0.0550
   86SLPC   C32 8220   6.629   4.403   2.818  0.1609 -0.0411  0.3749
   86SLPC   H2X 8221   6.650   4.295   2.803  1.6853  0.2316  0.4028
   86SLPC   H2Y 8222   6.518   4.412   2.809  0.3789  1.9372 -1.0368
   86SLPC   C23 8223   6.735   4.877   3.059 -0.1369  0.5335 -0.1408
   86SLPC   H3R 8224   6.762   4.771   3.080  0.1555 -0.1208 -3.3173
   86SLPC   H3S 8225   6.625   4.886   3.048 -0.3207 -0.3716  0.7353
   86SLPC   C24 8226   6.788   4.957   3.173  0.7189 -0.4780 -0.1774
   86SLPC   H4R 8227   6.739   5.057   3.168 -0.4226 -1.0624 -3.9021
   86SLPC   H4S 8228   6.894   4.984   3.157  0.9220 -0.7596  0.6277
   86SLPC   C25 8229   6.755   4.889   3.304 -0.2332 -0.9972 -0.2169
   86SLPC   H5R 8230   6.787   4.783   3.289  1.6243 -1.1698  3.7401
   86SLPC   H5S 8231   6.645   4.880   3.317 -0.2601  1.5422  1.9736
   86SLPC   C26 8232   6.807   4.949   3.429  0.1988 -0.1648  0.1545
   86SLPC   H6R 8233   6.744   5.039   3.444 -0.0617 -0.4825  0.9805
   86SLPC   H6S 8234   6.911   4.989   3.422  0.3274 -0.6193 -0.6266
   86SLPC   C27 8235   6.797   4.877   3.557  0.1502  0.0748  0.7367
   86SLPC   H7R 8236   6.848   4.779   3.552 -0.0329  0.0017  0.2923
   86SLPC   H7S 8237   6.687   4.864   3.567  0.1883 -2.2470 -1.1915
   86SLPC   C28 8238   6.840   4.955   3.682 -0.2966  0.1367 -0.4665
   86SLPC   H8R 8239   6.807   5.061   3.671 -1.5238 -0.1394  0.3797
   86SLPC   H8S 8240   6.951   4.963   3.687 -0.1398 -1.7298 -0.3429
   86SLPC   C29 8241   6.782   4.890   3.808 -0.0295 -0.3130 -0.1249
   86SLPC   H9R 8242   6.831   4.796   3.836 -1.4279 -1.1839 -0.4863
   86SLPC  C210 8243   6.676   4.926   3.874 -0.4664 -0.0699 -0.8519
   86SLPC  H10R 8244   6.648   4.876   3.968  0.9000  0.8313  0.0612
   86SLPC  C211 8245   6.588   5.046   3.837 -0.8728  0.2067  0.2979
   86SLPC  H11R 8246   6.603   5.084   3.734 -0.8970  1.1683  0.6333
   86SLPC  H11S 8247   6.611   5.133   3.902  1.5311  0.5233 -0.8649
   86SLPC  C212 8248   6.443   5.025   3.874 -0.4814  0.7436  0.6815
   86SLPC  H12R 8249   6.382   4.991   3.789  0.0318 -0.1252  0.6507
   86SLPC  C213 8250   6.379   5.041   3.989  0.3567 -0.1137  0.9507
   86SLPC  H13R 8251   6.273   5.012   3.995  0.1559  0.7435  2.0627
   86SLPC  C214 8252   6.430   5.084   4.125  0.7649 -0.6961  0.4790
   86SLPC  H14R 8253   6.381   5.179   4.154 -0.7507 -1.8601  1.9393
   86SLPC  H14S 8254   6.541   5.092   4.132  0.7792 -0.4264  0.0150
   86SLPC  C215 8255   6.387   4.990   4.242 -0.5488 -0.5763 -0.0227
   86SLPC  H15R 8256   6.399   4.881   4.221 -2.5837 -1.3480  2.2675
   86SLPC  H15S 8257   6.277   4.999   4.252 -0.3540  3.2219 -0.0183
   86SLPC  C216 8258   6.439   5.032   4.375  0.1059  0.2575  0.3112
   86SLPC  H16R 8259   6.428   5.141   4.393 -0.6023  0.1356  0.6446
   86SLPC  H16S 8260   6.547   5.007   4.372  0.2658  1.0021 -1.4633
   86SLPC  C217 8261   6.368   4.970   4.499  0.0750  0.1459  0.6191
   86SLPC  H17R 8262   6.377   4.859   4.498  1.3144  0.2137  1.7988
   86SLPC  H17S 8263   6.259   4.991   4.488  0.2905  0.2615 -1.6677
   86SLPC  C218 8264   6.411   5.035   4.633  0.4056  0.1709  0.0805
   86SLPC  H18R 8265   6.349   4.988   4.712 -0.8687 -0.2763 -1.1291
   86SLPC  H18S 8266   6.380   5.141   4.638 -1.3973 -0.3416  0.3195
   86SLPC  H18T 8267   6.519   5.014   4.652  0.3783  0.2713  0.3413
   86SLPC   C33 8268   6.684   4.461   2.957 -0.4445 -0.1067 -0.2722
   86SLPC   H3X 8269   6.673   4.572   2.962 -0.2051 -0.1356  1.9739
   86SLPC   H3Y 8270   6.792   4.435   2.971 -0.7155 -0.6222  1.0477
   86SLPC   C34 8271   6.603   4.416   3.081 -0.6571 -0.1041 -0.0655
   86SLPC   H4X 8272   6.605   4.305   3.093  0.4124  0.0078  0.8910
   86SLPC   H4Y 8273   6.498   4.452   3.068 -1.7439 -3.0308 -0.1544
   86SLPC   C35 8274   6.657   4.476   3.206 -0.5908 -0.6418  0.4039
   86SLPC   H5X 8275   6.640   4.585   3.202  1.4606 -0.3206 -1.3492
   86SLPC   H5Y 8276   6.767   4.455   3.202  0.5862  4.2720  0.6897
   86SLPC   C36 8277   6.592   4.421   3.332  0.2803  1.1040  0.5130
   86SLPC   H6X 8278   6.646   4.327   3.353  0.6580  1.0637 -0.5848
   86SLPC   H6Y 8279   6.484   4.396   3.325  0.5458  0.3925 -1.6959
   86SLPC   C37 8280   6.600   4.514   3.451  0.4054 -0.4371 -0.5855
   86SLPC   H7X 8281   6.529   4.598   3.437  3.4137  2.6342  0.8511
   86SLPC   H7Y 8282   6.703   4.557   3.452  0.1124  0.4639  2.4348
   86SLPC   C38 8283   6.569   4.450   3.584  0.1106  0.0208  0.7858
   86SLPC   H8X 8284   6.646   4.370   3.588  0.4637  0.3756  1.1064
   86SLPC   H8Y 8285   6.472   4.397   3.586  1.0479 -1.7942  0.2988
   86SLPC   C39 8286   6.596   4.534   3.707 -0.1854 -0.6539 -0.4833
   86SLPC   H9X 8287   6.502   4.593   3.716  0.8540  0.9240  0.6216
   86SLPC   H9Y 8288   6.687   4.597   3.695 -0.8036  0.7361  1.4864
   86SLPC  C310 8289   6.604   4.455   3.842  0.0162  0.0363  0.3417
   86SLPC  H10X 8290   6.689   4.383   3.849 -0.8658 -0.8883  3.4891
   86SLPC  H10Y 8291   6.516   4.388   3.848  0.0006 -0.3313 -2.7659
   86SLPC  C311 8292   6.620   4.546   3.959 -0.1742 -0.0296 -0.1442
   86SLPC  H11X 8293   6.555   4.636   3.955 -0.3929 -0.2036 -0.6061
   86SLPC  H11Y 8294   6.718   4.597   3.950 -1.3150  2.1992 -0.6520
   86SLPC  C312 8295   6.599   4.482   4.099 -0.0109  0.9297  0.2856
   86SLPC  H12X 8296   6.692   4.423   4.115 -0.3783  0.7235  1.8981
   86SLPC  H12Y 8297   6.517   4.407   4.088  1.8687 -0.8414 -2.9521
   86SLPC  C313 8298   6.586   4.575   4.216 -0.4358  0.3813 -0.4434
   86SLPC  H13X 8299   6.496   4.640   4.203  0.8480  2.4242  0.4317
   86SLPC  H13Y 8300   6.674   4.643   4.215 -1.1923  1.3924 -2.1431
   86SLPC  C314 8301   6.599   4.506   4.353  0.0441  0.6905  0.0084
   86SLPC  H14X 8302   6.692   4.446   4.349 -0.6254 -0.3315 -2.0243
   86SLPC  H14Y 8303   6.520   4.429   4.368  1.4325 -0.7092  0.3126
   86SLPC  C315 8304   6.607   4.593   4.479 -0.3825 -0.7183  0.2215
   86SLPC  H15X 8305   6.639   4.527   4.563  0.2153  0.6752  1.1292
   86SLPC  H15Y 8306   6.507   4.636   4.499  0.7271  2.0631  0.3100
   86SLPC  C316 8307   6.711   4.713   4.471 -0.1977  0.6571 -0.3031
   86SLPC  H16X 8308   6.692   4.773   4.380  2.3950 -1.0099 -2.1110
   86SLPC  H16Y 8309   6.816   4.676   4.470 -0.2806  0.3541 -2.2123
   86SLPC  C317 8310   6.699   4.796   4.604  0.6878  0.0481  0.4111
   86SLPC  H17X 8311   6.732   4.731   4.688 -0.0922 -0.2369  0.5039
   86SLPC  H17Y 8312   6.590   4.815   4.612  1.0269  2.6007 -0.2986
   86SLPC  C318 8313   6.777   4.928   4.600 -0.3345  0.3857 -0.4793
   86SLPC  H18X 8314   6.744   5.000   4.522 -3.2043 -1.9961 -1.6472
   86SLPC  H18Y 8315   6.883   4.896   4.588 -0.9923 -2.7644  0.9980
   86SLPC  H18Z 8316   6.793   4.970   4.702  2.6122  0.9493 -1.0897
   87SLPC     N 8317   3.741   2.212   2.478  0.1782 -0.5480 -0.2410
   87SLPC   C13 8318   3.831   2.167   2.365  0.6289 -0.2446 -0.6444
   87SLPC  H13A 8319   3.816   2.060   2.356 -1.0154 -0.0066 -0.9247
   87SLPC  H13B 8320   3.797   2.209   2.271  0.0193  1.8341  0.4620
   87SLPC  H13C 8321   3.933   2.195   2.387  0.5344  0.1529 -0.7131
   87SLPC   C14 8322   3.782   2.141   2.602 -0.3910 -0.2794 -0.0579
   87SLPC  H14A 8323   3.819   2.039   2.598 -1.4637 -0.6477 -1.1399
   87SLPC  H14B 8324   3.870   2.191   2.641 -1.3994  0.4302  1.3674
   87SLPC  H14C 8325   3.700   2.142   2.672 -0.4568  1.3499 -0.1186
   87SLPC   C15 8326   3.594   2.172   2.448 -0.2135 -0.4216 -0.3341
   87SLPC  H15A 8327   3.559   2.223   2.360  0.4612  0.7876  0.0798
   87SLPC  H15B 8328   3.591   2.065   2.434  1.4272 -0.4398 -0.6667
   87SLPC  H15C 8329   3.523   2.201   2.525 -1.3011  0.9140 -1.7746
   87SLPC   C12 8330   3.742   2.362   2.501  0.1821  0.6607  0.5918
   87SLPC  H12A 8331   3.675   2.388   2.582 -0.9993  1.9467 -0.7400
   87SLPC  H12B 8332   3.691   2.401   2.415  1.0294 -0.6505 -0.5458
   87SLPC   C11 8333   3.869   2.437   2.530 -0.9342 -0.0936  0.2114
   87SLPC  H11A 8334   3.853   2.547   2.532  0.6255  0.1812 -0.3775
   87SLPC  H11B 8335   3.944   2.420   2.450 -0.2516 -0.2231  0.8647
   87SLPC     P 8336   3.916   2.458   2.787  0.4958 -0.2944  0.5401
   87SLPC   O13 8337   3.951   2.361   2.892 -0.1372 -0.7165  0.0622
   87SLPC   O14 8338   4.002   2.578   2.777  0.2994 -0.5870  0.3795
   87SLPC   O12 8339   3.918   2.380   2.653 -0.1154  0.3115 -0.6012
   87SLPC   O11 8340   3.761   2.494   2.800 -0.0763  0.7306  0.9553
   87SLPC    C1 8341   3.708   2.627   2.801 -0.2588  0.2238  0.0348
   87SLPC    HA 8342   3.788   2.697   2.768  0.6189 -2.0435 -3.0726
   87SLPC    HB 8343   3.618   2.633   2.736 -1.9849  1.5977  2.3806
   87SLPC    C2 8344   3.661   2.662   2.943 -0.2528  0.5181  0.2009
   87SLPC    HS 8345   3.609   2.759   2.953 -0.4277  0.2067  3.9135
   87SLPC   O21 8346   3.773   2.664   3.036  1.0511 -0.0659 -0.0885
   87SLPC   C21 8347   3.849   2.776   3.026  0.7102  0.9192  0.2028
   87SLPC   O22 8348   3.819   2.874   2.954  0.2536  0.1990 -0.6876
   87SLPC   C22 8349   3.981   2.740   3.099  0.0304 -0.0309  0.3499
   87SLPC   H2R 8350   3.977   2.630   3.116  0.8782 -0.1601 -0.1996
   87SLPC   H2S 8351   4.062   2.747   3.023 -1.7471 -2.1708 -1.9169
   87SLPC    C3 8352   3.557   2.560   2.988  1.2213  0.3613 -0.0480
   87SLPC    HX 8353   3.598   2.459   2.964  0.5848  0.6929 -2.8339
   87SLPC    HY 8354   3.468   2.564   2.921  1.7038 -0.1125 -0.7354
   87SLPC   O31 8355   3.526   2.566   3.135 -0.2761 -0.4565 -0.1079
   87SLPC   C31 8356   3.461   2.683   3.165 -0.8606  0.5591  0.4762
   87SLPC   O32 8357   3.415   2.767   3.091  0.4407 -0.1694  0.4218
   87SLPC   C32 8358   3.477   2.696   3.313 -0.3589 -1.4397 -0.0289
   87SLPC   H2X 8359   3.584   2.685   3.340 -0.0833  1.5328  0.3442
   87SLPC   H2Y 8360   3.415   2.614   3.355  1.0966 -2.0374  1.0372
   87SLPC   C23 8361   4.009   2.825   3.226 -0.0566 -0.1708  0.0776
   87SLPC   H3R 8362   3.993   2.934   3.213 -1.3615 -0.3624 -0.0204
   87SLPC   H3S 8363   4.114   2.819   3.263  0.7067  2.7146 -1.3161
   87SLPC   C24 8364   3.917   2.794   3.342  0.1579  1.0680  1.2586
   87SLPC   H4R 8365   3.925   2.685   3.364  2.1619  1.1044  0.8787
   87SLPC   H4S 8366   3.810   2.809   3.314  0.3527 -1.4575 -1.1974
   87SLPC   C25 8367   3.949   2.875   3.471 -0.5747  0.3337  0.9769
   87SLPC   H5R 8368   3.960   2.979   3.433  1.2668 -0.3034 -0.3925
   87SLPC   H5S 8369   4.043   2.839   3.519  0.8454 -1.9315 -3.0335
   87SLPC   C26 8370   3.836   2.863   3.564  0.2240 -0.2003  0.5461
   87SLPC   H6R 8371   3.814   2.760   3.601 -1.0791 -0.3340 -0.5158
   87SLPC   H6S 8372   3.740   2.888   3.514  0.3032  0.0682  0.5269
   87SLPC   C27 8373   3.842   2.964   3.681 -0.6329  0.2259 -0.5146
   87SLPC   H7R 8374   3.907   3.052   3.659 -2.5052  1.6106 -0.6956
   87SLPC   H7S 8375   3.885   2.902   3.763 -2.3113  1.3027  1.2801
   87SLPC   C28 8376   3.708   3.026   3.714  0.2106  0.1130 -0.2787
   87SLPC   H8R 8377   3.625   2.956   3.737 -0.3071  1.0602  0.8454
   87SLPC   H8S 8378   3.672   3.070   3.619  0.9813  0.8337 -0.2504
   87SLPC   C29 8379   3.738   3.127   3.821  0.0373  0.7844 -0.7712
   87SLPC   H9R 8380   3.793   3.217   3.791  1.0192  0.6474  0.5612
   87SLPC  C210 8381   3.681   3.118   3.946 -0.6487  0.1679 -0.1807
   87SLPC  H10R 8382   3.710   3.199   4.014 -0.1440 -0.9558  0.9777
   87SLPC  C211 8383   3.588   3.018   4.007  0.7791 -0.9859  0.1447
   87SLPC  H11R 8384   3.494   3.020   3.948  0.9549  0.1717 -0.1178
   87SLPC  H11S 8385   3.555   3.058   4.105  2.0557  1.2685 -0.2730
   87SLPC  C212 8386   3.641   2.880   4.042  0.1571  0.3256  0.3835
   87SLPC  H12R 8387   3.746   2.862   4.017 -0.1335 -1.7458  0.4283
   87SLPC  C213 8388   3.578   2.785   4.118  0.9239  0.1286 -0.8590
   87SLPC  H13R 8389   3.641   2.704   4.158 -1.7627 -1.8502 -0.3418
   87SLPC  C214 8390   3.436   2.790   4.172  0.3096 -0.7608  0.3268
   87SLPC  H14R 8391   3.425   2.688   4.215  1.3115 -1.0388 -0.0485
   87SLPC  H14S 8392   3.370   2.802   4.083  1.1164 -0.1209 -0.1959
   87SLPC  C215 8393   3.407   2.893   4.290 -0.5883  0.3085  0.1269
   87SLPC  H15R 8394   3.298   2.909   4.300 -0.2493  3.0789  0.1928
   87SLPC  H15S 8395   3.438   2.997   4.264  2.3130 -0.3940  0.3904
   87SLPC  C216 8396   3.480   2.867   4.423 -0.4247 -0.1247  0.2425
   87SLPC  H16R 8397   3.591   2.869   4.419 -0.3634  3.2043  0.8637
   87SLPC  H16S 8398   3.458   2.765   4.462  2.2030 -0.1830  1.8465
   87SLPC  C217 8399   3.453   2.976   4.531 -1.0758 -0.2694  0.2038
   87SLPC  H17R 8400   3.345   2.971   4.557 -0.9596 -0.2386  0.7028
   87SLPC  H17S 8401   3.488   3.074   4.492  1.0627 -1.2731 -0.5483
   87SLPC  C218 8402   3.531   2.957   4.666  0.5268 -1.2506 -0.5355
   87SLPC  H18R 8403   3.640   2.944   4.650  1.2844  0.7694  2.1951
   87SLPC  H18S 8404   3.513   2.861   4.718  1.3206 -1.4221 -0.5599
   87SLPC  H18T 8405   3.524   3.052   4.723  0.8729 -1.9077  0.6331
   87SLPC   C33 8406   3.429   2.834   3.367 -0.0088  0.1826 -0.3342
   87SLPC   H3X 8407   3.354   2.888   3.304 -1.4057  1.4129  2.2021
   87SLPC   H3Y 8408   3.522   2.892   3.380  0.4119 -0.9046  1.9800
   87SLPC   C34 8409   3.374   2.800   3.508  0.4959 -0.1993 -0.5229
   87SLPC   H4X 8410   3.456   2.753   3.568  1.1595  0.5148 -0.8520
   87SLPC   H4Y 8411   3.297   2.720   3.500 -0.1525  0.5848 -2.3855
   87SLPC   C35 8412   3.317   2.919   3.592 -0.6874 -0.4252  0.3102
   87SLPC   H5X 8413   3.241   2.969   3.528  0.5058 -1.2820 -1.9052
   87SLPC   H5Y 8414   3.389   3.003   3.601 -0.6857 -0.3699 -0.1483
   87SLPC   C36 8415   3.234   2.890   3.718 -0.2396 -0.7085  0.2063
   87SLPC   H6X 8416   3.295   2.855   3.804  0.8751  0.6165 -0.0129
   87SLPC   H6Y 8417   3.170   2.804   3.688  0.8546 -0.7275 -2.2963
   87SLPC   C37 8418   3.152   3.001   3.777 -0.3539 -0.1805 -0.0673
   87SLPC   H7X 8419   3.076   2.949   3.839  1.3434 -0.8702  1.5560
   87SLPC   H7Y 8420   3.095   3.053   3.698 -1.8439 -0.9062  0.4985
   87SLPC   C38 8421   3.237   3.105   3.861  0.7827  0.0600  0.0234
   87SLPC   H8X 8422   3.307   3.157   3.793  0.3661  0.6623  0.0478
   87SLPC   H8Y 8423   3.291   3.046   3.938  0.8613 -1.3835 -1.0905
   87SLPC   C39 8424   3.143   3.203   3.928  0.5118 -0.1893 -0.4630
   87SLPC   H9X 8425   3.066   3.222   3.851  0.3054  0.4201 -0.1160
   87SLPC   H9Y 8426   3.200   3.294   3.955  1.1009 -1.1788  1.9340
   87SLPC  C310 8427   3.069   3.151   4.053  0.5001  0.1461  0.0015
   87SLPC  H10X 8428   3.149   3.122   4.124 -0.3933  0.3831  1.1376
   87SLPC  H10Y 8429   3.002   3.069   4.021  0.9997 -0.5184  0.6277
   87SLPC  C311 8430   2.985   3.256   4.127  0.8103  0.1237  0.2074
   87SLPC  H11X 8431   2.902   3.271   4.054 -0.3478  1.5258  1.7548
   87SLPC  H11Y 8432   3.035   3.353   4.149  0.1290  1.0569 -2.0541
   87SLPC  C312 8433   2.934   3.198   4.263  0.1486  0.5542 -0.1573
   87SLPC  H12X 8434   3.027   3.174   4.320 -0.4701 -2.0851 -0.1229
   87SLPC  H12Y 8435   2.873   3.109   4.240  0.8478 -0.2536  0.9664
   87SLPC  C313 8436   2.853   3.289   4.353 -0.0158 -0.2922  0.1261
   87SLPC  H13X 8437   2.846   3.244   4.454 -1.1115  0.1766  0.2638
   87SLPC  H13Y 8438   2.750   3.289   4.312 -0.3331  3.1402  0.6624
   87SLPC  C314 8439   2.906   3.434   4.355  0.7393  0.0442 -0.0642
   87SLPC  H14X 8440   2.899   3.470   4.250 -1.7680  0.9092  0.3273
   87SLPC  H14Y 8441   3.004   3.425   4.406 -0.6796 -0.3315  2.7492
   87SLPC  C315 8442   2.806   3.516   4.439 -0.5765  0.7358  0.5770
   87SLPC  H15X 8443   2.794   3.478   4.543  0.1061 -2.3041 -0.3447
   87SLPC  H15Y 8444   2.707   3.517   4.390 -0.8932  4.5686  1.0353
   87SLPC  C316 8445   2.835   3.664   4.427  0.1996 -0.6642 -0.1411
   87SLPC  H16X 8446   2.847   3.693   4.320 -0.5646  1.4599  0.3010
   87SLPC  H16Y 8447   2.933   3.684   4.474  0.9006 -0.3337 -1.6906
   87SLPC  C317 8448   2.724   3.746   4.487  0.0022  0.2030 -0.5842
   87SLPC  H17X 8449   2.712   3.730   4.596  1.1239  2.1734 -0.1252
   87SLPC  H17Y 8450   2.625   3.733   4.438 -0.0337  0.2998 -0.5378
   87SLPC  C318 8451   2.747   3.900   4.491 -0.3465 -0.0687  0.3444
   87SLPC  H18X 8452   2.754   3.939   4.387  3.4296  1.6752  1.0702
   87SLPC  H18Y 8453   2.847   3.922   4.534 -0.5900 -1.4787  1.7178
   87SLPC  H18Z 8454   2.665   3.960   4.536  0.6835  2.8211 -1.3450
   88SLPC     N 8455   4.951   5.066   2.516 -0.3740 -0.2733 -0.4717
   88SLPC   C13 8456   4.929   5.146   2.393  0.3573  0.5085  0.3327
   88SLPC  H13A 8457   4.835   5.199   2.404 -1.3657 -2.2265 -0.1159
   88SLPC  H13B 8458   5.009   5.217   2.392 -0.3803  1.3617 -0.9467
   88SLPC  H13C 8459   4.930   5.073   2.313  2.0771 -0.5551  1.2716
   88SLPC   C14 8460   5.073   4.986   2.498 -0.1298  0.0501  0.0955
   88SLPC  H14A 8461   5.079   4.910   2.575  4.1895  0.6463  0.5707
   88SLPC  H14B 8462   5.074   4.946   2.398 -0.9884  0.0970  0.0595
   88SLPC  H14C 8463   5.156   5.053   2.510 -0.0272  1.1773 -4.9148
   88SLPC   C15 8464   4.832   4.979   2.534 -0.9177  0.5098  0.1595
   88SLPC  H15A 8465   4.829   4.928   2.629 -2.4192  1.2243  0.5174
   88SLPC  H15B 8466   4.740   5.034   2.529 -0.3072  1.4987 -0.4168
   88SLPC  H15C 8467   4.820   4.913   2.449 -2.8167  1.2613 -0.2168
   88SLPC   C12 8468   4.961   5.148   2.642  0.5730 -0.0685  0.1639
   88SLPC  H12A 8469   4.966   5.089   2.732 -2.0709 -0.9967 -0.2032
   88SLPC  H12B 8470   4.863   5.193   2.653 -0.0138 -0.6321 -2.1751
   88SLPC   C11 8471   5.063   5.265   2.651 -0.5350 -0.3137  0.0352
   88SLPC  H11A 8472   5.054   5.296   2.757  1.5532  0.4576  0.0314
   88SLPC  H11B 8473   5.027   5.352   2.592 -0.6089 -2.2501 -2.9635
   88SLPC     P 8474   5.271   5.288   2.493 -0.0555  0.1564  0.4104
   88SLPC   O13 8475   5.412   5.236   2.499 -0.0139 -0.1351 -0.6536
   88SLPC   O14 8476   5.208   5.257   2.364 -0.7317 -0.0076  0.0619
   88SLPC   O12 8477   5.193   5.231   2.619  0.3335  0.4267 -0.2167
   88SLPC   O11 8478   5.281   5.444   2.510  0.2440 -0.3228  0.3089
   88SLPC    C1 8479   5.375   5.521   2.580  0.8429  0.1035 -0.2379
   88SLPC    HA 8480   5.451   5.452   2.624 -2.1164 -1.9657  2.1030
   88SLPC    HB 8481   5.427   5.599   2.520  1.8160  1.2712  1.9900
   88SLPC    C2 8482   5.314   5.582   2.715 -0.4728  0.2488  0.2501
   88SLPC    HS 8483   5.384   5.666   2.737  0.9147 -0.5567 -0.9238
   88SLPC   O21 8484   5.294   5.492   2.826 -0.5075 -0.5994  0.1802
   88SLPC   C21 8485   5.394   5.472   2.902 -0.0932 -0.5196 -0.4600
   88SLPC   O22 8486   5.504   5.528   2.903  0.2482  0.3082 -0.4682
   88SLPC   C22 8487   5.353   5.366   3.004  0.3484  0.5230 -0.0369
   88SLPC   H2R 8488   5.243   5.380   3.009  0.3008  1.7992 -2.8158
   88SLPC   H2S 8489   5.387   5.265   2.972  1.4882  0.5269  1.0434
   88SLPC    C3 8490   5.176   5.644   2.682 -0.2987  0.0505 -0.4997
   88SLPC    HX 8491   5.103   5.561   2.664 -0.5441 -1.2843  4.8093
   88SLPC    HY 8492   5.189   5.699   2.587  1.3318 -1.2170 -1.0562
   88SLPC   O31 8493   5.130   5.718   2.799  0.0275  0.0736  0.7136
   88SLPC   C31 8494   5.016   5.682   2.853  0.1097  0.1962  0.1696
   88SLPC   O32 8495   4.938   5.594   2.821  0.2189 -0.4612  0.7144
   88SLPC   C32 8496   5.015   5.741   2.999 -0.3978  0.2690  0.5643
   88SLPC   H2X 8497   4.933   5.681   3.045 -0.3162 -0.4330 -0.1778
   88SLPC   H2Y 8498   4.976   5.845   2.999  0.6617  0.6763 -0.1618
   88SLPC   C23 8499   5.432   5.386   3.133 -0.5240  0.3144  0.1312
   88SLPC   H3R 8500   5.414   5.484   3.182  1.9253  1.4342 -1.0203
   88SLPC   H3S 8501   5.540   5.369   3.112 -0.8419 -3.7370  0.8972
   88SLPC   C24 8502   5.389   5.283   3.233  0.3580  0.4337 -0.3190
   88SLPC   H4R 8503   5.424   5.186   3.192 -0.8601  0.2833 -1.0321
   88SLPC   H4S 8504   5.278   5.284   3.243  0.4935  0.4874  1.4401
   88SLPC   C25 8505   5.460   5.304   3.372  0.7034  0.1579 -0.4183
   88SLPC   H5R 8506   5.570   5.296   3.358  0.9207  1.8856  0.0239
   88SLPC   H5S 8507   5.429   5.215   3.431  0.8988  0.3367 -0.0392
   88SLPC   C26 8508   5.425   5.429   3.459  0.0512 -0.2896  1.1792
   88SLPC   H6R 8509   5.319   5.444   3.430  0.8990  1.3568 -1.3935
   88SLPC   H6S 8510   5.482   5.511   3.410 -0.5785 -0.0581  0.8212
   88SLPC   C27 8511   5.442   5.404   3.605  0.3685  0.5445  0.4500
   88SLPC   H7R 8512   5.383   5.313   3.627 -0.9048  0.9669 -1.0348
   88SLPC   H7S 8513   5.376   5.475   3.660  0.8031  0.9778  0.4226
   88SLPC   C28 8514   5.585   5.410   3.646  0.6701  0.3772  0.2655
   88SLPC   H8R 8515   5.625   5.513   3.654 -0.9388  1.0144  0.6049
   88SLPC   H8S 8516   5.648   5.364   3.567  0.6434 -0.0131  0.4681
   88SLPC   C29 8517   5.598   5.343   3.780 -0.1234  0.1724  0.3194
   88SLPC   H9R 8518   5.595   5.233   3.777  0.3045  0.1404  0.9605
   88SLPC  C210 8519   5.601   5.394   3.904 -0.0437  0.0203 -0.2428
   88SLPC  H10R 8520   5.602   5.319   3.985 -0.3336 -1.3685 -1.4876
   88SLPC  C211 8521   5.580   5.536   3.949  0.0705 -0.2871  0.0856
   88SLPC  H11R 8522   5.498   5.546   4.023 -0.2203 -1.3467 -0.0915
   88SLPC  H11S 8523   5.552   5.603   3.865 -0.1504 -1.3608 -0.7180
   88SLPC  C212 8524   5.710   5.589   4.008 -0.4971  0.1171  0.2843
   88SLPC  H12R 8525   5.800   5.595   3.945 -0.2324  1.2969  0.7523
   88SLPC  C213 8526   5.721   5.655   4.125  0.1121  0.5013 -0.4546
   88SLPC  H13R 8527   5.820   5.691   4.158 -0.2788  1.3493 -0.1948
   88SLPC  C214 8528   5.620   5.667   4.235  0.0547  0.6391 -0.4984
   88SLPC  H14R 8529   5.531   5.606   4.211  0.0561  0.6467 -0.5227
   88SLPC  H14S 8530   5.574   5.768   4.241 -0.6161  0.4597 -2.1649
   88SLPC  C215 8531   5.671   5.626   4.375  0.2989 -0.1260  0.5842
   88SLPC  H15R 8532   5.577   5.636   4.434  0.4289  0.6666  0.6666
   88SLPC  H15S 8533   5.751   5.696   4.407 -1.6352  2.3740  0.3001
   88SLPC  C216 8534   5.709   5.482   4.395  0.0078  0.1351  0.6129
   88SLPC  H16R 8535   5.787   5.443   4.326 -1.6055 -1.4949 -0.4103
   88SLPC  H16S 8536   5.619   5.421   4.369 -2.2720  3.0791  1.0907
   88SLPC  C217 8537   5.767   5.452   4.533  0.4587 -0.3563  0.0323
   88SLPC  H17R 8538   5.865   5.506   4.535  0.2840 -0.0490  2.3441
   88SLPC  H17S 8539   5.794   5.345   4.548  0.0574 -0.4836 -0.1413
   88SLPC  C218 8540   5.690   5.502   4.649 -0.4611 -0.1039 -0.4426
   88SLPC  H18R 8541   5.740   5.458   4.738 -1.0818  0.3132  0.1332
   88SLPC  H18S 8542   5.584   5.468   4.655 -0.0913 -1.0550  1.9849
   88SLPC  H18T 8543   5.696   5.609   4.680 -0.8825 -0.7607  2.1669
   88SLPC   C33 8544   5.142   5.718   3.074  1.1007  0.3579 -0.0575
   88SLPC   H3X 8545   5.234   5.769   3.036  1.1783 -0.5164 -1.1012
   88SLPC   H3Y 8546   5.170   5.611   3.068 -2.7144 -0.7877  0.1102
   88SLPC   C34 8547   5.131   5.748   3.227 -0.2171  0.1244 -0.1339
   88SLPC   H4X 8548   5.041   5.695   3.264 -0.3295 -0.5296 -1.3041
   88SLPC   H4Y 8549   5.107   5.856   3.234  2.3112  1.0094 -2.8334
   88SLPC   C35 8550   5.258   5.735   3.316  0.5912  0.6488 -0.2873
   88SLPC   H5X 8551   5.344   5.762   3.252  1.5027 -3.3738 -1.0599
   88SLPC   H5Y 8552   5.266   5.627   3.341  4.5722  0.6245 -1.1193
   88SLPC   C36 8553   5.256   5.819   3.446 -0.8456 -0.3652  0.5105
   88SLPC   H6X 8554   5.162   5.796   3.500 -0.7496 -0.1114  0.7904
   88SLPC   H6Y 8555   5.247   5.927   3.422  0.7890 -0.0725  1.1317
   88SLPC   C37 8556   5.372   5.782   3.537 -0.3312 -0.2740  0.4624
   88SLPC   H7X 8557   5.470   5.810   3.492  0.4705 -0.7024  1.8586
   88SLPC   H7Y 8558   5.388   5.673   3.549  0.7856 -0.2179 -0.3231
   88SLPC   C38 8559   5.355   5.845   3.677  0.2636  0.0895  0.1010
   88SLPC   H8X 8560   5.318   5.949   3.663  0.1858  0.1312  0.5968
   88SLPC   H8Y 8561   5.457   5.866   3.716  1.3461 -0.8172 -2.0842
   88SLPC   C39 8562   5.281   5.767   3.779  1.5351  1.0313 -0.1640
   88SLPC   H9X 8563   5.338   5.676   3.807  0.4499  0.8199  1.5282
   88SLPC   H9Y 8564   5.181   5.744   3.735 -0.1993  2.7814  2.5804
   88SLPC  C310 8565   5.243   5.848   3.905 -0.2274  0.4394  0.7091
   88SLPC  H10X 8566   5.162   5.917   3.876 -1.5977 -0.5530  2.0288
   88SLPC  H10Y 8567   5.338   5.899   3.933  1.1761 -1.7429  0.2243
   88SLPC  C311 8568   5.209   5.762   4.029  0.2463 -0.2253 -0.0461
   88SLPC  H11X 8569   5.263   5.665   4.016 -0.1812 -0.5271  0.3890
   88SLPC  H11Y 8570   5.101   5.735   4.021  0.4515 -0.4020 -4.3757
   88SLPC  C312 8571   5.247   5.823   4.166 -0.1149  0.2373  0.1748
   88SLPC  H12X 8572   5.356   5.846   4.168  0.5338 -2.4617  2.0474
   88SLPC  H12Y 8573   5.235   5.752   4.251 -0.1395 -0.9208 -0.7751
   88SLPC  C313 8574   5.169   5.948   4.203  0.7507 -0.5088  0.4857
   88SLPC  H13X 8575   5.170   6.020   4.119 -1.4151  0.6205  1.3674
   88SLPC  H13Y 8576   5.214   6.001   4.289  0.8230  1.3788 -0.6588
   88SLPC  C314 8577   5.020   5.909   4.240  0.2621  0.7482  0.1267
   88SLPC  H14X 8578   5.017   5.827   4.314  4.1974  1.7737  1.7109
   88SLPC  H14Y 8579   4.974   5.874   4.145 -0.2344  1.4824  0.0880
   88SLPC  C315 8580   4.938   6.034   4.270  0.4796  0.5239  0.0669
   88SLPC  H15X 8581   4.936   6.098   4.179 -0.7269 -1.4375 -1.3777
   88SLPC  H15Y 8582   4.983   6.084   4.358 -0.5031 -0.0254  0.9074
   88SLPC  C316 8583   4.792   5.990   4.303  0.2565 -0.0660 -0.0787
   88SLPC  H16X 8584   4.749   6.079   4.352 -0.2462  0.6251 -1.6852
   88SLPC  H16Y 8585   4.798   5.897   4.364  0.1892 -1.9143 -2.6860
   88SLPC  C317 8586   4.705   5.970   4.178 -0.2119  0.0898 -0.3271
   88SLPC  H17X 8587   4.731   5.870   4.138  0.0399  0.8281 -2.1047
   88SLPC  H17Y 8588   4.740   6.044   4.103 -0.7441  0.1382 -0.5354
   88SLPC  C318 8589   4.550   5.987   4.187  0.0958  0.5190 -0.1251
   88SLPC  H18X 8590   4.500   5.934   4.272 -0.9715  0.2062 -0.9195
   88SLPC  H18Y 8591   4.503   5.959   4.091  2.6677 -0.4783 -1.1784
   88SLPC  H18Z 8592   4.523   6.094   4.201  2.1553  1.0768 -0.1930
   89SAPE     N 8593   6.014   3.360   7.249 -0.5604  0.2600 -0.2874
   89SAPE   HN1 8594   6.023   3.317   7.155 -0.0119 -4.4564  1.6312
   89SAPE   HN2 8595   6.049   3.457   7.251 -0.6722  0.3226  2.5198
   89SAPE   HN3 8596   6.074   3.301   7.310  1.9511  2.1245 -0.8128
   89SAPE   C12 8597   5.866   3.355   7.300 -0.4501 -0.2764 -0.1119
   89SAPE  H12A 8598   5.801   3.354   7.210  0.7861  0.6785 -1.0549
   89SAPE  H12B 8599   5.846   3.449   7.355  0.0158 -0.7177  0.8454
   89SAPE   C11 8600   5.840   3.238   7.393  0.5341 -0.1583 -0.4345
   89SAPE  H11A 8601   5.739   3.247   7.438  0.4735  0.7812 -0.7441
   89SAPE  H11B 8602   5.916   3.248   7.474  1.1676 -2.3148 -0.7187
   89SAPE     P 8603   5.766   2.986   7.359  0.1488 -0.1328  0.3418
   89SAPE   O13 8604   5.808   2.926   7.486 -0.1115  0.2517  0.5658
   89SAPE   O14 8605   5.624   3.015   7.331  0.5869  0.4513 -0.1523
   89SAPE   O12 8606   5.857   3.115   7.329 -0.1985  0.6694  0.3740
   89SAPE   O11 8607   5.815   2.877   7.255 -0.3322 -0.1970  0.3335
   89SAPE    C1 8608   5.946   2.887   7.194 -0.5672 -0.8100  0.5378
   89SAPE    HA 8609   6.019   2.926   7.269 -4.3152  2.8973  2.6895
   89SAPE    HB 8610   5.980   2.790   7.152 -2.4908 -1.4014  0.2404
   89SAPE    C2 8611   5.942   2.980   7.066 -0.2533 -0.4058 -0.5737
   89SAPE    HS 8612   5.918   3.086   7.090  2.1895  0.5098 -1.7513
   89SAPE   O21 8613   5.852   2.914   6.977 -0.0230  0.0302  0.1685
   89SAPE   C21 8614   5.766   3.000   6.912  0.1665 -0.6027 -0.1416
   89SAPE   O22 8615   5.767   3.124   6.922  0.2961  0.0908  0.1759
   89SAPE   C22 8616   5.684   2.910   6.817  0.1017  0.1822  0.0056
   89SAPE   H2R 8617   5.752   2.833   6.774  1.5691  2.0694 -1.1726
   89SAPE   H2S 8618   5.608   2.858   6.881 -0.7273  1.2490 -0.0846
   89SAPE    C3 8619   6.076   2.998   6.996  0.3239  0.7105 -0.3487
   89SAPE    HX 8620   6.111   2.898   6.962  0.1585  0.8239 -0.8586
   89SAPE    HY 8621   6.152   3.033   7.069 -1.1866  2.4982  0.4444
   89SAPE   O31 8622   6.060   3.083   6.880  0.8606 -0.0979  0.1960
   89SAPE   C31 8623   6.058   3.211   6.893  0.7376  0.2206  0.0945
   89SAPE   O32 8624   6.075   3.269   7.000  0.5210 -0.9816 -0.4759
   89SAPE   C32 8625   6.024   3.284   6.764  0.1225 -0.9493  0.7845
   89SAPE   H2X 8626   6.124   3.323   6.734 -0.7309  1.5027  0.8596
   89SAPE   H2Y 8627   5.964   3.377   6.776  0.8233 -0.4767  0.7241
   89SAPE   C23 8628   5.606   2.983   6.711  0.2008  0.3574  0.2501
   89SAPE   H3R 8629   5.664   2.997   6.618 -0.2516 -0.0758 -0.1072
   89SAPE   H3S 8630   5.579   3.081   6.754 -1.6581 -0.4407  1.0102
   89SAPE   C24 8631   5.472   2.910   6.669 -0.5440 -0.3203  0.2759
   89SAPE   H4R 8632   5.420   2.976   6.597 -0.7956 -1.4435 -0.6013
   89SAPE   H4S 8633   5.416   2.914   6.765  1.4766  0.9034  1.4697
   89SAPE   C25 8634   5.492   2.771   6.615  0.1800  0.5484  0.5997
   89SAPE   H5R 8635   5.590   2.726   6.636  0.3983  0.0613 -1.3390
   89SAPE   C26 8636   5.420   2.709   6.516 -1.1175 -0.3886 -0.4314
   89SAPE   H6R 8637   5.458   2.608   6.490 -0.5186  0.0380 -1.2519
   89SAPE   C27 8638   5.304   2.762   6.452  1.0075 -0.1105  0.4633
   89SAPE   H7R 8639   5.241   2.828   6.516  1.1822  1.1520 -0.6154
   89SAPE   H7S 8640   5.247   2.669   6.432 -0.0866  0.7636 -0.6221
   89SAPE   C28 8641   5.326   2.849   6.326 -0.0349  1.0984 -1.0939
   89SAPE   H8R 8642   5.327   2.958   6.341  0.0338  0.9542  0.0250
   89SAPE   C29 8643   5.359   2.804   6.206  0.0691 -0.2679 -0.0276
   89SAPE   H9R 8644   5.383   2.872   6.123  2.6698 -2.2176 -1.0116
   89SAPE  C210 8645   5.375   2.664   6.164 -0.1096 -0.1664 -0.3997
   89SAPE  H10R 8646   5.429   2.607   6.242 -1.4010  0.2356  0.8157
   89SAPE  H10S 8647   5.439   2.655   6.073  0.2164  1.9699 -0.4255
   89SAPE  C211 8648   5.247   2.593   6.133  0.7574 -0.1280  0.6063
   89SAPE  H11R 8649   5.188   2.542   6.211 -0.3513 -1.4112 -1.0025
   89SAPE  C212 8650   5.186   2.587   6.014 -0.1219  0.0738 -0.4054
   89SAPE  H12R 8651   5.095   2.525   6.005 -0.1710  0.2973 -1.5212
   89SAPE  C213 8652   5.233   2.648   5.886  0.0693  0.3626  0.0003
   89SAPE  H13R 8653   5.343   2.663   5.888  0.0352  1.0597 -1.6736
   89SAPE  H13S 8654   5.191   2.751   5.887  1.1910  0.8262  0.4527
   89SAPE  C214 8655   5.200   2.571   5.761  0.1220 -0.0108  0.2703
   89SAPE  H14R 8656   5.268   2.487   5.744  1.3956  0.9720  0.3510
   89SAPE  C215 8657   5.100   2.585   5.673 -0.5084  0.0474 -1.2331
   89SAPE  H15R 8658   5.087   2.513   5.590  0.4837  0.0549 -1.4047
   89SAPE  C216 8659   5.001   2.698   5.679 -0.8403  0.6446  0.4301
   89SAPE  H16R 8660   4.991   2.731   5.785 -0.4779 -0.9166  0.9734
   89SAPE  H16S 8661   4.910   2.644   5.646  1.1011 -2.9888  0.5658
   89SAPE  C217 8662   5.045   2.809   5.585  0.9246  0.0669 -0.4195
   89SAPE  H17R 8663   5.061   2.769   5.483 -1.1540 -0.9261 -0.4138
   89SAPE  H17S 8664   5.139   2.843   5.632 -0.6578 -0.3687  3.4807
   89SAPE  C218 8665   4.927   2.906   5.578 -0.4264 -0.0870 -0.0268
   89SAPE  H18R 8666   4.912   2.951   5.678  0.1828 -0.5882  0.2981
   89SAPE  H18S 8667   4.840   2.845   5.545  0.4144 -0.4920 -1.6300
   89SAPE  C219 8668   4.942   3.033   5.488  0.1825  0.1383 -0.4872
   89SAPE  H19R 8669   4.846   3.066   5.441  0.7349  0.0677 -1.6994
   89SAPE  H19S 8670   5.008   2.995   5.407 -0.9945 -2.4919 -0.3131
   89SAPE  C220 8671   5.002   3.151   5.559 -0.7839 -0.9536  0.5224
   89SAPE  H20R 8672   5.079   3.131   5.636 -0.8933  0.0806  0.9130
   89SAPE  H20S 8673   4.922   3.209   5.609  1.6154  0.2506  3.2759
   89SAPE  H20T 8674   5.041   3.223   5.483  1.1485  0.6049  2.8615
   89SAPE   C33 8675   5.971   3.195   6.646 -0.0161 -0.6457  0.2273
   89SAPE   H3X 8676   5.864   3.175   6.671 -0.7862  0.6524 -1.7591
   89SAPE   H3Y 8677   6.019   3.097   6.628  1.7483  0.1460  0.4658
   89SAPE   C34 8678   5.951   3.262   6.508 -0.2998  0.5342 -0.7833
   89SAPE   H4X 8679   6.051   3.283   6.464  0.4638  0.7150  0.9317
   89SAPE   H4Y 8680   5.886   3.352   6.514 -3.6303 -1.6802 -1.4519
   89SAPE   C35 8681   5.879   3.162   6.419  0.1205  0.4146  0.1326
   89SAPE   H5X 8682   5.785   3.128   6.469  0.5476  0.6027  1.0701
   89SAPE   H5Y 8683   5.942   3.071   6.410 -0.3944  0.2306 -2.1507
   89SAPE   C36 8684   5.841   3.222   6.288 -0.1316  0.2328  0.1236
   89SAPE   H6X 8685   5.938   3.254   6.245  0.0712  0.1572  0.5210
   89SAPE   H6Y 8686   5.789   3.320   6.303 -0.3421  0.1109  0.1906
   89SAPE   C37 8687   5.758   3.149   6.187 -0.5946 -0.0081 -0.3203
   89SAPE   H7X 8688   5.774   3.209   6.095  0.0722 -1.2463 -1.0403
   89SAPE   H7Y 8689   5.652   3.160   6.216 -0.2853 -0.0088  0.8450
   89SAPE   C38 8690   5.777   3.000   6.159 -0.4869 -0.2663  0.3945
   89SAPE   H8X 8691   5.737   2.939   6.244 -0.6609  1.5285  1.6484
   89SAPE   H8Y 8692   5.885   2.975   6.145  0.0018  2.3549 -1.0021
   89SAPE   C39 8693   5.694   2.969   6.036  0.3828  0.0185  0.2359
   89SAPE   H9X 8694   5.728   3.028   5.947 -0.9806  1.7198  0.7950
   89SAPE   H9Y 8695   5.587   2.996   6.045  0.5485  1.0998 -0.6848
   89SAPE  C310 8696   5.720   2.824   6.002  0.3274 -0.0030 -0.5813
   89SAPE  H10X 8697   5.693   2.754   6.084  1.5571  2.8286  2.4921
   89SAPE  H10Y 8698   5.826   2.822   5.969  0.8384 -1.5272  1.0370
   89SAPE  C311 8699   5.649   2.779   5.872  0.3713  0.6420 -0.0854
   89SAPE  H11X 8700   5.662   2.859   5.796 -0.6130  2.6912  1.7739
   89SAPE  H11Y 8701   5.540   2.775   5.891  0.3985 -0.1816 -0.0709
   89SAPE  C312 8702   5.693   2.643   5.822  0.0116 -0.2074 -0.0002
   89SAPE  H12X 8703   5.629   2.561   5.861 -0.2949  0.5497  1.1026
   89SAPE  H12Y 8704   5.795   2.618   5.859  0.3664 -0.1269 -0.9012
   89SAPE  C313 8705   5.682   2.624   5.664 -0.7881  0.0237 -0.0673
   89SAPE  H13X 8706   5.734   2.529   5.639 -1.6465  0.0358 -2.1247
   89SAPE  H13Y 8707   5.727   2.719   5.626  1.2750 -0.1687  1.7389
   89SAPE  C314 8708   5.533   2.628   5.614  0.1800 -0.0463  0.4229
   89SAPE  H14X 8709   5.467   2.696   5.671  1.2894  0.1008  1.5643
   89SAPE  H14Y 8710   5.484   2.530   5.632 -0.0419 -0.4781 -2.1017
   89SAPE  C315 8711   5.509   2.670   5.470  0.0182  0.2381 -0.3090
   89SAPE  H15X 8712   5.556   2.598   5.400  1.6341  0.7177  0.2422
   89SAPE  H15Y 8713   5.556   2.768   5.447 -1.3607  1.3602  1.3705
   89SAPE  C316 8714   5.357   2.676   5.439 -0.1527  0.1178  0.6904
   89SAPE  H16X 8715   5.299   2.741   5.507  0.9725  0.2754  1.5154
   89SAPE  H16Y 8716   5.317   2.573   5.446 -1.4540  0.6256  0.9238
   89SAPE  C317 8717   5.324   2.715   5.290  0.0437  0.3116 -0.4095
   89SAPE  H17X 8718   5.339   2.822   5.266  0.6914  0.1156 -0.9075
   89SAPE  H17Y 8719   5.217   2.696   5.268  0.2797 -1.1343 -0.4428
   89SAPE  C318 8720   5.414   2.649   5.181 -0.4465  0.2614  0.1077
   89SAPE  H18X 8721   5.428   2.541   5.206 -0.9588  0.6771  2.4681
   89SAPE  H18Y 8722   5.516   2.691   5.190 -0.6385  0.4609  1.7122
   89SAPE  H18Z 8723   5.367   2.658   5.081 -0.2143 -0.3961 -0.0655
   90SAPE     N 8724   3.012   4.402   6.836  0.3569 -0.1787  0.3960
   90SAPE   HN1 8725   2.933   4.405   6.904 -1.2940  0.1344 -1.4474
   90SAPE   HN2 8726   3.043   4.303   6.832  0.0134 -0.2466 -2.3714
   90SAPE   HN3 8727   3.091   4.462   6.869  0.8234 -0.5545 -0.0142
   90SAPE   C12 8728   2.973   4.457   6.699 -0.7376  0.2437  0.2263
   90SAPE  H12A 8729   3.061   4.457   6.632 -0.9658  1.6493 -0.1019
   90SAPE  H12B 8730   2.947   4.564   6.708  2.1133  0.9447  1.2461
   90SAPE   C11 8731   2.862   4.377   6.649 -0.2617  0.8533 -0.3492
   90SAPE  H11A 8732   2.888   4.269   6.661  0.4230  1.1451  1.0002
   90SAPE  H11B 8733   2.859   4.389   6.539 -1.0199 -0.8806 -0.5544
   90SAPE     P 8734   2.677   4.340   6.832 -0.2674 -0.1172  0.5159
   90SAPE   O13 8735   2.779   4.351   6.940  0.6981 -0.4337 -0.8082
   90SAPE   O14 8736   2.537   4.382   6.865 -0.7151  0.2368 -0.6773
   90SAPE   O12 8737   2.732   4.406   6.699 -0.0670 -0.9367  0.2110
   90SAPE   O11 8738   2.667   4.193   6.780  0.6670  0.2204  0.3645
   90SAPE    C1 8739   2.567   4.142   6.683 -0.2518 -0.1170  0.1796
   90SAPE    HA 8740   2.486   4.078   6.725  0.3616 -0.8626  0.2586
   90SAPE    HB 8741   2.527   4.221   6.616 -0.2305 -2.4586 -2.8315
   90SAPE    C2 8742   2.643   4.049   6.588  0.0445  0.1124  0.6136
   90SAPE    HS 8743   2.739   4.100   6.564  0.4106 -0.8573 -0.0540
   90SAPE   O21 8744   2.555   4.029   6.472  0.0675 -0.3454 -0.2633
   90SAPE   C21 8745   2.586   4.093   6.367  0.0585 -0.6540  0.0423
   90SAPE   O22 8746   2.679   4.175   6.357 -0.0952 -0.2523  0.1096
   90SAPE   C22 8747   2.476   4.061   6.256 -0.1193 -0.3056 -0.2489
   90SAPE   H2R 8748   2.395   4.011   6.313 -0.6434  2.3024  1.4532
   90SAPE   H2S 8749   2.441   4.158   6.216  2.4196  1.3925  1.3360
   90SAPE    C3 8750   2.672   3.912   6.650  0.5946 -0.5835 -0.2325
   90SAPE    HX 8751   2.577   3.888   6.703  0.2523  3.0520  1.0220
   90SAPE    HY 8752   2.745   3.924   6.732 -1.2221  3.3018  1.0457
   90SAPE   O31 8753   2.725   3.818   6.552 -0.5911  0.0845 -0.3188
   90SAPE   C31 8754   2.630   3.730   6.511 -0.1808 -0.2525  0.3290
   90SAPE   O32 8755   2.528   3.708   6.575  0.7735  0.1117 -0.3965
   90SAPE   C32 8756   2.667   3.663   6.386  0.3534  0.2173 -0.1221
   90SAPE   H2X 8757   2.732   3.576   6.412 -2.1335 -1.9883 -0.8194
   90SAPE   H2Y 8758   2.719   3.737   6.322  0.6173  0.8071  0.7563
   90SAPE   C23 8759   2.537   3.976   6.142  0.3049  0.6350  0.6424
   90SAPE   H3R 8760   2.460   3.899   6.121  0.3951  0.7984 -0.3556
   90SAPE   H3S 8761   2.625   3.913   6.166 -0.4465 -0.8602 -0.3815
   90SAPE   C24 8762   2.564   4.069   6.022  0.0791  0.1100 -0.1498
   90SAPE   H4R 8763   2.622   4.158   6.053 -0.1927  0.0646  0.5072
   90SAPE   H4S 8764   2.471   4.115   5.981  0.0521  1.1192  1.0098
   90SAPE   C25 8765   2.646   3.995   5.918 -0.0335  0.2706  0.1615
   90SAPE   H5R 8766   2.734   3.942   5.956  0.3954 -0.3557 -1.6010
   90SAPE   C26 8767   2.611   3.962   5.792  0.2292  0.3423  0.1157
   90SAPE   H6R 8768   2.680   3.900   5.733  1.2412 -0.6272  2.2187
   90SAPE   C27 8769   2.482   4.013   5.731  0.2393  0.8345  0.3957
   90SAPE   H7R 8770   2.505   4.110   5.682  0.2656  1.1937  1.0999
   90SAPE   H7S 8771   2.402   4.027   5.807 -0.7905 -1.1088 -0.2686
   90SAPE   C28 8772   2.439   3.920   5.615 -0.2290 -0.1015 -0.7667
   90SAPE   H8R 8773   2.378   3.832   5.641 -0.6132  0.2087 -0.6081
   90SAPE   C29 8774   2.455   3.939   5.486 -0.5004  0.2011 -0.1574
   90SAPE   H9R 8775   2.415   3.864   5.417 -1.5971  2.8878 -2.6422
   90SAPE  C210 8776   2.537   4.046   5.422  0.0231 -0.5392  0.6612
   90SAPE  H10R 8777   2.630   3.997   5.385  0.8851  0.2871  1.6914
   90SAPE  H10S 8778   2.581   4.121   5.491  4.1650 -0.5979 -1.6298
   90SAPE  C211 8779   2.467   4.135   5.326  0.3673  0.8268  0.4119
   90SAPE  H11R 8780   2.360   4.143   5.347 -0.1512 -0.9258 -1.3147
   90SAPE  C212 8781   2.511   4.169   5.206  1.2851  0.4826  0.1792
   90SAPE  H12R 8782   2.437   4.223   5.147 -0.5825 -0.3419  1.6565
   90SAPE  C213 8783   2.638   4.137   5.136 -0.3217  0.1147 -0.2063
   90SAPE  H13R 8784   2.698   4.067   5.199 -2.2244  1.1374  2.9822
   90SAPE  H13S 8785   2.700   4.229   5.127 -1.2071  0.8163  0.6937
   90SAPE  C214 8786   2.619   4.086   4.995  0.1269 -0.4872 -0.3388
   90SAPE  H14R 8787   2.516   4.054   4.974 -0.2987 -0.9794  2.1825
   90SAPE  C215 8788   2.717   4.082   4.904  0.1259 -0.1026 -0.2855
   90SAPE  H15R 8789   2.702   4.039   4.804  0.8068 -1.1609  0.0452
   90SAPE  C216 8790   2.857   4.124   4.929 -0.2011 -0.1169  0.1744
   90SAPE  H16R 8791   2.927   4.040   4.910  1.3248  0.2476  3.5944
   90SAPE  H16S 8792   2.881   4.146   5.035 -0.0943  0.2406  0.0771
   90SAPE  C217 8793   2.906   4.241   4.837 -0.0552  0.3246  0.4581
   90SAPE  H17R 8794   2.893   4.205   4.732  0.3405  2.0361 -0.2120
   90SAPE  H17S 8795   3.015   4.262   4.834  0.2303 -1.1212 -0.5122
   90SAPE  C218 8796   2.826   4.372   4.851 -0.2142 -0.4600 -0.1581
   90SAPE  H18R 8797   2.843   4.398   4.958  2.0458  0.1025 -0.5933
   90SAPE  H18S 8798   2.715   4.366   4.844 -0.2825 -0.5387  0.8986
   90SAPE  C219 8799   2.875   4.488   4.767 -0.5832  0.1890 -0.9075
   90SAPE  H19R 8800   2.863   4.478   4.657  1.0148  1.7476 -1.2718
   90SAPE  H19S 8801   2.984   4.482   4.786 -0.8684 -0.7913  0.6160
   90SAPE  C220 8802   2.821   4.617   4.822 -0.2369  0.1681  0.6933
   90SAPE  H20R 8803   2.866   4.640   4.921 -3.1736  1.7241  1.8282
   90SAPE  H20S 8804   2.711   4.605   4.837  0.1213 -1.3380  2.5355
   90SAPE  H20T 8805   2.844   4.703   4.756  1.4907 -0.0351  0.9961
   90SAPE   C33 8806   2.538   3.606   6.306 -0.0947 -0.4822  0.2219
   90SAPE   H3X 8807   2.479   3.692   6.268 -2.1087 -2.2978 -0.9803
   90SAPE   H3Y 8808   2.468   3.547   6.369  1.6340 -2.6296  0.2696
   90SAPE   C34 8809   2.583   3.528   6.177  0.1792 -0.4263  0.2707
   90SAPE   H4X 8810   2.497   3.468   6.140  0.8439 -0.6387 -0.9897
   90SAPE   H4Y 8811   2.662   3.458   6.213  0.1711 -0.0261  1.0814
   90SAPE   C35 8812   2.642   3.615   6.064  0.0415 -0.3880  0.1114
   90SAPE   H5X 8813   2.743   3.650   6.092 -0.1355 -1.0692  1.6825
   90SAPE   H5Y 8814   2.584   3.709   6.047  1.6115  0.6784  0.4358
   90SAPE   C36 8815   2.640   3.536   5.931  0.5065  0.2636 -0.0422
   90SAPE   H6X 8816   2.541   3.502   5.894  1.0775 -0.9128 -0.5571
   90SAPE   H6Y 8817   2.686   3.440   5.961 -0.5126 -0.4766 -0.7655
   90SAPE   C37 8818   2.721   3.606   5.817  0.2425 -0.0044 -0.2968
   90SAPE   H7X 8819   2.812   3.641   5.870  0.1486 -1.1389  0.6585
   90SAPE   H7Y 8820   2.657   3.683   5.769 -0.2845  0.0981  0.5375
   90SAPE   C38 8821   2.747   3.506   5.701 -0.1819  0.0660  0.0465
   90SAPE   H8X 8822   2.645   3.494   5.658  0.0835 -2.0167 -0.0927
   90SAPE   H8Y 8823   2.785   3.416   5.754 -1.4575  0.1919  1.2440
   90SAPE   C39 8824   2.844   3.553   5.589  0.0334 -1.0223  0.6734
   90SAPE   H9X 8825   2.867   3.456   5.540 -1.2311 -0.7406 -0.5302
   90SAPE   H9Y 8826   2.942   3.592   5.624 -0.6563 -0.5400  2.1653
   90SAPE  C310 8827   2.789   3.650   5.481 -0.3852 -0.1539  0.3888
   90SAPE  H10X 8828   2.877   3.699   5.433 -2.0580  2.0260 -0.5996
   90SAPE  H10Y 8829   2.737   3.738   5.523 -1.2771  0.0611 -1.0866
   90SAPE  C311 8830   2.712   3.574   5.375  0.2525  0.0987  0.2335
   90SAPE  H11X 8831   2.624   3.533   5.428 -0.1275 -1.3699 -1.4557
   90SAPE  H11Y 8832   2.770   3.493   5.326  0.6507  0.8999 -0.6587
   90SAPE  C312 8833   2.649   3.660   5.272 -1.5648 -0.0350 -0.2834
   90SAPE  H12X 8834   2.584   3.736   5.320  1.6814  1.6990  1.7287
   90SAPE  H12Y 8835   2.590   3.602   5.198  0.5332 -0.9462 -1.3279
   90SAPE  C313 8836   2.746   3.731   5.178  0.3422 -0.0594  0.4193
   90SAPE  H13X 8837   2.820   3.797   5.228  2.1175 -0.3384 -1.7002
   90SAPE  H13Y 8838   2.695   3.805   5.113  1.1990  0.5864  0.4658
   90SAPE  C314 8839   2.813   3.638   5.080 -0.3546 -0.4600 -0.5837
   90SAPE  H14X 8840   2.751   3.549   5.058  0.4561 -0.9741 -0.8681
   90SAPE  H14Y 8841   2.899   3.594   5.136  1.4308  0.2672 -2.5973
   90SAPE  C315 8842   2.860   3.699   4.952 -0.4494  0.3029 -0.6956
   90SAPE  H15X 8843   2.934   3.778   4.979 -2.1724  1.4382  0.9023
   90SAPE  H15Y 8844   2.777   3.749   4.899 -0.8074  1.6268  1.0496
   90SAPE  C316 8845   2.925   3.598   4.860 -0.2075  0.4892 -0.3321
   90SAPE  H16X 8846   2.914   3.632   4.755  0.2748 -1.5619 -1.1032
   90SAPE  H16Y 8847   2.874   3.500   4.872 -0.3413  0.7267  1.2256
   90SAPE  C317 8848   3.067   3.563   4.901  0.4117  0.3959  0.6629
   90SAPE  H17X 8849   3.062   3.534   5.009 -2.8234 -0.3731  0.3921
   90SAPE  H17Y 8850   3.124   3.657   4.887  1.7763 -0.6721 -1.5893
   90SAPE  C318 8851   3.135   3.452   4.819  0.1783 -0.1441 -0.1539
   90SAPE  H18X 8852   3.222   3.415   4.877  0.0717  1.5522  1.1824
   90SAPE  H18Y 8853   3.154   3.478   4.713 -0.4290 -0.0663 -0.2487
   90SAPE  H18Z 8854   3.063   3.367   4.815  0.2067 -0.1091 -1.8404
   91SAPE     N 8855   6.526   4.222   7.458  0.1911 -0.0169  0.2041
   91SAPE   HN1 8856   6.563   4.270   7.542  0.5604  0.0621 -0.0002
   91SAPE   HN2 8857   6.600   4.208   7.386  2.1570 -1.2629  2.3342
   91SAPE   HN3 8858   6.452   4.283   7.419  1.2671  0.8355 -0.5990
   91SAPE   C12 8859   6.473   4.089   7.485  0.0908  0.4458  0.7348
   91SAPE  H12A 8860   6.378   4.100   7.541  0.3156  2.1886  0.8366
   91SAPE  H12B 8861   6.549   4.039   7.550  0.4248 -2.0904 -1.4496
   91SAPE   C11 8862   6.456   4.016   7.349  0.1861  0.2428  0.0546
   91SAPE  H11A 8863   6.374   4.052   7.284  0.3472 -0.5526 -0.6019
   91SAPE  H11B 8864   6.432   3.911   7.378  0.6842  0.4874  1.4157
   91SAPE     P 8865   6.603   4.103   7.143  0.1367 -0.4894  0.0560
   91SAPE   O13 8866   6.551   4.238   7.180 -0.4023  0.8081  0.9479
   91SAPE   O14 8867   6.747   4.097   7.109  0.3414  0.0205  0.1273
   91SAPE   O12 8868   6.578   4.011   7.275  0.3306  0.6428  0.2723
   91SAPE   O11 8869   6.531   4.036   7.017 -0.1087 -0.4081 -0.6650
   91SAPE    C1 8870   6.606   3.942   6.933 -0.7403 -0.5081  0.2099
   91SAPE    HA 8871   6.693   3.987   6.879 -0.5845  0.6959  1.4125
   91SAPE    HB 8872   6.643   3.857   6.995  0.6579 -0.3151 -0.3254
   91SAPE    C2 8873   6.522   3.871   6.820 -0.8335  0.4854  0.2895
   91SAPE    HS 8874   6.585   3.806   6.756 -0.9657 -1.0438  1.6346
   91SAPE   O21 8875   6.470   3.964   6.727 -0.4614 -0.4090  0.2092
   91SAPE   C21 8876   6.555   4.021   6.644  0.1974  0.1187 -0.0301
   91SAPE   O22 8877   6.674   3.997   6.630 -0.0780 -0.1814  0.0717
   91SAPE   C22 8878   6.476   4.115   6.552  0.0718 -0.7636 -0.2801
   91SAPE   H2R 8879   6.429   4.055   6.471  1.3459 -3.4026  0.7969
   91SAPE   H2S 8880   6.390   4.151   6.612 -1.0355 -3.5244 -0.0855
   91SAPE    C3 8881   6.410   3.774   6.872  0.1470 -0.3937  0.2438
   91SAPE    HX 8882   6.364   3.817   6.964  0.5166  1.9997 -0.6105
   91SAPE    HY 8883   6.450   3.674   6.898 -1.7357 -1.0748  0.6771
   91SAPE   O31 8884   6.316   3.753   6.769  0.2315  0.3854 -0.7771
   91SAPE   C31 8885   6.205   3.823   6.757  0.4835  0.4056  0.0900
   91SAPE   O32 8886   6.172   3.909   6.840 -0.0867 -0.3818  0.1466
   91SAPE   C32 8887   6.130   3.787   6.632 -0.4968  0.5120  0.1174
   91SAPE   H2X 8888   6.022   3.790   6.656 -0.0267 -1.3648  2.9178
   91SAPE   H2Y 8889   6.146   3.682   6.599 -1.7285  0.7479 -1.3573
   91SAPE   C23 8890   6.557   4.233   6.485 -0.0017 -0.5814 -0.1049
   91SAPE   H3R 8891   6.601   4.289   6.569 -2.7433 -1.3490  1.9905
   91SAPE   H3S 8892   6.486   4.305   6.437  0.1031  0.4896  1.3061
   91SAPE   C24 8893   6.651   4.180   6.377  0.9208 -0.5188  0.3045
   91SAPE   H4R 8894   6.572   4.149   6.305 -1.3746  0.3100  2.2972
   91SAPE   H4S 8895   6.706   4.089   6.407 -0.2563 -1.4784 -0.3406
   91SAPE   C25 8896   6.746   4.280   6.318 -0.4420  0.2192  0.3952
   91SAPE   H5R 8897   6.790   4.352   6.388  0.9884 -1.6723  1.5286
   91SAPE   C26 8898   6.766   4.290   6.185 -0.2984  0.7006  0.0009
   91SAPE   H6R 8899   6.848   4.349   6.141  2.7650 -2.4706  1.0517
   91SAPE   C27 8900   6.713   4.205   6.076 -0.0601 -0.2686 -0.3017
   91SAPE   H7R 8901   6.683   4.103   6.110  1.7808 -1.3271 -1.6365
   91SAPE   H7S 8902   6.797   4.191   6.005  2.5114  0.8753  2.2994
   91SAPE   C28 8903   6.588   4.266   6.020 -0.5747 -0.4401 -0.0388
   91SAPE   H8R 8904   6.524   4.305   6.100  1.8605  2.1145  0.8543
   91SAPE   C29 8905   6.558   4.307   5.893  0.9544  0.7130  0.0571
   91SAPE   H9R 8906   6.457   4.351   5.888  1.0287  1.5477  3.3675
   91SAPE  C210 8907   6.630   4.271   5.763  1.3636  0.1875  0.2426
   91SAPE  H10R 8908   6.713   4.342   5.748  1.3443 -0.1213 -1.4420
   91SAPE  H10S 8909   6.555   4.294   5.684  1.9278 -0.0525 -0.3644
   91SAPE  C211 8910   6.668   4.124   5.747 -0.5047  0.2333  0.9760
   91SAPE  H11R 8911   6.648   4.066   5.837 -0.2977  0.5009  1.1974
   91SAPE  C212 8912   6.715   4.064   5.637  0.4659  0.6099  0.0029
   91SAPE  H12R 8913   6.748   3.959   5.635 -0.3326  0.3508 -0.0265
   91SAPE  C213 8914   6.740   4.135   5.508 -0.4660 -0.2349 -0.2017
   91SAPE  H13R 8915   6.803   4.223   5.531 -0.6051 -0.3171  0.4983
   91SAPE  H13S 8916   6.643   4.175   5.469  0.2727  3.1164  1.0797
   91SAPE  C214 8917   6.810   4.042   5.413 -0.0352 -0.1516  0.4302
   91SAPE  H14R 8918   6.887   3.979   5.459 -1.3137 -0.6008  2.0445
   91SAPE  C215 8919   6.790   4.021   5.280  0.0906  0.2438  0.7874
   91SAPE  H15R 8920   6.851   3.942   5.234 -1.1136 -0.1968 -0.1059
   91SAPE  C216 8921   6.701   4.090   5.184 -0.7020 -0.0139  0.2002
   91SAPE  H16R 8922   6.669   4.186   5.230 -0.6315  0.3589 -0.4950
   91SAPE  H16S 8923   6.615   4.026   5.157 -1.2645  0.9508 -0.3395
   91SAPE  C217 8924   6.765   4.108   5.048  0.0204  0.0338 -0.1233
   91SAPE  H17R 8925   6.860   4.163   5.063 -0.9685  0.9819  4.0999
   91SAPE  H17S 8926   6.706   4.168   4.975  2.0100  0.4632 -1.4464
   91SAPE  C218 8927   6.788   3.977   4.968  0.7309  0.7614  0.0639
   91SAPE  H18R 8928   6.861   3.908   5.016  0.8472  1.9090  1.5825
   91SAPE  H18S 8929   6.826   3.999   4.866 -0.1731  1.1151 -0.2094
   91SAPE  C219 8930   6.667   3.892   4.925  0.0220 -0.0512 -0.4430
   91SAPE  H19R 8931   6.634   3.848   5.022 -0.4042  0.2697 -0.4370
   91SAPE  H19S 8932   6.695   3.820   4.846  0.6729 -0.0372 -0.2242
   91SAPE  C220 8933   6.547   3.961   4.860 -0.1541  0.2255  0.0567
   91SAPE  H20R 8934   6.573   3.998   4.758  2.7094  2.0348  1.3260
   91SAPE  H20S 8935   6.520   4.053   4.916 -2.7086 -0.6534  0.4091
   91SAPE  H20T 8936   6.469   3.883   4.848  0.4984 -1.2052  3.8843
   91SAPE   C33 8937   6.165   3.877   6.517 -1.3615 -0.7747 -0.0111
   91SAPE   H3X 8938   6.192   3.980   6.550 -2.8661  0.4520 -2.2601
   91SAPE   H3Y 8939   6.083   3.895   6.443 -2.3058  0.2793  1.2359
   91SAPE   C34 8940   6.282   3.829   6.438  0.3080  0.0217 -0.2700
   91SAPE   H4X 8941   6.276   3.719   6.420 -0.2068  0.0431 -0.2435
   91SAPE   H4Y 8942   6.377   3.854   6.489  0.2612 -2.2730  1.0726
   91SAPE   C35 8943   6.286   3.890   6.292 -0.4269 -0.3999 -1.3260
   91SAPE   H5X 8944   6.296   3.999   6.313 -0.8458 -0.9147  2.0795
   91SAPE   H5Y 8945   6.198   3.875   6.226 -0.8062  1.9568 -1.4620
   91SAPE   C36 8946   6.417   3.848   6.231  0.5484 -0.3484  0.0932
   91SAPE   H6X 8947   6.424   3.740   6.256  3.3064 -0.3262 -0.2661
   91SAPE   H6Y 8948   6.506   3.905   6.265 -0.7096  2.3075 -0.8210
   91SAPE   C37 8949   6.430   3.867   6.076 -0.0136 -0.3241  0.6303
   91SAPE   H7X 8950   6.540   3.866   6.059  0.0800  0.2640  1.1434
   91SAPE   H7Y 8951   6.396   3.972   6.061 -0.0941 -0.3708  0.4834
   91SAPE   C38 8952   6.336   3.767   6.008  0.2101 -0.2287 -0.6350
   91SAPE   H8X 8953   6.226   3.776   6.024 -0.1305  0.7651 -3.0815
   91SAPE   H8Y 8954   6.368   3.666   6.041  1.4694  0.8059  1.4530
   91SAPE   C39 8955   6.351   3.770   5.855 -0.5041  0.4867 -0.5804
   91SAPE   H9X 8956   6.462   3.764   5.849 -0.5114 -3.1354  0.2123
   91SAPE   H9Y 8957   6.329   3.873   5.819  2.7145  0.2212 -3.8958
   91SAPE  C310 8958   6.273   3.657   5.786  0.0294 -0.5574  0.1203
   91SAPE  H10X 8959   6.170   3.667   5.825  0.7673  3.6983  1.5393
   91SAPE  H10Y 8960   6.317   3.558   5.809  0.6777 -0.2833  0.0908
   91SAPE  C311 8961   6.271   3.683   5.637  0.0740 -0.7000  0.4823
   91SAPE  H11X 8962   6.374   3.688   5.594  0.4273 -0.9929  1.2831
   91SAPE  H11Y 8963   6.226   3.782   5.613 -1.1483 -1.5444 -0.8829
   91SAPE  C312 8964   6.191   3.572   5.564 -0.1121  0.0824  0.1461
   91SAPE  H12X 8965   6.084   3.604   5.563 -0.1363 -0.0071 -0.1538
   91SAPE  H12Y 8966   6.184   3.473   5.614  1.5256 -0.9963 -1.6455
   91SAPE  C313 8967   6.246   3.551   5.425 -0.2935 -0.3188  0.3601
   91SAPE  H13X 8968   6.341   3.495   5.433 -0.9820 -1.9267 -1.6553
   91SAPE  H13Y 8969   6.266   3.653   5.388 -2.4693  0.4890  1.2250
   91SAPE  C314 8970   6.160   3.454   5.344  0.1869 -0.4062  0.1367
   91SAPE  H14X 8971   6.054   3.488   5.339 -0.2902 -1.4462  2.1111
   91SAPE  H14Y 8972   6.145   3.357   5.395 -2.6335 -0.6219 -0.9443
   91SAPE  C315 8973   6.221   3.423   5.205 -0.3874 -0.4013 -0.7114
   91SAPE  H15X 8974   6.320   3.373   5.216  0.3007  1.3545  2.1028
   91SAPE  H15Y 8975   6.237   3.516   5.146 -0.8604 -0.5978 -1.1550
   91SAPE  C316 8976   6.132   3.326   5.123 -0.3941 -0.0218 -0.4479
   91SAPE  H16X 8977   6.175   3.307   5.023  1.1415 -4.8351  0.8629
   91SAPE  H16Y 8978   6.036   3.376   5.098 -0.2169 -0.2324 -1.6080
   91SAPE  C317 8979   6.103   3.191   5.189  0.2547 -0.1018 -1.2010
   91SAPE  H17X 8980   6.070   3.201   5.294 -0.3496  2.5353 -1.5773
   91SAPE  H17Y 8981   6.200   3.140   5.203  1.1194  0.8094 -3.3510
   91SAPE  C318 8982   5.996   3.104   5.122  0.4775 -0.1341 -1.1430
   91SAPE  H18X 8983   5.932   3.048   5.194  1.5203 -1.8560 -1.4976
   91SAPE  H18Y 8984   6.053   3.041   5.050 -1.4405 -0.5469 -2.3988
   91SAPE  H18Z 8985   5.924   3.160   5.058  0.7965 -0.8817 -2.1777
   92SAPE     N 8986   3.494   5.048   6.838  0.5125  0.0086  0.4932
   92SAPE   HN1 8987   3.475   4.951   6.870 -1.1295 -0.3729 -1.4160
   92SAPE   HN2 8988   3.523   5.049   6.738 -1.0271  1.6498 -0.0066
   92SAPE   HN3 8989   3.569   5.086   6.899  0.2884 -1.4273  1.7129
   92SAPE   C12 8990   3.374   5.135   6.868  0.3627 -0.2934  0.4535
   92SAPE  H12A 8991   3.424   5.234   6.868  3.4917 -1.7582 -0.2204
   92SAPE  H12B 8992   3.331   5.109   6.967 -2.3893 -0.0628 -0.5895
   92SAPE   C11 8993   3.265   5.118   6.759  0.1782 -0.0663 -0.0181
   92SAPE  H11A 8994   3.313   5.170   6.673  1.1032 -0.2193  0.3924
   92SAPE  H11B 8995   3.166   5.167   6.773 -0.4302 -0.7966 -1.4576
   92SAPE     P 8996   3.117   4.915   6.793  0.1111  0.5146  0.0710
   92SAPE   O13 8997   3.118   4.778   6.746 -0.2270 -0.3051 -0.6353
   92SAPE   O14 8998   3.106   4.946   6.936  0.2883  0.2143  0.2007
   92SAPE   O12 8999   3.242   4.979   6.721 -0.5147 -0.0781  0.1069
   92SAPE   O11 9000   3.006   4.999   6.718  0.8430  0.5173 -0.3260
   92SAPE    C1 9001   2.934   4.963   6.598 -0.2506 -0.1522  0.4178
   92SAPE    HA 9002   3.000   4.928   6.515 -1.0726 -0.9586  0.0844
   92SAPE    HB 9003   2.872   4.874   6.623  3.1015 -2.3876  1.3384
   92SAPE    C2 9004   2.847   5.085   6.547  0.8326 -0.1212  0.4172
   92SAPE    HS 9005   2.785   5.127   6.629  0.9858  0.2437  0.3508
   92SAPE   O21 9006   2.759   5.038   6.438 -0.1645  0.9120 -0.2272
   92SAPE   C21 9007   2.655   5.098   6.396  0.4872 -0.6460  0.0946
   92SAPE   O22 9008   2.593   5.190   6.444  0.1797 -0.3029  0.1633
   92SAPE   C22 9009   2.597   5.033   6.269  0.1069  0.0352 -0.6231
   92SAPE   H2R 9010   2.660   4.943   6.252  0.8147  0.6019 -1.0851
   92SAPE   H2S 9011   2.492   5.009   6.297 -0.2639  1.1473 -1.0246
   92SAPE    C3 9012   2.942   5.198   6.499  0.5154  0.4030  0.4057
   92SAPE    HX 9013   3.023   5.138   6.453 -0.2955 -1.3567  1.1768
   92SAPE    HY 9014   2.981   5.242   6.593  0.8223  0.8349  0.0773
   92SAPE   O31 9015   2.892   5.287   6.400 -0.4231 -0.0731  0.0281
   92SAPE   C31 9016   2.822   5.400   6.440  0.7686  0.6536 -0.8467
   92SAPE   O32 9017   2.799   5.426   6.557  0.3701 -0.3850  0.1442
   92SAPE   C32 9018   2.783   5.491   6.323  1.1189 -0.6379  0.0380
   92SAPE   H2X 9019   2.809   5.443   6.226  0.4317  1.8311 -1.4519
   92SAPE   H2Y 9020   2.859   5.572   6.329 -0.5394  0.8939  3.0908
   92SAPE   C23 9021   2.582   5.123   6.146  0.7929  0.4215  0.5686
   92SAPE   H3R 9022   2.531   5.217   6.177  0.3857 -1.0153  4.8831
   92SAPE   H3S 9023   2.522   5.069   6.070  0.8917 -0.6619  1.2435
   92SAPE   C24 9024   2.710   5.146   6.070  0.2256  0.5443 -0.5761
   92SAPE   H4R 9025   2.753   5.047   6.046 -0.0971 -0.5739  2.8966
   92SAPE   H4S 9026   2.788   5.188   6.137 -1.1105  0.6787  0.9500
   92SAPE   C25 9027   2.699   5.233   5.947  0.3664 -0.0847  0.0661
   92SAPE   H5R 9028   2.688   5.342   5.964 -0.5249  0.1569 -1.8185
   92SAPE   C26 9029   2.697   5.179   5.823  0.0820  0.4861  1.0397
   92SAPE   H6R 9030   2.659   5.243   5.743 -1.1279 -2.1409 -0.6324
   92SAPE   C27 9031   2.702   5.029   5.787  0.8365 -0.2485 -0.1807
   92SAPE   H7R 9032   2.699   4.956   5.871  0.5290  0.0914  0.1057
   92SAPE   H7S 9033   2.797   5.014   5.731  1.6899 -1.1838  1.4408
   92SAPE   C28 9034   2.577   5.006   5.705  0.1432  0.1396  0.1768
   92SAPE   H8R 9035   2.485   4.997   5.765  1.2035 -1.5264  1.6497
   92SAPE   C29 9036   2.567   5.004   5.573  0.2230 -0.5133 -0.6125
   92SAPE   H9R 9037   2.467   4.997   5.529 -0.2571  2.6294 -0.2608
   92SAPE  C210 9038   2.683   5.026   5.474 -0.6761  0.4181 -0.4829
   92SAPE  H10R 9039   2.703   4.933   5.416 -2.3507  0.5576 -1.3307
   92SAPE  H10S 9040   2.776   5.045   5.532 -0.2489 -3.2771  0.2658
   92SAPE  C211 9041   2.655   5.132   5.378 -0.2311  0.0215 -0.0845
   92SAPE  H11R 9042   2.692   5.230   5.411 -0.2416  0.5859 -1.6825
   92SAPE  C212 9043   2.599   5.123   5.261 -0.3205 -0.4013 -0.1542
   92SAPE  H12R 9044   2.601   5.220   5.209 -0.3727  0.2130  0.9703
   92SAPE  C213 9045   2.552   5.004   5.180 -0.1477 -0.1300  0.4302
   92SAPE  H13R 9046   2.446   5.017   5.148 -0.3710 -0.5129  0.9958
   92SAPE  H13S 9047   2.545   4.917   5.250 -1.3601  0.1814  0.7226
   92SAPE  C214 9048   2.646   4.976   5.067 -0.0869  0.4062  0.1235
   92SAPE  H14R 9049   2.751   5.000   5.093 -0.0719  1.4571 -0.8167
   92SAPE  C215 9050   2.608   4.953   4.940 -1.1111 -0.2613  0.1276
   92SAPE  H15R 9051   2.679   4.941   4.856 -1.3255 -1.7062  0.1341
   92SAPE  C216 9052   2.465   4.922   4.889 -0.4697  0.3595 -0.2026
   92SAPE  H16R 9053   2.401   4.856   4.951 -1.4654  1.0418 -0.4738
   92SAPE  H16S 9054   2.475   4.877   4.788  2.3992 -0.7312  0.4777
   92SAPE  C217 9055   2.364   5.044   4.862 -0.2303  0.5153 -0.7226
   92SAPE  H17R 9056   2.414   5.137   4.827 -0.0169  0.0386 -1.7254
   92SAPE  H17S 9057   2.302   5.070   4.951  1.1885  0.3786  0.3449
   92SAPE  C218 9058   2.272   5.033   4.737 -0.3848 -0.0737 -0.2029
   92SAPE  H18R 9059   2.221   4.935   4.746  0.7806 -0.5969  1.0583
   92SAPE  H18S 9060   2.326   5.023   4.640 -0.6662 -2.0885 -0.1973
   92SAPE  C219 9061   2.152   5.133   4.752 -0.3608  0.1546  0.1304
   92SAPE  H19R 9062   2.192   5.236   4.743 -1.3127  0.7006  1.6720
   92SAPE  H19S 9063   2.125   5.124   4.860  0.5889  1.2635  0.4775
   92SAPE  C220 9064   2.034   5.109   4.657  0.1751 -0.4647 -0.4899
   92SAPE  H20R 9065   2.049   5.156   4.558 -0.6266  0.6204 -0.1057
   92SAPE  H20S 9066   1.945   5.157   4.701  0.6198 -0.2854  0.2437
   92SAPE  H20T 9067   2.019   4.999   4.650  1.0712 -0.6122 -0.2368
   92SAPE   C33 9068   2.640   5.548   6.333  0.3447 -0.0637  0.4759
   92SAPE   H3X 9069   2.638   5.600   6.430 -0.5315  2.7420 -0.9390
   92SAPE   H3Y 9070   2.566   5.465   6.335 -0.7999  0.9077 -0.2919
   92SAPE   C34 9071   2.582   5.627   6.215  0.3704  0.2352  0.2055
   92SAPE   H4X 9072   2.649   5.715   6.208  0.0117  0.7490  2.3434
   92SAPE   H4Y 9073   2.479   5.655   6.246  0.0861  1.0983 -1.4523
   92SAPE   C35 9074   2.592   5.563   6.077  0.0652 -0.1619 -0.2946
   92SAPE   H5X 9075   2.564   5.457   6.095  4.7350 -1.1989  2.3447
   92SAPE   H5Y 9076   2.698   5.551   6.047 -0.0844 -0.0603 -0.8998
   92SAPE   C36 9077   2.511   5.637   5.973 -0.0349 -0.3465 -0.4956
   92SAPE   H6X 9078   2.562   5.735   5.958 -1.3190  0.0527 -2.9337
   92SAPE   H6Y 9079   2.411   5.656   6.016 -0.1357 -0.1479 -0.8068
   92SAPE   C37 9080   2.498   5.566   5.830 -0.0008  0.5305 -1.4036
   92SAPE   H7X 9081   2.394   5.527   5.823  0.1178 -0.2394  0.5284
   92SAPE   H7Y 9082   2.567   5.479   5.831 -1.1894 -0.5201 -3.7034
   92SAPE   C38 9083   2.520   5.659   5.714 -0.3502  0.0302  0.4152
   92SAPE   H8X 9084   2.624   5.698   5.717 -0.2024 -0.2264 -0.6511
   92SAPE   H8Y 9085   2.457   5.750   5.717  0.2793  0.4541  2.4235
   92SAPE   C39 9086   2.502   5.588   5.586  0.6061 -0.3693  0.0244
   92SAPE   H9X 9087   2.392   5.584   5.572  0.1361  1.1357  2.6453
   92SAPE   H9Y 9088   2.543   5.485   5.598 -0.5646 -0.8919 -0.2475
   92SAPE  C310 9089   2.551   5.673   5.468 -0.4721  0.4394  0.4166
   92SAPE  H10X 9090   2.662   5.673   5.470 -0.3088 -2.7721 -1.3447
   92SAPE  H10Y 9091   2.507   5.775   5.467  0.3475  0.8132 -1.6046
   92SAPE  C311 9092   2.519   5.596   5.329  0.7814 -0.2525  0.8605
   92SAPE  H11X 9093   2.425   5.541   5.348  0.8994 -0.8869 -0.2914
   92SAPE  H11Y 9094   2.605   5.530   5.304  0.9881  0.3132  0.0289
   92SAPE  C312 9095   2.493   5.698   5.215  0.4631  0.2549  0.0855
   92SAPE  H12X 9096   2.583   5.763   5.211  1.5400 -1.1653  0.8378
   92SAPE  H12Y 9097   2.397   5.753   5.226 -0.4642 -0.5130 -3.0671
   92SAPE  C313 9098   2.470   5.621   5.079 -0.0787  0.2705 -0.6552
   92SAPE  H13X 9099   2.369   5.575   5.090  0.8197 -1.6830 -0.1475
   92SAPE  H13Y 9100   2.548   5.542   5.085  0.1432  0.5916  1.2462
   92SAPE  C314 9101   2.491   5.706   4.952  0.2318  0.1015 -0.4433
   92SAPE  H14X 9102   2.597   5.720   4.922  1.1799 -3.3938  0.8573
   92SAPE  H14Y 9103   2.443   5.805   4.967  1.6758  0.7258  0.2737
   92SAPE  C315 9104   2.427   5.645   4.820 -0.8566  0.5073  0.3202
   92SAPE  H15X 9105   2.474   5.546   4.803  0.1724  1.1955 -1.0804
   92SAPE  H15Y 9106   2.449   5.714   4.736  1.4318  0.3897  0.7619
   92SAPE  C316 9107   2.277   5.626   4.818 -0.4267  0.3111 -0.1614
   92SAPE  H16X 9108   2.236   5.715   4.870  1.0078  0.2483  1.1350
   92SAPE  H16Y 9109   2.258   5.538   4.883 -0.5885  0.9734  0.7059
   92SAPE  C317 9110   2.201   5.597   4.691 -0.8883 -1.1936  0.2371
   92SAPE  H17X 9111   2.093   5.569   4.699 -0.4663 -2.7748  0.8321
   92SAPE  H17Y 9112   2.254   5.510   4.647  2.5684  0.8756  0.0064
   92SAPE  C318 9113   2.190   5.724   4.592  0.2434  0.2747  0.4233
   92SAPE  H18X 9114   2.291   5.758   4.562  1.5700 -4.2171 -1.0945
   92SAPE  H18Y 9115   2.130   5.803   4.641  1.6225 -0.4011  3.4951
   92SAPE  H18Z 9116   2.149   5.697   4.493  0.4726  1.4848 -0.0130
   93SAPE     N 9117   2.266   6.904   6.845  0.2074 -0.3657 -0.0498
   93SAPE   HN1 9118   2.321   6.980   6.890  1.1695 -2.0093  1.6869
   93SAPE   HN2 9119   2.174   6.890   6.891  1.2909 -1.7454  1.8565
   93SAPE   HN3 9120   2.315   6.814   6.863 -1.6603 -1.6709 -1.0888
   93SAPE   C12 9121   2.254   6.931   6.701 -0.0963  0.6086 -0.3868
   93SAPE  H12A 9122   2.187   7.019   6.689 -0.0704  0.9254  1.5404
   93SAPE  H12B 9123   2.202   6.841   6.662  1.4028 -0.1921 -0.5972
   93SAPE   C11 9124   2.388   6.957   6.629  0.5146 -0.1752 -0.7271
   93SAPE  H11A 9125   2.366   6.945   6.521 -1.4209  0.5038 -0.4404
   93SAPE  H11B 9126   2.451   6.872   6.665  0.3615  0.6307  1.5784
   93SAPE     P 9127   2.392   7.215   6.594  0.0425 -0.0866  0.1421
   93SAPE   O13 9128   2.258   7.244   6.646  0.9619 -0.4344 -0.2519
   93SAPE   O14 9129   2.490   7.324   6.598  0.3786  0.0191  0.1467
   93SAPE   O12 9130   2.443   7.084   6.666 -0.1048  0.1332 -0.7626
   93SAPE   O11 9131   2.372   7.169   6.452 -0.5443  0.2306  0.2542
   93SAPE    C1 9132   2.490   7.148   6.377 -0.3451 -0.3799 -0.8427
   93SAPE    HA 9133   2.563   7.232   6.385 -1.8724  1.0202 -0.9283
   93SAPE    HB 9134   2.533   7.052   6.411 -2.5381 -1.2935 -0.5001
   93SAPE    C2 9135   2.469   7.109   6.220 -0.9731 -1.1539  0.4570
   93SAPE    HS 9136   2.423   7.200   6.177  1.7243 -1.3745 -3.4231
   93SAPE   O21 9137   2.384   6.992   6.222 -0.4939 -0.1941  0.5198
   93SAPE   C21 9138   2.254   7.016   6.235  0.4438 -0.1804  0.0272
   93SAPE   O22 9139   2.207   7.130   6.226  0.0825  0.4779 -0.5347
   93SAPE   C22 9140   2.174   6.892   6.270 -0.2837  0.8639 -0.1902
   93SAPE   H2R 9141   2.192   6.809   6.197  1.5649 -1.7467  2.9936
   93SAPE   H2S 9142   2.216   6.860   6.367  2.0418 -0.0467 -1.4237
   93SAPE    C3 9143   2.608   7.067   6.155  0.2167 -0.2656 -0.2504
   93SAPE    HX 9144   2.585   7.051   6.048 -1.0386  1.9367 -0.3788
   93SAPE    HY 9145   2.644   6.978   6.210 -0.3706  0.9356  2.2384
   93SAPE   O31 9146   2.699   7.175   6.179 -0.1285 -0.9451 -0.0522
   93SAPE   C31 9147   2.807   7.145   6.108  0.8069 -0.8020 -0.0786
   93SAPE   O32 9148   2.824   7.036   6.060 -0.9454  0.4728 -0.0855
   93SAPE   C32 9149   2.894   7.265   6.089 -0.3819  0.3912  0.2824
   93SAPE   H2X 9150   3.001   7.235   6.103 -0.9920 -2.0332  0.2929
   93SAPE   H2Y 9151   2.873   7.343   6.165  0.0721 -1.0400  1.9481
   93SAPE   C23 9152   2.024   6.922   6.302 -0.0041  0.4494 -0.0468
   93SAPE   H3R 9153   1.997   7.030   6.300  0.7788  0.6435 -1.7816
   93SAPE   H3S 9154   2.006   6.880   6.403  1.5965 -0.5226 -0.1462
   93SAPE   C24 9155   1.921   6.855   6.198  0.4904  0.1077  0.1858
   93SAPE   H4R 9156   1.936   6.895   6.095 -1.0084 -0.1764 -0.1711
   93SAPE   H4S 9157   1.826   6.901   6.232 -2.0730 -3.8916 -0.8354
   93SAPE   C25 9158   1.906   6.706   6.221  0.2940  0.4576 -0.0047
   93SAPE   H5R 9159   1.858   6.672   6.314 -1.1708  0.4533 -0.7372
   93SAPE   C26 9160   1.959   6.618   6.135  0.2800  0.2954  0.0620
   93SAPE   H6R 9161   1.949   6.510   6.157 -2.4170  0.4024 -0.3237
   93SAPE   C27 9162   2.023   6.644   5.999  0.6924 -0.0178  0.5322
   93SAPE   H7R 9163   2.120   6.590   6.000  1.5448  1.4327  0.3752
   93SAPE   H7S 9164   2.052   6.750   5.981  1.9511 -0.6790 -1.8212
   93SAPE   C28 9165   1.941   6.583   5.884  0.1696  0.0236  0.0871
   93SAPE   H8R 9166   1.927   6.474   5.895 -1.7474  0.0999 -1.2091
   93SAPE   C29 9167   1.880   6.637   5.782  0.0517 -0.3393 -0.1615
   93SAPE   H9R 9168   1.812   6.582   5.716  1.3970 -0.4650 -1.4954
   93SAPE  C210 9169   1.878   6.780   5.744  0.5080 -0.2200 -0.7719
   93SAPE  H10R 9170   1.955   6.798   5.666  3.1542 -0.7365  1.5273
   93SAPE  H10S 9171   1.907   6.845   5.829 -1.5549  0.6622 -0.6951
   93SAPE  C211 9172   1.740   6.827   5.701 -0.2864  0.0737 -0.3301
   93SAPE  H11R 9173   1.660   6.771   5.752 -0.2394 -2.4003 -2.7844
   93SAPE  C212 9174   1.708   6.920   5.609  0.3191  0.2418 -0.3350
   93SAPE  H12R 9175   1.604   6.940   5.577 -0.0246 -0.8169  0.0830
   93SAPE  C213 9176   1.807   6.993   5.523 -0.2004  0.0067 -0.2350
   93SAPE  H13R 9177   1.906   6.982   5.572  0.1262 -2.1668 -1.2619
   93SAPE  H13S 9178   1.803   7.103   5.537 -0.3539 -0.3593  3.5841
   93SAPE  C214 9179   1.826   6.949   5.383 -0.5013  0.0356  0.1243
   93SAPE  H14R 9180   1.786   6.850   5.356  0.2178 -0.4049  0.6131
   93SAPE  C215 9181   1.882   7.026   5.285 -0.7737  0.0599 -0.0944
   93SAPE  H15R 9182   1.893   6.970   5.191 -0.8954 -0.1068 -0.0096
   93SAPE  C216 9183   1.918   7.175   5.294 -0.0221  0.0224  0.5930
   93SAPE  H16R 9184   1.996   7.188   5.217 -0.5734 -3.8573 -0.8420
   93SAPE  H16S 9185   1.963   7.195   5.393  2.0664 -1.3613 -0.0213
   93SAPE  C217 9186   1.799   7.278   5.283  0.1395  0.5423  0.0874
   93SAPE  H17R 9187   1.722   7.247   5.355  2.0616 -1.3537  1.4539
   93SAPE  H17S 9188   1.755   7.262   5.182  1.4518 -2.0098 -0.1761
   93SAPE  C218 9189   1.843   7.421   5.295  0.4326  0.1524 -0.3417
   93SAPE  H18R 9190   1.864   7.454   5.399 -0.6687 -0.1405 -0.0140
   93SAPE  H18S 9191   1.758   7.483   5.260  0.7889  0.5021 -0.5957
   93SAPE  C219 9192   1.954   7.455   5.197  0.0719  0.4030  0.0367
   93SAPE  H19R 9193   1.941   7.393   5.106  1.5697 -0.5311  0.4388
   93SAPE  H19S 9194   2.055   7.436   5.238 -1.1655 -2.2364  2.1570
   93SAPE  C220 9195   1.942   7.597   5.151 -0.7182  0.3796  0.1801
   93SAPE  H20R 9196   1.949   7.657   5.244  1.1409 -2.0520  1.7164
   93SAPE  H20S 9197   1.845   7.591   5.096  0.5187 -1.4720 -1.9599
   93SAPE  H20T 9198   2.018   7.621   5.074 -1.9835 -1.3123 -1.6731
   93SAPE   C33 9199   2.882   7.315   5.944 -1.2876 -0.5708 -0.0228
   93SAPE   H3X 9200   2.910   7.233   5.874 -1.2501 -0.2346 -0.4042
   93SAPE   H3Y 9201   2.951   7.400   5.927 -0.3171 -1.2173  0.5589
   93SAPE   C34 9202   2.740   7.366   5.904  0.7758 -0.0663  0.5360
   93SAPE   H4X 9203   2.706   7.443   5.977  0.5869  0.8933 -0.5212
   93SAPE   H4Y 9204   2.677   7.278   5.879  1.3262 -0.1683 -0.5627
   93SAPE   C35 9205   2.739   7.433   5.769  0.4525 -0.1621  0.6562
   93SAPE   H5X 9206   2.799   7.527   5.769  1.7255 -0.9468 -0.1516
   93SAPE   H5Y 9207   2.637   7.457   5.735  0.8737  0.1834 -0.3904
   93SAPE   C36 9208   2.792   7.353   5.647 -0.6739  0.3291 -0.3684
   93SAPE   H6X 9209   2.772   7.244   5.648  3.0912 -0.6255 -3.5307
   93SAPE   H6Y 9210   2.903   7.354   5.658 -0.4715 -2.1812 -1.4537
   93SAPE   C37 9211   2.757   7.423   5.517 -0.4112 -0.1875 -0.5183
   93SAPE   H7X 9212   2.836   7.499   5.498 -0.6027  1.1839  3.3221
   93SAPE   H7Y 9213   2.663   7.481   5.526  0.6315  1.6340 -0.6978
   93SAPE   C38 9214   2.739   7.330   5.399 -0.4457  0.4111  0.3531
   93SAPE   H8X 9215   2.639   7.281   5.405 -0.8349  1.1815  0.2518
   93SAPE   H8Y 9216   2.822   7.256   5.407  0.4817  1.2629 -1.0037
   93SAPE   C39 9217   2.752   7.416   5.270  0.1292 -0.6480 -0.2935
   93SAPE   H9X 9218   2.851   7.467   5.273  0.1445 -0.6900 -0.0809
   93SAPE   H9Y 9219   2.661   7.480   5.264 -0.9493 -1.9733  1.2107
   93SAPE  C310 9220   2.767   7.337   5.148 -0.4962 -0.7935  0.5995
   93SAPE  H10X 9221   2.682   7.265   5.146 -1.5854  0.4826 -0.1605
   93SAPE  H10Y 9222   2.857   7.271   5.154 -1.1540 -1.7551  0.0861
   93SAPE  C311 9223   2.777   7.419   5.015 -0.0553  0.3373  0.3532
   93SAPE  H11X 9224   2.776   7.344   4.933  0.1221  0.8035 -0.0731
   93SAPE  H11Y 9225   2.872   7.476   5.015  0.7313 -0.8905  1.3898
   93SAPE  C312 9226   2.655   7.510   4.992 -0.8698  0.1457  0.1628
   93SAPE  H12X 9227   2.636   7.578   5.078  0.1641  2.0384 -1.0059
   93SAPE  H12Y 9228   2.572   7.436   4.982 -0.1038 -0.6601 -0.3394
   93SAPE  C313 9229   2.664   7.609   4.872  0.0867 -0.1197  0.0301
   93SAPE  H13X 9230   2.684   7.543   4.785 -2.0718 -0.4038 -0.2926
   93SAPE  H13Y 9231   2.750   7.678   4.889  0.9247 -1.3117  0.7539
   93SAPE  C314 9232   2.537   7.690   4.841  0.3879 -0.2512 -0.2017
   93SAPE  H14X 9233   2.509   7.747   4.932 -0.6698 -2.6559  1.1033
   93SAPE  H14Y 9234   2.449   7.625   4.822 -0.1731  0.6222 -0.6431
   93SAPE  C315 9235   2.551   7.781   4.716  0.0640 -0.6336  0.2278
   93SAPE  H15X 9236   2.560   7.715   4.627  0.9849 -0.1241 -0.0813
   93SAPE  H15Y 9237   2.649   7.833   4.727 -0.0822 -0.1000 -0.8526
   93SAPE  C316 9238   2.427   7.871   4.715 -0.2738 -0.2851  0.4355
   93SAPE  H16X 9239   2.436   7.946   4.796 -1.5391  0.7393 -0.3303
   93SAPE  H16Y 9240   2.341   7.802   4.726 -0.4657 -0.4409 -1.7051
   93SAPE  C317 9241   2.394   7.939   4.576  0.1353  0.3955 -0.0610
   93SAPE  H17X 9242   2.288   7.966   4.596  1.1442  3.5966  1.4904
   93SAPE  H17Y 9243   2.393   7.865   4.492 -1.7321 -0.2839  0.5077
   93SAPE  C318 9244   2.475   8.059   4.537 -0.3062 -0.2614  0.6882
   93SAPE  H18X 9245   2.470   8.136   4.618  0.0491  1.1959 -0.6362
   93SAPE  H18Y 9246   2.446   8.097   4.437 -0.3303  0.0544  0.8144
   93SAPE  H18Z 9247   2.584   8.039   4.534 -0.7664 -3.2388  0.8301
   94SAPE     N 9248   0.953   1.325   6.535  0.4022 -0.4923  0.3485
   94SAPE   HN1 9249   0.981   1.424   6.515 -2.2071  0.2188 -0.1818
   94SAPE   HN2 9250   0.852   1.335   6.557  0.4537  1.1807  0.0235
   94SAPE   HN3 9251   0.989   1.293   6.627 -1.5854  0.7935  1.6537
   94SAPE   C12 9252   0.967   1.227   6.425 -0.3268 -0.0805  1.2019
   94SAPE  H12A 9253   0.971   1.276   6.325  0.1809  0.2957  1.4005
   94SAPE  H12B 9254   0.883   1.156   6.438 -1.0629  0.8040  1.3868
   94SAPE   C11 9255   1.103   1.154   6.451  0.0015  0.0970  0.4536
   94SAPE  H11A 9256   1.120   1.093   6.360 -0.6069  0.3987  0.1316
   94SAPE  H11B 9257   1.095   1.087   6.539  2.0416 -1.2961 -0.3637
   94SAPE     P 9258   1.360   1.204   6.451  0.1792 -0.0025 -0.0115
   94SAPE   O13 9259   1.437   1.274   6.555 -0.1485  0.1033  0.2987
   94SAPE   O14 9260   1.374   1.056   6.444 -0.1262 -0.4068  0.3824
   94SAPE   O12 9261   1.212   1.242   6.475  1.0108  0.7351  0.4249
   94SAPE   O11 9262   1.405   1.266   6.312 -0.0175 -0.0673  0.0993
   94SAPE    C1 9263   1.349   1.390   6.268  0.0974  0.1272  0.1757
   94SAPE    HA 9264   1.313   1.452   6.353 -0.6832 -1.3426  0.9590
   94SAPE    HB 9265   1.426   1.440   6.205 -2.2933  2.8806 -0.7990
   94SAPE    C2 9266   1.228   1.359   6.180 -0.4225 -0.2658 -0.3187
   94SAPE    HS 9267   1.159   1.305   6.248  1.5569 -1.9803  0.4419
   94SAPE   O21 9268   1.272   1.267   6.079  0.8752 -0.3954  0.2783
   94SAPE   C21 9269   1.175   1.190   6.031 -0.2723 -0.0791  0.3384
   94SAPE   O22 9270   1.053   1.206   6.048 -0.5975  0.0483 -0.0579
   94SAPE   C22 9271   1.241   1.076   5.957 -0.7748 -0.4471  0.1067
   94SAPE   H2R 9272   1.323   1.124   5.899 -0.6943  0.5709  1.0508
   94SAPE   H2S 9273   1.292   1.004   6.025  1.8226  0.8768 -0.3339
   94SAPE    C3 9274   1.156   1.484   6.129  0.1789  0.0832  0.6561
   94SAPE    HX 9275   1.127   1.543   6.218 -0.6818  0.1854  0.3177
   94SAPE    HY 9276   1.058   1.463   6.081 -0.3094 -0.0571  1.6864
   94SAPE   O31 9277   1.242   1.563   6.044  0.2161 -0.1868 -0.5790
   94SAPE   C31 9278   1.182   1.649   5.960 -0.0210  0.1459  0.1509
   94SAPE   O32 9279   1.063   1.662   5.943 -0.1762  0.3039  0.5362
   94SAPE   C32 9280   1.288   1.725   5.880  0.1459  0.3960  0.8388
   94SAPE   H2X 9281   1.385   1.670   5.890 -0.2858 -0.4297  0.5715
   94SAPE   H2Y 9282   1.305   1.824   5.927  2.7314  0.4443 -0.0055
   94SAPE   C23 9283   1.141   0.996   5.877  0.2521  0.6446 -0.5497
   94SAPE   H3R 9284   1.087   1.058   5.803  0.2054  1.9701  0.5701
   94SAPE   H3S 9285   1.059   0.967   5.947  0.9138 -0.3706 -0.1613
   94SAPE   C24 9286   1.202   0.871   5.808  0.7299 -0.3103  0.5793
   94SAPE   H4R 9287   1.267   0.904   5.724  0.0082  0.5472  0.3380
   94SAPE   H4S 9288   1.122   0.815   5.754  0.2433  1.4918 -0.6413
   94SAPE   C25 9289   1.268   0.781   5.901  0.0104 -0.5757 -0.3056
   94SAPE   H5R 9290   1.374   0.806   5.913 -0.3693  1.1558 -0.3677
   94SAPE   C26 9291   1.234   0.659   5.939  0.3985 -0.1660 -0.1231
   94SAPE   H6R 9292   1.296   0.595   6.004 -0.0903 -0.3691  0.1462
   94SAPE   C27 9293   1.096   0.588   5.904 -0.1670 -0.4929 -0.0252
   94SAPE   H7R 9294   1.018   0.665   5.887  0.0701 -0.6699 -2.3421
   94SAPE   H7S 9295   1.057   0.520   5.982 -1.0140 -0.7349 -0.6465
   94SAPE   C28 9296   1.126   0.519   5.776  0.6895  0.3294 -0.1275
   94SAPE   H8R 9297   1.231   0.495   5.753  0.5270 -1.3130  0.6494
   94SAPE   C29 9298   1.034   0.475   5.687 -0.3050 -0.6754 -0.5030
   94SAPE   H9R 9299   1.061   0.416   5.598 -1.8679  0.4380 -1.7704
   94SAPE  C210 9300   0.891   0.492   5.702  0.0100  0.4828 -0.5816
   94SAPE  H10R 9301   0.871   0.601   5.705  0.0869  0.4804  0.2165
   94SAPE  H10S 9302   0.845   0.461   5.798 -2.4898  0.8768 -1.5771
   94SAPE  C211 9303   0.813   0.429   5.594 -0.8626  0.2853 -0.2145
   94SAPE  H11R 9304   0.793   0.330   5.637  0.2738  0.0943 -0.0941
   94SAPE  C212 9305   0.762   0.473   5.478  0.4006 -0.3543 -0.4068
   94SAPE  H12R 9306   0.691   0.410   5.422  1.5834 -2.2545  0.1366
   94SAPE  C213 9307   0.792   0.608   5.422 -0.3482  0.6185  0.5701
   94SAPE  H13R 9308   0.776   0.692   5.492 -1.5454 -0.3886  1.5531
   94SAPE  H13S 9309   0.708   0.619   5.350 -0.4061  0.4779  0.6146
   94SAPE  C214 9310   0.929   0.624   5.354  0.0576  0.1775 -0.1219
   94SAPE  H14R 9311   1.012   0.641   5.424 -0.0696  1.8273 -0.3327
   94SAPE  C215 9312   0.958   0.603   5.227  0.0146  0.2951  0.2426
   94SAPE  H15R 9313   1.063   0.611   5.196  0.6216 -0.8905  1.8493
   94SAPE  C216 9314   0.852   0.557   5.122 -0.2846 -0.1671 -0.2686
   94SAPE  H16R 9315   0.761   0.620   5.120  0.0672  0.4115  1.0890
   94SAPE  H16S 9316   0.812   0.462   5.160 -1.0301 -0.0545 -0.7548
   94SAPE  C217 9317   0.891   0.546   4.978 -0.6823 -0.3372  0.1179
   94SAPE  H17R 9318   0.807   0.516   4.913 -0.3809  1.3057 -1.1092
   94SAPE  H17S 9319   0.976   0.474   4.977 -1.1117 -0.9116  1.7064
   94SAPE  C218 9320   0.929   0.689   4.919 -0.3700 -0.1967 -0.1625
   94SAPE  H18R 9321   1.012   0.729   4.981  1.1927 -2.2228 -0.8189
   94SAPE  H18S 9322   0.840   0.752   4.939 -0.3506  0.6068 -2.3357
   94SAPE  C219 9323   0.974   0.679   4.764  0.4962 -0.5008 -0.4694
   94SAPE  H19R 9324   0.963   0.781   4.721  0.0280 -0.3466  0.0079
   94SAPE  H19S 9325   0.895   0.615   4.721 -0.4913  0.7188 -0.5272
   94SAPE  C220 9326   1.104   0.620   4.738 -0.4155  0.2484 -0.2334
   94SAPE  H20R 9327   1.123   0.599   4.631  0.2699  1.4898 -0.3795
   94SAPE  H20S 9328   1.130   0.537   4.808 -2.1223  0.9397  1.2957
   94SAPE  H20T 9329   1.188   0.691   4.758  1.4446 -2.1507  1.0540
   94SAPE   C33 9330   1.248   1.757   5.736  0.0921 -0.1482 -0.4546
   94SAPE   H3X 9331   1.173   1.839   5.734  0.7511  0.4575 -2.4526
   94SAPE   H3Y 9332   1.208   1.662   5.694 -2.5367  0.2431  0.9500
   94SAPE   C34 9333   1.374   1.790   5.658  0.6097 -0.3878 -0.3734
   94SAPE   H4X 9334   1.427   1.697   5.630 -1.8869 -2.2415  0.7001
   94SAPE   H4Y 9335   1.442   1.860   5.712 -0.5234  1.0886 -0.7803
   94SAPE   C35 9336   1.330   1.867   5.532 -0.0941 -0.2154  0.1900
   94SAPE   H5X 9337   1.278   1.960   5.564 -0.9130 -0.3386 -0.7346
   94SAPE   H5Y 9338   1.253   1.811   5.475 -0.5724  0.9213 -0.3248
   94SAPE   C36 9339   1.442   1.893   5.429  0.3185  0.0383 -0.1170
   94SAPE   H6X 9340   1.522   1.823   5.462  0.5098 -0.2366 -1.1188
   94SAPE   H6Y 9341   1.474   1.999   5.443  1.1092 -0.1700 -0.2536
   94SAPE   C37 9342   1.401   1.868   5.276  0.3892 -0.1807 -0.2698
   94SAPE   H7X 9343   1.471   1.910   5.200  1.1025 -1.7238 -0.4904
   94SAPE   H7Y 9344   1.293   1.894   5.267 -0.0544 -1.1923  1.5891
   94SAPE   C38 9345   1.381   1.720   5.245 -0.3389 -0.7753  0.4048
   94SAPE   H8X 9346   1.303   1.705   5.168  0.1531 -2.0657  0.1480
   94SAPE   H8Y 9347   1.349   1.663   5.335 -0.8041 -0.4274  0.4642
   94SAPE   C39 9348   1.505   1.663   5.183 -0.1715  0.1321  0.0946
   94SAPE   H9X 9349   1.594   1.694   5.241 -1.4243  0.5994  1.8279
   94SAPE   H9Y 9350   1.512   1.704   5.080 -0.6050  1.8710  0.7255
   94SAPE  C310 9351   1.503   1.507   5.192 -0.5283 -0.3601  0.3868
   94SAPE  H10X 9352   1.403   1.464   5.167 -0.2397 -0.9796  0.2947
   94SAPE  H10Y 9353   1.516   1.480   5.299 -1.3624  0.4622  0.7175
   94SAPE  C311 9354   1.624   1.445   5.123  1.0831  0.4976 -0.5094
   94SAPE  H11X 9355   1.637   1.337   5.148  1.7163 -0.1679 -3.3401
   94SAPE  H11Y 9356   1.709   1.510   5.151 -0.2774  2.2819 -0.3403
   94SAPE  C312 9357   1.620   1.455   4.972  0.7862 -0.0210 -0.4843
   94SAPE  H12X 9358   1.622   1.560   4.937 -0.2176  0.6538  1.3616
   94SAPE  H12Y 9359   1.519   1.424   4.937 -0.9001  2.8758  1.4462
   94SAPE  C313 9360   1.738   1.381   4.916  0.5727 -0.1064 -0.1022
   94SAPE  H13X 9361   1.737   1.277   4.954 -2.0033 -0.2307 -0.3220
   94SAPE  H13Y 9362   1.832   1.425   4.956  0.7120 -1.5895  1.3086
   94SAPE  C314 9363   1.736   1.377   4.761 -0.2983 -0.4660  0.6523
   94SAPE  H14X 9364   1.824   1.317   4.731  1.6468  2.1906  0.7024
   94SAPE  H14Y 9365   1.771   1.476   4.726 -1.1432 -0.9175 -1.6304
   94SAPE  C315 9366   1.604   1.333   4.686 -0.3108 -0.0816  0.4191
   94SAPE  H15X 9367   1.508   1.379   4.719 -0.9833 -2.2207  1.6280
   94SAPE  H15Y 9368   1.593   1.225   4.706 -2.1606 -0.6744 -3.0301
   94SAPE  C316 9369   1.608   1.336   4.530 -0.6355  0.8446 -0.1766
   94SAPE  H16X 9370   1.690   1.266   4.503 -0.4180  1.1276 -0.2582
   94SAPE  H16Y 9371   1.638   1.435   4.488  1.3919 -0.2417 -1.4683
   94SAPE  C317 9372   1.482   1.281   4.467 -0.1845 -0.4726 -0.2899
   94SAPE  H17X 9373   1.407   1.362   4.479  0.5851  0.4188 -1.2753
   94SAPE  H17Y 9374   1.443   1.187   4.511 -1.2580 -0.4855 -1.2310
   94SAPE  C318 9375   1.490   1.279   4.317 -0.2378  0.8215 -1.1017
   94SAPE  H18X 9376   1.508   1.382   4.277  0.0154  0.7567 -1.1564
   94SAPE  H18Y 9377   1.405   1.230   4.264  1.7555 -4.1239 -0.2312
   94SAPE  H18Z 9378   1.577   1.218   4.285  0.9360  1.3541  0.9032
   95SAPE     N 9379   6.772   5.967   6.919  0.3880 -0.0512 -0.1946
   95SAPE   HN1 9380   6.781   6.006   7.015 -0.8244 -0.9862  0.3308
   95SAPE   HN2 9381   6.822   5.877   6.930 -0.0783  0.0276  4.3890
   95SAPE   HN3 9382   6.816   6.036   6.854  0.9883  0.5247  0.7981
   95SAPE   C12 9383   6.631   5.933   6.888  0.4510  0.6353 -0.3911
   95SAPE  H12A 9384   6.606   5.936   6.780  1.2510  0.3676 -0.5915
   95SAPE  H12B 9385   6.574   6.021   6.924  1.2047  0.4053  1.5046
   95SAPE   C11 9386   6.599   5.796   6.957 -0.3436 -0.3714  0.3837
   95SAPE  H11A 9387   6.497   5.770   6.920 -0.6344  2.5837 -1.1528
   95SAPE  H11B 9388   6.596   5.810   7.067 -2.0268  1.8162  0.1179
   95SAPE     P 9389   6.732   5.633   6.792 -0.0769 -0.2490 -0.3333
   95SAPE   O13 9390   6.823   5.717   6.710 -0.9201 -0.1246  0.3322
   95SAPE   O14 9391   6.776   5.496   6.823 -0.0284 -0.0422 -0.3244
   95SAPE   O12 9392   6.699   5.699   6.933  0.2984  0.0741 -0.4160
   95SAPE   O11 9393   6.589   5.622   6.712  0.0919 -0.0516 -0.2365
   95SAPE    C1 9394   6.495   5.517   6.733  0.5789 -0.0598 -0.4649
   95SAPE    HA 9395   6.517   5.440   6.811 -1.0581 -0.3591 -0.2740
   95SAPE    HB 9396   6.401   5.565   6.765  0.8948  0.1149  0.2220
   95SAPE    C2 9397   6.454   5.441   6.607 -0.2772 -0.4280  0.8734
   95SAPE    HS 9398   6.401   5.347   6.635  1.6517 -1.8974 -0.1204
   95SAPE   O21 9399   6.571   5.396   6.531  1.0553 -0.3009 -0.1831
   95SAPE   C21 9400   6.646   5.301   6.595 -0.6504 -0.0836 -0.4680
   95SAPE   O22 9401   6.605   5.240   6.691  0.0854  0.4711 -0.2392
   95SAPE   C22 9402   6.787   5.295   6.543  0.3313  0.5911 -0.0640
   95SAPE   H2R 9403   6.816   5.400   6.521 -1.7483  1.6265  1.7269
   95SAPE   H2S 9404   6.850   5.262   6.628 -1.8982 -0.7191  1.1467
   95SAPE    C3 9405   6.361   5.529   6.519 -1.3971 -0.3348  0.9228
   95SAPE    HX 9406   6.439   5.589   6.468 -0.6221 -0.2011  2.2344
   95SAPE    HY 9407   6.302   5.594   6.586 -0.4066  1.6178 -0.0217
   95SAPE   O31 9408   6.287   5.450   6.422 -0.0804 -0.9561 -0.6678
   95SAPE   C31 9409   6.190   5.520   6.372  0.0641  0.4915  0.8065
   95SAPE   O32 9410   6.150   5.627   6.411  0.1841 -0.3102 -0.7480
   95SAPE   C32 9411   6.111   5.439   6.262  0.3203 -0.3749 -0.5047
   95SAPE   H2X 9412   6.006   5.423   6.293  1.1325 -1.8571  1.8051
   95SAPE   H2Y 9413   6.165   5.342   6.255 -0.8675 -1.1830  0.9374
   95SAPE   C23 9414   6.796   5.219   6.406  0.0691  0.5932  0.1560
   95SAPE   H3R 9415   6.720   5.259   6.336 -0.8174  2.5111  2.1052
   95SAPE   H3S 9416   6.766   5.117   6.435  2.6941 -0.5223 -0.6752
   95SAPE   C24 9417   6.922   5.225   6.317  0.5015  0.5157  0.3057
   95SAPE   H4R 9418   6.999   5.208   6.395  2.3115 -2.9376 -1.9485
   95SAPE   H4S 9419   6.930   5.325   6.269 -2.7691 -0.0614 -1.7804
   95SAPE   C25 9420   6.942   5.104   6.221  0.0998 -0.4401  0.4071
   95SAPE   H5R 9421   6.957   5.005   6.266 -0.4946 -0.6242  0.2190
   95SAPE   C26 9422   6.928   5.112   6.086 -0.0143 -0.1174  0.4532
   95SAPE   H6R 9423   6.944   5.020   6.028 -0.6114  1.3524 -2.2415
   95SAPE   C27 9424   6.900   5.228   5.998  0.3257 -0.2307 -0.4596
   95SAPE   H7R 9425   6.988   5.295   5.987 -0.3998  0.6307 -1.2255
   95SAPE   H7S 9426   6.827   5.297   6.046  2.0543  2.0543 -0.9302
   95SAPE   C28 9427   6.852   5.198   5.861  0.0052 -0.1018 -0.2604
   95SAPE   H8R 9428   6.744   5.203   5.843 -0.6003 -1.3496  2.5668
   95SAPE   C29 9429   6.932   5.152   5.762  0.0674  0.2325 -0.6384
   95SAPE   H9R 9430   6.896   5.144   5.659 -0.9277 -0.5872 -0.2399
   95SAPE  C210 9431   7.077   5.114   5.771 -1.1437 -0.6565 -0.2063
   95SAPE  H10R 9432   7.137   5.167   5.848 -2.1128  0.3429 -0.1162
   95SAPE  H10S 9433   7.123   5.144   5.674  0.7325 -5.2575 -1.0397
   95SAPE  C211 9434   7.084   4.966   5.799  0.0820  0.1578  0.0545
   95SAPE  H11R 9435   7.017   4.932   5.879 -1.3444 -0.5786 -1.3840
   95SAPE  C212 9436   7.166   4.887   5.731 -0.0542 -0.3533 -0.3965
   95SAPE  H12R 9437   7.171   4.780   5.757  1.1076  0.1405  1.5982
   95SAPE  C213 9438   7.248   4.930   5.607 -0.3327 -0.3283 -0.7547
   95SAPE  H13R 9439   7.334   4.987   5.649 -1.2419  0.4385  0.1211
   95SAPE  H13S 9440   7.181   4.995   5.546  0.4751 -0.8250 -2.2246
   95SAPE  C214 9441   7.294   4.808   5.529 -0.8483 -0.3746  0.2194
   95SAPE  H14R 9442   7.336   4.727   5.590  1.3151  0.7389  0.2966
   95SAPE  C215 9443   7.300   4.775   5.399 -0.4645 -0.1674  0.3670
   95SAPE  H15R 9444   7.341   4.676   5.375  0.1045 -0.5490  2.6673
   95SAPE  C216 9445   7.239   4.859   5.287 -0.6067 -0.1063  0.4320
   95SAPE  H16R 9446   7.325   4.889   5.224 -1.4574  0.3359 -0.5449
   95SAPE  H16S 9447   7.175   4.938   5.333 -2.2725 -0.1983 -1.5897
   95SAPE  C217 9448   7.142   4.784   5.210 -0.6219 -0.2276  0.1741
   95SAPE  H17R 9449   7.041   4.785   5.256 -0.0557 -1.3183  1.5160
   95SAPE  H17S 9450   7.171   4.678   5.198  0.5000  0.2318 -1.6834
   95SAPE  C218 9451   7.131   4.845   5.068 -0.2160  0.6308  0.6874
   95SAPE  H18R 9452   7.230   4.852   5.019 -0.9227 -0.0813 -0.8892
   95SAPE  H18S 9453   7.109   4.950   5.097 -0.1671  0.6252  0.7454
   95SAPE  C219 9454   7.024   4.785   4.977  0.3760  0.5230 -0.3255
   95SAPE  H19R 9455   6.923   4.812   5.015 -0.6460 -1.8794 -1.1395
   95SAPE  H19S 9456   7.028   4.675   4.991 -1.9308  0.2188 -1.5894
   95SAPE  C220 9457   7.038   4.830   4.831  0.6171  0.1939 -0.9322
   95SAPE  H20R 9458   6.936   4.816   4.790  0.4776 -0.8047 -0.2890
   95SAPE  H20S 9459   7.108   4.763   4.777  1.8196  0.9113 -0.2964
   95SAPE  H20T 9460   7.073   4.933   4.810 -0.5429  0.8653  0.3014
   95SAPE   C33 9461   6.116   5.492   6.116 -0.2224 -0.2978 -0.6757
   95SAPE   H3X 9462   6.086   5.414   6.043 -1.8683  0.5992 -1.0067
   95SAPE   H3Y 9463   6.221   5.509   6.084  0.2317 -0.3610  0.7076
   95SAPE   C34 9464   6.021   5.610   6.088  0.0055 -0.1544 -0.2709
   95SAPE   H4X 9465   6.051   5.692   6.157  5.5104 -2.1293  0.1617
   95SAPE   H4Y 9466   5.918   5.574   6.105 -0.0482 -0.2562 -0.8041
   95SAPE   C35 9467   6.048   5.676   5.953  0.6660 -0.5619 -0.6675
   95SAPE   H5X 9468   5.972   5.637   5.883 -1.0240  0.8428  0.3145
   95SAPE   H5Y 9469   6.140   5.642   5.901 -0.0617 -0.8890 -1.7631
   95SAPE   C36 9470   6.036   5.825   5.970  0.3582 -0.9859  0.5315
   95SAPE   H6X 9471   6.119   5.870   6.029 -0.4200 -0.3265  1.1439
   95SAPE   H6Y 9472   5.959   5.852   6.045  0.1682  1.8499 -0.5729
   95SAPE   C37 9473   6.014   5.912   5.843 -0.2125 -0.3257 -0.3122
   95SAPE   H7X 9474   5.988   6.016   5.873 -0.5326 -0.6221  0.4835
   95SAPE   H7Y 9475   5.921   5.872   5.796  0.6719 -1.0120 -1.5249
   95SAPE   C38 9476   6.117   5.891   5.731 -0.0553  0.2751  1.0110
   95SAPE   H8X 9477   6.120   5.782   5.706 -0.2275  0.4051  0.4251
   95SAPE   H8Y 9478   6.220   5.925   5.755  0.6194  1.6919 -3.1280
   95SAPE   C39 9479   6.078   5.965   5.598 -0.2046 -0.3760 -0.1989
   95SAPE   H9X 9480   6.078   6.074   5.618 -3.4167  0.0556 -1.8393
   95SAPE   H9Y 9481   5.970   5.944   5.581  0.2140 -1.8012 -1.4076
   95SAPE  C310 9482   6.149   5.922   5.472 -0.8460  0.1527  0.2136
   95SAPE  H10X 9483   6.152   5.812   5.477  0.5516  0.1659  0.3029
   95SAPE  H10Y 9484   6.252   5.957   5.497 -0.0036 -1.4144 -0.9332
   95SAPE  C311 9485   6.107   5.983   5.340 -0.3327  0.1603  0.6889
   95SAPE  H11X 9486   6.078   6.090   5.337  2.1515  0.9489 -3.8448
   95SAPE  H11Y 9487   6.010   5.944   5.301 -0.8877  1.6434  0.5017
   95SAPE  C312 9488   6.219   5.962   5.233 -0.5944 -0.1890 -0.0477
   95SAPE  H12X 9489   6.241   5.854   5.220 -0.3028 -0.1131 -0.2028
   95SAPE  H12Y 9490   6.314   6.015   5.257 -0.7680 -0.0278  0.2928
   95SAPE  C313 9491   6.172   6.009   5.098 -0.4637 -0.4993 -0.2492
   95SAPE  H13X 9492   6.142   6.116   5.099 -2.8331 -1.1133 -0.1265
   95SAPE  H13Y 9493   6.083   5.949   5.071 -0.8602 -0.9285  1.8295
   95SAPE  C314 9494   6.280   5.981   4.994 -0.2702  0.0601 -0.6005
   95SAPE  H14X 9495   6.244   5.967   4.890 -0.4753  3.7563 -1.1588
   95SAPE  H14Y 9496   6.323   5.882   5.018 -3.6844 -1.6884 -1.1428
   95SAPE  C315 9497   6.383   6.092   4.980  0.0553 -0.2468 -0.6742
   95SAPE  H15X 9498   6.404   6.136   5.080 -3.1243  0.1856 -0.0894
   95SAPE  H15Y 9499   6.331   6.177   4.932  0.1144  1.3103  1.8159
   95SAPE  C316 9500   6.515   6.049   4.912 -0.2304 -0.8322 -0.6475
   95SAPE  H16X 9501   6.543   6.139   4.853  0.6015 -1.8395 -1.8265
   95SAPE  H16Y 9502   6.507   5.958   4.849 -3.1663 -2.5055  1.8576
   95SAPE  C317 9503   6.637   6.024   4.997  0.8196 -0.6733 -0.1448
   95SAPE  H17X 9504   6.601   5.970   5.087 -1.3336  0.0752 -0.4986
   95SAPE  H17Y 9505   6.660   6.122   5.045  2.9816 -0.7759 -0.8638
   95SAPE  C318 9506   6.763   5.983   4.929 -0.1729  0.3243 -0.0527
   95SAPE  H18X 9507   6.840   5.984   5.010 -0.6482  0.9713  0.4001
   95SAPE  H18Y 9508   6.787   6.054   4.847 -0.8981 -0.6488 -1.1364
   95SAPE  H18Z 9509   6.749   5.885   4.878  2.0680 -0.2628  0.3404
   96SAPE     N 9510   3.222   2.228   6.938 -0.4682  0.2136 -0.4164
   96SAPE   HN1 9511   3.241   2.321   6.981 -0.9221  1.1738 -2.1776
   96SAPE   HN2 9512   3.248   2.230   6.838 -0.8164  2.5011 -0.5324
   96SAPE   HN3 9513   3.123   2.198   6.954  0.2456 -1.3369  1.3207
   96SAPE   C12 9514   3.295   2.122   7.004 -0.7722  0.6175 -0.9844
   96SAPE  H12A 9515   3.240   2.084   7.092 -3.7633  0.6041 -2.7156
   96SAPE  H12B 9516   3.396   2.150   7.041 -0.4761 -4.1293  2.7619
   96SAPE   C11 9517   3.313   2.004   6.895 -0.5900 -0.7544  0.4937
   96SAPE  H11A 9518   3.347   2.057   6.804 -1.2142  1.8687  1.7067
   96SAPE  H11B 9519   3.211   1.969   6.867 -0.2460 -0.6601 -0.9392
   96SAPE     P 9520   3.360   1.749   6.949  0.2138  0.0319 -0.1735
   96SAPE   O13 9521   3.470   1.653   6.983  0.1726 -0.1684 -0.0237
   96SAPE   O14 9522   3.237   1.723   7.027  0.6895  0.4906 -0.2440
   96SAPE   O12 9523   3.403   1.903   6.937  0.1453  0.1225 -0.4476
   96SAPE   O11 9524   3.321   1.725   6.798  0.4647  0.3489 -0.0194
   96SAPE    C1 9525   3.411   1.657   6.705 -0.0023 -0.5244  0.6564
   96SAPE    HA 9526   3.434   1.556   6.744 -0.4082 -0.5588  0.8127
   96SAPE    HB 9527   3.361   1.641   6.607 -2.6431 -2.2023  2.1551
   96SAPE    C2 9528   3.539   1.737   6.677 -0.0854 -0.6226 -0.2363
   96SAPE    HS 9529   3.592   1.752   6.773  0.4517 -2.9238 -0.1309
   96SAPE   O21 9530   3.500   1.864   6.617  0.4205 -0.2606 -0.6623
   96SAPE   C21 9531   3.590   1.961   6.634  0.1480 -0.3060  1.4786
   96SAPE   O22 9532   3.693   1.946   6.695 -0.2289 -0.3286  0.3833
   96SAPE   C22 9533   3.548   2.090   6.560 -0.0503 -0.1824 -0.0028
   96SAPE   H2R 9534   3.450   2.087   6.508 -0.2486  0.8243  0.2752
   96SAPE   H2S 9535   3.520   2.154   6.647 -2.0595 -2.5847  1.2415
   96SAPE    C3 9536   3.639   1.668   6.581  0.1050 -0.1097  0.1316
   96SAPE    HX 9537   3.683   1.573   6.620  2.1181  0.9280  0.5166
   96SAPE    HY 9538   3.732   1.727   6.571  1.0288 -1.6835 -1.1314
   96SAPE   O31 9539   3.572   1.632   6.456  0.2251  0.1826 -0.4662
   96SAPE   C31 9540   3.650   1.638   6.356 -0.1648  0.9716 -0.6320
   96SAPE   O32 9541   3.774   1.632   6.361  0.3699 -0.7256 -0.5282
   96SAPE   C32 9542   3.570   1.644   6.218 -0.2311 -0.2190  0.1983
   96SAPE   H2X 9543   3.580   1.753   6.196 -0.0687 -0.0559  1.0487
   96SAPE   H2Y 9544   3.467   1.607   6.236  0.3493 -1.5350  0.9313
   96SAPE   C23 9545   3.663   2.148   6.478 -0.7472 -0.6075  0.1312
   96SAPE   H3R 9546   3.749   2.165   6.545  0.1640  1.2488 -1.4099
   96SAPE   H3S 9547   3.625   2.241   6.431 -1.7583  0.5138  2.9807
   96SAPE   C24 9548   3.720   2.047   6.373 -0.3448  0.3603  0.1789
   96SAPE   H4R 9549   3.634   2.000   6.320 -2.7192  2.6362  1.7692
   96SAPE   H4S 9550   3.775   1.970   6.432  0.6673  0.9821  0.0620
   96SAPE   C25 9551   3.825   2.107   6.283 -0.5341 -0.1255 -0.2696
   96SAPE   H5R 9552   3.918   2.128   6.339 -1.0056 -1.2389  0.9819
   96SAPE   C26 9553   3.815   2.124   6.150  0.1955  0.0029 -0.0711
   96SAPE   H6R 9554   3.904   2.152   6.093  0.6580 -2.1682 -0.4930
   96SAPE   C27 9555   3.688   2.099   6.069 -0.3080 -0.0309 -0.0648
   96SAPE   H7R 9556   3.663   2.181   5.999 -1.8314  1.5883  2.2475
   96SAPE   H7S 9557   3.606   2.104   6.144  0.2845 -0.9987  0.6727
   96SAPE   C28 9558   3.682   1.963   6.007  0.5297 -0.1919 -0.5073
   96SAPE   H8R 9559   3.694   1.881   6.080 -2.7444 -0.7182 -0.4043
   96SAPE   C29 9560   3.667   1.938   5.871 -0.2585  0.8353 -0.1470
   96SAPE   H9R 9561   3.655   1.832   5.842 -2.2517  0.3227  2.1627
   96SAPE  C210 9562   3.637   2.043   5.767  0.2403  0.2629  0.3414
   96SAPE  H10R 9563   3.557   2.105   5.815  1.1758  0.7951  1.2570
   96SAPE  H10S 9564   3.578   2.004   5.681 -0.0219  1.8852 -0.2436
   96SAPE  C211 9565   3.748   2.140   5.724  0.0773  0.2581 -0.5320
   96SAPE  H11R 9566   3.799   2.187   5.809 -2.3008  1.2737  0.4046
   96SAPE  C212 9567   3.771   2.194   5.598  0.3602 -0.2579  0.1472
   96SAPE  H12R 9568   3.848   2.273   5.597  0.5335 -0.4272 -1.1716
   96SAPE  C213 9569   3.700   2.161   5.467  0.1957 -0.0524 -0.1682
   96SAPE  H13R 9570   3.680   2.262   5.424 -0.1339 -0.0584 -0.0330
   96SAPE  H13S 9571   3.602   2.118   5.497 -0.8134  2.5630  0.6429
   96SAPE  C214 9572   3.774   2.083   5.356  0.7090  0.2035  0.8490
   96SAPE  H14R 9573   3.748   1.976   5.367 -1.9956  0.7816  0.7448
   96SAPE  C215 9574   3.865   2.130   5.265 -0.0499  0.0099 -0.6180
   96SAPE  H15R 9575   3.909   2.047   5.207  0.2491 -0.6746  0.5397
   96SAPE  C216 9576   3.911   2.269   5.247 -0.3720 -0.1612 -0.4861
   96SAPE  H16R 9577   4.002   2.289   5.307 -1.9159  2.2929  1.2412
   96SAPE  H16S 9578   3.841   2.340   5.295  0.6903  0.0715  0.7650
   96SAPE  C217 9579   3.912   2.318   5.101 -0.1496  0.0619 -0.1138
   96SAPE  H17R 9580   4.008   2.296   5.049 -0.0471  1.2354 -0.4555
   96SAPE  H17S 9581   3.919   2.429   5.095  0.2380 -0.0560 -2.9727
   96SAPE  C218 9582   3.799   2.284   5.004  0.2218  0.4642  0.3089
   96SAPE  H18R 9583   3.700   2.320   5.040 -0.4318 -0.6617 -0.3008
   96SAPE  H18S 9584   3.794   2.176   4.977  1.9542  0.7609 -1.4615
   96SAPE  C219 9585   3.819   2.365   4.877 -0.2139 -0.2588 -0.9680
   96SAPE  H19R 9586   3.859   2.465   4.907 -2.0889  0.0689  0.6855
   96SAPE  H19S 9587   3.716   2.379   4.837 -0.4962 -2.6653 -1.2195
   96SAPE  C220 9588   3.905   2.295   4.771 -0.5119  0.5429 -0.1654
   96SAPE  H20R 9589   3.877   2.334   4.670  0.7252 -1.8256 -1.5041
   96SAPE  H20S 9590   3.881   2.189   4.790  0.1166  0.4531  0.1441
   96SAPE  H20T 9591   4.014   2.311   4.789 -0.3900 -2.0096  1.7971
   96SAPE   C33 9592   3.636   1.554   6.112 -0.7194  0.3103  0.0364
   96SAPE   H3X 9593   3.634   1.459   6.170 -1.7805  0.5145  0.3594
   96SAPE   H3Y 9594   3.739   1.592   6.097 -0.4078  0.1830  1.6767
   96SAPE   C34 9595   3.564   1.551   5.975 -0.3328  0.5134 -0.0593
   96SAPE   H4X 9596   3.531   1.646   5.928 -0.7953  0.9902  1.2104
   96SAPE   H4Y 9597   3.465   1.502   5.989  0.1608 -0.9145 -1.3081
   96SAPE   C35 9598   3.648   1.483   5.869  0.2996  0.0384  0.2477
   96SAPE   H5X 9599   3.680   1.387   5.916 -0.5268  0.3154  1.4089
   96SAPE   H5Y 9600   3.748   1.526   5.845  1.1891 -1.8475  0.3465
   96SAPE   C36 9601   3.565   1.456   5.741 -1.0131 -0.4596  0.2457
   96SAPE   H6X 9602   3.488   1.535   5.726 -1.1127 -0.4036  1.0191
   96SAPE   H6Y 9603   3.518   1.356   5.752  2.4845 -2.0244  2.6665
   96SAPE   C37 9604   3.634   1.462   5.598 -0.3338 -0.7925 -0.5085
   96SAPE   H7X 9605   3.705   1.376   5.594 -0.5968 -1.0966  0.8008
   96SAPE   H7Y 9606   3.688   1.559   5.589 -0.8657 -0.4865 -0.3900
   96SAPE   C38 9607   3.540   1.463   5.476 -0.1098  0.1622  0.5250
   96SAPE   H8X 9608   3.445   1.522   5.476 -1.1248 -1.2910 -2.8352
   96SAPE   H8Y 9609   3.510   1.358   5.458 -2.0071  0.7892 -0.3365
   96SAPE   C39 9610   3.617   1.502   5.346 -0.2858 -0.2094 -0.4990
   96SAPE   H9X 9611   3.717   1.453   5.339  0.8956  1.9810  0.0000
   96SAPE   H9Y 9612   3.645   1.610   5.345  0.8262 -0.4502  1.2195
   96SAPE  C310 9613   3.532   1.470   5.222 -0.0174 -0.1115 -0.0011
   96SAPE  H10X 9614   3.576   1.526   5.136  0.4034  1.7401  1.3584
   96SAPE  H10Y 9615   3.426   1.501   5.228 -0.0415 -0.0137 -0.8296
   96SAPE  C311 9616   3.538   1.317   5.188  0.4563  0.2823 -0.3761
   96SAPE  H11X 9617   3.483   1.262   5.267 -0.3981  1.1259 -0.3555
   96SAPE  H11Y 9618   3.639   1.276   5.208  0.3791  0.7127  1.0447
   96SAPE  C312 9619   3.491   1.280   5.051 -0.4215  1.0385 -0.3359
   96SAPE  H12X 9620   3.568   1.326   4.987  1.5768 -0.3307  0.9582
   96SAPE  H12Y 9621   3.394   1.332   5.033 -1.6233 -0.7819  0.4924
   96SAPE  C313 9622   3.491   1.125   5.027 -0.0371  0.7996  0.2429
   96SAPE  H13X 9623   3.594   1.099   4.996  0.6925 -1.0384  3.6884
   96SAPE  H13Y 9624   3.418   1.104   4.946  0.3595 -0.4633  0.1933
   96SAPE  C314 9625   3.456   1.034   5.147 -0.5582 -0.5491 -0.4473
   96SAPE  H14X 9626   3.360   1.078   5.183  0.0661 -0.5569  1.3452
   96SAPE  H14Y 9627   3.533   1.035   5.228 -2.1512 -0.0261  1.1311
   96SAPE  C315 9628   3.436   0.889   5.104 -0.1705 -0.6091 -0.2202
   96SAPE  H15X 9629   3.370   0.889   5.015 -0.1186  6.1945 -0.7732
   96SAPE  H15Y 9630   3.385   0.829   5.182  0.0946  0.2330  0.6201
   96SAPE  C316 9631   3.570   0.817   5.089 -0.6878 -0.2177  1.1333
   96SAPE  H16X 9632   3.620   0.824   5.189 -0.0625 -0.5202  0.8464
   96SAPE  H16Y 9633   3.644   0.858   5.017 -0.9870 -0.1480  0.8657
   96SAPE  C317 9634   3.559   0.668   5.073 -0.7320  0.6811 -0.0083
   96SAPE  H17X 9635   3.519   0.648   4.971  0.2118 -1.2519 -0.0566
   96SAPE  H17Y 9636   3.492   0.623   5.150  1.5925 -0.5590  1.3955
   96SAPE  C318 9637   3.696   0.591   5.078  0.9406  0.1387  0.2427
   96SAPE  H18X 9638   3.690   0.481   5.072  0.2864  0.1810  0.0907
   96SAPE  H18Y 9639   3.719   0.597   5.186 -0.0223 -1.4684  0.5667
   96SAPE  H18Z 9640   3.778   0.630   5.014  0.2448  1.7944  0.2941
   97SAPE     N 9641   2.629   2.304   6.779  0.7526  0.0142 -0.3887
   97SAPE   HN1 9642   2.707   2.306   6.847 -0.7398  0.2001  1.3759
   97SAPE   HN2 9643   2.576   2.393   6.785  1.5289  0.4609 -0.1269
   97SAPE   HN3 9644   2.562   2.226   6.798 -1.4111  1.7758 -0.3515
   97SAPE   C12 9645   2.685   2.296   6.639  0.2153  0.5497 -0.4610
   97SAPE  H12A 9646   2.611   2.339   6.569 -1.0698  0.2996  0.7023
   97SAPE  H12B 9647   2.711   2.189   6.621  1.1021  0.5091  0.8824
   97SAPE   C11 9648   2.809   2.383   6.634  0.0911  0.0622 -0.3938
   97SAPE  H11A 9649   2.775   2.488   6.625  0.4954  0.1335 -1.1189
   97SAPE  H11B 9650   2.868   2.367   6.542  1.3505 -2.6885  0.7613
   97SAPE     P 9651   2.973   2.497   6.803  0.0155 -0.4091  0.0534
   97SAPE   O13 9652   2.877   2.581   6.875 -0.3020 -0.4475  0.6483
   97SAPE   O14 9653   3.096   2.469   6.887  0.3812  0.0101  0.2133
   97SAPE   O12 9654   2.908   2.375   6.738  0.5851  0.5782  0.0819
   97SAPE   O11 9655   3.022   2.578   6.677 -0.7989  0.2843  0.4505
   97SAPE    C1 9656   3.108   2.532   6.578 -0.3007  0.0654  0.3542
   97SAPE    HA 9657   3.184   2.461   6.618 -1.0775 -0.7653  0.3821
   97SAPE    HB 9658   3.057   2.488   6.490 -0.9954  2.5505 -0.5690
   97SAPE    C2 9659   3.197   2.640   6.516 -0.2873 -1.2153  0.1471
   97SAPE    HS 9660   3.223   2.709   6.598 -1.1028 -0.1778 -0.4318
   97SAPE   O21 9661   3.120   2.707   6.413 -0.0823 -0.5975  0.4505
   97SAPE   C21 9662   3.155   2.829   6.373  0.4732  0.1899 -0.9509
   97SAPE   O22 9663   3.240   2.905   6.423  0.4631 -0.0870 -0.2105
   97SAPE   C22 9664   3.064   2.869   6.265  0.3275 -0.4656  0.8485
   97SAPE   H2R 9665   3.044   2.780   6.202 -0.4244  1.0521 -1.1795
   97SAPE   H2S 9666   2.965   2.904   6.301 -0.2187 -0.1890 -0.8105
   97SAPE    C3 9667   3.326   2.596   6.450  0.1707  0.4267  0.5786
   97SAPE    HX 9668   3.388   2.535   6.520  0.2655 -0.5783 -0.3587
   97SAPE    HY 9669   3.380   2.692   6.437  1.1783 -0.2687 -0.6568
   97SAPE   O31 9670   3.314   2.518   6.327  0.1112 -0.1378 -0.4642
   97SAPE   C31 9671   3.320   2.386   6.328 -0.2945  0.1798  0.5663
   97SAPE   O32 9672   3.320   2.315   6.425  0.5255  0.1163  0.5114
   97SAPE   C32 9673   3.335   2.343   6.185 -0.4453  0.1718  0.0180
   97SAPE   H2X 9674   3.442   2.360   6.161 -0.2335  1.7331  1.8265
   97SAPE   H2Y 9675   3.287   2.412   6.113 -2.1851 -1.1522 -0.1654
   97SAPE   C23 9676   3.112   2.982   6.174 -0.0668 -0.0677  0.5593
   97SAPE   H3R 9677   3.154   3.059   6.241  1.1618  1.0824 -1.4564
   97SAPE   H3S 9678   3.028   3.021   6.113  0.9548 -0.8749 -1.4663
   97SAPE   C24 9679   3.224   2.929   6.074  0.4795 -0.3183  0.9427
   97SAPE   H4R 9680   3.304   2.884   6.136  3.2435 -0.7992 -2.6427
   97SAPE   H4S 9681   3.269   3.022   6.032 -0.8409 -0.3261 -0.6048
   97SAPE   C25 9682   3.172   2.841   5.965 -0.3648  0.2423  0.7667
   97SAPE   H5R 9683   3.120   2.748   5.992 -0.1193 -0.0760  0.1703
   97SAPE   C26 9684   3.171   2.865   5.836 -0.4897 -0.2347 -0.2328
   97SAPE   H6R 9685   3.113   2.795   5.774 -0.5286 -0.1450 -0.2980
   97SAPE   C27 9686   3.209   3.002   5.781 -0.5049  0.5020 -0.6076
   97SAPE   H7R 9687   3.319   3.004   5.766 -0.8387 -0.8670 -4.2292
   97SAPE   H7S 9688   3.180   3.091   5.840  0.0175  1.5450 -1.8652
   97SAPE   C28 9689   3.168   3.012   5.636 -0.1386  0.2700  0.0753
   97SAPE   H8R 9690   3.099   3.096   5.618 -1.4114 -0.8266 -0.3396
   97SAPE   C29 9691   3.207   2.947   5.526 -0.8205  0.0400  0.0443
   97SAPE   H9R 9692   3.166   2.976   5.428 -1.8460 -1.2382  0.0656
   97SAPE  C210 9693   3.313   2.839   5.519 -0.1623  0.3345  0.1948
   97SAPE  H10R 9694   3.290   2.748   5.459  1.1237  1.4999 -2.1886
   97SAPE  H10S 9695   3.334   2.791   5.617  2.4180  1.6076  0.3404
   97SAPE  C211 9696   3.436   2.895   5.444  0.1503  0.5357 -0.1651
   97SAPE  H11R 9697   3.526   2.892   5.508  0.2815  0.2499 -0.3645
   97SAPE  C212 9698   3.452   2.947   5.320 -0.5337 -0.1183  0.1683
   97SAPE  H12R 9699   3.553   2.982   5.295 -0.0944 -1.8706 -0.6766
   97SAPE  C213 9700   3.340   2.971   5.224 -0.7647 -0.2362 -0.1882
   97SAPE  H13R 9701   3.378   3.014   5.129  0.1822  0.4011  0.4571
   97SAPE  H13S 9702   3.283   3.057   5.265  1.5898  0.5548  1.6740
   97SAPE  C214 9703   3.244   2.851   5.195  0.1799  0.0206  0.2715
   97SAPE  H14R 9704   3.257   2.756   5.249 -0.6993 -1.0744 -1.3185
   97SAPE  C215 9705   3.140   2.847   5.105 -0.2696 -0.0991  0.3213
   97SAPE  H15R 9706   3.076   2.761   5.081 -1.3719  0.8712 -0.3149
   97SAPE  C216 9707   3.110   2.966   5.012  0.3455  0.5302  0.0328
   97SAPE  H16R 9708   3.115   3.061   5.068 -0.3027  0.3925  0.3308
   97SAPE  H16S 9709   3.006   2.961   4.973 -0.0409 -0.0570  1.1184
   97SAPE  C217 9710   3.195   2.966   4.880 -0.1756  0.2775  0.4198
   97SAPE  H17R 9711   3.305   2.969   4.895 -0.2762  1.8411  1.0111
   97SAPE  H17S 9712   3.177   3.061   4.825  2.9658  0.3950 -0.5978
   97SAPE  C218 9713   3.166   2.852   4.786  0.3978  0.3420 -0.8365
   97SAPE  H18R 9714   3.111   2.775   4.845  1.9183 -1.0999 -1.2460
   97SAPE  H18S 9715   3.264   2.810   4.757  1.0153  1.5301 -0.5510
   97SAPE  C219 9716   3.087   2.880   4.660 -0.2629 -0.0532  0.4863
   97SAPE  H19R 9717   3.123   2.972   4.611  0.7415  0.5933  2.3299
   97SAPE  H19S 9718   2.981   2.897   4.688 -0.9475  0.3370 -2.0957
   97SAPE  C220 9719   3.096   2.770   4.548 -0.6097 -0.2192 -0.1667
   97SAPE  H20R 9720   3.203   2.739   4.544 -0.0422  1.5019  0.7620
   97SAPE  H20S 9721   3.064   2.821   4.454 -0.1924  0.8616  0.2637
   97SAPE  H20T 9722   3.026   2.684   4.558 -0.8687 -0.5847 -3.7211
   97SAPE   C33 9723   3.284   2.203   6.159 -0.3431 -0.3775  0.3631
   97SAPE   H3X 9724   3.181   2.183   6.194 -0.5464  0.8774  0.5273
   97SAPE   H3Y 9725   3.341   2.125   6.213  0.9207  1.5090  1.8889
   97SAPE   C34 9726   3.297   2.165   6.004  0.0986 -0.5877  0.1219
   97SAPE   H4X 9727   3.403   2.183   5.978  0.0323  0.1069  0.3063
   97SAPE   H4Y 9728   3.220   2.222   5.948  0.3240 -0.2035  0.1991
   97SAPE   C35 9729   3.280   2.012   5.980 -0.1175 -0.7010  0.3702
   97SAPE   H5X 9730   3.181   1.989   6.024 -1.0130 -0.1737 -1.2621
   97SAPE   H5Y 9731   3.351   1.945   6.032 -0.5550  0.7867  3.0276
   97SAPE   C36 9732   3.260   1.992   5.828 -0.0298 -0.0261 -0.0534
   97SAPE   H6X 9733   3.352   2.001   5.766 -0.0625  0.6149 -0.0111
   97SAPE   H6Y 9734   3.182   2.067   5.803  0.3475  0.7158  0.9301
   97SAPE   C37 9735   3.202   1.857   5.786 -0.0182 -0.0678 -0.1423
   97SAPE   H7X 9736   3.100   1.865   5.830 -0.6767 -1.3979 -1.3569
   97SAPE   H7Y 9737   3.256   1.766   5.818  1.1790  0.0501 -1.7214
   97SAPE   C38 9738   3.168   1.841   5.642 -0.4626  0.3292 -0.3631
   97SAPE   H8X 9739   3.125   1.935   5.602 -3.4539 -0.4538  0.6722
   97SAPE   H8Y 9740   3.078   1.779   5.621 -1.7360  1.9160  0.1928
   97SAPE   C39 9741   3.293   1.798   5.570  0.7736 -0.1042  0.0209
   97SAPE   H9X 9742   3.282   1.690   5.546 -2.4147 -0.0397  0.8278
   97SAPE   H9Y 9743   3.386   1.808   5.630  0.9504  1.3920 -0.4709
   97SAPE  C310 9744   3.314   1.873   5.436 -0.8467  0.8379 -0.3429
   97SAPE  H10X 9745   3.325   1.983   5.443  0.8552  1.0040 -3.7137
   97SAPE  H10Y 9746   3.226   1.857   5.371 -1.3764  3.1641 -0.2689
   97SAPE  C311 9747   3.434   1.827   5.347 -0.5435  0.0852  0.4152
   97SAPE  H11X 9748   3.420   1.721   5.318 -1.3793  0.3060 -0.0212
   97SAPE  H11Y 9749   3.521   1.833   5.415 -0.7602  0.4089  0.6667
   97SAPE  C312 9750   3.444   1.912   5.224  0.2280  0.0184 -0.8062
   97SAPE  H12X 9751   3.470   2.016   5.253  0.7666 -0.2405 -0.3601
   97SAPE  H12Y 9752   3.344   1.924   5.176  0.0458 -0.2539 -0.4996
   97SAPE  C313 9753   3.541   1.861   5.124 -0.4042  0.0989 -0.1546
   97SAPE  H13X 9754   3.531   1.752   5.103  0.4699  0.4405 -2.7990
   97SAPE  H13Y 9755   3.639   1.888   5.169 -0.6249  1.0034 -0.1983
   97SAPE  C314 9756   3.534   1.931   4.986  0.3117 -0.3652  0.1316
   97SAPE  H14X 9757   3.547   2.041   4.990 -0.1256 -0.3225  0.4072
   97SAPE  H14Y 9758   3.436   1.911   4.939  0.1588  0.6029  0.0136
   97SAPE  C315 9759   3.644   1.879   4.892 -0.5833  0.1428 -0.7933
   97SAPE  H15X 9760   3.628   1.769   4.892  0.3937 -0.0139 -0.2785
   97SAPE  H15Y 9761   3.739   1.900   4.948 -0.5705 -1.4745 -0.1524
   97SAPE  C316 9762   3.623   1.934   4.752 -0.0808 -0.9397  0.9812
   97SAPE  H16X 9763   3.582   2.038   4.750  1.0696 -0.4577 -1.5783
   97SAPE  H16Y 9764   3.543   1.880   4.697 -1.4056  1.7572  0.0843
   97SAPE  C317 9765   3.754   1.930   4.662 -0.4039  0.2309 -0.3655
   97SAPE  H17X 9766   3.838   1.956   4.730 -2.7637 -0.1002  2.8924
   97SAPE  H17Y 9767   3.749   2.015   4.591  2.2895  2.8714  2.2941
   97SAPE  C318 9768   3.772   1.791   4.602 -0.2360 -0.1129 -0.3854
   97SAPE  H18X 9769   3.692   1.782   4.526  0.7424 -1.8498 -1.2705
   97SAPE  H18Y 9770   3.773   1.711   4.679  0.7229  0.6695  0.4573
   97SAPE  H18Z 9771   3.871   1.785   4.551 -1.0046 -0.9220 -1.8437
   98SAPE     N 9772   0.619   4.160   7.066 -0.1152  0.0921  0.4177
   98SAPE   HN1 9773   0.693   4.087   7.067  0.3602  0.5521 -0.3213
   98SAPE   HN2 9774   0.659   4.245   7.022  0.8844 -1.7234 -2.4359
   98SAPE   HN3 9775   0.573   4.185   7.156 -1.9369 -1.4876 -0.0118
   98SAPE   C12 9776   0.512   4.131   6.968  0.0967 -0.7369 -0.6990
   98SAPE  H12A 9777   0.455   4.038   6.987  0.8039 -1.3240 -1.4050
   98SAPE  H12B 9778   0.560   4.116   6.869 -0.6505 -1.7689 -0.9107
   98SAPE   C11 9779   0.420   4.252   6.964  0.2626  0.1034 -0.2113
   98SAPE  H11A 9780   0.362   4.247   7.058  0.1508  0.6683 -0.2450
   98SAPE  H11B 9781   0.357   4.240   6.873  1.0775  1.2133 -0.9612
   98SAPE     P 9782   0.420   4.524   6.924 -0.0101  0.1765  0.2704
   98SAPE   O13 9783   0.281   4.528   6.969 -0.4099  0.2271  0.9553
   98SAPE   O14 9784   0.500   4.629   6.980  0.1982  0.6451 -0.1818
   98SAPE   O12 9785   0.489   4.383   6.955  0.4641 -0.1491  0.1145
   98SAPE   O11 9786   0.435   4.551   6.772  0.4138  0.1703 -0.8602
   98SAPE    C1 9787   0.566   4.582   6.721 -0.5624  0.1636 -0.1116
   98SAPE    HA 9788   0.594   4.684   6.756  2.9657 -0.3466 -1.0929
   98SAPE    HB 9789   0.646   4.514   6.756  0.8627  1.8021 -0.0442
   98SAPE    C2 9790   0.565   4.579   6.569 -0.7759  0.6482  0.2513
   98SAPE    HS 9791   0.669   4.609   6.540 -0.9160  2.4254  1.4066
   98SAPE   O21 9792   0.483   4.673   6.506 -0.4703  0.2059  0.0461
   98SAPE   C21 9793   0.516   4.802   6.522  0.4738  0.3174 -0.1100
   98SAPE   O22 9794   0.626   4.839   6.561 -0.5070 -0.2344  0.0632
   98SAPE   C22 9795   0.398   4.884   6.475  0.7075 -0.3512  0.0962
   98SAPE   H2R 9796   0.409   4.909   6.367 -1.9214  2.0747  0.2485
   98SAPE   H2S 9797   0.306   4.821   6.471  0.2087  0.2485  1.3578
   98SAPE    C3 9798   0.559   4.436   6.519  0.5594 -0.3572  0.1397
   98SAPE    HX 9799   0.471   4.397   6.576 -0.2619  1.4220  0.1434
   98SAPE    HY 9800   0.641   4.379   6.568 -0.4923 -1.1598  1.0267
   98SAPE   O31 9801   0.542   4.412   6.378  0.1647 -0.7309 -0.5157
   98SAPE   C31 9802   0.638   4.355   6.310 -0.0487 -0.3810  0.1461
   98SAPE   O32 9803   0.747   4.310   6.349 -0.3768 -0.3839  0.3806
   98SAPE   C32 9804   0.594   4.358   6.162  0.2451  0.0195 -0.4815
   98SAPE   H2X 9805   0.592   4.457   6.112 -0.8179 -0.7504 -2.0541
   98SAPE   H2Y 9806   0.485   4.338   6.161  0.2444 -0.2283  1.4753
   98SAPE   C23 9807   0.377   5.012   6.568 -0.5474  0.7368  0.3669
   98SAPE   H3R 9808   0.474   5.065   6.576 -0.6080  0.8056  0.6297
   98SAPE   H3S 9809   0.354   4.985   6.673  0.3100 -2.2708 -0.1039
   98SAPE   C24 9810   0.279   5.119   6.507 -0.0016 -0.1493 -0.2789
   98SAPE   H4R 9811   0.173   5.096   6.530 -0.3529  1.7452  0.1477
   98SAPE   H4S 9812   0.290   5.117   6.397  2.4220  1.6712 -0.1553
   98SAPE   C25 9813   0.288   5.257   6.569  0.3046 -0.0048 -0.0404
   98SAPE   H5R 9814   0.270   5.267   6.677  1.9544 -0.1732  0.2774
   98SAPE   C26 9815   0.328   5.367   6.505  0.0512 -0.4924  0.1670
   98SAPE   H6R 9816   0.309   5.465   6.551 -1.6925  0.2750 -1.9853
   98SAPE   C27 9817   0.374   5.384   6.365  0.3822 -0.3559  0.4137
   98SAPE   H7R 9818   0.416   5.287   6.332 -1.2068 -0.3159 -1.9189
   98SAPE   H7S 9819   0.453   5.462   6.374  1.7988 -1.7098  0.1217
   98SAPE   C28 9820   0.264   5.431   6.276 -0.4130 -0.0456 -0.2141
   98SAPE   H8R 9821   0.162   5.416   6.314 -0.2750 -0.4756 -0.0146
   98SAPE   C29 9822   0.276   5.462   6.151 -0.1976 -0.2355  0.4891
   98SAPE   H9R 9823   0.186   5.485   6.092  0.4631  0.8809 -0.1153
   98SAPE  C210 9824   0.405   5.469   6.077  0.1630  0.2575 -0.4393
   98SAPE  H10R 9825   0.488   5.443   6.146  1.9277 -0.0025 -2.5605
   98SAPE  H10S 9826   0.436   5.573   6.057  0.7867 -0.0706 -1.2168
   98SAPE  C211 9827   0.397   5.389   5.956  0.1521  0.7578 -0.1404
   98SAPE  H11R 9828   0.359   5.448   5.872  0.7835 -1.1449 -1.8512
   98SAPE  C212 9829   0.434   5.262   5.942  0.0904  0.3795 -0.0036
   98SAPE  H12R 9830   0.422   5.228   5.838  0.9695  0.9251 -0.2917
   98SAPE  C213 9831   0.502   5.170   6.041  0.4037  0.5764  0.1324
   98SAPE  H13R 9832   0.532   5.229   6.131 -2.3422  2.6311 -0.1824
   98SAPE  H13S 9833   0.596   5.139   5.991 -0.1444  0.8876 -1.1161
   98SAPE  C214 9834   0.413   5.067   6.103  0.2626 -0.6907  0.4243
   98SAPE  H14R 9835   0.329   5.103   6.164 -0.1667 -4.4725  2.4020
   98SAPE  C215 9836   0.415   4.943   6.048 -0.3138 -0.1742  0.4241
   98SAPE  H15R 9837   0.334   4.874   6.075 -2.7013  2.4425  0.3986
   98SAPE  C216 9838   0.512   4.879   5.952  0.0452  0.0504 -0.9735
   98SAPE  H16R 9839   0.582   4.947   5.900 -0.8092 -0.0310 -2.2893
   98SAPE  H16S 9840   0.444   4.835   5.875 -0.6245 -2.6586  1.0064
   98SAPE  C217 9841   0.585   4.763   6.025  0.1379  0.1370 -0.4216
   98SAPE  H17R 9842   0.512   4.691   6.068 -1.0060  1.1693 -0.5863
   98SAPE  H17S 9843   0.636   4.811   6.112  2.1537 -0.9462 -0.9586
   98SAPE  C218 9844   0.699   4.684   5.949 -0.5384  0.1279  0.5483
   98SAPE  H18R 9845   0.729   4.594   6.007 -0.3287 -0.3812 -0.3356
   98SAPE  H18S 9846   0.790   4.747   5.941 -0.8817  0.8346  1.8438
   98SAPE  C219 9847   0.649   4.645   5.807  0.5740 -0.3671 -0.0073
   98SAPE  H19R 9848   0.630   4.745   5.763  2.8662  0.2064  0.1742
   98SAPE  H19S 9849   0.552   4.591   5.815  0.2804  0.2787  1.0537
   98SAPE  C220 9850   0.739   4.560   5.720 -0.0218  0.6695  0.4039
   98SAPE  H20R 9851   0.809   4.496   5.780 -0.8400 -0.2117  0.4388
   98SAPE  H20S 9852   0.791   4.621   5.644  1.5710  0.2062  1.0686
   98SAPE  H20T 9853   0.671   4.493   5.663 -1.2391  0.7179  1.7469
   98SAPE   C33 9854   0.659   4.251   6.074 -0.2768  0.4406 -0.1501
   98SAPE   H3X 9855   0.641   4.151   6.120 -1.5165  1.0651  0.7553
   98SAPE   H3Y 9856   0.769   4.259   6.090 -0.4349  0.6265  0.9025
   98SAPE   C34 9857   0.632   4.265   5.923  0.6055 -0.2065  0.2738
   98SAPE   H4X 9858   0.663   4.367   5.892 -0.8012  1.2659  3.3664
   98SAPE   H4Y 9859   0.522   4.256   5.909  0.8213 -0.9175 -1.1337
   98SAPE   C35 9860   0.709   4.168   5.837 -0.2902 -0.5739 -0.0590
   98SAPE   H5X 9861   0.677   4.066   5.869  0.0259 -1.1314 -1.4238
   98SAPE   H5Y 9862   0.819   4.186   5.841 -0.6796  1.9940  0.5303
   98SAPE   C36 9863   0.669   4.186   5.690 -0.2172  0.5524  0.3893
   98SAPE   H6X 9864   0.729   4.274   5.658  0.4226  0.0858  0.2683
   98SAPE   H6Y 9865   0.562   4.214   5.682 -0.4859 -0.8034 -1.4467
   98SAPE   C37 9866   0.713   4.065   5.602  0.0049 -0.3545  0.2365
   98SAPE   H7X 9867   0.691   3.969   5.652  0.7020 -0.9396 -0.5580
   98SAPE   H7Y 9868   0.820   4.077   5.573  0.0424 -1.0763  0.0598
   98SAPE   C38 9869   0.645   4.067   5.467 -0.4431 -0.0122  0.4882
   98SAPE   H8X 9870   0.536   4.063   5.488 -0.4741  2.0176  0.9570
   98SAPE   H8Y 9871   0.685   3.979   5.413 -0.2980 -0.8925  1.9708
   98SAPE   C39 9872   0.678   4.186   5.386 -0.0445  0.1342 -0.7109
   98SAPE   H9X 9873   0.785   4.180   5.358  0.0311  1.3574 -0.7398
   98SAPE   H9Y 9874   0.672   4.282   5.440  0.7820  0.3524 -0.9986
   98SAPE  C310 9875   0.598   4.178   5.253  0.2235  0.2027  0.0637
   98SAPE  H10X 9876   0.498   4.222   5.273 -1.3516 -2.9989 -0.0574
   98SAPE  H10Y 9877   0.586   4.072   5.221 -0.5861  0.1744  0.4476
   98SAPE  C311 9878   0.671   4.255   5.141 -0.1409 -0.2651 -0.1413
   98SAPE  H11X 9879   0.774   4.215   5.124  0.0430  0.4379 -0.7769
   98SAPE  H11Y 9880   0.681   4.363   5.166  1.6882  0.0210 -1.7991
   98SAPE  C312 9881   0.596   4.233   5.004 -0.3259  0.1045  0.4188
   98SAPE  H12X 9882   0.491   4.267   5.017 -0.9950 -1.6640 -0.0145
   98SAPE  H12Y 9883   0.590   4.124   4.981 -0.8948  0.1800  0.1998
   98SAPE  C313 9884   0.657   4.320   4.892  0.7394 -0.1109 -0.0162
   98SAPE  H13X 9885   0.767   4.311   4.885  0.6909 -1.3551  0.7059
   98SAPE  H13Y 9886   0.626   4.425   4.911 -0.9509 -0.6361  0.2810
   98SAPE  C314 9887   0.604   4.270   4.752  0.1088 -0.6676 -0.2866
   98SAPE  H14X 9888   0.602   4.159   4.749  1.2175 -0.6934 -0.2902
   98SAPE  H14Y 9889   0.672   4.300   4.670  0.1743 -1.9824 -0.7290
   98SAPE  C315 9890   0.460   4.320   4.719  0.5904 -0.1720  0.4322
   98SAPE  H15X 9891   0.392   4.310   4.806 -0.9884 -1.6686 -0.9217
   98SAPE  H15Y 9892   0.433   4.275   4.621  1.4258 -0.1062  0.1555
   98SAPE  C316 9893   0.455   4.471   4.673 -0.5717  0.5547  0.2319
   98SAPE  H16X 9894   0.470   4.547   4.751  0.7456  2.3163 -1.6269
   98SAPE  H16Y 9895   0.351   4.487   4.636 -0.3991 -1.1110 -1.1004
   98SAPE  C317 9896   0.537   4.505   4.549  0.3590 -0.4716  0.8568
   98SAPE  H17X 9897   0.507   4.445   4.460 -0.7844  0.5409  0.5337
   98SAPE  H17Y 9898   0.646   4.485   4.558  0.6610  0.3802 -0.6198
   98SAPE  C318 9899   0.509   4.654   4.520  0.4967  0.2786  0.7398
   98SAPE  H18X 9900   0.564   4.690   4.431 -0.0366  0.2986  0.4184
   98SAPE  H18Y 9901   0.540   4.721   4.604  0.0094  0.6543  0.6266
   98SAPE  H18Z 9902   0.406   4.677   4.485  0.0179 -0.5874  1.5115
   99SAPE     N 9903   1.140   4.002   7.450  0.3426 -0.9156  0.2264
   99SAPE   HN1 9904   1.194   4.075   7.500  0.1198 -0.1460 -0.6320
   99SAPE   HN2 9905   1.042   4.035   7.443  0.7129  0.0442 -0.6707
   99SAPE   HN3 9906   1.148   3.920   7.513 -0.3673  0.6898  2.5392
   99SAPE   C12 9907   1.196   3.993   7.310 -0.7993 -0.2256  0.3781
   99SAPE  H12A 9908   1.306   3.987   7.326 -0.8787  0.2465  1.1451
   99SAPE  H12B 9909   1.168   4.091   7.264  1.7204  0.3538 -0.0741
   99SAPE   C11 9910   1.152   3.876   7.225 -0.2858 -0.6581  0.7657
   99SAPE  H11A 9911   1.218   3.871   7.136 -1.1549  0.7907 -0.0034
   99SAPE  H11B 9912   1.052   3.891   7.180  0.1928 -1.3940 -0.5954
   99SAPE     P 9913   1.261   3.657   7.324 -0.5039 -0.0493  0.3369
   99SAPE   O13 9914   1.356   3.725   7.418 -0.9579  0.3799 -0.0214
   99SAPE   O14 9915   1.205   3.531   7.363 -0.0433  0.4009  0.2661
   99SAPE   O12 9916   1.145   3.755   7.299  0.1179  0.0909 -0.6041
   99SAPE   O11 9917   1.324   3.626   7.183  0.3219  0.5905 -0.2474
   99SAPE    C1 9918   1.238   3.551   7.083 -1.1163  0.1665 -0.7249
   99SAPE    HA 9919   1.136   3.528   7.119 -2.6329  3.4344 -2.4777
   99SAPE    HB 9920   1.213   3.614   6.995  0.7379  0.5546 -1.0210
   99SAPE    C2 9921   1.301   3.418   7.033 -0.1164 -1.3030  0.4461
   99SAPE    HS 9922   1.369   3.377   7.111  2.1393  1.4679  0.0668
   99SAPE   O21 9923   1.377   3.462   6.923  0.4187  0.4632  0.2108
   99SAPE   C21 9924   1.488   3.391   6.897  0.2766  0.1504  0.4396
   99SAPE   O22 9925   1.526   3.287   6.948 -0.0746 -0.1094 -0.2216
   99SAPE   C22 9926   1.562   3.478   6.793  0.5981 -0.2096  0.0698
   99SAPE   H2R 9927   1.553   3.586   6.815  0.1141 -0.4445  1.1249
   99SAPE   H2S 9928   1.668   3.445   6.787  0.3622 -1.1213  0.5825
   99SAPE    C3 9929   1.187   3.322   6.983  0.2493  0.0865 -0.5098
   99SAPE    HX 9930   1.127   3.295   7.072  0.1045 -0.6918 -0.8382
   99SAPE    HY 9931   1.236   3.231   6.943 -1.0909 -1.2134  0.6988
   99SAPE   O31 9932   1.099   3.384   6.892  0.7523  0.0562 -0.0242
   99SAPE   C31 9933   1.109   3.347   6.767  0.6272  0.2756 -0.5140
   99SAPE   O32 9934   1.204   3.289   6.718 -0.0267  0.0021  0.4785
   99SAPE   C32 9935   0.973   3.374   6.704  0.9323  0.7883 -0.1864
   99SAPE   H2X 9936   0.954   3.481   6.726 -1.6159  0.3757 -0.1724
   99SAPE   H2Y 9937   0.884   3.321   6.744  0.3832  0.7315 -1.4495
   99SAPE   C23 9938   1.503   3.465   6.644  0.3962  0.5527 -0.3142
   99SAPE   H3R 9939   1.392   3.471   6.646  0.1618 -2.5258  0.8502
   99SAPE   H3S 9940   1.533   3.363   6.613 -0.2669 -0.0653  0.9761
   99SAPE   C24 9941   1.577   3.556   6.540  0.6897  0.4437 -0.1999
   99SAPE   H4R 9942   1.594   3.497   6.447  1.8090  1.0580 -0.3911
   99SAPE   H4S 9943   1.682   3.565   6.575  0.4767  1.9369  0.1058
   99SAPE   C25 9944   1.541   3.697   6.517  0.5983 -0.4449  0.5456
   99SAPE   H5R 9945   1.577   3.764   6.597  0.3749 -0.9681  1.0926
   99SAPE   C26 9946   1.476   3.751   6.406 -0.1457 -0.2814 -0.4531
   99SAPE   H6R 9947   1.448   3.857   6.406  0.1746 -0.1824 -1.5266
   99SAPE   C27 9948   1.433   3.670   6.281  0.2337  0.2532 -0.5888
   99SAPE   H7R 9949   1.330   3.702   6.256 -0.2669  0.1960  1.2662
   99SAPE   H7S 9950   1.427   3.561   6.302 -1.9363  0.0049 -2.1961
   99SAPE   C28 9951   1.535   3.701   6.174  0.6375 -0.3958 -0.1841
   99SAPE   H8R 9952   1.642   3.693   6.199  0.8118  0.7260 -0.5244
   99SAPE   C29 9953   1.513   3.730   6.035 -1.1513  0.3218  0.4408
   99SAPE   H9R 9954   1.590   3.740   5.958  0.5564 -1.1716  1.8744
   99SAPE  C210 9955   1.374   3.753   5.978 -0.0743  0.8858  0.0708
   99SAPE  H10R 9956   1.384   3.830   5.898  2.3510 -0.5933 -1.2070
   99SAPE  H10S 9957   1.307   3.801   6.052 -3.3384 -0.2185 -1.9417
   99SAPE  C211 9958   1.304   3.633   5.917  0.3897  0.6559  0.7028
   99SAPE  H11R 9959   1.255   3.566   5.989  1.4565 -1.9789 -0.8786
   99SAPE  C212 9960   1.320   3.596   5.787 -0.2315  0.3865  0.2427
   99SAPE  H12R 9961   1.269   3.504   5.754  1.8407 -1.3519  1.5536
   99SAPE  C213 9962   1.395   3.667   5.678  0.1404  0.3229  0.7286
   99SAPE  H13R 9963   1.371   3.775   5.669 -0.9269 -0.0260 -1.1483
   99SAPE  H13S 9964   1.366   3.609   5.588  1.4624  0.4379  0.2007
   99SAPE  C214 9965   1.541   3.642   5.692  1.0498 -0.1176 -0.9237
   99SAPE  H14R 9966   1.565   3.584   5.783 -0.7522  0.2275 -0.1840
   99SAPE  C215 9967   1.641   3.680   5.619  0.2483 -0.4169  0.4000
   99SAPE  H15R 9968   1.735   3.640   5.659  2.1156  2.7699 -0.4223
   99SAPE  C216 9969   1.648   3.754   5.487  0.0237 -0.6591 -0.2336
   99SAPE  H16R 9970   1.731   3.828   5.497  0.1474 -0.8480  0.1743
   99SAPE  H16S 9971   1.551   3.798   5.455  0.7390 -0.3680 -2.1341
   99SAPE  C217 9972   1.691   3.652   5.374  0.7520 -0.9453  0.5031
   99SAPE  H17R 9973   1.800   3.632   5.385  1.0045 -0.1319 -0.3819
   99SAPE  H17S 9974   1.668   3.699   5.276 -0.7002 -0.9370  0.8384
   99SAPE  C218 9975   1.609   3.526   5.363 -1.3388  0.3807  0.6639
   99SAPE  H18R 9976   1.499   3.542   5.354 -1.4843 -0.9509 -0.3357
   99SAPE  H18S 9977   1.636   3.470   5.454  4.1475  0.9418 -0.2814
   99SAPE  C219 9978   1.649   3.448   5.243 -0.2027  0.0954  0.4615
   99SAPE  H19R 9979   1.758   3.463   5.232 -0.1471  1.5796  2.5482
   99SAPE  H19S 9980   1.589   3.495   5.161  0.0663 -0.6741 -0.1939
   99SAPE  C220 9981   1.610   3.296   5.256 -0.1133 -0.1632  0.1883
   99SAPE  H20R 9982   1.683   3.258   5.330 -1.8204 -2.2426  0.9134
   99SAPE  H20S 9983   1.627   3.248   5.157  1.8373  0.7678  0.0248
   99SAPE  H20T 9984   1.509   3.284   5.300  0.5898  0.6471  2.1114
   99SAPE   C33 9985   0.959   3.365   6.549  0.0608 -0.1863 -0.2820
   99SAPE   H3X 9986   0.853   3.377   6.519  0.5249  0.0191 -1.9268
   99SAPE   H3Y 9987   0.980   3.260   6.520  0.3480 -0.1461 -0.2296
   99SAPE   C34 9988   1.061   3.460   6.478  0.2289 -0.4179  0.1386
   99SAPE   H4X 9989   1.167   3.441   6.504  0.2334 -0.9190 -0.2527
   99SAPE   H4Y 9990   1.044   3.569   6.490  1.2333  0.0679 -2.2995
   99SAPE   C35 9991   1.057   3.457   6.330  0.2597  0.2898  0.0880
   99SAPE   H5X 9992   1.046   3.354   6.292  0.8668  0.0217  0.6158
   99SAPE   H5Y 9993   1.151   3.503   6.292  1.5666 -3.4729 -1.7579
   99SAPE   C36 9994   0.939   3.544   6.272 -0.3441  0.4566  0.5554
   99SAPE   H6X 9995   0.956   3.652   6.295 -1.0442  0.3509  1.6388
   99SAPE   H6Y 9996   0.849   3.536   6.336 -0.9086  1.5451 -0.0672
   99SAPE   C37 9997   0.913   3.532   6.116 -0.2182  0.0392 -0.2781
   99SAPE   H7X 9998   0.890   3.425   6.097  1.6291 -0.3311 -0.6040
   99SAPE   H7Y 9999   1.013   3.540   6.070  0.1321 -0.2285  0.4205
   99SAPE   C3810000   0.798   3.625   6.065 -0.1128  1.1022  0.5081
   99SAPE   H8X10001   0.795   3.724   6.116 -2.4942  0.2295  2.2244
   99SAPE   H8Y10002   0.696   3.596   6.100  0.8716 -0.7313  2.0619
   99SAPE   C3910003   0.812   3.648   5.910  0.3252  1.0221 -0.1779
   99SAPE   H9X10004   0.912   3.694   5.893  0.7481  1.0301  2.0427
   99SAPE   H9Y10005   0.726   3.712   5.881 -1.2007 -0.1023  1.5696
   99SAPE  C31010006   0.807   3.517   5.821  0.6175 -0.0347  0.6502
   99SAPE  H10X10007   0.708   3.518   5.772  1.0109  0.4063 -0.1653
   99SAPE  H10Y10008   0.828   3.418   5.869 -1.2886 -1.1562 -0.7013
   99SAPE  C31110009   0.906   3.525   5.696  0.5354  0.1223  0.0534
   99SAPE  H11X10010   1.011   3.544   5.729  0.7222 -0.0317 -0.4435
   99SAPE  H11Y10011   0.871   3.608   5.631 -1.3234 -1.2133 -0.7307
   99SAPE  C31210012   0.899   3.393   5.619  0.1598  0.4937 -0.3993
   99SAPE  H12X10013   0.798   3.385   5.572 -0.2296  1.4217  0.2436
   99SAPE  H12Y10014   0.931   3.303   5.675  3.6400  1.5378 -0.5051
   99SAPE  C31310015   0.993   3.386   5.499 -0.4353 -0.1803  0.3134
   99SAPE  H13X10016   1.092   3.424   5.529 -0.1830 -1.8484  1.7493
   99SAPE  H13Y10017   0.947   3.460   5.430 -0.4378 -0.8303 -0.3932
   99SAPE  C31410018   0.987   3.245   5.434  0.4871  0.7791  0.0298
   99SAPE  H14X10019   0.882   3.219   5.411  0.5224  0.2733  0.4093
   99SAPE  H14Y10020   1.014   3.165   5.506 -2.0244 -0.6545 -0.5323
   99SAPE  C31510021   1.075   3.222   5.310 -0.0233  0.3233 -0.2650
   99SAPE  H15X10022   1.179   3.255   5.331  0.4193 -1.3383  0.3153
   99SAPE  H15Y10023   1.051   3.286   5.222 -0.6951  1.6800  0.8542
   99SAPE  C31610024   1.091   3.076   5.274 -0.0661  0.4219  0.4466
   99SAPE  H16X10025   0.992   3.027   5.260  0.1802  0.2642 -0.8089
   99SAPE  H16Y10026   1.132   3.021   5.361  0.3450  2.3289  1.4990
   99SAPE  C31710027   1.171   3.035   5.148 -0.5941 -0.5788 -0.5193
   99SAPE  H17X10028   1.265   3.094   5.159  0.7514 -2.5347 -1.0499
   99SAPE  H17Y10029   1.111   3.073   5.063  0.7955  1.5496 -0.6185
   99SAPE  C31810030   1.201   2.883   5.124 -0.3853 -0.0851 -1.0154
   99SAPE  H18X10031   1.109   2.824   5.107 -0.1850 -0.2677 -1.4844
   99SAPE  H18Y10032   1.259   2.834   5.205 -1.3955 -1.2987 -0.9947
   99SAPE  H18Z10033   1.259   2.873   5.030 -0.4814 -0.7309 -1.0057
  100SAPE     N10034   5.215   1.469   6.928  0.1609  0.8213 -0.3211
  100SAPE   HN110035   5.290   1.509   6.987 -0.1836  0.3922  0.4292
  100SAPE   HN210036   5.248   1.442   6.833  0.3953 -3.1172  0.6847
  100SAPE   HN310037   5.143   1.542   6.909 -1.5257 -0.4402  0.9186
  100SAPE   C1210038   5.126   1.360   6.982 -0.2584  0.1963 -0.2668
  100SAPE  H12A10039   5.070   1.311   6.900 -1.3518 -0.4096  0.8047
  100SAPE  H12B10040   5.047   1.406   7.046  1.9633  0.4738  2.4333
  100SAPE   C1110041   5.210   1.260   7.062  0.0794  0.8959 -0.8330
  100SAPE  H11A10042   5.143   1.196   7.124  0.9265  0.3643 -0.4495
  100SAPE  H11B10043   5.275   1.306   7.140  2.0738 -1.0260 -1.2547
  100SAPE     P10044   5.258   1.056   6.895 -0.1688 -0.2918 -0.3503
  100SAPE   O1310045   5.383   1.015   6.831  0.0622 -0.1080  0.0614
  100SAPE   O1410046   5.197   0.956   6.975  0.0506  0.0789  0.0431
  100SAPE   O1210047   5.300   1.181   6.981 -0.1441 -0.6265 -0.2886
  100SAPE   O1110048   5.160   1.121   6.791  0.4701  0.1212  0.4139
  100SAPE    C110049   5.074   1.067   6.691 -0.3622 -0.4568 -0.4596
  100SAPE    HA10050   5.082   0.956   6.688  0.3388 -0.4202 -0.2652
  100SAPE    HB10051   4.969   1.100   6.706  0.4998  1.3682  2.4853
  100SAPE    C210052   5.097   1.109   6.535 -0.3102 -0.2810 -0.0388
  100SAPE    HS10053   5.018   1.052   6.483  0.1999  0.0960 -1.2521
  100SAPE   O2110054   5.230   1.094   6.479  0.0515  0.1785  0.1702
  100SAPE   C2110055   5.289   0.973   6.497  0.1004  0.2829  0.2830
  100SAPE   O2210056   5.230   0.872   6.528  0.2363 -0.3114  0.0493
  100SAPE   C2210057   5.433   0.978   6.452 -0.4267  0.0502  0.1993
  100SAPE   H2R10058   5.489   1.019   6.539 -2.9547  0.1361  1.8934
  100SAPE   H2S10059   5.466   0.872   6.445 -0.9266 -0.1576  0.8718
  100SAPE    C310060   5.046   1.257   6.506  0.1440 -0.8815  0.3042
  100SAPE    HX10061   5.137   1.309   6.546 -1.8890  1.7912  1.8012
  100SAPE    HY10062   4.960   1.281   6.572 -0.1883  1.1319 -0.7827
  100SAPE   O3110063   5.031   1.282   6.362  0.0992  0.3804  0.0925
  100SAPE   C3110064   4.913   1.241   6.313 -0.2058  0.8543  0.0895
  100SAPE   O3210065   4.830   1.177   6.379 -0.2847  0.2540 -0.3485
  100SAPE   C3210066   4.883   1.292   6.172 -0.0984 -0.2475 -0.1917
  100SAPE   H2X10067   4.961   1.248   6.106  1.3805 -0.1743  1.4431
  100SAPE   H2Y10068   4.905   1.401   6.162 -0.0590 -0.3738 -1.7052
  100SAPE   C2310069   5.475   1.046   6.318 -0.5308 -0.4213 -0.4657
  100SAPE   H3R10070   5.416   0.997   6.238 -1.3876  0.9320 -0.7064
  100SAPE   H3S10071   5.583   1.023   6.304 -0.5852 -0.4208 -0.9237
  100SAPE   C2410072   5.465   1.203   6.317  0.3977 -0.5054 -0.2964
  100SAPE   H4R10073   5.492   1.242   6.418 -1.0382  0.5632 -0.2885
  100SAPE   H4S10074   5.358   1.227   6.301  0.2709 -0.4117  0.6263
  100SAPE   C2510075   5.545   1.266   6.208 -0.5384 -0.1492  0.2381
  100SAPE   H5R10076   5.490   1.273   6.113  0.3866  0.2800 -0.2822
  100SAPE   C2610077   5.656   1.344   6.218 -0.9933  0.5819  0.2498
  100SAPE   H6R10078   5.710   1.387   6.132  1.4012 -2.0747  0.2703
  100SAPE   C2710079   5.736   1.354   6.347  0.3689 -0.0226  0.4562
  100SAPE   H7R10080   5.824   1.288   6.327 -0.1232 -0.3746 -0.6425
  100SAPE   H7S10081   5.675   1.316   6.432 -3.6687  0.5452 -1.9288
  100SAPE   C2810082   5.781   1.499   6.370  1.0673  0.0810 -0.0078
  100SAPE   H8R10083   5.702   1.572   6.395 -0.1198 -1.0477 -0.3312
  100SAPE   C2910084   5.909   1.539   6.378 -0.2926 -0.5564 -0.2221
  100SAPE   H9R10085   5.936   1.645   6.390  2.3622 -1.2652  0.7809
  100SAPE  C21010086   6.031   1.449   6.365 -0.3775  0.3767  0.2735
  100SAPE  H10R10087   6.112   1.511   6.322 -0.1974 -0.0747 -0.0367
  100SAPE  H10S10088   6.009   1.371   6.289 -1.4999 -1.1870  2.1059
  100SAPE  C21110089   6.072   1.382   6.494 -0.8813 -0.3861  0.4493
  100SAPE  H11R10090   6.098   1.452   6.575 -0.4428 -1.4996  1.3068
  100SAPE  C21210091   6.089   1.251   6.516 -0.3667 -0.2475 -0.2893
  100SAPE  H12R10092   6.123   1.222   6.617 -2.8675  0.0816  0.7148
  100SAPE  C21310093   6.087   1.129   6.423 -0.0016  0.8314 -0.0583
  100SAPE  H13R10094   6.039   1.160   6.327  1.3323  0.9247 -0.7228
  100SAPE  H13S10095   6.030   1.045   6.467 -0.3032  1.0653  0.0030
  100SAPE  C21410096   6.234   1.099   6.391 -0.1904  0.0080 -0.4024
  100SAPE  H14R10097   6.299   1.187   6.385 -0.8449  0.6998  1.7749
  100SAPE  C21510098   6.287   0.972   6.379 -0.4882  0.3809  0.1099
  100SAPE  H15R10099   6.395   0.965   6.362 -0.2156  1.9717  0.9586
  100SAPE  C21610100   6.212   0.842   6.371  0.1953  0.2146 -0.1846
  100SAPE  H16R10101   6.112   0.849   6.421  0.8106  1.4651  0.9431
  100SAPE  H16S10102   6.262   0.759   6.425  0.3337 -1.4232 -2.6735
  100SAPE  C21710103   6.207   0.793   6.222 -0.2322  0.1748 -1.1039
  100SAPE  H17R10104   6.157   0.875   6.167  2.3088  2.4277 -0.2910
  100SAPE  H17S10105   6.140   0.704   6.218  1.3763 -1.1684 -0.1511
  100SAPE  C21810106   6.336   0.737   6.173  0.0080  0.0602  0.1169
  100SAPE  H18R10107   6.363   0.641   6.221 -1.2380 -0.2291  0.2640
  100SAPE  H18S10108   6.419   0.807   6.197  0.5329  0.3376 -2.3173
  100SAPE  C21910109   6.352   0.728   6.023  0.4151  0.4283 -0.1257
  100SAPE  H19R10110   6.455   0.689   6.010  0.0799 -1.0829  1.4430
  100SAPE  H19S10111   6.334   0.830   5.982 -0.2604  0.3104 -0.1229
  100SAPE  C22010112   6.257   0.637   5.942  0.3932 -0.5362 -0.8199
  100SAPE  H20R10113   6.256   0.529   5.966  0.0490 -0.6334 -1.2637
  100SAPE  H20S10114   6.292   0.646   5.837  0.7721  0.6562 -0.6055
  100SAPE  H20T10115   6.158   0.687   5.943  0.4596 -0.3994  0.5141
  100SAPE   C3310116   4.738   1.265   6.120  0.9763 -0.7192  1.3019
  100SAPE   H3X10117   4.666   1.320   6.184  1.0489  1.4453 -0.3590
  100SAPE   H3Y10118   4.702   1.159   6.119  1.4836 -0.9474 -1.1814
  100SAPE   C3410119   4.709   1.322   5.979 -0.3936  0.5905 -0.1093
  100SAPE   H4X10120   4.710   1.433   5.979 -3.3606  0.7495 -2.5136
  100SAPE   H4Y10121   4.600   1.322   5.954 -0.4745 -0.1724  0.2134
  100SAPE   C3510122   4.789   1.253   5.864  0.5077 -0.9406  1.2814
  100SAPE   H5X10123   4.895   1.287   5.861 -0.2270  1.4828 -1.0273
  100SAPE   H5Y10124   4.746   1.305   5.776 -1.1814  0.0483  2.6497
  100SAPE   C3610125   4.790   1.098   5.861  0.1041  0.3123  0.1789
  100SAPE   H6X10126   4.682   1.071   5.865 -0.0449  0.8622 -0.0586
  100SAPE   H6Y10127   4.824   1.062   5.960 -2.8855  1.7673  1.8579
  100SAPE   C3710128   4.864   1.037   5.741 -0.1344 -0.1768 -0.0936
  100SAPE   H7X10129   4.973   1.051   5.753 -0.3430  0.2389  1.4774
  100SAPE   H7Y10130   4.833   1.095   5.651  0.4644  0.2149 -0.0508
  100SAPE   C3810131   4.836   0.891   5.722  0.0532 -0.0275 -0.0729
  100SAPE   H8X10132   4.727   0.875   5.709  0.1936 -1.0337 -0.0921
  100SAPE   H8Y10133   4.860   0.833   5.814  0.6131 -0.7659 -0.6701
  100SAPE   C3910134   4.903   0.828   5.599 -0.2666  0.6740 -0.3103
  100SAPE   H9X10135   5.002   0.791   5.633 -1.6060 -2.2187  0.6914
  100SAPE   H9Y10136   4.917   0.894   5.511 -0.9630 -0.2466 -1.1233
  100SAPE  C31010137   4.814   0.721   5.538  0.6168  0.3212 -0.0749
  100SAPE  H10X10138   4.711   0.761   5.522 -1.0915 -2.6160  2.4024
  100SAPE  H10Y10139   4.802   0.632   5.603  1.0580 -0.7475 -1.3999
  100SAPE  C31110140   4.884   0.654   5.418 -0.2271  0.0262  0.1554
  100SAPE  H11X10141   4.805   0.579   5.395 -0.6984  0.7261 -0.5563
  100SAPE  H11Y10142   4.985   0.620   5.448  0.3482  0.6014 -1.0907
  100SAPE  C31210143   4.896   0.742   5.296  0.1002 -0.0253 -0.3575
  100SAPE  H12X10144   4.960   0.830   5.316 -0.3947  0.2826 -0.0962
  100SAPE  H12Y10145   4.796   0.781   5.270  0.4880 -0.0590 -1.9606
  100SAPE  C31310146   4.952   0.654   5.180  0.2475 -0.8266 -0.7944
  100SAPE  H13X10147   5.047   0.619   5.224  0.4844  2.3271  1.5427
  100SAPE  H13Y10148   4.985   0.711   5.091  0.0538  0.5890 -0.0001
  100SAPE  C31410149   4.859   0.546   5.121 -0.6421 -0.4236 -0.7792
  100SAPE  H14X10150   4.784   0.602   5.061 -1.2023  0.7949  0.9757
  100SAPE  H14Y10151   4.809   0.496   5.207 -3.3923  0.5403 -1.7186
  100SAPE  C31510152   4.943   0.454   5.032 -0.2744  0.2052 -0.7402
  100SAPE  H15X10153   5.003   0.384   5.094  1.0689  2.1261  0.2443
  100SAPE  H15Y10154   5.009   0.505   4.958  1.5355 -0.5634  0.2917
  100SAPE  C31610155   4.849   0.359   4.953  0.7153  0.0667  0.4835
  100SAPE  H16X10156   4.789   0.425   4.887 -1.9870 -2.0381  0.6794
  100SAPE  H16Y10157   4.772   0.301   5.008 -2.2458  0.3755 -2.9768
  100SAPE  C31710158   4.912   0.247   4.860 -0.4309 -0.4242 -0.3385
  100SAPE  H17X10159   4.831   0.202   4.798 -1.0711 -2.8701  2.0897
  100SAPE  H17Y10160   4.957   0.177   4.933 -2.4042  0.3297  1.7512
  100SAPE  C31810161   5.019   0.315   4.778  0.4591 -0.2034 -0.2447
  100SAPE  H18X10162   4.981   0.397   4.714  0.6181 -0.7127 -1.0111
  100SAPE  H18Y10163   5.060   0.248   4.699  2.5037  1.5534 -0.7778
  100SAPE  H18Z10164   5.101   0.352   4.843  0.2601  0.9909 -0.6562
  101SAPE     N10165   3.379   4.188   7.036  0.2918 -0.4021  0.1425
  101SAPE   HN110166   3.446   4.236   7.099 -1.3906  1.8478  0.3061
  101SAPE   HN210167   3.291   4.181   7.090  0.0571 -1.0927 -0.2994
  101SAPE   HN310168   3.409   4.090   7.014  1.6772  0.6604 -3.3819
  101SAPE   C1210169   3.362   4.273   6.916  0.0161  0.6156  0.4976
  101SAPE  H12A10170   3.459   4.329   6.914 -0.8316  2.1211 -0.1829
  101SAPE  H12B10171   3.285   4.348   6.942  2.0017  4.3580 -3.2133
  101SAPE   C1110172   3.338   4.194   6.779 -0.4076 -0.4383  0.3269
  101SAPE  H11A10173   3.430   4.183   6.718 -2.1549 -3.9051 -2.0068
  101SAPE  H11B10174   3.272   4.263   6.722  1.8655  1.6720  0.0792
  101SAPE     P10175   3.139   4.024   6.792 -0.1902 -0.0818 -0.0416
  101SAPE   O1310176   3.130   3.888   6.851  0.2207 -0.6760  0.0475
  101SAPE   O1410177   3.068   4.135   6.865  0.3168 -0.3936 -0.2888
  101SAPE   O1210178   3.288   4.068   6.800 -0.1071  0.5292 -0.2159
  101SAPE   O1110179   3.108   4.019   6.644  0.0167  0.4037 -0.3751
  101SAPE    C110180   3.199   4.005   6.535  0.4392  0.1541 -0.5522
  101SAPE    HA10181   3.307   4.017   6.556  0.8399 -0.5860 -2.0969
  101SAPE    HB10182   3.192   3.899   6.503  0.3657  0.1000 -0.3620
  101SAPE    C210183   3.167   4.103   6.420 -0.1109 -0.2322  0.5071
  101SAPE    HS10184   3.223   4.066   6.332 -0.8939  0.9721 -0.5299
  101SAPE   O2110185   3.223   4.232   6.448 -0.2247  0.0112  0.6214
  101SAPE   C2110186   3.354   4.247   6.414  0.5909  0.4805 -0.1045
  101SAPE   O2210187   3.431   4.161   6.387 -0.3020  0.0218  0.3010
  101SAPE   C2210188   3.377   4.397   6.431  0.5794  0.0336  0.5871
  101SAPE   H2R10189   3.352   4.418   6.537  0.7780  1.5167  0.3641
  101SAPE   H2S10190   3.488   4.406   6.421  0.6815 -0.9748  0.7560
  101SAPE    C310191   3.017   4.104   6.380 -0.3665 -0.5058 -0.6040
  101SAPE    HX10192   2.958   4.178   6.438 -0.7512 -0.1725 -1.4150
  101SAPE    HY10193   2.973   4.004   6.402  0.4801 -0.6591  0.5405
  101SAPE   O3110194   3.001   4.136   6.243  0.5962 -0.7232 -0.0710
  101SAPE   C3110195   2.993   4.041   6.156  0.0957  0.0992  0.2671
  101SAPE   O3210196   2.996   3.921   6.179 -0.0160  0.2244  0.0789
  101SAPE   C3210197   2.967   4.108   6.019  0.0606  0.5588 -0.1559
  101SAPE   H2X10198   3.032   4.199   6.019  2.8795 -1.2545  2.7779
  101SAPE   H2Y10199   2.859   4.135   6.010 -0.3417 -1.1742 -0.7459
  101SAPE   C2310200   3.301   4.485   6.334  0.2746 -0.0428  0.4445
  101SAPE   H3R10201   3.346   4.583   6.364  3.7476 -1.3419 -0.0827
  101SAPE   H3S10202   3.190   4.488   6.340  0.1076 -0.1429 -1.8160
  101SAPE   C2410203   3.346   4.468   6.182  0.5442 -0.1944 -0.1507
  101SAPE   H4R10204   3.457   4.470   6.176  0.4361  0.6019 -3.1365
  101SAPE   H4S10205   3.319   4.553   6.117  0.8359 -1.5554 -2.1238
  101SAPE   C2510206   3.289   4.342   6.119  0.4024 -0.6458 -0.0001
  101SAPE   H5R10207   3.200   4.305   6.173  1.3301 -1.8234  0.7826
  101SAPE   C2610208   3.345   4.260   6.021  0.1416 -0.7279  0.2582
  101SAPE   H6R10209   3.275   4.189   5.975 -0.8375  1.2651 -1.4763
  101SAPE   C2710210   3.468   4.303   5.939 -0.6821  0.1039 -0.3669
  101SAPE   H7R10211   3.513   4.210   5.898 -0.4345 -0.1840  0.5453
  101SAPE   H7S10212   3.540   4.355   6.005 -1.5776  0.0186  0.7177
  101SAPE   C2810213   3.424   4.402   5.832  0.2878  0.2332  0.0802
  101SAPE   H8R10214   3.368   4.479   5.886  1.5925  0.5205  1.0844
  101SAPE   C2910215   3.427   4.393   5.696 -0.4612  0.1785  0.0589
  101SAPE   H9R10216   3.366   4.468   5.643 -0.4996  1.7977  2.2773
  101SAPE  C21010217   3.474   4.280   5.607 -0.1487 -0.2547 -0.1710
  101SAPE  H10R10218   3.394   4.203   5.611 -1.6017  1.1660 -0.4845
  101SAPE  H10S10219   3.567   4.240   5.652 -0.3385 -2.1400 -1.3263
  101SAPE  C21110220   3.488   4.316   5.461  0.4433  0.7724 -0.0800
  101SAPE  H11R10221   3.397   4.370   5.431 -0.0105 -0.2444 -0.5948
  101SAPE  C21210222   3.585   4.289   5.366  0.5474  0.0705 -1.0029
  101SAPE  H12R10223   3.571   4.341   5.270 -0.3982  1.6158 -0.0696
  101SAPE  C21310224   3.719   4.226   5.390 -0.6578  0.0450  0.1295
  101SAPE  H13R10225   3.703   4.117   5.377 -0.4568 -0.1461  1.4149
  101SAPE  H13S10226   3.752   4.235   5.495 -2.6223 -3.2098  1.1645
  101SAPE  C21410227   3.823   4.274   5.286  0.7705  0.1768  0.1116
  101SAPE  H14R10228   3.841   4.383   5.282 -0.4477  0.3674 -1.2744
  101SAPE  C21510229   3.899   4.195   5.201  0.1060 -0.1071 -0.2513
  101SAPE  H15R10230   3.972   4.240   5.131  0.5806  0.4947  0.6119
  101SAPE  C21610231   3.897   4.042   5.181 -0.2971  0.7197 -0.4857
  101SAPE  H16R10232   3.834   3.988   5.254 -0.1328  2.1535  0.7751
  101SAPE  H16S10233   4.001   4.005   5.190  0.3784  2.7284  0.4369
  101SAPE  C21710234   3.851   4.026   5.035  0.4272 -0.1914  0.1476
  101SAPE  H17R10235   3.936   4.056   4.969  3.1942 -2.6516  2.3130
  101SAPE  H17S10236   3.761   4.090   5.023  1.2648  0.9375 -0.1872
  101SAPE  C21810237   3.810   3.888   4.996 -0.3314  0.2967 -0.0678
  101SAPE  H18R10238   3.909   3.840   4.980  0.5786  1.9727  0.3634
  101SAPE  H18S10239   3.759   3.882   4.898  0.0464 -1.4834 -0.1899
  101SAPE  C21910240   3.719   3.805   5.086 -0.8895 -0.4727  1.3865
  101SAPE  H19R10241   3.624   3.854   5.115 -1.2377 -0.7302  0.6965
  101SAPE  H19S10242   3.780   3.792   5.178 -1.2095  0.4482  1.7449
  101SAPE  C22010243   3.690   3.668   5.045 -0.1896 -0.5354 -0.1923
  101SAPE  H20R10244   3.781   3.609   5.022 -0.4329 -0.6864 -0.7953
  101SAPE  H20S10245   3.620   3.663   4.959  0.2350  0.1054 -0.5852
  101SAPE  H20T10246   3.634   3.614   5.124  0.5909  0.6173  1.2029
  101SAPE   C3310247   3.003   4.016   5.899  0.0209 -0.0500  0.5248
  101SAPE   H3X10248   2.947   3.920   5.904  0.5188 -0.3399  0.6212
  101SAPE   H3Y10249   3.108   3.985   5.921  0.6089  0.5934 -1.2513
  101SAPE   C3410250   2.985   4.074   5.753  0.5295  0.4516  0.1566
  101SAPE   H4X10251   3.046   4.165   5.737 -0.8435  1.4486  0.4599
  101SAPE   H4Y10252   2.876   4.096   5.747 -0.1811 -2.7729 -0.6216
  101SAPE   C3510253   3.032   3.977   5.648  0.0129 -0.2625 -0.1981
  101SAPE   H5X10254   2.954   3.900   5.630 -0.5273  0.6215 -1.9206
  101SAPE   H5Y10255   3.120   3.917   5.676  0.5140  1.1821  1.5477
  101SAPE   C3610256   3.068   4.043   5.518  0.0686 -0.0907 -0.1711
  101SAPE   H6X10257   3.160   4.105   5.517 -0.4200  0.6903 -1.8313
  101SAPE   H6Y10258   2.989   4.114   5.485 -1.3397 -0.7126  1.6755
  101SAPE   C3710259   3.082   3.946   5.403  0.4811  0.3916 -0.4903
  101SAPE   H7X10260   2.987   3.888   5.392 -0.8577  2.2959  0.4690
  101SAPE   H7Y10261   3.161   3.877   5.439  0.1589  0.2190 -0.1092
  101SAPE   C3810262   3.118   4.032   5.286  0.5348 -0.3585  0.2608
  101SAPE   H8X10263   3.210   4.091   5.305  0.3516  0.4299 -1.1889
  101SAPE   H8Y10264   3.038   4.108   5.273  0.1945 -0.7897 -0.1876
  101SAPE   C3910265   3.145   3.960   5.151 -0.7424 -0.4610 -0.7422
  101SAPE   H9X10266   3.045   3.942   5.107 -1.1633 -0.1300  0.0787
  101SAPE   H9Y10267   3.189   3.859   5.167 -0.5517 -0.3852 -0.7851
  101SAPE  C31010268   3.233   4.037   5.053 -0.7717  0.9265  0.5418
  101SAPE  H10X10269   3.328   4.063   5.103  0.3689  2.6553 -2.2804
  101SAPE  H10Y10270   3.187   4.137   5.034  1.0400  1.9283  1.1602
  101SAPE  C31110271   3.252   3.951   4.926 -0.0283  0.2153  0.0428
  101SAPE  H11X10272   3.161   3.894   4.897 -1.3162  1.4392  1.4739
  101SAPE  H11Y10273   3.338   3.887   4.956 -0.2902  1.7707  5.0899
  101SAPE  C31210274   3.293   4.031   4.804 -0.6114  0.4223  0.2793
  101SAPE  H12X10275   3.208   4.091   4.764 -1.9281 -2.0175 -0.8329
  101SAPE  H12Y10276   3.322   3.961   4.722  2.2129  2.5785 -0.7186
  101SAPE  C31310277   3.414   4.117   4.822  0.6475  0.2554 -0.5391
  101SAPE  H13X10278   3.493   4.077   4.889 -0.5856 -1.2530  0.0816
  101SAPE  H13Y10279   3.381   4.212   4.871  2.2430  0.0395  1.0841
  101SAPE  C31410280   3.492   4.161   4.705 -0.8406  0.1380  0.4325
  101SAPE  H14X10281   3.440   4.249   4.662  3.3325  3.4669  1.4914
  101SAPE  H14Y10282   3.497   4.072   4.639  3.3574  0.8627 -0.5243
  101SAPE  C31510283   3.640   4.201   4.736  0.0970 -0.2698  0.0704
  101SAPE  H15X10284   3.687   4.213   4.636 -1.0278 -1.4601 -0.6313
  101SAPE  H15Y10285   3.694   4.120   4.789 -0.0952 -0.6416 -0.2997
  101SAPE  C31610286   3.642   4.335   4.805  0.0509  0.0817  0.3441
  101SAPE  H16X10287   3.602   4.331   4.909 -1.0773  0.7179 -0.0458
  101SAPE  H16Y10288   3.576   4.408   4.753  2.6926  3.0351  0.8266
  101SAPE  C31710289   3.778   4.400   4.809 -0.3875  0.3520  0.7185
  101SAPE  H17X10290   3.825   4.396   4.708  1.5442 -1.1776  1.6197
  101SAPE  H17Y10291   3.846   4.344   4.877  0.3147  1.5139  1.0015
  101SAPE  C31810292   3.775   4.543   4.852  0.5135  0.1904 -0.6822
  101SAPE  H18X10293   3.695   4.595   4.796 -0.9064 -1.3311 -0.1486
  101SAPE  H18Y10294   3.870   4.595   4.829  0.3835  1.2667  1.0452
  101SAPE  H18Z10295   3.766   4.558   4.962  2.4788  0.3416 -0.5119
  102SAPE     N10296   3.141   2.838   7.025  0.2260 -0.3975 -0.9696
  102SAPE   HN110297   3.147   2.936   6.990 -0.5742 -0.3777 -1.0747
  102SAPE   HN210298   3.042   2.815   7.049 -0.0632  2.7316  1.6057
  102SAPE   HN310299   3.184   2.833   7.119  0.5478 -0.2129 -1.1058
  102SAPE   C1210300   3.205   2.744   6.936  0.7114 -0.1207 -0.2486
  102SAPE  H12A10301   3.146   2.708   6.849  2.0319 -2.7132 -0.1798
  102SAPE  H12B10302   3.236   2.652   6.989 -0.2580 -0.5436 -0.3835
  102SAPE   C1110303   3.335   2.810   6.881 -0.8737  0.6881  0.1083
  102SAPE  H11A10304   3.295   2.899   6.829 -1.6679 -0.3836 -1.1851
  102SAPE  H11B10305   3.377   2.740   6.805  0.6209 -2.1130  3.2114
  102SAPE     P10306   3.559   2.724   7.018  0.1032 -0.1932  0.0727
  102SAPE   O1310307   3.618   2.760   7.146 -0.1927  0.1659  0.0963
  102SAPE   O1410308   3.499   2.589   7.011  0.5696  0.3972 -0.0621
  102SAPE   O1210309   3.443   2.828   6.981  0.0634  0.5217  0.3149
  102SAPE   O1110310   3.660   2.739   6.898 -0.3516 -0.1109  0.3976
  102SAPE    C110311   3.702   2.871   6.852  0.9568 -0.1616 -0.4840
  102SAPE    HA10312   3.613   2.935   6.833  1.6151  1.1911  0.7866
  102SAPE    HB10313   3.750   2.926   6.936  0.4250  0.9283 -0.8712
  102SAPE    C210314   3.801   2.866   6.734  0.3304  0.1667  0.0647
  102SAPE    HS10315   3.761   2.943   6.665 -2.6405 -0.3382  1.0541
  102SAPE   O2110316   3.807   2.729   6.684 -0.2008 -0.5622  0.1604
  102SAPE   C2110317   3.699   2.703   6.607 -0.3090 -0.0666  0.3968
  102SAPE   O2210318   3.615   2.786   6.573  0.5207 -0.2283  0.1000
  102SAPE   C2210319   3.688   2.559   6.589  0.2479  0.3731  0.0937
  102SAPE   H2R10320   3.782   2.504   6.611 -0.0540 -0.4775 -0.6856
  102SAPE   H2S10321   3.610   2.523   6.660 -1.7632 -1.1651 -2.6700
  102SAPE    C310322   3.942   2.913   6.778  0.4809 -0.6127  0.6422
  102SAPE    HX10323   3.981   2.851   6.862 -0.1029 -0.3952  1.0848
  102SAPE    HY10324   3.924   3.010   6.829  0.1945 -0.0042 -0.5747
  102SAPE   O3110325   4.033   2.920   6.665  0.5206 -0.5537 -0.2292
  102SAPE   C3110326   4.054   3.037   6.607 -0.3282  0.1128 -0.7643
  102SAPE   O3210327   3.997   3.141   6.632 -0.9637 -0.4359 -0.3465
  102SAPE   C3210328   4.154   3.022   6.497 -0.6751 -0.0705 -0.8294
  102SAPE   H2X10329   4.187   2.916   6.493 -0.4442 -0.0764  0.6191
  102SAPE   H2Y10330   4.241   3.087   6.521 -0.2451 -0.4442 -1.3573
  102SAPE   C2310331   3.644   2.524   6.447 -1.0128  0.5112 -0.0772
  102SAPE   H3R10332   3.590   2.607   6.397 -0.6189  0.8261  0.0117
  102SAPE   H3S10333   3.582   2.432   6.448  0.5439 -0.7491  4.5020
  102SAPE   C2410334   3.774   2.507   6.363 -0.1227  0.3004  0.0592
  102SAPE   H4R10335   3.749   2.445   6.274  0.0449 -1.2032  1.0274
  102SAPE   H4S10336   3.847   2.440   6.414  2.5622  2.4715 -0.6281
  102SAPE   C2510337   3.854   2.636   6.322 -0.3290  0.1391 -0.3118
  102SAPE   H5R10338   3.933   2.658   6.396  0.0879  1.3988 -1.1025
  102SAPE   C2610339   3.815   2.731   6.242  0.8499  0.2582 -0.0162
  102SAPE   H6R10340   3.872   2.825   6.231  1.5284  0.2804  2.7859
  102SAPE   C2710341   3.682   2.724   6.167 -0.7197 -0.3587  0.4455
  102SAPE   H7R10342   3.594   2.764   6.222 -1.6048  0.0828 -1.2255
  102SAPE   H7S10343   3.670   2.619   6.135  1.7236 -0.6546  0.3179
  102SAPE   C2810344   3.685   2.801   6.034 -0.5571  0.2173  0.0343
  102SAPE   H8R10345   3.754   2.887   6.030 -0.2940  0.0666  1.0657
  102SAPE   C2910346   3.598   2.776   5.928 -1.0806  0.6309  0.0853
  102SAPE   H9R10347   3.616   2.836   5.837 -0.4294  0.0681 -0.1644
  102SAPE  C21010348   3.496   2.665   5.917  0.5851 -0.0326 -0.2717
  102SAPE  H10R10349   3.432   2.697   5.832 -0.4487 -0.4966  0.3026
  102SAPE  H10S10350   3.437   2.660   6.011  0.1491  2.0565 -0.3909
  102SAPE  C21110351   3.570   2.534   5.888 -0.3684  0.2407  0.1532
  102SAPE  H11R10352   3.665   2.517   5.940 -0.5386 -0.9513  0.1054
  102SAPE  C21210353   3.533   2.449   5.791  0.0508 -0.3570  0.2851
  102SAPE  H12R10354   3.603   2.367   5.770  0.2781  0.1005 -0.8280
  102SAPE  C21310355   3.415   2.474   5.700  0.2241  0.7729  0.1288
  102SAPE  H13R10356   3.444   2.524   5.605  1.7960 -3.4066 -1.8329
  102SAPE  H13S10357   3.335   2.540   5.741  1.1087  1.0597  1.4616
  102SAPE  C21410358   3.348   2.349   5.662  0.0117  0.1575 -0.1129
  102SAPE  H14R10359   3.353   2.271   5.740  3.9609  0.5042  0.1983
  102SAPE  C21510360   3.297   2.304   5.542  0.0338  0.1238 -0.7074
  102SAPE  H15R10361   3.243   2.208   5.535 -2.9757  1.7730 -2.0816
  102SAPE  C21610362   3.293   2.388   5.420  0.0251  0.7899  0.0414
  102SAPE  H16R10363   3.345   2.485   5.435  0.2354  0.7439 -0.3643
  102SAPE  H16S10364   3.185   2.401   5.398 -0.5516 -2.2206  0.7336
  102SAPE  C21710365   3.368   2.319   5.298  0.3000 -0.5197  0.0488
  102SAPE  H17R10366   3.344   2.211   5.288  1.3605 -0.7720  0.1095
  102SAPE  H17S10367   3.474   2.318   5.332  0.0524  2.3791  1.1988
  102SAPE  C21810368   3.372   2.386   5.161 -0.6404  0.4704 -0.7096
  102SAPE  H18R10369   3.269   2.427   5.148 -1.4090 -1.4289 -0.8472
  102SAPE  H18S10370   3.419   2.324   5.082  1.0807  1.0056 -0.1386
  102SAPE  C21910371   3.465   2.510   5.158 -0.5773  0.0415 -0.2249
  102SAPE  H19R10372   3.575   2.494   5.169 -0.1494  0.6033 -2.9058
  102SAPE  H19S10373   3.436   2.567   5.249 -1.2910 -0.6273 -0.0244
  102SAPE  C22010374   3.449   2.596   5.029  0.0524 -0.3022 -0.2888
  102SAPE  H20R10375   3.515   2.553   4.951  0.4311  0.6613 -0.5138
  102SAPE  H20S10376   3.489   2.697   5.053  1.7428 -0.8858 -0.5134
  102SAPE  H20T10377   3.344   2.594   4.995 -0.9575 -1.7520  2.5678
  102SAPE   C3310378   4.084   3.054   6.361  0.1711 -1.3537 -0.7655
  102SAPE   H3X10379   4.074   3.165   6.362  2.6126 -1.0561  1.4874
  102SAPE   H3Y10380   3.981   3.012   6.360 -0.5563  0.3190 -0.1662
  102SAPE   C3410381   4.164   3.002   6.247  0.3737 -0.6102  0.8847
  102SAPE   H4X10382   4.186   2.894   6.261 -0.2418 -0.4406  3.7535
  102SAPE   H4Y10383   4.264   3.049   6.241  0.3847 -0.8188 -1.2499
  102SAPE   C3510384   4.091   3.027   6.112 -0.0620 -0.0042 -0.2554
  102SAPE   H5X10385   4.076   3.134   6.088  0.8991  0.3489  0.6419
  102SAPE   H5Y10386   3.986   2.990   6.108 -0.2857  0.7420 -2.6011
  102SAPE   C3610387   4.169   2.958   5.997  0.1581  0.4434  0.5373
  102SAPE   H6X10388   4.156   2.848   6.005 -3.0902  0.7965  1.2991
  102SAPE   H6Y10389   4.274   2.995   5.994 -0.5478  2.5362 -0.3254
  102SAPE   C3710390   4.111   2.986   5.852 -0.0687  0.0631 -0.0809
  102SAPE   H7X10391   4.078   3.093   5.848 -1.2494 -0.2973 -0.5008
  102SAPE   H7Y10392   4.018   2.926   5.862 -0.2971  0.4770  0.3510
  102SAPE   C3810393   4.206   2.947   5.743 -0.3376  0.2250 -0.4402
  102SAPE   H8X10394   4.231   2.840   5.756  1.3753  0.3683 -2.1060
  102SAPE   H8Y10395   4.305   2.997   5.757 -0.5042  0.3727  0.2262
  102SAPE   C3910396   4.164   2.969   5.598 -0.4481 -0.3273  0.3127
  102SAPE   H9X10397   4.150   3.078   5.583  0.4699 -0.0994  0.9975
  102SAPE   H9Y10398   4.068   2.916   5.580 -0.6957 -0.1952  1.1993
  102SAPE  C31010399   4.271   2.932   5.484 -0.2548 -0.4613  0.1056
  102SAPE  H10X10400   4.268   2.821   5.479 -4.1420 -0.4257 -1.5341
  102SAPE  H10Y10401   4.373   2.967   5.514 -0.1223 -1.8468  1.3718
  102SAPE  C31110402   4.226   2.987   5.350 -0.0195  0.2553 -0.3509
  102SAPE  H11X10403   4.234   3.097   5.350  1.7185  0.1475 -0.7601
  102SAPE  H11Y10404   4.122   2.965   5.317  0.3666 -1.0944 -0.7597
  102SAPE  C31210405   4.313   2.921   5.238 -0.0866 -0.9044  0.2873
  102SAPE  H12X10406   4.276   2.937   5.134  0.8588 -2.8927 -0.4166
  102SAPE  H12Y10407   4.313   2.812   5.261 -1.5307 -0.5460  2.2300
  102SAPE  C31310408   4.452   2.973   5.240 -0.2422 -0.4143  0.4125
  102SAPE  H13X10409   4.492   2.931   5.335 -1.9140 -0.1466  1.2859
  102SAPE  H13Y10410   4.469   3.083   5.243 -0.8383 -0.3161  0.4245
  102SAPE  C31410411   4.535   2.914   5.129 -0.0305 -0.6092  0.2000
  102SAPE  H14X10412   4.524   2.966   5.031 -1.0043 -1.7097 -0.2975
  102SAPE  H14Y10413   4.500   2.812   5.103 -1.5355 -0.4498  1.4596
  102SAPE  C31510414   4.688   2.886   5.155 -0.6328 -0.1339  0.2968
  102SAPE  H15X10415   4.726   2.979   5.202  0.0624 -1.5085  2.6040
  102SAPE  H15Y10416   4.734   2.867   5.056 -0.5835  2.0623 -0.1455
  102SAPE  C31610417   4.696   2.767   5.246  0.0638 -0.2788 -0.0950
  102SAPE  H16X10418   4.630   2.688   5.204 -1.0359  0.1569  0.7741
  102SAPE  H16Y10419   4.657   2.783   5.349  1.5532 -3.1232  1.0319
  102SAPE  C31710420   4.836   2.718   5.256  0.1084  0.1148 -0.1203
  102SAPE  H17X10421   4.907   2.801   5.278  0.2474  0.1175 -0.5744
  102SAPE  H17Y10422   4.852   2.695   5.149  2.3643  0.4100  0.0979
  102SAPE  C31810423   4.875   2.598   5.338 -0.4960  0.1505  0.2177
  102SAPE  H18X10424   4.979   2.573   5.311 -0.9580  0.2747 -1.8228
  102SAPE  H18Y10425   4.816   2.509   5.306 -0.8507 -0.1514  1.6575
  102SAPE  H18Z10426   4.862   2.609   5.448 -2.9919  1.7319 -0.1493
  103SAPE     N10427   6.811   1.770   2.830  0.2252 -0.6167 -0.2918
  103SAPE   HN110428   6.871   1.734   2.908 -2.8006 -1.9401  1.6267
  103SAPE   HN210429   6.758   1.853   2.862  0.1912 -1.4622  2.0501
  103SAPE   HN310430   6.751   1.688   2.805  0.7316 -1.0557 -0.1028
  103SAPE   C1210431   6.897   1.806   2.712  0.2341 -0.4209  0.0324
  103SAPE  H12A10432   6.965   1.888   2.743  1.8377 -2.2954  1.7368
  103SAPE  H12B10433   6.825   1.842   2.635  0.1486  0.1189  0.3543
  103SAPE   C1110434   6.980   1.685   2.675 -0.1454  0.2052 -0.0517
  103SAPE  H11A10435   7.048   1.715   2.593 -3.2231 -0.1513 -2.9612
  103SAPE  H11B10436   6.905   1.615   2.634  0.7759 -0.9838  0.2384
  103SAPE     P10437   7.185   1.648   2.827  0.3008  0.2181  0.3430
  103SAPE   O1310438   7.275   1.555   2.760 -0.3231  0.7092  0.1456
  103SAPE   O1410439   7.210   1.795   2.799 -0.1388  0.4599 -0.1982
  103SAPE   O1210440   7.033   1.615   2.788 -0.3992  0.2989 -0.0446
  103SAPE   O1110441   7.184   1.627   2.988  0.1454 -0.3494  0.5502
  103SAPE    C110442   7.241   1.508   3.040  0.2238 -0.0770 -0.2524
  103SAPE    HA10443   7.202   1.415   2.993 -1.5913  0.9973 -0.9362
  103SAPE    HB10444   7.352   1.509   3.028  0.0523 -0.6061 -2.2409
  103SAPE    C210445   7.233   1.510   3.198  0.4592  0.1642 -0.3563
  103SAPE    HS10446   7.269   1.408   3.227  0.5061  0.9765  2.8610
  103SAPE   O2110447   7.100   1.501   3.254  0.5322 -0.1394 -0.4007
  103SAPE   C2110448   7.008   1.414   3.210 -0.0615 -0.5597 -0.6784
  103SAPE   O2210449   7.021   1.325   3.127 -0.5696 -0.4886  0.3776
  103SAPE   C2210450   6.879   1.436   3.285 -0.4280  0.4836  0.1578
  103SAPE   H2R10451   6.840   1.539   3.272  1.7473  1.2040 -1.3432
  103SAPE   H2S10452   6.811   1.370   3.227 -1.2339  2.0110 -0.7005
  103SAPE    C310453   7.311   1.624   3.265  0.7916  0.2253 -0.1711
  103SAPE    HX10454   7.257   1.721   3.261 -0.3986 -0.3700  0.8194
  103SAPE    HY10455   7.404   1.634   3.204  0.3777  0.2034 -0.8044
  103SAPE   O3110456   7.345   1.595   3.401 -0.8942  0.0730 -0.5320
  103SAPE   C3110457   7.251   1.621   3.488  0.2639 -0.4544 -0.4731
  103SAPE   O3210458   7.150   1.688   3.463 -0.2450  0.8294 -0.0835
  103SAPE   C3210459   7.289   1.559   3.622 -0.0551  0.7973 -0.1978
  103SAPE   H2X10460   7.315   1.639   3.695 -0.8017  2.5761 -1.8107
  103SAPE   H2Y10461   7.369   1.484   3.603 -0.5007  0.7952 -2.3259
  103SAPE   C2310462   6.882   1.419   3.441  0.4929  0.1061  0.7150
  103SAPE   H3R10463   6.854   1.516   3.489  1.0871  0.7123 -0.1428
  103SAPE   H3S10464   6.976   1.380   3.486  0.6737 -0.5314 -0.1885
  103SAPE   C2410465   6.774   1.312   3.476  0.5000 -0.2176  0.1531
  103SAPE   H4R10466   6.687   1.319   3.406  1.4431 -1.3713 -1.1795
  103SAPE   H4S10467   6.743   1.333   3.581 -0.7108 -0.3227 -0.1674
  103SAPE   C2510468   6.817   1.169   3.458  0.6992  0.8490 -0.0138
  103SAPE   H5R10469   6.923   1.155   3.484  0.5296  0.3385  0.4347
  103SAPE   C2610470   6.751   1.060   3.408  0.5404  0.3165  0.6391
  103SAPE   H6R10471   6.800   0.961   3.401  2.6194  1.3552 -0.2403
  103SAPE   C2710472   6.609   1.041   3.356 -0.4545 -0.0971  0.3473
  103SAPE   H7R10473   6.602   0.949   3.295 -2.6266  0.1994  0.0979
  103SAPE   H7S10474   6.583   1.120   3.282  0.4173 -0.4783 -0.3816
  103SAPE   C2810475   6.530   1.046   3.473  0.3219  0.4099  0.0968
  103SAPE   H8R10476   6.490   1.146   3.499  0.5190  0.4373  0.2965
  103SAPE   C2910477   6.462   0.945   3.533 -0.0550  0.4879 -0.2832
  103SAPE   H9R10478   6.399   0.968   3.620  0.6436  0.2705  0.2873
  103SAPE  C21010479   6.479   0.797   3.505  0.6628 -0.2553 -0.1950
  103SAPE  H10R10480   6.521   0.748   3.596  0.3169  0.9142  0.6177
  103SAPE  H10S10481   6.541   0.778   3.415 -0.9110  2.4313 -1.9967
  103SAPE  C21110482   6.343   0.749   3.474 -0.2918 -0.0947 -0.5138
  103SAPE  H11R10483   6.284   0.773   3.385 -1.1602 -1.8847 -0.4808
  103SAPE  C21210484   6.271   0.665   3.556  0.6979  0.2731  0.0033
  103SAPE  H12R10485   6.171   0.630   3.531  0.8545 -0.3707  0.2679
  103SAPE  C21310486   6.320   0.608   3.688 -0.4092 -0.3306 -0.7962
  103SAPE  H13R10487   6.322   0.689   3.764 -0.1139 -0.3275 -0.8051
  103SAPE  H13S10488   6.427   0.585   3.669 -0.4349 -1.1649 -0.0131
  103SAPE  C21410489   6.244   0.487   3.747  0.0760 -0.3213 -0.4921
  103SAPE  H14R10490   6.266   0.389   3.703 -1.0668 -1.6869  1.7795
  103SAPE  C21510491   6.181   0.486   3.864 -0.1917  0.1706 -0.0773
  103SAPE  H15R10492   6.139   0.395   3.907  1.3668 -0.3048  0.5211
  103SAPE  C21610493   6.138   0.603   3.947 -0.4305  0.0626 -0.7964
  103SAPE  H16R10494   6.031   0.592   3.976 -1.9099  2.9726 -4.3966
  103SAPE  H16S10495   6.143   0.703   3.899  0.3341  0.9086  0.9375
  103SAPE  C21710496   6.202   0.608   4.092  0.2080  0.3330 -0.3379
  103SAPE  H17R10497   6.166   0.531   4.164  0.9735 -0.6273 -0.9630
  103SAPE  H17S10498   6.163   0.701   4.140 -0.5417 -0.6449  1.0304
  103SAPE  C21810499   6.356   0.617   4.097  0.0264 -0.1095  0.4518
  103SAPE  H18R10500   6.380   0.715   4.050 -0.4752 -0.1454  0.1017
  103SAPE  H18S10501   6.393   0.535   4.032 -0.6772  0.8948 -1.3172
  103SAPE  C21910502   6.411   0.618   4.242  0.4388  0.2956 -0.1253
  103SAPE  H19R10503   6.340   0.673   4.308  1.4463  1.1301  0.3039
  103SAPE  H19S10504   6.517   0.650   4.250 -0.3407  3.2843 -0.3151
  103SAPE  C22010505   6.411   0.483   4.307  0.0263  0.2677  0.4590
  103SAPE  H20R10506   6.408   0.481   4.418 -1.0782 -0.5361  0.4317
  103SAPE  H20S10507   6.510   0.438   4.283 -0.1646  0.5333 -0.8884
  103SAPE  H20T10508   6.339   0.411   4.262  0.7930 -0.3561  0.1934
  103SAPE   C3310509   7.169   1.485   3.674  0.0937 -0.4665 -0.1772
  103SAPE   H3X10510   7.151   1.395   3.611  1.5748  0.0658 -1.4015
  103SAPE   H3Y10511   7.079   1.550   3.676 -0.4432 -1.1909 -0.1310
  103SAPE   C3410512   7.192   1.437   3.815 -0.5540 -0.2067 -0.0886
  103SAPE   H4X10513   7.240   1.513   3.881 -2.0841 -0.2873  1.1825
  103SAPE   H4Y10514   7.268   1.357   3.798 -0.6589 -0.3871  0.2838
  103SAPE   C3510515   7.072   1.374   3.876 -0.0965 -0.1015  0.1425
  103SAPE   H5X10516   7.026   1.309   3.798  0.0982  0.6086 -0.5797
  103SAPE   H5Y10517   6.992   1.451   3.882  0.0407  0.1522 -1.0246
  103SAPE   C3610518   7.105   1.306   4.006 -0.4581  0.3460  0.3082
  103SAPE   H6X10519   7.183   1.372   4.050  1.0000 -0.0816 -1.5190
  103SAPE   H6Y10520   7.159   1.211   3.990 -2.5423 -0.8808  0.1558
  103SAPE   C3710521   6.985   1.286   4.098  0.2554  0.0323  0.8811
  103SAPE   H7X10522   6.898   1.239   4.047  1.1046  0.8209 -1.4184
  103SAPE   H7Y10523   6.947   1.388   4.118  1.7470  0.7662  0.1632
  103SAPE   C3810524   7.027   1.211   4.227  0.2424 -0.1726 -0.5921
  103SAPE   H8X10525   7.106   1.272   4.275  0.9228 -0.7610 -0.9447
  103SAPE   H8Y10526   7.074   1.118   4.189 -0.0382  0.2936 -2.1884
  103SAPE   C3910527   6.914   1.190   4.321 -0.0636  0.0694  0.4274
  103SAPE   H9X10528   6.832   1.143   4.262 -2.2901  2.2882  1.5525
  103SAPE   H9Y10529   6.884   1.287   4.366  1.4361 -0.0732  1.8389
  103SAPE  C31010530   6.950   1.095   4.434  0.3941  0.1034  0.1660
  103SAPE  H10X10531   7.029   1.142   4.496 -1.6624  1.2232  2.0768
  103SAPE  H10Y10532   7.006   1.002   4.410  0.3411  0.3639 -1.0401
  103SAPE  C31110533   6.837   1.060   4.535 -0.5567  0.3850  0.4860
  103SAPE  H11X10534   6.761   1.000   4.481  0.5860  0.3104 -1.1431
  103SAPE  H11Y10535   6.792   1.151   4.579 -0.2176  0.4950  0.6080
  103SAPE  C31210536   6.888   0.963   4.645 -0.1717 -0.3197  0.1360
  103SAPE  H12X10537   6.986   1.002   4.677  1.0359 -0.8201 -2.6651
  103SAPE  H12Y10538   6.909   0.861   4.606  0.6351 -1.8898  4.1161
  103SAPE  C31310539   6.799   0.942   4.768  0.7221 -0.8102 -0.0406
  103SAPE  H13X10540   6.862   0.894   4.845 -2.3632 -0.9138  2.6602
  103SAPE  H13Y10541   6.713   0.874   4.749  0.1629  0.3511 -1.9639
  103SAPE  C31410542   6.732   1.071   4.831 -0.6446  0.0276 -0.1245
  103SAPE  H14X10543   6.674   1.129   4.755  0.9264  1.5310 -0.2303
  103SAPE  H14Y10544   6.809   1.145   4.860  0.2660 -1.6939  2.1544
  103SAPE  C31510545   6.644   1.046   4.948  0.0987 -0.3706 -0.7836
  103SAPE  H15X10546   6.570   0.970   4.915 -0.2444 -0.7643  0.7923
  103SAPE  H15Y10547   6.589   1.142   4.961 -0.3335 -0.5060 -1.5569
  103SAPE  C31610548   6.703   0.994   5.079  0.7148 -0.2395 -0.4276
  103SAPE  H16X10549   6.765   1.078   5.117  0.7567 -1.1804  1.7584
  103SAPE  H16Y10550   6.765   0.902   5.076 -0.9171 -1.4127  0.3818
  103SAPE  C31710551   6.585   0.962   5.181 -0.4238  0.6400  0.2969
  103SAPE  H17X10552   6.515   1.048   5.187  0.9369  1.6832  1.9571
  103SAPE  H17Y10553   6.624   0.947   5.284  0.0687  0.5939  0.1055
  103SAPE  C31810554   6.512   0.831   5.141  0.3630  0.5711 -0.7896
  103SAPE  H18X10555   6.590   0.756   5.118 -0.3557 -0.2516 -0.6178
  103SAPE  H18Y10556   6.446   0.835   5.052  1.7606 -0.1484 -1.8925
  103SAPE  H18Z10557   6.457   0.792   5.230  2.6396 -0.6916  0.1560
  104SAPE     N10558   0.625   0.581   2.506  0.4239  0.7239 -0.2608
  104SAPE   HN110559   0.635   0.578   2.403 -0.0188  1.5744 -0.3380
  104SAPE   HN210560   0.527   0.591   2.539  0.2200 -0.0355 -0.6457
  104SAPE   HN310561   0.671   0.663   2.552  2.1309 -0.1728 -0.3019
  104SAPE   C1210562   0.688   0.457   2.558 -0.8586  0.0388 -0.4333
  104SAPE  H12A10563   0.798   0.466   2.546 -0.2545 -5.3938 -1.7330
  104SAPE  H12B10564   0.655   0.370   2.496  2.8281 -1.6332 -0.2703
  104SAPE   C1110565   0.668   0.451   2.715 -0.6048  0.3700 -0.0064
  104SAPE  H11A10566   0.557   0.447   2.725 -0.7255  2.1610 -0.2306
  104SAPE  H11B10567   0.694   0.549   2.760 -0.9393 -0.0910  1.2292
  104SAPE     P10568   0.696   0.212   2.802  0.1046  0.2212  0.0651
  104SAPE   O1310569   0.628   0.157   2.681  0.1441 -0.4174  0.1224
  104SAPE   O1410570   0.807   0.137   2.858  0.0464  0.2732 -0.0427
  104SAPE   O1210571   0.748   0.355   2.773 -0.1229  0.3751 -0.0122
  104SAPE   O1110572   0.596   0.242   2.910 -0.0526 -0.3005  0.3903
  104SAPE    C110573   0.631   0.291   3.042 -0.2280  0.2155 -0.4285
  104SAPE    HA10574   0.724   0.352   3.045  0.8853 -1.4236 -0.4817
  104SAPE    HB10575   0.545   0.349   3.082 -2.0175 -3.9420  2.4897
  104SAPE    C210576   0.648   0.166   3.145 -0.0743 -0.4625 -0.3757
  104SAPE    HS10577   0.730   0.095   3.122  0.3144  0.1322 -0.8463
  104SAPE   O2110578   0.521   0.085   3.152  0.0020  0.5037 -0.4067
  104SAPE   C2110579   0.534  -0.049   3.153  0.2309  0.7865 -0.4426
  104SAPE   O2210580   0.638  -0.112   3.153 -0.2676 -0.0901 -0.3127
  104SAPE   C2210581   0.390  -0.114   3.147 -0.2088 -0.2752 -0.0596
  104SAPE   H2R10582   0.321  -0.062   3.217 -1.8689 -0.2121 -1.6707
  104SAPE   H2S10583   0.350  -0.092   3.046  0.3600  0.7944 -0.0614
  104SAPE    C310584   0.680   0.212   3.297  0.1413 -0.3828 -0.3261
  104SAPE    HX10585   0.596   0.281   3.323  1.7267  1.6546 -0.3817
  104SAPE    HY10586   0.771   0.275   3.294 -0.0189 -0.1574 -2.3801
  104SAPE   O3110587   0.672   0.098   3.388 -0.7535  0.2754  0.2549
  104SAPE   C3110588   0.787   0.035   3.401  0.3233 -0.6272 -0.0011
  104SAPE   O3210589   0.888   0.066   3.338 -0.7963 -0.4839  0.3700
  104SAPE   C3210590   0.772  -0.083   3.502 -0.6728  1.0466  0.3737
  104SAPE   H2X10591   0.681  -0.136   3.464  1.6013 -2.1546 -1.0960
  104SAPE   H2Y10592   0.755  -0.039   3.603  1.3932  0.6560  0.9498
  104SAPE   C2310593   0.388  -0.266   3.176  0.2317 -0.5153 -0.2522
  104SAPE   H3R10594   0.475  -0.315   3.128 -0.7647 -0.8015 -1.8576
  104SAPE   H3S10595   0.295  -0.315   3.141 -0.7390 -0.7346  2.3942
  104SAPE   C2410596   0.403  -0.296   3.324  0.8308 -0.3296  0.1722
  104SAPE   H4R10597   0.319  -0.248   3.379  0.3694  2.3767 -2.6071
  104SAPE   H4S10598   0.494  -0.251   3.369  0.3628  0.3814  0.4239
  104SAPE   C2510599   0.396  -0.444   3.350 -0.2599 -0.1066 -0.2437
  104SAPE   H5R10600   0.349  -0.500   3.268 -0.2588  0.0729 -0.3696
  104SAPE   C2610601   0.444  -0.508   3.456  1.1337 -0.5207  0.2161
  104SAPE   H6R10602   0.416  -0.615   3.464  1.0763 -0.5516 -0.3988
  104SAPE   C2710603   0.504  -0.450   3.585  0.1666 -0.2540 -0.4334
  104SAPE   H7R10604   0.548  -0.350   3.566  1.1305 -0.8922 -1.7580
  104SAPE   H7S10605   0.588  -0.510   3.627 -0.1068  0.4697  1.2009
  104SAPE   C2810606   0.399  -0.436   3.688  0.6007 -0.8029  0.2150
  104SAPE   H8R10607   0.313  -0.371   3.665  0.3974 -0.9003  0.6867
  104SAPE   C2910608   0.412  -0.476   3.818  0.6354 -0.2698  0.6367
  104SAPE   H9R10609   0.335  -0.444   3.890 -1.8139 -0.3661 -1.7795
  104SAPE  C21010610   0.518  -0.563   3.877  0.2077 -0.1735  0.0068
  104SAPE  H10R10611   0.583  -0.493   3.934 -0.2336 -0.1435  0.4828
  104SAPE  H10S10612   0.580  -0.614   3.800  1.3977  1.3312 -0.0669
  104SAPE  C21110613   0.466  -0.682   3.962  0.5718 -0.0663  0.6718
  104SAPE  H11R10614   0.440  -0.769   3.901  0.9941 -0.3791  0.9397
  104SAPE  C21210615   0.458  -0.682   4.093  0.2562  0.8939  0.4396
  104SAPE  H12R10616   0.429  -0.769   4.153  1.7482  1.6773  2.4004
  104SAPE  C21310617   0.499  -0.585   4.202  0.4391  0.2288 -0.1471
  104SAPE  H13R10618   0.546  -0.495   4.157  1.0434 -1.0605 -2.2333
  104SAPE  H13S10619   0.567  -0.636   4.274 -0.7961 -0.6713  0.4284
  104SAPE  C21410620   0.376  -0.546   4.288  0.6877 -0.4331  0.4683
  104SAPE  H14R10621   0.301  -0.482   4.241 -0.0834 -0.4375  1.6679
  104SAPE  C21510622   0.331  -0.598   4.399 -0.5677  0.6167 -0.3499
  104SAPE  H15R10623   0.255  -0.538   4.451 -0.1228  0.7689  0.1399
  104SAPE  C21610624   0.393  -0.702   4.493 -0.1483  0.7177  0.8136
  104SAPE  H16R10625   0.481  -0.753   4.449  0.7195  1.6674  1.4109
  104SAPE  H16S10626   0.315  -0.776   4.521 -2.7934  3.1898  0.4530
  104SAPE  C21710627   0.461  -0.652   4.624  0.2127 -0.1316  0.1061
  104SAPE  H17R10628   0.461  -0.742   4.690 -1.0285 -0.9939 -1.0150
  104SAPE  H17S10629   0.394  -0.583   4.678 -0.7997 -1.2167  0.2773
  104SAPE  C21810630   0.601  -0.598   4.611  0.0894  0.7179 -0.2118
  104SAPE  H18R10631   0.611  -0.510   4.545  1.9049  1.4967  1.0309
  104SAPE  H18S10632   0.658  -0.684   4.569 -1.0997  1.2844 -3.2292
  104SAPE  C21910633   0.660  -0.580   4.751  0.0201 -0.0706 -0.1409
  104SAPE  H19R10634   0.770  -0.599   4.751 -0.1614 -1.2241 -1.0148
  104SAPE  H19S10635   0.616  -0.656   4.819 -0.1345  1.4419  1.5429
  104SAPE  C22010636   0.650  -0.439   4.813 -0.3941  1.1534 -0.0638
  104SAPE  H20R10637   0.544  -0.407   4.799 -0.9115 -0.2519  0.4143
  104SAPE  H20S10638   0.712  -0.371   4.752  1.6179 -1.4343 -1.0958
  104SAPE  H20T10639   0.682  -0.431   4.919  0.3175  0.1241 -0.1843
  104SAPE   C3310640   0.891  -0.177   3.498 -0.6494 -0.2313  0.0200
  104SAPE   H3X10641   0.983  -0.125   3.532 -0.3654  1.7545 -3.3449
  104SAPE   H3Y10642   0.910  -0.205   3.392 -0.6641 -0.2876  0.0321
  104SAPE   C3410643   0.880  -0.310   3.579  0.1813  0.4541  0.0230
  104SAPE   H4X10644   0.976  -0.361   3.557 -0.4138 -0.9143  0.4668
  104SAPE   H4Y10645   0.798  -0.375   3.540  0.9321 -0.9823  0.7386
  104SAPE   C3510646   0.857  -0.279   3.724 -0.3015 -0.0594 -0.1753
  104SAPE   H5X10647   0.771  -0.210   3.734 -1.2228 -1.0996 -0.6374
  104SAPE   H5Y10648   0.944  -0.219   3.756  0.3998 -1.1629  0.0670
  104SAPE   C3610649   0.842  -0.406   3.813 -0.5346 -0.4601 -0.5401
  104SAPE   H6X10650   0.892  -0.494   3.767 -0.4344 -0.0909 -1.1472
  104SAPE   H6Y10651   0.732  -0.421   3.811 -0.8675  1.5272 -3.0930
  104SAPE   C3710652   0.892  -0.386   3.959  0.1104 -1.1344 -0.0526
  104SAPE   H7X10653   0.844  -0.296   4.003  0.9402 -0.2828 -0.8328
  104SAPE   H7Y10654   0.998  -0.352   3.957 -0.1687 -0.1966  0.4007
  104SAPE   C3810655   0.872  -0.506   4.048  0.2270 -0.2684  0.2017
  104SAPE   H8X10656   0.893  -0.597   3.988  0.0755  0.3766 -0.8504
  104SAPE   H8Y10657   0.763  -0.509   4.068 -0.1437  1.9911 -1.2037
  104SAPE   C3910658   0.947  -0.503   4.182  0.2893  0.1446  0.0255
  104SAPE   H9X10659   0.909  -0.419   4.243 -0.2910  1.4128 -1.9630
  104SAPE   H9Y10660   1.055  -0.482   4.162  0.6514 -0.8061  0.9076
  104SAPE  C31010661   0.929  -0.638   4.259 -0.3466 -0.0320 -0.4015
  104SAPE  H10X10662   0.970  -0.716   4.192  3.0679  2.3015 -1.2898
  104SAPE  H10Y10663   0.820  -0.657   4.272 -0.2438  0.3752  1.2557
  104SAPE  C31110664   0.996  -0.635   4.395 -0.4316 -0.5851  0.0420
  104SAPE  H11X10665   0.951  -0.554   4.457  0.2513 -0.8558  0.9015
  104SAPE  H11Y10666   1.100  -0.605   4.369 -0.1766 -0.6456  0.9682
  104SAPE  C31210667   0.993  -0.776   4.458  0.1057  1.1404 -0.2620
  104SAPE  H12X10668   1.015  -0.842   4.372  0.8535  2.0842 -0.8093
  104SAPE  H12Y10669   0.892  -0.801   4.499 -0.5249  3.9149  0.0898
  104SAPE  C31310670   1.098  -0.805   4.576  0.8069 -0.6356  0.4241
  104SAPE  H13X10671   1.074  -0.750   4.670  1.1304  0.1318  0.0628
  104SAPE  H13Y10672   1.199  -0.769   4.550  1.5259 -1.1441  2.3496
  104SAPE  C31410673   1.121  -0.954   4.584  0.0380  0.6921 -0.0283
  104SAPE  H14X10674   1.150  -0.998   4.486 -1.8980  0.4725 -0.5543
  104SAPE  H14Y10675   1.035  -1.009   4.628  0.0276  1.0883  0.4575
  104SAPE  C31510676   1.246  -0.991   4.669  0.6691 -0.0332 -0.1411
  104SAPE  H15X10677   1.224  -0.967   4.776  0.6699  2.3278 -0.5992
  104SAPE  H15Y10678   1.330  -0.926   4.635  0.5816 -0.4046 -1.0766
  104SAPE  C31610679   1.289  -1.139   4.660  0.0512  0.4736  0.0296
  104SAPE  H16X10680   1.284  -1.174   4.554  0.8032 -1.7075  0.6487
  104SAPE  H16Y10681   1.220  -1.206   4.715 -1.8051  1.5248 -0.9547
  104SAPE  C31710682   1.431  -1.168   4.709  0.0508  0.0193  0.0349
  104SAPE  H17X10683   1.440  -1.130   4.813  2.3275  0.5756 -0.3158
  104SAPE  H17Y10684   1.494  -1.099   4.648 -3.2953  3.3732 -0.0428
  104SAPE  C31810685   1.468  -1.316   4.695 -0.1336  0.6490 -0.2622
  104SAPE  H18X10686   1.392  -1.388   4.732  0.2445  0.6107  0.4417
  104SAPE  H18Y10687   1.555  -1.325   4.764  1.5944  1.0046 -2.2691
  104SAPE  H18Z10688   1.497  -1.345   4.592 -2.2002 -0.7820 -0.4922
  105SAPE     N10689   2.958   3.029   2.271  0.1413  0.1632 -0.2325
  105SAPE   HN110690   3.047   3.047   2.322 -1.1069 -0.4970  2.3208
  105SAPE   HN210691   2.887   3.000   2.341  1.7336 -2.3190  0.4939
  105SAPE   HN310692   2.975   2.940   2.219  2.6494 -0.4427  1.4069
  105SAPE   C1210693   2.907   3.154   2.208  1.1020 -0.7584 -0.2057
  105SAPE  H12A10694   2.846   3.128   2.119 -2.0215 -1.4012  1.9389
  105SAPE  H12B10695   2.997   3.216   2.188  0.7441 -0.1774 -0.0278
  105SAPE   C1110696   2.819   3.236   2.307 -0.0650 -0.1700  0.4174
  105SAPE  H11A10697   2.770   3.319   2.253  0.2221  0.0879  0.5498
  105SAPE  H11B10698   2.885   3.276   2.387 -0.0745  2.7730 -0.9311
  105SAPE     P10699   2.565   3.186   2.372  0.0893  0.2704  0.2895
  105SAPE   O1310700   2.545   3.320   2.315  0.1753  0.3149  0.0848
  105SAPE   O1410701   2.481   3.075   2.322 -0.0899 -0.2133 -0.1318
  105SAPE   O1210702   2.721   3.155   2.364  0.4325  0.1673 -0.1896
  105SAPE   O1110703   2.526   3.198   2.522  0.0295  0.2016 -0.5180
  105SAPE    C110704   2.628   3.213   2.626 -0.4497 -0.6863  0.0016
  105SAPE    HA10705   2.701   3.292   2.600 -1.1681  0.6022  1.7208
  105SAPE    HB10706   2.585   3.240   2.725  2.6699 -1.6491  1.7558
  105SAPE    C210707   2.703   3.080   2.660  0.2681 -0.4810  0.7890
  105SAPE    HS10708   2.727   3.017   2.572  0.7243 -0.7741  1.1123
  105SAPE   O2110709   2.616   3.012   2.745 -0.7563  0.0802  0.0654
  105SAPE   C2110710   2.644   2.877   2.763  0.6639 -0.3743 -0.2454
  105SAPE   O2210711   2.730   2.813   2.703  0.1325 -0.5227  0.4093
  105SAPE   C2210712   2.548   2.819   2.866  0.2510  0.8232 -0.2262
  105SAPE   H2R10713   2.492   2.744   2.807  1.3214 -0.7627  0.6798
  105SAPE   H2S10714   2.619   2.750   2.917  1.9401  0.7260 -2.5646
  105SAPE    C310715   2.835   3.114   2.735 -0.7827  0.1682 -0.2478
  105SAPE    HX10716   2.889   3.167   2.654 -1.3489 -0.1051 -0.8142
  105SAPE    HY10717   2.888   3.024   2.774 -1.0169  0.7170  1.4141
  105SAPE   O3110718   2.808   3.193   2.853  0.1821  0.1184  0.3159
  105SAPE   C3110719   2.909   3.266   2.894 -0.5403  0.1311  0.5228
  105SAPE   O3210720   3.015   3.289   2.833 -0.3658 -0.3556  0.0713
  105SAPE   C3210721   2.895   3.317   3.035  0.2794  0.5163 -0.0424
  105SAPE   H2X10722   2.817   3.257   3.086  0.2255 -0.2663 -1.0278
  105SAPE   H2Y10723   2.866   3.424   3.025  0.3900  0.7597  1.8452
  105SAPE   C2310724   2.457   2.907   2.955  0.1739  0.2694  0.5684
  105SAPE   H3R10725   2.408   2.995   2.906  1.2910  1.2802  1.2179
  105SAPE   H3S10726   2.507   2.955   3.042 -1.7022  2.1675  0.7020
  105SAPE   C2410727   2.347   2.818   3.018  0.3266 -0.2405  0.4209
  105SAPE   H4R10728   2.277   2.788   2.938 -1.5981 -1.4193  2.4315
  105SAPE   H4S10729   2.298   2.890   3.087 -1.9142 -0.0595 -1.2435
  105SAPE   C2510730   2.410   2.705   3.097 -0.0808 -0.6259 -0.9535
  105SAPE   H5R10731   2.497   2.654   3.054  0.5109  2.3213 -3.6264
  105SAPE   C2610732   2.402   2.701   3.234 -0.3817 -0.3413  0.3921
  105SAPE   H6R10733   2.461   2.623   3.285  3.2534  1.1801 -1.1097
  105SAPE   C2710734   2.314   2.781   3.331  0.8911 -0.2387 -0.0844
  105SAPE   H7R10735   2.241   2.708   3.373  1.2069 -1.0460 -0.9024
  105SAPE   H7S10736   2.250   2.854   3.277  0.3402 -0.1197  0.6974
  105SAPE   C2810737   2.406   2.843   3.428 -0.0420  0.1109  0.0572
  105SAPE   H8R10738   2.448   2.938   3.392  2.5950 -1.5168 -1.4684
  105SAPE   C2910739   2.423   2.810   3.559  0.4999  0.2118 -0.5051
  105SAPE   H9R10740   2.493   2.866   3.623 -0.6173  0.5597  0.4508
  105SAPE  C21010741   2.351   2.705   3.643  0.1273 -0.0501 -0.5995
  105SAPE  H10R10742   2.312   2.635   3.567 -0.9406  1.8997 -1.9324
  105SAPE  H10S10743   2.268   2.751   3.701  1.4009 -1.0874  2.2281
  105SAPE  C21110744   2.445   2.635   3.734  0.1222 -0.6874 -0.2846
  105SAPE  H11R10745   2.498   2.554   3.681  0.7930 -0.2064 -0.3719
  105SAPE  C21210746   2.464   2.650   3.868 -0.1348 -0.1932 -0.6717
  105SAPE  H12R10747   2.548   2.599   3.918 -1.0928  0.2557  1.5074
  105SAPE  C21310748   2.408   2.768   3.954  0.1817  0.2311  0.0162
  105SAPE  H13R10749   2.415   2.862   3.896 -2.3430  0.7729  0.4648
  105SAPE  H13S10750   2.475   2.765   4.043  0.6884  0.3467 -0.3587
  105SAPE  C21410751   2.266   2.765   3.995  1.0135  0.7811  0.0149
  105SAPE  H14R10752   2.211   2.840   3.937  1.9318 -0.9196 -3.2858
  105SAPE  C21510753   2.200   2.698   4.095  0.7348 -0.0071 -0.2917
  105SAPE  H15R10754   2.092   2.718   4.095  1.3060  3.6765  0.1805
  105SAPE  C21610755   2.265   2.610   4.198 -0.4099  0.0902  0.2685
  105SAPE  H16R10756   2.353   2.667   4.236 -0.1124 -0.4468  0.4041
  105SAPE  H16S10757   2.307   2.521   4.144 -0.6477  0.2922 -0.2588
  105SAPE  C21710758   2.182   2.563   4.315  0.0393  0.7693  0.6424
  105SAPE  H17R10759   2.132   2.468   4.288  1.5245 -0.2266  1.3192
  105SAPE  H17S10760   2.101   2.638   4.334 -1.2073 -0.5937  0.8810
  105SAPE  C21810761   2.258   2.547   4.440 -0.0762 -0.4406 -0.0236
  105SAPE  H18R10762   2.330   2.630   4.456 -0.7558 -0.0370  1.0698
  105SAPE  H18S10763   2.323   2.456   4.436  0.4032 -0.3517  3.2691
  105SAPE  C21910764   2.169   2.529   4.560 -0.5547 -0.5664 -0.1267
  105SAPE  H19R10765   2.108   2.621   4.573 -1.5564 -0.8437 -2.3588
  105SAPE  H19S10766   2.223   2.530   4.656 -3.5835  1.3627  1.7337
  105SAPE  C22010767   2.075   2.404   4.564  0.3838  0.0046  0.0710
  105SAPE  H20R10768   1.988   2.409   4.494  0.0666 -3.3446  0.0484
  105SAPE  H20S10769   2.029   2.387   4.664 -0.5408  2.7379  0.1984
  105SAPE  H20T10770   2.128   2.310   4.537 -0.2146 -0.4355  0.3917
  105SAPE   C3310771   3.025   3.317   3.112 -0.0036 -0.1691  0.0211
  105SAPE   H3X10772   3.094   3.393   3.069  0.1345 -0.3812 -0.1340
  105SAPE   H3Y10773   3.071   3.216   3.110 -2.2330 -1.2756  0.8323
  105SAPE   C3410774   3.023   3.358   3.263 -0.4724  0.2865 -0.1031
  105SAPE   H4X10775   2.948   3.293   3.314 -1.0892  2.2819  1.6700
  105SAPE   H4Y10776   2.987   3.462   3.274 -1.4794 -0.1408  0.8227
  105SAPE   C3510777   3.163   3.345   3.334 -0.2115 -0.1788 -0.0319
  105SAPE   H5X10778   3.223   3.424   3.284  1.4349  1.2136  3.7396
  105SAPE   H5Y10779   3.212   3.245   3.332 -0.7426 -0.5438  2.0474
  105SAPE   C3610780   3.158   3.386   3.484 -0.1806  0.4276  0.3670
  105SAPE   H6X10781   3.085   3.328   3.545 -1.5030  0.2780 -1.2875
  105SAPE   H6Y10782   3.118   3.490   3.476 -2.8902 -0.5152  0.6821
  105SAPE   C3710783   3.292   3.380   3.551  0.3016  0.3196 -0.2599
  105SAPE   H7X10784   3.368   3.425   3.483  3.1279 -0.1508  2.3663
  105SAPE   H7Y10785   3.324   3.274   3.564  1.4811  0.8603  1.6029
  105SAPE   C3810786   3.304   3.457   3.683 -0.4545 -0.1877  0.2738
  105SAPE   H8X10787   3.237   3.407   3.757  1.4783 -3.8075 -0.2007
  105SAPE   H8Y10788   3.270   3.562   3.668  0.9424 -0.0226 -2.2094
  105SAPE   C3910789   3.446   3.457   3.740  0.1251  0.0704  0.0066
  105SAPE   H9X10790   3.507   3.509   3.664  0.3290 -0.5648 -0.2711
  105SAPE   H9Y10791   3.495   3.358   3.738  4.0195  1.8192 -2.1018
  105SAPE  C31010792   3.465   3.527   3.878 -0.2234 -0.2047 -0.2805
  105SAPE  H10X10793   3.371   3.577   3.910 -0.2199 -1.4719  1.9127
  105SAPE  H10Y10794   3.543   3.606   3.872 -0.8776  0.6698  1.9066
  105SAPE  C31110795   3.501   3.414   3.983 -0.0175  0.8629  0.8411
  105SAPE  H11X10796   3.610   3.395   3.977  0.2978  2.5160  0.8625
  105SAPE  H11Y10797   3.450   3.318   3.960  1.8277  0.1425 -0.5191
  105SAPE  C31210798   3.468   3.454   4.122  0.5212  0.3506 -0.5369
  105SAPE  H12X10799   3.378   3.518   4.119  0.4451  0.2142 -1.3479
  105SAPE  H12Y10800   3.545   3.523   4.164 -0.7895  1.2684  0.4424
  105SAPE  C31310801   3.445   3.328   4.213 -0.2469 -0.9737 -0.3531
  105SAPE  H13X10802   3.538   3.267   4.217 -1.9235 -3.7611 -1.0954
  105SAPE  H13Y10803   3.377   3.258   4.161  1.4796 -0.8032 -3.0024
  105SAPE  C31410804   3.392   3.365   4.345  0.1630 -0.1280 -0.0399
  105SAPE  H14X10805   3.356   3.277   4.402 -0.1277 -0.0567 -0.1133
  105SAPE  H14Y10806   3.292   3.413   4.342 -0.0416 -0.4805  0.7807
  105SAPE  C31510807   3.493   3.441   4.431 -0.9227 -0.4547  0.5092
  105SAPE  H15X10808   3.540   3.527   4.378 -1.4137  0.5880  1.6956
  105SAPE  H15Y10809   3.567   3.360   4.449 -0.9421 -0.1452  2.1724
  105SAPE  C31610810   3.438   3.495   4.561 -0.0883  0.1269  0.4677
  105SAPE  H16X10811   3.428   3.412   4.633 -1.0415 -0.3029 -0.1405
  105SAPE  H16Y10812   3.341   3.536   4.526  0.4485  0.3644 -0.8219
  105SAPE  C31710813   3.515   3.621   4.608 -0.7243 -0.2939 -0.5869
  105SAPE  H17X10814   3.523   3.697   4.527  1.7089 -1.9112 -2.0106
  105SAPE  H17Y10815   3.618   3.582   4.626 -0.9082  0.1455  1.8040
  105SAPE  C31810816   3.454   3.666   4.732  0.2948  0.6230  0.4455
  105SAPE  H18X10817   3.527   3.734   4.781  1.5868 -0.4757  0.0902
  105SAPE  H18Y10818   3.443   3.569   4.785  2.7407  0.2164  0.2883
  105SAPE  H18Z10819   3.350   3.705   4.722 -0.4669 -1.4126 -0.0608
  106SAPE     N10820   4.415   0.948   2.253  0.2557 -0.2410  0.1587
  106SAPE   HN110821   4.419   0.878   2.176  0.5143  0.0915 -0.1313
  106SAPE   HN210822   4.345   0.917   2.324  0.3601 -1.5224 -0.2676
  106SAPE   HN310823   4.403   1.043   2.214  0.8825 -0.9439 -1.8408
  106SAPE   C1210824   4.543   0.952   2.324  0.1348  0.2104  0.3629
  106SAPE  H12A10825   4.584   1.055   2.329  0.5346  0.2351 -2.0515
  106SAPE  H12B10826   4.621   0.901   2.263  1.9526  0.5268  2.2838
  106SAPE   C1110827   4.537   0.904   2.467 -0.3505 -0.5051  0.4233
  106SAPE  H11A10828   4.637   0.915   2.514  0.5383  1.7838 -1.7431
  106SAPE  H11B10829   4.508   0.797   2.463  0.4565 -0.7025 -0.8282
  106SAPE     P10830   4.463   1.131   2.602 -0.1281 -0.3043 -0.1376
  106SAPE   O1310831   4.586   1.199   2.558 -0.0551 -0.7483  0.3275
  106SAPE   O1410832   4.335   1.207   2.590 -0.3666 -0.1430 -0.5199
  106SAPE   O1210833   4.436   0.987   2.533  0.0250  0.0502 -0.2595
  106SAPE   O1110834   4.476   1.097   2.751 -0.3328  0.0042 -0.1005
  106SAPE    C110835   4.384   1.017   2.827  0.5956  0.3400 -0.0682
  106SAPE    HA10836   4.292   1.076   2.850  0.3236 -0.8974  2.3810
  106SAPE    HB10837   4.354   0.917   2.790 -2.8012  0.4336  1.9859
  106SAPE    C210838   4.445   0.964   2.967 -0.2987 -0.9167  0.4040
  106SAPE    HS10839   4.511   0.878   2.945 -0.6709 -1.4025  1.1239
  106SAPE   O2110840   4.341   0.932   3.058  0.1246  0.5222 -0.4837
  106SAPE   C2110841   4.341   0.810   3.104 -0.2127  0.5093 -0.2510
  106SAPE   O2210842   4.415   0.713   3.080 -0.7072 -0.0446 -0.4058
  106SAPE   C2210843   4.226   0.804   3.198  0.9176  0.1640 -0.3883
  106SAPE   H2R10844   4.207   0.898   3.254 -0.7083  0.1299 -0.8534
  106SAPE   H2S10845   4.139   0.795   3.130  0.6018  2.6090 -0.4062
  106SAPE    C310846   4.537   1.070   3.036  0.2386  0.4544 -0.6265
  106SAPE    HX10847   4.465   1.148   3.066  0.7389  0.0085  1.9630
  106SAPE    HY10848   4.604   1.112   2.957 -0.8601  2.5470 -0.5108
  106SAPE   O3110849   4.596   1.004   3.151  0.7247 -0.0259  0.2160
  106SAPE   C3110850   4.648   1.078   3.248  0.1401 -0.6732  0.2666
  106SAPE   O3210851   4.652   1.198   3.240 -0.1844  0.0059  0.6421
  106SAPE   C3210852   4.689   1.001   3.375  0.5946  0.7221  0.1628
  106SAPE   H2X10853   4.757   1.069   3.430  0.8991  1.6545 -1.2931
  106SAPE   H2Y10854   4.735   0.904   3.347  0.7160  0.5886  0.8153
  106SAPE   C2310855   4.237   0.679   3.286  0.4368  0.0840 -0.6961
  106SAPE   H3R10856   4.328   0.682   3.350 -0.5100 -2.8262  1.0082
  106SAPE   H3S10857   4.239   0.581   3.232  1.0289 -0.3938  0.1566
  106SAPE   C2410858   4.111   0.665   3.379 -0.1092  0.1987 -0.3065
  106SAPE   H4R10859   4.019   0.654   3.318  0.1339 -0.6297 -0.5415
  106SAPE   H4S10860   4.107   0.762   3.433  1.1593  0.3394 -0.4187
  106SAPE   C2510861   4.117   0.555   3.479  0.4616  0.6012 -0.6043
  106SAPE   H5R10862   4.073   0.457   3.453  0.1239 -0.3072  2.9128
  106SAPE   C2610863   4.162   0.567   3.606 -0.3814  0.6425 -0.6018
  106SAPE   H6R10864   4.160   0.479   3.673  1.7909  1.0892  0.1355
  106SAPE   C2710865   4.237   0.685   3.663 -0.2738 -0.1780  0.2948
  106SAPE   H7R10866   4.260   0.766   3.591 -0.2309 -0.4811 -0.0318
  106SAPE   H7S10867   4.331   0.634   3.694 -1.1641 -3.0092 -1.3435
  106SAPE   C2810868   4.165   0.737   3.783 -0.2418  0.3063  0.5417
  106SAPE   H8R10869   4.092   0.814   3.756  0.6196  1.0364  0.2355
  106SAPE   C2910870   4.176   0.698   3.911  0.0863  0.1043 -0.4504
  106SAPE   H9R10871   4.106   0.736   3.987  0.0065  0.6620 -0.8072
  106SAPE  C21010872   4.290   0.607   3.969  0.4923 -0.7703  0.1898
  106SAPE  H10R10873   4.359   0.669   4.031 -1.5993  2.8749 -0.8332
  106SAPE  H10S10874   4.348   0.557   3.889 -0.3029 -0.3839 -0.6394
  106SAPE  C21110875   4.222   0.499   4.047 -0.4478 -0.2370 -0.2946
  106SAPE  H11R10876   4.155   0.431   3.992  1.3066 -1.7236 -0.6810
  106SAPE  C21210877   4.241   0.465   4.178 -0.3066 -0.5633  0.6281
  106SAPE  H12R10878   4.196   0.366   4.197  0.2711 -0.8576  0.5089
  106SAPE  C21310879   4.328   0.527   4.276 -0.9290 -0.4046 -0.4375
  106SAPE  H13R10880   4.421   0.565   4.228 -1.3964 -1.0123 -1.8748
  106SAPE  H13S10881   4.375   0.452   4.344  0.8684 -0.5298 -1.7352
  106SAPE  C21410882   4.255   0.634   4.355 -0.7347  0.0893  0.2882
  106SAPE  H14R10883   4.147   0.617   4.361 -0.8250  0.4410 -0.2544
  106SAPE  C21510884   4.300   0.750   4.406  1.4892  0.3548  0.0581
  106SAPE  H15R10885   4.223   0.818   4.445  1.3822  1.7469 -2.4328
  106SAPE  C21610886   4.444   0.790   4.414  0.3302 -0.3569  0.3368
  106SAPE  H16R10887   4.459   0.872   4.341 -0.2267  1.0166  1.7087
  106SAPE  H16S10888   4.510   0.703   4.391  0.4768 -0.3405  0.6949
  106SAPE  C21710889   4.471   0.836   4.562 -0.3197 -0.3368 -0.0099
  106SAPE  H17R10890   4.412   0.773   4.632 -1.3216  0.7965  0.2065
  106SAPE  H17S10891   4.439   0.941   4.583  0.7634  0.3738 -1.6615
  106SAPE  C21810892   4.623   0.832   4.584 -0.2250 -0.2904 -0.0735
  106SAPE  H18R10893   4.674   0.876   4.496  1.5505 -1.5886  0.2556
  106SAPE  H18S10894   4.645   0.725   4.564 -1.1061 -0.9296  2.0406
  106SAPE  C21910895   4.659   0.897   4.714 -0.6067  0.1112 -0.5974
  106SAPE  H19R10896   4.578   0.864   4.783 -2.0556 -1.6565 -2.9885
  106SAPE  H19S10897   4.655   1.008   4.717 -0.5423  0.1238  2.5204
  106SAPE  C22010898   4.794   0.857   4.764 -0.3035  0.3221  0.7526
  106SAPE  H20R10899   4.803   0.752   4.799  0.5961  0.2543  0.3281
  106SAPE  H20S10900   4.822   0.924   4.848  3.1545  0.4783 -0.3932
  106SAPE  H20T10901   4.877   0.872   4.693  0.7248 -2.8495  1.1230
  106SAPE   C3310902   4.559   0.961   3.458 -0.6575  0.3128 -0.0866
  106SAPE   H3X10903   4.484   0.910   3.394  0.6032 -0.1750 -1.2149
  106SAPE   H3Y10904   4.510   1.048   3.505 -1.0981  0.9070 -1.5900
  106SAPE   C3410905   4.592   0.861   3.575  0.2550  0.2193  0.8460
  106SAPE   H4X10906   4.615   0.758   3.539  1.9898  0.0417  2.3465
  106SAPE   H4Y10907   4.493   0.849   3.624 -0.8449  1.7908 -0.8081
  106SAPE   C3510908   4.690   0.915   3.674 -0.2787  0.2916 -0.8792
  106SAPE   H5X10909   4.650   1.009   3.718  2.2011  0.5685  0.9857
  106SAPE   H5Y10910   4.788   0.926   3.623  0.3771  0.8970  0.4686
  106SAPE   C3610911   4.696   0.806   3.786 -0.1964 -0.7018 -0.4268
  106SAPE   H6X10912   4.722   0.710   3.737  1.5881 -1.2276  1.4062
  106SAPE   H6Y10913   4.594   0.813   3.830 -0.0705 -0.1732 -0.2097
  106SAPE   C3710914   4.801   0.852   3.883 -0.4027 -0.1363 -0.9074
  106SAPE   H7X10915   4.766   0.950   3.923 -1.1487 -1.1990  1.2262
  106SAPE   H7Y10916   4.895   0.855   3.824 -0.4237 -2.2367 -1.1284
  106SAPE   C3810917   4.826   0.768   4.007  0.6470 -0.5730 -0.1405
  106SAPE   H8X10918   4.844   0.663   3.976 -1.5421 -0.6614 -1.2559
  106SAPE   H8Y10919   4.731   0.766   4.064  0.8394 -2.9746  0.1926
  106SAPE   C3910920   4.937   0.817   4.090  0.1144  0.6754 -0.2212
  106SAPE   H9X10921   4.915   0.920   4.126 -2.6498  0.5844 -1.3590
  106SAPE   H9Y10922   5.032   0.824   4.034  0.6584 -0.1169  0.5822
  106SAPE  C31010923   4.949   0.724   4.201 -0.4568  0.2011 -0.0898
  106SAPE  H10X10924   5.002   0.632   4.170 -1.0818  0.1464 -1.0310
  106SAPE  H10Y10925   4.847   0.685   4.223 -0.2416 -0.4282 -0.1925
  106SAPE  C31110926   5.018   0.760   4.335  0.1342 -0.2836 -0.6252
  106SAPE  H11X10927   4.964   0.847   4.379  1.8931  1.2337 -1.3441
  106SAPE  H11Y10928   5.120   0.792   4.306  0.1015 -0.0895 -0.5255
  106SAPE  C31210929   5.029   0.641   4.437  0.6042 -0.2126  0.1655
  106SAPE  H12X10930   4.937   0.580   4.428  1.1316 -0.9534 -0.3792
  106SAPE  H12Y10931   5.041   0.676   4.542 -1.8798 -1.2063  0.8546
  106SAPE  C31310932   5.144   0.537   4.412  0.4629  0.4373  0.1539
  106SAPE  H13X10933   5.134   0.491   4.311  0.5053  0.2507  0.2341
  106SAPE  H13Y10934   5.127   0.456   4.486 -1.9709 -0.4524 -1.2825
  106SAPE  C31410935   5.287   0.586   4.438 -0.1052 -0.1130  0.4972
  106SAPE  H14X10936   5.313   0.650   4.351 -0.4076  0.4725  0.8253
  106SAPE  H14Y10937   5.354   0.498   4.438 -2.5892 -2.1277 -0.3335
  106SAPE  C31510938   5.322   0.655   4.566  0.1189  0.2352 -0.4668
  106SAPE  H15X10939   5.275   0.751   4.594 -0.8199  0.1412 -1.6258
  106SAPE  H15Y10940   5.432   0.673   4.565  0.0362  0.8344  0.7305
  106SAPE  C31610941   5.301   0.555   4.687 -0.0524  0.3573 -0.0034
  106SAPE  H16X10942   5.363   0.466   4.663 -0.6483 -0.4884  1.3964
  106SAPE  H16Y10943   5.195   0.520   4.680 -0.0979  0.7742 -1.8787
  106SAPE  C31710944   5.341   0.603   4.827 -0.1406  0.4678  0.0293
  106SAPE  H17X10945   5.270   0.681   4.862 -1.2304 -0.6348  0.3247
  106SAPE  H17Y10946   5.438   0.657   4.817  0.8295 -0.9343  1.4472
  106SAPE  C31810947   5.338   0.493   4.932  0.4996  0.1920 -0.0038
  106SAPE  H18X10948   5.373   0.543   5.025 -0.6536  1.5517 -0.2741
  106SAPE  H18Y10949   5.413   0.415   4.908  1.9313  1.5899 -0.2296
  106SAPE  H18Z10950   5.235   0.452   4.933  0.2994  0.6979  0.8399
  107SAPE     N10951   2.101   4.281   2.722  0.2450  0.2371 -0.4241
  107SAPE   HN110952   2.179   4.348   2.740 -0.6549  1.9271 -2.4126
  107SAPE   HN210953   2.141   4.186   2.709  0.3871  0.3573 -0.8704
  107SAPE   HN310954   2.053   4.320   2.639 -1.3014  1.5149  0.9953
  107SAPE   C1210955   2.002   4.282   2.833 -0.3726 -0.7077 -0.3995
  107SAPE  H12A10956   1.954   4.382   2.841 -0.8712 -1.0424  1.1571
  107SAPE  H12B10957   2.043   4.246   2.929 -2.2116 -2.7159 -0.2996
  107SAPE   C1110958   1.888   4.187   2.802 -0.0010  0.0620  0.4943
  107SAPE  H11A10959   1.829   4.186   2.896  1.2769  0.5231  1.3161
  107SAPE  H11B10960   1.924   4.082   2.792 -0.7927 -0.0087 -2.6647
  107SAPE     P10961   1.669   4.186   2.678 -0.1359 -0.4229  0.3122
  107SAPE   O1310962   1.602   4.271   2.578 -0.3740  0.3001  0.2600
  107SAPE   O1410963   1.668   4.037   2.655  0.0333 -0.0913 -0.2445
  107SAPE   O1210964   1.817   4.231   2.687  0.0597 -0.8030  0.0004
  107SAPE   O1110965   1.607   4.218   2.815  0.2828 -0.1486 -0.2063
  107SAPE    C110966   1.577   4.345   2.859  0.0496 -0.2989 -0.1678
  107SAPE    HA10967   1.664   4.414   2.853 -0.3247  0.0624 -1.6513
  107SAPE    HB10968   1.486   4.378   2.805 -1.6860 -3.3498  0.5975
  107SAPE    C210969   1.523   4.336   3.010 -0.3991  0.2437 -0.3947
  107SAPE    HS10970   1.500   4.436   3.053  1.4642 -0.0262  1.4259
  107SAPE   O2110971   1.625   4.268   3.091 -0.1509 -0.8167 -0.1006
  107SAPE   C2110972   1.723   4.350   3.130  0.2152  0.6072 -1.0285
  107SAPE   O2210973   1.733   4.467   3.114 -0.2665 -0.4147 -0.6450
  107SAPE   C2210974   1.813   4.260   3.212  0.0133 -0.3024  0.3958
  107SAPE   H2R10975   1.753   4.226   3.299 -2.0637 -0.4948 -1.0438
  107SAPE   H2S10976   1.844   4.175   3.147 -2.8240  0.0349 -1.5724
  107SAPE    C310977   1.398   4.245   3.019  0.4206 -0.3923  0.4618
  107SAPE    HX10978   1.428   4.146   2.978 -1.4457 -1.4034  1.4176
  107SAPE    HY10979   1.310   4.274   2.959  0.3332 -1.4364  0.0648
  107SAPE   O3110980   1.354   4.237   3.159  0.3118 -0.2540  0.0513
  107SAPE   C3110981   1.349   4.113   3.207  0.8941  0.8223  0.2678
  107SAPE   O3210982   1.393   4.014   3.147  0.0449 -0.2909  0.4769
  107SAPE   C3210983   1.280   4.106   3.345 -0.6338  0.4401 -0.5226
  107SAPE   H2X10984   1.289   4.002   3.382 -0.9678  0.6200  0.0716
  107SAPE   H2Y10985   1.177   4.138   3.315 -0.5967  0.0202 -1.1191
  107SAPE   C2310986   1.945   4.318   3.273  0.3640  0.1520 -0.0184
  107SAPE   H3R10987   2.023   4.338   3.196 -0.2766 -0.1440 -0.7511
  107SAPE   H3S10988   1.995   4.241   3.335  2.3980 -0.8035 -2.6516
  107SAPE   C2410989   1.915   4.450   3.348 -0.5548  0.2781 -0.5755
  107SAPE   H4R10990   1.816   4.427   3.393 -0.6630  0.3874 -0.7578
  107SAPE   H4S10991   1.899   4.530   3.272 -2.8788 -1.1596 -1.7292
  107SAPE   C2510992   2.017   4.506   3.446 -0.7458  0.3193 -0.0139
  107SAPE   H5R10993   2.064   4.605   3.433  1.0131 -0.4124  0.4290
  107SAPE   C2610994   2.052   4.452   3.559 -0.0157 -0.0582 -0.4996
  107SAPE   H6R10995   2.128   4.494   3.626 -0.4773 -0.4220  0.2667
  107SAPE   C2710996   2.002   4.321   3.621  0.6332  0.0506 -0.1676
  107SAPE   H7R10997   2.077   4.242   3.598 -2.3510 -2.9084 -0.4256
  107SAPE   H7S10998   1.906   4.289   3.577  0.5821 -0.3168  0.1982
  107SAPE   C2810999   1.999   4.310   3.775  0.0700 -0.1014  0.4771
  107SAPE   H8R11000   1.921   4.358   3.836 -2.5804 -2.6869 -0.6264
  107SAPE   C2911001   2.084   4.239   3.852  0.1763 -0.1909 -0.1778
  107SAPE   H9R11002   2.077   4.252   3.961 -1.3313 -3.3306  0.2254
  107SAPE  C21011003   2.211   4.163   3.815  0.1661 -0.2402  0.4357
  107SAPE  H10R11004   2.209   4.138   3.707 -0.0096  0.7720  0.1941
  107SAPE  H10S11005   2.216   4.070   3.876  0.6770 -0.1734  0.4993
  107SAPE  C21111006   2.336   4.244   3.833 -0.6207 -0.6420  0.2809
  107SAPE  H11R11007   2.337   4.353   3.840  0.9877 -0.6805  1.1550
  107SAPE  C21211008   2.460   4.185   3.844 -0.1588  0.6798 -0.3277
  107SAPE  H12R11009   2.542   4.253   3.867  0.8195 -0.8101  0.7657
  107SAPE  C21311010   2.487   4.034   3.852 -0.1727  0.2440  0.0872
  107SAPE  H13R11011   2.502   3.992   3.750  1.3326 -1.5025  0.9720
  107SAPE  H13S11012   2.409   3.976   3.904 -1.2728  2.9147  1.6587
  107SAPE  C21411013   2.609   4.019   3.933 -0.3699 -1.0211  0.7942
  107SAPE  H14R11014   2.700   4.052   3.880 -1.3567  1.4795  0.5166
  107SAPE  C21511015   2.618   3.957   4.049 -0.1969  0.7148 -0.5475
  107SAPE  H15R11016   2.720   3.946   4.089  0.1878 -0.0605 -1.6724
  107SAPE  C21611017   2.513   3.906   4.147 -0.4218 -0.0160 -0.2850
  107SAPE  H16R11018   2.558   3.893   4.247 -1.5526 -1.1986  0.0981
  107SAPE  H16S11019   2.467   3.811   4.112 -0.4506  0.1615 -0.7372
  107SAPE  C21711020   2.395   4.005   4.184 -0.0178  0.3504  0.0072
  107SAPE  H17R11021   2.345   3.960   4.274  0.5629  0.1942  0.2535
  107SAPE  H17S11022   2.327   4.003   4.096  3.2948  2.6812 -2.8704
  107SAPE  C21811023   2.447   4.147   4.217  0.1356  0.2071  0.1859
  107SAPE  H18R11024   2.365   4.221   4.198  1.1499  1.2912 -0.0704
  107SAPE  H18S11025   2.530   4.181   4.153  0.9515 -0.4194  0.8979
  107SAPE  C21911026   2.487   4.171   4.366  0.6871  0.0294  0.0914
  107SAPE  H19R11027   2.561   4.093   4.397  1.5368  0.5689 -0.5374
  107SAPE  H19S11028   2.411   4.161   4.446  1.6084  3.8850  1.6685
  107SAPE  C22011029   2.547   4.313   4.377 -0.3792  0.0324  0.0375
  107SAPE  H20R11030   2.468   4.386   4.350 -0.9787 -0.3053  0.8317
  107SAPE  H20S11031   2.630   4.320   4.304 -0.5369 -1.1357 -0.2681
  107SAPE  H20T11032   2.580   4.328   4.482 -1.7840  0.3870  0.4527
  107SAPE   C3311033   1.342   4.215   3.432 -0.1018 -0.5432  0.3517
  107SAPE   H3X11034   1.272   4.257   3.507  0.1528  1.1303 -0.2956
  107SAPE   H3Y11035   1.359   4.309   3.374 -2.0502 -1.0001 -1.1036
  107SAPE   C3411036   1.474   4.168   3.499  0.0745 -0.6866 -0.6842
  107SAPE   H4X11037   1.539   4.130   3.417  2.1846 -2.0650  1.4929
  107SAPE   H4Y11038   1.450   4.083   3.566 -0.9153 -1.3756 -1.8535
  107SAPE   C3511039   1.550   4.277   3.578  0.7516 -0.0450 -0.6108
  107SAPE   H5X11040   1.577   4.362   3.512  1.6741 -2.0104 -2.9138
  107SAPE   H5Y11041   1.639   4.223   3.619 -0.7392 -3.0427 -1.0064
  107SAPE   C3611042   1.475   4.336   3.702 -0.3174  0.0200  1.2995
  107SAPE   H6X11043   1.418   4.259   3.758 -0.1149 -0.0151  1.4562
  107SAPE   H6Y11044   1.394   4.402   3.664  1.1240  0.9413 -0.3501
  107SAPE   C3711045   1.567   4.410   3.796 -0.3170 -0.5738  0.3613
  107SAPE   H7X11046   1.616   4.486   3.733  1.5080 -1.4003  0.7343
  107SAPE   H7Y11047   1.650   4.339   3.816  0.3116 -0.2171 -0.8814
  107SAPE   C3811048   1.512   4.462   3.924 -0.1463 -0.1954  0.2541
  107SAPE   H8X11049   1.470   4.379   3.985  0.9339 -0.9966 -0.0465
  107SAPE   H8Y11050   1.424   4.528   3.909 -0.5679 -0.7166  0.4178
  107SAPE   C3911051   1.616   4.527   4.023  0.5463 -0.1442  0.8169
  107SAPE   H9X11052   1.688   4.582   3.958 -1.9196  3.0803  0.5138
  107SAPE   H9Y11053   1.676   4.445   4.067  2.5249 -0.1021 -1.5753
  107SAPE  C31011054   1.559   4.615   4.127 -0.1731  0.1843  0.6365
  107SAPE  H10X11055   1.500   4.699   4.084 -0.0021 -0.5993 -1.2120
  107SAPE  H10Y11056   1.644   4.656   4.186  0.9206 -3.2018  1.6415
  107SAPE  C31111057   1.463   4.548   4.224 -0.6579 -0.1136  0.2650
  107SAPE  H11X11058   1.508   4.453   4.260  1.7994  0.8621  0.0377
  107SAPE  H11Y11059   1.363   4.528   4.181 -1.0550 -3.8539  2.5092
  107SAPE  C31211060   1.442   4.639   4.340 -0.4050 -1.0660  0.2699
  107SAPE  H12X11061   1.361   4.711   4.317 -0.0589 -1.2144 -1.6171
  107SAPE  H12Y11062   1.532   4.695   4.372 -0.7274  0.8959 -1.9606
  107SAPE  C31311063   1.388   4.569   4.465  0.0579  0.3272  0.2846
  107SAPE  H13X11064   1.471   4.503   4.496  1.3409  2.1421  0.8602
  107SAPE  H13Y11065   1.314   4.491   4.435 -0.5446  1.0243 -0.0954
  107SAPE  C31411066   1.336   4.670   4.560  0.7071 -0.0259 -0.2869
  107SAPE  H14X11067   1.253   4.731   4.519  0.4735 -0.8375 -1.0612
  107SAPE  H14Y11068   1.421   4.739   4.577  2.8206 -1.7644 -2.7676
  107SAPE  C31511069   1.297   4.615   4.697 -0.9093  0.0842  0.2625
  107SAPE  H15X11070   1.366   4.531   4.721 -0.7557  0.1412  0.0231
  107SAPE  H15Y11071   1.195   4.570   4.696  0.1809 -2.8035  2.2566
  107SAPE  C31611072   1.301   4.721   4.811  0.2916 -0.1839  0.2739
  107SAPE  H16X11073   1.233   4.806   4.794 -0.5701 -1.1105 -1.1492
  107SAPE  H16Y11074   1.402   4.762   4.834 -0.6625  2.0897  0.5811
  107SAPE  C31711075   1.251   4.655   4.939 -0.0581 -0.9587  0.1737
  107SAPE  H17X11076   1.152   4.610   4.912  0.7442 -1.0612 -2.9421
  107SAPE  H17Y11077   1.242   4.729   5.022 -3.2447  1.1888 -1.8568
  107SAPE  C31811078   1.352   4.553   4.997  0.3300 -0.0778  0.4223
  107SAPE  H18X11079   1.445   4.604   5.028  0.1280  2.1800 -2.2204
  107SAPE  H18Y11080   1.368   4.474   4.921 -0.6450  0.3243 -0.2224
  107SAPE  H18Z11081   1.307   4.508   5.088 -0.9007 -0.9029 -0.5484
  108SAPE     N11082   1.852   0.239   2.790  0.3176  0.2641  0.0307
  108SAPE   HN111083   1.830   0.324   2.735 -2.4875  0.3730  1.1311
  108SAPE   HN211084   1.810   0.259   2.884  0.2872  0.5210 -0.0358
  108SAPE   HN311085   1.953   0.217   2.802  0.6569  0.7073 -1.7473
  108SAPE   C1211086   1.789   0.119   2.719 -0.7015  0.4368  0.4484
  108SAPE  H12A11087   1.679   0.129   2.720 -0.7090  0.3091  1.2236
  108SAPE  H12B11088   1.824   0.028   2.772 -1.7965 -0.9388 -1.0823
  108SAPE   C1111089   1.829   0.100   2.576  0.0265  0.3726  1.3694
  108SAPE  H11A11090   1.788   0.177   2.507  1.4866 -1.0758 -1.2597
  108SAPE  H11B11091   1.786   0.007   2.536 -0.8517  0.0245  3.0436
  108SAPE     P11092   2.066   0.211   2.506  0.4250 -0.0208  0.3520
  108SAPE   O1311093   2.026   0.219   2.363 -0.0541 -0.0363 -0.0717
  108SAPE   O1411094   2.049   0.334   2.587  0.3608  0.4087  0.6472
  108SAPE   O1211095   1.970   0.094   2.568 -0.5796 -0.3082  0.0147
  108SAPE   O1111096   2.215   0.161   2.515  0.1578 -0.1175 -0.1321
  108SAPE    C111097   2.241   0.032   2.568  0.5526  0.2073 -0.3342
  108SAPE    HA11098   2.182  -0.054   2.529  1.2992 -0.0964 -0.8177
  108SAPE    HB11099   2.342  -0.005   2.539  0.9445 -1.7359  2.9439
  108SAPE    C211100   2.244   0.046   2.726 -0.0751  0.9932 -0.4095
  108SAPE    HS11101   2.215   0.149   2.755  0.0137  0.8171  0.3107
  108SAPE   O2111102   2.380   0.016   2.756 -0.1271 -0.3686  0.6049
  108SAPE   C2111103   2.437   0.072   2.855 -0.5784  0.5706  0.0958
  108SAPE   O2211104   2.387   0.151   2.936 -0.0716 -0.0692 -0.3175
  108SAPE   C2211105   2.579   0.003   2.864  0.3598  0.2283 -0.1280
  108SAPE   H2R11106   2.612   0.004   2.758 -2.0611  0.2800 -0.9364
  108SAPE   H2S11107   2.641   0.073   2.925  0.6733 -0.0965 -0.0736
  108SAPE    C311108   2.151  -0.066   2.784 -0.6828  0.0483  0.0155
  108SAPE    HX11109   2.191  -0.164   2.749 -1.5720 -0.6479  0.8706
  108SAPE    HY11110   2.045  -0.072   2.752 -0.3919 -1.4578 -0.7898
  108SAPE   O3111111   2.145  -0.073   2.922  0.7903  0.4050 -0.5783
  108SAPE   C3111112   2.101   0.029   2.991  0.5899 -0.3578 -0.0642
  108SAPE   O3211113   2.057   0.135   2.940  0.0881 -0.6256  0.2789
  108SAPE   C3211114   2.111  -0.015   3.133  0.1025 -0.3213  0.5245
  108SAPE   H2X11115   2.205  -0.069   3.156  0.2241  0.0862  1.0061
  108SAPE   H2Y11116   2.039  -0.096   3.155 -1.7712  1.0580 -0.2920
  108SAPE   C2311117   2.572  -0.145   2.913  0.0042 -0.7721 -0.1565
  108SAPE   H3R11118   2.668  -0.198   2.901  0.4077 -0.0827 -0.0229
  108SAPE   H3S11119   2.496  -0.190   2.845 -0.5727  1.0730 -0.7973
  108SAPE   C2411120   2.548  -0.163   3.067 -0.1770  0.4603  0.8462
  108SAPE   H4R11121   2.562  -0.272   3.082  0.1495 -0.1766 -3.0353
  108SAPE   H4S11122   2.447  -0.122   3.087 -0.7178 -0.1133 -0.5512
  108SAPE   C2511123   2.640  -0.094   3.161 -0.6343 -0.2704  0.5485
  108SAPE   H5R11124   2.673   0.003   3.122 -2.4099 -0.1043 -0.6820
  108SAPE   C2611125   2.665  -0.121   3.291 -0.1171  0.9496  0.1242
  108SAPE   H6R11126   2.734  -0.061   3.353  2.8261 -2.7678  0.8365
  108SAPE   C2711127   2.595  -0.230   3.365  0.3317  0.0042 -0.1010
  108SAPE   H7R11128   2.541  -0.305   3.304 -1.3491  0.3618  0.8776
  108SAPE   H7S11129   2.526  -0.177   3.433  0.2416  1.7166 -1.4626
  108SAPE   C2811130   2.707  -0.302   3.433  0.3415  1.1454  0.1920
  108SAPE   H8R11131   2.776  -0.348   3.361 -0.6968  1.6089 -1.1396
  108SAPE   C2911132   2.717  -0.343   3.564 -0.0821 -0.6185 -0.4199
  108SAPE   H9R11133   2.807  -0.397   3.596  0.0736  0.3814  0.9049
  108SAPE  C21011134   2.623  -0.300   3.669  0.9319 -0.2455  0.0420
  108SAPE  H10R11135   2.557  -0.214   3.641  0.7182 -0.3337  0.2640
  108SAPE  H10S11136   2.690  -0.265   3.750  1.1501 -0.5079 -0.0276
  108SAPE  C21111137   2.534  -0.413   3.724  0.1670 -0.1706 -0.4335
  108SAPE  H11R11138   2.588  -0.503   3.758  0.8297  0.3892  0.0142
  108SAPE  C21211139   2.406  -0.420   3.751 -0.0075  0.3091 -1.0899
  108SAPE  H12R11140   2.372  -0.517   3.791 -0.2177  0.5792 -0.6082
  108SAPE  C21311141   2.299  -0.315   3.714 -0.8968 -0.4889  0.5406
  108SAPE  H13R11142   2.323  -0.267   3.617  0.9887 -0.9531  0.7256
  108SAPE  H13S11143   2.304  -0.228   3.783 -1.8155 -0.1322  0.1628
  108SAPE  C21411144   2.162  -0.389   3.712  0.8249 -0.2552  0.1968
  108SAPE  H14R11145   2.153  -0.464   3.632  0.7650 -2.0031  1.7653
  108SAPE  C21511146   2.056  -0.368   3.797  0.2277 -0.2104  0.3642
  108SAPE  H15R11147   1.969  -0.434   3.797 -1.7668  2.2520  1.2061
  108SAPE  C21611148   2.041  -0.246   3.887 -0.2139  0.3744 -0.4352
  108SAPE  H16R11149   1.938  -0.205   3.878 -1.2147 -1.1358  2.4925
  108SAPE  H16S11150   2.110  -0.163   3.863  0.3283 -0.3104 -1.2813
  108SAPE  C21711151   2.047  -0.293   4.035  0.1733  0.2294 -0.0625
  108SAPE  H17R11152   2.047  -0.198   4.093 -0.0173  0.0612  0.2174
  108SAPE  H17S11153   2.146  -0.336   4.061 -0.9075 -2.2931  0.1141
  108SAPE  C21811154   1.956  -0.409   4.069  0.4223 -0.5905 -0.0665
  108SAPE  H18R11155   2.000  -0.505   4.034  0.0315 -0.4418 -1.0151
  108SAPE  H18S11156   1.853  -0.392   4.030 -0.7181 -1.2437  2.4961
  108SAPE  C21911157   1.933  -0.436   4.221 -0.4186  0.9076  0.1002
  108SAPE  H19R11158   2.016  -0.389   4.277  0.6125  0.0248 -0.6323
  108SAPE  H19S11159   1.931  -0.545   4.243  2.6283  1.1152  2.1179
  108SAPE  C22011160   1.812  -0.367   4.277  0.1335  0.2048  0.3004
  108SAPE  H20R11161   1.810  -0.386   4.387  2.0133 -0.8484  0.1958
  108SAPE  H20S11162   1.724  -0.397   4.217  1.2897  0.7288 -1.7709
  108SAPE  H20T11163   1.831  -0.258   4.264  2.3153  0.0670  1.8004
  108SAPE   C3311164   2.087   0.102   3.240  0.0371  0.5528  0.3319
  108SAPE   H3X11165   1.980   0.131   3.237 -1.3317 -3.3502 -5.4177
  108SAPE   H3Y11166   2.159   0.184   3.218  0.1049  1.1121  2.3917
  108SAPE   C3411167   2.103   0.046   3.375  0.3159  0.3253 -0.4039
  108SAPE   H4X11168   2.211   0.025   3.392 -0.3147 -2.4373  0.7688
  108SAPE   H4Y11169   2.043  -0.047   3.384 -0.0815  0.7130  1.2515
  108SAPE   C3511170   2.054   0.133   3.489  0.3661 -0.6556 -0.5986
  108SAPE   H5X11171   2.092   0.237   3.477  3.8605 -1.9648 -2.2364
  108SAPE   H5Y11172   1.943   0.131   3.480  0.3527 -3.1015 -0.4488
  108SAPE   C3611173   2.097   0.073   3.626 -0.5530 -0.3263  0.5025
  108SAPE   H6X11174   2.193   0.017   3.627 -0.7514 -0.6594  0.9768
  108SAPE   H6Y11175   2.027  -0.011   3.640  2.0036 -2.8414 -0.7722
  108SAPE   C3711176   2.081   0.162   3.741  0.6459  0.3088  0.7650
  108SAPE   H7X11177   2.143   0.254   3.730  0.7526  0.1245 -0.2803
  108SAPE   H7Y11178   2.114   0.094   3.823  0.5848 -2.1061 -1.1132
  108SAPE   C3811179   1.936   0.207   3.768  0.0923  0.1425  0.1472
  108SAPE   H8X11180   1.867   0.121   3.782 -1.3058  0.6141 -2.9664
  108SAPE   H8Y11181   1.890   0.257   3.680 -1.7643  0.3431  1.1714
  108SAPE   C3911182   1.936   0.314   3.876  0.1710 -0.8806 -0.5919
  108SAPE   H9X11183   1.833   0.356   3.869 -0.9055 -2.9156  1.6825
  108SAPE   H9Y11184   2.009   0.394   3.853 -1.5061  0.9715  0.1823
  108SAPE  C31011185   1.955   0.261   4.025  0.0727  0.0995  0.7116
  108SAPE  H10X11186   1.909   0.330   4.100 -0.7685 -0.5351  0.7945
  108SAPE  H10Y11187   2.060   0.287   4.049 -0.4965  1.5981  1.7870
  108SAPE  C31111188   1.926   0.114   4.056  0.1144 -0.0303  0.0757
  108SAPE  H11X11189   1.981   0.045   3.988  0.2923  0.3782 -0.1942
  108SAPE  H11Y11190   1.817   0.106   4.036 -0.0020  3.4264 -1.3318
  108SAPE  C31211191   1.943   0.073   4.201  0.1026  0.6638 -0.2307
  108SAPE  H12X11192   2.052   0.072   4.222 -0.1273 -0.3084  1.0735
  108SAPE  H12Y11193   1.920  -0.036   4.198  0.8944  0.5123 -1.2896
  108SAPE  C31311194   1.873   0.156   4.308  0.6025  0.8013  0.3033
  108SAPE  H13X11195   1.764   0.158   4.286 -0.0625  1.8407  3.2812
  108SAPE  H13Y11196   1.907   0.262   4.315  0.2845  0.8839  0.6457
  108SAPE  C31411197   1.874   0.088   4.445 -0.4780 -0.2632 -0.0226
  108SAPE  H14X11198   1.974   0.067   4.489  0.6395  1.1853 -1.7303
  108SAPE  H14Y11199   1.831  -0.014   4.441  1.5114 -1.1357 -0.1768
  108SAPE  C31511200   1.789   0.172   4.546  0.1810  0.2806 -0.3813
  108SAPE  H15X11201   1.688   0.188   4.502 -1.1671 -1.5712  1.7414
  108SAPE  H15Y11202   1.838   0.268   4.571  0.4699  0.1810 -0.5728
  108SAPE  C31611203   1.761   0.088   4.684 -0.1919  0.5134 -0.3204
  108SAPE  H16X11204   1.718  -0.011   4.659  2.2027 -0.2020 -1.9277
  108SAPE  H16Y11205   1.673   0.142   4.726  0.3661  0.6473  0.7055
  108SAPE  C31711206   1.869   0.080   4.785 -0.4456  0.4724 -0.0763
  108SAPE  H17X11207   1.892   0.187   4.803 -1.9657  0.6404  1.1541
  108SAPE  H17Y11208   1.954   0.023   4.743  1.1898  1.5057  1.6911
  108SAPE  C31811209   1.820   0.012   4.916  1.0754 -0.6535 -0.1911
  108SAPE  H18X11210   1.897   0.046   4.989 -0.5605 -0.1529  1.3885
  108SAPE  H18Y11211   1.835  -0.098   4.916  1.7854 -0.5666  0.4780
  108SAPE  H18Z11212   1.717   0.044   4.945  1.8437  0.6182  1.2862
  109SAPE     N11213   4.414   4.729   2.119 -0.2466 -0.3125 -0.1739
  109SAPE   HN111214   4.351   4.802   2.158  0.0781 -1.0880  1.9569
  109SAPE   HN211215   4.445   4.772   2.030 -0.8450 -0.7741 -0.6077
  109SAPE   HN311216   4.362   4.639   2.111  1.4852 -1.3435 -0.3569
  109SAPE   C1211217   4.530   4.722   2.214 -0.0965  0.6370 -0.2899
  109SAPE  H12A11218   4.602   4.660   2.156 -2.4718 -1.6500 -0.9939
  109SAPE  H12B11219   4.509   4.650   2.297  1.3184  0.3209 -0.1790
  109SAPE   C1111220   4.598   4.858   2.243  0.3245 -0.0285  0.1824
  109SAPE  H11A11221   4.613   4.919   2.151  2.5501  0.8419  1.0555
  109SAPE  H11B11222   4.699   4.835   2.284 -0.0266 -1.1953  0.4297
  109SAPE     P11223   4.418   5.029   2.314  0.1083 -0.4006  0.0238
  109SAPE   O1311224   4.492   5.131   2.239  0.0366 -0.2926 -0.3601
  109SAPE   O1411225   4.304   4.962   2.246 -0.1443 -0.0204 -0.0394
  109SAPE   O1211226   4.524   4.913   2.349 -0.0857 -0.7653 -0.1472
  109SAPE   O1111227   4.374   5.083   2.455 -0.4051 -0.7638  0.4359
  109SAPE    C111228   4.386   5.005   2.574 -0.1145  0.2717  0.2510
  109SAPE    HA11229   4.491   4.970   2.583  0.3065  1.7201  1.2893
  109SAPE    HB11230   4.377   5.072   2.662  1.9748  1.6241 -0.4895
  109SAPE    C211231   4.275   4.899   2.587 -0.1148 -0.4452  0.4234
  109SAPE    HS11232   4.279   4.846   2.490  0.2761 -1.6824  1.0880
  109SAPE   O2111233   4.146   4.959   2.608  0.1854 -0.5523  0.3513
  109SAPE   C2111234   4.046   4.894   2.573  0.0724 -0.4639  0.4083
  109SAPE   O2211235   4.046   4.783   2.519 -0.4604 -0.1673 -0.4522
  109SAPE   C2211236   3.925   4.974   2.617  0.7880 -0.1384 -0.1452
  109SAPE   H2R11237   3.959   5.071   2.661 -2.2893  0.7929  0.4063
  109SAPE   H2S11238   3.866   5.009   2.530  1.4371 -0.5689 -0.7658
  109SAPE    C311239   4.303   4.792   2.698  0.9380 -0.0204 -0.0170
  109SAPE    HX11240   4.390   4.742   2.651 -0.3730 -1.2680 -1.2082
  109SAPE    HY11241   4.211   4.729   2.700  0.9860 -0.4190 -3.5765
  109SAPE   O3111242   4.327   4.848   2.828 -0.5504 -0.9580  0.0238
  109SAPE   C3111243   4.323   4.777   2.939  0.0160  0.0332  0.3733
  109SAPE   O3211244   4.290   4.661   2.936  1.3347  0.7411  0.0765
  109SAPE   C3211245   4.356   4.867   3.056 -0.4195 -0.1015 -0.1235
  109SAPE   H2X11246   4.343   4.976   3.043 -0.7568 -0.0991  0.2362
  109SAPE   H2Y11247   4.464   4.839   3.065 -0.9263 -2.5844 -1.1609
  109SAPE   C2311248   3.840   4.896   2.719 -0.6984 -0.2563  0.1801
  109SAPE   H3R11249   3.798   4.807   2.667  3.0420 -1.4071 -1.2245
  109SAPE   H3S11250   3.751   4.955   2.749 -0.6537  0.6149 -1.3382
  109SAPE   C2411251   3.919   4.838   2.844 -0.1014 -0.6512  0.2718
  109SAPE   H4R11252   3.990   4.764   2.802  0.4453  0.7481 -1.4114
  109SAPE   H4S11253   3.851   4.786   2.914  1.5327  1.0182  3.3004
  109SAPE   C2511254   3.981   4.953   2.922 -0.1572  0.6148  0.4167
  109SAPE   H5R11255   4.073   4.996   2.878  0.0108 -0.7215 -0.5934
  109SAPE   C2611256   3.930   5.002   3.033  0.4435  0.0457  0.7408
  109SAPE   H6R11257   3.986   5.093   3.060  2.1022 -0.5655 -0.4326
  109SAPE   C2711258   3.798   4.971   3.106  0.3896 -0.2673 -0.1747
  109SAPE   H7R11259   3.719   4.929   3.039 -0.9248 -0.1571  1.2515
  109SAPE   H7S11260   3.761   5.067   3.148  1.7960 -0.3056  1.2589
  109SAPE   C2811261   3.823   4.873   3.219 -0.6177  0.8709  1.2579
  109SAPE   H8R11262   3.822   4.766   3.193 -0.5082  0.7330  1.7966
  109SAPE   C2911263   3.848   4.894   3.351 -0.1990 -0.1257 -0.7314
  109SAPE   H9R11264   3.881   4.812   3.417 -0.9097 -0.0326 -0.2534
  109SAPE  C21011265   3.855   5.029   3.419 -0.4108  0.2319 -0.0633
  109SAPE  H10R11266   3.793   5.024   3.512 -0.8880  1.1997 -0.3153
  109SAPE  H10S11267   3.792   5.102   3.365 -0.2299  0.5264  0.1225
  109SAPE  C21111268   3.994   5.084   3.436 -0.1752  0.1628 -0.8578
  109SAPE  H11R11269   4.051   5.040   3.353 -1.9427 -1.3517 -1.3597
  109SAPE  C21211270   4.054   5.150   3.541  0.8035 -0.9392  0.2539
  109SAPE  H12R11271   4.160   5.173   3.523  0.7734 -0.7871  0.2681
  109SAPE  C21311272   3.987   5.195   3.668 -0.9300 -0.2508 -0.1947
  109SAPE  H13R11273   3.884   5.233   3.652 -0.4512  0.6279 -1.4119
  109SAPE  H13S11274   4.045   5.282   3.708  1.0704 -1.1474 -0.9800
  109SAPE  C21411275   3.990   5.093   3.776  0.5471 -0.7532 -0.4356
  109SAPE  H14R11276   4.002   4.989   3.741 -0.2894 -2.3873  3.6217
  109SAPE  C21511277   3.973   5.118   3.908  0.3427 -0.1024 -0.8027
  109SAPE  H15R11278   3.957   5.035   3.979 -3.0954  1.6604  0.7429
  109SAPE  C21611279   3.931   5.258   3.957 -0.6361  0.3657 -0.2336
  109SAPE  H16R11280   3.840   5.243   4.019 -0.5313  0.2581 -0.1022
  109SAPE  H16S11281   3.909   5.336   3.882  0.5968 -0.5364 -1.5841
  109SAPE  C21711282   4.035   5.312   4.057 -0.2657 -0.3964  0.2595
  109SAPE  H17R11283   3.994   5.403   4.106  0.2343 -0.4859  0.8537
  109SAPE  H17S11284   4.137   5.312   4.012 -0.3781  0.9578 -0.0703
  109SAPE  C21811285   4.059   5.238   4.189 -0.0080  0.2420 -0.2944
  109SAPE  H18R11286   4.123   5.301   4.256 -1.1217  0.7045  0.3733
  109SAPE  H18S11287   4.096   5.135   4.172 -1.9153 -0.4330 -0.5045
  109SAPE  C21911288   3.928   5.224   4.276 -0.3949  0.4747 -0.4167
  109SAPE  H19R11289   3.848   5.162   4.230 -1.0646  1.3487 -0.4524
  109SAPE  H19S11290   3.892   5.328   4.290 -1.0043  0.0327  1.8251
  109SAPE  C22011291   3.951   5.157   4.410  0.9755 -0.0366 -0.0455
  109SAPE  H20R11292   3.863   5.183   4.472  0.2698  0.0982 -1.0874
  109SAPE  H20S11293   4.050   5.193   4.444  2.3303 -0.6196 -3.0241
  109SAPE  H20T11294   3.969   5.047   4.402 -0.6117 -0.2479 -1.2387
  109SAPE   C3311295   4.281   4.824   3.187 -0.5077 -0.0041 -0.8064
  109SAPE   H3X11296   4.295   4.716   3.212  0.6917  0.2406 -0.3669
  109SAPE   H3Y11297   4.176   4.851   3.164 -0.0610  1.8960 -0.7301
  109SAPE   C3411298   4.322   4.913   3.308  0.5818  0.4147  0.8899
  109SAPE   H4X11299   4.249   4.895   3.390 -0.5005  0.5154 -0.0240
  109SAPE   H4Y11300   4.298   5.019   3.282 -2.2685  0.3671  2.8136
  109SAPE   C3511301   4.465   4.893   3.355  0.0329 -0.1720  0.4577
  109SAPE   H5X11302   4.538   4.927   3.278  0.8722 -0.4629  1.1039
  109SAPE   H5Y11303   4.488   4.787   3.376  1.8914  0.3271  1.2224
  109SAPE   C3611304   4.512   4.969   3.478 -0.3874 -0.8721  0.0666
  109SAPE   H6X11305   4.510   5.077   3.450  0.6834 -0.4488  1.5429
  109SAPE   H6Y11306   4.614   4.948   3.515  0.1079  1.9604  0.5628
  109SAPE   C3711307   4.433   4.948   3.602  0.3424  0.0625 -0.8242
  109SAPE   H7X11308   4.436   4.839   3.625  1.1106 -0.4575 -3.1138
  109SAPE   H7Y11309   4.325   4.971   3.601  0.1377 -0.2083  2.8862
  109SAPE   C3811310   4.484   5.027   3.722 -0.1272 -0.2314  0.2157
  109SAPE   H8X11311   4.439   5.128   3.731 -1.2209 -0.8149  1.6264
  109SAPE   H8Y11312   4.595   5.036   3.723  0.0167 -1.5627  2.3347
  109SAPE   C3911313   4.456   4.954   3.859 -0.0369 -0.4374 -0.0166
  109SAPE   H9X11314   4.507   4.855   3.855 -0.6733 -0.7335 -2.0255
  109SAPE   H9Y11315   4.347   4.928   3.856  0.0558 -0.8321 -0.0478
  109SAPE  C31011316   4.498   5.036   3.980  0.0485  0.0873  0.4233
  109SAPE  H10X11317   4.457   5.139   3.984  1.9223  0.8392  2.7984
  109SAPE  H10Y11318   4.605   5.064   3.989 -0.1820  2.8409 -3.3361
  109SAPE  C31111319   4.450   4.962   4.102 -0.5476  0.0426 -0.2382
  109SAPE  H11X11320   4.518   4.879   4.130 -2.0591 -0.5140  2.0817
  109SAPE  H11Y11321   4.352   4.913   4.079  0.2857 -1.3401 -0.9764
  109SAPE  C31211322   4.410   5.049   4.221  0.0275 -0.6071 -0.5391
  109SAPE  H12X11323   4.343   5.133   4.193 -1.8191 -1.1125  2.0352
  109SAPE  H12Y11324   4.500   5.076   4.281 -0.4040 -0.5901  0.1152
  109SAPE  C31311325   4.350   4.975   4.340  0.0312  0.3885  0.3737
  109SAPE  H13X11326   4.399   4.877   4.353  0.7460  0.9094  1.7820
  109SAPE  H13Y11327   4.248   4.938   4.315  0.1112 -1.1947  2.1594
  109SAPE  C31411328   4.324   5.064   4.462  0.1036  0.2470 -0.6024
  109SAPE  H14X11329   4.256   5.146   4.431 -0.6409  0.0204  0.3639
  109SAPE  H14Y11330   4.418   5.108   4.498 -0.4539 -0.2120  1.5399
  109SAPE  C31511331   4.250   4.971   4.566  0.0794  0.0595  0.4473
  109SAPE  H15X11332   4.301   4.872   4.571 -3.5219 -1.9553  1.5298
  109SAPE  H15Y11333   4.153   4.937   4.523  2.1662 -0.5946 -4.3763
  109SAPE  C31611334   4.231   5.033   4.705 -0.0811 -0.0582  0.1379
  109SAPE  H16X11335   4.205   5.140   4.695  0.0037 -0.1563 -1.3646
  109SAPE  H16Y11336   4.324   5.035   4.766  0.4361  1.9443 -0.6388
  109SAPE  C31711337   4.133   4.962   4.794  0.3166 -0.8432  0.0556
  109SAPE  H17X11338   4.120   5.024   4.885 -0.0986  1.9359 -1.7737
  109SAPE  H17Y11339   4.174   4.864   4.827  0.7178 -0.9051 -0.6202
  109SAPE  C31811340   3.989   4.943   4.735  0.1935 -0.6087 -0.4626
  109SAPE  H18X11341   3.941   5.031   4.687  3.5915  2.0229  0.6204
  109SAPE  H18Y11342   3.928   4.926   4.826  0.6885  2.5980  0.5806
  109SAPE  H18Z11343   3.982   4.846   4.680  0.2719 -0.8229 -0.0975
  110SAPE     N11344   3.941   1.497   2.739 -0.6518 -0.2936 -0.6662
  110SAPE   HN111345   3.982   1.523   2.831  0.5699  1.6737 -1.6930
  110SAPE   HN211346   3.991   1.411   2.707  2.5189  1.2498 -0.3371
  110SAPE   HN311347   3.963   1.580   2.680 -0.1751  0.4980  0.5768
  110SAPE   C1211348   3.803   1.473   2.755 -0.0712 -0.6822  0.0300
  110SAPE  H12A11349   3.762   1.572   2.782  1.1529 -0.5493  1.5583
  110SAPE  H12B11350   3.784   1.391   2.828 -0.5907 -1.7551 -1.2587
  110SAPE   C1111351   3.754   1.424   2.613  0.6216  0.1902 -0.0899
  110SAPE  H11A11352   3.766   1.504   2.537 -1.8860  0.2918 -0.4631
  110SAPE  H11B11353   3.643   1.420   2.617  0.6232  0.9672  1.9459
  110SAPE     P11354   3.721   1.163   2.594 -0.1083  0.4884  0.2816
  110SAPE   O1311355   3.605   1.173   2.502  0.3871  0.4339  0.3382
  110SAPE   O1411356   3.809   1.042   2.583  0.4320 -0.5463 -0.0044
  110SAPE   O1211357   3.812   1.299   2.575 -0.7897 -0.0812  0.0124
  110SAPE   O1111358   3.678   1.191   2.739 -0.7026  0.0364 -0.3467
  110SAPE    C111359   3.651   1.087   2.824 -0.2192  0.4397 -0.2857
  110SAPE    HA11360   3.541   1.072   2.826 -0.2101  0.0930 -1.6363
  110SAPE    HB11361   3.695   0.988   2.797  0.0583  0.3677  0.4148
  110SAPE    C211362   3.711   1.122   2.958 -0.0605 -0.5656 -0.4951
  110SAPE    HS11363   3.678   1.224   2.988  3.5534  0.6191 -0.0801
  110SAPE   O2111364   3.857   1.121   2.957  0.2569 -0.5046 -0.5636
  110SAPE   C2111365   3.917   1.219   3.027 -0.1166 -0.2166  0.4549
  110SAPE   O2211366   3.864   1.316   3.080  0.1108 -0.1806 -0.5218
  110SAPE   C2211367   4.068   1.207   3.013 -0.2741  0.3426  0.2074
  110SAPE   H2R11368   4.085   1.104   2.974  0.0648 -0.9980  3.6009
  110SAPE   H2S11369   4.105   1.283   2.941  0.6850 -0.8909 -0.6386
  110SAPE    C311370   3.663   1.020   3.072  0.4287 -0.9919 -0.1654
  110SAPE    HX11371   3.552   1.014   3.072  0.3830 -0.2387  0.2476
  110SAPE    HY11372   3.699   0.922   3.033  2.0966 -0.9245  1.0787
  110SAPE   O3111373   3.695   1.062   3.209 -0.0520  0.1779  0.0626
  110SAPE   C3111374   3.794   0.997   3.266  0.4359 -0.2258 -0.1171
  110SAPE   O3211375   3.857   0.904   3.224  0.0739  0.2133  0.1097
  110SAPE   C3211376   3.829   1.071   3.394  0.6481 -0.5330 -0.0772
  110SAPE   H2X11377   3.739   1.124   3.432 -0.8978 -1.6140 -2.0102
  110SAPE   H2Y11378   3.901   1.153   3.373 -0.1314  0.6995  1.7929
  110SAPE   C2311379   4.149   1.215   3.141  0.0412 -0.4570  0.0950
  110SAPE   H3R11380   4.251   1.190   3.105  0.6793 -0.4609  1.8053
  110SAPE   H3S11381   4.123   1.132   3.211  1.6897 -1.3018 -0.2357
  110SAPE   C2411382   4.160   1.362   3.181  0.0502 -0.0484 -0.8375
  110SAPE   H4R11383   4.063   1.375   3.235  1.2337  0.4558  1.2709
  110SAPE   H4S11384   4.167   1.430   3.094  1.9341 -1.0455 -1.5216
  110SAPE   C2511385   4.282   1.376   3.273  0.1593  0.4004  0.1722
  110SAPE   H5R11386   4.379   1.401   3.229  0.7438 -2.3073 -0.2719
  110SAPE   C2611387   4.280   1.339   3.402 -0.4903 -0.5652 -0.3530
  110SAPE   H6R11388   4.376   1.361   3.451 -2.3679 -0.4910  3.7046
  110SAPE   C2711389   4.173   1.279   3.494 -0.5523  0.6304  0.6757
  110SAPE   H7R11390   4.181   1.168   3.494 -0.9499  0.5823 -0.5860
  110SAPE   H7S11391   4.071   1.299   3.454 -1.4362 -4.0262  0.0600
  110SAPE   C2811392   4.192   1.332   3.628 -0.5389  0.0155  0.1498
  110SAPE   H8R11393   4.142   1.429   3.638  0.7744  0.9147 -1.6217
  110SAPE   C2911394   4.273   1.269   3.723  0.1085 -0.2434  0.7536
  110SAPE   H9R11395   4.282   1.302   3.827 -1.3297 -1.3168  1.2500
  110SAPE  C21011396   4.355   1.143   3.710 -0.2541 -0.4784  0.7544
  110SAPE  H10R11397   4.462   1.171   3.715  0.1655 -1.4775 -1.4256
  110SAPE  H10S11398   4.337   1.105   3.607 -0.2888  2.1828 -0.3135
  110SAPE  C21111399   4.320   1.051   3.824  0.1018 -0.3615 -0.3594
  110SAPE  H11R11400   4.234   0.987   3.797 -0.9997  0.1309  1.8086
  110SAPE  C21211401   4.387   1.030   3.942 -0.1887  0.9813 -0.2820
  110SAPE  H12R11402   4.360   0.946   4.008  0.7462  1.2099  0.4214
  110SAPE  C21311403   4.516   1.098   3.985 -0.4305  0.3811 -0.1665
  110SAPE  H13R11404   4.579   1.146   3.906  0.3075  2.2836  1.4721
  110SAPE  H13S11405   4.571   1.015   4.033 -1.6142 -1.9349 -2.5965
  110SAPE  C21411406   4.488   1.205   4.093  0.5169 -0.1937  1.0985
  110SAPE  H14R11407   4.389   1.250   4.080 -0.2279 -1.4120  2.3247
  110SAPE  C21511408   4.564   1.223   4.203 -0.2407 -0.2235  0.4795
  110SAPE  H15R11409   4.523   1.295   4.276 -0.6488 -0.8748  0.9127
  110SAPE  C21611410   4.690   1.152   4.245  0.1427  0.1461 -0.4747
  110SAPE  H16R11411   4.782   1.196   4.200 -0.1517 -0.4255 -1.6724
  110SAPE  H16S11412   4.697   1.048   4.205  2.1945  0.9941 -2.5364
  110SAPE  C21711413   4.705   1.163   4.402  0.1850 -0.6197 -0.4490
  110SAPE  H17R11414   4.806   1.121   4.418  0.1760 -0.1853  0.8655
  110SAPE  H17S11415   4.622   1.111   4.454 -0.7856 -0.6888 -1.9951
  110SAPE  C21811416   4.726   1.311   4.448 -0.7132 -0.1011 -0.1546
  110SAPE  H18R11417   4.640   1.377   4.424 -2.0832 -1.6477  0.2727
  110SAPE  H18S11418   4.815   1.363   4.409 -0.7529  1.0225  1.1608
  110SAPE  C21911419   4.746   1.318   4.598  0.2123 -0.0814 -0.9951
  110SAPE  H19R11420   4.828   1.247   4.618 -0.4320 -0.1239  1.8526
  110SAPE  H19S11421   4.661   1.274   4.654  2.4995 -1.8335  1.3281
  110SAPE  C22011422   4.790   1.454   4.654  0.1538 -0.5483  0.8161
  110SAPE  H20R11423   4.717   1.537   4.640  0.7942  0.0669  1.0565
  110SAPE  H20S11424   4.885   1.494   4.612  0.9175 -2.2498  0.8333
  110SAPE  H20T11425   4.800   1.461   4.764  0.2999  2.9822  0.6898
  110SAPE   C3311426   3.889   0.972   3.492  0.3446  0.4312 -0.3109
  110SAPE   H3X11427   3.976   0.928   3.439  1.0613  1.1465  0.2610
  110SAPE   H3Y11428   3.809   0.898   3.513 -0.8874  1.3116 -1.6331
  110SAPE   C3411429   3.932   1.046   3.617  0.0257 -0.0674  0.0667
  110SAPE   H4X11430   3.970   1.140   3.572 -0.4214 -0.4918 -1.2246
  110SAPE   H4Y11431   4.015   0.993   3.669  0.9307  1.2643  0.0498
  110SAPE   C3511432   3.823   1.064   3.719  0.4141 -0.1897 -0.6108
  110SAPE   H5X11433   3.795   0.963   3.755  0.2891 -0.2201 -0.7920
  110SAPE   H5Y11434   3.730   1.117   3.690  0.9204  0.1691 -1.6206
  110SAPE   C3611435   3.870   1.151   3.837 -1.0689 -0.0064  0.2834
  110SAPE   H6X11436   3.789   1.208   3.885  0.2784  1.0843  1.3484
  110SAPE   H6Y11437   3.942   1.229   3.802 -0.7929  0.0246  0.9098
  110SAPE   C3711438   3.942   1.064   3.947  0.6329  0.7665  0.4396
  110SAPE   H7X11439   4.009   0.984   3.910 -1.1934 -0.4085 -0.4749
  110SAPE   H7Y11440   3.857   1.018   4.001  0.7803  0.7567  0.6646
  110SAPE   C3811441   4.004   1.155   4.050 -0.5838  0.0649  0.2866
  110SAPE   H8X11442   3.937   1.238   4.081  0.8290  0.4006  2.7541
  110SAPE   H8Y11443   4.096   1.196   4.004 -0.3618 -0.0106  0.6563
  110SAPE   C3911444   4.055   1.080   4.169 -0.1231  0.0606  0.0231
  110SAPE   H9X11445   4.101   0.984   4.136 -2.9588 -1.2514 -0.3683
  110SAPE   H9Y11446   3.965   1.051   4.227  0.9044 -0.1927  1.5485
  110SAPE  C31011447   4.154   1.150   4.261 -0.1822 -0.7140  0.0244
  110SAPE  H10X11448   4.247   1.168   4.203 -1.4380 -0.7509 -2.1338
  110SAPE  H10Y11449   4.188   1.094   4.350  0.3605 -0.2476  0.1176
  110SAPE  C31111450   4.091   1.279   4.317  0.3656  0.7356  0.3627
  110SAPE  H11X11451   4.000   1.249   4.373 -1.1871  2.6514 -1.0072
  110SAPE  H11Y11452   4.059   1.353   4.242 -2.7574 -0.7642  0.0465
  110SAPE  C31211453   4.194   1.354   4.413 -0.3092 -0.5413 -0.2677
  110SAPE  H12X11454   4.266   1.395   4.341 -1.9775  0.4514 -1.4358
  110SAPE  H12Y11455   4.250   1.293   4.488  0.7440 -0.5359 -1.0439
  110SAPE  C31311456   4.128   1.470   4.468 -0.2426  0.4001 -0.5108
  110SAPE  H13X11457   4.022   1.468   4.437 -0.9462  0.3392  1.7320
  110SAPE  H13Y11458   4.174   1.568   4.444 -1.1164  0.6276 -1.2843
  110SAPE  C31411459   4.118   1.460   4.625  0.4140  0.2958  0.0934
  110SAPE  H14X11460   4.215   1.468   4.677 -0.0118 -0.3152  1.0148
  110SAPE  H14Y11461   4.086   1.354   4.634 -2.9656  1.2301  0.5077
  110SAPE  C31511462   4.020   1.548   4.693  0.1631 -0.4478  0.3802
  110SAPE  H15X11463   3.920   1.539   4.645  0.0553 -1.5428  0.7849
  110SAPE  H15Y11464   4.045   1.656   4.685 -3.7525  0.7193  1.4623
  110SAPE  C31611465   3.998   1.522   4.844  0.4736 -0.2589  0.2018
  110SAPE  H16X11466   4.096   1.546   4.891 -0.1501  0.7255  1.0428
  110SAPE  H16Y11467   3.982   1.412   4.848  1.4586 -0.4602 -0.8808
  110SAPE  C31711468   3.895   1.604   4.917  0.1763 -0.2743  0.7601
  110SAPE  H17X11469   3.799   1.603   4.861  0.3407 -0.1984  0.4714
  110SAPE  H17Y11470   3.946   1.699   4.945 -0.8721  1.0392 -1.4580
  110SAPE  C31811471   3.845   1.544   5.048  0.5768 -0.3608 -0.2171
  110SAPE  H18X11472   3.783   1.457   5.018  0.6580 -0.5355  0.1287
  110SAPE  H18Y11473   3.786   1.609   5.116  1.7759  0.2368  0.2691
  110SAPE  H18Z11474   3.932   1.516   5.110 -0.7133 -1.1536  1.2991
  111SAPE     N11475   1.835   1.213   2.332 -0.1870 -0.0569 -0.2445
  111SAPE   HN111476   1.874   1.219   2.235 -0.6186 -1.3700 -0.5219
  111SAPE   HN211477   1.824   1.116   2.367 -1.1499  0.8453  2.1716
  111SAPE   HN311478   1.737   1.250   2.331 -0.5590 -0.9094  1.4107
  111SAPE   C1211479   1.921   1.305   2.404  0.0060 -0.2361 -0.4379
  111SAPE  H12A11480   1.901   1.405   2.360 -0.1139  0.1668  0.4990
  111SAPE  H12B11481   2.027   1.276   2.386 -0.2540 -0.6938 -1.2537
  111SAPE   C1111482   1.889   1.310   2.557  0.3126 -0.6320  0.2079
  111SAPE  H11A11483   1.944   1.399   2.593  0.5726 -0.6993 -0.0210
  111SAPE  H11B11484   1.922   1.214   2.602 -1.9440 -2.5786 -1.9619
  111SAPE     P11485   1.655   1.242   2.623  0.0562  0.4902 -0.2577
  111SAPE   O1311486   1.522   1.303   2.658 -0.2835  0.3188 -0.6809
  111SAPE   O1411487   1.650   1.149   2.509 -0.0758  0.0378  0.2459
  111SAPE   O1211488   1.751   1.352   2.589 -0.2202  0.3277 -0.0572
  111SAPE   O1111489   1.711   1.180   2.756  0.3765 -0.0478 -0.1905
  111SAPE    C111490   1.753   1.269   2.854  0.0069  0.2099 -0.1232
  111SAPE    HA11491   1.854   1.312   2.838 -1.0202  2.8236 -0.1849
  111SAPE    HB11492   1.681   1.354   2.857 -2.8091 -1.9932 -0.9649
  111SAPE    C211493   1.757   1.206   2.997 -0.3400  1.0474  0.1566
  111SAPE    HS11494   1.728   1.286   3.069 -1.1401  3.2616 -2.4393
  111SAPE   O2111495   1.881   1.140   3.024  0.0762 -0.3393  0.6280
  111SAPE   C2111496   1.985   1.213   3.040  1.0183 -0.2979 -0.7855
  111SAPE   O2211497   1.989   1.334   3.028 -0.3961 -0.4312  0.2956
  111SAPE   C2211498   2.113   1.141   3.089  0.8227  0.4680  0.1741
  111SAPE   H2R11499   2.092   1.032   3.101  1.5097  0.4404  1.2865
  111SAPE   H2S11500   2.199   1.140   3.019  3.8245  3.5385  3.4374
  111SAPE    C311501   1.646   1.099   3.016 -0.2981 -0.4226  0.0286
  111SAPE    HX11502   1.685   1.016   2.954 -0.5623 -0.5031 -0.0309
  111SAPE    HY11503   1.552   1.136   2.971  0.6388  0.3688 -1.3469
  111SAPE   O3111504   1.623   1.073   3.156 -0.1899 -0.4263 -0.3339
  111SAPE   C3111505   1.694   0.984   3.211 -0.0539 -0.0279 -0.1221
  111SAPE   O3211506   1.769   0.908   3.157 -0.1034 -0.3691  0.1902
  111SAPE   C3211507   1.689   0.995   3.367  0.1786  0.4206 -0.0265
  111SAPE   H2X11508   1.586   1.020   3.400  0.4167  0.6957  0.5259
  111SAPE   H2Y11509   1.764   1.073   3.391  1.6068 -0.9855  0.2944
  111SAPE   C2311510   2.163   1.206   3.223  0.5270  0.3386 -0.5350
  111SAPE   H3R11511   2.179   1.314   3.205 -0.1765  0.3493 -1.1712
  111SAPE   H3S11512   2.263   1.169   3.252 -0.0446 -0.4739  0.4893
  111SAPE   C2411513   2.065   1.190   3.340  0.0353  0.1805  0.0881
  111SAPE   H4R11514   1.962   1.226   3.318 -1.0617 -0.2299  3.9141
  111SAPE   H4S11515   2.097   1.247   3.430 -0.4824  0.2438  0.2403
  111SAPE   C2511516   2.059   1.045   3.381  0.0014 -0.5750  0.2197
  111SAPE   H5R11517   2.005   0.979   3.312 -0.9401 -0.3446  0.7222
  111SAPE   C2611518   2.117   0.982   3.494  1.2066  0.2226  0.1144
  111SAPE   H6R11519   2.112   0.872   3.501 -1.9215  0.3562  2.4889
  111SAPE   C2711520   2.191   1.052   3.610  0.2652  0.5825  0.2643
  111SAPE   H7R11521   2.193   0.977   3.691 -0.4115 -2.9775 -2.7219
  111SAPE   H7S11522   2.127   1.137   3.642  2.5568  2.2775  0.5901
  111SAPE   C2811523   2.327   1.119   3.573 -0.0238 -0.4495  0.2310
  111SAPE   H8R11524   2.323   1.169   3.475  1.0806  0.5970  0.6893
  111SAPE   C2911525   2.447   1.133   3.634  0.0535 -0.0455 -0.1686
  111SAPE   H9R11526   2.530   1.177   3.577 -1.0152  1.8616 -0.3434
  111SAPE  C21011527   2.475   1.067   3.769  0.0801 -0.4552  0.0013
  111SAPE  H10R11528   2.584   1.047   3.780  0.1713 -1.1385 -1.9106
  111SAPE  H10S11529   2.423   0.970   3.784 -1.9745  0.8672  2.2629
  111SAPE  C21111530   2.443   1.163   3.887 -0.5651 -0.1122  0.1287
  111SAPE  H11R11531   2.430   1.270   3.866  0.2919 -0.2895 -1.4269
  111SAPE  C21211532   2.423   1.116   4.012 -0.3935 -0.2181 -0.5085
  111SAPE  H12R11533   2.415   1.180   4.101 -0.2849  0.9289 -1.3021
  111SAPE  C21311534   2.432   0.970   4.049 -0.2286 -0.0648 -0.0060
  111SAPE  H13R11535   2.448   0.896   3.968  1.1192  1.2959 -1.0355
  111SAPE  H13S11536   2.335   0.942   4.095  0.9453 -2.4706  1.2045
  111SAPE  C21411537   2.540   0.941   4.150  0.1788  0.3425 -0.1496
  111SAPE  H14R11538   2.622   1.014   4.163 -0.5237  1.1289 -0.0129
  111SAPE  C21511539   2.553   0.828   4.222  0.5681  0.7272  0.3520
  111SAPE  H15R11540   2.625   0.842   4.304  2.3258 -0.4218 -0.9475
  111SAPE  C21611541   2.460   0.702   4.223 -0.2623  0.3029  0.0964
  111SAPE  H16R11542   2.383   0.709   4.144 -0.1041  3.6428  0.1036
  111SAPE  H16S11543   2.388   0.696   4.308 -1.2876 -0.9803 -0.8086
  111SAPE  C21711544   2.553   0.589   4.207  0.1589  0.4091  0.0539
  111SAPE  H17R11545   2.503   0.491   4.192  0.8728  0.2379 -1.5026
  111SAPE  H17S11546   2.614   0.571   4.298 -2.6404  0.3322  2.0228
  111SAPE  C21811547   2.639   0.603   4.075 -0.2632  0.3648 -0.3341
  111SAPE  H18R11548   2.697   0.508   4.073  1.5380  1.4290 -0.7742
  111SAPE  H18S11549   2.699   0.696   4.080 -1.5855  1.2939 -1.1100
  111SAPE  C21911550   2.562   0.609   3.944  0.4451 -0.4255 -0.6347
  111SAPE  H19R11551   2.485   0.688   3.950 -0.0164 -0.9802  1.2231
  111SAPE  H19S11552   2.511   0.511   3.933 -2.0953  0.9877 -2.6293
  111SAPE  C22011553   2.649   0.625   3.816 -0.2741  0.1940  0.8283
  111SAPE  H20R11554   2.731   0.551   3.808 -1.8211 -1.4329 -1.0134
  111SAPE  H20S11555   2.697   0.725   3.820 -0.9800  0.6551 -1.2525
  111SAPE  H20T11556   2.590   0.604   3.724  0.5462 -1.8288  0.7204
  111SAPE   C3311557   1.749   0.872   3.435  0.1479  0.2543  0.9134
  111SAPE   H3X11558   1.848   0.877   3.385 -0.2970 -2.1851 -0.3270
  111SAPE   H3Y11559   1.697   0.781   3.398 -0.3310 -0.5535  3.3455
  111SAPE   C3411560   1.746   0.871   3.589  0.1133  0.3036  0.0852
  111SAPE   H4X11561   1.802   0.951   3.643 -0.7429  2.3366 -1.8522
  111SAPE   H4Y11562   1.788   0.774   3.622 -1.0144  1.0230  4.1550
  111SAPE   C3511563   1.600   0.868   3.640  0.3477 -0.5060 -0.2354
  111SAPE   H5X11564   1.538   0.793   3.585  2.6812 -2.6798 -0.0826
  111SAPE   H5Y11565   1.559   0.970   3.622 -0.2710 -0.6348  0.3845
  111SAPE   C3611566   1.595   0.815   3.786 -0.2341  0.5809 -0.2737
  111SAPE   H6X11567   1.673   0.874   3.840 -0.2244 -0.9861  1.5457
  111SAPE   H6Y11568   1.621   0.708   3.773  0.9329  0.6688  1.0519
  111SAPE   C3711569   1.456   0.842   3.844  0.2663  0.2066 -0.2011
  111SAPE   H7X11570   1.376   0.801   3.779 -0.9668 -1.1783  2.0529
  111SAPE   H7Y11571   1.435   0.951   3.844 -2.8664 -0.2533  2.6727
  111SAPE   C3811572   1.444   0.789   3.984  0.1694 -0.6388  0.6460
  111SAPE   H8X11573   1.447   0.678   3.984  1.8013 -0.6498 -1.0773
  111SAPE   H8Y11574   1.340   0.812   4.014  0.3747 -0.2594  1.0871
  111SAPE   C3911575   1.533   0.846   4.089  1.1858  0.4896 -0.2315
  111SAPE   H9X11576   1.532   0.957   4.081 -0.2602  0.4655 -0.5192
  111SAPE   H9Y11577   1.641   0.823   4.080  1.5323  1.1015  1.7310
  111SAPE  C31011578   1.486   0.800   4.228 -0.3365 -0.7684 -0.0788
  111SAPE  H10X11579   1.460   0.692   4.224  1.8501 -1.3373  0.0149
  111SAPE  H10Y11580   1.393   0.848   4.267 -0.5348 -2.8528  2.3092
  111SAPE  C31111581   1.603   0.804   4.326 -1.1973  0.0102 -0.6055
  111SAPE  H11X11582   1.622   0.912   4.342  1.9167 -0.6324  0.7193
  111SAPE  H11Y11583   1.691   0.763   4.272 -1.8940 -0.2799 -1.5444
  111SAPE  C31211584   1.571   0.742   4.457  0.4422 -0.4319  0.1563
  111SAPE  H12X11585   1.468   0.774   4.482  0.8481 -0.4411  1.9618
  111SAPE  H12Y11586   1.641   0.777   4.536 -1.0745 -2.0474  2.3617
  111SAPE  C31311587   1.581   0.589   4.455 -0.0405  0.2707 -0.2203
  111SAPE  H13X11588   1.677   0.559   4.409 -0.1440 -0.9937  0.3342
  111SAPE  H13Y11589   1.491   0.554   4.400 -0.0999  1.5372 -0.9773
  111SAPE  C31411590   1.584   0.533   4.596  0.4336  0.1156  0.0191
  111SAPE  H14X11591   1.684   0.548   4.643  0.0421  1.4286  0.4732
  111SAPE  H14Y11592   1.554   0.427   4.583 -1.9974  0.8494 -0.8507
  111SAPE  C31511593   1.484   0.587   4.700  0.0810 -0.6449 -0.5541
  111SAPE  H15X11594   1.378   0.598   4.668 -0.0152  0.9697  0.2418
  111SAPE  H15Y11595   1.528   0.686   4.722 -2.0926  0.1252  0.6429
  111SAPE  C31611596   1.475   0.504   4.830  0.1569 -0.2952 -0.4642
  111SAPE  H16X11597   1.576   0.483   4.869 -0.0023  1.6073  1.1467
  111SAPE  H16Y11598   1.421   0.408   4.818 -0.7474  0.1142  0.1959
  111SAPE  C31711599   1.408   0.590   4.940 -0.0696 -0.9005  1.2839
  111SAPE  H17X11600   1.309   0.623   4.901 -0.1236 -0.1730  2.0004
  111SAPE  H17Y11601   1.467   0.683   4.956  2.0446 -2.0939  0.7927
  111SAPE  C31811602   1.383   0.529   5.080 -1.0864  0.3353  1.0731
  111SAPE  H18X11603   1.307   0.589   5.134  0.6527  0.8734  3.0433
  111SAPE  H18Y11604   1.482   0.529   5.132 -0.2459  0.3427 -0.4657
  111SAPE  H18Z11605   1.338   0.427   5.076  0.8473 -0.5653 -3.0453
  112SAPE     N11606   5.129   2.690   2.470 -1.2533  0.0813 -0.5130
  112SAPE   HN111607   5.145   2.791   2.452 -0.0113  0.7954  3.5632
  112SAPE   HN211608   5.176   2.631   2.398 -1.7893 -0.6094 -0.3032
  112SAPE   HN311609   5.034   2.658   2.442 -0.7939 -2.5449  0.6603
  112SAPE   C1211610   5.169   2.642   2.612 -0.2054  0.6527  0.0222
  112SAPE  H12A11611   5.110   2.700   2.686  1.3818  1.3653  0.7771
  112SAPE  H12B11612   5.277   2.666   2.618  0.0731 -0.5324  0.0098
  112SAPE   C1111613   5.151   2.497   2.641  0.1007  0.3886  0.0588
  112SAPE  H11A11614   5.044   2.472   2.623 -0.7228  1.6890  2.6463
  112SAPE  H11B11615   5.162   2.484   2.751  0.0408 -0.0704  0.0133
  112SAPE     P11616   5.392   2.398   2.573  0.1478 -0.4407  0.3899
  112SAPE   O1311617   5.432   2.255   2.552  0.1356 -0.4292  0.1904
  112SAPE   O1411618   5.452   2.508   2.491  0.0261  0.2918 -0.3464
  112SAPE   O1211619   5.233   2.404   2.564 -0.2776  0.5285 -0.3756
  112SAPE   O1111620   5.429   2.433   2.729  0.6879 -0.0142 -0.7338
  112SAPE    C111621   5.516   2.346   2.806 -0.5190 -0.7637  0.3238
  112SAPE    HA11622   5.511   2.240   2.774  2.6648 -0.2451 -2.5039
  112SAPE    HB11623   5.622   2.378   2.801 -1.1707  1.8597  1.6497
  112SAPE    C211624   5.486   2.339   2.957  0.5990 -0.3935 -0.9129
  112SAPE    HS11625   5.377   2.319   2.970  0.0262  2.2268 -1.1614
  112SAPE   O2111626   5.537   2.459   3.024 -0.1001 -0.1731 -0.6484
  112SAPE   C2111627   5.454   2.495   3.126 -0.5871  0.1206 -0.2383
  112SAPE   O2211628   5.382   2.414   3.187  0.3550  0.6835 -0.3844
  112SAPE   C2211629   5.455   2.645   3.157  0.5811 -0.4620 -0.1743
  112SAPE   H2R11630   5.559   2.685   3.166 -0.3692  1.9614  1.1802
  112SAPE   H2S11631   5.418   2.704   3.070  1.8761 -0.7412 -0.9538
  112SAPE    C311632   5.555   2.213   3.023 -0.2135 -0.2210 -0.4040
  112SAPE    HX11633   5.664   2.232   3.013  0.3079 -1.5663  2.0889
  112SAPE    HY11634   5.533   2.121   2.965 -0.6620  1.2765 -2.7779
  112SAPE   O3111635   5.534   2.195   3.164 -0.1901  0.2593  0.3502
  112SAPE   C3111636   5.429   2.130   3.207  0.3704 -0.6908  0.1521
  112SAPE   O3211637   5.345   2.080   3.136  0.0321  0.3905 -0.1594
  112SAPE   C3211638   5.415   2.143   3.362 -1.1245  0.5456 -0.2219
  112SAPE   H2X11639   5.437   2.250   3.383 -0.9962  0.4930 -0.0844
  112SAPE   H2Y11640   5.494   2.075   3.402 -1.9553 -2.5191 -3.3131
  112SAPE   C2311641   5.383   2.684   3.289  0.0928 -0.5361 -0.1260
  112SAPE   H3R11642   5.273   2.673   3.279 -0.6934  1.9300  3.7800
  112SAPE   H3S11643   5.400   2.794   3.287  1.1891 -0.7010 -1.5359
  112SAPE   C2411644   5.436   2.630   3.427  0.0877  0.0785 -0.6477
  112SAPE   H4R11645   5.384   2.534   3.446 -2.1857  1.3478 -0.0518
  112SAPE   H4S11646   5.414   2.700   3.510  1.5498 -0.5784  0.3199
  112SAPE   C2511647   5.587   2.599   3.432  0.6825  0.6195  0.1107
  112SAPE   H5R11648   5.625   2.532   3.353 -1.6782 -1.1425  0.3890
  112SAPE   C2611649   5.679   2.659   3.511  0.2127 -0.3757 -1.1463
  112SAPE   H6R11650   5.783   2.658   3.476  0.9939 -3.2822  0.9212
  112SAPE   C2711651   5.657   2.759   3.629  0.2481 -0.0511  0.3996
  112SAPE   H7R11652   5.612   2.851   3.584  2.7390  0.6721 -0.7662
  112SAPE   H7S11653   5.755   2.792   3.670  0.1151 -2.3254  2.8035
  112SAPE   C2811654   5.570   2.701   3.741 -0.7407 -0.7942  0.6637
  112SAPE   H8R11655   5.475   2.665   3.698 -0.5330  1.7055 -2.1972
  112SAPE   C2911656   5.601   2.691   3.871  0.5767  0.5792  0.1728
  112SAPE   H9R11657   5.525   2.652   3.940  0.7005 -2.2597 -1.1626
  112SAPE  C21011658   5.724   2.747   3.938  0.5754  0.5072  0.6538
  112SAPE  H10R11659   5.805   2.782   3.870 -0.6304  0.6357 -0.7662
  112SAPE  H10S11660   5.775   2.660   3.985 -0.7105 -1.6438 -1.6916
  112SAPE  C21111661   5.702   2.857   4.038  0.1086  0.3780  0.0300
  112SAPE  H11R11662   5.691   2.953   3.986 -0.3420  0.1017 -0.3875
  112SAPE  C21211663   5.675   2.840   4.171 -0.0270 -0.3347  0.3662
  112SAPE  H12R11664   5.639   2.927   4.228 -0.3635 -1.3536  1.7719
  112SAPE  C21311665   5.687   2.711   4.254 -0.4604  0.6724 -0.5934
  112SAPE  H13R11666   5.741   2.736   4.348  1.2992 -1.7629 -0.8898
  112SAPE  H13S11667   5.758   2.646   4.200 -0.1065  0.1002  0.5257
  112SAPE  C21411668   5.559   2.637   4.276  0.2138  0.3367 -0.3218
  112SAPE  H14R11669   5.501   2.614   4.184  1.5832 -1.8448 -0.7130
  112SAPE  C21511670   5.506   2.611   4.399 -0.4703  0.5535 -0.3694
  112SAPE  H15R11671   5.407   2.564   4.408 -0.2136  0.2840  1.5363
  112SAPE  C21611672   5.555   2.653   4.536 -0.5198  0.6442  0.0251
  112SAPE  H16R11673   5.487   2.732   4.576  0.1451 -0.4316  3.5856
  112SAPE  H16S11674   5.655   2.702   4.535 -0.4368  0.4818 -0.9357
  112SAPE  C21711675   5.573   2.534   4.628 -0.1453  1.0757  0.0216
  112SAPE  H17R11676   5.644   2.457   4.591  0.5191  1.0122  1.3580
  112SAPE  H17S11677   5.481   2.486   4.666  0.9490 -0.4893  0.7899
  112SAPE  C21811678   5.637   2.579   4.760  0.4261  0.0591 -0.4554
  112SAPE  H18R11679   5.562   2.646   4.808 -0.3637  0.7142 -2.5053
  112SAPE  H18S11680   5.725   2.646   4.750 -1.0618  2.3645  0.7349
  112SAPE  C21911681   5.640   2.471   4.862 -0.1564 -0.0719  0.1308
  112SAPE  H19R11682   5.706   2.388   4.828 -1.4162 -2.0164  2.1790
  112SAPE  H19S11683   5.538   2.427   4.867 -0.1274 -0.0634  0.8728
  112SAPE  C22011684   5.680   2.513   5.002 -0.8990 -0.0896  0.2895
  112SAPE  H20R11685   5.646   2.617   5.023 -0.9852  0.0213 -0.3730
  112SAPE  H20S11686   5.790   2.517   4.996 -0.9780  2.7252 -0.9543
  112SAPE  H20T11687   5.650   2.436   5.076  0.3279 -1.5688 -0.7033
  112SAPE   C3311688   5.276   2.098   3.417  0.0850  0.6246  0.9599
  112SAPE   H3X11689   5.294   2.023   3.497  0.8692  0.1949  0.3993
  112SAPE   H3Y11690   5.203   2.052   3.347 -0.9744  2.5169  0.7449
  112SAPE   C3411691   5.219   2.220   3.488 -0.0780  0.1190 -0.1396
  112SAPE   H4X11692   5.112   2.198   3.505  0.3023 -0.9213  1.0097
  112SAPE   H4Y11693   5.220   2.309   3.421  4.4528 -0.2716 -0.9171
  112SAPE   C3511694   5.276   2.260   3.629 -0.2574 -0.1833  0.4857
  112SAPE   H5X11695   5.381   2.289   3.606 -0.3980  0.0731  0.1532
  112SAPE   H5Y11696   5.285   2.170   3.692  2.3626 -1.8408 -1.9948
  112SAPE   C3611697   5.216   2.390   3.676 -0.5468  0.2867  0.2178
  112SAPE   H6X11698   5.106   2.375   3.683 -0.3955 -0.1415  2.6967
  112SAPE   H6Y11699   5.242   2.471   3.605  0.9723 -1.5305 -1.3898
  112SAPE   C3711700   5.274   2.432   3.820 -0.4607  0.4582  0.0276
  112SAPE   H7X11701   5.247   2.538   3.839 -1.8968 -0.0434  0.9060
  112SAPE   H7Y11702   5.384   2.420   3.805 -0.0261  0.5233  2.8007
  112SAPE   C3811703   5.238   2.345   3.937 -0.4289 -1.0036  0.4083
  112SAPE   H8X11704   5.261   2.240   3.908 -0.1239 -1.0465  0.7867
  112SAPE   H8Y11705   5.131   2.366   3.958 -0.4666  0.1839 -0.8392
  112SAPE   C3911706   5.333   2.360   4.065  0.0767  0.0981  0.7671
  112SAPE   H9X11707   5.304   2.451   4.122  3.7759  1.1992  1.1586
  112SAPE   H9Y11708   5.436   2.390   4.035 -0.0132 -0.9101 -0.6208
  112SAPE  C31011709   5.314   2.238   4.151 -0.3593  0.4658 -0.3123
  112SAPE  H10X11710   5.365   2.153   4.103 -0.1342 -0.6120  1.7089
  112SAPE  H10Y11711   5.207   2.208   4.152 -0.1103 -0.4903 -1.2800
  112SAPE  C31111712   5.370   2.269   4.289  0.4288  0.0497 -0.0902
  112SAPE  H11X11713   5.306   2.335   4.352 -0.7712 -0.8744 -0.3060
  112SAPE  H11Y11714   5.460   2.332   4.273 -0.0183  0.3870 -1.4178
  112SAPE  C31211715   5.391   2.137   4.357 -0.6901 -0.7001 -0.5659
  112SAPE  H12X11716   5.469   2.082   4.301  0.5825 -0.0502  0.5178
  112SAPE  H12Y11717   5.298   2.075   4.355 -0.8657 -0.4243 -2.2812
  112SAPE  C31311718   5.424   2.166   4.504 -0.7069 -0.1327 -0.0731
  112SAPE  H13X11719   5.329   2.179   4.560 -1.1551  0.9640 -1.0655
  112SAPE  H13Y11720   5.486   2.255   4.530 -0.2655 -0.4928  0.1198
  112SAPE  C31411721   5.498   2.055   4.577  0.1916  0.5272 -0.1275
  112SAPE  H14X11722   5.582   2.024   4.512  0.1703 -1.1076  0.5565
  112SAPE  H14Y11723   5.436   1.964   4.597 -0.6758  1.6741  2.9090
  112SAPE  C31511724   5.550   2.112   4.714 -0.1979 -0.3228  0.1289
  112SAPE  H15X11725   5.456   2.133   4.770 -0.0474 -1.8897  1.0217
  112SAPE  H15Y11726   5.618   2.197   4.695  4.8361 -3.6543  1.1921
  112SAPE  C31611727   5.634   2.003   4.791 -0.1990  0.2222  0.7770
  112SAPE  H16X11728   5.699   1.951   4.716 -1.4763 -0.3907  0.0551
  112SAPE  H16Y11729   5.570   1.921   4.830  0.9127 -0.5772  0.9733
  112SAPE  C31711730   5.728   2.060   4.901 -0.3873  0.2747 -0.3240
  112SAPE  H17X11731   5.667   2.122   4.970 -2.8864 -1.8808 -0.4706
  112SAPE  H17Y11732   5.798   2.123   4.840  0.9193  0.3765  1.2253
  112SAPE  C31811733   5.813   1.954   4.967 -0.8310 -0.1951 -0.4991
  112SAPE  H18X11734   5.875   1.899   4.893 -0.9688  0.7418 -1.3181
  112SAPE  H18Y11735   5.752   1.878   5.021 -1.2378 -0.3317 -1.1424
  112SAPE  H18Z11736   5.884   1.997   5.042 -1.2009  0.2209 -0.3846
  113SAPE     N11737   0.022   1.322   2.572 -0.1320 -0.2965 -0.6692
  113SAPE   HN111738   0.024   1.225   2.535 -0.1731 -0.3794 -0.4558
  113SAPE   HN211739   0.117   1.364   2.563 -0.4029  0.0388 -2.1852
  113SAPE   HN311740   0.006   1.315   2.675 -0.8643  3.3156 -0.3743
  113SAPE   C1211741  -0.084   1.405   2.509 -0.3614 -0.0161  0.2006
  113SAPE  H12A11742  -0.107   1.352   2.414  1.5461  1.2355 -1.0284
  113SAPE  H12B11743  -0.039   1.499   2.471  1.1168 -0.2765  1.2425
  113SAPE   C1111744  -0.207   1.399   2.594  0.3950 -0.5694 -0.0005
  113SAPE  H11A11745  -0.184   1.451   2.690  0.4206  2.4399 -1.5390
  113SAPE  H11B11746  -0.241   1.293   2.606  1.6477 -1.0385 -0.3981
  113SAPE     P11747  -0.416   1.550   2.597  0.0671  0.2107 -0.5225
  113SAPE   O1311748  -0.338   1.676   2.615  0.9075 -0.5185 -0.3015
  113SAPE   O1411749  -0.541   1.551   2.513  0.0048 -0.3032  0.6538
  113SAPE   O1211750  -0.314   1.458   2.521 -0.6278  0.1834  0.1600
  113SAPE   O1111751  -0.432   1.466   2.731 -0.3100 -0.0268 -0.0589
  113SAPE    C111752  -0.504   1.344   2.750 -0.0846 -0.7368 -0.4254
  113SAPE    HA11753  -0.572   1.317   2.666 -0.9642  2.8304 -1.0367
  113SAPE    HB11754  -0.419   1.274   2.765  3.4960  3.0723 -1.2259
  113SAPE    C211755  -0.594   1.349   2.882 -0.1601 -0.4108  0.2580
  113SAPE    HS11756  -0.674   1.422   2.855  1.4142  1.2028 -0.2327
  113SAPE   O2111757  -0.524   1.402   2.994 -0.6334  0.1731 -0.2485
  113SAPE   C2111758  -0.597   1.447   3.092 -0.0403 -0.0571  0.2543
  113SAPE   O2211759  -0.714   1.468   3.088 -0.0353 -0.1201  0.6203
  113SAPE   C2211760  -0.518   1.453   3.220 -0.5173  0.1089  0.0360
  113SAPE   H2R11761  -0.480   1.350   3.239 -1.7803 -0.3249  0.3351
  113SAPE   H2S11762  -0.439   1.530   3.211  0.2898 -0.9051 -5.6445
  113SAPE    C311763  -0.654   1.212   2.912 -0.6656 -0.1006  0.3364
  113SAPE    HX11764  -0.701   1.167   2.822 -2.6792 -1.5324  2.0223
  113SAPE    HY11765  -0.740   1.222   2.982 -1.0400  1.8460 -0.3288
  113SAPE   O3111766  -0.552   1.122   2.971 -0.2356 -0.4336  0.1464
  113SAPE   C3111767  -0.551   0.996   2.934 -0.3063  0.0163  0.1815
  113SAPE   O3211768  -0.617   0.949   2.839  0.2931  0.1002 -0.3607
  113SAPE   C3211769  -0.465   0.927   3.037  0.4069 -0.1118  0.2279
  113SAPE   H2X11770  -0.500   0.965   3.135  1.2044  2.4017 -0.3905
  113SAPE   H2Y11771  -0.358   0.954   3.023  0.4682 -0.3051  0.3154
  113SAPE   C2311772  -0.615   1.490   3.335 -0.1929  0.0030  0.5400
  113SAPE   H3R11773  -0.716   1.449   3.315  0.3826 -1.7123  0.9116
  113SAPE   H3S11774  -0.621   1.600   3.346 -2.3513 -0.1194  1.0988
  113SAPE   C2411775  -0.555   1.445   3.468  0.0002  0.5983 -0.4558
  113SAPE   H4R11776  -0.449   1.477   3.470  0.0862  0.5030 -2.1338
  113SAPE   H4S11777  -0.553   1.334   3.474  2.9001  0.4752 -2.1559
  113SAPE   C2511778  -0.635   1.485   3.589 -0.0124 -0.7726 -0.1678
  113SAPE   H5R11779  -0.743   1.475   3.574  0.2028 -0.1389 -2.4766
  113SAPE   C2611780  -0.580   1.512   3.709 -0.6176 -0.4983  0.1645
  113SAPE   H6R11781  -0.653   1.544   3.784 -0.3482  2.8794 -0.8733
  113SAPE   C2711782  -0.437   1.523   3.747  0.5088  0.1709  0.6217
  113SAPE   H7R11783  -0.372   1.546   3.661  1.3783  0.0913  1.2405
  113SAPE   H7S11784  -0.411   1.422   3.783  0.6719 -0.2337 -0.5960
  113SAPE   C2811785  -0.398   1.630   3.849 -0.1249  0.2387 -0.8363
  113SAPE   H8R11786  -0.434   1.730   3.823 -0.8921  0.9411  2.5522
  113SAPE   C2911787  -0.326   1.616   3.958 -0.9659 -0.1249 -0.5999
  113SAPE   H9R11788  -0.322   1.702   4.026 -2.5128 -0.9419  0.5840
  113SAPE  C21011789  -0.269   1.482   4.002  0.5092 -0.3448 -0.0222
  113SAPE  H10R11790  -0.172   1.495   4.054  0.9622  0.2388 -0.9816
  113SAPE  H10S11791  -0.242   1.416   3.916  1.8028  2.0903 -1.6018
  113SAPE  C21111792  -0.353   1.414   4.112 -0.2022  0.1400  0.4094
  113SAPE  H11R11793  -0.375   1.474   4.202 -2.2960  3.2326 -1.9837
  113SAPE  C21211794  -0.406   1.289   4.105  0.0468  0.3614  0.1745
  113SAPE  H12R11795  -0.456   1.252   4.196 -1.4237 -0.0469 -0.7823
  113SAPE  C21311796  -0.413   1.204   3.985  0.4528 -0.4385  0.0426
  113SAPE  H13R11797  -0.308   1.196   3.951  0.3757 -0.9963 -0.0765
  113SAPE  H13S11798  -0.480   1.244   3.906 -0.3557 -0.8302  0.5116
  113SAPE  C21411799  -0.466   1.076   4.027  0.2400  0.0002 -0.6332
  113SAPE  H14R11800  -0.536   1.065   4.112  0.8771 -1.2820 -0.2402
  113SAPE  C21511801  -0.422   0.957   3.973 -0.4123  0.4927 -0.5242
  113SAPE  H15R11802  -0.466   0.865   4.013 -0.8104  0.4439 -1.0520
  113SAPE  C21611803  -0.317   0.937   3.863  0.1913  0.4557 -0.0037
  113SAPE  H16R11804  -0.308   1.025   3.795 -0.4929  0.8020  0.3368
  113SAPE  H16S11805  -0.355   0.857   3.795  0.4527  0.8303 -0.5997
  113SAPE  C21711806  -0.181   0.900   3.924 -0.1467 -0.4357  0.5072
  113SAPE  H17R11807  -0.193   0.816   3.995 -1.9215 -1.7043 -1.1815
  113SAPE  H17S11808  -0.144   0.989   3.979  0.4396  1.0633 -2.1319
  113SAPE  C21811809  -0.063   0.862   3.829 -0.5036  0.7025 -0.4429
  113SAPE  H18R11810  -0.097   0.779   3.764  1.6409  1.2613 -2.3935
  113SAPE  H18S11811   0.022   0.839   3.896 -1.1260  1.6982  0.7547
  113SAPE  C21911812  -0.012   0.989   3.750  0.4736  0.5853  0.1198
  113SAPE  H19R11813  -0.010   1.083   3.808  1.5403  0.5398  0.1810
  113SAPE  H19S11814  -0.076   1.002   3.660  2.8166  0.5443 -1.6514
  113SAPE  C22011815   0.131   0.984   3.690  0.6613  0.3681 -0.2123
  113SAPE  H20R11816   0.144   1.074   3.627  0.2676 -2.0639 -4.0767
  113SAPE  H20S11817   0.142   0.902   3.616 -2.7915  0.2026 -0.7322
  113SAPE  H20T11818   0.196   0.987   3.780 -1.1137  2.9563  1.1303
  113SAPE   C3311819  -0.493   0.770   3.029 -1.0927  0.3635  0.1507
  113SAPE   H3X11820  -0.415   0.710   3.079 -0.5050  1.1313  0.1670
  113SAPE   H3Y11821  -0.495   0.742   2.921  0.5926 -0.5874  0.3378
  113SAPE   C3411822  -0.626   0.735   3.095  0.5026 -0.0576  0.2031
  113SAPE   H4X11823  -0.712   0.769   3.034 -2.8769 -3.2667  2.7194
  113SAPE   H4Y11824  -0.648   0.783   3.193 -0.7793 -0.8669  0.3390
  113SAPE   C3511825  -0.639   0.577   3.106 -0.6096 -0.9517  0.2937
  113SAPE   H5X11826  -0.557   0.547   3.175 -0.7607  1.1236  1.4558
  113SAPE   H5Y11827  -0.601   0.537   3.010  1.6279 -0.5580  0.9626
  113SAPE   C3611828  -0.779   0.524   3.144 -0.2921 -0.0955 -0.8196
  113SAPE   H6X11829  -0.851   0.568   3.071 -0.3050 -2.2585 -2.1811
  113SAPE   H6Y11830  -0.810   0.574   3.239  2.3252  1.4375 -0.6896
  113SAPE   C3711831  -0.782   0.371   3.138  0.3350  0.7512  0.5152
  113SAPE   H7X11832  -0.712   0.346   3.221  1.0562 -3.6943 -1.1353
  113SAPE   H7Y11833  -0.744   0.354   3.034  0.6332  1.1691  0.5533
  113SAPE   C3811834  -0.919   0.307   3.161  0.0697  0.4085  0.4827
  113SAPE   H8X11835  -0.992   0.360   3.095 -0.9828 -2.3221 -0.6721
  113SAPE   H8Y11836  -0.904   0.204   3.124  0.4455 -0.0035  1.7536
  113SAPE   C3911837  -0.960   0.311   3.310  0.8638  0.0111  0.2244
  113SAPE   H9X11838  -0.965   0.418   3.340 -2.0492 -0.0956  0.4433
  113SAPE   H9Y11839  -0.887   0.258   3.374 -0.3593  1.5227  3.0448
  113SAPE  C31011840  -1.089   0.229   3.353 -0.3953 -0.5230 -0.6691
  113SAPE  H10X11841  -1.089   0.124   3.314 -1.2009  0.0403 -2.2857
  113SAPE  H10Y11842  -1.174   0.283   3.306 -2.1598 -2.2682  0.3855
  113SAPE  C31111843  -1.110   0.213   3.514  0.0802  0.2153  0.4413
  113SAPE  H11X11844  -1.005   0.206   3.548 -0.0311  0.9041  0.9479
  113SAPE  H11Y11845  -1.175   0.124   3.530 -1.5915  0.4579 -3.6417
  113SAPE  C31211846  -1.158   0.336   3.585  0.3736  0.5671  0.3952
  113SAPE  H12X11847  -1.263   0.359   3.554  0.8168 -0.6096 -2.2736
  113SAPE  H12Y11848  -1.099   0.428   3.564 -0.3938  0.8374 -0.6735
  113SAPE  C31311849  -1.166   0.303   3.737 -0.2113 -0.5369  0.2046
  113SAPE  H13X11850  -1.068   0.265   3.775 -0.2858 -0.0159  0.9422
  113SAPE  H13Y11851  -1.239   0.223   3.757  0.8506 -1.8087 -0.8060
  113SAPE  C31411852  -1.199   0.429   3.825  0.4485 -0.1265 -0.2439
  113SAPE  H14X11853  -1.287   0.488   3.792  1.4056  2.0901  0.9520
  113SAPE  H14Y11854  -1.113   0.495   3.799 -0.2871  0.0908 -2.3647
  113SAPE  C31511855  -1.221   0.392   3.973 -0.9103 -0.3118  0.1269
  113SAPE  H15X11856  -1.133   0.330   3.999 -0.1279  0.0088 -1.5753
  113SAPE  H15Y11857  -1.314   0.332   3.986 -1.0678  0.2335  1.8156
  113SAPE  C31611858  -1.231   0.520   4.058  0.4003 -0.1910  0.5427
  113SAPE  H16X11859  -1.327   0.568   4.030  1.2447  1.9784  1.1003
  113SAPE  H16Y11860  -1.146   0.587   4.033 -0.1746  1.2432  2.2517
  113SAPE  C31711861  -1.247   0.502   4.206 -0.2238  0.4648 -0.1170
  113SAPE  H17X11862  -1.351   0.474   4.230  0.3618  0.2815  2.4531
  113SAPE  H17Y11863  -1.229   0.591   4.271  0.3773 -0.6411  1.2684
  113SAPE  C31811864  -1.153   0.394   4.267  0.5938 -0.1042  0.3624
  113SAPE  H18X11865  -1.046   0.404   4.239  0.4316  1.1357  0.0986
  113SAPE  H18Y11866  -1.194   0.297   4.232 -2.8387  0.0270  3.3814
  113SAPE  H18Z11867  -1.167   0.390   4.378  3.0794 -1.7826  0.6949
  114SAPE     N11868   6.727   0.695   2.358  0.1487 -0.7908  0.0501
  114SAPE   HN111869   6.703   0.634   2.277  1.7273 -2.3875  0.7230
  114SAPE   HN211870   6.660   0.775   2.361  1.6141  0.4804  2.3733
  114SAPE   HN311871   6.821   0.734   2.340 -0.1280  1.0421  2.0881
  114SAPE   C1211872   6.702   0.619   2.483  0.5750  0.1546 -0.6205
  114SAPE  H12A11873   6.770   0.532   2.491 -1.8516 -1.7820  0.2405
  114SAPE  H12B11874   6.603   0.574   2.461 -0.5232  2.5580 -0.9630
  114SAPE   C1111875   6.710   0.718   2.603  0.4689  0.5330 -0.1549
  114SAPE  H11A11876   6.670   0.669   2.694 -0.9640  1.9041  0.0041
  114SAPE  H11B11877   6.651   0.812   2.592  0.7726  0.6437 -0.9352
  114SAPE     P11878   6.952   0.648   2.687 -0.0681 -0.0112 -0.0164
  114SAPE   O1311879   6.901   0.510   2.684  0.4393 -0.0883 -0.5040
  114SAPE   O1411880   7.072   0.670   2.606 -0.5641 -0.1498  0.1633
  114SAPE   O1211881   6.844   0.753   2.636 -0.2764  0.1431 -0.1048
  114SAPE   O1111882   6.975   0.690   2.841  0.3448  0.1334  0.4562
  114SAPE    C111883   6.865   0.688   2.937  0.0785  0.4472 -0.5135
  114SAPE    HA11884   6.832   0.792   2.956 -1.0213  0.3796 -1.9125
  114SAPE    HB11885   6.777   0.623   2.916  0.0879 -0.5153  2.0461
  114SAPE    C211886   6.920   0.622   3.070 -0.5779  0.2496 -0.0459
  114SAPE    HS11887   6.839   0.648   3.142  2.5377  0.5714  3.6536
  114SAPE   O2111888   7.048   0.676   3.118 -0.1530 -0.5750 -0.2431
  114SAPE   C2111889   7.039   0.800   3.155 -0.2813 -0.6080  0.1457
  114SAPE   O2211890   6.940   0.858   3.186  0.5233 -0.2594 -0.0857
  114SAPE   C2211891   7.179   0.869   3.145  0.6957  0.4933  0.1891
  114SAPE   H2R11892   7.227   0.858   3.245  2.9423  4.8821 -0.1356
  114SAPE   H2S11893   7.235   0.808   3.071 -0.3986  1.6800 -1.7035
  114SAPE    C311894   6.932   0.462   3.051 -0.1254 -0.4505  0.9169
  114SAPE    HX11895   7.017   0.446   2.982  0.3382  1.3901  0.9872
  114SAPE    HY11896   6.836   0.422   3.012  0.0343  0.9389 -1.0691
  114SAPE   O3111897   6.964   0.403   3.176  0.0700 -0.1799  0.1049
  114SAPE   C3111898   7.089   0.361   3.203 -0.5751 -0.4640 -0.4122
  114SAPE   O3211899   7.183   0.392   3.130  0.0312  0.0412 -0.7801
  114SAPE   C3211900   7.101   0.267   3.329  0.5279  0.2677 -0.3073
  114SAPE   H2X11901   7.040   0.176   3.309 -1.0335  0.4930  2.7438
  114SAPE   H2Y11902   7.032   0.313   3.403 -2.3406 -1.9480 -1.4011
  114SAPE   C2311903   7.177   1.009   3.073 -0.9946  0.3940 -0.3625
  114SAPE   H3R11904   7.279   1.047   3.097 -0.1120 -2.7741  1.6311
  114SAPE   H3S11905   7.109   1.076   3.129 -0.4633 -0.2830  1.1483
  114SAPE   C2411906   7.158   1.003   2.920 -0.0579 -0.1053 -0.7332
  114SAPE   H4R11907   7.145   1.110   2.896  0.7993  0.0424 -0.5686
  114SAPE   H4S11908   7.058   0.960   2.896 -1.1646  1.7897  0.2532
  114SAPE   C2511909   7.272   0.944   2.837  0.6577 -0.3110  0.2576
  114SAPE   H5R11910   7.256   0.847   2.788 -1.4022 -0.6006  1.3807
  114SAPE   C2611911   7.383   1.013   2.805  0.2238  0.8565 -0.1414
  114SAPE   H6R11912   7.450   0.956   2.739 -0.2513 -0.0906  0.1687
  114SAPE   C2711913   7.431   1.146   2.852  0.4069 -0.0493  0.6712
  114SAPE   H7R11914   7.379   1.178   2.945  1.0922 -1.0346  1.4140
  114SAPE   H7S11915   7.385   1.215   2.778 -1.9504 -0.0864  2.0217
  114SAPE   C2811916   7.587   1.156   2.862 -0.3877  0.6213  0.8751
  114SAPE   H8R11917   7.644   1.161   2.768  0.8767 -0.4998  1.5471
  114SAPE   C2911918   7.655   1.133   2.973  0.0959 -0.2104  0.1981
  114SAPE   H9R11919   7.763   1.152   2.971 -0.3302  3.8114 -4.1864
  114SAPE  C21011920   7.574   1.120   3.101  0.4363 -0.0420 -0.5152
  114SAPE  H10R11921   7.640   1.061   3.169  0.3114  1.1123  0.6622
  114SAPE  H10S11922   7.482   1.059   3.090 -0.7789  1.7579 -0.7363
  114SAPE  C21111923   7.539   1.248   3.169  0.5325 -0.0078 -0.2216
  114SAPE  H11R11924   7.526   1.336   3.104  0.2639 -0.4999 -0.8440
  114SAPE  C21211925   7.528   1.263   3.302 -0.5641  0.0667 -0.3178
  114SAPE  H12R11926   7.513   1.363   3.344  0.9960  0.5101 -0.7585
  114SAPE  C21311927   7.544   1.141   3.398  0.2067 -0.6025 -0.1010
  114SAPE  H13R11928   7.643   1.137   3.448  0.7448  2.1870 -0.7702
  114SAPE  H13S11929   7.533   1.051   3.334  1.2925  0.2317 -1.5081
  114SAPE  C21411930   7.426   1.131   3.490 -0.9195  0.5200 -0.7275
  114SAPE  H14R11931   7.336   1.100   3.434 -1.1704  0.4742 -0.3004
  114SAPE  C21511932   7.426   1.161   3.618 -0.2776 -0.5757  0.2644
  114SAPE  H15R11933   7.333   1.149   3.676 -0.5139  0.2171  0.0769
  114SAPE  C21611934   7.539   1.208   3.703  0.8740 -1.2132 -0.0374
  114SAPE  H16R11935   7.507   1.286   3.775  1.2954 -1.9150  0.9202
  114SAPE  H16S11936   7.604   1.268   3.635 -0.8035  1.0288  0.2170
  114SAPE  C21711937   7.623   1.102   3.780  0.1260  0.3410 -0.4665
  114SAPE  H17R11938   7.714   1.152   3.821 -0.2680  0.0926  0.7518
  114SAPE  H17S11939   7.646   1.032   3.696  0.1783  0.6144 -0.6817
  114SAPE  C21811940   7.549   1.019   3.881 -0.3503  1.2187 -0.3621
  114SAPE  H18R11941   7.614   0.938   3.921 -1.2975  0.5679 -0.1052
  114SAPE  H18S11942   7.464   0.974   3.825 -1.0090  0.9850  0.7859
  114SAPE  C21911943   7.503   1.097   4.005  0.0111 -0.1470 -0.4389
  114SAPE  H19R11944   7.429   1.178   3.992 -0.3312 -0.5924 -1.4581
  114SAPE  H19S11945   7.591   1.161   4.029  0.3909 -0.1868 -1.6233
  114SAPE  C22011946   7.470   1.009   4.125 -0.1030  1.0119  0.1220
  114SAPE  H20R11947   7.406   0.920   4.105  1.3872  0.0313 -0.4482
  114SAPE  H20S11948   7.433   1.070   4.210  0.6135  0.8814  0.5333
  114SAPE  H20T11949   7.567   0.980   4.169  0.6390  0.7473 -1.6047
  114SAPE   C3311950   7.240   0.233   3.387  0.1324  0.4833 -0.3157
  114SAPE   H3X11951   7.297   0.323   3.418  0.9534 -0.4328  0.9479
  114SAPE   H3Y11952   7.290   0.166   3.314 -0.4339  1.3053 -1.4725
  114SAPE   C3411953   7.223   0.149   3.524 -0.8325  0.3486 -0.0039
  114SAPE   H4X11954   7.151   0.067   3.505 -0.7413  0.8461 -3.0856
  114SAPE   H4Y11955   7.179   0.209   3.606  2.3275 -1.1916  3.1062
  114SAPE   C3511956   7.360   0.103   3.582 -0.1886 -0.0702 -0.0011
  114SAPE   H5X11957   7.422   0.195   3.578 -0.4253  0.0902  0.0464
  114SAPE   H5Y11958   7.406   0.027   3.515 -1.9640  0.2669 -1.6913
  114SAPE   C3611959   7.370   0.060   3.731  1.0989 -0.0665 -0.9314
  114SAPE   H6X11960   7.476   0.052   3.761  0.6048 -2.4353  0.4161
  114SAPE   H6Y11961   7.324  -0.036   3.764 -0.5566  1.4767  1.6162
  114SAPE   C3711962   7.308   0.157   3.838  1.1197  0.1931 -0.3799
  114SAPE   H7X11963   7.201   0.164   3.808 -0.2730 -2.7882  3.1561
  114SAPE   H7Y11964   7.346   0.261   3.847  1.9675  0.0651 -1.9986
  114SAPE   C3811965   7.311   0.089   3.978 -0.9944 -0.2592  0.2326
  114SAPE   H8X11966   7.413   0.067   4.017 -0.7818  2.4395  1.4441
  114SAPE   H8Y11967   7.255  -0.007   3.978 -0.8822 -0.3436 -1.0954
  114SAPE   C3911968   7.267   0.185   4.090  0.2279  1.0356 -0.0407
  114SAPE   H9X11969   7.187   0.245   4.043  1.3436  0.1042 -3.4048
  114SAPE   H9Y11970   7.347   0.259   4.109  1.8555  0.0928 -2.7485
  114SAPE  C31011971   7.238   0.118   4.226 -0.3097  0.1960  0.5872
  114SAPE  H10X11972   7.325   0.068   4.273  0.1642 -0.6656 -1.1232
  114SAPE  H10Y11973   7.150   0.050   4.227 -0.7918  0.7682 -0.4832
  114SAPE  C31111974   7.195   0.219   4.331 -0.2612 -0.7479  0.2378
  114SAPE  H11X11975   7.134   0.298   4.281 -0.9393 -0.8671  0.8437
  114SAPE  H11Y11976   7.284   0.269   4.374 -2.4406  0.0471  4.3172
  114SAPE  C31211977   7.114   0.164   4.449  1.2031 -0.3307  0.0115
  114SAPE  H12X11978   7.015   0.133   4.410  0.7585  1.5386 -0.4642
  114SAPE  H12Y11979   7.086   0.244   4.521 -0.7312 -1.2343  0.3130
  114SAPE  C31311980   7.166   0.038   4.518  0.4083  0.2475  0.4670
  114SAPE  H13X11981   7.166  -0.051   4.452 -0.3684 -0.8338  1.8595
  114SAPE  H13Y11982   7.094   0.021   4.601 -0.5213 -0.0144 -0.3643
  114SAPE  C31411983   7.311   0.046   4.564 -0.0925 -0.3447 -0.8946
  114SAPE  H14X11984   7.366   0.132   4.519  1.6118 -0.3402  1.0687
  114SAPE  H14Y11985   7.372  -0.043   4.537 -2.3479 -1.8672 -1.2507
  114SAPE  C31511986   7.326   0.047   4.721 -0.5670  0.6170 -0.4460
  114SAPE  H15X11987   7.282  -0.036   4.781  0.0159  1.3900  1.1227
  114SAPE  H15Y11988   7.283   0.144   4.754 -0.0342  1.2241 -1.4951
  114SAPE  C31611989   7.476   0.054   4.760 -0.0598  0.2052  0.4131
  114SAPE  H16X11990   7.523   0.119   4.683 -0.7894 -0.5427 -0.6835
  114SAPE  H16Y11991   7.523  -0.046   4.748  0.7367  0.4311  1.4689
  114SAPE  C31711992   7.508   0.113   4.901  0.2351 -0.1895 -0.9159
  114SAPE  H17X11993   7.438   0.068   4.974  0.9148  0.3293  0.0858
  114SAPE  H17Y11994   7.499   0.224   4.902 -0.7532 -0.2483 -2.0082
  114SAPE  C31811995   7.646   0.084   4.950  0.6279  0.2684 -0.5791
  114SAPE  H18X11996   7.658   0.116   5.055 -1.4627  0.9768 -0.5080
  114SAPE  H18Y11997   7.729   0.115   4.883 -0.8125  0.7901 -2.1999
  114SAPE  H18Z11998   7.651  -0.027   4.947  5.0967  0.2536  0.5696
  115SAPE     N11999   6.187   2.968   2.526  0.0896 -0.1672 -0.0014
  115SAPE   HN112000   6.259   2.918   2.583 -0.7714 -0.8693  0.4903
  115SAPE   HN212001   6.140   2.902   2.460 -1.9234  2.2454 -1.1157
  115SAPE   HN312002   6.241   3.040   2.474 -1.2591  0.5425 -0.4420
  115SAPE   C1212003   6.086   3.044   2.601  0.6407 -0.0705 -0.1931
  115SAPE  H12A12004   6.023   2.971   2.656  3.5262 -2.4338  0.2394
  115SAPE  H12B12005   6.030   3.095   2.520  2.2034 -0.2051 -1.4093
  115SAPE   C1112006   6.148   3.160   2.686 -0.0229 -0.6771  0.2067
  115SAPE  H11A12007   6.234   3.112   2.738  0.9213  1.9675  1.2612
  115SAPE  H11B12008   6.084   3.198   2.768  1.4978  0.4420  0.9128
  115SAPE     P12009   6.319   3.351   2.642 -0.0674 -0.4125 -0.0301
  115SAPE   O1312010   6.385   3.280   2.756 -0.1845 -0.6784  0.0336
  115SAPE   O1412011   6.393   3.370   2.518 -0.1463  0.5743  0.1362
  115SAPE   O1212012   6.185   3.273   2.602  0.4993  0.1749  0.4444
  115SAPE   O1112013   6.260   3.496   2.693  0.2093  0.3636  0.0761
  115SAPE    C112014   6.135   3.512   2.770  0.4223  0.3199  0.2902
  115SAPE    HA12015   6.078   3.601   2.735 -0.7267 -0.5848 -0.2115
  115SAPE    HB12016   6.069   3.423   2.761 -0.3635  0.8061  1.0762
  115SAPE    C212017   6.145   3.540   2.922  0.4210  0.4061 -0.0269
  115SAPE    HS12018   6.043   3.534   2.965  0.0515 -0.9963 -1.0208
  115SAPE   O2112019   6.201   3.661   2.961  0.1500  0.1950 -0.4392
  115SAPE   C2112020   6.142   3.781   2.928 -0.1032  0.4037 -0.1868
  115SAPE   O2212021   6.045   3.797   2.859  0.1472  0.3061  0.8212
  115SAPE   C2212022   6.228   3.892   2.984 -0.2808 -0.1773 -0.2903
  115SAPE   H2R12023   6.320   3.902   2.923 -1.2450  0.2337 -1.7103
  115SAPE   H2S12024   6.168   3.983   2.966 -0.8410 -0.4763  0.0312
  115SAPE    C312025   6.224   3.425   2.985  0.0611  0.0268  0.0200
  115SAPE    HX12026   6.327   3.448   2.951  0.6485 -0.0104  1.6621
  115SAPE    HY12027   6.184   3.329   2.948 -0.0699 -0.1863  0.6984
  115SAPE   O3112028   6.214   3.418   3.131 -0.2235  0.1536  0.5413
  115SAPE   C3112029   6.321   3.406   3.201 -0.6571  0.3050 -0.0867
  115SAPE   O3212030   6.435   3.420   3.171  0.0991 -0.3635 -0.1796
  115SAPE   C3212031   6.280   3.391   3.346 -0.0151 -0.1179  0.0471
  115SAPE   H2X12032   6.372   3.353   3.395 -0.1634 -0.6912 -0.1101
  115SAPE   H2Y12033   6.190   3.326   3.355  1.0176 -1.5830  0.1209
  115SAPE   C2312034   6.265   3.881   3.138 -0.0539 -0.4194  0.2265
  115SAPE   H3R12035   6.328   3.790   3.142  0.8480  0.0781 -1.5774
  115SAPE   H3S12036   6.177   3.860   3.203  0.5642 -1.6269  0.7172
  115SAPE   C2412037   6.343   3.996   3.213 -0.7309 -0.2149 -0.2542
  115SAPE   H4R12038   6.439   4.028   3.168  1.2178  2.6424  5.0166
  115SAPE   H4S12039   6.376   3.943   3.306 -0.7763 -1.8097 -1.1065
  115SAPE   C2512040   6.261   4.115   3.244 -0.6406  0.5686 -0.3104
  115SAPE   H5R12041   6.204   4.157   3.159 -0.1833  2.3681  0.2304
  115SAPE   C2612042   6.234   4.163   3.369  0.9281  0.4497 -0.3169
  115SAPE   H6R12043   6.159   4.243   3.383 -1.8883 -2.2886  1.5965
  115SAPE   C2712044   6.274   4.118   3.509  0.0079 -0.2732 -0.1580
  115SAPE   H7R12045   6.256   4.009   3.526  2.6932 -0.7878 -0.1872
  115SAPE   H7S12046   6.221   4.161   3.597  0.9290 -2.3474  1.5336
  115SAPE   C2812047   6.426   4.141   3.542  0.1689 -0.2284  0.1930
  115SAPE   H8R12048   6.473   4.171   3.447  0.4923 -4.4979 -1.2418
  115SAPE   C2912049   6.495   4.134   3.664  0.1213  0.1641  0.6353
  115SAPE   H9R12050   6.602   4.157   3.661 -0.2231  2.0351  1.0901
  115SAPE  C21012051   6.444   4.094   3.803  0.1234 -0.1602  0.1219
  115SAPE  H10R12052   6.335   4.114   3.814 -0.0481 -1.8378  2.1228
  115SAPE  H10S12053   6.506   4.157   3.870  3.2171 -0.8911 -1.8459
  115SAPE  C21112054   6.468   3.954   3.843 -0.3696  0.1224 -0.4144
  115SAPE  H11R12055   6.460   3.882   3.760 -0.0349  0.6356 -0.8953
  115SAPE  C21212056   6.514   3.918   3.967  0.1965  0.4217 -0.3658
  115SAPE  H12R12057   6.514   3.812   3.995 -2.8579  0.4875  0.2711
  115SAPE  C21312058   6.524   4.018   4.087 -0.3405  0.2058  0.0922
  115SAPE  H13R12059   6.467   4.111   4.066 -0.1748 -0.0187 -1.4280
  115SAPE  H13S12060   6.631   4.046   4.084  0.3554 -2.2942 -0.3213
  115SAPE  C21412061   6.495   3.975   4.224  0.1158  0.3654 -0.6457
  115SAPE  H14R12062   6.405   3.912   4.236 -1.4216  2.6668  0.6543
  115SAPE  C21512063   6.567   3.997   4.335  0.0389  0.3422  0.2430
  115SAPE  H15R12064   6.534   3.953   4.430 -0.2609 -3.0218 -1.2450
  115SAPE  C21612065   6.697   4.073   4.341 -0.6133 -1.0925 -0.1083
  115SAPE  H16R12066   6.678   4.183   4.335  0.2224 -0.5777  3.8826
  115SAPE  H16S12067   6.752   4.043   4.249 -0.6101 -1.6987  0.0904
  115SAPE  C21712068   6.792   4.051   4.467 -0.0107 -0.1910  0.2956
  115SAPE  H17R12069   6.797   3.941   4.478  0.5254 -0.1391  0.5914
  115SAPE  H17S12070   6.763   4.104   4.560  0.5485  3.0657 -1.2401
  115SAPE  C21812071   6.938   4.081   4.435 -0.9209 -0.1361 -0.6188
  115SAPE  H18R12072   6.963   4.182   4.396  2.2370 -0.4599  0.3175
  115SAPE  H18S12073   6.974   4.019   4.350  0.8545 -0.8428  0.5977
  115SAPE  C21912074   7.021   4.049   4.553  0.1578 -0.1024 -0.1623
  115SAPE  H19R12075   7.013   3.940   4.573 -0.0647 -0.3835 -1.7112
  115SAPE  H19S12076   6.966   4.106   4.631 -0.4944 -1.7587  0.6551
  115SAPE  C22012077   7.175   4.084   4.548 -0.4003 -0.5026  0.0131
  115SAPE  H20R12078   7.182   4.191   4.519 -1.1966 -0.6997 -0.9876
  115SAPE  H20S12079   7.228   4.016   4.477 -0.0712  1.0210 -1.2501
  115SAPE  H20T12080   7.211   4.066   4.651 -0.9277  0.0092  0.2903
  115SAPE   C3312081   6.238   3.528   3.406 -0.2492 -0.0800  0.1996
  115SAPE   H3X12082   6.161   3.509   3.484  0.9702 -1.0332  1.2314
  115SAPE   H3Y12083   6.192   3.598   3.333  0.5346  0.4203  0.1711
  115SAPE   C3412084   6.350   3.611   3.474  0.6473 -0.1471  0.4632
  115SAPE   H4X12085   6.427   3.637   3.398 -0.2762  1.0059 -0.1092
  115SAPE   H4Y12086   6.401   3.562   3.561 -0.7076  0.9589  1.9480
  115SAPE   C3512087   6.301   3.750   3.522 -0.0318  0.3683  0.1970
  115SAPE   H5X12088   6.265   3.812   3.437 -0.1061  3.0278  2.0132
  115SAPE   H5Y12089   6.395   3.794   3.563  2.6128 -3.9634 -0.5516
  115SAPE   C3612090   6.190   3.731   3.626 -0.8944 -0.7612  0.5279
  115SAPE   H6X12091   6.110   3.683   3.566  1.6331 -2.6376 -1.5692
  115SAPE   H6Y12092   6.154   3.832   3.655 -1.2494 -0.5643 -0.5563
  115SAPE   C3712093   6.219   3.645   3.748 -0.3533  0.0421  0.1699
  115SAPE   H7X12094   6.314   3.676   3.798  0.7340 -0.1490 -1.6819
  115SAPE   H7Y12095   6.232   3.540   3.712 -1.6187  0.4636 -1.6046
  115SAPE   C3812096   6.099   3.638   3.842 -0.5104 -0.1453 -0.4146
  115SAPE   H8X12097   6.081   3.536   3.883 -4.5864  0.2760 -0.7633
  115SAPE   H8Y12098   6.005   3.651   3.785 -1.3742 -1.1457  0.7151
  115SAPE   C3912099   6.100   3.734   3.958  0.0801 -0.3905  0.0513
  115SAPE   H9X12100   6.062   3.834   3.925  0.3507 -0.6398 -1.0467
  115SAPE   H9Y12101   6.200   3.740   4.006 -1.3397 -1.4590  3.5201
  115SAPE  C31012102   6.009   3.698   4.077  0.8372 -0.0450  0.0082
  115SAPE  H10X12103   6.019   3.590   4.104  0.2098 -0.1913 -0.3358
  115SAPE  H10Y12104   5.904   3.714   4.046  0.4075  1.4244  1.9724
  115SAPE  C31112105   6.024   3.785   4.201 -0.1561 -0.2744 -0.8003
  115SAPE  H11X12106   5.922   3.791   4.245  0.1134 -0.6666 -0.1139
  115SAPE  H11Y12107   6.038   3.891   4.170 -2.5725  0.1023 -0.7966
  115SAPE  C31212108   6.124   3.724   4.305  0.1933 -0.3431 -0.3581
  115SAPE  H12X12109   6.229   3.723   4.266  0.1691 -1.0599 -0.4237
  115SAPE  H12Y12110   6.093   3.619   4.322 -0.8211 -0.0822 -0.5616
  115SAPE  C31312111   6.119   3.800   4.436 -0.1015 -0.1415  0.4740
  115SAPE  H13X12112   6.115   3.735   4.527 -0.8308 -1.5356 -0.5224
  115SAPE  H13Y12113   6.020   3.850   4.434 -0.0187  0.0041 -1.9224
  115SAPE  C31412114   6.240   3.886   4.442  0.3350 -0.2518  0.4798
  115SAPE  H14X12115   6.222   3.965   4.366 -0.7503  1.3413  2.2857
  115SAPE  H14Y12116   6.331   3.823   4.430 -0.6972 -1.8303  0.6890
  115SAPE  C31512117   6.251   3.965   4.568  0.1522  0.0908 -0.2071
  115SAPE  H15X12118   6.353   4.005   4.585  0.3935 -0.2683 -0.7836
  115SAPE  H15Y12119   6.219   3.903   4.655  0.5531  0.2344  0.0488
  115SAPE  C31612120   6.145   4.073   4.578 -0.3799 -0.3844 -0.0877
  115SAPE  H16X12121   6.040   4.042   4.563  0.3355 -1.9520 -2.3948
  115SAPE  H16Y12122   6.162   4.127   4.482 -1.4432 -0.9593 -0.6115
  115SAPE  C31712123   6.152   4.182   4.690  0.0669  0.2157  0.6120
  115SAPE  H17X12124   6.101   4.269   4.642  1.9169  0.0113 -1.9615
  115SAPE  H17Y12125   6.253   4.224   4.712 -0.3119  0.5744  1.7375
  115SAPE  C31812126   6.092   4.143   4.822 -0.5059 -0.4956 -0.1580
  115SAPE  H18X12127   5.994   4.094   4.800 -1.1178  0.6406 -0.0172
  115SAPE  H18Y12128   6.074   4.232   4.886 -2.1118 -0.5285 -0.5165
  115SAPE  H18Z12129   6.152   4.074   4.885 -0.4778 -0.2241  0.1152
  116SAPE     N12130   6.049   4.637   2.572  0.0320  0.0186  0.1827
  116SAPE   HN112131   5.990   4.604   2.492 -0.6300  0.2836  0.5559
  116SAPE   HN212132   6.122   4.562   2.579  0.2218  0.1384 -0.4188
  116SAPE   HN312133   6.000   4.644   2.663  2.2696 -0.6553  1.5206
  116SAPE   C1212134   6.105   4.768   2.540  0.6032 -0.4971  0.1555
  116SAPE  H12A12135   6.171   4.757   2.451 -0.2784 -0.5484 -0.5166
  116SAPE  H12B12136   6.163   4.810   2.624  0.7324 -0.4816  0.0591
  116SAPE   C1112137   5.991   4.868   2.502  0.3292  0.0663  0.0214
  116SAPE  H11A12138   5.953   4.826   2.406 -0.7344 -2.0895  1.3088
  116SAPE  H11B12139   6.026   4.970   2.476 -1.7374  0.2786 -2.3714
  116SAPE     P12140   5.783   4.995   2.604 -0.0025 -0.0062 -0.0110
  116SAPE   O1312141   5.799   5.082   2.481 -0.0304 -0.2000 -0.4690
  116SAPE   O1412142   5.645   4.970   2.646  0.3260 -0.2307  0.2801
  116SAPE   O1212143   5.872   4.868   2.589  0.3010  0.4706  0.2598
  116SAPE   O1112144   5.860   5.067   2.724 -0.3152  0.8267 -0.8550
  116SAPE    C112145   5.861   4.994   2.848 -0.7940 -0.4079 -0.3631
  116SAPE    HA12146   5.765   4.947   2.879  0.2377 -0.2450  3.5933
  116SAPE    HB12147   5.930   4.907   2.847  0.8561  0.7775  1.6200
  116SAPE    C212148   5.898   5.078   2.967 -0.3705  0.0720  0.6233
  116SAPE    HS12149   6.001   5.112   2.943 -0.0404 -0.5149  1.1684
  116SAPE   O2112150   5.891   4.993   3.084 -0.3113 -0.0897  0.3285
  116SAPE   C2112151   5.960   5.034   3.191  0.4961 -0.4193  0.9586
  116SAPE   O2212152   6.033   5.132   3.193  0.0201  0.3750  0.2454
  116SAPE   C2212153   5.934   4.939   3.309  0.7312 -0.4418 -0.1400
  116SAPE   H2R12154   5.900   4.840   3.273  0.2902  0.8903 -3.7682
  116SAPE   H2S12155   6.032   4.922   3.360  1.8077  2.0139 -1.1817
  116SAPE    C312156   5.801   5.204   2.974 -0.6673 -0.6700 -0.2595
  116SAPE    HX12157   5.703   5.151   2.973  0.2810 -2.5936 -2.6166
  116SAPE    HY12158   5.814   5.266   2.882  1.8417  0.9647  1.0938
  116SAPE   O3112159   5.823   5.285   3.099 -0.1466  0.3078  0.4724
  116SAPE   C3112160   5.912   5.384   3.086  0.7065  0.0445  0.8250
  116SAPE   O3212161   5.965   5.428   2.985  0.1231 -0.4785  0.3224
  116SAPE   C3212162   5.940   5.452   3.221 -0.0419 -0.5404  0.1429
  116SAPE   H2X12163   6.030   5.512   3.194  0.5546 -0.4011  2.2513
  116SAPE   H2Y12164   5.972   5.376   3.295  1.9969 -1.5909 -1.6940
  116SAPE   C2312165   5.833   4.984   3.419 -0.6137 -0.2292  0.8791
  116SAPE   H3R12166   5.815   4.890   3.475 -2.2222 -0.1860  0.4587
  116SAPE   H3S12167   5.739   5.004   3.364 -1.0397 -2.7949  0.5736
  116SAPE   C2412168   5.863   5.108   3.501  0.2213  0.4433  0.1904
  116SAPE   H4R12169   5.767   5.133   3.551  1.4895 -0.7376  3.4676
  116SAPE   H4S12170   5.892   5.191   3.432  1.4448 -0.3071 -0.2405
  116SAPE   C2512171   5.980   5.089   3.595 -0.5039  0.4271  0.1171
  116SAPE   H5R12172   6.079   5.114   3.553 -0.5053 -0.3857 -0.4173
  116SAPE   C2612173   5.973   5.058   3.727  0.6251  0.0051  0.0613
  116SAPE   H6R12174   6.063   5.019   3.777  0.7956  0.7275  0.3238
  116SAPE   C2712175   5.854   5.041   3.817  0.6424 -0.2518  0.4277
  116SAPE   H7R12176   5.855   4.938   3.858 -3.3375 -1.5175 -2.0639
  116SAPE   H7S12177   5.765   5.058   3.753  1.1155  2.0013  0.2698
  116SAPE   C2812178   5.866   5.149   3.924 -0.2956 -0.6304  0.3969
  116SAPE   H8R12179   5.853   5.248   3.877  1.0726 -0.7219 -0.2271
  116SAPE   C2912180   5.877   5.147   4.056 -0.2691  0.4225  0.3222
  116SAPE   H9R12181   5.888   5.242   4.110  1.5519 -0.2100  1.1442
  116SAPE  C21012182   5.903   5.017   4.134 -0.6349 -0.1385  0.5563
  116SAPE  H10R12183   6.011   5.010   4.160 -0.2357 -0.6528 -1.0799
  116SAPE  H10S12184   5.897   4.934   4.061  0.4408  0.6219 -0.4525
  116SAPE  C21112185   5.808   4.991   4.249  0.1615  0.1733 -0.3118
  116SAPE  H11R12186   5.712   4.953   4.210 -0.8067  0.4171  1.7204
  116SAPE  C21212187   5.814   5.019   4.378  0.1671 -0.1466  0.0648
  116SAPE  H12R12188   5.727   4.997   4.441  0.1358  0.1614  0.1332
  116SAPE  C21312189   5.936   5.058   4.455 -0.3110 -0.4408  0.0345
  116SAPE  H13R12190   5.899   5.145   4.512 -1.6589 -0.2374 -1.0803
  116SAPE  H13S12191   6.011   5.108   4.390  1.4437 -2.1315  0.6709
  116SAPE  C21412192   6.004   4.959   4.546 -0.2299 -0.0531 -0.1133
  116SAPE  H14R12193   6.066   4.883   4.497  1.7265  0.4211  1.4790
  116SAPE  C21512194   6.014   4.953   4.677  0.0810  0.0284  0.9318
  116SAPE  H15R12195   6.059   4.862   4.718 -1.1799 -0.6179  0.9408
  116SAPE  C21612196   5.943   5.037   4.786  0.1879  0.3589  0.1917
  116SAPE  H16R12197   5.856   5.096   4.751 -1.9078 -1.9561  1.1207
  116SAPE  H16S12198   6.015   5.103   4.839  1.9702 -1.1391 -0.2442
  116SAPE  C21712199   5.881   4.943   4.874  0.8496  0.3529  0.1952
  116SAPE  H17R12200   5.955   4.864   4.897  2.0829  1.6924  1.0023
  116SAPE  H17S12201   5.795   4.892   4.825  0.3578 -1.4210  2.6953
  116SAPE  C21812202   5.816   5.004   4.998  0.0479  0.2991 -0.1956
  116SAPE  H18R12203   5.722   5.060   4.978 -0.0029  0.3788  0.2433
  116SAPE  H18S12204   5.892   5.069   5.046  1.2528 -1.8818  1.0187
  116SAPE  C21912205   5.785   4.897   5.092  0.4086  0.6080 -0.3478
  116SAPE  H19R12206   5.883   4.857   5.125  0.8159  1.7105 -0.1600
  116SAPE  H19S12207   5.741   4.808   5.042 -1.0666  1.2072 -0.1663
  116SAPE  C22012208   5.702   4.939   5.204 -0.3341 -0.3200 -0.0599
  116SAPE  H20R12209   5.616   4.993   5.157 -0.1106 -0.3691 -0.5345
  116SAPE  H20S12210   5.758   5.017   5.260 -1.0321  0.0439  0.1422
  116SAPE  H20T12211   5.661   4.855   5.263  1.7823 -1.8882 -0.6877
  116SAPE   C3312212   5.820   5.539   3.253 -0.0200 -0.3761 -1.4740
  116SAPE   H3X12213   5.729   5.476   3.238 -0.9994  0.0200  1.9478
  116SAPE   H3Y12214   5.820   5.623   3.180 -0.0102 -0.1683 -1.2377
  116SAPE   C3412215   5.820   5.579   3.399 -0.0572  0.0311 -0.3064
  116SAPE   H4X12216   5.927   5.603   3.420  0.0167 -1.0901  0.7785
  116SAPE   H4Y12217   5.793   5.494   3.466 -0.4056 -0.1584 -0.6859
  116SAPE   C3512218   5.738   5.700   3.439  0.4526  0.4617  0.1978
  116SAPE   H5X12219   5.635   5.660   3.449  0.2307  1.1160  0.6190
  116SAPE   H5Y12220   5.746   5.780   3.361 -2.2165 -0.5576 -1.2681
  116SAPE   C3612221   5.779   5.768   3.573  0.2269 -0.5366  0.7664
  116SAPE   H6X12222   5.800   5.693   3.652  2.8420 -0.3120  0.3723
  116SAPE   H6Y12223   5.684   5.818   3.600 -0.4382 -0.2274 -1.8234
  116SAPE   C3712224   5.900   5.856   3.555 -0.3046 -0.8734  0.2703
  116SAPE   H7X12225   5.877   5.940   3.486 -0.8102 -1.3562 -0.1581
  116SAPE   H7Y12226   5.983   5.800   3.506  0.4217 -1.0885  1.6860
  116SAPE   C3812227   5.932   5.910   3.685 -0.1434  0.5437 -0.0902
  116SAPE   H8X12228   5.912   5.833   3.762 -0.7309  1.4365  0.6759
  116SAPE   H8Y12229   5.863   5.991   3.716  0.5998  0.8333  0.8670
  116SAPE   C3912230   6.082   5.963   3.694  0.3039 -0.9825 -0.2820
  116SAPE   H9X12231   6.097   6.055   3.634  2.7604 -0.2301  1.3005
  116SAPE   H9Y12232   6.147   5.878   3.663 -0.1212 -1.2477 -0.4512
  116SAPE  C31012233   6.121   6.019   3.831  0.6605 -0.1678 -0.1127
  116SAPE  H10X12234   6.051   6.105   3.844  1.1690  0.9334 -3.5589
  116SAPE  H10Y12235   6.216   6.076   3.826  0.1795  0.9513  2.0586
  116SAPE  C31112236   6.104   5.910   3.939  0.4753 -0.0014  0.1796
  116SAPE  H11X12237   6.173   5.833   3.899 -0.3474  0.3265 -1.9854
  116SAPE  H11Y12238   6.000   5.873   3.951  1.2126 -2.4843 -0.4199
  116SAPE  C31212239   6.156   5.972   4.066 -0.0196 -0.0274 -0.3641
  116SAPE  H12X12240   6.085   6.053   4.094 -1.7705 -1.2352 -1.1123
  116SAPE  H12Y12241   6.258   6.016   4.061  0.7040 -1.3647  1.7093
  116SAPE  C31312242   6.154   5.875   4.182 -0.2841 -1.0728 -0.5093
  116SAPE  H13X12243   6.244   5.809   4.182  1.6579  1.3462 -2.4818
  116SAPE  H13Y12244   6.060   5.818   4.175 -1.7607  1.2068 -0.4048
  116SAPE  C31412245   6.155   5.947   4.320 -0.2324  0.3532  0.3553
  116SAPE  H14X12246   6.101   6.044   4.317  1.6694  1.4271 -1.2341
  116SAPE  H14Y12247   6.260   5.978   4.340 -0.4520  0.2925  1.7099
  116SAPE  C31512248   6.103   5.854   4.437 -0.6061  0.3641 -0.8577
  116SAPE  H15X12249   6.153   5.755   4.445  0.2283  0.8201 -0.3629
  116SAPE  H15Y12250   5.997   5.834   4.409 -1.2906  2.4023  0.1021
  116SAPE  C31612251   6.091   5.919   4.569  0.1219 -0.4249 -0.4810
  116SAPE  H16X12252   6.043   6.017   4.548  1.9914  0.6659  0.1452
  116SAPE  H16Y12253   6.183   5.934   4.630 -0.7735 -0.3913  0.9181
  116SAPE  C31712254   5.998   5.839   4.660 -0.1265 -0.3991 -0.3990
  116SAPE  H17X12255   5.907   5.810   4.603  0.2645 -2.8401  0.1165
  116SAPE  H17Y12256   5.968   5.917   4.733 -0.5970 -0.1748 -0.8176
  116SAPE  C31812257   6.070   5.724   4.747  0.7423 -0.3437 -0.6391
  116SAPE  H18X12258   6.163   5.694   4.696  1.6957  0.0761  0.7992
  116SAPE  H18Y12259   6.010   5.632   4.763 -1.3196  1.0457  0.1715
  116SAPE  H18Z12260   6.105   5.760   4.846  1.5715  0.6202 -1.2610
  117SOPE     N12261   0.844   3.251   7.330 -0.0620  0.0939 -0.0110
  117SOPE   HN112262   0.824   3.296   7.422  1.4056  0.3104  0.2281
  117SOPE   HN212263   0.777   3.176   7.307 -1.8795  2.4255 -2.9157
  117SOPE   HN312264   0.936   3.204   7.346  0.3399  0.1862 -1.8707
  117SOPE   C1212265   0.849   3.363   7.229  0.1874 -0.0719  0.0348
  117SOPE  H12A12266   0.877   3.314   7.133 -0.3429 -0.6546  0.1711
  117SOPE  H12B12267   0.920   3.441   7.264 -0.6828  0.7961 -0.1009
  117SOPE   C1112268   0.700   3.427   7.223 -0.1312 -0.0057  0.0053
  117SOPE  H11A12269   0.694   3.507   7.146  0.6295 -1.2895 -1.4322
  117SOPE  H11B12270   0.693   3.462   7.329 -1.9619 -0.7323  0.1587
  117SOPE     P12271   0.466   3.318   7.257  0.5685  0.0502 -0.2624
  117SOPE   O1312272   0.493   3.308   7.398  0.2879  0.2674  0.4141
  117SOPE   O1412273   0.390   3.202   7.196 -0.0220 -0.7051 -0.4187
  117SOPE   O1212274   0.605   3.327   7.184 -0.2856  0.2646 -0.2838
  117SOPE   O1112275   0.401   3.460   7.212 -0.1526  0.3793 -0.1094
  117SOPE    C112276   0.283   3.499   7.283  0.5760 -0.0578 -0.5748
  117SOPE    HA12277   0.289   3.608   7.302 -2.0686  0.1413 -0.5855
  117SOPE    HB12278   0.255   3.437   7.371  0.4773  1.3511  0.4163
  117SOPE    C212279   0.167   3.480   7.183 -0.6765  0.3669  0.2569
  117SOPE    HS12280   0.162   3.370   7.168 -4.5486  0.3963  0.2359
  117SOPE   O2112281   0.190   3.551   7.057  0.3153 -0.2263 -0.0552
  117SOPE   C2112282   0.167   3.483   6.948 -0.0284 -0.0652 -0.3519
  117SOPE   O2212283   0.160   3.365   6.933  0.0540  0.4924  0.6778
  117SOPE   C2212284   0.148   3.589   6.830 -0.7531  0.5091 -0.4485
  117SOPE   H2R12285   0.250   3.598   6.787 -0.4917  1.3828  0.3265
  117SOPE   H2S12286   0.114   3.685   6.874  0.3428 -0.0398  1.7591
  117SOPE    C312287   0.033   3.511   7.255  0.3481  0.1513  0.0537
  117SOPE    HX12288   0.020   3.620   7.273  0.7396  0.1360  0.4559
  117SOPE    HY12289   0.046   3.456   7.350  0.3425 -0.7941 -0.4790
  117SOPE   O3112290  -0.081   3.486   7.170  0.5335 -0.0479 -0.5455
  117SOPE   C3112291  -0.151   3.375   7.189  0.5073 -0.0187  0.0096
  117SOPE   O3212292  -0.118   3.282   7.262 -0.5366 -0.2038  0.5905
  117SOPE   C3212293  -0.272   3.373   7.098  0.0587 -0.2156  0.5449
  117SOPE   H2X12294  -0.361   3.423   7.141  1.2388  1.2760  1.3429
  117SOPE   H2Y12295  -0.307   3.268   7.088  1.4104 -0.5882 -0.5762
  117SOPE   C2312296   0.051   3.554   6.714 -1.0952  0.8625  0.0934
  117SOPE   H3R12297  -0.055   3.544   6.748 -0.9799  0.9666  0.4795
  117SOPE   H3S12298   0.086   3.461   6.665 -2.2586 -0.5228  1.7542
  117SOPE   C2412299   0.046   3.655   6.595 -0.0771  0.4747 -0.2878
  117SOPE   H4R12300   0.018   3.753   6.639 -2.3086 -0.6639  0.9928
  117SOPE   H4S12301   0.148   3.657   6.551  1.0256  1.7397  2.1682
  117SOPE   C2512302  -0.073   3.618   6.498 -0.0225  0.1843 -0.0809
  117SOPE   H5R12303  -0.074   3.508   6.487  0.5408  0.1901 -0.2158
  117SOPE   H5S12304  -0.166   3.645   6.551 -1.7790  1.3584 -3.4465
  117SOPE   C2612305  -0.067   3.696   6.363  0.1705  0.8468 -0.2893
  117SOPE   H6R12306  -0.044   3.799   6.396  3.4402 -0.2113  1.1862
  117SOPE   H6S12307   0.016   3.649   6.306 -0.7118  1.3050 -1.9824
  117SOPE   C2712308  -0.195   3.675   6.287 -0.3042  0.4048  0.7061
  117SOPE   H7R12309  -0.288   3.677   6.347  0.0344  0.4227  1.2385
  117SOPE   H7S12310  -0.206   3.764   6.221  0.1187 -0.6766 -0.8785
  117SOPE   C2812311  -0.195   3.543   6.216  0.4893  0.6724 -0.4577
  117SOPE   H8R12312  -0.112   3.548   6.142 -0.5252  0.9639 -1.6142
  117SOPE   H8S12313  -0.178   3.463   6.291  1.4552  0.5283 -0.8134
  117SOPE   C2912314  -0.327   3.518   6.152  0.1575 -0.6815  0.5679
  117SOPE   H9112315  -0.418   3.511   6.214 -0.1259  1.7023  0.5040
  117SOPE  C21012316  -0.343   3.490   6.024  0.8456 -0.0298  0.5796
  117SOPE  H10112317  -0.445   3.463   5.990  1.2885 -1.2859  0.2026
  117SOPE  C21112318  -0.237   3.491   5.914  0.4038  0.8032 -0.1880
  117SOPE  H11R12319  -0.243   3.387   5.876 -0.1149  0.2367  1.3529
  117SOPE  H11S12320  -0.137   3.518   5.954  0.6907 -2.0122  1.2214
  117SOPE  C21212321  -0.276   3.591   5.801 -0.6455 -0.6122  0.2590
  117SOPE  H12R12322  -0.297   3.691   5.844  1.9301  0.8288 -1.5300
  117SOPE  H12S12323  -0.366   3.564   5.742 -1.2626  0.0729  0.8810
  117SOPE  C21312324  -0.155   3.619   5.708  0.3101 -0.8219  0.7610
  117SOPE  H13R12325  -0.065   3.621   5.774  0.4084  1.2079  0.6059
  117SOPE  H13S12326  -0.169   3.721   5.668  1.5684  0.1093  2.5290
  117SOPE  C21412327  -0.136   3.520   5.593 -0.4851  0.1991  0.3744
  117SOPE  H14R12328  -0.141   3.416   5.633 -3.1097  0.8196  1.8729
  117SOPE  H14S12329  -0.037   3.530   5.543 -1.3159 -2.4518 -2.1246
  117SOPE  C21512330  -0.244   3.534   5.481  0.7206 -0.4161  0.0633
  117SOPE  H15R12331  -0.261   3.638   5.446 -2.0435  0.1745  2.7429
  117SOPE  H15S12332  -0.344   3.505   5.519  0.5462 -1.3411 -1.0749
  117SOPE  C21612333  -0.207   3.436   5.368 -0.3830  0.4191  0.1507
  117SOPE  H16R12334  -0.178   3.332   5.394 -1.2113 -0.2834 -1.5603
  117SOPE  H16S12335  -0.121   3.477   5.310 -0.5540 -0.1455 -0.5220
  117SOPE  C21712336  -0.319   3.414   5.270  0.3178 -0.3820  0.2338
  117SOPE  H17R12337  -0.407   3.362   5.313 -0.4054  1.3812  1.0063
  117SOPE  H17S12338  -0.283   3.351   5.185  2.6008  1.3093 -0.1498
  117SOPE  C21812339  -0.369   3.544   5.203 -0.1349 -0.0308 -0.2894
  117SOPE  H18R12340  -0.292   3.612   5.163  0.7785 -0.8478  0.0519
  117SOPE  H18S12341  -0.426   3.612   5.269  0.1024 -0.7919  0.7341
  117SOPE  H18T12342  -0.430   3.510   5.116 -1.8313  0.9902  0.4319
  117SOPE   C3312343  -0.256   3.426   6.952 -0.3563 -0.2234 -0.1794
  117SOPE   H3X12344  -0.159   3.390   6.911 -0.3544  0.9918 -1.3097
  117SOPE   H3Y12345  -0.248   3.536   6.946 -0.2666 -0.2771 -1.1385
  117SOPE   C3412346  -0.373   3.382   6.857 -0.0603 -0.1600 -0.8418
  117SOPE   H4X12347  -0.469   3.427   6.890  1.0768  0.0230  2.6538
  117SOPE   H4Y12348  -0.385   3.271   6.854  1.8580 -0.4547  0.6613
  117SOPE   C3512349  -0.344   3.435   6.710  0.1176  0.1912 -1.2998
  117SOPE   H5X12350  -0.243   3.402   6.680 -0.2793 -0.2385 -2.1877
  117SOPE   H5Y12351  -0.345   3.545   6.725 -0.2913  0.0198  0.0990
  117SOPE   C3612352  -0.440   3.396   6.598 -0.1752  0.0544  0.3200
  117SOPE   H6X12353  -0.456   3.286   6.593  5.2078 -0.9510 -1.9130
  117SOPE   H6Y12354  -0.403   3.425   6.497 -0.1739  0.2960  0.3892
  117SOPE   C3712355  -0.570   3.466   6.595 -0.0600 -0.2819  0.6755
  117SOPE   H7X12356  -0.548   3.575   6.591 -1.3253 -0.0519 -0.9132
  117SOPE   H7Y12357  -0.614   3.451   6.696 -2.0463  1.3144  0.1037
  117SOPE   C3812358  -0.675   3.420   6.495  0.1920 -0.6681  0.2998
  117SOPE   H8X12359  -0.773   3.470   6.511  0.8975  0.8943 -0.0307
  117SOPE   H8Y12360  -0.697   3.313   6.514 -1.0127 -0.8605 -1.8942
  117SOPE   C3912361  -0.632   3.424   6.348  0.3645  0.2594  0.3195
  117SOPE   H9X12362  -0.546   3.354   6.343 -0.8012 -1.1921  0.2079
  117SOPE   H9Y12363  -0.582   3.520   6.322 -0.1996  0.9583  1.7295
  117SOPE  C31012364  -0.752   3.398   6.255  0.1201  0.2318  0.1733
  117SOPE  H10X12365  -0.834   3.469   6.281  0.2370 -0.0106  1.2381
  117SOPE  H10Y12366  -0.787   3.295   6.278  0.4838 -0.0410 -0.4564
  117SOPE  C31112367  -0.729   3.405   6.107 -0.0835 -0.2697 -0.0784
  117SOPE  H11X12368  -0.637   3.351   6.075 -0.3198 -0.6431 -0.1385
  117SOPE  H11Y12369  -0.713   3.512   6.081 -0.9495  0.4565  2.1434
  117SOPE  C31212370  -0.843   3.352   6.013 -0.2715 -0.0603 -0.3151
  117SOPE  H12X12371  -0.921   3.429   5.991  0.2978 -0.0304 -2.5110
  117SOPE  H12Y12372  -0.884   3.266   6.070 -0.5397  1.0475  1.2215
  117SOPE  C31312373  -0.791   3.300   5.882 -0.5632  0.2943  0.3026
  117SOPE  H13X12374  -0.735   3.205   5.897 -0.2389  0.0435 -2.1413
  117SOPE  H13Y12375  -0.732   3.375   5.826  0.0209 -1.4186 -1.4807
  117SOPE  C31412376  -0.890   3.248   5.773  0.5996 -0.0838 -0.1437
  117SOPE  H14X12377  -0.846   3.199   5.683 -0.5093 -1.0230 -0.2176
  117SOPE  H14Y12378  -0.932   3.343   5.735  0.8875  1.1259  2.4147
  117SOPE  C31512379  -1.001   3.144   5.828 -0.2689  0.1570  0.3849
  117SOPE  H15X12380  -1.041   3.205   5.912  0.8619 -0.4800  1.3993
  117SOPE  H15Y12381  -0.953   3.058   5.879 -0.7041  0.7660  1.8847
  117SOPE  C31612382  -1.098   3.107   5.717  0.7369  0.3218  0.2337
  117SOPE  H16X12383  -1.101   3.197   5.651  1.6469  0.1048 -0.1124
  117SOPE  H16Y12384  -1.207   3.098   5.737  0.1449  0.8958 -2.3346
  117SOPE  C31712385  -1.059   3.003   5.608 -0.0164  1.1685  0.2652
  117SOPE  H17X12386  -1.054   2.898   5.643  2.3653  1.4490  0.9137
  117SOPE  H17Y12387  -0.954   3.027   5.583  0.1956 -1.5736 -1.9293
  117SOPE  C31812388  -1.137   3.008   5.479 -0.2242  1.1910 -0.9932
  117SOPE  H18X12389  -1.116   3.108   5.434 -1.5802  2.3542  0.8009
  117SOPE  H18Y12390  -1.246   3.007   5.498  0.0156 -0.0019  0.5047
  117SOPE  H18Z12391  -1.103   2.925   5.414 -0.1768 -1.7711  2.5124
  118SOPE     N12392   1.190   0.317   6.658  0.5380  0.4331  0.6778
  118SOPE   HN112393   1.133   0.309   6.745 -0.5722 -1.6553 -0.1808
  118SOPE   HN212394   1.249   0.233   6.644  0.0287  0.0970  0.5208
  118SOPE   HN312395   1.265   0.389   6.646  0.9641 -0.2629 -1.0968
  118SOPE   C1212396   1.086   0.321   6.553  0.2986 -0.8841  0.8151
  118SOPE  H12A12397   1.115   0.375   6.460  0.5972  1.8502  2.3949
  118SOPE  H12B12398   1.010   0.393   6.591 -1.1864 -1.4777 -0.8887
  118SOPE   C1112399   1.023   0.182   6.521 -0.5602 -0.9136  0.1480
  118SOPE  H11A12400   1.102   0.121   6.473 -0.8510 -1.9369  0.9306
  118SOPE  H11B12401   0.941   0.190   6.446 -1.7751 -0.8408  1.4369
  118SOPE     P12402   0.813   0.107   6.659  0.1451  0.2079  0.1399
  118SOPE   O1312403   0.789   0.207   6.766 -0.4935 -0.1805  0.3010
  118SOPE   O1412404   0.784  -0.034   6.698  0.3687  0.2634  0.3700
  118SOPE   O1212405   0.969   0.114   6.632  0.7966  0.3624  0.4679
  118SOPE   O1112406   0.733   0.150   6.533  0.5458  0.0516  0.3677
  118SOPE    C112407   0.674   0.049   6.448  0.7624  0.1826  0.5841
  118SOPE    HA12408   0.607   0.112   6.385 -2.7097 -1.4894  2.3438
  118SOPE    HB12409   0.619  -0.034   6.498  0.8421 -0.9425 -1.0796
  118SOPE    C212410   0.773  -0.026   6.358  0.2292 -0.0274 -0.5263
  118SOPE    HS12411   0.859  -0.063   6.418  0.6283 -0.1467 -1.1552
  118SOPE   O2112412   0.816   0.059   6.250 -0.4414  0.1629  0.2024
  118SOPE   C2112413   0.928   0.026   6.190 -0.4308  0.3825  0.3652
  118SOPE   O2212414   1.001  -0.075   6.204 -0.1947  0.3361  0.3260
  118SOPE   C2212415   0.967   0.145   6.092  0.0847  0.1572 -0.9690
  118SOPE   H2R12416   1.018   0.219   6.158 -0.4497 -0.9941  0.8069
  118SOPE   H2S12417   0.867   0.180   6.060  0.1572  0.5624 -0.7633
  118SOPE    C312418   0.710  -0.158   6.304  0.6551  0.4630  0.6508
  118SOPE    HX12419   0.689  -0.226   6.390 -1.1316  1.7092  1.2674
  118SOPE    HY12420   0.785  -0.199   6.234 -0.8851 -0.7889 -0.3360
  118SOPE   O3112421   0.580  -0.135   6.252  0.0169 -0.3050  0.7444
  118SOPE   C3112422   0.582  -0.085   6.130 -0.5806 -0.4136  0.0920
  118SOPE   O3212423   0.684  -0.096   6.063  0.5966 -0.1126  0.2557
  118SOPE   C3212424   0.444  -0.039   6.088 -0.4541  0.0965 -0.4090
  118SOPE   H2X12425   0.429   0.064   6.126  3.0174  0.3237  0.7031
  118SOPE   H2Y12426   0.373  -0.107   6.140 -0.3661 -0.5233 -1.0821
  118SOPE   C2312427   1.060   0.116   5.972  0.6773 -0.3309  0.3821
  118SOPE   H3R12428   1.153   0.082   6.023  0.9013  0.7558  0.7350
  118SOPE   H3S12429   1.090   0.199   5.904  2.4006 -0.1752  1.2668
  118SOPE   C2412430   0.985   0.010   5.881 -0.6323  0.7731  0.4631
  118SOPE   H4R12431   1.059  -0.043   5.817 -1.4685 -0.7847  0.7093
  118SOPE   H4S12432   0.955  -0.070   5.953  1.3489 -1.2025 -0.7669
  118SOPE   C2512433   0.878   0.066   5.788 -0.2894  0.4116  0.2098
  118SOPE   H5R12434   0.795   0.110   5.846  1.1070  3.7699 -0.1572
  118SOPE   H5S12435   0.905   0.157   5.731  0.3712  0.3586  0.4312
  118SOPE   C2612436   0.820  -0.049   5.701 -0.1687 -0.4398 -0.0305
  118SOPE   H6R12437   0.820  -0.147   5.753  0.3764 -0.3367  0.1775
  118SOPE   H6S12438   0.714  -0.032   5.674  0.1550 -2.4703 -3.0448
  118SOPE   C2712439   0.897  -0.068   5.573  0.2573 -0.6569  0.0069
  118SOPE   H7R12440   1.003  -0.091   5.598  0.3311  0.5795  0.9148
  118SOPE   H7S12441   0.852  -0.157   5.525 -0.4408  0.6248 -1.8358
  118SOPE   C2812442   0.884   0.048   5.479  0.2149  0.4021  0.9395
  118SOPE   H8R12443   0.775   0.068   5.487  0.2909  0.8698  0.8032
  118SOPE   H8S12444   0.944   0.131   5.522 -2.2597  1.7718  1.8937
  118SOPE   C2912445   0.920   0.012   5.333 -0.4871 -0.0487 -0.0093
  118SOPE   H9112446   0.910  -0.096   5.311 -1.1948 -0.1457  0.7389
  118SOPE  C21012447   0.970   0.090   5.238  0.4069 -0.1444  0.3195
  118SOPE  H10112448   0.946   0.055   5.137  0.4689  1.8526 -0.4312
  118SOPE  C21112449   0.988   0.243   5.240 -0.3820  0.0597  0.3130
  118SOPE  H11R12450   0.940   0.282   5.332  0.0669  2.1515 -0.2991
  118SOPE  H11S12451   0.943   0.283   5.147  1.3184  0.2612 -0.4805
  118SOPE  C21212452   1.136   0.283   5.234  0.4489 -0.0088 -0.8041
  118SOPE  H12R12453   1.133   0.391   5.262 -0.8720 -0.1217 -0.4538
  118SOPE  H12S12454   1.170   0.273   5.129 -1.0004  0.8568 -1.3956
  118SOPE  C21312455   1.228   0.218   5.339 -0.1456  0.2419  0.0478
  118SOPE  H13R12456   1.261   0.117   5.307 -0.4228  0.4313 -0.8739
  118SOPE  H13S12457   1.170   0.213   5.434  0.4594  0.3727  0.4302
  118SOPE  C21412458   1.357   0.310   5.361  0.5182  0.3015 -0.0452
  118SOPE  H14R12459   1.330   0.414   5.389  1.9947  0.9059 -0.7414
  118SOPE  H14S12460   1.416   0.310   5.267 -0.5753  1.6493 -0.7774
  118SOPE  C21512461   1.446   0.250   5.472  0.3459  0.0615  1.1444
  118SOPE  H15R12462   1.553   0.271   5.448  0.6441 -2.0975  0.3516
  118SOPE  H15S12463   1.437   0.140   5.472 -0.9946  0.1091 -1.5123
  118SOPE  C21612464   1.411   0.314   5.607  0.4396 -0.0412 -0.6575
  118SOPE  H16R12465   1.304   0.285   5.618  0.5918 -0.4862 -0.3150
  118SOPE  H16S12466   1.418   0.425   5.605 -1.8438  0.1355 -1.2651
  118SOPE  C21712467   1.490   0.260   5.722 -0.4294  0.2687 -0.3138
  118SOPE  H17R12468   1.597   0.280   5.698 -0.7033  0.5264 -1.4094
  118SOPE  H17S12469   1.470   0.151   5.722  0.1886  0.1303 -1.9273
  118SOPE  C21812470   1.461   0.328   5.858 -0.2308 -0.1077 -0.1053
  118SOPE  H18R12471   1.522   0.292   5.944 -0.6872 -0.4802  0.0718
  118SOPE  H18S12472   1.361   0.292   5.892 -0.5086  0.9866  0.2659
  118SOPE  H18T12473   1.469   0.439   5.855  2.8189 -0.2822 -2.1181
  118SOPE   C3312474   0.413  -0.043   5.943  0.6310  0.1387 -0.4051
  118SOPE   H3X12475   0.303  -0.044   5.929  0.6683  1.6526 -0.9681
  118SOPE   H3Y12476   0.441  -0.145   5.908 -1.0839 -0.5846  0.2259
  118SOPE   C3412477   0.472   0.063   5.855  0.3001 -0.7713  0.0790
  118SOPE   H4X12478   0.574   0.081   5.895 -0.4277  1.0122  1.2689
  118SOPE   H4Y12479   0.408   0.151   5.877  0.0023 -1.0430  0.3020
  118SOPE   C3512480   0.463   0.028   5.710 -0.5245  0.0758 -0.2358
  118SOPE   H5X12481   0.357  -0.001   5.693 -1.0635  1.1709  1.0728
  118SOPE   H5Y12482   0.519  -0.066   5.688 -0.7928 -0.3460  0.7986
  118SOPE   C3612483   0.488   0.143   5.612  0.2283 -0.2285 -0.4342
  118SOPE   H6X12484   0.595   0.172   5.611  0.4925 -0.5545  3.2718
  118SOPE   H6Y12485   0.421   0.231   5.627  0.6642  0.1408 -0.6374
  118SOPE   C3712486   0.464   0.096   5.466  0.5325 -0.1909  0.1505
  118SOPE   H7X12487   0.357   0.067   5.465  0.4350  0.1622 -0.0547
  118SOPE   H7Y12488   0.528   0.009   5.439  1.9310  0.7536  0.2904
  118SOPE   C3812489   0.477   0.210   5.360 -0.1166  0.1473  0.4062
  118SOPE   H8X12490   0.486   0.180   5.254 -0.8949 -0.4665  0.5117
  118SOPE   H8Y12491   0.580   0.246   5.383 -0.5712 -0.3148  3.5598
  118SOPE   C3912492   0.372   0.328   5.371 -0.0522  0.5422 -0.2915
  118SOPE   H9X12493   0.382   0.363   5.476 -1.0890 -0.7666  0.2759
  118SOPE   H9Y12494   0.268   0.291   5.358 -0.4337  1.0317  1.2190
  118SOPE  C31012495   0.395   0.460   5.287  0.5661 -0.3450  0.0628
  118SOPE  H10X12496   0.473   0.523   5.336  1.2235 -0.6186 -0.6190
  118SOPE  H10Y12497   0.306   0.524   5.304  1.5311  0.7237  1.3080
  118SOPE  C31112498   0.441   0.447   5.144 -0.2179  0.5789  0.0535
  118SOPE  H11X12499   0.536   0.390   5.137 -0.3254  0.5190 -1.3329
  118SOPE  H11Y12500   0.459   0.542   5.088 -1.8422  1.8429  1.5890
  118SOPE  C31212501   0.346   0.349   5.064  0.2494  0.0291 -0.0838
  118SOPE  H12X12502   0.353   0.246   5.104  0.1997 -0.0130 -0.1826
  118SOPE  H12Y12503   0.383   0.337   4.960 -1.5329 -0.6133 -0.6880
  118SOPE  C31312504   0.204   0.393   5.055  0.1721  0.4968 -0.0486
  118SOPE  H13X12505   0.203   0.503   5.045 -0.2365  0.4836 -0.1790
  118SOPE  H13Y12506   0.133   0.363   5.136 -1.1463 -0.3490 -1.4510
  118SOPE  C31412507   0.146   0.353   4.911  0.5527 -0.4853 -0.1328
  118SOPE  H14X12508   0.153   0.245   4.882 -0.5676 -0.3935 -0.8049
  118SOPE  H14Y12509   0.214   0.412   4.845  0.2991 -0.2005 -0.1363
  118SOPE  C31512510  -0.001   0.403   4.889  0.1326  0.3992 -0.2238
  118SOPE  H15X12511  -0.014   0.513   4.900 -0.9031  0.1777  0.9607
  118SOPE  H15Y12512  -0.063   0.351   4.965  0.5578  0.3969  0.1293
  118SOPE  C31612513  -0.052   0.358   4.754 -0.1905 -0.5548 -0.0813
  118SOPE  H16X12514  -0.051   0.247   4.752 -4.0248 -0.7003 -0.3671
  118SOPE  H16Y12515   0.020   0.386   4.674  0.7819 -0.8561  0.6687
  118SOPE  C31712516  -0.194   0.414   4.728 -1.0187 -0.1619 -0.2537
  118SOPE  H17X12517  -0.261   0.356   4.795  1.3768 -2.3235  0.4404
  118SOPE  H17Y12518  -0.224   0.393   4.623  1.3074  3.3493 -1.7924
  118SOPE  C31812519  -0.202   0.565   4.746 -0.0618  0.1174 -0.2204
  118SOPE  H18X12520  -0.209   0.589   4.854  1.7042 -1.4839  0.3076
  118SOPE  H18Y12521  -0.291   0.594   4.686  0.0697 -0.3263 -0.6337
  118SOPE  H18Z12522  -0.117   0.607   4.689 -1.1418 -0.6472 -2.5480
  119SOPE     N12523   3.599   6.931   6.896  0.0863 -0.2060 -0.3664
  119SOPE   HN112524   3.658   6.850   6.926 -0.9552 -0.9079 -0.1528
  119SOPE   HN212525   3.678   6.998   6.885 -0.4601  0.3177 -1.1478
  119SOPE   HN312526   3.546   6.961   6.980  1.2231  0.9565 -0.0403
  119SOPE   C1212527   3.521   6.909   6.770  0.3737 -0.0545 -0.0824
  119SOPE  H12A12528   3.596   6.876   6.695  0.3213  1.2994 -0.7718
  119SOPE  H12B12529   3.475   7.007   6.742 -0.1014 -0.8533 -2.3511
  119SOPE   C1112530   3.402   6.808   6.784 -0.9791  0.0937  0.0917
  119SOPE  H11A12531   3.384   6.786   6.676  0.7598 -3.7354  0.3940
  119SOPE  H11B12532   3.316   6.845   6.843 -0.0636 -0.5162  1.8729
  119SOPE     P12533   3.379   6.556   6.844 -0.0553  0.3262 -0.1446
  119SOPE   O1312534   3.233   6.578   6.828 -0.6398 -0.3973  0.1400
  119SOPE   O1412535   3.420   6.482   6.965  0.2988  0.1105 -0.2836
  119SOPE   O1212536   3.451   6.694   6.849 -0.1694  0.1214  0.1870
  119SOPE   O1112537   3.442   6.492   6.715  0.5369  0.0632  0.1698
  119SOPE    C112538   3.585   6.468   6.709  0.3368 -0.0723  0.1656
  119SOPE    HA12539   3.618   6.411   6.798  0.2635 -3.0877 -1.5876
  119SOPE    HB12540   3.639   6.565   6.705  0.2090  0.0227  0.6684
  119SOPE    C212541   3.613   6.394   6.578 -0.6200 -0.0969  0.4976
  119SOPE    HS12542   3.723   6.397   6.567 -0.6635 -2.3927 -1.3129
  119SOPE   O2112543   3.545   6.458   6.470 -0.5808  0.4588 -0.5528
  119SOPE   C2112544   3.590   6.568   6.423  0.3110  0.3979 -0.3789
  119SOPE   O2212545   3.684   6.630   6.470 -0.0663  0.3123  0.2804
  119SOPE   C2212546   3.508   6.610   6.307  0.1124  0.0341  0.2835
  119SOPE   H2R12547   3.441   6.685   6.353 -0.8648 -2.4345  3.2209
  119SOPE   H2S12548   3.442   6.527   6.273  1.0921 -0.9676  0.7827
  119SOPE    C312549   3.583   6.249   6.587 -0.0399  0.1560  0.0860
  119SOPE    HX12550   3.475   6.232   6.606 -0.4162 -1.2710 -2.8098
  119SOPE    HY12551   3.639   6.219   6.678  1.2412  0.9602 -0.4089
  119SOPE   O3112552   3.623   6.179   6.477 -0.3626 -0.0512  0.2024
  119SOPE   C3112553   3.535   6.152   6.382  0.5091 -0.1757 -0.2741
  119SOPE   O3212554   3.414   6.165   6.394  0.0952 -0.1472 -0.4599
  119SOPE   C3212555   3.613   6.090   6.265 -0.2384  0.2338 -0.3875
  119SOPE   H2X12556   3.643   5.992   6.306  0.2021 -0.2859 -1.9046
  119SOPE   H2Y12557   3.704   6.153   6.252  0.0386  0.6627  2.7769
  119SOPE   C2312558   3.583   6.673   6.192 -0.1276  0.1318 -0.4595
  119SOPE   H3R12559   3.663   6.742   6.227 -0.8313  1.3471 -1.1801
  119SOPE   H3S12560   3.509   6.736   6.137  0.6250  0.7367 -0.7962
  119SOPE   C2412561   3.638   6.574   6.088  0.6317  0.5497  0.4607
  119SOPE   H4R12562   3.687   6.634   6.008 -1.1094  1.0424 -0.2804
  119SOPE   H4S12563   3.716   6.507   6.130 -1.0885 -2.5253 -0.9505
  119SOPE   C2512564   3.524   6.499   6.021  0.3388  0.3997 -0.1887
  119SOPE   H5R12565   3.473   6.430   6.091  0.1049 -0.3945 -1.1252
  119SOPE   H5S12566   3.455   6.579   5.988  2.2244  2.5570  0.7893
  119SOPE   C2612567   3.565   6.416   5.896 -1.0761  0.4730 -0.4288
  119SOPE   H6R12568   3.657   6.357   5.919 -0.7976  0.8162 -0.6368
  119SOPE   H6S12569   3.475   6.357   5.870 -0.5199 -0.1346 -1.0427
  119SOPE   C2712570   3.595   6.512   5.775 -0.6658  0.3742  0.6967
  119SOPE   H7R12571   3.519   6.581   5.733 -0.5457 -1.5375 -3.0324
  119SOPE   H7S12572   3.667   6.582   5.824  0.1207  0.4198 -0.4786
  119SOPE   C2812573   3.668   6.444   5.648  0.0482 -0.3034 -0.4899
  119SOPE   H8R12574   3.707   6.523   5.582  0.1895 -1.1846 -1.4889
  119SOPE   H8S12575   3.761   6.390   5.676 -0.7409 -1.3810  0.1466
  119SOPE   C2912576   3.577   6.347   5.572 -0.4934  0.3961 -0.4966
  119SOPE   H9112577   3.479   6.323   5.616  0.1259  0.5458  1.0361
  119SOPE  C21012578   3.602   6.289   5.454 -0.3130 -0.3649  0.1381
  119SOPE  H10112579   3.531   6.213   5.417 -0.4008  0.9879 -2.7957
  119SOPE  C21112580   3.729   6.286   5.369 -0.5842 -0.0582 -0.6501
  119SOPE  H11R12581   3.747   6.183   5.331  1.3340 -0.3094  0.7770
  119SOPE  H11S12582   3.816   6.317   5.431 -1.6566  0.4125  0.6531
  119SOPE  C21212583   3.724   6.379   5.250 -0.6092  0.0344  0.2554
  119SOPE  H12R12584   3.829   6.392   5.216 -0.7748  1.4437  0.2262
  119SOPE  H12S12585   3.702   6.484   5.277 -0.7460  0.1867 -0.4417
  119SOPE  C21312586   3.641   6.326   5.131  0.5109  0.6817  0.0730
  119SOPE  H13R12587   3.562   6.253   5.160  1.2065  0.1132  0.5531
  119SOPE  H13S12588   3.710   6.272   5.063  0.7355  0.2373  0.6465
  119SOPE  C21412589   3.552   6.434   5.071 -0.2610  0.4079  0.0750
  119SOPE  H14R12590   3.605   6.517   5.020  1.1906 -0.6587 -0.2098
  119SOPE  H14S12591   3.510   6.490   5.157 -1.0935  0.3413 -0.2792
  119SOPE  C21512592   3.442   6.379   4.980  0.4169 -0.8642  0.8007
  119SOPE  H15R12593   3.356   6.449   4.975  1.9398  1.0066 -1.2678
  119SOPE  H15S12594   3.406   6.279   5.013  0.6822 -1.5558 -0.8849
  119SOPE  C21612595   3.486   6.373   4.832 -1.1445  0.6253  0.2711
  119SOPE  H16R12596   3.576   6.307   4.825 -1.1669  0.6835 -0.8727
  119SOPE  H16S12597   3.523   6.474   4.805 -1.0650  0.5602  0.1303
  119SOPE  C21712598   3.381   6.320   4.733 -0.2132  0.3119  0.2719
  119SOPE  H17R12599   3.295   6.389   4.748 -0.6009  0.4304 -2.0617
  119SOPE  H17S12600   3.351   6.217   4.760 -0.6024  0.8644  2.1088
  119SOPE  C21812601   3.421   6.324   4.582  0.4133 -0.1536 -0.0044
  119SOPE  H18R12602   3.458   6.426   4.561  1.3017 -0.3175  0.7033
  119SOPE  H18S12603   3.337   6.302   4.513  0.0415  0.5489  0.2131
  119SOPE  H18T12604   3.505   6.258   4.553 -0.2835 -0.8193 -0.5626
  119SOPE   C3312605   3.543   6.085   6.129 -0.2844 -0.1243  0.2479
  119SOPE   H3X12606   3.530   6.194   6.109  1.9764 -0.0218 -1.0556
  119SOPE   H3Y12607   3.442   6.039   6.133 -0.6359  0.1400 -2.9082
  119SOPE   C3412608   3.631   6.006   6.024 -0.2218  0.3862 -0.2670
  119SOPE   H4X12609   3.656   5.903   6.058 -0.7627  0.3357 -0.0130
  119SOPE   H4Y12610   3.723   6.068   6.031 -0.5327  0.7098  1.3566
  119SOPE   C3512611   3.578   6.007   5.879 -0.2645 -0.3337  0.1773
  119SOPE   H5X12612   3.583   6.111   5.841 -1.8967 -1.0540 -2.2350
  119SOPE   H5Y12613   3.472   5.972   5.878 -1.4153  2.7925  0.9674
  119SOPE   C3612614   3.662   5.916   5.784  0.3905  0.1214  0.4408
  119SOPE   H6X12615   3.658   5.818   5.836  0.7060  0.1950  0.6035
  119SOPE   H6Y12616   3.761   5.966   5.776 -0.2025  1.0597 -1.5852
  119SOPE   C3712617   3.597   5.901   5.641 -0.5022  0.2139  0.0886
  119SOPE   H7X12618   3.557   6.002   5.622  0.8957  0.6021 -0.9926
  119SOPE   H7Y12619   3.507   5.836   5.641 -2.1269  2.3252 -1.7522
  119SOPE   C3812620   3.687   5.874   5.524 -0.5117  0.2006 -0.4165
  119SOPE   H8X12621   3.738   5.777   5.545 -2.1330 -0.1801  2.1981
  119SOPE   H8Y12622   3.762   5.955   5.520  1.6411 -1.3366  3.6276
  119SOPE   C3912623   3.605   5.854   5.394  0.2843 -0.0312  0.6089
  119SOPE   H9X12624   3.556   5.949   5.363 -0.0776 -0.3938  0.0643
  119SOPE   H9Y12625   3.528   5.776   5.409 -0.4728  0.6840  0.5100
  119SOPE  C31012626   3.687   5.807   5.273 -0.1996 -0.0626  0.1723
  119SOPE  H10X12627   3.728   5.705   5.287  0.4579  0.1451 -0.2013
  119SOPE  H10Y12628   3.780   5.867   5.261  1.0627 -1.1227  3.4047
  119SOPE  C31112629   3.610   5.803   5.140 -0.2600 -0.9351 -0.1921
  119SOPE  H11X12630   3.586   5.909   5.118 -0.1134 -0.9949 -0.6346
  119SOPE  H11Y12631   3.515   5.746   5.141  0.0734 -1.5196 -1.2254
  119SOPE  C31212632   3.704   5.747   5.030  0.4230  0.3753 -0.3260
  119SOPE  H12X12633   3.706   5.637   5.040  2.4846  0.2193 -1.7632
  119SOPE  H12Y12634   3.804   5.793   5.048  0.0253  0.9622  0.4528
  119SOPE  C31312635   3.661   5.780   4.882 -0.4521 -0.2784 -0.1477
  119SOPE  H13X12636   3.552   5.770   4.862 -0.6929  3.5713 -1.5785
  119SOPE  H13Y12637   3.714   5.709   4.815  0.6369 -0.5305  0.9270
  119SOPE  C31412638   3.693   5.923   4.834 -0.0299 -0.3819  0.0244
  119SOPE  H14X12639   3.799   5.928   4.799 -0.2175 -1.3174 -0.7225
  119SOPE  H14Y12640   3.693   5.986   4.926  2.5511 -0.6634  0.2871
  119SOPE  C31512641   3.601   5.977   4.717 -0.1233 -0.4585  0.4554
  119SOPE  H15X12642   3.614   6.086   4.700 -0.4423 -0.5293 -0.2929
  119SOPE  H15Y12643   3.501   5.948   4.757 -2.0219  0.4981 -3.1352
  119SOPE  C31612644   3.620   5.902   4.584 -0.3243  0.5478  0.1679
  119SOPE  H16X12645   3.637   5.793   4.600 -4.3297 -0.2636 -0.1545
  119SOPE  H16Y12646   3.707   5.938   4.525  1.1618 -1.6153  0.9182
  119SOPE  C31712647   3.496   5.908   4.489 -0.4540 -0.4955 -0.5776
  119SOPE  H17X12648   3.464   6.015   4.488 -0.0739 -0.2884  2.1205
  119SOPE  H17Y12649   3.427   5.841   4.543  0.9296 -1.7902 -0.3505
  119SOPE  C31812650   3.520   5.863   4.353 -0.0890  0.0961 -0.4647
  119SOPE  H18X12651   3.610   5.903   4.301 -0.7577  0.9537 -0.9745
  119SOPE  H18Y12652   3.441   5.867   4.275 -0.1273  0.8471 -0.3949
  119SOPE  H18Z12653   3.539   5.753   4.355  0.5400  0.1298 -2.1850
  120SOPE     N12654   5.028   4.393   6.919  0.6312  0.4566  0.1386
  120SOPE   HN112655   5.095   4.455   6.869  0.5695  1.4935  1.2832
  120SOPE   HN212656   4.972   4.444   6.991  1.6144  0.1280  1.1538
  120SOPE   HN312657   5.074   4.313   6.966  0.1970  0.2948  0.2947
  120SOPE   C1212658   4.939   4.324   6.816 -0.5595 -0.0169  0.2232
  120SOPE  H12A12659   4.909   4.231   6.869 -1.0291 -0.2427 -0.4230
  120SOPE  H12B12660   4.991   4.296   6.722  0.0785 -1.9936  1.1102
  120SOPE   C1112661   4.813   4.406   6.783 -0.6742  0.2503 -0.2225
  120SOPE  H11A12662   4.756   4.355   6.702 -2.2446 -0.9476  1.5630
  120SOPE  H11B12663   4.834   4.505   6.738 -0.1721 -0.4060 -1.4829
  120SOPE     P12664   4.628   4.326   6.959  0.2622  0.3439 -0.4425
  120SOPE   O1312665   4.513   4.408   7.001 -0.4571  0.4078 -0.1051
  120SOPE   O1412666   4.693   4.241   7.060  0.7038  0.1893  0.4782
  120SOPE   O1212667   4.739   4.429   6.903  0.2138 -0.4780  0.8061
  120SOPE   O1112668   4.593   4.228   6.839 -0.1915 -0.1291  0.2541
  120SOPE    C112669   4.457   4.198   6.795  0.5145 -0.3336 -0.7229
  120SOPE    HA12670   4.386   4.215   6.879 -0.6227 -1.0093 -1.5095
  120SOPE    HB12671   4.452   4.088   6.777  0.6022 -0.6220  0.8588
  120SOPE    C212672   4.408   4.279   6.666  0.3476 -0.1931  0.0053
  120SOPE    HS12673   4.323   4.220   6.625  0.2320 -0.5193  0.6985
  120SOPE   O2112674   4.511   4.293   6.568  0.3843 -0.0863  0.3619
  120SOPE   C2112675   4.477   4.282   6.439 -0.2693  0.3837  0.2447
  120SOPE   O2212676   4.363   4.256   6.399 -0.1406  0.2925  0.1976
  120SOPE   C2212677   4.605   4.295   6.357 -0.3289  0.0616  0.4725
  120SOPE   H2R12678   4.691   4.257   6.417 -1.2976 -1.8417  0.7367
  120SOPE   H2S12679   4.611   4.405   6.347  0.4732  0.2573  2.5120
  120SOPE    C312680   4.356   4.419   6.699 -0.6030  0.2680 -0.2077
  120SOPE    HX12681   4.447   4.470   6.738 -0.6895  0.9551 -0.8762
  120SOPE    HY12682   4.279   4.414   6.779  0.2903 -0.2685  0.6434
  120SOPE   O3112683   4.315   4.482   6.582  0.3821 -0.6804 -0.1630
  120SOPE   C3112684   4.261   4.599   6.607 -0.2329 -0.6124 -0.8986
  120SOPE   O3212685   4.230   4.639   6.718  0.0120  0.4581 -0.3196
  120SOPE   C3212686   4.190   4.652   6.482  0.0917  0.4097  0.2381
  120SOPE   H2X12687   4.126   4.737   6.515 -1.5011 -1.1169  1.2804
  120SOPE   H2Y12688   4.121   4.570   6.451  1.9065 -0.0200 -3.0328
  120SOPE   C2312689   4.599   4.240   6.218  0.1865  0.2172 -0.1327
  120SOPE   H3R12690   4.518   4.289   6.160 -0.3767 -1.6653 -1.0273
  120SOPE   H3S12691   4.574   4.132   6.215 -1.5949  0.3098  3.8309
  120SOPE   C2412692   4.738   4.259   6.144 -0.2227  0.7183 -0.2098
  120SOPE   H4R12693   4.711   4.258   6.036 -1.2779 -0.9945  0.0348
  120SOPE   H4S12694   4.787   4.353   6.177  0.1189  1.1077 -1.7609
  120SOPE   C2512695   4.838   4.149   6.166  0.0253 -0.3533 -0.2206
  120SOPE   H5R12696   4.869   4.154   6.273  0.3197  0.3150 -0.3367
  120SOPE   H5S12697   4.806   4.045   6.143  0.6822 -0.4377 -0.7673
  120SOPE   C2612698   4.961   4.164   6.083 -0.6583  0.1437 -0.7797
  120SOPE   H6R12699   5.029   4.248   6.109 -1.9109  1.1857 -0.7856
  120SOPE   H6S12700   5.033   4.079   6.090  2.1338  2.4875  1.6096
  120SOPE   C2712701   4.928   4.182   5.934 -0.1867  0.1785 -0.3150
  120SOPE   H7R12702   4.845   4.112   5.910  0.1530 -0.2504 -0.2639
  120SOPE   H7S12703   4.893   4.287   5.924  0.7127  0.4433 -0.8068
  120SOPE   C2812704   5.049   4.167   5.844  0.1099 -0.5414  0.2028
  120SOPE   H8R12705   5.128   4.233   5.886 -0.5269 -0.6537  1.6279
  120SOPE   H8S12706   5.081   4.061   5.857 -0.2510 -0.8579 -1.3053
  120SOPE   C2912707   5.025   4.202   5.697  0.3337 -0.0728  0.2023
  120SOPE   H9112708   4.944   4.276   5.683  0.2106 -0.6868 -3.2351
  120SOPE  C21012709   5.098   4.155   5.598 -0.1810  0.9430 -0.0235
  120SOPE  H10112710   5.087   4.192   5.495 -0.8578 -0.7752 -0.6142
  120SOPE  C21112711   5.207   4.054   5.620  0.0868 -0.0487 -0.5090
  120SOPE  H11R12712   5.210   3.982   5.536 -1.3007  0.0245 -0.6344
  120SOPE  H11S12713   5.201   4.006   5.720 -0.1557  0.8643 -0.0657
  120SOPE  C21212714   5.344   4.142   5.624  0.6560 -0.3006 -0.3894
  120SOPE  H12R12715   5.350   4.200   5.719  1.4924 -0.6786 -0.2010
  120SOPE  H12S12716   5.338   4.218   5.543 -1.1835  1.1600  1.0275
  120SOPE  C21312717   5.474   4.065   5.610 -0.8290 -0.1040  0.1837
  120SOPE  H13R12718   5.470   4.014   5.511  0.1178 -2.4946  1.2898
  120SOPE  H13S12719   5.472   3.979   5.680 -1.4384 -0.0847  0.1905
  120SOPE  C21412720   5.606   4.149   5.641 -0.0055 -0.7307 -0.1612
  120SOPE  H14R12721   5.609   4.166   5.750 -0.4787 -2.7881  0.2141
  120SOPE  H14S12722   5.595   4.251   5.598  0.7980  0.8316  3.0991
  120SOPE  C21512723   5.740   4.075   5.588  0.0660  0.4943  0.1651
  120SOPE  H15R12724   5.744   3.985   5.654 -3.0526  0.3631  0.2925
  120SOPE  H15S12725   5.829   4.136   5.617  1.0286 -1.2967  1.1359
  120SOPE  C21612726   5.738   4.032   5.438 -0.3275  0.0852  0.1890
  120SOPE  H16R12727   5.710   4.117   5.371 -0.9554  0.3879  0.8247
  120SOPE  H16S12728   5.661   3.954   5.419 -0.0500 -0.0587 -0.3665
  120SOPE  C21712729   5.880   3.982   5.384  0.7567  0.0199  0.0029
  120SOPE  H17R12730   5.940   4.075   5.391 -1.7421  1.6009  2.3556
  120SOPE  H17S12731   5.861   3.954   5.278 -0.3165  0.8409 -0.0373
  120SOPE  C21812732   5.939   3.870   5.466  0.1106 -0.1365  0.5403
  120SOPE  H18R12733   5.864   3.789   5.472  1.9516 -2.0024 -0.2855
  120SOPE  H18S12734   5.985   3.906   5.561  1.9242 -1.9820  0.4393
  120SOPE  H18T12735   6.019   3.818   5.409  0.1681 -1.2948  1.6239
  120SOPE   C3312736   4.292   4.678   6.365  0.5013 -0.2525  0.0936
  120SOPE   H3X12737   4.349   4.584   6.347 -1.6245 -2.2921  2.8465
  120SOPE   H3Y12738   4.361   4.761   6.389  1.6339 -1.1144 -0.0675
  120SOPE   C3412739   4.199   4.704   6.248  0.0042  0.6361  0.4554
  120SOPE   H4X12740   4.122   4.782   6.272 -0.1833  0.0230  1.9293
  120SOPE   H4Y12741   4.148   4.609   6.221  2.5828 -0.4134 -0.9997
  120SOPE   C3512742   4.281   4.748   6.121 -0.2789  0.2519 -0.7103
  120SOPE   H5X12743   4.327   4.652   6.093  0.6171  0.6666 -0.6917
  120SOPE   H5Y12744   4.368   4.813   6.144  0.4263 -0.6761 -0.7323
  120SOPE   C3612745   4.192   4.798   6.005  0.5067 -0.0971 -0.1777
  120SOPE   H6X12746   4.141   4.892   6.034  0.8424 -0.6047  2.3163
  120SOPE   H6Y12747   4.124   4.712   5.988  0.4977 -0.1130 -0.0575
  120SOPE   C3712748   4.271   4.830   5.877 -0.6973 -0.9513 -0.9607
  120SOPE   H7X12749   4.272   4.733   5.822 -1.8809 -1.3984 -0.2370
  120SOPE   H7Y12750   4.379   4.840   5.901 -0.6725 -2.4661 -0.2756
  120SOPE   C3812751   4.218   4.942   5.795 -0.6488  0.0592  0.1632
  120SOPE   H8X12752   4.244   5.037   5.845 -2.7820 -0.7044  3.0096
  120SOPE   H8Y12753   4.107   4.934   5.792 -0.5797 -0.7892 -1.8146
  120SOPE   C3912754   4.265   4.954   5.650 -0.1050  1.0686  0.0453
  120SOPE   H9X12755   4.252   4.855   5.601  0.0794  0.1572  1.7408
  120SOPE   H9Y12756   4.365   5.001   5.638  0.2544  0.9760  2.2356
  120SOPE  C31012757   4.177   5.049   5.565  0.1548  0.1434  0.2833
  120SOPE  H10X12758   4.179   5.145   5.620 -1.6270  0.0570  0.5511
  120SOPE  H10Y12759   4.076   5.003   5.562  1.0820 -2.0514  0.4059
  120SOPE  C31112760   4.220   5.078   5.420 -0.0546 -0.0040 -0.8307
  120SOPE  H11X12761   4.159   5.167   5.391  1.5071  1.3486 -0.1428
  120SOPE  H11Y12762   4.193   4.988   5.362 -0.6743  0.0313 -0.6018
  120SOPE  C31212763   4.371   5.113   5.394  0.0341 -0.1856 -1.0016
  120SOPE  H12X12764   4.443   5.032   5.417 -0.2251 -0.7651 -2.1654
  120SOPE  H12Y12765   4.396   5.197   5.463 -0.9418 -1.6802  1.2999
  120SOPE  C31312766   4.411   5.160   5.255  0.0144  0.4169  0.2861
  120SOPE  H13X12767   4.330   5.234   5.233  2.2239  2.7147 -0.5651
  120SOPE  H13Y12768   4.397   5.074   5.186  1.6452  2.2734 -2.5391
  120SOPE  C31412769   4.549   5.225   5.249 -0.4084 -0.0111  0.2666
  120SOPE  H14X12770   4.622   5.145   5.272 -0.9894 -0.5166  0.3757
  120SOPE  H14Y12771   4.572   5.309   5.319  3.3205  0.4795 -1.3189
  120SOPE  C31512772   4.573   5.278   5.105 -1.3293 -0.2491  0.5811
  120SOPE  H15X12773   4.648   5.360   5.114  0.8035 -2.1277  0.5255
  120SOPE  H15Y12774   4.479   5.328   5.073 -0.9176  1.5282  1.9658
  120SOPE  C31612775   4.613   5.169   5.005 -0.2670 -0.2286  0.2437
  120SOPE  H16X12776   4.531   5.095   4.998 -0.1042 -0.5453  1.3911
  120SOPE  H16Y12777   4.700   5.110   5.043  1.0282  0.6336 -1.2357
  120SOPE  C31712778   4.671   5.217   4.868 -0.0681  0.4167  0.1720
  120SOPE  H17X12779   4.685   5.126   4.806 -0.1618  2.3547 -2.9160
  120SOPE  H17Y12780   4.771   5.255   4.898 -0.3499 -0.9615  3.3585
  120SOPE  C31812781   4.587   5.329   4.804 -0.0888 -0.3623  0.2101
  120SOPE  H18X12782   4.632   5.333   4.702  0.4548 -1.0758  0.4105
  120SOPE  H18Y12783   4.597   5.424   4.861 -1.5085 -0.2684  0.3183
  120SOPE  H18Z12784   4.481   5.298   4.798 -0.2221  0.2829 -1.2628
  121SOPE     N12785   3.215   0.786   6.545  0.9870  0.3281 -0.3985
  121SOPE   HN112786   3.184   0.884   6.557  0.2354 -0.0759  1.2734
  121SOPE   HN212787   3.233   0.747   6.640  1.7684  1.9142  0.1364
  121SOPE   HN312788   3.300   0.790   6.485  1.5786  2.5668  0.4897
  121SOPE   C1212789   3.109   0.710   6.470 -0.0971 -0.2866 -0.2345
  121SOPE  H12A12790   3.137   0.602   6.478 -0.1421 -0.1877  2.2401
  121SOPE  H12B12791   3.117   0.740   6.364  0.1664 -1.3276 -0.5187
  121SOPE   C1112792   2.962   0.737   6.530  0.0078 -0.2340 -0.0787
  121SOPE  H11A12793   2.877   0.689   6.476  0.1111  1.2333 -1.6247
  121SOPE  H11B12794   2.951   0.846   6.515 -1.4253 -0.5642 -1.7772
  121SOPE     P12795   2.845   0.773   6.758 -0.2723 -0.1695  0.2040
  121SOPE   O1312796   2.898   0.849   6.863 -0.0448 -0.5287  0.0051
  121SOPE   O1412797   2.752   0.668   6.803 -0.3529  0.1135  0.1885
  121SOPE   O1212798   2.960   0.703   6.668 -0.1833  0.1206 -0.5457
  121SOPE   O1112799   2.771   0.875   6.659 -0.0419  0.7056 -0.4014
  121SOPE    C112800   2.633   0.912   6.662 -0.2039  0.8852  0.6316
  121SOPE    HA12801   2.625   1.002   6.727 -1.2871  1.0390  0.2982
  121SOPE    HB12802   2.570   0.829   6.701  1.6767 -0.0319  1.9350
  121SOPE    C212803   2.583   0.953   6.528  0.6712 -0.1991 -0.4582
  121SOPE    HS12804   2.478   0.982   6.549  0.9359  1.5146 -1.2937
  121SOPE   O2112805   2.595   0.837   6.448 -0.2040 -0.3970 -0.2122
  121SOPE   C2112806   2.507   0.747   6.456  0.0192  0.5820 -0.1947
  121SOPE   O2212807   2.410   0.752   6.525  0.3617 -0.2860  0.2477
  121SOPE   C2212808   2.549   0.613   6.377  0.4092 -0.3105  0.1339
  121SOPE   H2R12809   2.576   0.538   6.455  1.8929  2.1327  2.1065
  121SOPE   H2S12810   2.638   0.628   6.313  0.1153  0.1069 -0.1838
  121SOPE    C312811   2.654   1.090   6.482 -1.9426  0.0926  0.3777
  121SOPE    HX12812   2.749   1.058   6.434 -1.8944 -2.3179  1.9377
  121SOPE    HY12813   2.662   1.152   6.574 -1.7347  1.0628 -0.2738
  121SOPE   O3112814   2.563   1.146   6.383  0.0578 -0.5422 -0.0683
  121SOPE   C3112815   2.619   1.245   6.311 -0.1879  0.1280  0.9056
  121SOPE   O3212816   2.734   1.280   6.313 -0.0745 -0.2834  0.4996
  121SOPE   C3212817   2.511   1.294   6.210 -0.4428  0.0855 -0.2049
  121SOPE   H2X12818   2.543   1.396   6.180 -1.2170  0.7498  1.1638
  121SOPE   H2Y12819   2.416   1.294   6.268 -0.4366 -1.3295 -0.1674
  121SOPE   C2312820   2.437   0.545   6.291  0.4582  0.1161 -0.3514
  121SOPE   H3R12821   2.344   0.529   6.350 -0.3176 -0.5805 -1.7169
  121SOPE   H3S12822   2.474   0.449   6.248 -3.1502 -1.3146 -0.6070
  121SOPE   C2412823   2.397   0.640   6.178 -0.1629 -0.3687  0.0406
  121SOPE   H4R12824   2.333   0.728   6.202  1.0008  1.2481 -2.3867
  121SOPE   H4S12825   2.488   0.686   6.133 -1.1518  2.3153  0.6164
  121SOPE   C2512826   2.333   0.572   6.060 -0.3990  0.4358  0.0891
  121SOPE   H5R12827   2.381   0.477   6.028  0.5734  0.8207  0.3744
  121SOPE   H5S12828   2.228   0.546   6.084 -0.7286  1.5838 -0.0176
  121SOPE   C2612829   2.333   0.660   5.934 -0.1921  0.2247 -0.5485
  121SOPE   H6R12830   2.295   0.754   5.981  0.0001 -0.3834  0.8519
  121SOPE   H6S12831   2.437   0.672   5.898  0.2968  0.0694  0.7680
  121SOPE   C2712832   2.247   0.588   5.815 -0.3607  0.1710 -0.1743
  121SOPE   H7R12833   2.303   0.494   5.793 -2.1457 -0.3954 -2.9066
  121SOPE   H7S12834   2.141   0.574   5.846 -0.4135  0.0150 -0.4198
  121SOPE   C2812835   2.236   0.675   5.688 -0.2049  0.4313  0.4326
  121SOPE   H8R12836   2.167   0.627   5.615  1.6697 -0.9200 -0.5492
  121SOPE   H8S12837   2.195   0.773   5.721 -0.2944  0.6365 -0.2748
  121SOPE   C2912838   2.374   0.717   5.630  0.9424 -0.2332  0.4708
  121SOPE   H9112839   2.436   0.778   5.697 -1.2809  1.0294  1.4836
  121SOPE  C21012840   2.409   0.695   5.504 -0.1131  0.3647  0.2125
  121SOPE  H10112841   2.502   0.743   5.469  1.2251 -1.8921  0.4814
  121SOPE  C21112842   2.339   0.618   5.400 -0.3685 -1.0094 -0.5984
  121SOPE  H11R12843   2.278   0.535   5.442  0.5706 -0.8948  1.0884
  121SOPE  H11S12844   2.425   0.570   5.350  0.7078 -0.1954  0.3924
  121SOPE  C21212845   2.269   0.708   5.306 -0.0204  0.1659  0.4564
  121SOPE  H12R12846   2.201   0.787   5.345  0.3608  0.2461  0.9554
  121SOPE  H12S12847   2.197   0.639   5.257  0.3898 -0.0298  0.1169
  121SOPE  C21312848   2.367   0.768   5.200  0.6782  0.9764  0.4238
  121SOPE  H13R12849   2.326   0.736   5.101  0.1533 -1.7230  1.4220
  121SOPE  H13S12850   2.465   0.717   5.212  0.4534  0.6516  0.8885
  121SOPE  C21412851   2.379   0.917   5.201  0.2159 -0.0110  0.0351
  121SOPE  H14R12852   2.467   0.942   5.137  1.6590 -0.6154  1.6822
  121SOPE  H14S12853   2.385   0.955   5.305 -1.6161 -1.4772  0.7254
  121SOPE  C21512854   2.264   1.000   5.139 -0.3758 -0.0763 -0.3540
  121SOPE  H15R12855   2.174   1.001   5.204  0.3452  1.6130  0.6909
  121SOPE  H15S12856   2.234   0.940   5.051  0.0184 -0.9364  0.0897
  121SOPE  C21612857   2.317   1.136   5.084 -0.3324  0.0062  0.0385
  121SOPE  H16R12858   2.404   1.138   5.015 -1.4695 -0.6392 -1.4562
  121SOPE  H16S12859   2.343   1.203   5.169 -0.3819  0.1826 -0.0857
  121SOPE  C21712860   2.220   1.213   4.991  0.8327 -0.0939 -0.8131
  121SOPE  H17R12861   2.118   1.219   5.035 -0.0470 -1.1713 -2.5971
  121SOPE  H17S12862   2.209   1.147   4.903  0.7779 -0.4048 -0.5763
  121SOPE  C21812863   2.260   1.351   4.963 -0.2488  0.6885  0.4394
  121SOPE  H18R12864   2.269   1.408   5.059  0.9030 -1.9120  1.9796
  121SOPE  H18S12865   2.174   1.393   4.907 -2.2063 -2.2517  1.0659
  121SOPE  H18T12866   2.355   1.355   4.906  0.0664 -0.7518  0.8291
  121SOPE   C3312867   2.498   1.199   6.088  0.3898  0.1015  0.1192
  121SOPE   H3X12868   2.464   1.094   6.102 -2.4412  0.8365 -0.5787
  121SOPE   H3Y12869   2.599   1.205   6.042  0.9939 -1.7227  1.1153
  121SOPE   C3412870   2.390   1.243   5.990 -0.1367 -0.0697 -0.1758
  121SOPE   H4X12871   2.407   1.347   5.953 -1.5401  0.6569  1.1007
  121SOPE   H4Y12872   2.301   1.240   6.056 -0.5965 -1.5925 -0.8268
  121SOPE   C3512873   2.359   1.137   5.876 -0.8751  0.1202  0.4638
  121SOPE   H5X12874   2.344   1.043   5.933  1.8869  0.5448  2.0863
  121SOPE   H5Y12875   2.446   1.122   5.809 -0.7008 -1.1514  0.9490
  121SOPE   C3612876   2.242   1.177   5.783 -0.1943  0.0828 -0.0318
  121SOPE   H6X12877   2.250   1.279   5.740 -3.4286 -0.2103 -1.6244
  121SOPE   H6Y12878   2.152   1.184   5.847  0.3463 -0.0598  0.7666
  121SOPE   C3712879   2.201   1.086   5.670  0.1252  0.5233 -0.5574
  121SOPE   H7X12880   2.163   0.995   5.720  1.9945  0.9887  1.8937
  121SOPE   H7Y12881   2.289   1.044   5.616  0.8939  0.9237  0.3534
  121SOPE   C3812882   2.091   1.148   5.585 -0.0246 -0.0749 -0.0372
  121SOPE   H8X12883   2.123   1.239   5.530  0.8601 -1.7604 -2.4840
  121SOPE   H8Y12884   2.007   1.186   5.646  0.9649  0.3525  1.1028
  121SOPE   C3912885   2.037   1.048   5.487 -0.4854 -0.0014  0.6546
  121SOPE   H9X12886   1.995   0.966   5.550  0.4832  0.5222  2.0190
  121SOPE   H9Y12887   2.117   1.004   5.424 -1.1124  1.5402 -1.3206
  121SOPE  C31012888   1.924   1.108   5.401 -0.7636  0.2246 -0.4170
  121SOPE  H10X12889   1.967   1.179   5.328  0.0407 -1.9064 -2.1427
  121SOPE  H10Y12890   1.841   1.149   5.462 -0.2437  1.1946 -0.3543
  121SOPE  C31112891   1.850   0.989   5.326  0.5428  0.0385  0.0871
  121SOPE  H11X12892   1.815   0.920   5.406 -1.1439 -1.3018 -1.7163
  121SOPE  H11Y12893   1.930   0.939   5.268  1.8067 -1.9930  3.3128
  121SOPE  C31212894   1.737   1.032   5.235 -0.0598  0.1225  0.0031
  121SOPE  H12X12895   1.769   1.125   5.184 -2.7018  1.3173  0.3189
  121SOPE  H12Y12896   1.648   1.063   5.294 -1.1180 -1.6069 -0.6161
  121SOPE  C31312897   1.693   0.923   5.135  0.7810 -0.4946 -0.0580
  121SOPE  H13X12898   1.640   0.835   5.177 -1.7922  0.6419 -0.7451
  121SOPE  H13Y12899   1.783   0.889   5.078  0.8833  1.2001 -0.9484
  121SOPE  C31412900   1.601   0.976   5.029 -0.0808 -0.3819 -0.1215
  121SOPE  H14X12901   1.582   0.899   4.951  2.3475 -1.2180  0.0441
  121SOPE  H14Y12902   1.647   1.068   4.987 -1.1175  0.1317 -0.1873
  121SOPE  C31512903   1.459   1.019   5.063 -0.0206 -0.6052  0.0945
  121SOPE  H15X12904   1.458   1.106   5.131 -0.4995 -1.6170  1.4436
  121SOPE  H15Y12905   1.404   0.940   5.119  0.8415 -0.3904  1.2617
  121SOPE  C31612906   1.386   1.061   4.935 -0.6996 -0.2074 -0.1626
  121SOPE  H16X12907   1.394   0.987   4.853 -1.7026  1.2634 -1.6773
  121SOPE  H16Y12908   1.438   1.153   4.899 -1.8828  0.2448 -0.7851
  121SOPE  C31712909   1.242   1.109   4.961  0.4834  0.3796  0.5812
  121SOPE  H17X12910   1.212   1.152   4.863  1.4320  0.5503  0.3498
  121SOPE  H17Y12911   1.265   1.194   5.030  1.5415  0.5494  0.0500
  121SOPE  C31812912   1.130   1.012   5.003 -0.0431 -0.0363 -0.1964
  121SOPE  H18X12913   1.169   0.913   4.973 -0.1135 -0.2453  0.3815
  121SOPE  H18Y12914   1.036   1.037   4.950 -0.8595 -1.5694  0.4420
  121SOPE  H18Z12915   1.099   1.013   5.110  0.1702  2.3019 -0.1149
  122SOPE     N12916   3.743   0.496   6.149  0.2878  0.6175 -0.1979
  122SOPE   HN112917   3.722   0.435   6.067 -2.9878  2.1760 -0.6616
  122SOPE   HN212918   3.744   0.593   6.113 -0.9301  0.1531 -1.5913
  122SOPE   HN312919   3.837   0.480   6.190  0.6546  1.3050 -0.7447
  122SOPE   C1212920   3.645   0.470   6.265  0.2278 -0.4110  0.3073
  122SOPE  H12A12921   3.673   0.372   6.308 -1.9561 -1.5109 -0.6376
  122SOPE  H12B12922   3.548   0.447   6.217 -0.7276  1.0602  1.4285
  122SOPE   C1112923   3.635   0.587   6.365  0.3564  0.7430  0.6748
  122SOPE  H11A12924   3.738   0.603   6.404  0.1533  1.4664  0.9416
  122SOPE  H11B12925   3.557   0.559   6.439 -0.1864  0.4127 -0.0097
  122SOPE     P12926   3.564   0.838   6.350 -0.0311  0.1451 -0.7052
  122SOPE   O1312927   3.665   0.866   6.448  0.6745  0.2865  0.0525
  122SOPE   O1412928   3.423   0.847   6.382  0.2791  0.0863 -0.1807
  122SOPE   O1212929   3.599   0.698   6.288  0.3778  0.0674  0.3024
  122SOPE   O1112930   3.586   0.945   6.232 -0.8511 -0.0145  0.1098
  122SOPE    C112931   3.556   0.913   6.097 -0.0628  0.4351 -0.7265
  122SOPE    HA12932   3.447   0.910   6.077  0.0104 -0.0260 -1.0789
  122SOPE    HB12933   3.584   0.809   6.072 -2.4508 -0.6693  0.8861
  122SOPE    C212934   3.628   1.000   5.982 -0.7026  0.4923  0.0138
  122SOPE    HS12935   3.633   1.108   6.006  4.5170  0.6988 -1.0114
  122SOPE   O2112936   3.564   0.973   5.857 -0.6382  0.0051 -0.2319
  122SOPE   C2112937   3.451   1.028   5.846  0.6389 -0.0943  0.4749
  122SOPE   O2212938   3.398   1.096   5.932 -0.0600 -0.5691  0.9070
  122SOPE   C2212939   3.383   0.983   5.715  0.3335 -0.0567 -0.1462
  122SOPE   H2R12940   3.272   0.991   5.717  0.3551  1.5565 -2.0876
  122SOPE   H2S12941   3.409   0.877   5.693  0.7836  0.3067 -1.4271
  122SOPE    C312942   3.776   0.961   5.962 -0.1826 -0.2397 -0.0010
  122SOPE    HX12943   3.826   1.029   5.889 -0.6697  1.2501  1.0134
  122SOPE    HY12944   3.769   0.861   5.913  2.5367 -0.5131 -0.0162
  122SOPE   O3112945   3.854   0.959   6.078  0.1304 -0.0986 -0.1349
  122SOPE   C3112946   3.886   0.843   6.128  0.2206  0.0493 -0.1890
  122SOPE   O3212947   3.848   0.737   6.079  0.6742  0.2563 -0.3090
  122SOPE   C3212948   3.964   0.866   6.255  0.2039 -0.2215 -1.3086
  122SOPE   H2X12949   3.933   0.794   6.333 -0.2570  0.9468 -0.3854
  122SOPE   H2Y12950   3.946   0.966   6.300  0.7405 -0.6997  0.0015
  122SOPE   C2312951   3.441   1.058   5.595 -0.4379  0.0432 -0.8029
  122SOPE   H3R12952   3.439   1.166   5.623  0.6870  0.2048 -1.2569
  122SOPE   H3S12953   3.381   1.060   5.501 -2.4539 -0.1683  0.4358
  122SOPE   C2412954   3.588   1.023   5.547  0.3750  0.7003  0.0620
  122SOPE   H4R12955   3.615   1.087   5.461 -0.1971 -0.1298 -0.7407
  122SOPE   H4S12956   3.654   1.053   5.632 -1.1479  2.8524  0.5775
  122SOPE   C2512957   3.594   0.880   5.500  0.4105  0.0465 -0.3872
  122SOPE   H5R12958   3.496   0.829   5.492  0.5285 -1.1204  3.5142
  122SOPE   H5S12959   3.642   0.877   5.399 -2.1202  0.7806 -1.7025
  122SOPE   C2612960   3.676   0.784   5.593  0.1444 -0.6703 -0.3079
  122SOPE   H6R12961   3.632   0.787   5.695 -0.1782  1.9972 -0.4542
  122SOPE   H6S12962   3.671   0.680   5.553  1.3231 -0.3339 -1.3949
  122SOPE   C2712963   3.830   0.815   5.599  0.3205 -0.0105  0.2492
  122SOPE   H7R12964   3.886   0.824   5.504  1.7967 -1.5453  0.9311
  122SOPE   H7S12965   3.837   0.912   5.652 -1.2662 -0.0132  0.5157
  122SOPE   C2812966   3.892   0.702   5.681  0.2209  0.5908  0.1075
  122SOPE   H8R12967   3.857   0.686   5.785  0.7078 -2.5362 -0.1121
  122SOPE   H8S12968   3.845   0.612   5.637 -1.1126  2.1057 -1.7410
  122SOPE   C2912969   4.039   0.702   5.674 -0.1787 -0.1384 -0.5081
  122SOPE   H9112970   4.078   0.791   5.725 -0.9513 -0.6384  0.9991
  122SOPE  C21012971   4.113   0.624   5.596  0.9189  0.2125 -0.3286
  122SOPE  H10112972   4.220   0.644   5.577  1.3451 -1.3915  0.2228
  122SOPE  C21112973   4.059   0.511   5.509 -0.0613 -0.1644 -0.2876
  122SOPE  H11R12974   3.949   0.506   5.494 -0.3483 -0.3246  1.6123
  122SOPE  H11S12975   4.090   0.421   5.567 -0.7452  0.5832  1.3050
  122SOPE  C21212976   4.117   0.505   5.369  0.5839 -0.3648  0.0999
  122SOPE  H12R12977   4.083   0.412   5.319 -0.9004  1.0052 -1.6216
  122SOPE  H12S12978   4.228   0.514   5.372  0.4832  1.8266 -0.6975
  122SOPE  C21312979   4.055   0.613   5.283 -0.2506 -0.0582 -1.0601
  122SOPE  H13R12980   4.044   0.704   5.345 -1.4505 -0.8560 -0.0303
  122SOPE  H13S12981   3.948   0.594   5.259 -0.3846 -0.0788 -0.4652
  122SOPE  C21412982   4.131   0.653   5.153  0.0377 -0.0328  0.0050
  122SOPE  H14R12983   4.242   0.653   5.157  0.2372  1.3821 -2.9259
  122SOPE  H14S12984   4.092   0.755   5.130 -0.9099 -0.0989  1.2002
  122SOPE  C21512985   4.092   0.570   5.032 -0.2009 -1.0371 -0.1936
  122SOPE  H15R12986   3.982   0.552   5.040 -0.6442  1.5576  0.5788
  122SOPE  H15S12987   4.140   0.470   5.039 -0.4709 -1.1727 -0.2483
  122SOPE  C21612988   4.129   0.637   4.893 -0.2515 -0.0649 -0.5286
  122SOPE  H16R12989   4.225   0.693   4.893  0.0333 -0.5507 -0.0104
  122SOPE  H16S12990   4.065   0.727   4.881  1.8565  1.2964 -2.5601
  122SOPE  C21712991   4.116   0.555   4.765 -0.3339  0.1847 -0.5629
  122SOPE  H17R12992   4.188   0.470   4.761 -0.5959 -0.0063 -1.4038
  122SOPE  H17S12993   4.142   0.615   4.675  3.0130 -0.9244 -0.4610
  122SOPE  C21812994   3.986   0.490   4.756  0.7147  0.2664  0.2368
  122SOPE  H18R12995   3.898   0.556   4.774  1.1822  0.3233  2.8010
  122SOPE  H18S12996   3.976   0.418   4.840  1.5115 -0.1256  0.0042
  122SOPE  H18T12997   3.977   0.441   4.657 -2.2750 -2.1243  1.5067
  122SOPE   C3312998   4.116   0.862   6.226 -0.2478 -0.6081 -0.1118
  122SOPE   H3X12999   4.134   0.753   6.215  0.3160 -0.3935 -1.4898
  122SOPE   H3Y13000   4.186   0.885   6.310  1.1180  0.0594 -1.3869
  122SOPE   C3413001   4.165   0.923   6.086  0.5960 -0.5098 -0.5437
  122SOPE   H4X13002   4.132   1.029   6.084  0.9312 -0.4081 -1.2103
  122SOPE   H4Y13003   4.114   0.877   5.998 -0.7357 -0.0745 -0.0167
  122SOPE   C3513004   4.327   0.916   6.081 -0.0516  0.1227 -0.1268
  122SOPE   H5X13005   4.363   0.811   6.090  0.8256  0.3489 -0.9037
  122SOPE   H5Y13006   4.359   0.954   6.181 -0.4444 -0.0116  0.0533
  122SOPE   C3613007   4.381   0.993   5.971  0.1730 -0.1505 -0.4415
  122SOPE   H6X13008   4.491   0.976   5.964  0.0164 -1.5897  0.2123
  122SOPE   H6Y13009   4.371   1.101   5.993  0.0454 -0.4598  1.1561
  122SOPE   C3713010   4.322   0.960   5.833 -1.0848 -0.4624  0.4112
  122SOPE   H7X13011   4.214   0.960   5.807 -0.7094 -1.7759 -1.3891
  122SOPE   H7Y13012   4.357   0.857   5.808 -0.5197 -0.0884 -0.3971
  122SOPE   C3813013   4.382   1.045   5.716 -0.4375  0.2872  0.2453
  122SOPE   H8X13014   4.492   1.053   5.721 -0.4860  0.5944  0.9833
  122SOPE   H8Y13015   4.355   1.151   5.738 -0.5812  0.7241 -1.8728
  122SOPE   C3913016   4.347   1.000   5.575  0.1255  0.4756 -0.4937
  122SOPE   H9X13017   4.239   1.010   5.550 -0.3150 -0.0110  1.1388
  122SOPE   H9Y13018   4.377   0.894   5.568 -1.3105 -0.0929  1.2006
  122SOPE  C31013019   4.421   1.077   5.470 -0.3104 -0.2489 -0.3129
  122SOPE  H10X13020   4.528   1.049   5.477  0.4275  1.9731 -1.7218
  122SOPE  H10Y13021   4.413   1.186   5.489 -0.7320 -0.4347  0.6650
  122SOPE  C31113022   4.377   1.047   5.328  0.5952 -0.0047 -0.4722
  122SOPE  H11X13023   4.441   1.106   5.259 -1.3805  1.5812 -1.0459
  122SOPE  H11Y13024   4.283   1.103   5.311  1.1239  1.6358  1.4845
  122SOPE  C31213025   4.372   0.899   5.279 -0.0866  0.1427  0.1399
  122SOPE  H12X13026   4.313   0.886   5.185 -0.3710 -3.4892  0.6918
  122SOPE  H12Y13027   4.315   0.837   5.351  0.1955  0.6389  0.7968
  122SOPE  C31313028   4.509   0.836   5.264  0.1466  0.3826 -0.2333
  122SOPE  H13X13029   4.556   0.822   5.364  2.3675  2.0240 -0.9637
  122SOPE  H13Y13030   4.570   0.911   5.208  0.4741  0.4952  0.2684
  122SOPE  C31413031   4.500   0.698   5.199  0.1183 -0.4707 -0.6524
  122SOPE  H14X13032   4.419   0.629   5.232 -0.7036  0.1845 -1.2586
  122SOPE  H14Y13033   4.594   0.643   5.220  0.5279 -0.2762 -1.8987
  122SOPE  C31513034   4.505   0.702   5.045  0.3326  0.3490 -0.5300
  122SOPE  H15X13035   4.593   0.766   5.020  0.7155  0.6522  1.4000
  122SOPE  H15Y13036   4.418   0.757   5.004  0.0950  0.4434  0.0945
  122SOPE  C31613037   4.502   0.564   4.975  0.1854 -0.4299 -1.1741
  122SOPE  H16X13038   4.416   0.507   5.017  0.9752  0.5037  1.9666
  122SOPE  H16Y13039   4.596   0.518   5.010 -0.6015 -0.0353  1.6947
  122SOPE  C31713040   4.502   0.575   4.826  0.2804  1.0176 -0.1928
  122SOPE  H17X13041   4.587   0.644   4.807 -1.1134  2.3346 -1.9315
  122SOPE  H17Y13042   4.410   0.622   4.785 -1.1706 -1.1895  0.3493
  122SOPE  C31813043   4.517   0.444   4.751  0.9662 -0.4641  0.3504
  122SOPE  H18X13044   4.620   0.402   4.749 -0.0429 -3.0716 -0.8612
  122SOPE  H18Y13045   4.485   0.457   4.645  0.6070 -1.0244  0.3924
  122SOPE  H18Z13046   4.455   0.362   4.793 -0.9995  0.4124 -0.7030
  123SOPE     N13047   2.242   6.039   2.472 -0.1581 -0.1955 -0.2772
  123SOPE   HN113048   2.337   6.003   2.496  0.1255 -0.4876 -1.7501
  123SOPE   HN213049   2.203   6.070   2.563 -5.0608 -0.7883 -1.9080
  123SOPE   HN313050   2.189   5.954   2.446  1.2334 -0.7702 -1.3619
  123SOPE   C1213051   2.243   6.152   2.372 -0.7539  0.4051  0.1022
  123SOPE  H12A13052   2.219   6.110   2.272 -0.8917  0.8615 -0.0584
  123SOPE  H12B13053   2.342   6.202   2.377 -1.9725  3.0922 -0.9277
  123SOPE   C1113054   2.141   6.258   2.405  0.4963  0.0493  0.3384
  123SOPE  H11A13055   2.041   6.209   2.401 -0.3396  1.6952 -0.1630
  123SOPE  H11B13056   2.142   6.328   2.318  0.6844 -0.5256 -0.1309
  123SOPE     P13057   2.214   6.454   2.556  0.2764  0.2378 -0.2077
  123SOPE   O1313058   2.106   6.545   2.589 -0.2284  0.0440  0.3912
  123SOPE   O1413059   2.289   6.489   2.434 -0.7418 -0.1180 -0.3223
  123SOPE   O1213060   2.159   6.311   2.533 -0.3619 -0.0451  0.5921
  123SOPE   O1113061   2.317   6.433   2.673  0.1027  0.1745  0.6718
  123SOPE    C113062   2.405   6.315   2.685  0.4476 -0.3529 -0.3424
  123SOPE    HA13063   2.451   6.292   2.587  1.7953 -0.6828  0.3345
  123SOPE    HB13064   2.365   6.225   2.737 -0.4958 -1.0514 -2.1877
  123SOPE    C213065   2.519   6.367   2.788 -0.1285 -0.1317 -0.2095
  123SOPE    HS13066   2.589   6.283   2.811 -0.4825 -0.8079 -1.5183
  123SOPE   O2113067   2.481   6.433   2.912  0.3924  0.3138 -0.2032
  123SOPE   C2113068   2.403   6.364   2.991  1.0892 -0.3074  0.1254
  123SOPE   O2213069   2.406   6.242   2.988 -0.3646  0.1387  0.2259
  123SOPE   C2213070   2.326   6.459   3.092  0.4578 -0.2948 -0.1998
  123SOPE   H2R13071   2.228   6.483   3.045  0.4570 -2.0490 -1.1963
  123SOPE   H2S13072   2.382   6.554   3.104  1.1380 -0.5523 -1.2542
  123SOPE    C313073   2.611   6.466   2.710  0.5296 -0.2923  0.4776
  123SOPE    HX13074   2.560   6.563   2.700 -0.2878 -0.5275  2.0819
  123SOPE    HY13075   2.626   6.414   2.613 -0.9185 -0.4788  0.3371
  123SOPE   O3113076   2.728   6.480   2.784  0.0446  0.1921 -0.3981
  123SOPE   C3113077   2.805   6.582   2.737  0.7795  0.4646  0.1542
  123SOPE   O3213078   2.776   6.652   2.640 -0.1223  0.1163 -0.5658
  123SOPE   C3213079   2.923   6.591   2.821  0.5811 -1.0699  0.4119
  123SOPE   H2X13080   2.998   6.529   2.768  0.1239  0.0562 -1.6435
  123SOPE   H2Y13081   2.912   6.541   2.920  0.8942  0.4248  1.2419
  123SOPE   C2313082   2.294   6.402   3.233 -0.1095 -0.1846  0.5133
  123SOPE   H3R13083   2.373   6.434   3.305 -1.1419  1.3910  0.9723
  123SOPE   H3S13084   2.286   6.291   3.222  2.4261 -0.2455 -2.0339
  123SOPE   C2413085   2.161   6.455   3.288 -1.6552 -0.1007  0.1380
  123SOPE   H4R13086   2.177   6.561   3.318  1.7316 -0.4175 -0.1979
  123SOPE   H4S13087   2.087   6.439   3.206  0.1213  1.2230 -1.8240
  123SOPE   C2513088   2.113   6.356   3.391 -0.3628  0.7682 -0.5441
  123SOPE   H5R13089   2.039   6.397   3.462 -0.1613  0.1962  0.0057
  123SOPE   H5S13090   2.067   6.269   3.339 -0.1389  1.4175 -1.8632
  123SOPE   C2613091   2.221   6.301   3.481  0.5638 -0.3262  0.4328
  123SOPE   H6R13092   2.295   6.239   3.425  0.1112 -1.2839  0.8769
  123SOPE   H6S13093   2.283   6.383   3.524  0.1793 -0.9963  2.3367
  123SOPE   C2713094   2.162   6.214   3.594 -0.4297  1.2850  0.0513
  123SOPE   H7R13095   2.083   6.264   3.654 -2.2817 -0.4158 -0.8213
  123SOPE   H7S13096   2.110   6.129   3.543 -0.6677  1.6835 -0.3774
  123SOPE   C2813097   2.268   6.148   3.680 -0.0406  0.0356 -0.0423
  123SOPE   H8R13098   2.337   6.089   3.617 -0.4756 -1.9196  1.2408
  123SOPE   H8S13099   2.330   6.230   3.722  0.9695  0.0224 -1.4594
  123SOPE   C2913100   2.217   6.057   3.796  0.1999  0.3710 -0.2167
  123SOPE   H9113101   2.188   5.954   3.767 -1.1664  0.8110 -0.4748
  123SOPE  C21013102   2.183   6.095   3.919 -0.1257  0.6100  0.1099
  123SOPE  H10113103   2.159   6.014   3.990  0.2574  1.8003  1.6468
  123SOPE  C21113104   2.183   6.228   3.978  0.2432 -0.2272  0.5041
  123SOPE  H11R13105   2.087   6.266   4.017 -1.3808 -1.5618 -1.9295
  123SOPE  H11S13106   2.199   6.292   3.889  3.3912 -0.4916  0.7624
  123SOPE  C21213107   2.288   6.247   4.087 -0.1716  0.6911 -0.3211
  123SOPE  H12R13108   2.304   6.353   4.117 -2.0432  0.7447  0.6239
  123SOPE  H12S13109   2.387   6.216   4.048  0.3202  1.3940  0.3473
  123SOPE  C21313110   2.261   6.167   4.217  0.7025 -0.1789  0.3538
  123SOPE  H13R13111   2.334   6.199   4.295  1.5301  0.3039 -0.5962
  123SOPE  H13S13112   2.285   6.062   4.187 -0.3131 -0.1992 -0.4248
  123SOPE  C21413113   2.115   6.190   4.253 -0.2875  0.1316 -0.0149
  123SOPE  H14R13114   2.048   6.165   4.168  1.5784  0.1889 -1.5481
  123SOPE  H14S13115   2.092   6.294   4.284 -0.0835 -0.2159  1.3848
  123SOPE  C21513116   2.081   6.099   4.364  0.0738  0.3983  0.1702
  123SOPE  H15R13117   2.167   6.079   4.431  0.3313  1.0374  0.0350
  123SOPE  H15S13118   2.039   5.998   4.343 -0.7634  0.3341  1.9571
  123SOPE  C21613119   1.978   6.153   4.466 -0.3472  0.3906  0.2555
  123SOPE  H16R13120   1.881   6.159   4.412  0.0451  0.8949 -0.4119
  123SOPE  H16S13121   1.983   6.262   4.487  0.2580  0.6637 -1.2025
  123SOPE  C21713122   1.975   6.079   4.597 -0.2121  0.1496 -0.0821
  123SOPE  H17R13123   2.072   6.063   4.647 -0.4671 -0.6768  0.1710
  123SOPE  H17S13124   1.935   5.975   4.587  2.0074 -0.7003 -0.5609
  123SOPE  C21813125   1.888   6.157   4.695 -0.3117 -0.0929  0.1263
  123SOPE  H18R13126   1.865   6.086   4.778  2.5233 -1.1600  0.0872
  123SOPE  H18S13127   1.787   6.174   4.650  0.0223  0.2015 -0.5279
  123SOPE  H18T13128   1.933   6.253   4.727 -1.1673  0.9524 -1.6700
  123SOPE   C3313129   2.990   6.728   2.848 -0.8903 -0.2877  0.6958
  123SOPE   H3X13130   2.956   6.802   2.774 -2.6573 -1.0971  0.6590
  123SOPE   H3Y13131   3.101   6.722   2.839 -0.9095  1.3220 -1.4587
  123SOPE   C3413132   2.956   6.780   2.986 -0.5128 -0.4498 -0.0004
  123SOPE   H4X13133   2.983   6.707   3.066  3.2582 -1.3675 -1.8670
  123SOPE   H4Y13134   2.849   6.806   2.992 -0.7664 -1.5173  0.3617
  123SOPE   C3513135   3.055   6.902   3.016  0.1665 -0.0799  0.2866
  123SOPE   H5X13136   3.032   6.971   2.932 -0.3253  0.6927  1.0316
  123SOPE   H5Y13137   3.161   6.868   3.013 -0.3409 -2.3854  3.3542
  123SOPE   C3613138   3.038   6.977   3.154 -0.4710 -0.8144 -0.5313
  123SOPE   H6X13139   2.946   7.039   3.154 -0.4336 -0.7570 -0.3673
  123SOPE   H6Y13140   3.135   7.031   3.159 -0.3448 -0.5555 -3.6952
  123SOPE   C3713141   3.037   6.879   3.267 -0.2352  0.4673 -1.2347
  123SOPE   H7X13142   3.098   6.790   3.241  0.9903  0.5844  0.9742
  123SOPE   H7Y13143   2.936   6.838   3.286  1.0342 -1.2664  2.8783
  123SOPE   C3813144   3.092   6.925   3.405  0.3455 -0.2963 -0.3113
  123SOPE   H8X13145   3.026   7.006   3.444 -0.5804  0.2048 -2.7616
  123SOPE   H8Y13146   3.184   6.977   3.371  0.0442  0.9244  0.6475
  123SOPE   C3913147   3.111   6.805   3.500  0.1203 -0.3074 -0.0503
  123SOPE   H9X13148   3.176   6.728   3.453 -1.4292 -1.9554  0.4234
  123SOPE   H9Y13149   3.016   6.753   3.524  0.2016 -0.9518 -1.0603
  123SOPE  C31013150   3.161   6.835   3.644  0.1053 -0.3505  0.0486
  123SOPE  H10X13151   3.138   6.753   3.715 -0.6630 -0.2209 -0.0436
  123SOPE  H10Y13152   3.090   6.918   3.667 -1.7850 -1.2986 -2.0502
  123SOPE  C31113153   3.304   6.890   3.663  0.4135 -0.7096  0.4944
  123SOPE  H11X13154   3.335   6.971   3.594 -0.6667 -0.9404 -0.2787
  123SOPE  H11Y13155   3.385   6.815   3.645  0.5811 -0.5077  0.4083
  123SOPE  C31213156   3.318   6.964   3.791 -0.0641 -0.6157  0.0692
  123SOPE  H12X13157   3.307   6.898   3.880  0.3346  2.6278  2.7386
  123SOPE  H12Y13158   3.243   7.046   3.794  0.9078  0.2703  0.8595
  123SOPE  C31313159   3.458   7.031   3.809 -0.3216  0.4850 -0.0832
  123SOPE  H13X13160   3.459   7.111   3.732 -0.6857 -0.5264 -1.1473
  123SOPE  H13Y13161   3.539   6.959   3.783 -0.1535  0.2676  0.9890
  123SOPE  C31413162   3.489   7.091   3.952  0.5697  0.5560  0.6718
  123SOPE  H14X13163   3.598   7.112   3.947  0.5607  0.3708 -3.1882
  123SOPE  H14Y13164   3.462   7.011   4.024 -0.5916 -0.4758 -0.8475
  123SOPE  C31513165   3.416   7.221   3.983 -0.5406 -0.8906 -0.8490
  123SOPE  H15X13166   3.307   7.204   3.972 -0.6244 -1.2270  0.3500
  123SOPE  H15Y13167   3.439   7.299   3.908  0.2278  0.2315  0.5052
  123SOPE  C31613168   3.450   7.280   4.118  1.4910 -0.3024 -1.0044
  123SOPE  H16X13169   3.431   7.390   4.114 -1.9579 -0.7314  0.1133
  123SOPE  H16Y13170   3.559   7.268   4.136  2.2281  4.3237 -1.1945
  123SOPE  C31713171   3.361   7.213   4.227 -0.0415  0.2201  0.0984
  123SOPE  H17X13172   3.373   7.104   4.213  2.2015  0.5723 -1.2086
  123SOPE  H17Y13173   3.257   7.249   4.214 -0.6335 -1.7947 -1.1965
  123SOPE  C31813174   3.416   7.248   4.370 -0.0306 -0.5591 -0.1374
  123SOPE  H18X13175   3.391   7.356   4.380  0.3057 -0.2055 -2.5594
  123SOPE  H18Y13176   3.525   7.231   4.377  0.2267  1.4392  1.4049
  123SOPE  H18Z13177   3.359   7.187   4.444 -2.1345 -0.9922 -1.9987
  124SOPE     N13178   5.725   1.154   2.814  0.4950 -0.2734  0.0456
  124SOPE   HN113179   5.743   1.215   2.896  0.6384 -2.9301  2.1062
  124SOPE   HN213180   5.638   1.098   2.825  0.1482  0.3845  0.7744
  124SOPE   HN313181   5.793   1.076   2.819  1.0222  0.2637  2.4647
  124SOPE   C1213182   5.732   1.229   2.686 -0.2851 -0.1005 -0.0118
  124SOPE  H12A13183   5.837   1.257   2.660 -0.1276  0.4205  1.1246
  124SOPE  H12B13184   5.661   1.314   2.690  0.0528  0.1787  0.0634
  124SOPE   C1113185   5.687   1.143   2.568 -0.6841  0.0234 -0.1647
  124SOPE  H11A13186   5.758   1.062   2.543  0.6343  0.9377  0.4887
  124SOPE  H11B13187   5.686   1.211   2.481 -1.1333 -0.7021 -0.7353
  124SOPE     P13188   5.465   1.047   2.473  0.0995  0.0607  0.4333
  124SOPE   O1313189   5.498   0.907   2.436 -0.5613  0.2610 -0.2345
  124SOPE   O1413190   5.473   1.140   2.354  0.5849 -0.7638 -0.7530
  124SOPE   O1213191   5.555   1.094   2.588  0.0728 -0.3645 -0.0429
  124SOPE   O1113192   5.320   1.041   2.526 -0.2604 -0.1992 -0.3589
  124SOPE    C113193   5.260   1.140   2.613 -0.5096  0.4329  0.0869
  124SOPE    HA13194   5.152   1.126   2.593 -0.9426  0.9008  1.9552
  124SOPE    HB13195   5.291   1.241   2.578  0.9151  0.7279  2.0455
  124SOPE    C213196   5.292   1.118   2.767 -0.2701 -0.1173  0.2279
  124SOPE    HS13197   5.386   1.174   2.785  1.0824 -1.8203 -1.1276
  124SOPE   O2113198   5.300   0.973   2.795  0.2461 -0.1899 -0.0165
  124SOPE   C2113199   5.417   0.932   2.835  0.2606 -0.0988 -0.1139
  124SOPE   O2213200   5.506   1.002   2.884  0.7564 -0.0246 -0.2106
  124SOPE   C2213201   5.420   0.779   2.834  0.4473  0.7902 -0.3806
  124SOPE   H2R13202   5.522   0.739   2.856 -0.1330  0.1458  1.2955
  124SOPE   H2S13203   5.397   0.746   2.731  0.2461  0.4446 -0.2233
  124SOPE    C313204   5.179   1.181   2.852 -0.4108 -0.4205  0.0078
  124SOPE    HX13205   5.086   1.124   2.836  0.1144 -1.2415 -0.1686
  124SOPE    HY13206   5.162   1.287   2.821  1.7486 -0.4034 -1.3678
  124SOPE   O3113207   5.211   1.192   2.991 -0.3337  0.5300  0.5534
  124SOPE   C3113208   5.166   1.095   3.068 -0.1786  0.0005  1.1051
  124SOPE   O3213209   5.115   0.987   3.028 -0.4425  0.2615 -0.2219
  124SOPE   C3213210   5.160   1.152   3.208  0.4008  0.3185  0.0104
  124SOPE   H2X13211   5.081   1.230   3.212 -0.6603 -0.7446  2.9054
  124SOPE   H2Y13212   5.257   1.194   3.240  0.8514 -0.7613  0.0953
  124SOPE   C2313213   5.323   0.732   2.946 -0.5346 -0.6077  0.0245
  124SOPE   H3R13214   5.304   0.624   2.931  0.3933 -0.9255  0.9893
  124SOPE   H3S13215   5.226   0.786   2.943 -0.3614 -0.2749  0.3014
  124SOPE   C2413216   5.379   0.733   3.091 -0.0839 -0.1664 -0.2194
  124SOPE   H4R13217   5.407   0.837   3.117 -3.6943  1.5371 -2.3776
  124SOPE   H4S13218   5.296   0.718   3.164 -0.7750 -0.0185 -0.9580
  124SOPE   C2513219   5.498   0.638   3.128 -0.0712 -0.0058 -0.0562
  124SOPE   H5R13220   5.449   0.538   3.120 -0.7770  0.3536 -0.3513
  124SOPE   H5S13221   5.580   0.648   3.054  1.7387 -0.3537  1.8141
  124SOPE   C2613222   5.553   0.651   3.269 -0.9195  0.0571  0.1903
  124SOPE   H6R13223   5.615   0.561   3.289 -2.1293 -0.7289  0.5355
  124SOPE   H6S13224   5.608   0.745   3.289 -2.2724  0.3101  3.2064
  124SOPE   C2713225   5.446   0.647   3.379 -0.8250  0.1352  0.2894
  124SOPE   H7R13226   5.385   0.740   3.375 -0.2879  0.5286  1.0559
  124SOPE   H7S13227   5.385   0.558   3.353 -0.9845  0.9425 -2.4416
  124SOPE   C2813228   5.504   0.632   3.520  0.3094  0.4096  0.3412
  124SOPE   H8R13229   5.415   0.641   3.586  0.4596  1.3111  0.4355
  124SOPE   H8S13230   5.551   0.532   3.529  1.7776  1.1241  0.9798
  124SOPE   C2913231   5.611   0.728   3.556 -0.1332 -0.0535  0.8658
  124SOPE   H9113232   5.701   0.702   3.499 -2.0187 -2.5749 -1.1536
  124SOPE  C21013233   5.612   0.822   3.645 -0.0063  0.2850 -0.1040
  124SOPE  H10113234   5.704   0.878   3.669 -1.1373  1.1528  2.6632
  124SOPE  C21113235   5.502   0.850   3.746  0.2955  0.3935 -0.0437
  124SOPE  H11R13236   5.403   0.821   3.704  0.3755 -1.2388  0.7928
  124SOPE  H11S13237   5.496   0.959   3.762 -0.3684  0.4847 -0.8655
  124SOPE  C21213238   5.510   0.786   3.884  0.7214 -0.1175  0.4020
  124SOPE  H12R13239   5.613   0.767   3.919  0.2762 -2.8828  0.4262
  124SOPE  H12S13240   5.466   0.685   3.875  0.8753 -0.0635 -1.4678
  124SOPE  C21313241   5.417   0.856   3.991  0.1956  0.1415  0.0911
  124SOPE  H13R13242   5.310   0.842   3.965 -0.1748 -0.3636  1.7569
  124SOPE  H13S13243   5.440   0.965   3.984  0.9038  0.0818  1.1999
  124SOPE  C21413244   5.438   0.807   4.134 -0.4034  0.3299  0.1070
  124SOPE  H14R13245   5.439   0.696   4.136 -1.2245  0.3299  0.8866
  124SOPE  H14S13246   5.355   0.827   4.204 -0.9755  0.2631 -0.5454
  124SOPE  C21513247   5.569   0.864   4.198  0.0663  0.3801 -0.2781
  124SOPE  H15R13248   5.582   0.971   4.173  1.9584  0.3027  0.2036
  124SOPE  H15S13249   5.661   0.820   4.153  0.0818  0.7667 -0.6379
  124SOPE  C21613250   5.560   0.861   4.350 -0.0659  0.1511 -0.1560
  124SOPE  H16R13251   5.583   0.757   4.381 -0.1894 -0.0356 -0.6880
  124SOPE  H16S13252   5.454   0.872   4.382 -0.7240 -0.4931 -1.9880
  124SOPE  C21713253   5.653   0.965   4.408  0.0190  0.0261  0.0892
  124SOPE  H17R13254   5.661   1.053   4.341 -1.7677 -0.0886 -0.3293
  124SOPE  H17S13255   5.752   0.915   4.418  0.1287  0.6447  3.1053
  124SOPE  C21813256   5.620   1.010   4.551  0.1395 -0.6231 -0.4061
  124SOPE  H18R13257   5.711   1.066   4.580  1.1958 -0.2745 -3.8971
  124SOPE  H18S13258   5.610   0.939   4.635  3.5047  0.5473  1.1306
  124SOPE  H18T13259   5.532   1.079   4.548  0.2598 -0.3702  1.0932
  124SOPE   C3313260   5.103   1.053   3.312  0.5654 -0.2511 -0.9869
  124SOPE   H3X13261   5.159   0.957   3.313 -0.0747 -0.6296 -0.7091
  124SOPE   H3Y13262   4.997   1.032   3.285  0.6012  1.1466 -2.3520
  124SOPE   C3413263   5.118   1.117   3.453  0.9029 -0.0454  0.4642
  124SOPE   H4X13264   5.070   1.217   3.452  1.7475  0.3849 -1.4512
  124SOPE   H4Y13265   5.226   1.142   3.462  1.5021 -1.3947 -1.9405
  124SOPE   C3513266   5.061   1.038   3.564  0.7078 -0.6636 -0.3899
  124SOPE   H5X13267   5.143   0.965   3.579  1.0142 -0.3615 -0.5800
  124SOPE   H5Y13268   4.969   0.985   3.530 -1.0735  1.1561  1.3093
  124SOPE   C3613269   5.015   1.102   3.701  0.4334  0.1963  0.1148
  124SOPE   H6X13270   5.007   1.021   3.777 -2.6777 -2.0098 -2.3067
  124SOPE   H6Y13271   4.920   1.159   3.690  0.5537  0.6756  1.4524
  124SOPE   C3713272   5.113   1.213   3.750 -0.9341  0.6938 -0.2380
  124SOPE   H7X13273   5.132   1.278   3.662  0.6464 -0.9775 -1.2110
  124SOPE   H7Y13274   5.209   1.159   3.767 -0.6567  1.0203 -0.7322
  124SOPE   C3813275   5.085   1.283   3.885 -0.4807 -0.3472 -0.1481
  124SOPE   H8X13276   5.001   1.355   3.871  0.6536  0.6374 -2.4885
  124SOPE   H8Y13277   5.172   1.345   3.916 -0.5858  1.8198 -3.5752
  124SOPE   C3913278   5.065   1.181   3.997 -0.2989  0.0046  0.3313
  124SOPE   H9X13279   5.126   1.092   3.970 -2.5764 -1.4052 -0.4822
  124SOPE   H9Y13280   4.958   1.153   4.012 -1.0517  2.2315 -0.4858
  124SOPE  C31013281   5.122   1.234   4.132 -0.8796  0.8785  0.0114
  124SOPE  H10X13282   5.074   1.329   4.166 -1.4673  0.3073  0.7894
  124SOPE  H10Y13283   5.229   1.264   4.123  0.2643 -2.6109  0.7087
  124SOPE  C31113284   5.095   1.126   4.242  0.1535  0.0262 -0.8517
  124SOPE  H11X13285   5.163   1.040   4.229 -0.0420 -0.8459  2.7944
  124SOPE  H11Y13286   4.988   1.095   4.240 -0.1414  0.8933  0.1783
  124SOPE  C31213287   5.123   1.181   4.382  0.5400 -0.1218  0.0649
  124SOPE  H12X13288   5.055   1.267   4.401  0.1772 -0.2468 -0.6020
  124SOPE  H12Y13289   5.220   1.233   4.366 -0.7618  2.7107  0.7571
  124SOPE  C31313290   5.117   1.089   4.499 -1.1261 -0.2104 -0.2974
  124SOPE  H13X13291   5.183   0.999   4.489  0.8771  1.1670 -0.1054
  124SOPE  H13Y13292   5.011   1.062   4.519 -0.4746 -1.7799  1.3253
  124SOPE  C31413293   5.163   1.163   4.627 -0.3144 -1.1460  0.4721
  124SOPE  H14X13294   5.104   1.255   4.646  1.1562  1.0091 -4.1106
  124SOPE  H14Y13295   5.269   1.191   4.608  0.6832 -3.2245  2.4177
  124SOPE  C31513296   5.168   1.081   4.756  0.5772 -0.0820  0.2506
  124SOPE  H15X13297   5.227   0.987   4.750  0.7743  0.0911 -0.5530
  124SOPE  H15Y13298   5.066   1.038   4.764  0.3510  0.5741  1.0707
  124SOPE  C31613299   5.215   1.155   4.883 -0.1038  0.0210 -0.0355
  124SOPE  H16X13300   5.131   1.220   4.917 -0.5105  1.0599 -2.7957
  124SOPE  H16Y13301   5.304   1.221   4.883 -1.6100  2.1372  0.7778
  124SOPE  C31713302   5.242   1.062   4.999 -0.3694 -0.3770  0.7175
  124SOPE  H17X13303   5.268   1.110   5.096  2.8771  0.2670 -0.3341
  124SOPE  H17Y13304   5.336   1.013   4.964  0.8082  4.0461 -3.2658
  124SOPE  C31813305   5.133   0.948   5.005 -0.3692 -0.8862 -0.4704
  124SOPE  H18X13306   5.027   0.982   5.000 -0.7273 -1.8940  0.0064
  124SOPE  H18Y13307   5.133   0.904   5.107  2.2162  0.9788  0.4668
  124SOPE  H18Z13308   5.145   0.873   4.923  0.1144 -1.0520 -0.2526
  125SOPE     N13309   6.249   2.308   2.904 -0.6358 -0.6959 -0.4909
  125SOPE   HN113310   6.266   2.219   2.853  1.0020 -1.6606  1.5667
  125SOPE   HN213311   6.162   2.299   2.960  1.9158  0.3440  4.0895
  125SOPE   HN313312   6.243   2.391   2.841 -2.1420 -1.2335 -1.1002
  125SOPE   C1213313   6.363   2.340   2.995 -1.1850  0.2908  0.0622
  125SOPE  H12A13314   6.353   2.284   3.091  0.4963 -0.7041 -0.2994
  125SOPE  H12B13315   6.360   2.446   3.029  0.3285  1.1747 -2.2897
  125SOPE   C1113316   6.504   2.326   2.935  0.0318 -0.0152  0.2237
  125SOPE  H11A13317   6.577   2.376   3.002  1.4891  1.0247 -2.0150
  125SOPE  H11B13318   6.504   2.392   2.845 -0.0041 -0.9040 -0.4389
  125SOPE     P13319   6.691   2.153   2.885  0.0563  0.0926  0.0478
  125SOPE   O1313320   6.763   2.231   2.782 -0.2922 -0.3293  0.2059
  125SOPE   O1413321   6.686   2.005   2.845  0.3320 -0.3721  0.4089
  125SOPE   O1213322   6.539   2.194   2.900 -0.6952  0.1239  0.3046
  125SOPE   O1113323   6.754   2.176   3.021 -0.0738  0.9453  0.5733
  125SOPE    C113324   6.886   2.124   3.059  0.0591 -0.1826 -0.0663
  125SOPE    HA13325   6.928   2.069   2.972 -0.5727 -1.3203  0.3221
  125SOPE    HB13326   6.868   2.049   3.139  0.6848 -0.4367 -0.1626
  125SOPE    C213327   6.977   2.236   3.113  0.0998 -0.4021 -0.5482
  125SOPE    HS13328   7.078   2.198   3.139  0.2927  1.2143  1.3311
  125SOPE   O2113329   6.918   2.280   3.240 -0.2601  0.0318  0.7840
  125SOPE   C2113330   6.956   2.225   3.357 -0.6882 -0.2803 -0.0029
  125SOPE   O2213331   7.031   2.132   3.367 -0.6247 -0.0971  0.2267
  125SOPE   C2213332   6.907   2.301   3.473  0.2295 -0.2036 -0.2919
  125SOPE   H2R13333   6.899   2.408   3.441  0.1901  0.6364  2.3291
  125SOPE   H2S13334   6.980   2.304   3.556 -1.1907 -1.8188  1.0894
  125SOPE    C313335   6.996   2.356   3.012 -0.2765 -0.7155  0.3302
  125SOPE    HX13336   6.894   2.390   2.985 -0.4488 -0.3349  1.4107
  125SOPE    HY13337   7.046   2.316   2.921 -0.2081 -2.3093  1.0340
  125SOPE   O3113338   7.080   2.458   3.064 -0.4939  0.0250 -0.1520
  125SOPE   C3113339   7.029   2.553   3.137  1.0119  0.2435  0.4781
  125SOPE   O3213340   6.910   2.562   3.168 -0.0085 -0.0907 -0.1294
  125SOPE   C3213341   7.135   2.646   3.184 -0.7924 -0.0381  0.6038
  125SOPE   H2X13342   7.088   2.745   3.207  0.4284  0.6577  0.1813
  125SOPE   H2Y13343   7.204   2.653   3.097 -1.2230  0.4281  0.2936
  125SOPE   C2313344   6.778   2.245   3.532  0.1985 -0.0136 -0.1993
  125SOPE   H3R13345   6.799   2.153   3.590 -0.3763  0.6012  1.0204
  125SOPE   H3S13346   6.703   2.227   3.452  0.7101  0.3432 -0.7703
  125SOPE   C2413347   6.707   2.348   3.628 -0.4563  0.1987  0.4088
  125SOPE   H4R13348   6.705   2.446   3.575  1.1003  0.4178  0.6987
  125SOPE   H4S13349   6.607   2.305   3.648 -0.9054  1.5273  1.1900
  125SOPE   C2513350   6.792   2.392   3.755 -0.0579 -0.4140  0.0015
  125SOPE   H5R13351   6.883   2.448   3.725  0.6786 -1.0596  0.9532
  125SOPE   H5S13352   6.726   2.464   3.808 -0.6525  0.7027 -2.1107
  125SOPE   C2613353   6.841   2.276   3.846  0.6416 -0.8601  0.0080
  125SOPE   H6R13354   6.916   2.214   3.791  0.6584 -3.1022  2.3867
  125SOPE   H6S13355   6.893   2.316   3.935  2.1666 -2.2123 -0.2270
  125SOPE   C2713356   6.724   2.189   3.908 -0.1810  0.5287  0.1036
  125SOPE   H7R13357   6.644   2.266   3.917 -0.7486  0.0014 -0.3355
  125SOPE   H7S13358   6.687   2.117   3.832  3.1355 -1.3023  0.0692
  125SOPE   C2813359   6.770   2.113   4.039  0.1206 -0.4068 -0.9312
  125SOPE   H8R13360   6.716   2.017   4.025 -0.3450 -0.1179 -1.1357
  125SOPE   H8S13361   6.878   2.089   4.037  0.3562  0.6195 -1.0315
  125SOPE   C2913362   6.736   2.182   4.171 -0.2051  0.0455 -0.0926
  125SOPE   H9113363   6.706   2.287   4.166 -1.4647 -0.1533  2.0534
  125SOPE  C21013364   6.764   2.141   4.298  0.5112 -0.4858  0.1480
  125SOPE  H10113365   6.747   2.202   4.388  0.0265 -0.3080 -0.0616
  125SOPE  C21113366   6.811   1.997   4.337 -0.7786 -0.2296  0.6884
  125SOPE  H11R13367   6.863   1.988   4.434 -0.7213  1.0279  0.7869
  125SOPE  H11S13368   6.868   1.953   4.252 -0.4811 -1.3427  1.4297
  125SOPE  C21213369   6.693   1.910   4.363 -0.0726  0.5476  0.0835
  125SOPE  H12R13370   6.627   1.897   4.275 -0.1135 -1.7631  0.4024
  125SOPE  H12S13371   6.632   1.964   4.438  0.0133  2.7468 -1.3376
  125SOPE  C21313372   6.735   1.770   4.423  0.7226 -0.1156 -0.7798
  125SOPE  H13R13373   6.803   1.789   4.509  1.5972 -1.5874 -1.1203
  125SOPE  H13S13374   6.789   1.723   4.338  3.2939  1.5935 -0.1755
  125SOPE  C21413375   6.617   1.679   4.467 -0.6022 -0.2792  0.2761
  125SOPE  H14R13376   6.567   1.645   4.374 -1.5272 -0.2669  0.7641
  125SOPE  H14S13377   6.544   1.739   4.525 -1.0068  0.0334 -0.5575
  125SOPE  C21513378   6.687   1.568   4.551  0.5117 -0.1613 -0.4889
  125SOPE  H15R13379   6.734   1.613   4.641 -0.7947 -2.4512  1.4878
  125SOPE  H15S13380   6.771   1.519   4.497  0.8410 -0.1933  0.0399
  125SOPE  C21613381   6.590   1.451   4.608 -0.1977  0.1674  0.0091
  125SOPE  H16R13382   6.658   1.403   4.681 -1.6146  0.8126  1.8600
  125SOPE  H16S13383   6.555   1.380   4.530 -0.8555 -1.5086  1.7527
  125SOPE  C21713384   6.461   1.503   4.682 -0.1175  0.8717 -0.6260
  125SOPE  H17R13385   6.399   1.536   4.596  0.4180  0.4720 -1.1809
  125SOPE  H17S13386   6.497   1.583   4.750  0.1002 -0.1427  0.4943
  125SOPE  C21813387   6.379   1.405   4.764  0.1517  0.2843 -0.0389
  125SOPE  H18R13388   6.453   1.339   4.816  1.0019 -1.2615 -2.9843
  125SOPE  H18S13389   6.310   1.335   4.713  0.1414 -0.6942  1.2589
  125SOPE  H18T13390   6.319   1.470   4.831 -0.9427 -0.9138  0.1881
  125SOPE   C3313391   7.212   2.607   3.314 -0.9454 -0.4456 -0.1106
  125SOPE   H3X13392   7.300   2.674   3.310 -1.2211 -0.1545 -1.5848
  125SOPE   H3Y13393   7.236   2.499   3.325  0.4454 -0.2084 -0.6479
  125SOPE   C3413394   7.125   2.639   3.442 -0.6216 -1.2618 -0.2348
  125SOPE   H4X13395   7.035   2.574   3.453 -0.1545 -1.5259  2.5740
  125SOPE   H4Y13396   7.082   2.741   3.435  0.9094 -0.4083  1.7647
  125SOPE   C3513397   7.204   2.642   3.579  0.8183 -0.1008 -0.3326
  125SOPE   H5X13398   7.304   2.689   3.562  0.9776  0.2799  1.4862
  125SOPE   H5Y13399   7.224   2.533   3.590 -1.3631 -0.9397 -3.3786
  125SOPE   C3613400   7.112   2.693   3.689 -1.1259  0.2734  0.2523
  125SOPE   H6X13401   7.013   2.644   3.685 -1.2590  0.5459  0.2139
  125SOPE   H6Y13402   7.084   2.799   3.671 -0.9886  0.2723  0.0244
  125SOPE   C3713403   7.169   2.678   3.833  0.4984 -0.4880  0.3428
  125SOPE   H7X13404   7.253   2.750   3.846  0.0714  0.2503 -0.8597
  125SOPE   H7Y13405   7.199   2.572   3.848 -0.1930 -1.4028 -3.5924
  125SOPE   C3813406   7.056   2.727   3.926 -0.2910  0.0220  0.6323
  125SOPE   H8X13407   6.955   2.692   3.895  0.6070 -1.1800 -1.1208
  125SOPE   H8Y13408   7.048   2.837   3.912 -0.4142 -0.3663 -3.4723
  125SOPE   C3913409   7.070   2.677   4.066  0.7085  0.9556 -0.7064
  125SOPE   H9X13410   7.021   2.750   4.134  4.8094  0.8851  2.7853
  125SOPE   H9Y13411   7.179   2.684   4.090  1.1305 -0.1252 -2.1795
  125SOPE  C31013412   7.006   2.535   4.100 -0.6514  0.0469 -0.5262
  125SOPE  H10X13413   7.048   2.464   4.025  0.8539 -1.2996  1.4704
  125SOPE  H10Y13414   6.897   2.535   4.082 -0.7198 -0.1701 -0.1137
  125SOPE  C31113415   7.010   2.487   4.249 -0.2372  0.6453  0.1861
  125SOPE  H11X13416   7.105   2.519   4.298 -0.4074  1.8211 -0.2231
  125SOPE  H11Y13417   7.000   2.376   4.245  0.6345  0.5856 -0.8938
  125SOPE  C31213418   6.883   2.526   4.325 -0.2086 -0.0697 -0.2993
  125SOPE  H12X13419   6.796   2.483   4.270  0.0699 -0.1661 -0.6656
  125SOPE  H12Y13420   6.880   2.636   4.340  1.2957 -0.4204  3.8699
  125SOPE  C31313421   6.892   2.454   4.461 -1.0588  0.0670  0.7160
  125SOPE  H13X13422   6.960   2.508   4.530 -0.1803  0.4718 -0.4298
  125SOPE  H13Y13423   6.920   2.348   4.443 -1.8129  0.1374 -1.1321
  125SOPE  C31413424   6.760   2.452   4.532 -0.0643  0.3827 -0.4229
  125SOPE  H14X13425   6.693   2.388   4.470 -0.2492 -0.3851  0.5363
  125SOPE  H14Y13426   6.726   2.557   4.521  0.2848  0.5719  0.2476
  125SOPE  C31513427   6.761   2.411   4.681  0.5261  0.5489 -0.1689
  125SOPE  H15X13428   6.855   2.444   4.729  1.3750 -1.1273 -0.5845
  125SOPE  H15Y13429   6.770   2.300   4.679  2.8667  0.6997  0.1103
  125SOPE  C31613430   6.629   2.446   4.749 -0.5255  0.1118 -0.1444
  125SOPE  H16X13431   6.554   2.410   4.675  1.0766  0.7371 -2.1934
  125SOPE  H16Y13432   6.623   2.556   4.759  2.2584  0.2314  1.1631
  125SOPE  C31713433   6.617   2.385   4.890  0.3355 -0.0313  0.3473
  125SOPE  H17X13434   6.658   2.455   4.967 -0.6448 -1.0946  1.9054
  125SOPE  H17Y13435   6.669   2.290   4.913 -0.1988  0.1813  2.7292
  125SOPE  C31813436   6.467   2.367   4.931  0.1504 -0.2463 -0.2322
  125SOPE  H18X13437   6.403   2.457   4.931  1.5007  0.8092 -2.7291
  125SOPE  H18Y13438   6.461   2.321   5.032  1.0347  3.2457  1.5679
  125SOPE  H18Z13439   6.411   2.302   4.860 -1.7966  1.7972 -0.6760
  126SOPE     N13440   2.257   5.049   2.792  0.6160 -0.0455  0.2795
  126SOPE   HN113441   2.331   4.982   2.765  0.3954 -0.7131  1.2816
  126SOPE   HN213442   2.300   5.122   2.852  0.1335  0.1358  0.4107
  126SOPE   HN313443   2.194   5.007   2.863 -0.5994  0.4168 -0.4929
  126SOPE   C1213444   2.191   5.111   2.675 -0.2506 -0.5788 -0.1993
  126SOPE  H12A13445   2.267   5.179   2.631  1.5606 -0.6002  2.6584
  126SOPE  H12B13446   2.104   5.166   2.717  1.2541  2.3077 -0.5871
  126SOPE   C1113447   2.138   5.005   2.586 -0.4179  0.0817 -0.1701
  126SOPE  H11A13448   2.050   5.063   2.554 -0.2484  0.8724  0.7618
  126SOPE  H11B13449   2.097   4.917   2.640  0.8775  0.6685  1.8640
  126SOPE     P13450   2.319   4.844   2.491 -0.0727 -0.0104 -0.3188
  126SOPE   O1313451   2.443   4.854   2.411 -0.2600  0.3825 -0.3671
  126SOPE   O1413452   2.234   4.727   2.470  0.1870 -0.2125 -0.2494
  126SOPE   O1213453   2.229   4.978   2.474  0.1094  0.1630 -0.0234
  126SOPE   O1113454   2.356   4.856   2.649  0.3235 -0.1623 -0.3899
  126SOPE    C113455   2.435   4.751   2.707  0.3185  0.1528 -0.4167
  126SOPE    HA13456   2.460   4.672   2.634  0.8353 -1.0353  1.0076
  126SOPE    HB13457   2.377   4.698   2.786 -0.2585 -1.1600 -1.6901
  126SOPE    C213458   2.564   4.806   2.779 -0.4431 -0.3311 -0.2331
  126SOPE    HS13459   2.631   4.724   2.811  1.1777  0.7502 -0.7417
  126SOPE   O2113460   2.535   4.895   2.893 -0.2121  0.5736 -0.0378
  126SOPE   C2113461   2.509   4.824   3.008  0.0108 -0.7753  0.2553
  126SOPE   O2213462   2.512   4.701   3.010  0.2053  0.3253 -0.2867
  126SOPE   C2213463   2.494   4.921   3.119  0.2067 -0.1895 -0.4236
  126SOPE   H2R13464   2.389   4.930   3.153 -0.4967  2.3375 -2.8852
  126SOPE   H2S13465   2.523   5.022   3.084  0.5620 -0.8826 -2.2785
  126SOPE    C313466   2.655   4.879   2.676 -0.4205  0.8456  0.2845
  126SOPE    HX13467   2.612   4.981   2.667 -0.2626  0.7479 -2.2021
  126SOPE    HY13468   2.650   4.834   2.575  1.2979 -1.3290  1.0975
  126SOPE   O3113469   2.794   4.875   2.717 -0.3807  0.1676 -0.3712
  126SOPE   C3113470   2.830   4.979   2.790  0.4445 -0.0615  0.1726
  126SOPE   O3213471   2.761   5.078   2.815  0.3995  0.5163 -0.4527
  126SOPE   C3213472   2.973   4.959   2.831  0.4444 -0.7601  0.8426
  126SOPE   H2X13473   3.033   4.973   2.739  0.6011  4.0251  1.4290
  126SOPE   H2Y13474   2.988   4.855   2.869  0.5738 -0.6926  0.9792
  126SOPE   C2313475   2.594   4.862   3.219 -0.2047  0.6137  0.5856
  126SOPE   H3R13476   2.576   4.755   3.243  2.0764 -0.0813 -0.5312
  126SOPE   H3S13477   2.566   4.902   3.319 -1.5119 -2.4568  1.5949
  126SOPE   C2413478   2.746   4.864   3.178  0.3840 -0.1161  0.5131
  126SOPE   H4R13479   2.758   4.825   3.075 -1.4612  2.3016 -0.7474
  126SOPE   H4S13480   2.784   4.967   3.157 -0.5157  0.1598  0.1259
  126SOPE   C2513481   2.845   4.797   3.276  0.2676  0.2812  0.3216
  126SOPE   H5R13482   2.832   4.835   3.380 -0.1268  1.1966 -0.0557
  126SOPE   H5S13483   2.811   4.691   3.276 -1.1202  0.6022 -3.0800
  126SOPE   C2613484   2.990   4.810   3.235 -0.5463 -0.6182  0.1838
  126SOPE   H6R13485   2.994   4.845   3.129  0.0897  2.5362  1.1528
  126SOPE   H6S13486   3.043   4.885   3.297  0.6835 -0.5433 -0.9106
  126SOPE   C2713487   3.072   4.677   3.240 -0.0404  0.5083  0.0884
  126SOPE   H7R13488   3.018   4.617   3.164  1.0797  0.2463 -0.5364
  126SOPE   H7S13489   3.176   4.691   3.203  0.2942 -1.3985  0.1876
  126SOPE   C2813490   3.076   4.611   3.378  0.0510 -0.3291  0.3997
  126SOPE   H8R13491   3.133   4.659   3.461  0.0195 -1.7001  1.2471
  126SOPE   H8S13492   2.972   4.606   3.418 -0.2235  1.9468  0.1319
  126SOPE   C2913493   3.134   4.471   3.355 -0.0712 -0.4387 -0.0163
  126SOPE   H9113494   3.130   4.427   3.254  2.7012 -1.1963  0.1239
  126SOPE  C21013495   3.216   4.406   3.443  0.1150  0.6045  0.6860
  126SOPE  H10113496   3.254   4.307   3.414  1.1478  1.4629 -1.0367
  126SOPE  C21113497   3.237   4.441   3.588 -0.2652  0.0646 -0.2445
  126SOPE  H11R13498   3.163   4.515   3.624 -4.2270 -3.4727 -0.3417
  126SOPE  H11S13499   3.336   4.490   3.599  0.3045 -1.3147  1.1521
  126SOPE  C21213500   3.238   4.320   3.684  0.7101 -0.1648 -0.0062
  126SOPE  H12R13501   3.307   4.240   3.651  0.5290  0.0853 -1.0513
  126SOPE  H12S13502   3.135   4.279   3.688  1.0811 -1.2124 -0.6954
  126SOPE  C21313503   3.274   4.375   3.823 -0.3603 -0.8065 -0.3551
  126SOPE  H13R13504   3.228   4.306   3.897 -1.2536  0.1072 -0.0397
  126SOPE  H13S13505   3.219   4.471   3.824  0.4428 -0.2847  2.5271
  126SOPE  C21413506   3.426   4.384   3.840  0.0369  0.0040 -0.0245
  126SOPE  H14R13507   3.471   4.437   3.754  0.0975 -0.8884 -0.5467
  126SOPE  H14S13508   3.453   4.278   3.857  1.1022 -0.0561 -1.8544
  126SOPE  C21513509   3.482   4.465   3.963  0.0795  0.1861  0.6267
  126SOPE  H15R13510   3.593   4.461   3.965  0.0496 -0.4162  1.7116
  126SOPE  H15S13511   3.452   4.414   4.056 -1.1586  0.1371  0.2143
  126SOPE  C21613512   3.426   4.608   3.958  0.8642  0.5530 -0.3167
  126SOPE  H16R13513   3.315   4.605   3.958  0.8704  0.0156 -1.1920
  126SOPE  H16S13514   3.460   4.654   3.864 -0.5869  2.7594  0.1858
  126SOPE  C21713515   3.471   4.689   4.088 -0.2459  0.3003  0.3002
  126SOPE  H17R13516   3.581   4.705   4.092 -0.0310 -1.2960  1.9342
  126SOPE  H17S13517   3.447   4.626   4.176  0.9259  0.4119  0.7200
  126SOPE  C21813518   3.396   4.816   4.109 -0.2133  0.0140  0.1581
  126SOPE  H18R13519   3.430   4.888   4.031  0.3554 -1.2341 -0.7803
  126SOPE  H18S13520   3.438   4.867   4.199 -1.2273  0.3554  0.4445
  126SOPE  H18T13521   3.288   4.796   4.119  0.0869 -0.9873  1.5787
  126SOPE   C3313522   3.026   5.063   2.926 -0.6724 -0.4717  0.0236
  126SOPE   H3X13523   3.000   5.047   3.033 -1.9136  2.1005  0.1656
  126SOPE   H3Y13524   2.981   5.161   2.900 -0.4574  0.1155  1.7510
  126SOPE   C3413525   3.181   5.080   2.923  0.6607  0.4760  0.6850
  126SOPE   H4X13526   3.224   5.122   2.830  0.1459 -1.8657 -0.6843
  126SOPE   H4Y13527   3.218   4.977   2.941 -1.4266  0.1412  3.8176
  126SOPE   C3513528   3.239   5.177   3.032 -0.6532  0.0093  0.0045
  126SOPE   H5X13529   3.172   5.263   3.049 -0.7944  0.6517 -3.1142
  126SOPE   H5Y13530   3.340   5.212   3.002 -0.2309  0.3765  1.7548
  126SOPE   C3613531   3.261   5.114   3.171  0.0175  1.0306  0.1257
  126SOPE   H6X13532   3.171   5.064   3.213  0.3833  0.4853  0.2741
  126SOPE   H6Y13533   3.289   5.195   3.241  2.3856  0.5634 -0.1898
  126SOPE   C3713534   3.385   5.024   3.170  0.4360  0.8047  0.5895
  126SOPE   H7X13535   3.471   5.093   3.162  1.4524 -0.6150 -2.7316
  126SOPE   H7Y13536   3.387   4.954   3.083 -0.4018  2.2576 -0.6512
  126SOPE   C3813537   3.400   4.939   3.298  0.5155  0.0702 -0.0189
  126SOPE   H8X13538   3.484   4.869   3.278  1.3905  1.0437  0.1611
  126SOPE   H8Y13539   3.304   4.885   3.311  0.8594 -0.5815 -0.1211
  126SOPE   C3913540   3.446   5.028   3.417 -0.3477 -0.1626  0.2729
  126SOPE   H9X13541   3.367   5.105   3.425  0.8873  1.6209 -2.6363
  126SOPE   H9Y13542   3.544   5.075   3.394  0.0479 -1.4100 -0.7101
  126SOPE  C31013543   3.460   4.957   3.550 -0.3123 -0.8854  0.3134
  126SOPE  H10X13544   3.548   4.890   3.557  1.1791  1.0237  0.5195
  126SOPE  H10Y13545   3.365   4.899   3.558 -0.3735 -0.5688  2.4726
  126SOPE  C31113546   3.483   5.069   3.662  0.3812  0.0135  0.4518
  126SOPE  H11X13547   3.403   5.146   3.660  1.8950  1.6699  0.8049
  126SOPE  H11Y13548   3.582   5.111   3.633  1.9612 -0.5830  4.3436
  126SOPE  C31213549   3.501   5.009   3.806 -0.4875  0.3951  0.0659
  126SOPE  H12X13550   3.572   4.924   3.797  0.5900  1.1686  0.9176
  126SOPE  H12Y13551   3.406   4.966   3.845 -0.5448 -0.0918 -0.5874
  126SOPE  C31313552   3.567   5.110   3.910  0.0032 -0.2608  0.4919
  126SOPE  H13X13553   3.639   5.180   3.862  0.3794  2.1420  4.1712
  126SOPE  H13Y13554   3.633   5.052   3.978  1.0119  0.1032 -0.1553
  126SOPE  C31413555   3.461   5.185   3.995  0.4728  0.2932 -0.4621
  126SOPE  H14X13556   3.377   5.115   4.015  1.6841 -1.1202 -0.1322
  126SOPE  H14Y13557   3.415   5.262   3.929 -1.5443 -1.6007 -1.3871
  126SOPE  C31513558   3.522   5.232   4.124 -0.3032  0.0728 -0.0418
  126SOPE  H15X13559   3.605   5.296   4.087  0.3870 -1.0558 -0.4651
  126SOPE  H15Y13560   3.572   5.149   4.178 -3.0374 -1.9598 -0.4072
  126SOPE  C31613561   3.426   5.318   4.203  0.3295 -0.4915 -0.3369
  126SOPE  H16X13562   3.362   5.252   4.265  0.2820  0.1295  0.2974
  126SOPE  H16Y13563   3.354   5.365   4.133 -1.0478 -1.5278  0.3276
  126SOPE  C31713564   3.490   5.425   4.296 -0.6356 -0.1132  0.1128
  126SOPE  H17X13565   3.413   5.478   4.356 -0.9364 -2.2200  1.6864
  126SOPE  H17Y13566   3.534   5.498   4.224 -1.1112 -1.3118 -1.4552
  126SOPE  C31813567   3.586   5.376   4.399  0.2846 -0.3801 -0.7593
  126SOPE  H18X13568   3.531   5.307   4.466  0.6338  0.6011  0.6003
  126SOPE  H18Y13569   3.641   5.465   4.438  1.1259 -1.5619  0.8763
  126SOPE  H18Z13570   3.661   5.313   4.347  0.7699 -0.2786 -0.1968
  127SOPE     N13571   1.023   6.919   2.894  0.1562  0.4362  0.3349
  127SOPE   HN113572   0.925   6.954   2.885  0.3174  0.4667 -2.1014
  127SOPE   HN213573   1.011   6.817   2.913  2.6910  0.3105  1.6684
  127SOPE   HN313574   1.067   6.944   2.984  0.7992  2.4193 -0.4784
  127SOPE   C1213575   1.082   6.961   2.764  0.0856 -0.2831  0.7872
  127SOPE  H12A13576   1.106   7.067   2.788  0.8793 -0.3750  0.4169
  127SOPE  H12B13577   1.003   6.956   2.685  1.3259  1.8040 -0.6897
  127SOPE   C1113578   1.211   6.884   2.732 -0.4825 -0.0654  0.4855
  127SOPE  H11A13579   1.198   6.774   2.724 -1.1839  0.0875 -0.8684
  127SOPE  H11B13580   1.287   6.881   2.813 -0.9310  2.4715  1.0836
  127SOPE     P13581   1.348   7.054   2.587 -0.0750 -0.2862  0.1215
  127SOPE   O1313582   1.309   7.122   2.461  0.2172  0.2036 -0.4540
  127SOPE   O1413583   1.490   7.008   2.596  0.6179  0.2565  0.3990
  127SOPE   O1213584   1.270   6.922   2.609  0.8000  0.1309 -0.0446
  127SOPE   O1113585   1.312   7.139   2.715 -0.0107 -0.2526  0.1340
  127SOPE    C113586   1.416   7.204   2.790 -0.6242  0.1446  0.4205
  127SOPE    HA13587   1.511   7.202   2.733 -1.2820 -1.6277 -0.7193
  127SOPE    HB13588   1.437   7.149   2.884  0.8332 -2.3191 -1.2507
  127SOPE    C213589   1.380   7.358   2.825  0.6577 -0.0174 -0.1082
  127SOPE    HS13590   1.476   7.413   2.835 -0.2767  1.6029  0.2952
  127SOPE   O2113591   1.285   7.363   2.940 -0.1217  0.0745 -0.0982
  127SOPE   C2113592   1.336   7.314   3.048  0.2680 -0.3918  0.0554
  127SOPE   O2213593   1.453   7.289   3.074 -0.4474  0.4647  0.1221
  127SOPE   C2213594   1.219   7.253   3.121  0.8155  0.1652 -0.3172
  127SOPE   H2R13595   1.226   7.146   3.091 -0.4825  0.2077 -0.8610
  127SOPE   H2S13596   1.121   7.296   3.090  0.3953 -0.7823 -0.3408
  127SOPE    C313597   1.314   7.429   2.699  0.1373 -0.4887 -0.1491
  127SOPE    HX13598   1.212   7.388   2.685  0.0063  0.4312 -2.3106
  127SOPE    HY13599   1.368   7.406   2.604 -3.3806  1.9530 -3.0063
  127SOPE   O3113600   1.307   7.574   2.717 -1.0528  0.0847  0.3177
  127SOPE   C3113601   1.417   7.644   2.691  0.1758  0.2671  0.5175
  127SOPE   O3213602   1.526   7.596   2.666  0.7521  0.2913 -0.2286
  127SOPE   C3213603   1.377   7.798   2.710  0.0771 -0.0769 -0.0095
  127SOPE   H2X13604   1.267   7.797   2.696  0.1436 -0.6960 -0.5685
  127SOPE   H2Y13605   1.439   7.849   2.634 -0.1509 -2.4152 -1.8820
  127SOPE   C2313606   1.244   7.283   3.272  0.5356  0.0779  0.4812
  127SOPE   H3R13607   1.263   7.393   3.273 -0.1165  0.2148 -0.8754
  127SOPE   H3S13608   1.336   7.235   3.313  0.9452  0.4146 -0.0198
  127SOPE   C2413609   1.134   7.235   3.356  0.1762  0.1370  0.0214
  127SOPE   H4R13610   1.037   7.278   3.321 -1.4837 -2.2655  1.3523
  127SOPE   H4S13611   1.123   7.125   3.346 -0.2083  0.1669  0.0855
  127SOPE   C2513612   1.151   7.265   3.499 -0.0125  0.0222 -0.6289
  127SOPE   H5R13613   1.250   7.231   3.534 -0.3458  1.2300  1.6931
  127SOPE   H5S13614   1.161   7.375   3.512 -0.0855  0.0033 -0.4106
  127SOPE   C2613615   1.037   7.214   3.587  0.1864  0.2491 -0.3494
  127SOPE   H6R13616   0.940   7.263   3.566  0.2072 -0.4262 -2.2038
  127SOPE   H6S13617   1.032   7.107   3.559  0.6472  0.4871 -1.3990
  127SOPE   C2713618   1.067   7.233   3.733  0.3862 -1.0253 -0.0112
  127SOPE   H7R13619   1.175   7.210   3.745  0.6308  0.7833  1.8586
  127SOPE   H7S13620   1.045   7.338   3.760  1.7573 -0.4030 -1.1817
  127SOPE   C2813621   0.985   7.134   3.822  0.1575 -0.3809 -0.1515
  127SOPE   H8R13622   0.997   7.027   3.794 -1.3442 -1.1153  1.7839
  127SOPE   H8S13623   1.038   7.146   3.919 -0.1059 -1.5548  0.1497
  127SOPE   C2913624   0.849   7.184   3.849  0.6284 -0.1448  0.3545
  127SOPE   H9113625   0.830   7.272   3.786  2.9590 -1.0733 -1.8384
  127SOPE  C21013626   0.756   7.117   3.918  0.5695  0.0546  0.0823
  127SOPE  H10113627   0.655   7.156   3.938  0.8268  0.5634  0.3957
  127SOPE  C21113628   0.776   6.981   3.987 -0.0036  0.7571 -0.1357
  127SOPE  H11R13629   0.879   6.943   3.972 -0.8318 -1.1714 -1.2800
  127SOPE  H11S13630   0.715   6.902   3.939  0.8669 -0.1329  0.2169
  127SOPE  C21213631   0.745   6.997   4.135 -0.7370 -0.0338  0.0974
  127SOPE  H12R13632   0.770   6.914   4.204  1.2863  0.7820  0.4320
  127SOPE  H12S13633   0.637   7.020   4.140 -0.4206  1.8632 -0.7672
  127SOPE  C21313634   0.818   7.118   4.198  0.9146  0.7366  0.0543
  127SOPE  H13R13635   0.813   7.208   4.133 -0.6209  1.5373  1.1965
  127SOPE  H13S13636   0.921   7.089   4.225  0.2260 -1.3240  0.6946
  127SOPE  C21413637   0.742   7.174   4.322  0.9763 -0.4076 -0.8161
  127SOPE  H14R13638   0.821   7.212   4.391  2.8273  0.9924 -3.5478
  127SOPE  H14S13639   0.679   7.095   4.368 -2.2315  3.3332  1.9091
  127SOPE  C21513640   0.649   7.296   4.297  0.3507  0.5325 -0.3619
  127SOPE  H15R13641   0.545   7.264   4.272  0.7936 -1.8961  0.6367
  127SOPE  H15S13642   0.693   7.351   4.211 -0.2094 -0.0251 -1.0181
  127SOPE  C21613643   0.650   7.391   4.418 -0.2756  0.5813  0.1953
  127SOPE  H16R13644   0.606   7.490   4.390 -1.0571 -0.0649 -0.9209
  127SOPE  H16S13645   0.753   7.424   4.444  0.3949 -1.6182  0.5255
  127SOPE  C21713646   0.581   7.325   4.538 -0.0279 -0.1898 -0.3726
  127SOPE  H17R13647   0.647   7.251   4.588 -0.7828  0.6725  2.0337
  127SOPE  H17S13648   0.487   7.283   4.496 -1.6389  1.7618  1.0694
  127SOPE  C21813649   0.538   7.414   4.653 -0.2829 -0.1582 -0.4802
  127SOPE  H18R13650   0.490   7.357   4.735 -0.1619  1.4284  0.7423
  127SOPE  H18S13651   0.467   7.495   4.629 -0.9800  0.7417  3.8563
  127SOPE  H18T13652   0.627   7.461   4.701 -1.8541  1.3886  1.0814
  127SOPE   C3313653   1.416   7.849   2.856 -0.0452  1.3009  0.3915
  127SOPE   H3X13654   1.389   7.956   2.844  1.6175  1.4528 -2.9358
  127SOPE   H3Y13655   1.523   7.855   2.884  0.0370  1.9996 -0.0519
  127SOPE   C3413656   1.334   7.773   2.967  0.5816  0.3859 -0.1874
  127SOPE   H4X13657   1.269   7.695   2.923 -0.2931  0.1807  1.3841
  127SOPE   H4Y13658   1.272   7.852   3.014  2.0387  0.3518  1.9963
  127SOPE   C3513659   1.428   7.716   3.069  0.3380 -0.6831 -1.0865
  127SOPE   H5X13660   1.486   7.805   3.101 -2.2921  0.3360  1.3275
  127SOPE   H5Y13661   1.499   7.652   3.013  1.0660 -2.2839  1.4840
  127SOPE   C3613662   1.370   7.637   3.190  0.4691  0.3245  0.1562
  127SOPE   H6X13663   1.457   7.593   3.243  2.7331  1.0221 -2.7359
  127SOPE   H6Y13664   1.294   7.561   3.162  2.5503 -1.5995 -0.6519
  127SOPE   C3713665   1.302   7.720   3.303  0.2468  0.3299  0.3289
  127SOPE   H7X13666   1.225   7.785   3.255 -0.5578 -0.6471  0.2531
  127SOPE   H7Y13667   1.372   7.798   3.340 -0.4488  1.3756 -0.4605
  127SOPE   C3813668   1.246   7.631   3.415  0.0540  0.1913  0.6140
  127SOPE   H8X13669   1.333   7.565   3.436  0.0265 -0.8033 -1.9649
  127SOPE   H8Y13670   1.160   7.571   3.378  0.9137 -2.0602  2.0873
  127SOPE   C3913671   1.198   7.709   3.536  0.6082  0.0274  0.2569
  127SOPE   H9X13672   1.114   7.773   3.502  2.2717  1.2328 -1.8702
  127SOPE   H9Y13673   1.278   7.774   3.577  0.7640 -0.7094  1.1539
  127SOPE  C31013674   1.148   7.627   3.652  0.3224  0.3205  0.1078
  127SOPE  H10X13675   1.226   7.569   3.706 -2.1825 -1.8296  1.6967
  127SOPE  H10Y13676   1.090   7.539   3.616 -0.7364  0.6145  1.0233
  127SOPE  C31113677   1.080   7.719   3.749  0.6346 -0.1150 -0.0968
  127SOPE  H11X13678   0.982   7.748   3.705 -0.5888 -1.7822  1.3506
  127SOPE  H11Y13679   1.147   7.806   3.765 -1.9036  2.6467 -3.0737
  127SOPE  C31213680   1.056   7.648   3.890  0.8411 -0.1800  0.3894
  127SOPE  H12X13681   1.159   7.619   3.918  0.7483  0.8499  1.9064
  127SOPE  H12Y13682   0.995   7.557   3.872  0.7023 -0.1909  0.8801
  127SOPE  C31313683   1.000   7.759   3.975 -0.0899 -0.5068  0.6006
  127SOPE  H13X13684   0.935   7.815   3.904 -0.3215  1.9493  2.6041
  127SOPE  H13Y13685   1.070   7.834   4.018 -2.0993  0.3607  2.5728
  127SOPE  C31413686   0.909   7.710   4.091 -0.1062 -0.2782 -0.3665
  127SOPE  H14X13687   0.839   7.638   4.044 -1.3014  0.1241  0.7216
  127SOPE  H14Y13688   0.847   7.791   4.135  0.6951 -0.1511  0.5888
  127SOPE  C31513689   0.988   7.633   4.201 -0.0247 -0.7575  0.2861
  127SOPE  H15X13690   1.040   7.544   4.157  1.5285 -0.1342  0.7889
  127SOPE  H15Y13691   0.922   7.604   4.285 -0.8972 -2.1742 -0.8251
  127SOPE  C31613692   1.110   7.705   4.258 -0.2164 -0.3502  0.4320
  127SOPE  H16X13693   1.177   7.744   4.178  0.8221 -1.2063  0.8637
  127SOPE  H16Y13694   1.165   7.624   4.311 -0.4689 -1.1771 -0.5243
  127SOPE  C31713695   1.071   7.816   4.348  0.2486 -1.1384 -0.3265
  127SOPE  H17X13696   0.999   7.767   4.417  1.4266 -1.1351  0.9636
  127SOPE  H17Y13697   1.025   7.901   4.294  0.6359 -1.2027 -0.7696
  127SOPE  C31813698   1.193   7.867   4.430 -0.9764 -0.3809 -0.5857
  127SOPE  H18X13699   1.162   7.941   4.507 -0.7446 -0.3411 -0.5284
  127SOPE  H18Y13700   1.267   7.906   4.357 -0.4986 -3.4641 -1.9114
  127SOPE  H18Z13701   1.238   7.779   4.482 -0.5794  0.5034  0.6077
  128SOPE     N13702   5.448   4.122   2.502  0.1327 -0.4821  0.0648
  128SOPE   HN113703   5.532   4.097   2.559 -0.1900 -0.1077  0.7239
  128SOPE   HN213704   5.390   4.035   2.505  0.9242 -1.0089  0.6820
  128SOPE   HN313705   5.474   4.145   2.404 -0.5339  1.0613  0.2312
  128SOPE   C1213706   5.394   4.243   2.581 -0.0461  0.4377  0.6027
  128SOPE  H12A13707   5.315   4.278   2.510  1.6490  2.5021 -0.3915
  128SOPE  H12B13708   5.476   4.318   2.583 -0.4185  1.0082 -1.9730
  128SOPE   C1113709   5.360   4.209   2.730  0.0494 -0.1781  0.3149
  128SOPE  H11A13710   5.337   4.101   2.737  0.5954 -0.3012  0.2717
  128SOPE  H11B13711   5.279   4.280   2.757  0.1314 -0.7741  2.2398
  128SOPE     P13712   5.595   4.141   2.835 -0.3520  0.3618 -0.2382
  128SOPE   O1313713   5.694   4.200   2.933  0.3239 -0.2868 -0.1531
  128SOPE   O1413714   5.642   4.100   2.704  0.4868  0.2433  0.4172
  128SOPE   O1213715   5.466   4.231   2.821  0.3817  0.5764 -0.8047
  128SOPE   O1113716   5.542   4.012   2.905 -0.4226 -0.4267  0.6183
  128SOPE    C113717   5.486   3.999   3.032  0.1658  0.1721 -1.2813
  128SOPE    HA13718   5.414   3.916   3.046 -0.3638  1.1290  2.9690
  128SOPE    HB13719   5.434   4.093   3.059 -0.4906 -0.2085 -1.2051
  128SOPE    C213720   5.603   3.962   3.133  0.2181 -0.5057 -0.2998
  128SOPE    HS13721   5.683   4.031   3.098 -2.3027  1.6001 -2.3055
  128SOPE   O2113722   5.643   3.824   3.120  0.2129 -0.4775  1.4437
  128SOPE   C2113723   5.777   3.796   3.121  0.4059  0.0518  0.1489
  128SOPE   O2213724   5.867   3.873   3.165  0.4895 -0.4477  0.4796
  128SOPE   C2213725   5.790   3.646   3.097 -0.0440  0.3463 -0.1695
  128SOPE   H2R13726   5.822   3.628   2.992  4.7557  0.2126  1.0590
  128SOPE   H2S13727   5.696   3.596   3.129 -0.0289 -0.0699 -0.7511
  128SOPE    C313728   5.565   3.994   3.281 -0.7164 -0.3079 -0.5233
  128SOPE    HX13729   5.499   3.911   3.312 -0.5496 -0.4185 -0.4680
  128SOPE    HY13730   5.514   4.090   3.304 -0.1881 -0.0931 -0.2180
  128SOPE   O3113731   5.686   3.986   3.359  0.1414  0.0425 -0.1888
  128SOPE   C3113732   5.762   4.099   3.378  0.1809 -0.2523  0.1990
  128SOPE   O3213733   5.737   4.205   3.332 -0.1279 -0.5477  0.2208
  128SOPE   C3213734   5.880   4.073   3.477 -0.1222 -0.0548  0.1855
  128SOPE   H2X13735   5.917   4.175   3.501 -0.6672  0.0952  0.4132
  128SOPE   H2Y13736   5.957   4.014   3.424  0.9012  0.4380  1.0747
  128SOPE   C2313737   5.912   3.581   3.183  0.2715 -0.0223  0.0948
  128SOPE   H3R13738   6.013   3.624   3.171  0.2871 -0.0368  0.1802
  128SOPE   H3S13739   5.924   3.483   3.132 -1.2437 -0.0889 -0.1831
  128SOPE   C2413740   5.881   3.551   3.333  0.5366 -0.1334  0.0546
  128SOPE   H4R13741   5.789   3.489   3.334 -0.0221  0.6796  0.3183
  128SOPE   H4S13742   5.955   3.484   3.380 -0.3561 -0.5468  0.9073
  128SOPE   C2513743   5.859   3.670   3.426 -0.5968  0.7399  0.2380
  128SOPE   H5R13744   5.943   3.741   3.413  0.0537  0.2046  1.3421
  128SOPE   H5S13745   5.771   3.728   3.389 -1.9700 -0.2195  1.8637
  128SOPE   C2613746   5.854   3.638   3.577 -0.3852  0.4000  0.6717
  128SOPE   H6R13747   5.937   3.566   3.597 -1.3225 -0.2895  2.2560
  128SOPE   H6S13748   5.877   3.729   3.637 -1.9116  1.0909  0.2410
  128SOPE   C2713749   5.719   3.596   3.631  0.2151 -0.8141  0.4614
  128SOPE   H7R13750   5.644   3.678   3.620 -1.2850 -2.0353  1.0843
  128SOPE   H7S13751   5.685   3.510   3.570  0.5372 -1.1437  0.7435
  128SOPE   C2813752   5.730   3.560   3.776  0.1992  0.5219 -0.0902
  128SOPE   H8R13753   5.797   3.472   3.783  0.3108  0.5732 -0.5085
  128SOPE   H8S13754   5.778   3.641   3.836  1.4564  0.7238 -1.3268
  128SOPE   C2913755   5.591   3.516   3.826  0.4292 -0.2745  0.4522
  128SOPE   H9113756   5.552   3.422   3.784 -0.5447 -0.4385  1.6414
  128SOPE  C21013757   5.526   3.576   3.927  0.4319  0.0363 -0.4353
  128SOPE  H10113758   5.434   3.527   3.962  0.6228 -0.5941 -0.7968
  128SOPE  C21113759   5.565   3.711   3.995 -0.2920  0.1380 -0.8851
  128SOPE  H11R13760   5.478   3.778   3.983 -0.1521  0.4275 -0.3452
  128SOPE  H11S13761   5.645   3.760   3.936 -0.3986  0.3297 -0.8714
  128SOPE  C21213762   5.604   3.717   4.146 -0.5216 -0.3908 -0.5001
  128SOPE  H12R13763   5.619   3.824   4.172  0.8426 -0.9584  1.2504
  128SOPE  H12S13764   5.699   3.662   4.163 -1.3106 -1.7878 -0.4715
  128SOPE  C21313765   5.498   3.659   4.238  0.3078  0.0616  0.1354
  128SOPE  H13R13766   5.499   3.548   4.242 -2.4310 -0.1396 -1.8292
  128SOPE  H13S13767   5.395   3.683   4.203  0.1847 -2.0305 -1.1014
  128SOPE  C21413768   5.514   3.709   4.379  0.1022 -0.7232 -0.4707
  128SOPE  H14R13769   5.519   3.820   4.392  0.1521 -0.8615  0.8886
  128SOPE  H14S13770   5.604   3.657   4.417 -0.6820 -1.3288  0.6159
  128SOPE  C21513771   5.394   3.685   4.471  0.3565 -0.4068 -0.1572
  128SOPE  H15R13772   5.307   3.748   4.441  0.1659  0.4138  1.9718
  128SOPE  H15S13773   5.426   3.708   4.575 -3.1637  0.3213  0.8877
  128SOPE  C21613774   5.337   3.540   4.473 -0.2068  0.0657 -0.2367
  128SOPE  H16R13775   5.412   3.462   4.498 -0.4505  0.4987  2.0167
  128SOPE  H16S13776   5.291   3.514   4.375  1.9877  0.1758 -1.3684
  128SOPE  C21713777   5.229   3.533   4.573  0.7659  0.1125 -0.2131
  128SOPE  H17R13778   5.171   3.626   4.556  0.9546  0.2858  0.0890
  128SOPE  H17S13779   5.277   3.543   4.673 -0.3383 -1.0400  0.4599
  128SOPE  C21813780   5.141   3.402   4.561  0.2656  0.3865 -0.0207
  128SOPE  H18R13781   5.059   3.405   4.635  1.8843 -1.4273  1.9676
  128SOPE  H18S13782   5.217   3.321   4.570  0.4722  0.7190  1.5300
  128SOPE  H18T13783   5.089   3.413   4.463  1.4169  0.4069 -0.6492
  128SOPE   C3313784   5.842   4.006   3.608  0.7486  0.4142 -0.6575
  128SOPE   H3X13785   5.930   3.951   3.647 -0.5902 -0.5926  1.0581
  128SOPE   H3Y13786   5.749   3.947   3.589  2.1192 -1.7468 -1.0027
  128SOPE   C3413787   5.804   4.099   3.725  1.0961  0.0427  0.8323
  128SOPE   H4X13788   5.719   4.165   3.696  0.4643 -1.7501 -1.7361
  128SOPE   H4Y13789   5.887   4.172   3.735  1.3656 -0.0465 -0.5891
  128SOPE   C3513790   5.782   4.023   3.855  0.3098  0.2607 -0.0035
  128SOPE   H5X13791   5.865   3.957   3.886  1.2230  1.5742  0.4661
  128SOPE   H5Y13792   5.695   3.956   3.837 -0.2831  0.7575  0.8835
  128SOPE   C3613793   5.761   4.130   3.968 -0.2300  0.3364 -0.5655
  128SOPE   H6X13794   5.689   4.202   3.923 -1.1435 -2.3123 -3.7326
  128SOPE   H6Y13795   5.864   4.173   3.971 -0.1574  0.2969 -2.0499
  128SOPE   C3713796   5.710   4.074   4.101 -0.0585 -0.1515  0.4681
  128SOPE   H7X13797   5.765   3.978   4.106 -1.2076 -0.7637  1.8488
  128SOPE   H7Y13798   5.607   4.041   4.079  0.3157 -1.3606  0.4674
  128SOPE   C3813799   5.714   4.164   4.228  0.4676  0.2535 -0.6600
  128SOPE   H8X13800   5.649   4.253   4.215  3.7191  3.4968  2.6534
  128SOPE   H8Y13801   5.821   4.195   4.233  0.2545  0.9860 -0.4827
  128SOPE   C3913802   5.683   4.077   4.359  0.1039 -0.0764  0.1754
  128SOPE   H9X13803   5.740   3.982   4.355  0.6425  0.2745 -1.5377
  128SOPE   H9Y13804   5.578   4.047   4.338  0.4863  0.4792 -3.0054
  128SOPE  C31013805   5.711   4.141   4.487 -0.2281  0.2782  0.2665
  128SOPE  H10X13806   5.643   4.227   4.507 -0.7293  0.3758 -1.6326
  128SOPE  H10Y13807   5.817   4.172   4.494 -0.0370 -0.2851 -0.1239
  128SOPE  C31113808   5.705   4.031   4.598  0.2396 -0.0360 -0.8131
  128SOPE  H11X13809   5.782   3.952   4.584 -0.6467 -0.7766 -1.6794
  128SOPE  H11Y13810   5.607   3.980   4.588  0.7365 -1.5406  1.2454
  128SOPE  C31213811   5.699   4.077   4.742 -0.0199  0.1587  0.0652
  128SOPE  H12X13812   5.624   4.158   4.758  0.2191  0.0304  2.0078
  128SOPE  H12Y13813   5.792   4.123   4.780 -0.5268  0.3012  1.1770
  128SOPE  C31313814   5.674   3.958   4.832 -0.8731 -0.3238 -0.4427
  128SOPE  H13X13815   5.754   3.882   4.812 -0.5661 -0.2125  0.3351
  128SOPE  H13Y13816   5.581   3.901   4.813 -1.0326  0.2624 -1.5171
  128SOPE  C31413817   5.696   3.971   4.980  1.1887 -0.3860 -1.0247
  128SOPE  H14X13818   5.725   4.076   5.001  1.3157 -0.2300 -1.9541
  128SOPE  H14Y13819   5.766   3.896   5.023  1.7801  1.2246  0.9905
  128SOPE  C31513820   5.569   3.952   5.067 -0.0059 -0.0609 -0.3003
  128SOPE  H15X13821   5.600   3.969   5.173 -0.0176  0.3665 -0.3657
  128SOPE  H15Y13822   5.527   3.849   5.063 -0.9208  0.1184  2.5601
  128SOPE  C31613823   5.455   4.052   5.028  0.3513 -0.4886  0.1469
  128SOPE  H16X13824   5.444   4.042   4.918  2.9705  0.5089 -0.2783
  128SOPE  H16Y13825   5.490   4.156   5.050 -3.2377  1.0103 -0.4326
  128SOPE  C31713826   5.331   4.033   5.111  0.5822  0.4934  0.0862
  128SOPE  H17X13827   5.354   3.956   5.188 -0.9298 -1.1340 -1.0243
  128SOPE  H17Y13828   5.253   3.992   5.044  2.9419 -1.8398 -1.4370
  128SOPE  C31813829   5.280   4.159   5.184 -0.0478 -0.0256  0.7554
  128SOPE  H18X13830   5.356   4.206   5.250 -0.1865  1.9400 -0.4255
  128SOPE  H18Y13831   5.192   4.133   5.248  0.1084 -1.0805  0.5614
  128SOPE  H18Z13832   5.247   4.229   5.105  0.4129  0.8487  1.3320
  129OSM      N13833   2.184   5.153   7.285 -0.2837 -0.1978  0.4761
  129OSM    C1513834   2.202   5.173   7.428  0.2699 -0.0387 -0.1270
  129OSM   H15A13835   2.301   5.211   7.448  0.5602 -1.1505  0.6251
  129OSM   H15B13836   2.194   5.085   7.490 -1.0057  0.2912  0.2094
  129OSM   H15C13837   2.129   5.239   7.473  0.0139 -1.5754  1.8305
  129OSM    C1413838   2.032   5.148   7.266  0.6043 -0.4497  0.0548
  129OSM   H14A13839   2.026   5.131   7.160  2.5050  0.0913 -0.1854
  129OSM   H14B13840   1.987   5.244   7.289 -1.4111 -0.8383 -1.9501
  129OSM   H14C13841   1.998   5.071   7.333  1.5154 -1.7251 -0.9074
  129OSM    C1313842   2.251   5.269   7.215  0.7822 -0.4051  0.1580
  129OSM   H13A13843   2.357   5.275   7.234  1.0517  0.6413 -1.4473
  129OSM   H13B13844   2.208   5.363   7.246 -1.3976 -0.7075 -1.7334
  129OSM   H13C13845   2.225   5.266   7.110 -2.5070  1.5210  0.7866
  129OSM    C1213846   2.250   5.027   7.237 -0.2107  0.0006 -1.0597
  129OSM   H12A13847   2.209   4.942   7.289  0.7385  1.3685  2.1665
  129OSM   H12B13848   2.347   5.022   7.285 -0.4404 -0.0012 -0.5882
  129OSM    C1113849   2.246   4.987   7.096  0.3233 -0.6130 -0.1957
  129OSM   H11A13850   2.327   4.911   7.085  2.2205  0.7965  2.8119
  129OSM   H11B13851   2.256   5.074   7.027 -2.1420 -1.0695 -1.2698
  129OSM      P13852   2.089   4.777   7.096  0.4253  0.1922  0.2322
  129OSM    O1313853   2.153   4.758   7.225 -0.4069 -0.3074 -0.0308
  129OSM    O1413854   1.947   4.740   7.085 -0.2275 -0.4195 -0.8374
  129OSM    O1113855   2.174   4.700   6.989 -0.3525 -0.2920 -0.0217
  129OSM    O1213856   2.113   4.930   7.067 -0.0789  0.2583  0.1009
  129OSM    C1S13857   2.105   4.652   6.871 -0.2865  0.4467 -0.1358
  129OSM    H1S13858   2.015   4.593   6.899 -0.2288  0.1755 -0.5123
  129OSM    H1T13859   2.179   4.587   6.820  1.2613  3.1863 -1.6566
  129OSM     NF13860   1.994   4.715   6.658  0.2267 -0.7220  0.3434
  129OSM    HNF13861   2.043   4.728   6.572  1.2207 -2.7486  0.5512
  129OSM    C2S13862   2.073   4.764   6.766 -0.2982 -0.1904  0.1039
  129OSM    H2S13863   2.029   4.848   6.823 -0.5421  2.3803 -3.5029
  129OSM    C3S13864   2.212   4.829   6.713  0.6162  0.2460  0.0669
  129OSM    H3S13865   2.259   4.749   6.652 -0.3339  0.0423 -0.4129
  129OSM     O313866   2.307   4.864   6.815  0.7099  0.0321  0.0732
  129OSM    HO313867   2.266   4.831   6.895  1.7723 -0.0422  0.5967
  129OSM    C4S13868   2.187   4.946   6.621 -0.7037 -0.5296 -0.8154
  129OSM    H4S13869   2.161   4.924   6.516  2.2770  0.9088 -1.9904
  129OSM    C5S13870   2.184   5.080   6.663 -0.4420  0.5835  0.4733
  129OSM    H5S13871   2.218   5.105   6.765  1.4004 -2.8847  0.8788
  129OSM    C6S13872   2.165   5.186   6.555 -0.1970  0.4983  0.9446
  129OSM    H6S13873   2.243   5.264   6.568  1.6507 -1.3157  1.2226
  129OSM    H6T13874   2.069   5.242   6.561 -0.3509  0.5225 -1.1220
  129OSM    C7S13875   2.182   5.140   6.411 -0.9804 -0.6743 -0.1594
  129OSM    H7S13876   2.113   5.059   6.379 -1.1678  0.4127 -2.7412
  129OSM    H7T13877   2.288   5.109   6.398  0.3012  2.1856  2.1705
  129OSM    C8S13878   2.170   5.256   6.308 -0.2784 -0.8201  0.5842
  129OSM    H8S13879   2.236   5.335   6.349 -1.0676 -0.5588  1.3752
  129OSM    H8T13880   2.069   5.300   6.317 -0.6534 -1.7201  1.0166
  129OSM    C9S13881   2.214   5.215   6.166  0.6931 -0.9913  0.8754
  129OSM    H9S13882   2.294   5.143   6.192  1.7466 -0.0684  0.2929
  129OSM    H9T13883   2.257   5.301   6.110 -1.4811 -0.0172  0.5797
  129OSM   C10S13884   2.096   5.164   6.082 -0.1168 -0.0591  0.4198
  129OSM   H10S13885   2.037   5.257   6.065  2.9483  2.1327  0.9915
  129OSM   H10T13886   2.029   5.092   6.134 -2.0728 -0.8707 -2.8751
  129OSM   C11S13887   2.142   5.091   5.953  0.0707  0.1604 -0.1655
  129OSM   H11S13888   2.053   5.050   5.899  1.7253 -0.3527 -2.6923
  129OSM   H11T13889   2.214   5.009   5.970  0.2179 -0.3698 -2.8087
  129OSM   C12S13890   2.204   5.181   5.846 -0.7076 -0.7013  0.4469
  129OSM   H12S13891   2.305   5.212   5.879 -0.9333  0.3906  0.1755
  129OSM   H12T13892   2.152   5.280   5.851  0.4038 -0.1142  0.6346
  129OSM   C13S13893   2.196   5.122   5.702  0.1401 -0.3388 -0.5439
  129OSM   H13S13894   2.091   5.101   5.672 -0.1757  0.2259  0.1342
  129OSM   H13T13895   2.255   5.028   5.700  3.4423  1.4412  1.7432
  129OSM   C14S13896   2.244   5.218   5.593  0.6628  0.2132 -0.0760
  129OSM   H14S13897   2.351   5.247   5.605  0.4196  0.9037  0.5328
  129OSM   H14T13898   2.190   5.314   5.603  1.3322  0.4741  1.3272
  129OSM   C15S13899   2.218   5.194   5.441 -0.1589 -0.1564 -0.4576
  129OSM   H15S13900   2.140   5.116   5.429 -1.1023  0.4849  1.1875
  129OSM   H15T13901   2.312   5.159   5.393  0.7333  1.0229  0.3707
  129OSM   C16S13902   2.175   5.312   5.360  0.4112  0.6153  0.0017
  129OSM   H16S13903   2.252   5.391   5.343  0.5203  0.2685 -1.2246
  129OSM   H16T13904   2.100   5.353   5.431  0.4562 -2.2330  1.8896
  129OSM   C17S13905   2.122   5.289   5.224 -0.5879  0.1621  0.3657
  129OSM   H17S13906   2.050   5.205   5.216  0.8794 -1.0701 -0.5839
  129OSM   H17T13907   2.202   5.255   5.154  1.4371  1.6230  1.8437
  129OSM   C18S13908   2.044   5.407   5.164 -1.2204 -0.4916  0.2508
  129OSM   H18S13909   1.952   5.445   5.213 -2.1930  2.3101 -3.3574
  129OSM   H18T13910   2.008   5.391   5.060  0.0057  1.3209 -0.4944
  129OSM   H18U13911   2.111   5.493   5.146  1.2165 -1.9192  1.8934
  129OSM    C1F13912   1.875   4.668   6.654  1.0037  0.0056  0.6586
  129OSM     OF13913   1.811   4.646   6.756  0.3617 -0.4444 -0.7981
  129OSM    C2F13914   1.811   4.641   6.515 -0.1528  0.0711  0.0162
  129OSM    H2F13915   1.777   4.535   6.515 -3.2687  0.9676  0.1306
  129OSM    H2G13916   1.895   4.652   6.444  1.6266  1.4658  2.1746
  129OSM    C3F13917   1.690   4.735   6.479 -0.3116 -0.8301  0.2880
  129OSM    H3F13918   1.627   4.736   6.570 -0.6914  0.6072  0.0244
  129OSM    H3G13919   1.626   4.684   6.403  1.0430 -0.8765 -0.8718
  129OSM    C4F13920   1.714   4.876   6.441  0.1322  0.4170  1.0825
  129OSM    H4F13921   1.770   4.929   6.520 -0.6235  0.2655  1.7333
  129OSM    H4G13922   1.617   4.929   6.436  1.1517  2.3344  0.7747
  129OSM    C5F13923   1.786   4.892   6.299 -0.0699  0.1188 -0.1412
  129OSM    H5F13924   1.888   4.852   6.314  0.1974  1.2440  1.2875
  129OSM    H5G13925   1.793   4.999   6.268  0.9690  0.2649  0.5592
  129OSM    C6F13926   1.717   4.827   6.181  1.0923  0.0545  0.0755
  129OSM    H6F13927   1.622   4.883   6.166  0.8601  0.5103  2.7198
  129OSM    H6G13928   1.687   4.722   6.203  0.1362  0.2975 -0.0323
  129OSM    C7F13929   1.806   4.821   6.059  0.6054 -0.9152 -0.0325
  129OSM    H7F13930   1.894   4.757   6.079  1.0897 -0.5118 -0.8058
  129OSM    H7G13931   1.837   4.925   6.036  0.7177 -1.0698 -0.5835
  129OSM    C8F13932   1.729   4.770   5.931 -0.3276 -0.4276  0.1772
  129OSM    H8F13933   1.649   4.709   5.979 -0.6177 -1.7343 -1.8526
  129OSM    H8G13934   1.802   4.698   5.889 -0.7988  0.5231 -2.4434
  129OSM    C9F13935   1.679   4.872   5.830 -0.0242 -0.4520 -0.6765
  129OSM    H9F13936   1.604   4.939   5.872  0.8343  1.3135 -1.8363
  129OSM   C10F13937   1.707   4.894   5.701 -0.3305 -0.0838  0.0608
  129OSM   H10F13938   1.651   4.977   5.655 -2.0888  0.4334  2.9266
  129OSM   C11F13939   1.814   4.818   5.619 -0.0057 -0.5463 -0.4346
  129OSM   H11F13940   1.803   4.708   5.612  2.4726 -0.8203 -0.8329
  129OSM   H11G13941   1.913   4.840   5.665  0.3257  0.9807 -1.8012
  129OSM   C12F13942   1.830   4.871   5.474  0.2123  0.4556 -0.2020
  129OSM   H12F13943   1.911   4.815   5.422  0.7120  0.6677  0.3405
  129OSM   H12G13944   1.861   4.978   5.473 -0.1382  0.5577 -0.4629
  129OSM   C13F13945   1.713   4.855   5.377  0.2804  1.3079  0.3824
  129OSM   H13F13946   1.634   4.925   5.411 -1.6826  0.4509 -2.0672
  129OSM   H13G13947   1.665   4.754   5.377 -1.7011  2.1957 -0.8248
  129OSM   C14F13948   1.741   4.890   5.233  0.1977  0.1517  0.2767
  129OSM   H14F13949   1.798   4.986   5.232  0.2909  0.1096  0.9217
  129OSM   H14G13950   1.648   4.904   5.174  0.1928  0.9685  0.4536
  129OSM   C15F13951   1.835   4.786   5.160 -0.2862  0.9009  0.1976
  129OSM   H15F13952   1.774   4.731   5.085  2.1429 -0.1611 -1.1046
  129OSM   H15G13953   1.880   4.718   5.235  0.4499  0.2373 -0.8231
  129OSM   C16F13954   1.934   4.871   5.074  0.3920  0.8301 -0.5883
  129OSM   H16F13955   2.007   4.905   5.150  0.1691  2.0319 -0.8970
  129OSM   H16G13956   1.878   4.962   5.042 -0.2828  0.3271 -0.8700
  129OSM   C17F13957   2.022   4.796   4.971  0.3260 -0.2384  1.0053
  129OSM   H17F13958   2.086   4.720   5.021 -0.0739  0.4078  2.5589
  129OSM   H17G13959   2.103   4.862   4.931  0.7897 -1.0565  0.5768
  129OSM   C18F13960   1.953   4.743   4.848 -0.5223  0.2191  0.6748
  129OSM   H18F13961   1.877   4.667   4.877  0.9879 -1.4174  0.5095
  129OSM   H18G13962   2.007   4.682   4.772 -2.6388 -1.6993  0.6088
  129OSM   H18H13963   1.897   4.825   4.799  0.6010  1.7666  1.8795
  130OSM      N13964   0.958   2.771   6.995 -0.2227 -0.0817 -0.1196
  130OSM    C1513965   0.862   2.848   7.071  0.3942 -0.6565  0.0353
  130OSM   H15A13966   0.908   2.934   7.116 -1.1328  0.3950 -0.3168
  130OSM   H15B13967   0.809   2.793   7.148 -0.4588 -0.2939 -0.2805
  130OSM   H15C13968   0.786   2.885   7.003  0.3332 -1.4369 -0.3303
  130OSM    C1413969   1.030   2.856   6.889  0.6594  0.1184 -0.5068
  130OSM   H14A13970   1.042   2.954   6.933 -1.2566  0.5640 -0.8680
  130OSM   H14B13971   0.973   2.853   6.797  1.4372 -2.0708 -0.9689
  130OSM   H14C13972   1.133   2.826   6.876  0.7096  0.6905 -1.5802
  130OSM    C1313973   1.058   2.724   7.090 -0.6055  0.2377  0.0694
  130OSM   H13A13974   1.137   2.671   7.038  0.2224  1.8042 -0.3178
  130OSM   H13B13975   1.009   2.656   7.158 -0.3278 -0.6755 -0.6246
  130OSM   H13C13976   1.095   2.806   7.150 -0.0795 -1.2837  1.9440
  130OSM    C1213977   0.888   2.660   6.920 -0.2577 -0.1166 -0.3214
  130OSM   H12A13978   0.817   2.701   6.849 -1.0682  0.8870  1.0271
  130OSM   H12B13979   0.820   2.619   6.993 -3.5779  3.9171 -0.8164
  130OSM    C1113980   0.978   2.548   6.857  0.3265  0.2490  0.0548
  130OSM   H11A13981   1.040   2.601   6.782  1.6142  1.0226  1.5955
  130OSM   H11B13982   0.911   2.480   6.801  0.4742  1.5050 -1.7151
  130OSM      P13983   1.197   2.393   6.889 -0.1289  0.3958  0.5522
  130OSM    O1313984   1.319   2.456   6.952  0.5098 -0.6275 -0.0933
  130OSM    O1413985   1.181   2.250   6.922  0.2369 -0.3203  0.0022
  130OSM    O1113986   1.200   2.414   6.729 -0.8849  0.0908 -0.0681
  130OSM    O1213987   1.071   2.472   6.944 -0.4229 -0.1866 -0.0893
  130OSM    C1S13988   1.141   2.312   6.648 -0.5066  0.4017  0.0349
  130OSM    H1S13989   1.040   2.280   6.683 -0.8095 -2.2982 -2.9438
  130OSM    H1T13990   1.205   2.222   6.652 -1.9858 -0.8120 -1.7919
  130OSM     NF13991   1.046   2.281   6.420  0.1824 -0.6467  0.3315
  130OSM    HNF13992   1.088   2.239   6.340  2.1376 -0.4843  1.1997
  130OSM    C2S13993   1.134   2.360   6.500  0.1175  0.7857  0.2162
  130OSM    H2S13994   1.110   2.468   6.489  0.6792  1.2167  2.7305
  130OSM    C3S13995   1.283   2.345   6.447 -0.4137 -0.3009 -0.5788
  130OSM    H3S13996   1.304   2.236   6.456  0.6863 -0.0216  0.4221
  130OSM     O313997   1.382   2.410   6.529  0.1952  0.5385  0.3681
  130OSM    HO313998   1.331   2.444   6.602  0.1895  0.5326  0.3666
  130OSM    C4S13999   1.301   2.384   6.306  0.4364  0.4008  0.6390
  130OSM    H4S14000   1.352   2.308   6.246 -2.9929 -1.4945 -0.0677
  130OSM    C5S14001   1.294   2.505   6.259 -0.1665 -0.2614 -0.3367
  130OSM    H5S14002   1.286   2.592   6.327  0.5693 -0.8982  0.5931
  130OSM    C6S14003   1.348   2.543   6.126  0.2053  0.3625 -0.2405
  130OSM    H6S14004   1.439   2.605   6.141 -0.8846  2.2048 -0.8702
  130OSM    H6T14005   1.274   2.617   6.086  0.1444  0.6793  0.4511
  130OSM    C7S14006   1.348   2.425   6.025 -0.4080  0.7335 -0.0990
  130OSM    H7S14007   1.248   2.379   6.020 -1.1431  2.1503  0.8027
  130OSM    H7T14008   1.418   2.342   6.048 -1.6356 -0.1843  0.3685
  130OSM    C8S14009   1.357   2.473   5.881 -1.3447 -0.2174 -0.4875
  130OSM    H8S14010   1.453   2.525   5.858 -0.9914 -0.5759  0.1596
  130OSM    H8T14011   1.278   2.549   5.863 -0.7754  0.4776 -0.1434
  130OSM    C9S14012   1.346   2.364   5.773  0.0191 -0.4347  0.0663
  130OSM    H9S14013   1.280   2.280   5.803 -1.0535  0.0995 -0.7308
  130OSM    H9T14014   1.449   2.325   5.762  1.2393  2.3587  0.8608
  130OSM   C10S14015   1.290   2.412   5.640  0.3624  0.8051 -0.0958
  130OSM   H10S14016   1.354   2.491   5.594 -0.1003  0.4519 -1.3949
  130OSM   H10T14017   1.197   2.471   5.652 -0.3474  0.0812 -1.7295
  130OSM   C11S14018   1.284   2.290   5.544  0.2814 -0.2754  0.6822
  130OSM   H11S14019   1.216   2.215   5.590 -1.9355  0.3378 -1.4056
  130OSM   H11T14020   1.388   2.251   5.542 -0.2656 -2.1329 -3.7756
  130OSM   C12S14021   1.247   2.309   5.399 -0.6661  0.5985  0.4530
  130OSM   H12S14022   1.154   2.371   5.391 -0.5043  0.7141 -0.6224
  130OSM   H12T14023   1.225   2.215   5.345  0.7144  1.4601 -1.7555
  130OSM   C13S14024   1.350   2.372   5.309  0.1808  0.3659 -0.1633
  130OSM   H13S14025   1.438   2.305   5.298 -0.7050 -0.6086 -1.6198
  130OSM   H13T14026   1.372   2.473   5.352 -3.5242  1.6472 -0.9256
  130OSM   C14S14027   1.297   2.375   5.162 -0.2496 -0.3322 -0.3220
  130OSM   H14S14028   1.215   2.450   5.162  0.4474  0.4652  0.8185
  130OSM   H14T14029   1.259   2.276   5.129 -2.1744  0.5258 -0.7750
  130OSM   C15S14030   1.413   2.422   5.077  0.1980  0.2133 -0.4507
  130OSM   H15S14031   1.508   2.371   5.103  0.1936  1.0147  1.2520
  130OSM   H15T14032   1.433   2.530   5.093  4.4259 -0.2993 -1.0880
  130OSM   C16S14033   1.393   2.392   4.929  0.6248 -0.3899 -0.0206
  130OSM   H16S14034   1.284   2.403   4.906  0.8208  3.3322  0.2922
  130OSM   H16T14035   1.419   2.284   4.924  1.1502 -0.3312  1.1531
  130OSM   C17S14036   1.480   2.470   4.826 -0.6818 -0.6653  0.3527
  130OSM   H17S14037   1.462   2.408   4.736  0.6378 -2.3561  1.2146
  130OSM   H17T14038   1.585   2.486   4.859 -0.8364 -0.9425  0.9906
  130OSM   C18S14039   1.436   2.618   4.803 -0.5617 -0.4270  0.1743
  130OSM   H18S14040   1.430   2.668   4.902 -0.5904 -0.1607  0.0376
  130OSM   H18T14041   1.331   2.621   4.766  0.0587 -1.5311 -1.8431
  130OSM   H18U14042   1.499   2.684   4.741 -2.8073  0.9316 -0.7970
  130OSM    C1F14043   0.917   2.266   6.442  0.2215  0.7677 -0.8286
  130OSM     OF14044   0.856   2.305   6.542 -0.3792 -0.4978 -0.1055
  130OSM    C2F14045   0.831   2.195   6.340 -0.1863 -0.2985 -0.3249
  130OSM    H2F14046   0.861   2.088   6.340 -3.0989 -1.2033 -0.7592
  130OSM    H2G14047   0.843   2.236   6.237  0.2163  1.2628  0.3141
  130OSM    C3F14048   0.678   2.205   6.371  0.7680  0.4049 -0.1390
  130OSM    H3F14049   0.643   2.310   6.376  0.0562  0.1388  0.8386
  130OSM    H3G14050   0.652   2.158   6.468  0.7020 -0.4536 -0.5615
  130OSM    C4F14051   0.592   2.116   6.270  0.2861  0.2943  0.7117
  130OSM    H4F14052   0.486   2.136   6.298  0.2813  2.2034 -0.4798
  130OSM    H4G14053   0.614   2.008   6.282  0.3902  0.1960 -0.2905
  130OSM    C5F14054   0.604   2.173   6.125 -1.0129 -0.3930 -0.5811
  130OSM    H5F14055   0.700   2.129   6.089 -0.4678 -1.5437  2.0600
  130OSM    H5G14056   0.618   2.283   6.136 -1.0282 -0.5167  0.8502
  130OSM    C6F14057   0.493   2.148   6.028  0.8055  0.5689 -0.5896
  130OSM    H6F14058   0.506   2.222   5.947 -2.4798  1.9635  0.0043
  130OSM    H6G14059   0.396   2.181   6.071 -0.5610 -1.7139 -1.7101
  130OSM    C7F14060   0.473   1.997   5.985 -0.6043 -0.0950 -0.5041
  130OSM    H7F14061   0.407   1.956   6.064  2.1666 -0.0728  2.0087
  130OSM    H7G14062   0.571   1.947   5.999  0.0396  1.3349  0.3387
  130OSM    C8F14063   0.400   1.980   5.857 -0.3425  0.0194  0.3214
  130OSM    H8F14064   0.322   2.058   5.848  0.1396  0.2714 -2.3499
  130OSM    H8G14065   0.344   1.884   5.858 -0.4409  0.0599  1.8584
  130OSM    C9F14066   0.509   1.991   5.749  0.0389 -0.2014  0.2066
  130OSM    H9F14067   0.582   1.909   5.760 -2.1156 -2.5666 -1.9212
  130OSM   C10F14068   0.532   2.097   5.661  0.8649  0.0622  0.0117
  130OSM   H10F14069   0.612   2.085   5.587  0.8174  1.7849 -0.3415
  130OSM   C11F14070   0.447   2.215   5.645  0.0346 -0.3482  0.5521
  130OSM   H11F14071   0.501   2.312   5.638 -0.3106 -0.2778 -3.3348
  130OSM   H11G14072   0.366   2.213   5.720  1.3994 -1.4376  2.0470
  130OSM   C12F14073   0.378   2.209   5.505  0.1700  0.1314 -0.2717
  130OSM   H12F14074   0.333   2.107   5.497 -1.6205  0.9345 -0.9472
  130OSM   H12G14075   0.464   2.214   5.434  0.2941 -3.0401 -0.4955
  130OSM   C13F14076   0.286   2.323   5.477  0.3164  0.3530 -0.3351
  130OSM   H13F14077   0.338   2.420   5.490 -1.4236  1.4475 -1.1734
  130OSM   H13G14078   0.199   2.318   5.545  1.4345 -0.8145  1.0830
  130OSM   C14F14079   0.242   2.318   5.331  0.2565 -0.8671  0.2499
  130OSM   H14F14080   0.193   2.221   5.306 -0.0491  0.1210 -3.6367
  130OSM   H14G14081   0.328   2.334   5.262  0.4757 -1.1321  0.4581
  130OSM   C15F14082   0.135   2.430   5.306 -0.5361  0.0377 -0.2026
  130OSM   H15F14083   0.165   2.527   5.351  1.7896 -0.1810 -1.1234
  130OSM   H15G14084   0.039   2.398   5.352  0.3748 -0.9194  1.1104
  130OSM   C16F14085   0.092   2.441   5.157  0.6176  0.4770 -0.2304
  130OSM   H16F14086   0.058   2.338   5.131  2.1489  0.1805 -1.1901
  130OSM   H16G14087   0.192   2.456   5.110  1.1183 -1.1582  0.2205
  130OSM   C17F14088   0.003   2.555   5.118 -0.8601 -1.0680 -0.1164
  130OSM   H17F14089   0.054   2.641   5.168  0.9837 -2.1647 -0.0236
  130OSM   H17G14090  -0.103   2.545   5.151 -1.0058  1.8195  0.5784
  130OSM   C18F14091  -0.016   2.594   4.966  0.4169 -0.1520 -1.0145
  130OSM   H18F14092  -0.101   2.545   4.913  0.4691 -0.1381 -1.1128
  130OSM   H18G14093   0.081   2.582   4.912  0.2489 -1.6886 -1.0282
  130OSM   H18H14094  -0.058   2.697   4.970  1.6323  0.3390 -0.3679
  131OSM      N14095   1.357   4.783   7.012 -0.6397 -0.2575  0.2775
  131OSM    C1514096   1.385   4.834   7.142 -0.4043 -0.3331 -0.3889
  131OSM   H15A14097   1.331   4.926   7.157 -0.8497 -0.5271 -0.7545
  131OSM   H15B14098   1.491   4.854   7.141 -0.2488 -1.1193 -0.4030
  131OSM   H15C14099   1.363   4.761   7.219  0.1013 -1.2440 -1.0820
  131OSM    C1414100   1.384   4.881   6.904  0.3368  0.6818 -0.3135
  131OSM   H14A14101   1.302   4.947   6.881  1.9151  1.8841 -3.0216
  131OSM   H14B14102   1.401   4.828   6.811 -3.1569  1.9992 -1.8505
  131OSM   H14C14103   1.469   4.942   6.929  1.2616 -1.4035  2.1269
  131OSM    C1314104   1.438   4.656   7.001  0.5601 -0.0694  1.2018
  131OSM   H13A14105   1.544   4.676   6.989 -0.0698  2.3026 -1.8945
  131OSM   H13B14106   1.397   4.605   6.915  0.6958  0.2695  0.9275
  131OSM   H13C14107   1.418   4.584   7.078  2.9370 -1.0495  0.9886
  131OSM    C1214108   1.208   4.743   7.007  0.8664  0.1600 -0.0543
  131OSM   H12A14109   1.146   4.824   7.042 -1.0872  0.3904 -3.5280
  131OSM   H12B14110   1.197   4.667   7.083 -0.3756 -2.9203 -3.0083
  131OSM    C1114111   1.133   4.694   6.875 -0.3361  0.5163  0.1551
  131OSM   H11A14112   1.149   4.779   6.804  2.0081  0.3862  0.4587
  131OSM   H11B14113   1.023   4.682   6.881 -0.2005 -1.0619 -0.1385
  131OSM      P14114   1.165   4.430   6.891  0.3156  0.2510 -0.2672
  131OSM    O1314115   1.249   4.324   6.836 -0.0633 -0.3814 -0.0560
  131OSM    O1414116   1.156   4.436   7.038 -0.2821  0.2806  0.4373
  131OSM    O1114117   1.013   4.404   6.834 -0.3857  0.0625 -0.2049
  131OSM    O1214118   1.192   4.574   6.827 -0.3346  0.4729 -0.1985
  131OSM    C1S14119   0.979   4.451   6.706 -0.3446 -0.3769 -0.3823
  131OSM    H1S14120   1.012   4.555   6.686  1.7456 -1.2035 -1.4775
  131OSM    H1T14121   0.869   4.445   6.694 -0.1672 -0.9086 -1.9223
  131OSM     NF14122   0.997   4.403   6.455  0.0453 -0.0487 -0.8280
  131OSM    HNF14123   0.938   4.341   6.402  0.5928  0.0695 -1.5930
  131OSM    C2S14124   1.032   4.357   6.590 -0.5286 -0.5562  0.4202
  131OSM    H2S14125   1.142   4.344   6.603 -0.0629  0.9415 -1.5704
  131OSM    C3S14126   0.973   4.218   6.622 -0.4330 -0.2443 -0.0952
  131OSM    H3S14127   0.864   4.237   6.625  0.0896  3.2003  1.7284
  131OSM     O314128   1.003   4.154   6.748 -0.5300  0.0902 -0.3769
  131OSM    HO314129   1.038   4.225   6.804 -1.3043 -1.3890  2.1460
  131OSM    C4S14130   0.988   4.122   6.510 -0.4749  0.1410 -0.1865
  131OSM    H4S14131   0.902   4.120   6.441 -0.0211  0.4493 -0.7653
  131OSM    C5S14132   1.100   4.048   6.503 -0.1333 -0.1200  0.4662
  131OSM    H5S14133   1.175   4.045   6.584  1.1249  0.5140 -0.6482
  131OSM    C6S14134   1.145   3.957   6.400 -0.3622  1.0455  0.0722
  131OSM    H6S14135   1.143   3.852   6.437 -2.8391  1.2891  0.7677
  131OSM    H6T14136   1.254   3.975   6.392 -0.1622  1.0271  2.2337
  131OSM    C7S14137   1.068   3.957   6.265  0.6364  0.0084  0.0770
  131OSM    H7S14138   0.965   3.917   6.271  0.4038  0.5658 -0.1235
  131OSM    H7T14139   1.126   3.892   6.195 -2.2702  1.6618 -4.2873
  131OSM    C8S14140   1.070   4.099   6.196 -0.2676  0.4987 -0.3905
  131OSM    H8S14141   1.176   4.132   6.205  0.1475 -0.6152 -0.9771
  131OSM    H8T14142   1.032   4.175   6.267 -0.2047 -0.9951  1.3288
  131OSM    C9S14143   1.014   4.107   6.062 -0.3516 -0.3045 -0.8304
  131OSM    H9S14144   1.013   4.215   6.036 -2.8256 -0.2758 -0.8394
  131OSM    H9T14145   0.910   4.068   6.071  0.1070 -1.1867  1.1628
  131OSM   C10S14146   1.095   4.027   5.956 -0.0916 -0.7883 -0.5967
  131OSM   H10S14147   1.088   3.918   5.980  0.1908 -0.7989 -0.5605
  131OSM   H10T14148   1.199   4.065   5.955 -0.5673  0.5507 -1.0932
  131OSM   C11S14149   1.033   4.041   5.814  0.9416 -0.9581 -0.2709
  131OSM   H11S14150   1.025   4.143   5.772  1.4512 -0.5900  0.4949
  131OSM   H11T14151   0.930   4.000   5.811 -0.7010  2.6423  0.7005
  131OSM   C12S14152   1.111   3.960   5.710  0.8639 -0.4056  0.1971
  131OSM   H12S14153   1.134   3.857   5.746  1.8769 -0.6703 -1.1558
  131OSM   H12T14154   1.212   4.004   5.695  0.8069  0.6808  2.5837
  131OSM   C13S14155   1.049   3.950   5.571  0.5581 -0.4336 -0.6244
  131OSM   H13S14156   1.036   4.053   5.532 -0.4481 -0.5362 -0.6007
  131OSM   H13T14157   0.950   3.901   5.583 -0.7893  2.1288 -0.7068
  131OSM   C14S14158   1.136   3.864   5.473  0.4688 -0.7533  0.1547
  131OSM   H14S14159   1.207   3.806   5.536  1.3529  1.7897  1.6748
  131OSM   H14T14160   1.188   3.938   5.408  0.8161 -1.2056 -0.0886
  131OSM   C15S14161   1.056   3.782   5.373 -0.1670  0.0128 -0.5044
  131OSM   H15S14162   1.001   3.699   5.423 -2.3822  0.7661 -1.5607
  131OSM   H15T14163   1.122   3.727   5.302  0.3864 -0.9766  0.7298
  131OSM   C16S14164   0.957   3.862   5.290  0.0952  0.1664 -0.7127
  131OSM   H16S14165   1.017   3.935   5.232 -0.3756  1.0744 -0.0683
  131OSM   H16T14166   0.876   3.904   5.353  0.1853  0.4472 -0.7844
  131OSM   C17S14167   0.889   3.767   5.186 -0.1479 -0.0862  0.2845
  131OSM   H17S14168   0.832   3.683   5.233 -1.6378  0.2211 -0.9027
  131OSM   H17T14169   0.963   3.723   5.116  0.4194  0.7061  0.3728
  131OSM   C18S14170   0.787   3.842   5.100  0.0286  0.3834  0.8467
  131OSM   H18S14171   0.705   3.876   5.167 -1.6483 -0.2094 -0.7976
  131OSM   H18T14172   0.735   3.766   5.037  0.5333  0.4104  0.3941
  131OSM   H18U14173   0.826   3.923   5.035  2.6267 -1.6661 -0.3413
  131OSM    C1F14174   1.038   4.519   6.402 -0.0323  0.2573  0.8386
  131OSM     OF14175   1.112   4.593   6.457 -0.1456  0.3557  0.4460
  131OSM    C2F14176   0.988   4.562   6.270 -0.0114  0.1931  0.1354
  131OSM    H2F14177   0.986   4.673   6.275  0.7052  0.1762  1.1364
  131OSM    H2G14178   0.884   4.526   6.255 -0.3846  0.7844  1.1886
  131OSM    C3F14179   1.078   4.504   6.160 -0.0014  0.3498  0.0253
  131OSM    H3F14180   1.070   4.394   6.146  1.7186  0.1464  0.3929
  131OSM    H3G14181   1.184   4.527   6.187  0.5387 -1.4996 -0.3828
  131OSM    C4F14182   1.049   4.543   6.018  1.1442  0.0746  0.0855
  131OSM    H4F14183   1.045   4.652   5.997  0.1523  0.2796  1.2416
  131OSM    H4G14184   0.941   4.524   6.001  0.9117  1.4722 -0.0707
  131OSM    C5F14185   1.150   4.473   5.925 -0.0656 -0.3077 -0.0067
  131OSM    H5F14186   1.184   4.369   5.946  0.1106 -0.1347  0.5591
  131OSM    H5G14187   1.243   4.532   5.917 -0.4333  0.1673 -0.9333
  131OSM    C6F14188   1.108   4.458   5.776 -0.0135 -0.3713 -0.5410
  131OSM    H6F14189   1.005   4.417   5.777  0.0317 -0.5039 -1.1001
  131OSM    H6G14190   1.173   4.384   5.726  1.4471  0.8575 -0.5226
  131OSM    C7F14191   1.104   4.596   5.700 -0.2157 -0.2371 -0.6237
  131OSM    H7F14192   1.195   4.660   5.700 -0.2995 -0.1159  0.0531
  131OSM    H7G14193   1.023   4.659   5.740  1.9924  1.1791  1.9462
  131OSM    C8F14194   1.074   4.577   5.547  0.3216  0.3013 -0.5975
  131OSM    H8F14195   1.064   4.681   5.509 -0.3822  1.1375  1.6807
  131OSM    H8G14196   0.976   4.523   5.542  1.4921 -2.4962  2.7722
  131OSM    C9F14197   1.186   4.500   5.476  0.1466 -0.4071 -0.0777
  131OSM    H9F14198   1.289   4.538   5.480 -0.3502  1.0958 -0.7224
  131OSM   C10F14199   1.163   4.389   5.407  0.0627  0.7947  0.9440
  131OSM   H10F14200   1.243   4.337   5.354 -2.9999 -2.9621 -0.5031
  131OSM   C11F14201   1.035   4.313   5.378  0.3426 -0.1342 -0.3011
  131OSM   H11F14202   0.947   4.355   5.431  0.2459  0.5409 -0.9783
  131OSM   H11G14203   1.042   4.203   5.394  0.3198 -0.5527 -2.7505
  131OSM   C12F14204   1.020   4.340   5.224  0.6467  0.5442 -0.5118
  131OSM   H12F14205   1.037   4.448   5.202 -1.0490  0.8693 -0.3593
  131OSM   H12G14206   0.914   4.320   5.196  1.2826 -1.1225 -1.8482
  131OSM   C13F14207   1.102   4.250   5.133  0.3557  0.0664 -0.0090
  131OSM   H13F14208   1.085   4.142   5.153 -0.5513  0.2400  0.2126
  131OSM   H13G14209   1.209   4.269   5.156  0.2074 -0.0739  0.8480
  131OSM   C14F14210   1.067   4.277   4.979 -0.2822 -0.1688 -0.5354
  131OSM   H14F14211   1.117   4.373   4.953 -1.4580  0.6608  0.1789
  131OSM   H14G14212   0.958   4.293   4.973 -0.2409  0.8042  0.9237
  131OSM   C15F14213   1.113   4.172   4.882 -0.0664  0.7257 -0.2966
  131OSM   H15F14214   1.097   4.075   4.935  0.4901  1.6570  1.6816
  131OSM   H15G14215   1.223   4.182   4.872  0.3308 -0.8439  1.7323
  131OSM   C16F14216   1.046   4.167   4.747  0.6569 -0.1794 -0.5740
  131OSM   H16F14217   0.936   4.156   4.758  0.3358  1.2223 -2.0353
  131OSM   H16G14218   1.092   4.095   4.676 -1.4226 -1.8408 -0.3108
  131OSM   C17F14219   1.073   4.310   4.685  0.4469  0.3904  0.3335
  131OSM   H17F14220   1.182   4.330   4.677  0.6715 -0.0927  2.0114
  131OSM   H17G14221   1.023   4.386   4.748 -4.2919  0.5825 -3.1096
  131OSM   C18F14222   0.998   4.327   4.548  0.7512  0.2245  0.2775
  131OSM   H18F14223   1.026   4.423   4.499  0.7553  0.5278  0.8519
  131OSM   H18G14224   0.888   4.324   4.558  0.5756 -0.1716 -1.5132
  131OSM   H18H14225   1.029   4.236   4.493  3.1449  0.5249  1.0196
  132OSM      N14226   3.831   0.921   7.010 -0.2992  1.0415  0.6484
  132OSM    C1514227   3.902   0.798   7.071 -0.1524  0.4633  0.1883
  132OSM   H15A14228   3.891   0.793   7.178 -1.7277 -0.3378  0.0167
  132OSM   H15B14229   4.007   0.799   7.046  0.1909  1.7050  1.5681
  132OSM   H15C14230   3.864   0.708   7.025  0.6859 -1.7570  3.5086
  132OSM    C1414231   3.680   0.896   7.031  0.2241 -0.2483  0.3625
  132OSM   H14A14232   3.622   0.965   6.972 -0.3159 -0.5840  0.4966
  132OSM   H14B14233   3.649   0.896   7.134  0.0338  0.7232  0.3143
  132OSM   H14C14234   3.653   0.806   6.979  0.5460 -0.6086  0.8154
  132OSM    C1314235   3.875   1.047   7.073 -0.0386  0.0816  0.2023
  132OSM   H13A14236   3.854   1.128   7.005  2.7237  1.2931  0.6482
  132OSM   H13B14237   3.980   1.042   7.098 -0.1388  1.9946  1.1816
  132OSM   H13C14238   3.822   1.065   7.165  0.2936  3.0386 -0.1016
  132OSM    C1214239   3.857   0.924   6.855 -0.2579  0.1493  0.3591
  132OSM   H12A14240   3.809   0.835   6.820  0.8572  0.2021 -1.4483
  132OSM   H12B14241   3.963   0.909   6.838 -0.4117 -0.3073 -0.2057
  132OSM    C1114242   3.807   1.053   6.777 -0.9760  0.8535 -0.5566
  132OSM   H11A14243   3.817   1.037   6.667  1.8431 -0.6717 -0.1899
  132OSM   H11B14244   3.882   1.136   6.778 -0.9250  0.8073  0.7036
  132OSM      P14245   3.644   1.239   6.819  0.4290 -0.0760 -0.5821
  132OSM    O1314246   3.500   1.267   6.852  0.0274 -0.8276  0.6306
  132OSM    O1414247   3.743   1.302   6.909 -0.5996 -0.0748  0.1494
  132OSM    O1114248   3.661   1.290   6.676  0.0568  0.4100 -0.6436
  132OSM    O1214249   3.675   1.084   6.800  0.4094 -0.6614 -0.1292
  132OSM    C1S14250   3.600   1.211   6.569 -0.0402 -0.1025 -0.3105
  132OSM    H1S14251   3.489   1.203   6.575 -0.3009  2.1239 -1.3141
  132OSM    H1T14252   3.644   1.109   6.563 -0.4932 -0.5439  2.4990
  132OSM     NF14253   3.543   1.228   6.329  0.2392 -0.5304 -0.3329
  132OSM    HNF14254   3.551   1.145   6.273  2.2376  0.1353 -1.0982
  132OSM    C2S14255   3.647   1.262   6.434  1.1601 -0.3219  0.5453
  132OSM    H2S14256   3.667   1.371   6.446  1.2818 -0.1227 -1.2807
  132OSM    C3S14257   3.791   1.213   6.398  0.3845  0.3126  0.3174
  132OSM    H3S14258   3.788   1.102   6.407  0.0609  0.3498  0.6801
  132OSM     O314259   3.888   1.231   6.494  0.2185 -0.3521  0.4120
  132OSM    HO314260   3.843   1.277   6.565  0.7389 -0.2467  0.6849
  132OSM    C4S14261   3.836   1.263   6.259 -0.2809  0.2574  0.3294
  132OSM    H4S14262   3.800   1.201   6.176  1.7528 -1.3754  0.5781
  132OSM    C5S14263   3.928   1.356   6.242 -0.3745  0.0181  0.9751
  132OSM    H5S14264   3.980   1.401   6.328  0.2642  0.3027  0.4519
  132OSM    C6S14265   3.970   1.383   6.097  0.0250  1.4095  0.1397
  132OSM    H6S14266   4.081   1.395   6.099 -0.0735  2.3874  2.0498
  132OSM    H6T14267   3.933   1.486   6.077 -1.1648  0.8810 -0.4546
  132OSM    C7S14268   3.929   1.284   5.984  0.5345  0.4414  0.2946
  132OSM    H7S14269   3.820   1.262   5.981  1.1534 -3.1038  0.2181
  132OSM    H7T14270   3.971   1.185   6.010 -2.8951 -1.2336  0.0713
  132OSM    C8S14271   3.985   1.332   5.850 -0.2957 -0.3676 -0.6165
  132OSM    H8S14272   4.094   1.352   5.854 -0.6086  1.2739  0.7822
  132OSM    H8T14273   3.932   1.424   5.815  1.2667  1.2622  1.1185
  132OSM    C9S14274   3.949   1.225   5.737  0.0276 -0.4405 -0.1310
  132OSM    H9S14275   3.840   1.229   5.715 -0.2790  3.3439  1.4187
  132OSM    H9T14276   3.969   1.121   5.771 -1.1957  0.1170  2.5205
  132OSM   C10S14277   4.014   1.248   5.603  0.4325 -0.5385  0.1803
  132OSM   H10S14278   4.125   1.246   5.608  0.8134  0.8046 -3.9027
  132OSM   H10T14279   3.980   1.346   5.563  0.8553  0.7283  2.7427
  132OSM   C11S14280   3.970   1.143   5.494 -0.0976  0.0348 -0.7486
  132OSM   H11S14281   3.866   1.107   5.510  0.2268  0.0597  1.8264
  132OSM   H11T14282   4.031   1.053   5.514  0.2363  0.2075 -0.9714
  132OSM   C12S14283   3.984   1.190   5.346 -0.9244 -0.6119  0.4884
  132OSM   H12S14284   4.094   1.202   5.342 -0.9024 -0.7260  0.7178
  132OSM   H12T14285   3.939   1.291   5.329  1.9172  0.5509 -0.8412
  132OSM   C13S14286   3.951   1.085   5.247  0.8183  0.1980  0.4472
  132OSM   H13S14287   3.860   1.023   5.264  2.4067 -1.9616  1.6397
  132OSM   H13T14288   4.023   1.001   5.257  0.3580 -0.5522 -1.9296
  132OSM   C14S14289   3.929   1.136   5.100 -0.4365  0.4071 -1.3494
  132OSM   H14S14290   4.018   1.194   5.069  1.0558  0.0284  1.8016
  132OSM   H14T14291   3.838   1.200   5.096 -0.5353  0.5381  1.2921
  132OSM   C15S14292   3.914   1.017   4.997 -0.5200 -0.7338  0.0951
  132OSM   H15S14293   3.861   0.928   5.036 -0.4351 -0.4257  0.9138
  132OSM   H15T14294   4.015   0.971   4.985 -1.0106 -1.3836 -2.0810
  132OSM   C16S14295   3.878   1.062   4.851  0.2181  0.1779 -0.0760
  132OSM   H16S14296   3.948   1.135   4.805 -0.9034 -0.8470 -3.7854
  132OSM   H16T14297   3.779   1.111   4.838 -0.4889 -1.2749 -0.3970
  132OSM   C17S14298   3.878   0.940   4.749 -0.1943 -0.1686  0.3304
  132OSM   H17S14299   3.804   0.863   4.778  0.6461 -1.2368 -0.2935
  132OSM   H17T14300   3.972   0.881   4.753  0.3175  0.6178  0.0951
  132OSM   C18S14301   3.872   0.976   4.602 -0.5441 -0.4651  0.2277
  132OSM   H18S14302   3.783   1.039   4.581 -0.3245 -0.5060 -0.8742
  132OSM   H18T14303   3.855   0.882   4.546 -1.8423  0.1401 -0.4395
  132OSM   H18U14304   3.959   1.032   4.563 -0.7633  0.6500  1.2714
  132OSM    C1F14305   3.419   1.282   6.323  0.4219 -0.3822  0.4225
  132OSM     OF14306   3.370   1.337   6.420 -0.2457  0.3271  0.0188
  132OSM    C2F14307   3.349   1.264   6.194  0.4921  0.1399  0.9707
  132OSM    H2F14308   3.314   1.159   6.181  0.8858 -0.0225  1.1923
  132OSM    H2G14309   3.413   1.288   6.107 -0.4942 -0.2579  0.1142
  132OSM    C3F14310   3.219   1.356   6.181  0.7728 -0.6987  0.4426
  132OSM    H3F14311   3.259   1.459   6.178  1.8286 -1.1066 -1.3362
  132OSM    H3G14312   3.154   1.337   6.268 -1.7240  0.7700 -0.9902
  132OSM    C4F14313   3.130   1.321   6.055 -0.0973 -0.5189  0.1101
  132OSM    H4F14314   3.028   1.362   6.073 -0.2190 -1.3177  1.3923
  132OSM    H4G14315   3.115   1.211   6.048  1.0272 -0.5879 -3.3676
  132OSM    C5F14316   3.196   1.373   5.929  0.1152 -0.4101  0.4283
  132OSM    H5F14317   3.301   1.335   5.923  1.2329  2.2370  1.5922
  132OSM    H5G14318   3.210   1.483   5.932  2.4283 -0.5645 -1.3391
  132OSM    C6F14319   3.127   1.333   5.799  0.2075  0.5811  0.2333
  132OSM    H6F14320   3.028   1.384   5.798  0.5138  1.2764 -2.2235
  132OSM    H6G14321   3.108   1.223   5.798  0.4019  0.5476  0.2729
  132OSM    C7F14322   3.214   1.370   5.685  0.0351 -0.7350 -0.0534
  132OSM    H7F14323   3.314   1.322   5.691 -0.4712 -1.6685  1.9774
  132OSM    H7G14324   3.242   1.477   5.676 -3.6632  0.3937  0.2936
  132OSM    C8F14325   3.162   1.318   5.544 -0.0712  0.2321  0.1845
  132OSM    H8F14326   3.149   1.208   5.545 -0.3729  0.2695  0.5631
  132OSM    H8G14327   3.241   1.348   5.472  0.1807  2.0207  1.1445
  132OSM    C9F14328   3.030   1.381   5.507  0.5091 -0.1293 -0.3529
  132OSM    H9F14329   2.961   1.389   5.593  1.2286  0.9287  0.1476
  132OSM   C10F14330   2.985   1.432   5.392 -0.3142 -0.3638  0.4312
  132OSM   H10F14331   2.884   1.477   5.397  0.3570  1.3557 -0.4059
  132OSM   C11F14332   3.074   1.446   5.269  0.0024 -0.3794  0.1979
  132OSM   H11F14333   3.021   1.408   5.179  0.3630  2.3127 -1.2478
  132OSM   H11G14334   3.165   1.384   5.279 -0.6088 -1.1137  1.4650
  132OSM   C12F14335   3.089   1.602   5.247 -0.1131  0.2446 -0.4326
  132OSM   H12F14336   3.134   1.644   5.340  0.1157 -2.7575  0.9321
  132OSM   H12G14337   2.986   1.635   5.225 -0.1007  0.3401 -0.3512
  132OSM   C13F14338   3.173   1.636   5.124  0.9130  0.2996 -0.0128
  132OSM   H13F14339   3.269   1.582   5.118  0.1784 -1.0964  0.2733
  132OSM   H13G14340   3.187   1.747   5.125 -1.5940  0.7117 -0.9240
  132OSM   C14F14341   3.086   1.606   4.994 -0.0448  0.0103 -0.3182
  132OSM   H14F14342   2.989   1.655   5.018  0.3531  0.0241  1.4039
  132OSM   H14G14343   3.061   1.499   4.984  1.6463 -0.7935  2.6860
  132OSM   C15F14344   3.159   1.650   4.868  0.2294  0.5656  1.0258
  132OSM   H15F14345   3.187   1.757   4.858  0.1762  0.5372  0.5515
  132OSM   H15G14346   3.089   1.629   4.784  1.5334 -0.4707  0.1567
  132OSM   C16F14347   3.286   1.576   4.834  0.3644  0.4089  0.0050
  132OSM   H16F14348   3.259   1.472   4.807  0.6605 -0.2127  1.9137
  132OSM   H16G14349   3.352   1.576   4.924 -3.1610  0.7206  2.8557
  132OSM   C17F14350   3.365   1.635   4.714  0.3584  0.6885 -0.1367
  132OSM   H17F14351   3.371   1.746   4.724 -2.1856  0.9359 -0.5060
  132OSM   H17G14352   3.312   1.616   4.618  1.3957 -3.8433 -0.0034
  132OSM   C18F14353   3.497   1.566   4.693 -0.0670  0.2791  0.0611
  132OSM   H18F14354   3.498   1.462   4.733 -2.7767  0.0275 -0.2969
  132OSM   H18G14355   3.559   1.628   4.761  0.8312  0.1852 -0.6519
  132OSM   H18H14356   3.548   1.579   4.595 -2.6771 -0.1395 -1.4598
  133OSM      N14357   0.021   6.731   7.379 -0.6734 -0.8039 -0.8015
  133OSM    C1514358   0.142   6.643   7.363  0.0641 -0.1469 -0.4434
  133OSM   H15A14359   0.197   6.661   7.454  0.9204 -1.5655 -0.6466
  133OSM   H15B14360   0.194   6.685   7.278  0.5608 -0.0347 -0.0860
  133OSM   H15C14361   0.113   6.539   7.361  0.3535 -0.2591  0.5521
  133OSM    C1414362  -0.071   6.670   7.479  0.3633  0.3483 -0.6447
  133OSM   H14A14363  -0.084   6.564   7.461  0.2118  0.5158 -1.6043
  133OSM   H14B14364  -0.167   6.719   7.475  0.8537  1.3541 -0.3025
  133OSM   H14C14365  -0.025   6.689   7.574 -0.0095 -0.4286 -0.2990
  133OSM    C1314366   0.072   6.865   7.437 -0.9894  0.4960 -0.5152
  133OSM   H13A14367  -0.009   6.934   7.456  1.1147  2.4531  2.1917
  133OSM   H13B14368   0.130   6.904   7.354 -0.1891 -0.5519 -0.4706
  133OSM   H13C14369   0.133   6.845   7.524 -0.6028 -0.0770 -0.9065
  133OSM    C1214370  -0.044   6.739   7.248 -0.0650 -0.3397  0.1787
  133OSM   H12A14371  -0.135   6.796   7.239 -0.3006 -0.5700  1.0418
  133OSM   H12B14372  -0.078   6.640   7.221  1.5466 -0.2166 -2.8725
  133OSM    C1114373   0.034   6.801   7.131 -0.6311  0.1507 -0.2725
  133OSM   H11A14374  -0.053   6.826   7.068 -0.4830 -0.6148 -0.7973
  133OSM   H11B14375   0.102   6.728   7.081 -0.4525 -1.2323  1.8348
  133OSM      P14376   0.093   7.067   7.103 -0.0266  0.6167  0.7003
  133OSM    O1314377  -0.049   7.080   7.050  0.3252 -0.1784 -0.7896
  133OSM    O1414378   0.139   7.157   7.211  0.3691  0.5872 -0.3494
  133OSM    O1114379   0.194   7.088   6.989  0.4212  0.2210  0.0376
  133OSM    O1214380   0.113   6.918   7.154 -0.4136  0.0643 -0.1956
  133OSM    C1S14381   0.202   6.986   6.887  0.4870  0.0338 -0.6391
  133OSM    H1S14382   0.135   6.901   6.912 -0.4618  1.7477  3.4378
  133OSM    H1T14383   0.308   6.955   6.888  0.5659  0.1945  1.7393
  133OSM     NF14384   0.160   6.939   6.649 -0.7734 -0.0177  0.3982
  133OSM    HNF14385   0.231   6.929   6.580  1.3876  0.8420  2.3677
  133OSM    C2S14386   0.180   7.043   6.748 -0.0099  0.6332 -0.0967
  133OSM    H2S14387   0.086   7.102   6.741  0.4517  1.2468 -1.5589
  133OSM    C3S14388   0.288   7.154   6.716  0.3652  0.3933  1.2294
  133OSM    H3S14389   0.390   7.114   6.731  0.4227  0.4579  1.0144
  133OSM     O314390   0.301   7.255   6.815  0.1550 -0.0870  0.0855
  133OSM    HO314391   0.274   7.203   6.891 -0.8163  0.0663 -0.1456
  133OSM    C4S14392   0.264   7.220   6.583 -0.1883 -0.2852 -0.2493
  133OSM    H4S14393   0.188   7.299   6.577 -1.0185 -0.9924  0.6648
  133OSM    C5S14394   0.342   7.221   6.474 -0.7008 -0.0292  0.0695
  133OSM    H5S14395   0.430   7.156   6.461 -0.0894  0.5299  1.2331
  133OSM    C6S14396   0.314   7.303   6.357 -0.5179 -0.4485  0.0844
  133OSM    H6S14397   0.316   7.233   6.271 -0.8369  0.1344 -0.4053
  133OSM    H6T14398   0.379   7.393   6.357 -0.4046 -0.5224  1.0638
  133OSM    C7S14399   0.175   7.362   6.342  0.1410  0.6648  0.3044
  133OSM    H7S14400   0.152   7.432   6.260 -0.2563  0.5743  0.3340
  133OSM    H7T14401   0.145   7.424   6.430 -0.1321  1.6230 -0.4540
  133OSM    C8S14402   0.046   7.263   6.337 -0.5879  0.6932 -0.0139
  133OSM    H8S14403  -0.051   7.315   6.325 -1.7442 -1.1432  1.0045
  133OSM    H8T14404   0.037   7.211   6.434  3.9094 -0.2761  0.1339
  133OSM    C9S14405   0.051   7.157   6.225 -0.3044 -0.3918  0.2488
  133OSM    H9S14406  -0.044   7.101   6.222 -0.4395 -0.1371 -0.3547
  133OSM    H9T14407   0.143   7.095   6.237 -0.8372 -0.8352  2.3146
  133OSM   C10S14408   0.053   7.232   6.088 -0.0965 -0.0393 -0.6650
  133OSM   H10S14409   0.144   7.296   6.079 -0.8578  1.3795  0.9384
  133OSM   H10T14410  -0.028   7.306   6.072  0.3696  0.1771 -2.1327
  133OSM   C11S14411   0.069   7.135   5.979  0.1618  0.1460  0.5290
  133OSM   H11S14412  -0.019   7.067   5.975  0.2383  0.0547  0.3888
  133OSM   H11T14413   0.154   7.064   5.988 -1.4930 -1.9501  0.3331
  133OSM   C12S14414   0.063   7.202   5.837  0.0044 -0.4888 -0.5141
  133OSM   H12S14415   0.144   7.278   5.827 -1.5241  1.7687  2.4497
  133OSM   H12T14416  -0.030   7.262   5.838  0.1485 -0.1630  2.0318
  133OSM   C13S14417   0.054   7.096   5.722  0.2636  0.2507  0.7364
  133OSM   H13S14418  -0.045   7.047   5.731 -0.5924  1.1090 -2.5867
  133OSM   H13T14419   0.148   7.037   5.731  2.0378  1.8535 -4.0634
  133OSM   C14S14420   0.070   7.152   5.581 -0.3939 -0.0481  0.0720
  133OSM   H14S14421   0.089   7.074   5.504  0.4489  0.7215 -0.5179
  133OSM   H14T14422   0.155   7.224   5.577 -1.4064  1.1676 -0.2693
  133OSM   C15S14423  -0.046   7.244   5.539  0.5623  0.0035  0.6540
  133OSM   H15S14424  -0.027   7.351   5.564  1.5594 -0.0482  0.1757
  133OSM   H15T14425  -0.127   7.202   5.602 -1.9716  3.7933  0.2737
  133OSM   C16S14426  -0.092   7.243   5.389 -0.0796  0.1187  0.4714
  133OSM   H16S14427  -0.119   7.140   5.358  0.0653 -0.3101  1.7360
  133OSM   H16T14428   0.004   7.275   5.344 -0.1193 -0.2874  0.0863
  133OSM   C17S14429  -0.200   7.352   5.375  0.4628 -0.1713  0.6209
  133OSM   H17S14430  -0.159   7.439   5.429 -0.3599 -0.4715  1.7571
  133OSM   H17T14431  -0.295   7.320   5.423  0.7615  0.8761  1.9446
  133OSM   C18S14432  -0.236   7.384   5.226 -0.1880 -0.2833 -0.5198
  133OSM   H18S14433  -0.306   7.313   5.176 -1.8348  0.3970  0.6915
  133OSM   H18T14434  -0.146   7.393   5.162  0.6780  3.7482  0.9953
  133OSM   H18U14435  -0.280   7.485   5.234 -0.1303 -0.3866  2.1338
  133OSM    C1F14436   0.052   6.868   6.642  0.9255 -0.3510  0.6600
  133OSM     OF14437  -0.047   6.898   6.711 -0.3149  0.5154  0.1865
  133OSM    C2F14438   0.051   6.745   6.558 -0.8225 -0.1034  0.2772
  133OSM    H2F14439   0.108   6.666   6.610 -0.8055 -0.8922 -0.9005
  133OSM    H2G14440   0.114   6.763   6.468 -0.1355 -0.7626  0.6204
  133OSM    C3F14441  -0.085   6.706   6.494  0.2091  0.6043 -0.4411
  133OSM    H3F14442  -0.145   6.798   6.476  0.0440  0.7743  0.8677
  133OSM    H3G14443  -0.141   6.637   6.562  0.8895 -0.4612 -0.9410
  133OSM    C4F14444  -0.082   6.632   6.358  0.3975  0.2100 -0.0025
  133OSM    H4F14445  -0.184   6.601   6.326 -0.3498 -0.7062  2.9361
  133OSM    H4G14446  -0.021   6.540   6.369 -0.7382 -0.9148 -2.3818
  133OSM    C5F14447  -0.034   6.713   6.241 -0.0414 -0.3667  0.3387
  133OSM    H5F14448   0.074   6.737   6.251 -0.1066 -0.2609  0.8445
  133OSM    H5G14449  -0.098   6.804   6.236  1.4541  0.7051 -0.0672
  133OSM    C6F14450  -0.041   6.636   6.108 -0.6425  0.1737  0.0794
  133OSM    H6F14451  -0.148   6.613   6.085  0.3167 -2.4757 -2.2923
  133OSM    H6G14452   0.008   6.537   6.116  0.2171  0.6101  0.2615
  133OSM    C7F14453   0.025   6.708   5.991  0.3674 -0.5295  0.0868
  133OSM    H7F14454   0.129   6.669   5.989  1.0611  1.2076  0.5784
  133OSM    H7G14455   0.015   6.818   6.001 -0.6855 -0.5607 -0.4734
  133OSM    C8F14456  -0.034   6.662   5.864  0.0126 -0.0610 -0.6074
  133OSM    H8F14457  -0.133   6.708   5.844 -0.6113 -1.6324 -1.2419
  133OSM    H8G14458  -0.054   6.554   5.877 -2.2003  0.3863  0.0780
  133OSM    C9F14459   0.057   6.693   5.754 -0.2752  0.5698  0.0113
  133OSM    H9F14460   0.119   6.784   5.755  0.2234  0.4054 -3.6214
  133OSM   C10F14461   0.071   6.619   5.641 -0.7324  0.1853  0.2666
  133OSM   H10F14462   0.143   6.643   5.562  0.0380  0.3931  1.0132
  133OSM   C11F14463   0.005   6.481   5.613 -0.0092  0.5169 -0.7270
  133OSM   H11F14464  -0.055   6.443   5.698  0.1954  1.4912 -0.1260
  133OSM   H11G14465   0.084   6.403   5.602 -0.2151  0.4742 -2.1344
  133OSM   C12F14466  -0.075   6.477   5.481 -0.3159  0.0044 -0.2464
  133OSM   H12F14467  -0.134   6.571   5.475 -0.4979 -0.1012 -0.1399
  133OSM   H12G14468  -0.126   6.378   5.477  0.3199 -0.3765  0.7004
  133OSM   C13F14469   0.022   6.477   5.355  0.0835  0.0632 -0.0494
  133OSM   H13F14470   0.105   6.404   5.365  2.4725  2.3224 -1.9587
  133OSM   H13G14471   0.083   6.569   5.361 -0.1006  0.0947  2.1062
  133OSM   C14F14472  -0.050   6.472   5.217 -0.1408  0.1461 -0.0211
  133OSM   H14F14473  -0.105   6.376   5.214  0.3348 -0.1061 -1.2801
  133OSM   H14G14474   0.022   6.467   5.133 -0.5894 -1.7619 -0.3350
  133OSM   C15F14475  -0.144   6.589   5.176  0.0448  0.3883 -0.2808
  133OSM   H15F14476  -0.081   6.681   5.180 -0.1836  0.5039  1.9863
  133OSM   H15G14477  -0.219   6.596   5.258  1.2609 -0.2755  0.9192
  133OSM   C16F14478  -0.218   6.581   5.035 -0.2419 -0.4340 -1.0105
  133OSM   H16F14479  -0.139   6.544   4.966  1.3336 -1.0677  1.0177
  133OSM   H16G14480  -0.239   6.684   4.999 -0.5608  0.2002  0.8646
  133OSM   C17F14481  -0.343   6.497   5.054  0.0044  0.6785 -0.0371
  133OSM   H17F14482  -0.414   6.550   5.120 -0.9541 -1.6884  0.9269
  133OSM   H17G14483  -0.312   6.408   5.112 -2.5073 -0.4273 -0.2698
  133OSM   C18F14484  -0.404   6.454   4.918  0.2774 -0.5831 -0.2712
  133OSM   H18F14485  -0.334   6.415   4.842 -0.4417 -1.1378 -0.6597
  133OSM   H18G14486  -0.454   6.540   4.868 -2.0448 -0.1362  2.5319
  133OSM   H18H14487  -0.484   6.379   4.936 -2.1013  1.6745 -0.7076
  134OSM      N14488   1.702   5.696   7.175  0.2544 -0.3202  0.9533
  134OSM    C1514489   1.848   5.677   7.207 -0.6337 -0.0583 -0.3014
  134OSM   H15A14490   1.870   5.704   7.309  2.2329 -1.8266 -0.3405
  134OSM   H15B14491   1.911   5.745   7.151 -0.0955  1.9941  2.5848
  134OSM   H15C14492   1.892   5.578   7.211  0.3519  0.3722 -0.1460
  134OSM    C1414493   1.689   5.668   7.032  0.0181  0.2844 -0.2999
  134OSM   H14A14494   1.733   5.573   7.005 -1.1156 -0.4172  0.2366
  134OSM   H14B14495   1.729   5.744   6.967  0.8379 -0.0851 -0.2463
  134OSM   H14C14496   1.584   5.650   7.011 -0.4214  0.4146  1.6197
  134OSM    C1314497   1.627   5.598   7.255 -0.2046  0.4444 -0.3238
  134OSM   H13A14498   1.655   5.496   7.236 -5.1133 -0.8526 -2.0766
  134OSM   H13B14499   1.523   5.600   7.229  0.0566  1.3298 -1.3929
  134OSM   H13C14500   1.634   5.619   7.361 -2.5299  1.1390 -0.2642
  134OSM    C1214501   1.656   5.839   7.204 -0.6549  0.4159 -0.3550
  134OSM   H12A14502   1.708   5.913   7.145  0.4957  0.9750  1.2737
  134OSM   H12B14503   1.685   5.861   7.306  1.9215 -2.1035 -0.4176
  134OSM    C1114504   1.510   5.875   7.189  0.0587  0.0177  0.0490
  134OSM   H11A14505   1.485   5.969   7.241 -1.5627  0.0751 -0.7593
  134OSM   H11B14506   1.447   5.794   7.232  0.8846 -0.4004  0.4998
  134OSM      P14507   1.524   6.012   6.971 -0.1990 -0.3494 -0.1197
  134OSM    O1314508   1.428   6.114   7.012 -0.2635 -0.1337  0.0707
  134OSM    O1414509   1.666   6.039   7.003  0.4082  0.1734 -0.0850
  134OSM    O1114510   1.515   5.981   6.817  1.1374  0.3320 -0.1750
  134OSM    O1214511   1.482   5.884   7.053  0.6037  0.0318  0.1707
  134OSM    C1S14512   1.407   5.899   6.774  0.3357 -0.2202  1.5363
  134OSM    H1S14513   1.305   5.933   6.799  0.2211 -0.1215  0.9438
  134OSM    H1T14514   1.412   5.796   6.815  2.4373 -0.3609  1.0612
  134OSM     NF14515   1.306   5.821   6.552  0.2794 -0.0177  0.5084
  134OSM    HNF14516   1.321   5.724   6.538 -0.3603  0.0988 -1.1689
  134OSM    C2S14517   1.421   5.884   6.615  0.0457  0.2014  0.4603
  134OSM    H2S14518   1.442   5.984   6.570 -1.5961  0.0367 -0.7604
  134OSM    C3S14519   1.560   5.810   6.581  0.0237 -0.5709  0.3112
  134OSM    H3S14520   1.551   5.707   6.621 -0.7315 -0.5274  0.2690
  134OSM     O314521   1.688   5.857   6.633  0.1892  0.0902  0.5829
  134OSM    HO314522   1.650   5.921   6.694 -0.2687 -0.0307  0.4289
  134OSM    C4S14523   1.573   5.805   6.424 -0.5889 -0.6625 -0.2462
  134OSM    H4S14524   1.516   5.720   6.383  0.0646 -1.1364 -0.1869
  134OSM    C5S14525   1.627   5.896   6.338 -0.2244  0.2376 -0.0688
  134OSM    H5S14526   1.668   5.990   6.380 -0.6781  0.6317 -0.5025
  134OSM    C6S14527   1.610   5.907   6.189  0.3596  0.5287 -0.2894
  134OSM    H6S14528   1.708   5.946   6.154 -0.3104  0.5380 -2.2933
  134OSM    H6T14529   1.550   5.997   6.163 -1.2200 -0.7071 -1.0480
  134OSM    C7S14530   1.553   5.789   6.113 -0.2544  0.7064 -0.6091
  134OSM    H7S14531   1.443   5.790   6.130 -0.3018  3.2615 -0.7957
  134OSM    H7T14532   1.602   5.700   6.158 -3.4109  0.0839  1.9816
  134OSM    C8S14533   1.598   5.786   5.961 -0.2484  0.0855 -0.4576
  134OSM    H8S14534   1.709   5.785   5.955 -0.2786  0.1451 -1.1400
  134OSM    H8T14535   1.564   5.886   5.925 -0.2221  1.0277  1.9828
  134OSM    C9S14536   1.542   5.674   5.875 -0.1404 -0.1145 -0.2242
  134OSM    H9S14537   1.438   5.647   5.904  0.8000  0.6283  4.8962
  134OSM    H9T14538   1.606   5.589   5.906  0.6988  1.0116  1.3344
  134OSM   C10S14539   1.536   5.705   5.730 -0.1088  0.6712 -0.4737
  134OSM   H10S14540   1.458   5.783   5.725  0.4469  1.5688  2.6822
  134OSM   H10T14541   1.516   5.609   5.677 -1.8491  0.7351  0.0192
  134OSM   C11S14542   1.664   5.761   5.661  0.4337 -0.8897 -0.1618
  134OSM   H11S14543   1.741   5.682   5.675 -0.1140 -1.2939  0.6647
  134OSM   H11T14544   1.687   5.848   5.726 -0.7523  0.0237 -0.9163
  134OSM   C12S14545   1.650   5.813   5.511 -0.6597  0.0753 -0.5744
  134OSM   H12S14546   1.658   5.722   5.448 -3.2853 -0.1745 -0.6217
  134OSM   H12T14547   1.748   5.856   5.480  0.6326 -1.7273  0.7195
  134OSM   C13S14548   1.547   5.919   5.482  0.4848 -0.6863 -0.1911
  134OSM   H13S14549   1.535   5.975   5.577 -1.3621  0.7391 -1.1961
  134OSM   H13T14550   1.447   5.872   5.473 -0.2221  0.9618 -1.5654
  134OSM   C14S14551   1.583   6.013   5.369  0.1993  0.6843  0.3879
  134OSM   H14S14552   1.693   6.017   5.355 -0.0284  3.3163 -1.2845
  134OSM   H14T14553   1.547   6.117   5.388 -2.1685  0.1394 -0.7867
  134OSM   C15S14554   1.518   5.971   5.235 -0.5559  0.0582 -0.0894
  134OSM   H15S14555   1.519   5.860   5.228 -0.7436 -0.1222  2.1493
  134OSM   H15T14556   1.572   6.013   5.147 -0.2492  0.2833  0.2047
  134OSM   C16S14557   1.364   6.012   5.229  0.2975  0.3534 -0.4525
  134OSM   H16S14558   1.333   6.107   5.278 -2.2997  0.7366 -2.6198
  134OSM   H16T14559   1.314   5.926   5.280 -0.6656  1.0638 -0.1721
  134OSM   C17S14560   1.309   6.026   5.084 -0.4792 -0.0434 -0.1041
  134OSM   H17S14561   1.201   6.047   5.096 -0.8852 -1.4346 -1.0823
  134OSM   H17T14562   1.329   5.927   5.037 -0.9017  0.1462 -0.6922
  134OSM   C18S14563   1.381   6.135   4.991  1.5021  0.4865 -0.2388
  134OSM   H18S14564   1.402   6.221   5.059 -0.0580 -0.1371  1.0967
  134OSM   H18T14565   1.327   6.174   4.901  2.1774  2.9119  0.3404
  134OSM   H18U14566   1.474   6.090   4.951  0.1879 -0.5717 -2.3441
  134OSM    C1F14567   1.193   5.880   6.537 -0.4139 -0.2888  0.0205
  134OSM     OF14568   1.162   5.991   6.591 -0.4602 -0.0740  0.3813
  134OSM    C2F14569   1.092   5.813   6.452  0.5884 -0.1058  0.1547
  134OSM    H2F14570   0.994   5.832   6.502 -0.2206  1.2001 -1.8088
  134OSM    H2G14571   1.119   5.707   6.430  0.3588  0.2659 -2.1933
  134OSM    C3F14572   1.072   5.886   6.322  0.0937 -0.0168  0.5707
  134OSM    H3F14573   1.074   5.995   6.343  1.5774  0.4220 -1.4545
  134OSM    H3G14574   0.973   5.857   6.282  0.1123 -0.6752  0.9901
  134OSM    C4F14575   1.173   5.840   6.216  0.4718  0.3590 -0.4254
  134OSM    H4F14576   1.167   5.730   6.205 -1.7452  0.3991 -0.1880
  134OSM    H4G14577   1.279   5.862   6.241  1.4809 -0.1711 -3.7188
  134OSM    C5F14578   1.149   5.894   6.079 -0.1545  0.8494  0.6223
  134OSM    H5F14579   1.048   5.865   6.043  0.6609 -1.1343 -0.2168
  134OSM    H5G14580   1.223   5.853   6.007 -1.3163  0.8059 -0.5844
  134OSM    C6F14581   1.158   6.051   6.064  0.0677  0.0001 -0.0014
  134OSM    H6F14582   1.246   6.091   6.120  0.0252 -0.1127  0.1443
  134OSM    H6G14583   1.058   6.090   6.090 -0.3794 -0.2663 -1.2416
  134OSM    C7F14584   1.169   6.096   5.916  0.5313 -0.0603 -0.4860
  134OSM    H7F14585   1.175   6.207   5.921 -1.6347  0.1244 -0.6651
  134OSM    H7G14586   1.080   6.065   5.858  0.3944  0.9667 -0.8488
  134OSM    C8F14587   1.293   6.060   5.844 -0.2928  0.2832  0.3811
  134OSM    H8F14588   1.307   5.952   5.822  0.1878  0.5531 -0.7181
  134OSM    H8G14589   1.374   6.085   5.915 -0.9225  0.9063  0.8943
  134OSM    C9F14590   1.302   6.141   5.715  0.1732 -0.9027 -0.2733
  134OSM    H9F14591   1.336   6.245   5.726  0.2834 -0.8887 -0.6925
  134OSM   C10F14592   1.240   6.107   5.599 -0.0850  0.1677 -0.1770
  134OSM   H10F14593   1.255   6.163   5.506 -0.5810 -0.0039 -0.3684
  134OSM   C11F14594   1.184   5.971   5.564 -0.2391  0.0979  0.2437
  134OSM   H11F14595   1.185   5.901   5.650 -1.2696 -0.0107  0.1849
  134OSM   H11G14596   1.237   5.922   5.480 -0.8683  1.7151 -1.1476
  134OSM   C12F14597   1.041   5.963   5.528 -0.0381  0.2606 -0.0269
  134OSM   H12F14598   0.975   6.012   5.603 -0.1579 -1.6003  1.1395
  134OSM   H12G14599   1.003   5.859   5.524 -1.3458  0.7483 -1.6898
  134OSM   C13F14600   1.013   6.007   5.378 -0.0504  0.5026  0.1942
  134OSM   H13F14601   1.078   5.934   5.324 -0.9780 -1.4543  1.5876
  134OSM   H13G14602   1.036   6.113   5.356 -0.9171  0.7112  0.2632
  134OSM   C14F14603   0.870   5.987   5.323  0.1097  0.5973  0.2279
  134OSM   H14F14604   0.797   6.050   5.378 -1.0157  1.5806 -2.2538
  134OSM   H14G14605   0.839   5.883   5.342  1.3680 -0.0369 -0.9987
  134OSM   C15F14606   0.861   6.015   5.171  0.4953  0.7144  0.1512
  134OSM   H15F14607   0.781   5.956   5.121  2.2412 -0.1648 -1.7127
  134OSM   H15G14608   0.946   5.968   5.119 -1.3641 -2.0222 -0.6041
  134OSM   C16F14609   0.847   6.160   5.140  0.0441  0.3893 -0.2975
  134OSM   H16F14610   0.931   6.223   5.175 -0.5096 -0.3091  2.6222
  134OSM   H16G14611   0.751   6.203   5.175  0.1344  0.7829 -0.5326
  134OSM   C17F14612   0.834   6.187   4.986 -0.6199  1.1527 -0.4612
  134OSM   H17F14613   0.815   6.296   4.983 -1.8726  0.9476 -0.4286
  134OSM   H17G14614   0.744   6.134   4.949  0.2539 -0.4207 -0.4676
  134OSM   C18F14615   0.963   6.160   4.898 -0.4410 -0.0178 -0.2253
  134OSM   H18F14616   0.932   6.165   4.791 -1.8699 -0.3852  0.1507
  134OSM   H18G14617   1.014   6.062   4.912  0.8341  0.1480 -2.9120
  134OSM   H18H14618   1.041   6.237   4.920  0.9826 -1.9528  1.9581
  135OSM      N14619   6.666   2.792   7.698  0.2520 -0.7703 -0.3929
  135OSM    C1514620   6.761   2.834   7.810  0.6406  0.4848 -0.7635
  135OSM   H15A14621   6.799   2.932   7.788  2.3582  0.0594  0.1593
  135OSM   H15B14622   6.848   2.769   7.814  0.3824  0.1976  1.5696
  135OSM   H15C14623   6.701   2.826   7.899  1.5011  0.1703 -0.1997
  135OSM    C1414624   6.753   2.798   7.575 -0.1499  0.1100 -0.7610
  135OSM   H14A14625   6.692   2.763   7.493  0.9425 -0.8763 -1.1703
  135OSM   H14B14626   6.829   2.723   7.589  0.4848  1.0158  1.0352
  135OSM   H14C14627   6.794   2.897   7.559 -0.7212  0.6297  0.7923
  135OSM    C1314628   6.621   2.652   7.710  0.1353 -0.6237  0.2105
  135OSM   H13A14629   6.559   2.644   7.798  0.6297  0.3225  0.6592
  135OSM   H13B14630   6.704   2.583   7.712 -1.4452 -2.5887  1.0879
  135OSM   H13C14631   6.558   2.623   7.627  0.9299  0.6035 -0.8523
  135OSM    C1214632   6.557   2.891   7.700  0.3780  0.3501  0.6407
  135OSM   H12A14633   6.597   2.991   7.693 -1.3488  1.2011  2.2603
  135OSM   H12B14634   6.505   2.887   7.794  1.7403  0.9367  1.4486
  135OSM    C1114635   6.444   2.885   7.587 -0.3134 -0.0178 -0.1528
  135OSM   H11A14636   6.374   2.966   7.616 -0.2836 -1.1510  3.5245
  135OSM   H11B14637   6.404   2.785   7.613  0.7626 -0.0120  1.6600
  135OSM      P14638   6.538   3.017   7.377  0.2594  0.0935  0.4479
  135OSM    O1314639   6.428   3.061   7.283  0.0769  1.2655 -0.0019
  135OSM    O1414640   6.575   3.121   7.468  0.4585 -0.0618  0.2501
  135OSM    O1114641   6.663   2.961   7.295  0.1085  0.0292  0.0539
  135OSM    O1214642   6.495   2.889   7.455 -0.1045 -0.4978  0.6675
  135OSM    C1S14643   6.644   2.854   7.201  0.2320 -0.4650  0.0842
  135OSM    H1S14644   6.538   2.821   7.195 -0.1141  0.7124 -0.5472
  135OSM    H1T14645   6.699   2.763   7.234 -0.6020 -0.2822  2.1470
  135OSM     NF14646   6.610   2.821   6.954 -1.0594 -0.4709  0.6611
  135OSM    HNF14647   6.660   2.740   6.924  2.0914  1.4272  0.3947
  135OSM    C2S14648   6.679   2.900   7.054  0.0699  0.5161  1.0560
  135OSM    H2S14649   6.648   3.005   7.038  2.5457  1.0563 -0.9547
  135OSM    C3S14650   6.839   2.921   7.033  0.9949  0.2583 -0.9355
  135OSM    H3S14651   6.883   2.818   7.034 -3.5952 -1.9520 -0.5078
  135OSM     O314652   6.903   2.992   7.149  0.0534 -0.2807  0.6081
  135OSM    HO314653   6.825   3.012   7.201 -0.5145  0.3941 -0.4724
  135OSM    C4S14654   6.857   2.994   6.907 -0.0250 -0.2777 -0.7941
  135OSM    H4S14655   6.796   2.943   6.831  1.7038 -3.1288 -0.4045
  135OSM    C5S14656   6.927   3.107   6.869 -0.2094  0.4308  0.3891
  135OSM    H5S14657   6.973   3.158   6.955  0.2313 -0.0209  0.4239
  135OSM    C6S14658   6.929   3.164   6.730 -0.6576 -0.1377  0.6336
  135OSM    H6S14659   7.035   3.152   6.700 -0.5372  0.6016  0.7576
  135OSM    H6T14660   6.910   3.273   6.722  0.1510 -0.1674 -4.4156
  135OSM    C7S14661   6.832   3.111   6.625 -0.2309  0.1772 -0.3682
  135OSM    H7S14662   6.734   3.155   6.651  0.6999  2.7311 -0.8593
  135OSM    H7T14663   6.834   3.000   6.624  1.6866  0.1448  0.9195
  135OSM    C8S14664   6.871   3.156   6.485 -0.8397  0.1082  0.3746
  135OSM    H8S14665   6.972   3.117   6.460 -0.4004  1.1132  0.5355
  135OSM    H8T14666   6.889   3.266   6.487 -0.4751  0.0600 -0.2353
  135OSM    C9S14667   6.766   3.125   6.383  0.6060  0.8096  0.1111
  135OSM    H9S14668   6.694   3.208   6.367 -0.2877 -0.0097 -0.2281
  135OSM    H9T14669   6.695   3.054   6.431  0.9132 -0.7006 -1.5662
  135OSM   C10S14670   6.817   3.062   6.248  0.0973 -1.0327  0.2124
  135OSM   H10S14671   6.867   2.966   6.272  0.0370 -0.9175  0.8228
  135OSM   H10T14672   6.893   3.132   6.208  0.9435 -1.3875  1.1640
  135OSM   C11S14673   6.700   3.037   6.154 -0.6294  0.2858  0.1872
  135OSM   H11S14674   6.646   3.133   6.139 -1.9231 -0.5633 -0.7756
  135OSM   H11T14675   6.618   2.973   6.193 -1.3415  0.1679 -1.4262
  135OSM   C12S14676   6.739   2.980   6.021  0.2384  0.0584  0.1308
  135OSM   H12S14677   6.706   2.874   6.021  1.1309 -0.2354 -0.2759
  135OSM   H12T14678   6.848   2.982   5.998  0.1987  1.1957 -0.0254
  135OSM   C13S14679   6.677   3.056   5.903 -0.0637  0.1769 -0.8610
  135OSM   H13S14680   6.704   3.161   5.927  0.1991  0.1218 -0.9104
  135OSM   H13T14681   6.566   3.057   5.900 -0.0644  1.4696 -0.8772
  135OSM   C14S14682   6.735   3.011   5.765 -0.3004 -0.0922 -0.1239
  135OSM   H14S14683   6.669   2.935   5.718 -2.2348 -0.3463  2.7283
  135OSM   H14T14684   6.834   2.961   5.776  0.7153  1.7000 -0.7569
  135OSM   C15S14685   6.746   3.128   5.660  0.3760 -0.1036 -0.2073
  135OSM   H15S14686   6.792   3.097   5.564  2.9253  1.5024  0.4159
  135OSM   H15T14687   6.810   3.212   5.694  4.2321 -1.8755 -2.5134
  135OSM   C16S14688   6.607   3.189   5.617  0.3287 -0.2717  0.3565
  135OSM   H16S14689   6.627   3.278   5.554 -1.0237  0.0210  0.3151
  135OSM   H16T14690   6.563   3.234   5.709  1.7085  1.1425  0.3588
  135OSM   C17S14691   6.520   3.088   5.550  0.3251  0.1496  0.0748
  135OSM   H17S14692   6.493   3.001   5.614  1.2438 -1.1245 -1.2257
  135OSM   H17T14693   6.569   3.038   5.464  1.5811 -0.4610  1.1013
  135OSM   C18S14694   6.380   3.147   5.515  0.3750  0.2109 -0.2459
  135OSM   H18S14695   6.393   3.256   5.503 -1.2615  0.3797 -0.6376
  135OSM   H18T14696   6.299   3.129   5.589  2.3632  2.3487  2.6520
  135OSM   H18U14697   6.348   3.111   5.415 -0.2543  1.2893 -0.4455
  135OSM    C1F14698   6.481   2.812   6.930 -0.0945  0.1604 -0.6816
  135OSM     OF14699   6.403   2.873   6.999 -0.8423  0.1063  0.0252
  135OSM    C2F14700   6.438   2.718   6.828 -0.0790  0.4890  0.2401
  135OSM    H2F14701   6.457   2.613   6.859 -0.4497  0.1382 -0.6765
  135OSM    H2G14702   6.508   2.741   6.745 -0.4887  0.7317 -0.0477
  135OSM    C3F14703   6.287   2.730   6.772 -0.3506  0.3038 -0.2515
  135OSM    H3F14704   6.213   2.719   6.854  0.8444  0.3933  0.8470
  135OSM    H3G14705   6.273   2.648   6.697 -1.7992  1.5160 -1.3780
  135OSM    C4F14706   6.251   2.859   6.695 -0.0345  0.3720 -0.1469
  135OSM    H4F14707   6.143   2.866   6.673  0.3653  1.2441 -2.0882
  135OSM    H4G14708   6.281   2.947   6.755  1.0403 -0.3553  0.4196
  135OSM    C5F14709   6.330   2.865   6.562 -0.1745  0.5329 -0.1253
  135OSM    H5F14710   6.359   2.762   6.531  0.4355  0.6826 -0.0683
  135OSM    H5G14711   6.421   2.927   6.576 -0.9388  2.0869 -1.7380
  135OSM    C6F14712   6.245   2.922   6.448  0.0715 -0.7577  0.1601
  135OSM    H6F14713   6.211   3.022   6.482 -0.6287 -0.1445 -2.2184
  135OSM    H6G14714   6.152   2.861   6.451 -0.5259  0.0912 -0.6657
  135OSM    C7F14715   6.329   2.926   6.316 -0.2709  0.0422  0.2213
  135OSM    H7F14716   6.371   2.826   6.291 -1.4390 -0.8751  1.6856
  135OSM    H7G14717   6.404   3.005   6.339 -1.0746  1.0485 -0.5268
  135OSM    C8F14718   6.250   2.976   6.195  0.0406 -0.6248  0.0041
  135OSM    H8F14719   6.337   2.993   6.128 -1.0378  2.6882 -0.7606
  135OSM    H8G14720   6.216   3.081   6.210  0.8968 -0.5024  1.3798
  135OSM    C9F14721   6.152   2.889   6.123  0.2792 -0.9045 -0.3705
  135OSM    H9F14722   6.061   2.873   6.184 -0.0694  0.3905 -0.5213
  135OSM   C10F14723   6.181   2.811   6.015  0.0546  0.0843  0.0581
  135OSM   H10F14724   6.095   2.756   5.972 -0.1192  1.8928 -2.1015
  135OSM   C11F14725   6.303   2.809   5.936 -0.4469  0.3058  0.5181
  135OSM   H11F14726   6.336   2.703   5.945 -0.3148  0.4332  1.6402
  135OSM   H11G14727   6.388   2.868   5.978  2.4160 -3.0275 -0.0924
  135OSM   C12F14728   6.280   2.853   5.794  0.0722  0.4108 -0.0924
  135OSM   H12F14729   6.384   2.863   5.756  0.1044 -0.5712 -0.2911
  135OSM   H12G14730   6.236   2.955   5.800  0.5716  0.7180 -1.2884
  135OSM   C13F14731   6.207   2.760   5.699 -0.5827  0.4412 -0.0901
  135OSM   H13F14732   6.106   2.720   5.721 -0.4131 -0.8379 -1.4652
  135OSM   H13G14733   6.267   2.666   5.692  0.2665  1.0550 -1.9019
  135OSM   C14F14734   6.210   2.810   5.557 -1.3731 -0.3250  0.0960
  135OSM   H14F14735   6.311   2.835   5.519 -1.6863  0.7044 -0.0816
  135OSM   H14G14736   6.153   2.904   5.544 -0.9388 -0.1817 -0.8482
  135OSM   C15F14737   6.150   2.707   5.459 -0.1089  0.0081  0.6245
  135OSM   H15F14738   6.048   2.687   5.496  0.0679 -0.7692  0.7135
  135OSM   H15G14739   6.210   2.614   5.470  1.9930  1.3096  0.7717
  135OSM   C16F14740   6.144   2.766   5.322  0.1636  0.0801 -0.4195
  135OSM   H16F14741   6.247   2.799   5.299  0.4230 -0.8804 -0.6847
  135OSM   H16G14742   6.076   2.854   5.325  2.2862  1.7733 -0.2988
  135OSM   C17F14743   6.109   2.671   5.213  0.5405 -0.2461  0.7943
  135OSM   H17F14744   6.180   2.585   5.204  0.4441 -0.2081 -0.5514
  135OSM   H17G14745   6.114   2.724   5.115 -1.5525 -2.1067 -0.4306
  135OSM   C18F14746   5.966   2.626   5.225  0.1477  0.2292  0.2497
  135OSM   H18F14747   5.964   2.601   5.334  1.6256  4.7042  1.4957
  135OSM   H18G14748   5.947   2.527   5.178 -0.9630  0.0355  1.0547
  135OSM   H18H14749   5.897   2.707   5.194 -0.4502 -0.3049  0.1574
  136OSM      N14750   4.413   6.083   6.733 -0.6494  0.9599 -0.1340
  136OSM    C1514751   4.482   6.202   6.688 -0.6210 -0.5113  0.0389
  136OSM   H15A14752   4.405   6.276   6.669  1.8908  1.4979 -3.6015
  136OSM   H15B14753   4.517   6.199   6.586  0.7518  4.4459  0.0775
  136OSM   H15C14754   4.563   6.244   6.745 -2.9132  1.1224  2.3455
  136OSM    C1414755   4.511   5.969   6.716 -0.3390 -0.0509  0.0466
  136OSM   H14A14756   4.487   5.877   6.766  0.6788 -2.2490 -3.1411
  136OSM   H14B14757   4.611   5.999   6.744 -0.5070  0.1414  0.4449
  136OSM   H14C14758   4.515   5.945   6.610 -0.7390  1.6189 -0.3811
  136OSM    C1314759   4.387   6.097   6.881 -0.2308 -0.2060  0.0590
  136OSM   H13A14760   4.320   6.018   6.909 -0.1368 -0.8545 -1.4321
  136OSM   H13B14761   4.346   6.195   6.901  3.3494  1.6386 -0.7120
  136OSM   H13C14762   4.472   6.087   6.946 -0.4706  0.7292  0.5417
  136OSM    C1214763   4.283   6.053   6.657  0.1604  0.1789  0.3745
  136OSM   H12A14764   4.315   6.050   6.554 -0.4629  0.3838  0.1699
  136OSM   H12B14765   4.210   6.132   6.664 -2.0190 -1.7648  0.9978
  136OSM    C1114766   4.210   5.921   6.690 -0.2717 -0.1605 -0.4002
  136OSM   H11A14767   4.115   5.928   6.633  1.6687  0.8458 -3.8446
  136OSM   H11B14768   4.184   5.925   6.798  2.3344  2.0476  0.2788
  136OSM      P14769   4.262   5.668   6.709 -0.1443  0.1230  0.1151
  136OSM    O1314770   4.383   5.584   6.692  0.1380 -0.1531 -1.0538
  136OSM    O1414771   4.199   5.680   6.845  0.2439  1.0846 -0.0648
  136OSM    O1114772   4.141   5.617   6.620  0.0284 -0.3799  0.2450
  136OSM    O1214773   4.290   5.807   6.643  0.1467  0.2734 -0.3244
  136OSM    C1S14774   4.165   5.519   6.517  0.5796  0.3250 -0.2481
  136OSM    H1S14775   4.182   5.418   6.560 -1.1938  0.6605  1.3825
  136OSM    H1T14776   4.245   5.550   6.446  1.3039 -1.7967 -0.4198
  136OSM     NF14777   4.082   5.387   6.320 -0.7354  0.7828 -0.6494
  136OSM    HNF14778   4.118   5.414   6.231 -0.7266 -0.3886 -1.0173
  136OSM    C2S14779   4.048   5.496   6.412  1.1615  0.0046  0.4379
  136OSM    H2S14780   3.950   5.459   6.450  1.5455 -0.5654  0.8798
  136OSM    C3S14781   4.008   5.630   6.341 -0.4263 -0.5698 -0.1142
  136OSM    H3S14782   4.094   5.668   6.282 -1.7722  0.5686 -1.4570
  136OSM     O314783   3.969   5.733   6.434 -0.5071 -0.4051 -0.3504
  136OSM    HO314784   4.020   5.712   6.512 -0.1987  0.4350 -0.3179
  136OSM    C4S14785   3.900   5.607   6.240 -0.4150 -0.2154  0.5377
  136OSM    H4S14786   3.931   5.633   6.138  3.4667 -2.0782  1.0483
  136OSM    C5S14787   3.772   5.593   6.270 -0.4200  0.1016 -0.0156
  136OSM    H5S14788   3.759   5.578   6.378 -1.5819  0.8034 -0.0374
  136OSM    C6S14789   3.654   5.597   6.175 -0.7205  0.4800 -0.0158
  136OSM    H6S14790   3.607   5.698   6.176 -0.7015  0.5031 -0.6581
  136OSM    H6T14791   3.578   5.521   6.201  1.4897 -1.5977  0.7354
  136OSM    C7S14792   3.676   5.585   6.019  0.1854  0.6111 -0.2586
  136OSM    H7S14793   3.737   5.494   6.001 -1.7032 -0.6760 -0.4727
  136OSM    H7T14794   3.733   5.667   5.971  0.7962 -1.5795 -3.5591
  136OSM    C8S14795   3.542   5.566   5.939 -0.2785  0.4538 -0.9936
  136OSM    H8S14796   3.483   5.660   5.941 -1.8170 -0.4722 -0.3549
  136OSM    H8T14797   3.479   5.496   5.999  2.2603 -2.0893 -1.0725
  136OSM    C9S14798   3.577   5.524   5.795 -0.2213 -0.0265 -0.2341
  136OSM    H9S14799   3.629   5.426   5.797 -0.3989 -0.1269  2.2710
  136OSM    H9T14800   3.649   5.591   5.743  2.4641  0.1864  3.3742
  136OSM   C10S14801   3.462   5.500   5.705  0.5488  0.2290  1.2737
  136OSM   H10S14802   3.399   5.591   5.705  1.1728  0.7593 -1.6354
  136OSM   H10T14803   3.394   5.419   5.741 -0.6317 -0.4181 -2.0489
  136OSM   C11S14804   3.507   5.468   5.561  0.1049 -0.6164 -0.4439
  136OSM   H11S14805   3.529   5.360   5.550 -1.6044 -1.1029  0.4915
  136OSM   H11T14806   3.608   5.512   5.545 -0.5003  0.4176 -1.6679
  136OSM   C12S14807   3.411   5.508   5.454  0.2514 -0.4529 -0.0954
  136OSM   H12S14808   3.392   5.616   5.471  0.0857 -0.5495  0.3698
  136OSM   H12T14809   3.320   5.445   5.463 -0.3590  0.1573 -1.7087
  136OSM   C13S14810   3.468   5.475   5.316  0.0448  0.0631 -1.2340
  136OSM   H13S14811   3.494   5.368   5.302  0.3210  0.0018 -0.3342
  136OSM   H13T14812   3.558   5.538   5.300  1.2228 -1.5651 -1.2158
  136OSM   C14S14813   3.376   5.508   5.199  0.9791  0.4729  0.5547
  136OSM   H14S14814   3.348   5.616   5.198  1.0636  0.5099 -0.9816
  136OSM   H14T14815   3.275   5.463   5.212  1.6684 -1.5120 -0.6029
  136OSM   C15S14816   3.426   5.463   5.069 -0.1301  0.7174 -0.5284
  136OSM   H15S14817   3.445   5.354   5.072  0.7692  0.6179 -4.2748
  136OSM   H15T14818   3.525   5.505   5.038 -0.2258  1.7809  0.5068
  136OSM   C16S14819   3.330   5.500   4.951 -0.1504  0.5404 -0.0969
  136OSM   H16S14820   3.281   5.600   4.959 -1.7446 -0.2535  0.4431
  136OSM   H16T14821   3.249   5.424   4.955 -0.7356  1.1533 -0.0919
  136OSM   C17S14822   3.407   5.476   4.825 -0.2117  0.7058 -0.4266
  136OSM   H17S14823   3.406   5.366   4.809 -2.6790  0.1840  2.3232
  136OSM   H17T14824   3.512   5.512   4.821 -0.4493  1.5216  0.3493
  136OSM   C18S14825   3.330   5.550   4.713 -0.4296 -0.0856  0.5109
  136OSM   H18S14826   3.386   5.550   4.617 -1.1516  2.3490  0.0142
  136OSM   H18T14827   3.312   5.657   4.740 -1.7645 -0.1205 -0.1308
  136OSM   H18U14828   3.230   5.502   4.704  0.2624 -1.9556  2.1471
  136OSM    C1F14829   4.089   5.254   6.351 -0.3408  0.6797  0.0936
  136OSM     OF14830   4.052   5.211   6.458  0.0229  0.1806  0.5429
  136OSM    C2F14831   4.158   5.164   6.249  0.2263 -0.5474 -0.1901
  136OSM    H2F14832   4.224   5.231   6.191  2.7559 -1.5112  1.4171
  136OSM    H2G14833   4.074   5.126   6.186  0.6835 -1.8995 -0.0233
  136OSM    C3F14834   4.252   5.056   6.307 -0.3324 -0.2385 -0.4836
  136OSM    H3F14835   4.283   4.983   6.229  0.6865  0.2960 -0.5897
  136OSM    H3G14836   4.190   4.999   6.379 -1.1162  1.7908  0.5135
  136OSM    C4F14837   4.379   5.107   6.392  0.5797  0.4427  1.0482
  136OSM    H4F14838   4.396   5.036   6.476 -0.5196  2.3874  3.0587
  136OSM    H4G14839   4.353   5.210   6.427  0.6803  0.9027 -0.1993
  136OSM    C5F14840   4.509   5.110   6.312  0.7314 -0.6458 -0.0012
  136OSM    H5F14841   4.531   5.003   6.291  0.4385 -0.9488  1.1980
  136OSM    H5G14842   4.587   5.156   6.375  0.7877 -0.3476 -0.2880
  136OSM    C6F14843   4.507   5.180   6.173  0.3800 -0.2664 -0.4992
  136OSM    H6F14844   4.473   5.284   6.189 -0.0336 -0.1959 -1.7559
  136OSM    H6G14845   4.440   5.124   6.104  1.0678 -1.6653 -0.0773
  136OSM    C7F14846   4.653   5.199   6.113  0.5088  0.0348  0.8225
  136OSM    H7F14847   4.702   5.099   6.118 -0.2328 -0.4707 -1.0909
  136OSM    H7G14848   4.705   5.272   6.179 -0.3298 -0.6350  2.2799
  136OSM    C8F14849   4.652   5.244   5.964  0.3550 -0.7701  0.3827
  136OSM    H8F14850   4.759   5.269   5.947  0.7617 -2.3458  0.4729
  136OSM    H8G14851   4.594   5.338   5.951  1.5331 -0.2199 -1.5485
  136OSM    C9F14852   4.585   5.156   5.867  0.2904  0.1977  0.5888
  136OSM    H9F14853   4.476   5.146   5.866  0.2892 -0.1041  1.9426
  136OSM   C10F14854   4.646   5.094   5.761 -0.3127 -0.2787  0.0815
  136OSM   H10F14855   4.589   5.026   5.696 -0.3234  2.9771 -3.6552
  136OSM   C11F14856   4.793   5.095   5.726 -0.0689 -0.6863 -0.2159
  136OSM   H11F14857   4.825   4.989   5.728 -0.9805 -0.9539  1.0631
  136OSM   H11G14858   4.851   5.155   5.800 -2.8041  1.1220  0.5856
  136OSM   C12F14859   4.812   5.166   5.583  0.0160 -0.1737 -0.0920
  136OSM   H12F14860   4.921   5.185   5.580 -0.1298  0.6212 -1.5084
  136OSM   H12G14861   4.751   5.259   5.591 -3.0857 -2.0811  0.0605
  136OSM   C13F14862   4.785   5.085   5.459 -0.1046 -0.2507  0.7949
  136OSM   H13F14863   4.803   5.157   5.376  1.0593 -1.9214 -0.4730
  136OSM   H13G14864   4.681   5.049   5.453 -0.2843  0.0377  1.9459
  136OSM   C14F14865   4.885   4.971   5.453  0.6277 -0.3437  0.2091
  136OSM   H14F14866   4.904   4.923   5.551 -1.3537 -1.3027  0.1534
  136OSM   H14G14867   4.983   5.008   5.415 -0.4731  2.4293 -0.1575
  136OSM   C15F14868   4.847   4.855   5.352 -0.1552 -0.4540 -0.0731
  136OSM   H15F14869   4.743   4.819   5.364 -0.8154  1.2920 -0.2665
  136OSM   H15G14870   4.913   4.770   5.380  1.0654  0.7890  0.9754
  136OSM   C16F14871   4.873   4.908   5.209 -0.0571 -0.1502 -0.1878
  136OSM   H16F14872   4.979   4.941   5.213  0.0608 -0.2988 -1.5049
  136OSM   H16G14873   4.816   5.003   5.201 -2.4424 -1.4645  0.2925
  136OSM   C17F14874   4.838   4.800   5.116 -0.4214 -0.1879  0.0681
  136OSM   H17F14875   4.729   4.778   5.110 -0.2364 -1.0159 -0.3686
  136OSM   H17G14876   4.892   4.707   5.146 -0.0220  0.2994  0.8818
  136OSM   C18F14877   4.896   4.811   4.971  0.2241 -0.0525  0.4980
  136OSM   H18F14878   5.006   4.797   4.980  0.6698  3.2167  1.6180
  136OSM   H18G14879   4.888   4.919   4.946 -0.4763  0.0222  1.0249
  136OSM   H18H14880   4.839   4.750   4.897  2.0666  0.9765 -1.9125
  137OSM      N14881   2.833   3.478   7.132  0.9820  0.1607 -0.2680
  137OSM    C1514882   2.793   3.411   7.255  0.2195  0.3356 -0.7339
  137OSM   H15A14883   2.790   3.479   7.339 -0.1061  1.3539 -1.5511
  137OSM   H15B14884   2.862   3.329   7.268  0.6272  0.7875  0.0124
  137OSM   H15C14885   2.696   3.369   7.235 -0.2337  2.5610 -4.0017
  137OSM    C1414886   2.827   3.375   7.016 -0.1011  0.5331  0.0251
  137OSM   H14A14887   2.741   3.309   7.021  1.0510 -1.0094 -0.0837
  137OSM   H14B14888   2.911   3.308   7.008 -0.2245  0.5850 -3.1298
  137OSM   H14C14889   2.826   3.430   6.922  0.7434 -0.6512 -0.7032
  137OSM    C1314890   2.745   3.596   7.100  0.0643  0.5776  0.1628
  137OSM   H13A14891   2.781   3.631   7.004  0.3661  0.6262  0.2920
  137OSM   H13B14892   2.752   3.672   7.176  0.1056  0.6476  0.0892
  137OSM   H13C14893   2.640   3.573   7.101 -0.1334  1.4484  1.0843
  137OSM    C1214894   2.963   3.536   7.123  0.1490 -0.3202 -0.3275
  137OSM   H12A14895   2.960   3.626   7.183 -1.8322 -0.3989 -0.2459
  137OSM   H12B14896   2.978   3.575   7.023 -1.0223 -1.1153 -0.8276
  137OSM    C1114897   3.074   3.445   7.185  0.5285  0.9178  1.3321
  137OSM   H11A14898   3.052   3.439   7.294 -0.1117 -1.2069  1.1265
  137OSM   H11B14899   3.170   3.498   7.169  0.8955 -0.3616 -1.1671
  137OSM      P14900   3.202   3.216   7.177 -0.2524  0.2509  0.2878
  137OSM    O1314901   3.236   3.247   7.315  0.4822  0.7805 -0.1271
  137OSM    O1414902   3.179   3.077   7.123  0.4390 -0.3119 -0.6885
  137OSM    O1114903   3.325   3.270   7.085  0.3475  0.7310  1.0454
  137OSM    O1214904   3.084   3.317   7.123  0.1005  0.1097 -0.9180
  137OSM    C1S14905   3.309   3.273   6.941  0.5430  0.4783 -0.3093
  137OSM    H1S14906   3.212   3.322   6.916  0.5743  2.7048  3.3366
  137OSM    H1T14907   3.308   3.175   6.888  0.7649 -0.0259  0.6095
  137OSM     NF14908   3.410   3.370   6.736  0.4274 -0.0865  0.1838
  137OSM    HNF14909   3.465   3.327   6.665 -0.7148 -2.2099  0.5233
  137OSM    C2S14910   3.433   3.343   6.875  0.0090  0.2276 -0.4762
  137OSM    H2S14911   3.436   3.442   6.926 -2.2701  0.1398 -0.0994
  137OSM    C3S14912   3.563   3.273   6.919 -0.7010 -0.5333 -0.6541
  137OSM    H3S14913   3.566   3.168   6.882  0.9901 -0.7121 -0.1130
  137OSM     O314914   3.583   3.250   7.062 -0.1312 -0.3415 -0.2032
  137OSM    HO314915   3.494   3.261   7.097  0.8788  0.5300  2.3188
  137OSM    C4S14916   3.682   3.340   6.854  0.2696  0.7591 -0.4657
  137OSM    H4S14917   3.727   3.261   6.791  1.7779 -1.7785  3.4319
  137OSM    C5S14918   3.742   3.458   6.867 -0.5527 -0.3310 -0.7442
  137OSM    H5S14919   3.698   3.533   6.935  2.2460 -0.3250  1.2210
  137OSM    C6S14920   3.865   3.506   6.798 -0.5247  0.0181  0.2801
  137OSM    H6S14921   3.934   3.423   6.774  0.8178  0.6729  1.7011
  137OSM    H6T14922   3.922   3.584   6.853 -0.6013  0.7056 -0.6011
  137OSM    C7S14923   3.834   3.569   6.659 -0.1677  0.2448 -0.4362
  137OSM    H7S14924   3.780   3.664   6.682  0.7055  1.1437 -1.9258
  137OSM    H7T14925   3.763   3.507   6.600  0.1243 -2.1663  1.5896
  137OSM    C8S14926   3.960   3.600   6.571 -0.0693  0.0830 -0.1583
  137OSM    H8S14927   3.997   3.506   6.526  0.0140  0.2934 -0.5372
  137OSM    H8T14928   4.046   3.648   6.622 -0.4935  0.9358 -0.2206
  137OSM    C9S14929   3.919   3.696   6.458 -0.5979 -0.3860 -0.7975
  137OSM    H9S14930   3.909   3.799   6.498  2.3210  0.5432 -2.1901
  137OSM    H9T14931   3.815   3.677   6.423 -1.3034  3.7892 -1.4978
  137OSM   C10S14932   4.014   3.697   6.338  0.0025 -0.1618  0.2614
  137OSM   H10S14933   4.046   3.592   6.321  1.4603  0.3101 -0.0851
  137OSM   H10T14934   4.108   3.751   6.363 -0.1493  0.1270  0.2135
  137OSM   C11S14935   3.947   3.748   6.213  0.0266 -0.0727  0.2016
  137OSM   H11S14936   3.905   3.850   6.223  1.8839  0.9943 -1.9487
  137OSM   H11T14937   3.871   3.673   6.183  0.3301 -0.7751  1.1365
  137OSM   C12S14938   4.041   3.753   6.088  0.3051 -0.1147  0.4587
  137OSM   H12S14939   4.100   3.659   6.084  2.0591  0.8999  1.2644
  137OSM   H12T14940   4.116   3.835   6.095  0.8596 -0.5968  0.1931
  137OSM   C13S14941   3.964   3.777   5.960 -0.4141  0.1296 -0.2848
  137OSM   H13S14942   3.917   3.877   5.972 -2.2903 -0.7055 -0.3469
  137OSM   H13T14943   3.883   3.701   5.958  0.9974 -1.4808  0.8523
  137OSM   C14S14944   4.050   3.778   5.833 -0.2261  0.3611  0.2389
  137OSM   H14S14945   4.083   3.673   5.813  0.1999  0.7924 -1.5885
  137OSM   H14T14946   4.138   3.843   5.854  1.0891 -1.7021  1.3955
  137OSM   C15S14947   3.973   3.837   5.715  0.2122  0.1193  0.0916
  137OSM   H15S14948   3.936   3.934   5.754 -0.9008 -0.0190 -0.5771
  137OSM   H15T14949   3.885   3.779   5.680  1.1373  0.4418 -3.0810
  137OSM   C16S14950   4.052   3.859   5.593  0.5205 -0.3078 -1.4214
  137OSM   H16S14951   4.141   3.923   5.609 -0.6540  1.2712 -0.9248
  137OSM   H16T14952   3.976   3.917   5.536 -2.6325 -2.7200  0.0018
  137OSM   C17S14953   4.073   3.730   5.515  0.5064 -0.3995 -0.4838
  137OSM   H17S14954   3.972   3.683   5.522 -0.9923  2.7775  1.0986
  137OSM   H17T14955   4.149   3.666   5.564 -0.4387  0.5170  2.3828
  137OSM   C18S14956   4.092   3.734   5.368  0.3496  0.6249  0.4909
  137OSM   H18S14957   4.189   3.778   5.336  0.5456 -1.6038 -2.4168
  137OSM   H18T14958   4.011   3.787   5.315  2.2302  3.1575 -0.0079
  137OSM   H18U14959   4.098   3.629   5.330  0.0178  0.6360  0.4054
  137OSM    C1F14960   3.303   3.430   6.682 -0.7232  0.2970 -0.6493
  137OSM     OF14961   3.224   3.493   6.758 -0.0245 -0.0214  0.2100
  137OSM    C2F14962   3.305   3.441   6.529 -0.3394  0.4397  0.0443
  137OSM    H2F14963   3.285   3.338   6.492  0.9791  0.7899 -1.8043
  137OSM    H2G14964   3.409   3.471   6.503 -0.2903  0.4625  0.2653
  137OSM    C3F14965   3.187   3.530   6.481  0.1560 -0.0871 -0.3964
  137OSM    H3F14966   3.208   3.634   6.512 -1.1826  0.4788 -1.2969
  137OSM    H3G14967   3.093   3.487   6.523 -2.0034  0.7948 -3.9083
  137OSM    C4F14968   3.178   3.521   6.329 -0.7735  0.8527 -0.3735
  137OSM    H4F14969   3.206   3.418   6.298 -1.1670  0.3461  0.9106
  137OSM    H4G14970   3.249   3.601   6.296  1.4864 -0.6075  0.6664
  137OSM    C5F14971   3.037   3.564   6.283 -0.5640  0.1646  0.3468
  137OSM    H5F14972   3.009   3.664   6.324  0.6163  1.2171 -1.3031
  137OSM    H5G14973   2.958   3.493   6.314 -0.8559  1.5705  3.0804
  137OSM    C6F14974   3.030   3.573   6.132 -0.2646 -0.3189  0.1336
  137OSM    H6F14975   2.949   3.642   6.097  0.4608  0.5033  0.0315
  137OSM    H6G14976   2.998   3.471   6.103 -0.3879 -0.0179 -0.8410
  137OSM    C7F14977   3.156   3.629   6.050 -0.0865  0.5003  0.2523
  137OSM    H7F14978   3.249   3.571   6.069  0.2350  0.6283 -0.8751
  137OSM    H7G14979   3.174   3.737   6.070 -0.2040  1.0046 -2.1141
  137OSM    C8F14980   3.133   3.618   5.899  0.2610  0.5089 -0.0921
  137OSM    H8F14981   3.230   3.650   5.857  0.6280 -0.8190 -0.3082
  137OSM    H8G14982   3.058   3.694   5.870  0.6913  1.1642  0.4849
  137OSM    C9F14983   3.089   3.477   5.850  0.3461 -0.4254  0.8574
  137OSM    H9F14984   2.983   3.457   5.874  0.3230 -0.9752  0.3135
  137OSM   C10F14985   3.157   3.403   5.765 -0.8691  0.1348 -0.3957
  137OSM   H10F14986   3.115   3.304   5.740  0.8151 -0.8520  0.5012
  137OSM   C11F14987   3.298   3.418   5.716 -0.3062  0.6268  0.1108
  137OSM   H11F14988   3.358   3.328   5.741 -0.0868  1.5026  3.0663
  137OSM   H11G14989   3.340   3.507   5.768  2.5648  0.5049 -1.8052
  137OSM   C12F14990   3.308   3.444   5.566 -0.2777 -0.7150  0.5366
  137OSM   H12F14991   3.413   3.463   5.535 -0.0976 -3.4963 -0.8831
  137OSM   H12G14992   3.241   3.531   5.547 -0.6982 -0.5835  2.3848
  137OSM   C13F14993   3.263   3.338   5.472 -0.1174 -0.3319  0.2738
  137OSM   H13F14994   3.155   3.316   5.482 -0.5276  1.3817 -0.0050
  137OSM   H13G14995   3.323   3.247   5.492 -0.2191 -0.1346  1.5307
  137OSM   C14F14996   3.281   3.379   5.328  0.1898 -0.5706  0.1438
  137OSM   H14F14997   3.257   3.487   5.319 -1.2203 -0.6913  1.8801
  137OSM   H14G14998   3.216   3.320   5.261 -1.2076 -0.3384  1.2531
  137OSM   C15F14999   3.418   3.343   5.269  0.1224  0.1494 -0.6739
  137OSM   H15F15000   3.436   3.235   5.289  1.3815  0.6800  1.3150
  137OSM   H15G15001   3.494   3.404   5.321  1.1854 -1.8302  0.2166
  137OSM   C16F15002   3.433   3.370   5.118  0.3348 -0.5070 -0.5925
  137OSM   H16F15003   3.428   3.481   5.108 -1.2085 -0.6000 -1.2202
  137OSM   H16G15004   3.345   3.327   5.066 -0.5995 -0.8921  1.2120
  137OSM   C17F15005   3.560   3.313   5.075 -0.2558  0.4007  0.7850
  137OSM   H17F15006   3.572   3.207   5.107  0.4936 -0.9243 -3.2641
  137OSM   H17G15007   3.641   3.367   5.130  1.1524 -2.8166  2.1271
  137OSM   C18F15008   3.558   3.313   4.922 -0.1571  0.3286 -0.0269
  137OSM   H18F15009   3.470   3.272   4.867 -0.2867 -0.4700  0.7654
  137OSM   H18G15010   3.648   3.256   4.891 -0.4076  0.0540 -0.2630
  137OSM   H18H15011   3.572   3.422   4.904 -0.3083  0.4827  0.7536
  138OSM      N15012   1.936   1.972   6.813 -0.1548  0.5632 -0.6191
  138OSM    C1515013   1.836   1.963   6.709  0.2292 -0.0689 -0.2287
  138OSM   H15A15014   1.836   2.046   6.640 -0.9313  0.1425  0.0114
  138OSM   H15B15015   1.739   1.969   6.755 -0.2109  0.4629 -1.2063
  138OSM   H15C15016   1.838   1.870   6.655  2.2560 -0.3134  0.1881
  138OSM    C1415017   1.921   2.103   6.873  0.7930 -0.5685  0.1091
  138OSM   H14A15018   2.005   2.123   6.938  0.0385  1.0211  0.6352
  138OSM   H14B15019   1.823   2.115   6.915  0.8100  1.8633 -0.4341
  138OSM   H14C15020   1.928   2.172   6.790 -0.5420 -0.3810  0.1306
  138OSM    C1315021   1.925   1.871   6.922 -0.0535  0.3576 -0.0792
  138OSM   H13A15022   1.824   1.861   6.960  0.3234  0.2352  0.9255
  138OSM   H13B15023   1.995   1.900   6.999  1.3851  0.1338 -1.2580
  138OSM   H13C15024   1.964   1.778   6.884 -0.0199  0.8591 -1.2949
  138OSM    C1215025   2.068   1.959   6.745  0.8056 -0.1740  0.1304
  138OSM   H12A15026   2.079   2.050   6.687 -2.0114 -0.6571 -1.3650
  138OSM   H12B15027   2.061   1.885   6.667 -0.0887  0.6501 -0.6050
  138OSM    C1115028   2.190   1.939   6.833  0.8896  0.3439 -0.2173
  138OSM   H11A15029   2.271   1.921   6.759 -0.4862  1.5852 -2.1356
  138OSM   H11B15030   2.175   1.844   6.888  0.7266  0.0950 -0.6906
  138OSM      P15031   2.277   2.187   6.858 -0.2525 -0.3650 -0.2692
  138OSM    O1315032   2.272   2.302   6.949 -0.1854 -0.4371 -0.2361
  138OSM    O1415033   2.414   2.144   6.824 -0.1615 -0.1121  0.3609
  138OSM    O1115034   2.190   2.224   6.733 -0.4239 -0.9244 -0.7589
  138OSM    O1215035   2.209   2.053   6.919  0.0838  0.2264  0.2449
  138OSM    C1S15036   2.254   2.307   6.633  0.1773 -0.2603 -0.9541
  138OSM    H1S15037   2.353   2.262   6.610  1.1444  1.6373 -0.7035
  138OSM    H1T15038   2.272   2.406   6.680 -1.0363 -0.4423 -0.0390
  138OSM     NF15039   2.249   2.406   6.421 -0.1136  0.1446  0.3421
  138OSM    HNF15040   2.222   2.500   6.401  1.2463  0.2758 -1.0507
  138OSM    C2S15041   2.172   2.325   6.507  0.8073  0.6501 -0.2058
  138OSM    H2S15042   2.143   2.228   6.462 -1.4657  0.9209  0.5717
  138OSM    C3S15043   2.037   2.387   6.536  0.3424 -0.2076 -0.4290
  138OSM    H3S15044   2.070   2.491   6.558 -0.6657  0.4818 -2.0184
  138OSM     O315045   1.969   2.331   6.651 -0.2771 -0.8400 -0.2600
  138OSM    HO315046   2.045   2.302   6.702 -1.8692 -0.8912  2.2527
  138OSM    C4S15047   1.945   2.396   6.415  0.2729 -0.3689  1.0064
  138OSM    H4S15048   1.972   2.482   6.353 -1.3781  0.5133  1.4407
  138OSM    C5S15049   1.845   2.313   6.371 -0.7225  0.2265  0.1102
  138OSM    H5S15050   1.825   2.226   6.436  0.8721 -0.3796 -0.1486
  138OSM    C6S15051   1.755   2.322   6.257 -0.8776 -0.1830 -0.3865
  138OSM    H6S15052   1.657   2.289   6.298 -0.6266  0.3930  0.7002
  138OSM    H6T15053   1.779   2.243   6.183  0.9407  0.7170 -0.8269
  138OSM    C7S15054   1.724   2.462   6.194  0.0502  0.1880 -0.6037
  138OSM    H7S15055   1.712   2.536   6.276 -0.5517 -0.0145 -0.4998
  138OSM    H7T15056   1.624   2.457   6.146 -0.0858 -1.0601 -0.2190
  138OSM    C8S15057   1.833   2.514   6.093  0.4018 -0.2701 -0.5146
  138OSM    H8S15058   1.937   2.507   6.130  1.0804 -2.8177 -2.5594
  138OSM    H8T15059   1.807   2.621   6.081  0.1613 -0.1238  1.1117
  138OSM    C9S15060   1.847   2.442   5.959 -0.2118 -0.0744  0.1825
  138OSM    H9S15061   1.874   2.334   5.963  1.0051 -0.0055 -2.8332
  138OSM    H9T15062   1.943   2.484   5.921  0.8471 -0.4220  2.3309
  138OSM   C10S15063   1.734   2.477   5.866 -0.1404 -0.2682 -0.3357
  138OSM   H10S15064   1.728   2.588   5.863 -0.5941 -0.1403  2.4763
  138OSM   H10T15065   1.645   2.436   5.917  0.6182  1.3152  2.4610
  138OSM   C11S15066   1.742   2.417   5.730  0.9353  0.0569 -0.5846
  138OSM   H11S15067   1.640   2.385   5.700  1.5490 -1.1289 -1.4807
  138OSM   H11T15068   1.793   2.320   5.744  0.0237 -0.1620  1.8450
  138OSM   C12S15069   1.797   2.508   5.623  0.7484 -0.1340 -0.0911
  138OSM   H12S15070   1.900   2.545   5.641  1.2373 -1.3902 -0.1723
  138OSM   H12T15071   1.729   2.594   5.611 -1.3466 -1.7023 -0.0347
  138OSM   C13S15072   1.807   2.438   5.488 -0.3078  0.0541  0.7270
  138OSM   H13S15073   1.744   2.348   5.476 -2.0116  1.4971 -2.0810
  138OSM   H13T15074   1.910   2.398   5.475  0.1434  1.7338 -1.7310
  138OSM   C14S15075   1.783   2.536   5.368 -0.4189  0.1255 -0.6097
  138OSM   H14S15076   1.794   2.646   5.382  1.3643  0.1114 -1.6373
  138OSM   H14T15077   1.681   2.517   5.328  0.2487 -0.3696 -2.1568
  138OSM   C15S15078   1.884   2.501   5.256  0.0845  0.2290  0.1827
  138OSM   H15S15079   1.907   2.393   5.251  0.8830  0.4489 -1.7007
  138OSM   H15T15080   1.976   2.560   5.277  0.3571 -0.3190  0.5470
  138OSM   C16S15081   1.829   2.534   5.116 -0.6669 -0.3975  0.3133
  138OSM   H16S15082   1.805   2.642   5.120  1.2428  0.0758 -0.0599
  138OSM   H16T15083   1.738   2.472   5.101 -0.0688 -0.9012 -1.4171
  138OSM   C17S15084   1.928   2.521   5.005 -0.5118  0.1468  0.0719
  138OSM   H17S15085   1.978   2.424   5.026  0.5564  1.0912  2.2579
  138OSM   H17T15086   1.996   2.610   5.007  0.0997 -0.3113 -0.2443
  138OSM   C18S15087   1.850   2.529   4.876  0.1613  0.3278 -0.6969
  138OSM   H18S15088   1.791   2.437   4.854 -0.5863  0.4797  0.6119
  138OSM   H18T15089   1.917   2.546   4.789 -0.2265 -2.1580 -1.5656
  138OSM   H18U15090   1.772   2.608   4.882  1.2714  1.3429  2.9229
  138OSM    C1F15091   2.360   2.362   6.362 -0.6676  0.2865 -0.5815
  138OSM     OF15092   2.377   2.244   6.328  0.0871  0.2100 -0.2025
  138OSM    C2F15093   2.465   2.463   6.350  0.2336  0.3546 -0.5619
  138OSM    H2F15094   2.480   2.511   6.448  0.9547  0.2928 -0.6425
  138OSM    H2G15095   2.434   2.540   6.277  0.4990  0.6581 -0.3535
  138OSM    C3F15096   2.603   2.404   6.308  0.6095 -0.2120 -0.5828
  138OSM    H3F15097   2.588   2.348   6.213 -0.9286 -1.7979  0.5339
  138OSM    H3G15098   2.637   2.327   6.381 -0.9736 -1.9017 -1.5505
  138OSM    C4F15099   2.707   2.514   6.301  0.5355 -0.5473 -0.1452
  138OSM    H4F15100   2.720   2.540   6.408 -0.3178 -0.8727  0.0429
  138OSM    H4G15101   2.671   2.602   6.243 -2.3604 -0.8682  1.0076
  138OSM    C5F15102   2.843   2.461   6.253 -0.2605  0.6118 -0.5613
  138OSM    H5F15103   2.856   2.354   6.282 -1.6717 -0.4623 -3.4102
  138OSM    H5G15104   2.920   2.527   6.297 -2.0701  1.5763  1.3381
  138OSM    C6F15105   2.846   2.481   6.098 -0.1042  0.3502  0.1172
  138OSM    H6F15106   2.798   2.575   6.063 -2.2889 -0.4006  0.9599
  138OSM    H6G15107   2.783   2.409   6.041 -1.7535  0.3120  1.9117
  138OSM    C7F15108   2.992   2.467   6.056 -0.0625 -0.4034  0.0087
  138OSM    H7F15109   3.020   2.368   6.099 -0.2434  0.7006  2.8819
  138OSM    H7G15110   3.052   2.540   6.114  1.3025 -0.6293 -1.0732
  138OSM    C8F15111   3.017   2.487   5.904  0.4451  0.8007  0.0367
  138OSM    H8F15112   3.128   2.492   5.900  0.4532  0.0901 -0.7286
  138OSM    H8G15113   2.981   2.589   5.876  0.9469  1.1587  0.6575
  138OSM    C9F15114   2.962   2.380   5.813 -0.1308  0.0686  0.3101
  138OSM    H9F15115   2.994   2.279   5.845 -3.0531 -0.7878  0.7967
  138OSM   C10F15116   2.891   2.393   5.703 -0.2787 -1.3446  0.7489
  138OSM   H10F15117   2.867   2.304   5.642 -0.0865  1.1430 -3.3293
  138OSM   C11F15118   2.823   2.524   5.654  0.3286  0.2831 -0.0751
  138OSM   H11F15119   2.839   2.614   5.718  0.0042  2.3307 -2.6778
  138OSM   H11G15120   2.715   2.497   5.657  0.0075  1.3288 -1.1324
  138OSM   C12F15121   2.875   2.576   5.520 -0.2236 -0.2456  0.0367
  138OSM   H12F15122   2.986   2.579   5.506 -0.6319 -0.1877 -4.6625
  138OSM   H12G15123   2.831   2.675   5.499  1.9201  0.6675 -0.4171
  138OSM   C13F15124   2.841   2.490   5.398 -0.5138  0.8491  0.1559
  138OSM   H13F15125   2.732   2.471   5.389 -0.5295 -1.3542  3.4074
  138OSM   H13G15126   2.876   2.388   5.423 -1.7419  0.6160  0.9775
  138OSM   C14F15127   2.903   2.550   5.279  0.0098 -0.0049 -0.7232
  138OSM   H14F15128   3.012   2.528   5.291 -0.6184 -2.9027  0.6982
  138OSM   H14G15129   2.883   2.658   5.267 -0.4026  0.2997  2.0374
  138OSM   C15F15130   2.860   2.477   5.150  0.0674 -0.5682 -0.6019
  138OSM   H15F15131   2.755   2.505   5.126 -0.5140  1.2820  3.2982
  138OSM   H15G15132   2.862   2.368   5.169 -0.5328 -0.7051 -1.2875
  138OSM   C16F15133   2.954   2.505   5.032  0.2506 -0.1144 -0.4444
  138OSM   H16F15134   3.062   2.480   5.037 -0.0872 -2.2102 -2.2425
  138OSM   H16G15135   2.958   2.614   5.009  0.7573  0.0717  0.4980
  138OSM   C17F15136   2.907   2.442   4.903  0.1515  0.3010  0.0938
  138OSM   H17F15137   2.797   2.455   4.892 -0.1184 -0.9949  1.0525
  138OSM   H17G15138   2.927   2.334   4.889  1.5474  0.6441 -0.7723
  138OSM   C18F15139   2.969   2.515   4.781 -0.3269  0.0810 -0.0027
  138OSM   H18F15140   2.956   2.624   4.798  1.4652  0.2067  0.8326
  138OSM   H18G15141   2.918   2.473   4.692 -1.5667  1.3166  0.0909
  138OSM   H18H15142   3.076   2.487   4.785 -0.1280  0.6793 -0.8932
  139OSM      N15143   4.768   0.426   6.464 -0.6820  1.2838  0.5195
  139OSM    C1515144   4.734   0.566   6.475 -0.3765 -0.9396 -1.0598
  139OSM   H15A15145   4.692   0.597   6.381  0.0500 -3.4345 -2.1557
  139OSM   H15B15146   4.821   0.629   6.487 -2.1955  1.8332 -1.6095
  139OSM   H15C15147   4.674   0.586   6.563 -0.1728 -2.8815 -0.4189
  139OSM    C1415148   4.825   0.413   6.330 -0.9035 -0.5912 -0.0247
  139OSM   H14A15149   4.905   0.485   6.317 -1.7853  0.6697  1.2339
  139OSM   H14B15150   4.769   0.441   6.242  1.2220  2.9158 -0.4757
  139OSM   H14C15151   4.866   0.314   6.319 -1.4040 -0.6919 -1.0826
  139OSM    C1315152   4.869   0.397   6.573 -0.7891 -0.1943 -0.5305
  139OSM   H13A15153   4.831   0.435   6.667  1.2459 -0.1142  0.3210
  139OSM   H13B15154   4.964   0.444   6.552 -0.1785 -0.0800  2.1149
  139OSM   H13C15155   4.883   0.291   6.582  3.0891  0.1830 -0.4440
  139OSM    C1215156   4.655   0.336   6.476 -0.3491  0.0071 -0.3910
  139OSM   H12A15157   4.574   0.372   6.413 -0.2222  2.8489  0.9000
  139OSM   H12B15158   4.617   0.331   6.577 -0.9921 -0.9991 -0.6669
  139OSM    C1115159   4.680   0.193   6.434  0.5451  0.6705 -0.3706
  139OSM   H11A15160   4.782   0.156   6.459  0.1298  0.1028  0.5128
  139OSM   H11B15161   4.667   0.189   6.324 -0.9476 -0.1664 -0.1904
  139OSM      P15162   4.595  -0.029   6.535  0.2306  0.0376 -0.1900
  139OSM    O1315163   4.692  -0.030   6.641 -0.4663 -0.2226  0.0736
  139OSM    O1415164   4.469  -0.097   6.575  0.1962 -0.4105  0.6550
  139OSM    O1115165   4.651  -0.111   6.415  0.4670  0.0986 -0.1752
  139OSM    O1215166   4.574   0.119   6.491  0.1889 -0.3696  0.1900
  139OSM    C1S15167   4.557  -0.160   6.318 -0.0599 -0.7837 -0.5038
  139OSM    H1S15168   4.567  -0.087   6.235  1.6502  3.2382  2.8132
  139OSM    H1T15169   4.451  -0.154   6.351  0.6929  0.1798  1.9512
  139OSM     NF15170   4.510  -0.329   6.152  0.6868 -0.6305 -0.3134
  139OSM    HNF15171   4.414  -0.355   6.145  0.5068  0.0477 -0.3968
  139OSM    C2S15172   4.572  -0.309   6.280 -0.3601  0.0480 -0.3140
  139OSM    H2S15173   4.679  -0.335   6.262 -0.2546 -1.5362  2.1295
  139OSM    C3S15174   4.526  -0.411   6.394 -0.4197  0.4715  0.2395
  139OSM    H3S15175   4.419  -0.386   6.412 -0.1459  0.6896  1.7614
  139OSM     O315176   4.595  -0.382   6.518  0.0441  1.2015  0.3773
  139OSM    HO315177   4.639  -0.301   6.494  3.3397 -0.2804  0.7937
  139OSM    C4S15178   4.545  -0.554   6.357  0.0176 -0.3804 -0.4590
  139OSM    H4S15179   4.471  -0.581   6.280 -1.0817  1.9770 -0.3024
  139OSM    C5S15180   4.633  -0.647   6.395  0.1713  0.6428  0.3183
  139OSM    H5S15181   4.706  -0.612   6.470  1.1591 -3.0267  1.2413
  139OSM    C6S15182   4.629  -0.795   6.359 -0.1062 -0.9106  0.9024
  139OSM    H6S15183   4.591  -0.851   6.447 -2.2206 -2.0442 -0.6432
  139OSM    H6T15184   4.732  -0.833   6.340  1.2985  2.4503  0.9990
  139OSM    C7S15185   4.542  -0.832   6.243  0.2985  0.2344  0.3528
  139OSM    H7S15186   4.452  -0.770   6.222  1.6891  1.7097 -1.6335
  139OSM    H7T15187   4.522  -0.939   6.265  1.0497  0.0906  0.3818
  139OSM    C8S15188   4.625  -0.839   6.113  0.3757 -0.3977 -0.1738
  139OSM    H8S15189   4.727  -0.879   6.129  0.8889 -0.7296 -3.5661
  139OSM    H8T15190   4.632  -0.732   6.086 -2.2675 -0.5807 -2.0437
  139OSM    C9S15191   4.557  -0.912   5.996  0.0473  0.7525  0.0728
  139OSM    H9S15192   4.462  -0.857   5.980  0.6375  1.6830 -0.3007
  139OSM    H9T15193   4.525  -1.015   6.022  0.6910  0.4910 -0.1266
  139OSM   C10S15194   4.651  -0.916   5.880  0.0163  0.3143 -0.3110
  139OSM   H10S15195   4.740  -0.971   5.916  0.8658  2.1199  0.4681
  139OSM   H10T15196   4.681  -0.811   5.859 -1.0513  0.6875 -0.0482
  139OSM   C11S15197   4.585  -0.981   5.760 -0.4595  0.2175 -0.7253
  139OSM   H11S15198   4.495  -0.921   5.733  0.8133  3.7472  2.0882
  139OSM   H11T15199   4.552  -1.082   5.792  2.8339 -0.7706 -0.0602
  139OSM   C12S15200   4.683  -1.017   5.645 -0.3379 -0.0854  0.3720
  139OSM   H12S15201   4.730  -1.112   5.676 -0.6366 -0.0989  0.7925
  139OSM   H12T15202   4.759  -0.941   5.619  0.8925 -1.4265 -0.1028
  139OSM   C13S15203   4.599  -1.033   5.519  0.1800  0.2384  0.1049
  139OSM   H13S15204   4.535  -0.943   5.509 -1.7192 -1.1263 -0.9057
  139OSM   H13T15205   4.528  -1.119   5.527  0.7376 -0.1665  0.7992
  139OSM   C14S15206   4.684  -1.053   5.386  0.3668 -0.2503  0.2421
  139OSM   H14S15207   4.742  -1.147   5.392  0.7038 -0.1281 -0.9337
  139OSM   H14T15208   4.757  -0.969   5.382 -1.1026  1.0916  0.3694
  139OSM   C15S15209   4.603  -1.065   5.258 -0.0191 -0.5554  0.2290
  139OSM   H15S15210   4.585  -0.966   5.210  1.5638 -0.2217  0.2458
  139OSM   H15T15211   4.513  -1.125   5.280 -0.3560 -1.2303 -2.5772
  139OSM   C16S15212   4.682  -1.159   5.160  0.0939 -0.1161  0.2102
  139OSM   H16S15213   4.698  -1.264   5.194  0.6910  0.0230  0.3714
  139OSM   H16T15214   4.781  -1.110   5.149 -0.7444  1.9539  1.4154
  139OSM   C17S15215   4.606  -1.166   5.022 -0.0293 -0.2642 -0.0551
  139OSM   H17S15216   4.502  -1.200   5.040 -0.0002 -0.2971  0.0520
  139OSM   H17T15217   4.657  -1.251   4.972  2.4828  1.8169 -1.2743
  139OSM   C18S15218   4.615  -1.038   4.939 -0.0859  0.8447 -0.4411
  139OSM   H18S15219   4.543  -1.042   4.854  0.5800 -1.3397 -0.9759
  139OSM   H18T15220   4.721  -1.019   4.912 -0.3515  0.7125 -1.6044
  139OSM   H18U15221   4.581  -0.956   5.006 -2.1575 -0.5241  0.2996
  139OSM    C1F15222   4.572  -0.273   6.043  0.5271  0.9751  0.3764
  139OSM     OF15223   4.689  -0.243   6.043  0.0602  0.2530  0.0981
  139OSM    C2F15224   4.489  -0.279   5.917 -0.4898 -0.9032 -0.6389
  139OSM    H2F15225   4.525  -0.200   5.848 -0.2382  2.1562  2.7009
  139OSM    H2G15226   4.388  -0.249   5.950 -0.3964 -0.8413 -0.4076
  139OSM    C3F15227   4.499  -0.417   5.844 -0.9534  0.3513 -0.0143
  139OSM    H3F15228   4.452  -0.490   5.913 -0.6755  1.1792  1.0749
  139OSM    H3G15229   4.603  -0.453   5.825 -0.9223  0.6046 -0.3361
  139OSM    C4F15230   4.425  -0.423   5.712  0.7052 -0.3783  0.7987
  139OSM    H4F15231   4.319  -0.396   5.730  0.5804 -0.3086 -0.0197
  139OSM    H4G15232   4.426  -0.527   5.672 -1.0940 -0.3090  0.5013
  139OSM    C5F15233   4.477  -0.329   5.604 -0.0312 -0.6752  0.5247
  139OSM    H5F15234   4.568  -0.376   5.562 -0.5070  0.7432 -2.3843
  139OSM    H5G15235   4.480  -0.221   5.633 -0.6557 -1.3637  3.4704
  139OSM    C6F15236   4.392  -0.344   5.472 -0.1064  0.8254  0.1287
  139OSM    H6F15237   4.285  -0.314   5.482 -0.8925 -1.6235 -0.0850
  139OSM    H6G15238   4.394  -0.453   5.449  0.8884  1.4587 -3.3523
  139OSM    C7F15239   4.451  -0.267   5.353 -0.1094  0.0269 -0.3779
  139OSM    H7F15240   4.561  -0.276   5.343 -0.1477  0.3819 -1.1677
  139OSM    H7G15241   4.436  -0.160   5.381  0.2526  0.3749 -1.4609
  139OSM    C8F15242   4.379  -0.290   5.218  0.0530 -0.1044  0.6144
  139OSM    H8F15243   4.413  -0.213   5.146 -2.0747 -0.6847 -1.0984
  139OSM    H8G15244   4.270  -0.273   5.232  0.2739  1.7652  0.3594
  139OSM    C9F15245   4.417  -0.414   5.156 -0.4355  0.5386 -1.2421
  139OSM    H9F15246   4.526  -0.429   5.156  0.1442  2.9213  3.5614
  139OSM   C10F15247   4.342  -0.519   5.109 -0.3609  0.7963 -0.3588
  139OSM   H10F15248   4.395  -0.593   5.047  3.2505  1.0892  2.0750
  139OSM   C11F15249   4.191  -0.534   5.123 -0.2415 -0.2779 -0.0695
  139OSM   H11F15250   4.138  -0.438   5.141 -0.1542 -0.4409  1.1467
  139OSM   H11G15251   4.170  -0.610   5.201 -1.8326  0.5352  0.3429
  139OSM   C12F15252   4.142  -0.593   4.989  0.0991 -0.0691  0.6361
  139OSM   H12F15253   4.192  -0.691   4.969 -0.3890 -0.3611  0.8426
  139OSM   H12G15254   4.157  -0.517   4.909  1.1006 -1.1349 -0.2436
  139OSM   C13F15255   3.990  -0.605   4.997 -0.2255  0.2943 -0.1149
  139OSM   H13F15256   3.947  -0.503   5.006 -0.0044  0.5762 -2.0001
  139OSM   H13G15257   3.956  -0.666   5.084 -1.8025 -0.1600 -1.0123
  139OSM   C14F15258   3.925  -0.668   4.874 -0.3912  0.0930  0.6716
  139OSM   H14F15259   3.815  -0.653   4.879 -0.2275  0.9714  2.3367
  139OSM   H14G15260   3.937  -0.777   4.894  2.2665  0.3516  0.7893
  139OSM   C15F15261   3.982  -0.608   4.744  0.7541  0.1254  0.9485
  139OSM   H15F15262   4.088  -0.641   4.735  0.1726 -1.6196 -0.0347
  139OSM   H15G15263   3.967  -0.498   4.756 -2.0283 -0.1193  0.2904
  139OSM   C16F15264   3.901  -0.663   4.625  0.1632 -0.3909 -0.0141
  139OSM   H16F15265   3.796  -0.627   4.634 -0.2009 -1.2099 -0.7978
  139OSM   H16G15266   3.918  -0.772   4.613 -5.1441 -1.2426 -3.3509
  139OSM   C17F15267   3.939  -0.605   4.491 -0.0642  0.1957  0.5079
  139OSM   H17F15268   4.047  -0.613   4.468  0.5104  3.1851  1.6432
  139OSM   H17G15269   3.920  -0.496   4.505  1.2345  0.4602  0.2626
  139OSM   C18F15270   3.853  -0.644   4.368 -0.4372 -0.8031  0.0545
  139OSM   H18F15271   3.897  -0.602   4.275 -1.3410  0.2653  0.0883
  139OSM   H18G15272   3.747  -0.615   4.387  0.5370  1.3865  2.8165
  139OSM   H18H15273   3.855  -0.754   4.358  1.7093 -0.7068 -1.3356
  140OSM      N15274   6.336   5.492   7.321 -0.1586 -0.2876  0.0885
  140OSM    C1515275   6.224   5.572   7.374  0.3334 -0.9645 -0.6994
  140OSM   H15A15276   6.170   5.643   7.313  1.4777  0.1799 -0.4164
  140OSM   H15B15277   6.255   5.637   7.454 -0.1408  0.7906 -1.8735
  140OSM   H15C15278   6.154   5.503   7.420  1.1712 -1.4130 -0.0638
  140OSM    C1415279   6.466   5.550   7.362  0.3658 -0.6882 -0.1335
  140OSM   H14A15280   6.479   5.550   7.469 -0.1119  0.4114 -0.0632
  140OSM   H14B15281   6.481   5.654   7.335  2.4781 -1.0106 -0.4105
  140OSM   H14C15282   6.556   5.505   7.322  0.3844  1.5923 -2.9445
  140OSM    C1315283   6.328   5.356   7.371 -0.4313  0.6527  0.0557
  140OSM   H13A15284   6.228   5.318   7.364 -0.4915  0.2766  2.3512
  140OSM   H13B15285   6.368   5.354   7.471 -2.1883  2.4992  0.8494
  140OSM   H13C15286   6.397   5.302   7.307 -0.6679  0.4035  0.0070
  140OSM    C1215287   6.329   5.487   7.171 -0.1503 -0.6941 -0.2404
  140OSM   H12A15288   6.244   5.429   7.139 -1.6029  1.6640 -0.9154
  140OSM   H12B15289   6.416   5.433   7.136 -0.4649 -1.5054  0.1983
  140OSM    C1115290   6.325   5.623   7.091 -0.6935  0.5238 -0.3684
  140OSM   H11A15291   6.351   5.603   6.985  0.3840 -0.3043  0.0298
  140OSM   H11B15292   6.398   5.696   7.131 -0.6288 -1.7566  4.3808
  140OSM      P15293   6.175   5.841   7.087  0.0346  0.4058 -0.0148
  140OSM    O1315294   6.036   5.883   7.111  0.7831 -0.6420 -0.2345
  140OSM    O1415295   6.273   5.909   7.168 -0.8499 -0.0911 -0.3809
  140OSM    O1115296   6.207   5.862   6.925 -0.3789  0.0511 -0.2334
  140OSM    O1215297   6.192   5.681   7.102 -0.0719 -0.2225 -0.0692
  140OSM    C1S15298   6.149   5.780   6.830  0.1656 -0.4840  0.2480
  140OSM    H1S15299   6.053   5.739   6.867 -1.8458  2.0398 -1.7739
  140OSM    H1T15300   6.221   5.700   6.802  0.3955 -0.3978  0.5938
  140OSM     NF15301   6.037   5.783   6.617 -0.1367  0.0153 -1.0568
  140OSM    HNF15302   6.068   5.745   6.530 -2.3335 -1.6113 -1.2136
  140OSM    C2S15303   6.130   5.858   6.701 -0.7683  0.2468  0.1155
  140OSM    H2S15304   6.079   5.952   6.732  0.9931  1.1392  0.4578
  140OSM    C3S15305   6.275   5.899   6.642 -0.4530 -0.3641 -0.0062
  140OSM    H3S15306   6.327   5.803   6.623 -1.4209 -0.8212 -0.4338
  140OSM     O315307   6.357   5.978   6.731 -0.4042 -0.2480 -0.9845
  140OSM    HO315308   6.317   5.950   6.814  1.9055  2.0751  1.0925
  140OSM    C4S15309   6.236   5.971   6.515  0.1714 -0.1064 -0.2858
  140OSM    H4S15310   6.211   5.898   6.437  0.3000 -1.1186  0.6003
  140OSM    C5S15311   6.212   6.103   6.486  0.5574 -0.0937 -0.4217
  140OSM    H5S15312   6.238   6.182   6.559  1.7660 -2.0352  1.3482
  140OSM    C6S15313   6.150   6.145   6.351  0.6625  0.4657  0.7257
  140OSM    H6S15314   6.113   6.249   6.360 -0.4480  0.0086  1.6436
  140OSM    H6T15315   6.069   6.072   6.327  2.3113 -1.3500  0.3495
  140OSM    C7S15316   6.253   6.150   6.230 -0.1739 -0.5375  0.0972
  140OSM    H7S15317   6.284   6.046   6.207 -2.6213 -0.9641 -1.7396
  140OSM    H7T15318   6.351   6.191   6.261  0.8901 -1.3193 -2.0741
  140OSM    C8S15319   6.208   6.225   6.102 -0.2102 -0.2608 -0.0078
  140OSM    H8S15320   6.180   6.327   6.134 -1.1625 -0.1817 -1.0632
  140OSM    H8T15321   6.110   6.191   6.064 -0.7140  0.1615  0.8970
  140OSM    C9S15322   6.306   6.225   5.982  0.3890 -0.4961 -0.1120
  140OSM    H9S15323   6.361   6.128   5.976  1.4335 -0.0629  1.6591
  140OSM    H9T15324   6.379   6.304   6.010 -1.8507  0.9377  2.1303
  140OSM   C10S15325   6.240   6.266   5.849  0.2167  0.6939  0.0137
  140OSM   H10S15326   6.189   6.364   5.856 -1.5743  0.0747 -2.6151
  140OSM   H10T15327   6.157   6.198   5.821  0.0436  0.7617  0.3556
  140OSM   C11S15328   6.347   6.276   5.740  0.2947  0.6512  0.1930
  140OSM   H11S15329   6.386   6.172   5.743 -2.3435 -0.4799 -1.1322
  140OSM   H11T15330   6.415   6.359   5.768 -0.5816  0.1101  4.7147
  140OSM   C12S15331   6.293   6.294   5.598 -0.2260 -0.2528  0.2817
  140OSM   H12S15332   6.229   6.384   5.588 -1.0110 -0.7548  0.7007
  140OSM   H12T15333   6.219   6.219   5.563 -1.3268  0.1689  1.6218
  140OSM   C13S15334   6.406   6.295   5.485  0.2762 -0.4306 -0.2881
  140OSM   H13S15335   6.451   6.194   5.487  1.7981  0.1888 -1.2064
  140OSM   H13T15336   6.479   6.373   5.516  1.6904 -1.3241 -1.2310
  140OSM   C14S15337   6.364   6.319   5.335  0.5827  0.0162  0.4810
  140OSM   H14S15338   6.301   6.231   5.308  0.6028  0.3535 -0.7258
  140OSM   H14T15339   6.448   6.303   5.264  0.0069 -0.2953 -0.1462
  140OSM   C15S15340   6.302   6.446   5.300 -0.0659  0.0206  0.8780
  140OSM   H15S15341   6.369   6.528   5.332  0.5335  0.3243 -1.0222
  140OSM   H15T15342   6.213   6.460   5.365  0.8132 -0.4553  2.2094
  140OSM   C16S15343   6.254   6.460   5.153 -0.3275 -0.4654 -0.3947
  140OSM   H16S15344   6.157   6.406   5.155 -0.6839 -0.0034 -2.6165
  140OSM   H16T15345   6.320   6.398   5.088  1.6628  0.1011  0.9884
  140OSM   C17S15346   6.227   6.598   5.100 -0.0431  0.0896 -0.0083
  140OSM   H17S15347   6.317   6.660   5.121  1.1670 -1.9200  0.9407
  140OSM   H17T15348   6.145   6.643   5.160  0.3924  3.5567 -1.7478
  140OSM   C18S15349   6.187   6.621   4.959  0.4828  0.4460  0.4357
  140OSM   H18S15350   6.150   6.723   4.935 -2.7182 -0.3251  1.5130
  140OSM   H18T15351   6.108   6.549   4.927  1.3094 -0.8777  1.2629
  140OSM   H18U15352   6.264   6.584   4.888  0.6104  1.1633  0.2021
  140OSM    C1F15353   5.906   5.760   6.646 -0.5533 -0.1321  0.1605
  140OSM     OF15354   5.866   5.812   6.751 -0.2122  0.1724  0.1941
  140OSM    C2F15355   5.824   5.669   6.561  0.4684  0.2357 -0.5824
  140OSM    H2F15356   5.731   5.656   6.621  0.1349  0.3572 -1.0650
  140OSM    H2G15357   5.861   5.565   6.545 -0.8755 -0.1146 -1.5936
  140OSM    C3F15358   5.793   5.750   6.436  0.0874  0.1860 -0.2894
  140OSM    H3F15359   5.740   5.693   6.357  0.1064  0.7918 -0.7526
  140OSM    H3G15360   5.888   5.789   6.393  0.1758 -0.2754 -0.5209
  140OSM    C4F15361   5.685   5.863   6.463 -0.6896  0.2048 -0.0301
  140OSM    H4F15362   5.692   5.912   6.562  0.8226  0.3929 -0.2110
  140OSM    H4G15363   5.585   5.815   6.471 -1.4774  1.8329  0.5217
  140OSM    C5F15364   5.662   5.971   6.357 -0.5307 -0.0232 -0.6810
  140OSM    H5F15365   5.751   6.037   6.353 -0.4259  0.0349  1.4380
  140OSM    H5G15366   5.579   6.033   6.397  1.6975  1.3665  2.1934
  140OSM    C6F15367   5.637   5.926   6.213 -0.6987 -0.0756  0.3810
  140OSM    H6F15368   5.552   5.855   6.208 -1.0064  0.2702  0.6532
  140OSM    H6G15369   5.734   5.880   6.182 -1.4157 -1.4945  0.1989
  140OSM    C7F15370   5.611   6.046   6.104 -0.2268  0.7881  0.2224
  140OSM    H7F15371   5.685   6.128   6.113  2.1094 -1.2913  1.2533
  140OSM    H7G15372   5.518   6.097   6.138 -0.3512  0.9636 -0.3726
  140OSM    C8F15373   5.609   5.994   5.955  0.5027  0.4774 -0.5037
  140OSM    H8F15374   5.535   5.912   5.952 -0.3852  1.2725 -1.0177
  140OSM    H8G15375   5.708   5.955   5.923 -0.9992 -1.7095 -2.9001
  140OSM    C9F15376   5.555   6.101   5.863 -0.4082  0.7093 -0.3193
  140OSM    H9F15377   5.448   6.124   5.874 -0.8297 -2.0642  3.1784
  140OSM   C10F15378   5.616   6.147   5.754 -0.5474  0.1864 -0.1426
  140OSM   H10F15379   5.569   6.221   5.687  2.0697  1.0298 -1.1998
  140OSM   C11F15380   5.748   6.090   5.698  0.1855 -0.3273  0.1764
  140OSM   H11F15381   5.747   5.979   5.696  1.4690 -0.3931  1.3453
  140OSM   H11G15382   5.832   6.135   5.756  0.1046  0.7964 -0.5572
  140OSM   C12F15383   5.782   6.139   5.552 -0.3676  0.1584 -0.3545
  140OSM   H12F15384   5.887   6.110   5.530 -0.3996 -0.1426 -0.1310
  140OSM   H12G15385   5.775   6.250   5.555 -1.1307  0.1125 -0.2332
  140OSM   C13F15386   5.704   6.073   5.440 -0.1697 -0.3727 -0.4230
  140OSM   H13F15387   5.595   6.093   5.442 -0.4523 -1.0548 -3.6244
  140OSM   H13G15388   5.719   5.963   5.453  0.1129 -0.4180 -1.0616
  140OSM   C14F15389   5.743   6.105   5.295 -0.3100 -0.6799  0.1018
  140OSM   H14F15390   5.854   6.114   5.291 -0.3910  0.0293 -1.2149
  140OSM   H14G15391   5.686   6.192   5.256  0.6335 -0.1159 -0.0543
  140OSM   C15F15392   5.703   5.982   5.199  0.5737 -0.5504  0.2525
  140OSM   H15F15393   5.598   6.000   5.168  0.5093  0.6425  1.0878
  140OSM   H15G15394   5.704   5.882   5.248  1.4014  0.9874  3.6865
  140OSM   C16F15395   5.790   5.970   5.076 -0.2136  0.4577 -0.3382
  140OSM   H16F15396   5.731   5.894   5.020 -0.8584  1.1914 -0.6713
  140OSM   H16G15397   5.890   5.933   5.105 -0.2069  0.4911 -0.3193
  140OSM   C17F15398   5.812   6.102   4.998 -0.2102  0.3720  0.1895
  140OSM   H17F15399   5.895   6.084   4.927  1.0536  1.6592  1.2864
  140OSM   H17G15400   5.846   6.188   5.060 -0.1036 -0.0111  0.6692
  140OSM   C18F15401   5.697   6.143   4.904 -0.1212 -1.0058 -1.0406
  140OSM   H18F15402   5.605   6.142   4.966  0.6884 -1.2568  0.1815
  140OSM   H18G15403   5.676   6.060   4.833 -0.5982  0.2065 -2.3598
  140OSM   H18H15404   5.709   6.243   4.857 -0.4434 -1.0091 -1.1356
  141OSM      N15405   5.583   5.176   7.093  0.3644 -0.5055 -0.0656
  141OSM    C1515406   5.646   5.203   7.227 -0.0476 -0.0616 -0.3756
  141OSM   H15A15407   5.706   5.119   7.259  1.6833  1.7347  1.3508
  141OSM   H15B15408   5.569   5.226   7.299  1.0798 -0.3877  0.9719
  141OSM   H15C15409   5.714   5.287   7.235  0.9199 -0.8480 -0.1537
  141OSM    C1415410   5.481   5.072   7.105 -0.3236  0.3964 -0.1689
  141OSM   H14A15411   5.434   5.069   7.008  1.0526 -1.7689 -0.8268
  141OSM   H14B15412   5.407   5.101   7.179 -0.0117 -2.2110  1.2927
  141OSM   H14C15413   5.511   4.970   7.119 -2.2185 -0.2812 -0.6812
  141OSM    C1315414   5.525   5.310   7.055  0.0419 -0.0011 -0.2192
  141OSM   H13A15415   5.597   5.390   7.054  0.3600 -0.2843 -0.6758
  141OSM   H13B15416   5.455   5.341   7.132  1.4552  0.7803  0.7935
  141OSM   H13C15417   5.462   5.316   6.968 -0.2290 -0.1560 -0.0389
  141OSM    C1215418   5.685   5.147   6.984  0.6499 -0.5092  0.6758
  141OSM   H12A15419   5.773   5.208   7.002  0.6047 -1.1432  3.5893
  141OSM   H12B15420   5.635   5.190   6.898  0.3394  2.5065  2.2112
  141OSM    C1115421   5.735   5.001   6.959 -0.2158 -0.6523  0.4736
  141OSM   H11A15422   5.797   5.002   6.866 -2.1983 -0.2481 -0.9168
  141OSM   H11B15423   5.650   4.934   6.931  0.6197 -1.4232 -0.3105
  141OSM      P15424   5.947   4.992   7.121 -0.0688 -0.3942 -0.3693
  141OSM    O1315425   5.941   5.136   7.146 -0.0451  0.2229 -0.0902
  141OSM    O1415426   6.007   4.909   7.224 -0.1269  0.4953 -0.3593
  141OSM    O1115427   6.030   4.968   6.991 -0.5270 -0.2667 -0.2758
  141OSM    O1215428   5.801   4.941   7.074  0.1329 -0.4952 -0.5336
  141OSM    C1S15429   6.071   4.844   6.937 -0.0396  0.0354  0.4878
  141OSM    H1S15430   5.999   4.762   6.959 -1.9199  0.7353 -2.4400
  141OSM    H1T15431   6.174   4.834   6.975  0.1706  2.5797  0.7834
  141OSM     NF15432   6.150   4.727   6.738  0.0495  0.2956  0.1877
  141OSM    HNF15433   6.249   4.714   6.740  0.2578  1.1746 -2.0166
  141OSM    C2S15434   6.096   4.851   6.784 -0.1332 -0.0217 -0.6852
  141OSM    H2S15435   6.001   4.873   6.731  0.2792  3.2102 -0.2940
  141OSM    C3S15436   6.183   4.982   6.751 -0.8578 -0.0005 -0.3360
  141OSM    H3S15437   6.277   4.975   6.810 -0.5152 -3.0281 -1.1055
  141OSM     O315438   6.111   5.108   6.783 -0.0240 -0.1028  0.2044
  141OSM    HO315439   6.047   5.095   6.853  0.6814  0.1938  0.9083
  141OSM    C4S15440   6.228   4.994   6.612 -0.1292 -0.1689 -0.3322
  141OSM    H4S15441   6.140   4.982   6.546 -1.0352  0.3823  0.7225
  141OSM    C5S15442   6.345   5.030   6.559  0.3819 -0.4104  0.5726
  141OSM    H5S15443   6.432   5.037   6.625 -0.1709  0.3737  1.2336
  141OSM    C6S15444   6.374   5.059   6.410  0.1516 -0.3985  0.7654
  141OSM    H6S15445   6.476   5.019   6.394  0.5923  0.8364  0.3833
  141OSM    H6T15446   6.368   5.169   6.396 -1.8984 -0.3789  1.4423
  141OSM    C7S15447   6.288   4.983   6.312 -0.5861  0.3838 -0.3074
  141OSM    H7S15448   6.183   4.981   6.349 -0.5172 -1.5141 -0.1392
  141OSM    H7T15449   6.306   4.874   6.319 -1.5595  0.2973  1.4025
  141OSM    C8S15450   6.300   5.030   6.168 -0.4578  0.1500 -0.0800
  141OSM    H8S15451   6.245   5.126   6.165  0.9059  0.9697  0.3865
  141OSM    H8T15452   6.248   4.959   6.099 -1.2143 -2.8415  3.2502
  141OSM    C9S15453   6.438   5.068   6.118  0.0561 -1.2698 -0.7303
  141OSM    H9S15454   6.508   4.982   6.122 -0.6026 -1.7549  1.2458
  141OSM    H9T15455   6.476   5.140   6.194 -2.0266  0.6166 -1.3429
  141OSM   C10S15456   6.439   5.138   5.980  0.1699  0.6112 -0.5695
  141OSM   H10S15457   6.521   5.213   5.973 -0.1468  1.1461  0.9825
  141OSM   H10T15458   6.346   5.191   5.949 -0.2413  0.2241 -0.0161
  141OSM   C11S15459   6.482   5.033   5.872  0.4480  0.4493 -0.4190
  141OSM   H11S15460   6.413   4.947   5.883 -0.8633  1.6025  0.6858
  141OSM   H11T15461   6.584   5.001   5.899  0.1194 -0.6820 -0.4501
  141OSM   C12S15462   6.483   5.093   5.730  0.0548 -0.0399  0.0785
  141OSM   H12S15463   6.543   5.187   5.727  0.8790 -0.5075  1.1055
  141OSM   H12T15464   6.377   5.106   5.699  0.1965 -0.2011 -0.4940
  141OSM   C13S15465   6.566   5.003   5.635 -0.4160  0.0537 -0.9057
  141OSM   H13S15466   6.525   4.900   5.650 -1.4984  0.7514  1.4178
  141OSM   H13T15467   6.670   4.998   5.674 -1.6336  1.4191  3.0140
  141OSM   C14S15468   6.567   5.037   5.488 -0.1957 -0.6579 -0.0504
  141OSM   H14S15469   6.604   5.140   5.471 -1.7369  0.3046  1.9407
  141OSM   H14T15470   6.458   5.030   5.465 -0.5956 -0.5447  1.6158
  141OSM   C15S15471   6.647   4.935   5.393 -0.8596 -0.1657  0.7113
  141OSM   H15S15472   6.618   4.829   5.410  1.2909 -1.2476 -1.5990
  141OSM   H15T15473   6.757   4.938   5.408 -0.4946 -0.8335 -1.4311
  141OSM   C16S15474   6.618   4.962   5.243 -0.3975  0.1525 -0.2174
  141OSM   H16S15475   6.511   4.953   5.215 -0.1459 -1.1015 -0.8441
  141OSM   H16T15476   6.665   4.882   5.183 -1.6360  0.4487 -1.6225
  141OSM   C17S15477   6.689   5.079   5.177  0.2684 -0.0545  0.3316
  141OSM   H17S15478   6.792   5.086   5.218  1.2384 -1.1762 -1.8139
  141OSM   H17T15479   6.637   5.176   5.197  1.7080  0.3044  2.7693
  141OSM   C18S15480   6.698   5.069   5.023  0.0258  0.2356 -0.2798
  141OSM   H18S15481   6.731   5.168   4.983  1.2526  0.0537  0.2487
  141OSM   H18T15482   6.598   5.062   4.975  0.1323  0.0577 -0.4757
  141OSM   H18U15483   6.752   4.987   4.971 -0.4627  0.0111 -0.4399
  141OSM    C1F15484   6.078   4.612   6.732 -0.0272 -0.2935 -0.6414
  141OSM     OF15485   5.956   4.612   6.747 -0.6290 -0.1784  0.3304
  141OSM    C2F15486   6.164   4.488   6.720 -0.5384  0.3408  0.4449
  141OSM    H2F15487   6.170   4.440   6.820  1.0474 -0.1608  0.1425
  141OSM    H2G15488   6.268   4.510   6.689 -0.1714 -0.9856  0.6690
  141OSM    C3F15489   6.092   4.399   6.609  0.0142 -0.3753 -0.0091
  141OSM    H3F15490   5.989   4.382   6.648 -0.1451 -1.6514 -0.9109
  141OSM    H3G15491   6.148   4.304   6.598  0.4618 -0.1076 -0.0558
  141OSM    C4F15492   6.067   4.459   6.472 -0.0425 -0.2005 -0.7534
  141OSM    H4F15493   5.997   4.543   6.492  2.5425  1.6913  1.0620
  141OSM    H4G15494   6.012   4.383   6.412  0.0165 -1.0581  0.2509
  141OSM    C5F15495   6.197   4.502   6.400  0.2493 -0.3981  0.0295
  141OSM    H5F15496   6.271   4.419   6.403  3.4071  2.2176  0.1825
  141OSM    H5G15497   6.239   4.594   6.446  3.2318 -0.2907 -2.5354
  141OSM    C6F15498   6.166   4.514   6.244 -0.0722  0.2332 -0.2437
  141OSM    H6F15499   6.081   4.584   6.228  0.9088  1.9500  1.5494
  141OSM    H6G15500   6.152   4.411   6.206 -1.9152  0.1689  0.5226
  141OSM    C7F15501   6.278   4.579   6.155  0.3684 -0.5484 -0.6727
  141OSM    H7F15502   6.372   4.522   6.176  0.7076  0.3387  0.3023
  141OSM    H7G15503   6.284   4.683   6.191 -2.9769  0.2672 -2.1434
  141OSM    C8F15504   6.247   4.581   6.005  0.4645 -0.1677  0.7639
  141OSM    H8F15505   6.153   4.637   5.986  1.5065  1.7094  0.8719
  141OSM    H8G15506   6.245   4.477   5.966  1.3949 -0.2622  0.9423
  141OSM    C9F15507   6.360   4.656   5.932 -0.0242 -0.3806 -0.0320
  141OSM    H9F15508   6.415   4.728   5.995 -0.2593 -0.9797  0.8733
  141OSM   C10F15509   6.397   4.638   5.796  0.1442  0.0798 -0.0560
  141OSM   H10F15510   6.484   4.693   5.757 -0.0150 -0.5723 -1.3533
  141OSM   C11F15511   6.335   4.537   5.699 -0.2656  0.6416  0.0461
  141OSM   H11F15512   6.235   4.516   5.742  0.6453  0.8756  2.4220
  141OSM   H11G15513   6.392   4.442   5.692  0.0777  0.7669  1.0240
  141OSM   C12F15514   6.328   4.586   5.553  0.2831 -0.5049  0.4634
  141OSM   H12F15515   6.285   4.504   5.490 -1.2154  0.9208 -0.4558
  141OSM   H12G15516   6.432   4.605   5.520  0.6070 -2.8276 -0.0601
  141OSM   C13F15517   6.233   4.708   5.536 -0.3529 -0.6536 -0.3550
  141OSM   H13F15518   6.262   4.774   5.621  0.2438 -0.7785 -0.4534
  141OSM   H13G15519   6.126   4.679   5.547 -0.6575  0.3491 -0.5449
  141OSM   C14F15520   6.244   4.771   5.395  0.3976  0.1019  0.0839
  141OSM   H14F15521   6.242   4.686   5.323  0.0096  0.4671 -0.3424
  141OSM   H14G15522   6.344   4.819   5.394  0.4586  0.0287 -2.4282
  141OSM   C15F15523   6.130   4.879   5.375 -0.6777 -0.0700  0.6226
  141OSM   H15F15524   6.133   4.950   5.460  2.2179  0.2371  0.3648
  141OSM   H15G15525   6.029   4.836   5.363  0.1035 -1.5266 -1.2881
  141OSM   C16F15526   6.183   4.970   5.256  0.1602  0.6330 -0.8864
  141OSM   H16F15527   6.270   5.029   5.292  2.0732 -2.3188 -0.3148
  141OSM   H16G15528   6.095   5.034   5.235  0.7607  1.6401 -0.4481
  141OSM   C17F15529   6.223   4.895   5.128 -0.3335  0.6291  0.3404
  141OSM   H17F15530   6.133   4.841   5.091 -1.2841  0.3362  2.8390
  141OSM   H17G15531   6.311   4.830   5.143  0.5089  1.3334 -1.3577
  141OSM   C18F15532   6.273   4.990   5.026 -0.6409  0.3898  0.0508
  141OSM   H18F15533   6.369   5.034   5.061 -0.3428 -1.1293  1.2449
  141OSM   H18G15534   6.202   5.074   5.013  0.6493  1.4351 -0.4923
  141OSM   H18H15535   6.295   4.944   4.928  1.0544  3.0702 -0.9383
  142OSM      N15536   4.053   3.997   7.680  0.0296 -1.2280  0.3460
  142OSM    C1515537   4.056   4.011   7.824  0.2710  0.3232 -0.0343
  142OSM   H15A15538   4.147   4.049   7.868  0.7886 -0.8203 -0.0637
  142OSM   H15B15539   4.072   3.910   7.860  0.6457  1.2521  2.6018
  142OSM   H15C15540   3.967   4.052   7.867  0.3674  2.6488 -1.8659
  142OSM    C1415541   4.040   4.135   7.619  0.2138  0.5559 -0.1590
  142OSM   H14A15542   3.975   4.195   7.681 -0.3796 -0.9772  0.7715
  142OSM   H14B15543   4.009   4.120   7.517  0.8871 -1.4680 -0.1216
  142OSM   H14C15544   4.134   4.187   7.611 -0.5711  1.7520 -2.5085
  142OSM    C1315545   4.182   3.933   7.637  0.3312  0.9356  0.3196
  142OSM   H13A15546   4.202   3.945   7.531 -0.8492 -0.0866 -0.0328
  142OSM   H13B15547   4.189   3.829   7.664 -1.3072  0.3188 -1.4293
  142OSM   H13C15548   4.270   3.973   7.685  1.8283 -0.1885 -1.3470
  142OSM    C1215549   3.936   3.905   7.635 -0.1164 -0.2836 -0.7388
  142OSM   H12A15550   3.850   3.967   7.659 -0.1549 -0.4138 -0.5328
  142OSM   H12B15551   3.931   3.810   7.687 -1.3080 -0.4126 -1.0563
  142OSM    C1115552   3.927   3.874   7.486  0.2202 -0.2276 -0.4972
  142OSM   H11A15553   3.836   3.810   7.482 -0.3807  0.2767  2.4818
  142OSM   H11B15554   4.008   3.806   7.453 -0.3519 -1.6293  0.8226
  142OSM      P15555   3.791   4.063   7.347 -0.6136 -0.3487  0.1710
  142OSM    O1315556   3.675   4.036   7.434  0.3830 -0.3989  0.2870
  142OSM    O1415557   3.815   4.203   7.309 -0.0759  0.0418  0.0579
  142OSM    O1115558   3.778   3.980   7.218 -0.4383 -0.3243  0.2124
  142OSM    O1215559   3.921   3.997   7.406 -0.1627  0.7731 -0.6227
  142OSM    C1S15560   3.863   3.999   7.105  0.0299 -0.1265 -0.6157
  142OSM    H1S15561   3.962   3.957   7.130 -1.3419 -1.7566  2.7099
  142OSM    H1T15562   3.880   4.108   7.088 -1.2639  0.2624  0.3510
  142OSM     NF15563   3.920   3.948   6.874 -0.2167 -0.0400 -0.7428
  142OSM    HNF15564   3.903   4.005   6.794  2.5961  2.9241  0.5263
  142OSM    C2S15565   3.819   3.932   6.977 -0.1540  0.3725 -0.9387
  142OSM    H2S15566   3.808   3.825   7.007  0.3826  0.8532  1.1432
  142OSM    C3S15567   3.674   3.979   6.947 -0.1300  0.7636  0.4348
  142OSM    H3S15568   3.700   4.087   6.938  1.2219  0.3800 -0.6572
  142OSM     O315569   3.578   3.963   7.049 -0.1438 -0.9859 -0.4013
  142OSM    HO315570   3.622   3.979   7.133 -2.4306  0.6863  0.6112
  142OSM    C4S15571   3.632   3.917   6.818  0.6589 -0.2404  0.3554
  142OSM    H4S15572   3.655   3.983   6.734  1.2863  1.1106  1.5595
  142OSM    C5S15573   3.558   3.802   6.794  0.1010 -0.5609 -0.6165
  142OSM    H5S15574   3.515   3.746   6.878 -2.2348  0.8475 -0.8022
  142OSM    C6S15575   3.511   3.761   6.661  0.5782  0.6124 -0.4997
  142OSM    H6S15576   3.402   3.777   6.650  0.3639 -1.0689 -1.2905
  142OSM    H6T15577   3.521   3.651   6.647  0.9861  0.6638 -0.6368
  142OSM    C7S15578   3.565   3.823   6.527 -0.7628  0.1484 -0.4215
  142OSM    H7S15579   3.676   3.829   6.533 -0.7730  0.7681 -0.7995
  142OSM    H7T15580   3.524   3.923   6.501  2.3181  1.1611 -1.8437
  142OSM    C8S15581   3.526   3.741   6.401  0.3957  0.2421  0.2524
  142OSM    H8S15582   3.417   3.720   6.407  0.5451 -0.0173  3.5039
  142OSM    H8T15583   3.574   3.643   6.418 -0.2322  0.2740  2.5170
  142OSM    C9S15584   3.584   3.795   6.266  0.6917 -0.8258 -0.6138
  142OSM    H9S15585   3.684   3.748   6.262  0.9563 -0.7232  2.4036
  142OSM    H9T15586   3.587   3.906   6.273 -1.7686 -0.6845 -0.7866
  142OSM   C10S15587   3.504   3.741   6.147 -0.1963 -0.0356 -0.1620
  142OSM   H10S15588   3.403   3.787   6.152  0.2538  1.4734 -2.9302
  142OSM   H10T15589   3.499   3.630   6.143 -0.2108 -0.0718  0.8057
  142OSM   C11S15590   3.554   3.786   6.012  0.3392 -0.4450 -0.1829
  142OSM   H11S15591   3.520   3.709   5.939 -1.1534 -0.1371  0.1586
  142OSM   H11T15592   3.665   3.798   6.012  0.2591  0.5506  1.5253
  142OSM   C12S15593   3.488   3.917   5.972 -0.5546 -0.1704 -0.0894
  142OSM   H12S15594   3.533   4.009   6.016  0.5217 -0.5769 -0.3124
  142OSM   H12T15595   3.382   3.920   6.005 -0.8647  1.0602 -1.1272
  142OSM   C13S15596   3.496   3.931   5.821 -0.7069 -0.3763  0.0950
  142OSM   H13S15597   3.448   4.027   5.791 -1.8478 -1.1615 -0.6634
  142OSM   H13T15598   3.433   3.852   5.774 -1.4831 -0.1221  0.6984
  142OSM   C14S15599   3.634   3.927   5.761 -0.3191  0.4895  0.4968
  142OSM   H14S15600   3.669   3.822   5.772 -1.5897 -0.0762 -0.6382
  142OSM   H14T15601   3.706   3.997   5.809  0.7296 -2.0048  2.8092
  142OSM   C15S15602   3.625   3.942   5.605 -0.3565  0.3621 -0.4607
  142OSM   H15S15603   3.722   3.974   5.561 -0.1260  0.2352 -0.0411
  142OSM   H15T15604   3.551   4.023   5.588 -1.6890 -0.7489 -0.1052
  142OSM   C16S15605   3.578   3.817   5.535  0.3106 -0.1678 -0.1216
  142OSM   H16S15606   3.511   3.757   5.599  2.1554 -2.6222 -0.3482
  142OSM   H16T15607   3.667   3.751   5.527  2.1546  1.9296  1.6076
  142OSM   C17S15608   3.490   3.841   5.415 -0.1012 -0.3937 -0.6670
  142OSM   H17S15609   3.543   3.897   5.334 -2.7873  5.3822  1.0190
  142OSM   H17T15610   3.410   3.911   5.448  1.4504  0.3961  1.6515
  142OSM   C18S15611   3.425   3.718   5.357  0.5512  0.2115 -0.2523
  142OSM   H18S15612   3.338   3.677   5.413 -0.3896 -0.6290 -2.2265
  142OSM   H18T15613   3.496   3.636   5.331 -1.0867 -0.2066 -4.1060
  142OSM   H18U15614   3.378   3.734   5.257 -0.6746 -2.4240 -0.1863
  142OSM    C1F15615   4.042   3.893   6.875 -0.5027 -0.6724  0.0622
  142OSM     OF15616   4.080   3.824   6.971  0.3420  0.1553  0.4410
  142OSM    C2F15617   4.125   3.905   6.749  0.1055 -0.5119  0.1246
  142OSM    H2F15618   4.156   4.011   6.742 -0.4229 -0.0750  3.0769
  142OSM    H2G15619   4.062   3.866   6.667 -1.1175  0.0563  0.7678
  142OSM    C3F15620   4.256   3.829   6.755 -0.8963  0.0434 -0.1312
  142OSM    H3F15621   4.246   3.733   6.811 -1.1650  0.5369  0.6847
  142OSM    H3G15622   4.337   3.876   6.814 -2.4245  1.9433  0.5714
  142OSM    C4F15623   4.318   3.805   6.612 -0.0160 -0.4107 -0.4923
  142OSM    H4F15624   4.237   3.767   6.546 -1.8967 -0.1671  1.5567
  142OSM    H4G15625   4.382   3.716   6.631  0.3104 -0.5403 -2.0897
  142OSM    C5F15626   4.391   3.924   6.547  0.1822 -0.3354 -0.1338
  142OSM    H5F15627   4.473   3.966   6.610  1.0901  2.3151 -2.8455
  142OSM    H5G15628   4.320   4.008   6.530  0.5247  0.6013  2.5301
  142OSM    C6F15629   4.473   3.881   6.424 -0.1762  0.2871 -0.0881
  142OSM    H6F15630   4.530   3.792   6.459 -1.5215  0.5538  3.1335
  142OSM    H6G15631   4.548   3.962   6.414  1.3673 -1.0233  0.4277
  142OSM    C7F15632   4.403   3.849   6.288 -0.6032 -0.5573  0.3688
  142OSM    H7F15633   4.348   3.942   6.262 -0.3768 -0.6013 -0.2601
  142OSM    H7G15634   4.340   3.757   6.292  2.3420 -2.8597 -1.9106
  142OSM    C8F15635   4.494   3.837   6.168  0.1899 -0.9642 -0.8434
  142OSM    H8F15636   4.546   3.739   6.178  0.4327 -0.7561 -0.0059
  142OSM    H8G15637   4.579   3.908   6.172 -0.5079 -0.1623  0.7744
  142OSM    C9F15638   4.412   3.819   6.041 -0.6971  0.3282  0.0008
  142OSM    H9F15639   4.358   3.723   6.039 -2.2298  1.0978  1.8639
  142OSM   C10F15640   4.403   3.902   5.936 -0.1115 -0.4542  0.4125
  142OSM   H10F15641   4.334   3.878   5.853 -0.8384  2.0539  0.2288
  142OSM   C11F15642   4.480   4.031   5.920 -0.1133  0.4144 -0.1514
  142OSM   H11F15643   4.572   4.045   5.981  1.1190 -0.1392 -1.7890
  142OSM   H11G15644   4.420   4.119   5.952  2.4000  2.3309 -0.3224
  142OSM   C12F15645   4.518   4.061   5.774 -0.2816  0.2099 -0.6961
  142OSM   H12F15646   4.570   4.158   5.782  4.5540 -2.1753  0.8066
  142OSM   H12G15647   4.436   4.064   5.699 -1.1800  0.8035  0.2941
  142OSM   C13F15648   4.639   3.979   5.717 -0.0081 -0.4202 -0.0003
  142OSM   H13F15649   4.618   3.870   5.717  0.8372 -0.6048  1.2820
  142OSM   H13G15650   4.731   3.986   5.779  0.6067  0.2703 -0.9534
  142OSM   C14F15651   4.675   4.019   5.576 -0.2980 -0.5244  0.0119
  142OSM   H14F15652   4.728   4.117   5.580 -1.6190  0.1780  0.9640
  142OSM   H14G15653   4.585   4.032   5.512  0.5128  0.6176 -0.9627
  142OSM   C15F15654   4.779   3.921   5.519  0.6183  0.2393 -0.6275
  142OSM   H15F15655   4.754   3.822   5.562  1.8580  0.0628 -0.2830
  142OSM   H15G15656   4.880   3.940   5.561  0.4362 -0.4158  0.1356
  142OSM   C16F15657   4.784   3.920   5.372 -0.3644  0.8914  0.8261
  142OSM   H16F15658   4.681   3.908   5.332  0.6606  1.0434 -2.0990
  142OSM   H16G15659   4.831   3.825   5.341 -0.7015  0.4850  1.5529
  142OSM   C17F15660   4.856   4.042   5.311 -0.4028  0.3339  0.8452
  142OSM   H17F15661   4.953   4.059   5.363  0.0679  2.3786 -0.5800
  142OSM   H17G15662   4.801   4.138   5.321  1.7074  1.6011  0.8229
  142OSM   C18F15663   4.903   4.018   5.162  0.0233  0.7760 -0.0073
  142OSM   H18F15664   4.971   3.931   5.148 -2.4777 -1.3053 -0.1101
  142OSM   H18G15665   4.951   4.107   5.116 -0.3353  1.3457  0.7023
  142OSM   H18H15666   4.814   3.998   5.097 -0.0361  1.4119 -0.1263
  143OSM      N15667   2.901   0.330   6.697 -0.2847 -0.6114  0.0105
  143OSM    C1515668   3.038   0.394   6.693 -0.0230  0.6461 -0.0720
  143OSM   H15A15669   3.025   0.499   6.713 -2.6841  0.7793 -1.9838
  143OSM   H15B15670   3.086   0.379   6.598 -0.3744 -0.2628 -0.1117
  143OSM   H15C15671   3.101   0.344   6.765 -1.3648 -1.0513 -0.0158
  143OSM    C1415672   2.853   0.345   6.844 -0.3505 -0.0273 -0.0196
  143OSM   H14A15673   2.859   0.448   6.873  0.6218 -0.5268  1.6978
  143OSM   H14B15674   2.922   0.298   6.912 -0.9397  0.5017  0.9562
  143OSM   H14C15675   2.756   0.303   6.867  0.2710 -1.7721 -0.3777
  143OSM    C1315676   2.806   0.417   6.623 -0.2367  0.4388 -0.0809
  143OSM   H13A15677   2.811   0.517   6.664  4.0514  0.9669 -1.3655
  143OSM   H13B15678   2.704   0.389   6.640  0.2714 -0.7858  1.1378
  143OSM   H13C15679   2.841   0.429   6.521  1.4414  2.3470  0.6542
  143OSM    C1215680   2.913   0.188   6.647  0.2349 -0.2036 -0.6556
  143OSM   H12A15681   2.821   0.135   6.664  0.9576 -0.8887  1.5650
  143OSM   H12B15682   2.984   0.131   6.705  0.6839 -1.1882 -2.1408
  143OSM    C1115683   2.959   0.160   6.498 -0.8314 -0.4718 -0.4359
  143OSM   H11A15684   2.900   0.202   6.414  0.7636 -0.9174 -1.8146
  143OSM   H11B15685   2.947   0.051   6.478  0.9300 -1.0639  1.4020
  143OSM      P15686   3.198   0.100   6.495 -0.7188  0.4995 -0.4301
  143OSM    O1315687   3.324   0.162   6.446 -0.1194 -0.3114 -0.0458
  143OSM    O1415688   3.187   0.050   6.637  0.5082  0.3604 -0.1264
  143OSM    O1115689   3.154  -0.019   6.396 -0.5627 -0.3738 -0.2419
  143OSM    O1215690   3.089   0.210   6.469 -0.2287  0.2140 -0.2685
  143OSM    C1S15691   3.140  -0.019   6.252 -0.3766  0.2529 -0.5089
  143OSM    H1S15692   3.215   0.045   6.201 -0.7086 -1.1576 -2.9098
  143OSM    H1T15693   3.039   0.018   6.222 -0.4846 -0.4215 -0.9934
  143OSM     NF15694   3.151  -0.165   6.059 -0.0642 -0.2198  0.1332
  143OSM    HNF15695   3.065  -0.183   6.011 -1.0716  1.3889  1.2084
  143OSM    C2S15696   3.150  -0.166   6.203 -0.3026 -0.7037  0.3036
  143OSM    H2S15697   3.248  -0.203   6.242 -1.0372 -1.8910  1.0843
  143OSM    C3S15698   3.044  -0.255   6.268 -0.6237  0.6584  0.7387
  143OSM    H3S15699   2.946  -0.220   6.231 -0.5461 -2.4205 -3.0200
  143OSM     O315700   3.038  -0.247   6.410  0.2496 -0.0140  0.6971
  143OSM    HO315701   3.095  -0.171   6.425  0.6174  0.0284 -0.7575
  143OSM    C4S15702   3.072  -0.398   6.225  0.2527 -0.4547 -0.0675
  143OSM    H4S15703   3.161  -0.443   6.270  1.3953 -0.1658 -1.9178
  143OSM    C5S15704   2.991  -0.468   6.147 -0.4701 -0.0252  0.4091
  143OSM    H5S15705   2.903  -0.418   6.104  0.7447  1.7415 -0.1432
  143OSM    C6S15706   3.015  -0.612   6.093 -0.1123 -0.1273 -0.1136
  143OSM    H6S15707   2.927  -0.671   6.128 -0.3563  0.2124 -0.1433
  143OSM    H6T15708   3.103  -0.660   6.141 -0.5449  1.0284  1.9577
  143OSM    C7S15709   3.041  -0.614   5.937 -0.7981  0.3093  0.1300
  143OSM    H7S15710   2.945  -0.580   5.893 -1.3515  0.6193  1.5364
  143OSM    H7T15711   3.047  -0.720   5.903  2.5387  0.7954 -1.1754
  143OSM    C8S15712   3.159  -0.547   5.873  0.0760  0.2160 -0.1389
  143OSM    H8S15713   3.247  -0.544   5.940 -0.6334 -0.0105  0.8380
  143OSM    H8T15714   3.139  -0.441   5.844  0.3737  0.5964  1.0054
  143OSM    C9S15715   3.203  -0.611   5.745 -0.3874 -0.0048 -0.0106
  143OSM    H9S15716   3.231  -0.716   5.769  1.9370  0.7663  1.0039
  143OSM    H9T15717   3.301  -0.566   5.717  1.2422 -2.1311  1.8397
  143OSM   C10S15718   3.102  -0.591   5.626  0.4796  0.1150  0.6307
  143OSM   H10S15719   3.076  -0.483   5.624 -0.4329 -0.0598  1.6972
  143OSM   H10T15720   3.020  -0.661   5.653  0.1152  0.7198  1.1443
  143OSM   C11S15721   3.159  -0.634   5.492  0.1637  0.4365  0.4517
  143OSM   H11S15722   3.183  -0.742   5.501 -0.9762  0.0896 -0.4595
  143OSM   H11T15723   3.248  -0.569   5.477 -0.5379  2.5621  4.3010
  143OSM   C12S15724   3.062  -0.593   5.379 -0.0022  0.2419  0.0513
  143OSM   H12S15725   3.048  -0.482   5.375 -4.5364 -0.1766 -1.5069
  143OSM   H12T15726   2.962  -0.640   5.388  0.0810 -0.4466 -2.0326
  143OSM   C13S15727   3.110  -0.630   5.235 -1.0441  0.4076 -0.3311
  143OSM   H13S15728   3.150  -0.733   5.220 -0.2209  0.2024  2.6414
  143OSM   H13T15729   3.199  -0.567   5.211  0.2221 -1.4749 -0.8390
  143OSM   C14S15730   3.006  -0.615   5.128  0.0704 -0.5011  0.6055
  143OSM   H14S15731   2.964  -0.513   5.142 -1.2325 -0.2743 -3.6557
  143OSM   H14T15732   2.918  -0.680   5.149  0.6954 -0.8387  2.3541
  143OSM   C15S15733   3.046  -0.636   4.983 -0.1075 -0.3009 -0.1585
  143OSM   H15S15734   3.117  -0.720   4.968  0.4945  0.3193 -0.8738
  143OSM   H15T15735   3.104  -0.546   4.955  1.3483 -1.7281 -1.9643
  143OSM   C16S15736   2.932  -0.657   4.886  0.6137  0.7588 -0.1578
  143OSM   H16S15737   2.853  -0.580   4.892 -1.1046 -0.9233 -0.0955
  143OSM   H16T15738   2.886  -0.755   4.910  2.9037 -0.8920 -2.0039
  143OSM   C17S15739   2.979  -0.671   4.743  1.1263 -0.0673 -0.5653
  143OSM   H17S15740   3.067  -0.738   4.732  2.2615  0.9505  1.6059
  143OSM   H17T15741   3.005  -0.565   4.722 -0.4255  0.2295 -1.0709
  143OSM   C18S15742   2.873  -0.710   4.645 -0.1434  0.4388  0.2945
  143OSM   H18S15743   2.897  -0.699   4.537 -1.7700 -1.4045 -0.3139
  143OSM   H18T15744   2.784  -0.644   4.662 -0.6473 -0.2775  0.4962
  143OSM   H18U15745   2.840  -0.815   4.661 -0.7023  0.3412 -1.2980
  143OSM    C1F15746   3.246  -0.112   5.990 -0.7161 -0.0285  0.0903
  143OSM     OF15747   3.338  -0.050   6.036 -0.3622 -0.3300  0.0444
  143OSM    C2F15748   3.245  -0.137   5.838 -0.2004 -0.1143  0.0178
  143OSM    H2F15749   3.168  -0.067   5.799 -0.8843 -0.9449 -0.1682
  143OSM    H2G15750   3.208  -0.241   5.826 -0.3375 -0.1038  0.3551
  143OSM    C3F15751   3.376  -0.128   5.756 -0.1919  0.2958  0.4616
  143OSM    H3F15752   3.452  -0.197   5.799  1.1634  1.3008 -0.2575
  143OSM    H3G15753   3.415  -0.025   5.772  0.1277  0.2978 -0.3207
  143OSM    C4F15754   3.347  -0.145   5.604  0.2582 -0.0131 -0.0332
  143OSM    H4F15755   3.270  -0.072   5.570 -0.6015 -0.7273  0.3412
  143OSM    H4G15756   3.299  -0.244   5.592 -1.5686  0.8233 -0.0206
  143OSM    C5F15757   3.468  -0.155   5.513  0.6523 -0.1585  0.3034
  143OSM    H5F15758   3.520  -0.249   5.538  0.3296 -0.0756  1.3055
  143OSM    H5G15759   3.538  -0.068   5.519  0.3885 -0.0407  2.4437
  143OSM    C6F15760   3.425  -0.172   5.368  0.4439  0.9061 -0.8438
  143OSM    H6F15761   3.522  -0.190   5.318  1.3417  0.0814  1.0967
  143OSM    H6G15762   3.383  -0.075   5.333  0.2386  1.6373  1.2860
  143OSM    C7F15763   3.331  -0.286   5.334 -0.0811  0.4863 -0.2116
  143OSM    H7F15764   3.240  -0.291   5.398 -0.6035 -0.9277 -1.0280
  143OSM    H7G15765   3.388  -0.377   5.362 -2.0917 -0.9352 -0.4970
  143OSM    C8F15766   3.299  -0.288   5.183 -0.0406 -0.1090  0.4885
  143OSM    H8F15767   3.241  -0.380   5.160  0.3219 -1.0674  3.0179
  143OSM    H8G15768   3.391  -0.288   5.120 -1.9665 -0.4860 -2.5200
  143OSM    C9F15769   3.211  -0.171   5.149 -0.2009 -0.9296  0.0704
  143OSM    H9F15770   3.152  -0.127   5.230 -1.0885 -2.0323  0.0451
  143OSM   C10F15771   3.192  -0.119   5.027 -0.1407  0.3029 -0.3262
  143OSM   H10F15772   3.126  -0.032   5.018 -1.5849 -0.7593 -0.3595
  143OSM   C11F15773   3.266  -0.151   4.899 -0.2094 -0.2599 -0.1334
  143OSM   H11F15774   3.354  -0.217   4.917  0.1886  0.7887  2.1655
  143OSM   H11G15775   3.304  -0.058   4.852 -1.8285  0.2830 -0.4349
  143OSM   C12F15776   3.161  -0.225   4.809 -0.8511  0.3435  0.4274
  143OSM   H12F15777   3.080  -0.156   4.776 -0.3643  0.7619  0.0819
  143OSM   H12G15778   3.113  -0.314   4.855  0.2918 -0.1191  0.7624
  143OSM   C13F15779   3.226  -0.254   4.677 -1.6879 -0.5426 -0.3576
  143OSM   H13F15780   3.283  -0.350   4.679 -1.5133 -0.4327  0.3202
  143OSM   H13G15781   3.281  -0.164   4.641 -0.6387 -1.8494 -2.1732
  143OSM   C14F15782   3.123  -0.287   4.567 -0.0153  0.2682  0.2486
  143OSM   H14F15783   3.043  -0.210   4.561  1.0800  1.4842  0.8654
  143OSM   H14G15784   3.062  -0.376   4.592  0.9330 -1.1328 -2.1207
  143OSM   C15F15785   3.197  -0.305   4.430  0.2229 -1.0517  0.1372
  143OSM   H15F15786   3.252  -0.401   4.442  0.7175 -0.6480  1.2164
  143OSM   H15G15787   3.269  -0.221   4.433  0.6679 -1.4083 -0.3506
  143OSM   C16F15788   3.100  -0.305   4.315  0.1636  0.1742 -0.2114
  143OSM   H16F15789   3.012  -0.243   4.344  0.6630  1.8044 -1.9082
  143OSM   H16G15790   3.068  -0.411   4.307 -0.7212  0.4069  0.0541
  143OSM   C17F15791   3.165  -0.265   4.181 -0.5211 -0.7876 -0.0645
  143OSM   H17F15792   3.097  -0.260   4.093 -2.5250  1.1573  1.4757
  143OSM   H17G15793   3.247  -0.338   4.166  2.2579  2.4104 -1.7642
  143OSM   C18F15794   3.237  -0.125   4.176 -0.0726  0.0207 -0.1641
  143OSM   H18F15795   3.237  -0.077   4.276  3.5485  0.3468 -0.1925
  143OSM   H18G15796   3.187  -0.061   4.101  2.2196  0.1748 -1.6465
  143OSM   H18H15797   3.339  -0.128   4.133 -0.9869  0.2195 -2.4999
  144OSM      N15798   0.701   5.694   7.243 -0.0093 -0.5033  0.3572
  144OSM    C1515799   0.610   5.791   7.302 -0.0997  0.0192  0.2414
  144OSM   H15A15800   0.510   5.752   7.288 -0.5608  0.6116  1.6836
  144OSM   H15B15801   0.603   5.887   7.252 -4.4987 -0.3169 -0.1769
  144OSM   H15C15802   0.626   5.809   7.407 -0.6586  0.6784  0.2256
  144OSM    C1415803   0.847   5.725   7.266 -0.0098  0.7898  0.3909
  144OSM   H14A15804   0.862   5.822   7.221 -1.5995  1.1987  0.6576
  144OSM   H14B15805   0.912   5.653   7.221  0.4386  0.1594  1.9815
  144OSM   H14C15806   0.873   5.731   7.371  1.6830 -1.7369  0.1864
  144OSM    C1315807   0.687   5.561   7.309 -0.3854  0.0086  0.1603
  144OSM   H13A15808   0.590   5.516   7.297 -0.4726  0.3385 -0.4283
  144OSM   H13B15809   0.693   5.561   7.417 -0.5836  1.4865  0.1934
  144OSM   H13C15810   0.753   5.481   7.279 -1.2397 -0.7767  0.3561
  144OSM    C1215811   0.675   5.676   7.092  0.2143  0.3834  0.7337
  144OSM   H12A15812   0.574   5.639   7.084  0.5281 -0.5994  1.1604
  144OSM   H12B15813   0.734   5.598   7.047  0.2688  1.2145 -0.7167
  144OSM    C1115814   0.677   5.805   7.012 -0.5491  0.3916  0.4104
  144OSM   H11A15815   0.685   5.769   6.907 -2.2856 -4.4588  1.6608
  144OSM   H11B15816   0.775   5.851   7.036  0.1971 -0.6136 -0.5958
  144OSM      P15817   0.425   5.848   6.964 -0.6908 -0.2256 -0.4503
  144OSM    O1315818   0.395   5.704   6.999 -0.6136 -0.2285 -0.0406
  144OSM    O1415819   0.315   5.943   6.995 -0.2226  0.0107  0.1955
  144OSM    O1115820   0.453   5.847   6.816 -0.1757 -0.2706 -0.0545
  144OSM    O1215821   0.558   5.891   7.031 -0.7326 -0.0188 -0.9312
  144OSM    C1S15822   0.519   5.958   6.747  0.4177  0.3300  0.0487
  144OSM    H1S15823   0.629   5.953   6.760  0.2990 -1.8710  0.7183
  144OSM    H1T15824   0.479   6.057   6.777 -1.7410 -0.1351 -1.0705
  144OSM     NF15825   0.532   6.081   6.535  0.4074 -0.2042  0.3861
  144OSM    HNF15826   0.462   6.138   6.493 -0.5919 -1.5736  0.1099
  144OSM    C2S15827   0.487   5.954   6.588 -0.8542  0.3144 -0.4662
  144OSM    H2S15828   0.544   5.869   6.544 -1.3689  0.2019 -0.9256
  144OSM    C3S15829   0.339   5.936   6.550 -0.2437  0.4460 -0.0692
  144OSM    H3S15830   0.284   6.032   6.561  2.7635  2.4629 -1.2139
  144OSM     O315831   0.263   5.840   6.624 -0.2308 -0.8430 -0.3976
  144OSM    HO315832   0.317   5.826   6.703 -0.2790 -1.0232 -0.3971
  144OSM    C4S15833   0.334   5.919   6.403  0.2277 -0.6468  0.8183
  144OSM    H4S15834   0.316   6.016   6.353  0.4446  0.3950  2.6748
  144OSM    C5S15835   0.369   5.812   6.335 -0.4598 -1.3211  0.6778
  144OSM    H5S15836   0.402   5.720   6.387 -0.4918 -0.8680  1.5225
  144OSM    C6S15837   0.381   5.794   6.186 -0.3445 -0.1821 -0.0849
  144OSM    H6S15838   0.312   5.711   6.158  2.0632 -2.2428 -0.2789
  144OSM    H6T15839   0.479   5.754   6.153 -0.9969 -1.6449 -0.3052
  144OSM    C7S15840   0.346   5.916   6.102  0.3399  0.0139 -0.1624
  144OSM    H7S15841   0.420   5.998   6.116  1.8095 -1.1975 -0.5722
  144OSM    H7T15842   0.242   5.951   6.118  0.4593  1.7153 -2.5721
  144OSM    C8S15843   0.351   5.898   5.951 -1.1619  0.1175  0.2108
  144OSM    H8S15844   0.409   5.804   5.945 -1.7565 -0.1872 -1.2299
  144OSM    H8T15845   0.404   5.974   5.890 -1.2919 -1.5567 -2.1021
  144OSM    C9S15846   0.214   5.861   5.893  1.1324  0.0318 -0.5612
  144OSM    H9S15847   0.152   5.954   5.891  1.1222  0.0731  0.8616
  144OSM    H9T15848   0.171   5.794   5.970  3.2601 -0.2679  0.4335
  144OSM   C10S15849   0.208   5.798   5.751 -0.0086  0.3514  0.4074
  144OSM   H10S15850   0.271   5.848   5.674 -1.2184  1.6906  0.2375
  144OSM   H10T15851   0.102   5.802   5.718 -0.4672  0.9774  1.9029
  144OSM   C11S15852   0.261   5.656   5.753 -0.1295 -0.2717  0.6690
  144OSM   H11S15853   0.202   5.601   5.829 -2.7844 -0.2987 -1.2800
  144OSM   H11T15854   0.369   5.657   5.779  0.1149  0.6805 -0.2688
  144OSM   C12S15855   0.260   5.592   5.615  0.2393 -0.2078 -0.6570
  144OSM   H12S15856   0.340   5.515   5.613 -0.0778 -0.5929  0.4982
  144OSM   H12T15857   0.297   5.665   5.540  1.1428 -0.8105 -0.8180
  144OSM   C13S15858   0.134   5.513   5.569  0.6724  0.3736 -0.0954
  144OSM   H13S15859   0.050   5.584   5.554  0.6640  0.4727  0.3879
  144OSM   H13T15860   0.106   5.442   5.650 -0.8732  2.2879  1.1588
  144OSM   C14S15861   0.154   5.438   5.437 -1.1018 -0.0684 -0.5161
  144OSM   H14S15862   0.260   5.405   5.444 -1.2362 -0.2252  2.0807
  144OSM   H14T15863   0.147   5.509   5.352  3.1486  0.3416 -0.7640
  144OSM   C15S15864   0.071   5.313   5.421  0.0487  0.2943  0.2145
  144OSM   H15S15865  -0.039   5.329   5.431 -0.2170  0.6730 -2.5142
  144OSM   H15T15866   0.081   5.258   5.517 -0.4154  0.2345  0.2323
  144OSM   C16S15867   0.103   5.233   5.299  0.4851  0.0602 -0.2457
  144OSM   H16S15868   0.057   5.133   5.311 -0.7785  0.3254 -2.4931
  144OSM   H16T15869   0.214   5.220   5.291  0.3864 -0.7751 -0.3983
  144OSM   C17S15870   0.028   5.298   5.185 -0.8110  0.5508 -0.6067
  144OSM   H17S15871   0.068   5.401   5.174  2.0907 -0.5448 -1.1020
  144OSM   H17T15872  -0.077   5.304   5.220 -0.6045 -0.0463  0.1446
  144OSM   C18S15873   0.042   5.212   5.063 -0.0027  0.5671 -0.0309
  144OSM   H18S15874   0.007   5.108   5.083 -0.6071  0.8236  0.2535
  144OSM   H18T15875   0.151   5.198   5.047  0.1112  1.2603  0.1206
  144OSM   H18U15876   0.006   5.254   4.967  1.5829  2.5585  0.1876
  144OSM    C1F15877   0.659   6.114   6.518 -0.1909  0.6531 -0.5797
  144OSM     OF15878   0.748   6.048   6.568  0.2515  0.2019  0.6122
  144OSM    C2F15879   0.681   6.232   6.427 -0.1069 -0.2268  0.3765
  144OSM    H2F15880   0.724   6.315   6.488  2.2873 -0.1390 -1.3169
  144OSM    H2G15881   0.584   6.277   6.396  1.2024  0.9279 -2.2893
  144OSM    C3F15882   0.771   6.202   6.310 -0.3747  0.6925  1.0077
  144OSM    H3F15883   0.869   6.159   6.343 -0.8896 -0.1737  1.4468
  144OSM    H3G15884   0.787   6.288   6.242 -1.5438  0.3025  0.2131
  144OSM    C4F15885   0.702   6.100   6.212  0.4377  0.2602 -0.3644
  144OSM    H4F15886   0.606   6.136   6.169 -1.3550 -2.6137  0.9300
  144OSM    H4G15887   0.678   6.013   6.278  0.7671  0.5371  0.1251
  144OSM    C5F15888   0.790   6.050   6.097 -0.6015  0.0715  0.1753
  144OSM    H5F15889   0.864   5.977   6.136 -1.4493 -0.7220  0.3318
  144OSM    H5G15890   0.838   6.136   6.046 -0.4188  0.4597  1.0021
  144OSM    C6F15891   0.709   5.983   5.980  0.0891  0.0210 -0.2637
  144OSM    H6F15892   0.641   6.060   5.937 -0.5524 -0.3275  0.1032
  144OSM    H6G15893   0.635   5.907   6.013  0.8855  0.0955  1.9019
  144OSM    C7F15894   0.776   5.912   5.868 -0.2159 -0.2372 -0.0484
  144OSM    H7F15895   0.855   5.844   5.905 -0.0929  0.5405  1.1685
  144OSM    H7G15896   0.835   5.982   5.805  0.9630 -0.9155  0.2736
  144OSM    C8F15897   0.681   5.816   5.788  0.1923 -0.1797  0.0009
  144OSM    H8F15898   0.595   5.875   5.750  0.4815  0.7246  0.7081
  144OSM    H8G15899   0.636   5.743   5.859  0.0762  1.8201  2.0960
  144OSM    C9F15900   0.750   5.762   5.658  0.2779  0.4591  0.0360
  144OSM    H9F15901   0.786   5.842   5.592 -0.4064  1.3408  0.7107
  144OSM   C10F15902   0.779   5.632   5.634  0.6717  0.8957  0.1684
  144OSM   H10F15903   0.831   5.605   5.541 -0.1645  0.4384 -0.1763
  144OSM   C11F15904   0.748   5.523   5.724  0.6991  0.2699 -0.6143
  144OSM   H11F15905   0.738   5.560   5.828  3.1011  0.8153 -0.5334
  144OSM   H11G15906   0.835   5.454   5.725  0.5770  0.1016  0.5741
  144OSM   C12F15907   0.628   5.436   5.679 -0.2019 -0.4731 -0.1272
  144OSM   H12F15908   0.530   5.487   5.684 -0.6171 -1.2548 -0.0953
  144OSM   H12G15909   0.626   5.340   5.736 -1.2948 -0.5225 -0.2313
  144OSM   C13F15910   0.651   5.398   5.529 -0.0586  0.1237 -0.0326
  144OSM   H13F15911   0.759   5.382   5.513 -0.0752  1.3194 -1.5844
  144OSM   H13G15912   0.631   5.490   5.469  0.3803  1.6489  2.0443
  144OSM   C14F15913   0.571   5.277   5.480  0.3799 -0.3457  0.5446
  144OSM   H14F15914   0.462   5.284   5.495  0.4058  0.5445  0.3659
  144OSM   H14G15915   0.584   5.184   5.539 -4.4840  0.0703  2.7278
  144OSM   C15F15916   0.597   5.257   5.327 -0.6604 -0.6020  0.4436
  144OSM   H15F15917   0.708   5.253   5.327 -0.6132  0.1745 -0.9995
  144OSM   H15G15918   0.561   5.347   5.274 -0.8479 -0.3157  1.0578
  144OSM   C16F15919   0.540   5.122   5.272  0.1581 -0.4182  0.3040
  144OSM   H16F15920   0.431   5.122   5.291  0.3313  0.1571  1.4021
  144OSM   H16G15921   0.591   5.041   5.329  1.1380  0.4618  0.7188
  144OSM   C17F15922   0.561   5.095   5.120 -0.2333  0.2094  0.5654
  144OSM   H17F15923   0.505   4.999   5.113  1.5256 -1.0148  2.0360
  144OSM   H17G15924   0.666   5.080   5.087  0.1148 -0.2050  1.7879
  144OSM   C18F15925   0.482   5.192   5.034  0.1516  1.0396 -0.2358
  144OSM   H18F15926   0.519   5.197   4.930  0.0330  0.7270 -0.2974
  144OSM   H18G15927   0.464   5.292   5.078 -1.8475  1.1595 -1.2008
  144OSM   H18H15928   0.383   5.140   5.028  1.6100 -2.2674  1.3344
  145OSM      N15929   5.507   0.072   6.647 -0.5884 -0.4452  0.2740
  145OSM    C1515930   5.466   0.154   6.529  0.1122  0.1832  0.5173
  145OSM   H15A15931   5.370   0.124   6.490  1.7934 -1.4366 -2.7672
  145OSM   H15B15932   5.531   0.132   6.446  1.7889 -0.4260  1.9202
  145OSM   H15C15933   5.465   0.261   6.543  0.8433  0.5315 -1.7649
  145OSM    C1415934   5.645   0.120   6.693  0.2724 -0.1595  0.1945
  145OSM   H14A15935   5.647   0.225   6.718  1.8245  0.1231 -0.9518
  145OSM   H14B15936   5.725   0.088   6.629  0.9720  2.6662 -0.4720
  145OSM   H14C15937   5.654   0.071   6.789 -1.6443  0.0701  0.5291
  145OSM    C1315938   5.409   0.104   6.754  1.3025 -0.0573  0.0063
  145OSM   H13A15939   5.393   0.210   6.767 -0.1811  0.2347 -3.2014
  145OSM   H13B15940   5.411   0.060   6.853 -0.4468  1.5629  0.8326
  145OSM   H13C15941   5.311   0.072   6.721  0.5920  1.3768  0.6332
  145OSM    C1215942   5.508  -0.083   6.625 -0.1254  0.3502  0.1985
  145OSM   H12A15943   5.548  -0.122   6.717  2.8893 -2.4759 -2.0878
  145OSM   H12B15944   5.585  -0.107   6.552  0.7986  2.2728  0.4744
  145OSM    C1115945   5.376  -0.167   6.582  0.5296  0.3489 -0.4741
  145OSM   H11A15946   5.408  -0.270   6.555  2.5371  0.5129  1.0489
  145OSM   H11B15947   5.341  -0.119   6.488 -3.0695 -3.0477 -1.1173
  145OSM      P15948   5.124  -0.129   6.654  0.1396  0.2713  0.3133
  145OSM    O1315949   5.053  -0.217   6.747  0.2032 -0.0779 -0.6924
  145OSM    O1415950   5.101   0.015   6.669  0.7332 -0.0763 -0.2235
  145OSM    O1115951   5.104  -0.179   6.506  0.6238 -0.4792 -0.2311
  145OSM    O1215952   5.278  -0.155   6.686  0.1692  0.0084  0.5670
  145OSM    C1S15953   5.002  -0.113   6.422 -0.2598  0.6907 -0.1891
  145OSM    H1S15954   5.004  -0.002   6.426 -0.2007  0.6630  2.6686
  145OSM    H1T15955   4.898  -0.135   6.453 -0.0506  2.1481  1.8133
  145OSM     NF15956   4.910  -0.117   6.196 -0.4193 -0.0528  0.0593
  145OSM    HNF15957   4.839  -0.171   6.153  0.0288  1.1250 -2.3251
  145OSM    C2S15958   5.007  -0.178   6.281 -0.2561  0.1426 -0.1009
  145OSM    H2S15959   5.108  -0.156   6.240 -1.2880  3.4368 -1.1022
  145OSM    C3S15960   4.991  -0.333   6.301  0.0605  0.3206 -0.1080
  145OSM    H3S15961   4.883  -0.346   6.323  0.1990 -0.4134  0.2037
  145OSM     O315962   5.078  -0.400   6.395 -0.8598  0.2495 -0.8282
  145OSM    HO315963   5.111  -0.330   6.452  0.2574 -2.0896  1.5896
  145OSM    C4S15964   4.988  -0.408   6.165 -0.3941 -1.0456  0.0167
  145OSM    H4S15965   5.061  -0.379   6.087 -0.1449  0.5752  0.8180
  145OSM    C5S15966   4.908  -0.512   6.135  0.0123 -0.3921  0.4457
  145OSM    H5S15967   4.849  -0.560   6.214 -0.7874  0.9391  0.6677
  145OSM    C6S15968   4.888  -0.582   6.002  0.3057  0.3951  0.3328
  145OSM    H6S15969   4.780  -0.574   5.979  0.4589  2.9102  0.2813
  145OSM    H6T15970   4.912  -0.691   6.005  1.7193  0.5915 -1.5769
  145OSM    C7S15971   4.974  -0.516   5.889  0.8290  0.0165  0.9391
  145OSM    H7S15972   5.085  -0.521   5.892  0.8484  0.5129  1.0825
  145OSM    H7T15973   4.939  -0.410   5.890 -1.3224 -0.6337  2.6358
  145OSM    C8S15974   4.930  -0.574   5.754  0.2385 -0.6733 -0.3614
  145OSM    H8S15975   4.820  -0.591   5.753 -0.0286  0.9318 -1.1042
  145OSM    H8T15976   4.966  -0.678   5.739 -1.0429 -0.7611 -3.9773
  145OSM    C9S15977   4.987  -0.498   5.625  0.2964 -0.3498  0.2005
  145OSM    H9S15978   5.098  -0.503   5.630  0.3815  0.5476 -0.5649
  145OSM    H9T15979   4.971  -0.388   5.631  1.6925 -0.1711  1.2132
  145OSM   C10S15980   4.936  -0.572   5.500 -0.3424  0.4283  0.3726
  145OSM   H10S15981   4.983  -0.672   5.512 -0.9853  0.1692  0.7523
  145OSM   H10T15982   4.990  -0.525   5.415 -0.2947 -3.3093 -1.8458
  145OSM   C11S15983   4.786  -0.569   5.480 -0.0056 -0.2562 -0.1542
  145OSM   H11S15984   4.748  -0.464   5.476  2.1335  0.5858  0.1262
  145OSM   H11T15985   4.739  -0.604   5.574  1.0488 -2.7479 -0.4892
  145OSM   C12S15986   4.734  -0.650   5.363 -0.1440 -0.2606 -0.3728
  145OSM   H12S15987   4.625  -0.654   5.380  0.1315 -1.4700  1.4126
  145OSM   H12T15988   4.785  -0.749   5.362  2.4655  0.9723  0.6262
  145OSM   C13S15989   4.749  -0.578   5.226 -0.6462  1.2290 -0.2375
  145OSM   H13S15990   4.857  -0.554   5.211  0.4407 -1.6672  1.9721
  145OSM   H13T15991   4.679  -0.492   5.223 -0.8062  1.0837 -0.9293
  145OSM   C14S15992   4.702  -0.671   5.112 -0.1099 -0.8277  0.5923
  145OSM   H14S15993   4.604  -0.720   5.130 -0.1075 -1.9919 -2.1352
  145OSM   H14T15994   4.767  -0.760   5.103 -0.1406 -0.8305  0.3857
  145OSM   C15S15995   4.687  -0.597   4.972  0.4635 -0.2500  0.1065
  145OSM   H15S15996   4.786  -0.566   4.931  0.3679  0.5947  0.5028
  145OSM   H15T15997   4.621  -0.510   4.991 -0.3948 -0.8949  0.1351
  145OSM   C16S15998   4.626  -0.676   4.854  0.7434  0.2721 -0.3660
  145OSM   H16S15999   4.525  -0.692   4.898  1.6270  0.8270  2.0365
  145OSM   H16T16000   4.666  -0.778   4.837 -2.3003 -0.9491 -0.7988
  145OSM   C17S16001   4.641  -0.605   4.720 -0.7030  0.4725 -0.0148
  145OSM   H17S16002   4.641  -0.495   4.737 -1.8459  0.4976 -0.0463
  145OSM   H17T16003   4.560  -0.627   4.647 -2.0099 -3.1386  2.2683
  145OSM   C18S16004   4.773  -0.655   4.655 -0.6809 -0.3405 -0.3558
  145OSM   H18S16005   4.780  -0.626   4.548  1.9229 -1.6381 -0.6038
  145OSM   H18T16006   4.776  -0.766   4.653 -0.1575 -0.3356 -2.5011
  145OSM   H18U16007   4.855  -0.608   4.713 -0.4553 -0.7394 -0.3436
  145OSM    C1F16008   4.907   0.013   6.163 -0.7171 -0.0615 -0.0624
  145OSM     OF16009   4.985   0.097   6.198  0.1680  0.0067  0.2505
  145OSM    C2F16010   4.793   0.055   6.073 -0.4194  0.1800 -0.1218
  145OSM    H2F16011   4.703   0.048   6.138 -0.4159  1.0688 -0.0065
  145OSM    H2G16012   4.794  -0.024   5.996  0.2555  1.4566 -1.4834
  145OSM    C3F16013   4.802   0.192   6.005  0.5379 -0.4925 -0.4485
  145OSM    H3F16014   4.890   0.191   5.938 -1.0448 -0.2777 -2.6182
  145OSM    H3G16015   4.807   0.278   6.075 -4.8625  0.8972 -1.2855
  145OSM    C4F16016   4.683   0.240   5.920  0.2358  0.8178 -0.5079
  145OSM    H4F16017   4.708   0.332   5.862 -0.5359 -0.2345 -2.6412
  145OSM    H4G16018   4.607   0.269   5.996 -0.6362 -1.8286 -0.2717
  145OSM    C5F16019   4.611   0.136   5.832  0.5247 -0.2824 -0.4652
  145OSM    H5F16020   4.578   0.040   5.877  0.4718  0.5132  1.2389
  145OSM    H5G16021   4.696   0.113   5.764  0.3909 -0.6087 -0.5255
  145OSM    C6F16022   4.497   0.203   5.757  0.5416  1.0911  0.5264
  145OSM    H6F16023   4.525   0.292   5.697 -1.2402  0.2205 -1.7675
  145OSM    H6G16024   4.416   0.229   5.828 -0.1649 -0.8094  0.4695
  145OSM    C7F16025   4.444   0.103   5.655  0.8145  0.2945 -0.0851
  145OSM    H7F16026   4.417   0.009   5.707  2.4037 -0.5922 -0.7837
  145OSM    H7G16027   4.530   0.080   5.588 -1.5759 -3.2756 -2.2764
  145OSM    C8F16028   4.332   0.161   5.564 -0.6382  0.0065  0.3846
  145OSM    H8F16029   4.367   0.259   5.524 -1.1827  1.1611  2.5580
  145OSM    H8G16030   4.242   0.186   5.623  0.8552 -0.6617  3.1319
  145OSM    C9F16031   4.294   0.064   5.457  0.3490 -0.1882 -0.2809
  145OSM    H9F16032   4.266  -0.035   5.496 -0.1931 -0.7915 -2.0881
  145OSM   C10F16033   4.301   0.071   5.322 -0.9794 -0.0566  0.5080
  145OSM   H10F16034   4.273  -0.017   5.262  0.7213 -0.8366  0.7852
  145OSM   C11F16035   4.353   0.189   5.244  0.6634  0.5064 -0.0789
  145OSM   H11F16036   4.461   0.180   5.220  0.5813  0.9532 -0.6516
  145OSM   H11G16037   4.347   0.282   5.305  0.6659 -0.9035  2.2087
  145OSM   C12F16038   4.273   0.220   5.114 -0.2787 -0.7671  0.0920
  145OSM   H12F16039   4.273   0.326   5.080 -0.3388 -1.5350 -2.5155
  145OSM   H12G16040   4.166   0.196   5.128 -0.5135 -1.1027 -2.0304
  145OSM   C13F16041   4.327   0.162   4.984  0.0532 -0.2244  0.2915
  145OSM   H13F16042   4.423   0.209   4.952 -0.2352 -0.1877 -0.5385
  145OSM   H13G16043   4.241   0.190   4.919  0.0384  1.8861  1.1594
  145OSM   C14F16044   4.336   0.006   4.987 -0.2192 -0.3531 -0.0819
  145OSM   H14F16045   4.232  -0.033   4.993 -0.3147  0.0226  0.7894
  145OSM   H14G16046   4.393  -0.023   5.078  0.2926 -1.6810 -0.7976
  145OSM   C15F16047   4.401  -0.055   4.858  0.2343  0.1574 -0.2236
  145OSM   H15F16048   4.504  -0.021   4.838  0.9739 -0.8696  1.6195
  145OSM   H15G16049   4.332  -0.011   4.782 -0.6394  0.0684  0.4930
  145OSM   C16F16050   4.390  -0.206   4.845  0.2265  0.2529 -1.0748
  145OSM   H16F16051   4.287  -0.233   4.878  0.1521  0.8253 -0.8324
  145OSM   H16G16052   4.460  -0.254   4.917  1.0402  0.8738 -1.4425
  145OSM   C17F16053   4.425  -0.262   4.708  0.1874  0.3834  0.6654
  145OSM   H17F16054   4.533  -0.282   4.694  0.2814  1.5753 -0.4946
  145OSM   H17G16055   4.377  -0.203   4.628 -0.1243 -0.3177  0.3200
  145OSM   C18F16056   4.368  -0.402   4.699  0.7004  0.0536 -0.2846
  145OSM   H18F16057   4.259  -0.386   4.685  0.9030  0.9812 -0.8586
  145OSM   H18G16058   4.389  -0.456   4.794  1.0416  1.5497  0.5134
  145OSM   H18H16059   4.402  -0.452   4.605  2.9929  1.3002 -0.1989
  146OSM      N16060   2.562   1.865   6.982  0.0090 -0.2923  0.6564
  146OSM    C1516061   2.435   1.806   7.023  0.2192  1.0719  0.6646
  146OSM   H15A16062   2.416   1.715   6.968  0.0247  0.6933  1.3388
  146OSM   H15B16063   2.343   1.861   7.006  0.5089  1.1023 -0.9145
  146OSM   H15C16064   2.448   1.767   7.123  2.8302 -2.1746 -0.7163
  146OSM    C1416065   2.582   2.000   7.051 -0.1163  0.5119 -0.8521
  146OSM   H14A16066   2.682   2.035   7.029  1.5690 -0.8582  3.6357
  146OSM   H14B16067   2.580   1.983   7.157 -0.7476  0.2600 -0.9030
  146OSM   H14C16068   2.508   2.075   7.028 -1.2287  0.1087  1.1661
  146OSM    C1316069   2.673   1.773   7.023  0.4086  0.1013 -0.6140
  146OSM   H13A16070   2.764   1.814   6.980  1.6454 -1.0785  0.7639
  146OSM   H13B16071   2.664   1.681   6.966  0.4051  0.5333 -1.3270
  146OSM   H13C16072   2.684   1.741   7.125  0.0557  0.4810 -0.4574
  146OSM    C1216073   2.557   1.886   6.826 -0.1407  0.3496  0.0260
  146OSM   H12A16074   2.487   1.967   6.817  1.0679  1.2877 -1.6453
  146OSM   H12B16075   2.517   1.801   6.773  0.8193  0.0797 -0.2984
  146OSM    C1116076   2.690   1.938   6.758  0.9563  0.2405  0.6798
  146OSM   H11A16077   2.663   1.973   6.657 -0.9286 -0.2331  0.9830
  146OSM   H11B16078   2.748   1.844   6.747 -0.9975 -0.7572 -2.2638
  146OSM      P16079   2.917   2.018   6.836  0.0432  0.1639 -0.2243
  146OSM    O1316080   2.979   2.125   6.915 -0.3421 -0.0558 -0.2282
  146OSM    O1416081   2.937   1.882   6.890  0.6334  0.0123 -0.4325
  146OSM    O1116082   2.956   2.029   6.683 -0.3739  0.1421  0.2684
  146OSM    O1216083   2.761   2.038   6.830 -0.7145 -0.5158 -0.7626
  146OSM    C1S16084   3.000   1.917   6.615  0.2539  0.5183 -0.0249
  146OSM    H1S16085   2.977   1.818   6.660 -0.4485 -0.1176 -1.7024
  146OSM    H1T16086   3.110   1.923   6.598  0.4120  1.0749  1.0715
  146OSM     NF16087   2.980   1.788   6.414 -0.1393 -0.7614  0.2612
  146OSM    HNF16088   3.067   1.767   6.370 -0.7361 -2.9191 -0.0464
  146OSM    C2S16089   2.942   1.917   6.467 -0.6253  0.5328  0.0220
  146OSM    H2S16090   2.831   1.927   6.471 -0.6493  2.8269 -2.7767
  146OSM    C3S16091   2.999   2.037   6.391 -0.1092  0.1499 -0.2882
  146OSM    H3S16092   3.106   2.021   6.368 -0.6601 -1.8222 -1.9308
  146OSM     O316093   2.986   2.166   6.454  0.3442  0.7767  0.3636
  146OSM    HO316094   2.946   2.148   6.539  0.5849  1.3867  0.6118
  146OSM    C4S16095   2.937   2.050   6.249  0.3220 -0.0131  0.8451
  146OSM    H4S16096   2.997   2.012   6.166 -0.7152  2.2696 -1.0964
  146OSM    C5S16097   2.812   2.092   6.224 -1.1317  0.4317 -0.1247
  146OSM    H5S16098   2.752   2.127   6.309 -1.6484 -1.1793  0.2030
  146OSM    C6S16099   2.742   2.103   6.095  0.6699 -0.1656 -0.2561
  146OSM    H6S16100   2.709   2.206   6.069 -0.0425 -0.5481 -0.8961
  146OSM    H6T16101   2.661   2.027   6.108  2.0068 -1.1903  3.2873
  146OSM    C7S16102   2.827   2.050   5.968  0.3188  0.3506 -0.0761
  146OSM    H7S16103   2.858   1.947   5.998 -1.3869  0.4911  2.5396
  146OSM    H7T16104   2.916   2.112   5.949  1.3721 -1.2017 -0.3902
  146OSM    C8S16105   2.745   2.042   5.837  0.4453  0.2874  0.4374
  146OSM    H8S16106   2.701   2.143   5.823 -2.1100 -0.2069  3.7511
  146OSM    H8T16107   2.657   1.975   5.848  0.3954  0.5027  1.4364
  146OSM    C9S16108   2.828   1.989   5.719 -0.7487 -0.3747  0.3387
  146OSM    H9S16109   2.857   1.885   5.744 -0.5871 -0.6060 -0.7328
  146OSM    H9T16110   2.924   2.041   5.701 -0.9329 -0.6136 -1.5684
  146OSM   C10S16111   2.747   1.971   5.584  0.1548 -0.1241  0.0359
  146OSM   H10S16112   2.698   2.068   5.562  2.5053  1.2981  0.6583
  146OSM   H10T16113   2.661   1.906   5.612 -0.6439  0.4127 -1.1137
  146OSM   C11S16114   2.817   1.910   5.463 -0.6357 -0.2977 -0.5655
  146OSM   H11S16115   2.752   1.867   5.384 -0.4712 -0.7136 -0.4773
  146OSM   H11T16116   2.876   1.821   5.492  0.7836  0.9709  0.5870
  146OSM   C12S16117   2.906   2.018   5.391 -0.4880 -0.5468  0.3919
  146OSM   H12S16118   2.991   2.046   5.458  0.0987  0.3949 -0.7082
  146OSM   H12T16119   2.848   2.109   5.368  1.4975  0.5499 -0.5392
  146OSM   C13S16120   2.964   1.962   5.260 -0.2297  0.8623  0.1017
  146OSM   H13S16121   2.891   1.909   5.195 -1.6930  2.8471  0.0422
  146OSM   H13T16122   3.037   1.881   5.284  0.0643  1.5214  1.5599
  146OSM   C14S16123   3.051   2.059   5.175 -0.5489 -0.4452  0.7430
  146OSM   H14S16124   3.152   2.076   5.218  0.0247  1.5030 -1.1622
  146OSM   H14T16125   3.006   2.161   5.185  0.1629 -0.0319 -0.1372
  146OSM   C15S16126   3.076   2.005   5.035 -0.1872  0.0127  0.6648
  146OSM   H15S16127   2.981   1.979   4.984  0.4518  1.0316 -1.1101
  146OSM   H15T16128   3.145   1.921   5.014  1.3760  2.0331 -3.3317
  146OSM   C16S16129   3.139   2.115   4.948 -0.1140  0.4515 -0.1659
  146OSM   H16S16130   3.238   2.142   4.988  1.4077 -0.0417 -3.3018
  146OSM   H16T16131   3.084   2.211   4.950  0.6353  0.8741  0.1515
  146OSM   C17S16132   3.146   2.079   4.802 -0.2546 -0.0132 -0.1473
  146OSM   H17S16133   3.053   2.109   4.750 -0.3786 -1.7596 -1.0079
  146OSM   H17T16134   3.163   1.970   4.790  0.8254 -0.1355  1.9916
  146OSM   C18S16135   3.261   2.154   4.726  0.4757  0.1781 -0.4250
  146OSM   H18S16136   3.240   2.261   4.707  1.1687  0.7939  1.9984
  146OSM   H18T16137   3.270   2.100   4.629 -0.9651  0.1244 -0.5426
  146OSM   H18U16138   3.360   2.158   4.777  0.4107 -1.6968 -0.0752
  146OSM    C1F16139   2.893   1.692   6.407 -0.0591 -0.0145  0.2974
  146OSM     OF16140   2.794   1.685   6.483 -0.0329 -0.3044 -0.1029
  146OSM    C2F16141   2.926   1.585   6.310 -0.0788  0.4737 -0.2553
  146OSM    H2F16142   2.924   1.486   6.361  0.0680 -0.1792 -1.4806
  146OSM    H2G16143   3.029   1.595   6.269 -0.5407  0.9502 -1.3449
  146OSM    C3F16144   2.817   1.574   6.194 -0.4406  0.4236  0.1151
  146OSM    H3F16145   2.724   1.555   6.252 -0.6439  1.1423  0.0256
  146OSM    H3G16146   2.843   1.474   6.152 -0.8310 -0.3089  1.5198
  146OSM    C4F16147   2.818   1.685   6.091  0.4871  0.5951 -0.3967
  146OSM    H4F16148   2.856   1.775   6.144  1.5631  1.1942 -2.0799
  146OSM    H4G16149   2.712   1.703   6.060 -0.3553  1.0205  2.4758
  146OSM    C5F16150   2.908   1.659   5.971 -0.0311 -0.7611 -0.0534
  146OSM    H5F16151   3.001   1.607   6.002  0.5432  0.3805  0.2020
  146OSM    H5G16152   2.943   1.758   5.935 -0.3366 -1.1481 -1.4429
  146OSM    C6F16153   2.832   1.593   5.851  0.1288  0.1915  0.2187
  146OSM    H6F16154   2.896   1.575   5.761 -0.9362  0.9921 -0.7301
  146OSM    H6G16155   2.763   1.672   5.816  0.2258 -0.6779 -2.1062
  146OSM    C7F16156   2.757   1.459   5.879 -0.4628  0.0576  0.3571
  146OSM    H7F16157   2.708   1.483   5.975 -1.5287  0.4561 -0.2728
  146OSM    H7G16158   2.834   1.384   5.906 -0.4237  0.5468  1.6639
  146OSM    C8F16159   2.665   1.411   5.767 -0.7164 -0.1603 -0.2691
  146OSM    H8F16160   2.626   1.310   5.794  0.1088 -0.7499 -1.1830
  146OSM    H8G16161   2.714   1.397   5.668  1.3385 -0.2888  0.7079
  146OSM    C9F16162   2.541   1.489   5.730 -0.5503 -0.6641 -0.4363
  146OSM    H9F16163   2.506   1.564   5.803  1.5312 -1.2441  1.2451
  146OSM   C10F16164   2.462   1.461   5.627 -0.9177  0.1559 -0.0888
  146OSM   H10F16165   2.378   1.530   5.613 -0.2050  0.9151 -0.7762
  146OSM   C11F16166   2.466   1.356   5.513 -0.2413  0.1181 -0.4945
  146OSM   H11F16167   2.394   1.273   5.526 -1.5336  1.4033  0.9075
  146OSM   H11G16168   2.557   1.292   5.511 -0.1871  0.1909 -2.6713
  146OSM   C12F16169   2.447   1.423   5.376 -0.3230 -0.1264  0.4531
  146OSM   H12F16170   2.348   1.462   5.347 -0.0749 -0.0940 -0.3649
  146OSM   H12G16171   2.474   1.346   5.300  1.3438  0.0264  0.8510
  146OSM   C13F16172   2.558   1.524   5.340 -0.4428 -0.2482  0.5165
  146OSM   H13F16173   2.657   1.479   5.359  0.5471  1.0691 -1.1954
  146OSM   H13G16174   2.557   1.620   5.396  0.7606 -1.4590  2.7102
  146OSM   C14F16175   2.538   1.560   5.194  0.9587  0.3240  0.0666
  146OSM   H14F16176   2.557   1.459   5.152  1.3698  0.5897 -0.3969
  146OSM   H14G16177   2.437   1.602   5.179  0.8396  0.8990  2.0959
  146OSM   C15F16178   2.641   1.665   5.150 -0.3847 -0.3225 -0.4908
  146OSM   H15F16179   2.742   1.622   5.168 -0.8544 -0.3455  2.6673
  146OSM   H15G16180   2.647   1.751   5.220 -0.2933 -1.4701  0.9778
  146OSM   C16F16181   2.618   1.718   5.010 -0.8612  0.1531 -0.2062
  146OSM   H16F16182   2.514   1.756   5.007 -0.5965  0.8846 -0.4498
  146OSM   H16G16183   2.627   1.629   4.944  4.1049  0.4330 -0.2786
  146OSM   C17F16184   2.724   1.814   4.959  0.1169  0.2612 -0.2221
  146OSM   H17F16185   2.826   1.790   4.995  0.3939  2.3222  0.5485
  146OSM   H17G16186   2.698   1.915   4.999 -2.1765  0.2218 -1.4367
  146OSM   C18F16187   2.711   1.829   4.812 -0.2427  0.1168 -0.1221
  146OSM   H18F16188   2.794   1.895   4.779  0.1554  0.8080  2.0563
  146OSM   H18G16189   2.615   1.871   4.778  0.7392  0.4723 -2.6419
  146OSM   H18H16190   2.733   1.728   4.771 -2.0963 -1.1060  1.6839
  147OSM      N16191   0.617   5.975   2.206 -0.4288 -0.0521 -0.3759
  147OSM    C1516192   0.537   5.974   2.087  0.9536 -0.3999  0.1160
  147OSM   H15A16193   0.522   5.878   2.039 -0.2207  0.3377 -1.0397
  147OSM   H15B16194   0.580   6.030   2.006 -0.4116 -0.8426 -0.9663
  147OSM   H15C16195   0.442   6.023   2.102  1.1987  0.6495 -1.5737
  147OSM    C1416196   0.765   5.937   2.169 -0.4782 -0.0133 -0.8723
  147OSM   H14A16197   0.798   5.972   2.073  0.3715 -2.2127 -1.4446
  147OSM   H14B16198   0.771   5.829   2.177  2.0020  0.1789  3.0850
  147OSM   H14C16199   0.831   5.956   2.253 -3.2650  2.0789  1.0309
  147OSM    C1316200   0.630   6.122   2.247 -0.6650 -0.4276 -0.0977
  147OSM   H13A16201   0.676   6.174   2.165 -2.4480 -1.6165 -1.9625
  147OSM   H13B16202   0.698   6.127   2.331 -2.0248  0.3531  1.0082
  147OSM   H13C16203   0.537   6.168   2.278 -0.5959 -1.2444  1.4009
  147OSM    C1216204   0.556   5.890   2.324  0.4095 -1.1737  1.1222
  147OSM   H12A16205   0.476   5.948   2.367  0.8631 -0.7347  1.3818
  147OSM   H12B16206   0.629   5.903   2.402 -0.3709  3.3368  1.3667
  147OSM    C1116207   0.521   5.748   2.302  0.6036  0.1073 -0.4280
  147OSM   H11A16208   0.444   5.739   2.222 -0.6694  1.2422  0.6031
  147OSM   H11B16209   0.463   5.721   2.393 -0.2862 -0.0476 -1.0300
  147OSM      P16210   0.749   5.637   2.373  0.4660  0.0198 -0.1582
  147OSM    O1316211   0.858   5.582   2.288 -0.5706  0.3409 -0.3875
  147OSM    O1416212   0.780   5.752   2.464  0.7732  0.2599 -0.0442
  147OSM    O1116213   0.695   5.528   2.474  0.4086 -0.2567 -0.3024
  147OSM    O1216214   0.633   5.670   2.278 -0.9661  0.0127 -0.4785
  147OSM    C1S16215   0.784   5.440   2.545  0.1676  0.4907 -0.1976
  147OSM    H1S16216   0.890   5.462   2.517  0.7179 -0.3618  1.1273
  147OSM    H1T16217   0.760   5.333   2.533 -0.3394  0.4486  1.0647
  147OSM     NF16218   0.879   5.373   2.773 -0.0126  0.0985 -0.5905
  147OSM    HNF16219   0.857   5.284   2.813 -1.0672  1.1165  1.2265
  147OSM    C2S16220   0.772   5.448   2.703  0.2793  0.2608  1.3263
  147OSM    H2S16221   0.784   5.556   2.726 -0.5293  0.8441 -0.7904
  147OSM    C3S16222   0.628   5.404   2.742 -0.2209  0.0324  0.1633
  147OSM    H3S16223   0.629   5.295   2.718  0.6879  0.1402 -0.3503
  147OSM     O316224   0.525   5.461   2.667 -0.4121 -0.2209  0.4277
  147OSM    HO316225   0.572   5.495   2.590 -0.9759 -2.5133 -1.0308
  147OSM    C4S16226   0.601   5.416   2.893  0.6839  0.0607 -0.1481
  147OSM    H4S16227   0.630   5.326   2.949 -0.1041  0.5558  1.1131
  147OSM    C5S16228   0.552   5.529   2.956 -0.2302  0.0214 -1.1779
  147OSM    H5S16229   0.522   5.611   2.889  0.7132  1.6490  0.3198
  147OSM    C6S16230   0.525   5.549   3.100 -0.0044  0.4813 -1.2417
  147OSM    H6S16231   0.417   5.572   3.112  0.2898  0.9128  1.1168
  147OSM    H6T16232   0.575   5.635   3.151 -2.6111 -0.1284  2.7910
  147OSM    C7S16233   0.563   5.431   3.194  0.7171  0.6499 -0.3323
  147OSM    H7S16234   0.671   5.409   3.195  0.3864 -1.0999 -0.1422
  147OSM    H7T16235   0.525   5.335   3.151  1.9524  0.7691 -1.7862
  147OSM    C8S16236   0.509   5.433   3.343  0.3138 -0.7049 -0.5568
  147OSM    H8S16237   0.515   5.527   3.401 -2.2118 -0.5758 -0.3923
  147OSM    H8T16238   0.574   5.372   3.409  1.4331 -1.2044 -2.0667
  147OSM    C9S16239   0.356   5.396   3.351 -0.3508 -0.7948 -0.2773
  147OSM    H9S16240   0.345   5.307   3.285  0.7495  0.4592 -2.2382
  147OSM    H9T16241   0.277   5.458   3.304 -1.4159 -1.9281 -0.0504
  147OSM   C10S16242   0.318   5.364   3.498  0.4108  0.5845 -0.1849
  147OSM   H10S16243   0.308   5.461   3.551  1.6330  0.7901 -0.2949
  147OSM   H10T16244   0.396   5.311   3.556  1.8502  2.9780  0.2103
  147OSM   C11S16245   0.183   5.284   3.500  0.4199  1.6348  0.3041
  147OSM   H11S16246   0.214   5.179   3.482 -1.1142  1.4982 -2.0061
  147OSM   H11T16247   0.118   5.319   3.416 -0.6188 -3.0649 -1.1374
  147OSM   C12S16248   0.100   5.307   3.627 -0.9941 -0.5401  0.3724
  147OSM   H12S16249  -0.003   5.267   3.617 -1.7495  1.4420 -0.1478
  147OSM   H12T16250   0.075   5.413   3.648 -1.7662 -0.8166  0.9125
  147OSM   C13S16251   0.166   5.253   3.753  0.1933  0.0580 -0.6458
  147OSM   H13S16252   0.267   5.298   3.771 -0.5427  1.5614 -0.1014
  147OSM   H13T16253   0.199   5.148   3.742  0.8030  0.0515  1.0510
  147OSM   C14S16254   0.075   5.258   3.874  0.0214 -0.0157  0.0188
  147OSM   H14S16255  -0.029   5.238   3.840  0.8858 -0.8707 -2.3411
  147OSM   H14T16256   0.076   5.363   3.909 -1.4527 -0.3225  1.1071
  147OSM   C15S16257   0.123   5.163   3.990  0.5928  0.0736 -0.4343
  147OSM   H15S16258   0.100   5.060   3.954 -1.3284  0.9689 -1.9057
  147OSM   H15T16259   0.055   5.187   4.075 -1.3821 -1.7372 -1.3987
  147OSM   C16S16260   0.270   5.183   4.036 -0.0018 -0.2524 -0.6733
  147OSM   H16S16261   0.279   5.294   4.039  2.1827 -0.1608 -4.3173
  147OSM   H16T16262   0.329   5.130   3.959 -0.3802  0.0881 -1.2080
  147OSM   C17S16263   0.290   5.116   4.173 -0.1806  0.3395  0.7507
  147OSM   H17S16264   0.240   5.016   4.168  1.6998 -0.6282  0.4135
  147OSM   H17T16265   0.237   5.174   4.251 -2.5541  0.2407 -0.6981
  147OSM   C18S16266   0.438   5.101   4.203  1.2070  0.1206 -0.1281
  147OSM   H18S16267   0.496   5.034   4.136 -0.7418 -0.1867 -1.6073
  147OSM   H18T16268   0.438   5.076   4.311  0.5471 -0.8977 -0.3412
  147OSM   H18U16269   0.484   5.200   4.186  0.5761  0.4373 -0.0244
  147OSM    C1F16270   1.006   5.413   2.777  0.0771  0.0930 -0.1427
  147OSM     OF16271   1.045   5.516   2.728  0.2172 -0.2494  0.2988
  147OSM    C2F16272   1.100   5.329   2.860  0.2880  0.2312 -0.3003
  147OSM    H2F16273   1.183   5.399   2.881 -0.5198  1.3226 -0.6095
  147OSM    H2G16274   1.139   5.255   2.787 -0.5700 -1.8998  1.3112
  147OSM    C3F16275   1.040   5.271   2.989 -0.4614  0.2454  0.1766
  147OSM    H3F16276   0.964   5.193   2.968 -0.5481 -0.1737  1.8923
  147OSM    H3G16277   0.999   5.356   3.048  2.0426  0.5164  1.6748
  147OSM    C4F16278   1.143   5.190   3.075 -0.1681 -0.5597 -0.3400
  147OSM    H4F16279   1.190   5.266   3.141 -0.5470  0.0899 -0.8112
  147OSM    H4G16280   1.220   5.150   3.005  1.4226 -0.3262  1.2134
  147OSM    C5F16281   1.084   5.072   3.156 -0.3751  0.3072 -0.3517
  147OSM    H5F16282   1.035   4.998   3.091  0.1191 -1.5648  1.3195
  147OSM    H5G16283   1.000   5.119   3.211  0.0377  0.3869  0.2260
  147OSM    C6F16284   1.186   5.010   3.260  0.5559 -0.1087 -0.0392
  147OSM    H6F16285   1.127   4.994   3.353  0.4707  2.0083  0.3189
  147OSM    H6G16286   1.271   5.080   3.274  0.8232 -0.2152 -1.0367
  147OSM    C7F16287   1.245   4.878   3.216  0.3799  0.2481  0.0253
  147OSM    H7F16288   1.285   4.887   3.112 -0.8389  0.9821 -0.4023
  147OSM    H7G16289   1.164   4.804   3.198  0.5875  0.3672 -1.5647
  147OSM    C8F16290   1.333   4.824   3.322 -0.2397 -0.3027  0.4182
  147OSM    H8F16291   1.273   4.793   3.409  0.0164 -2.6631 -0.1554
  147OSM    H8G16292   1.400   4.907   3.353  1.0204 -1.7616  1.7706
  147OSM    C9F16293   1.411   4.705   3.278 -0.4457  0.5762  0.3654
  147OSM    H9F16294   1.372   4.649   3.192 -0.7252 -2.2244  2.1888
  147OSM   C10F16295   1.519   4.653   3.333  0.2184 -0.2693  0.3225
  147OSM   H10F16296   1.565   4.560   3.296 -0.3953 -0.2879 -0.4050
  147OSM   C11F16297   1.584   4.702   3.466  0.2671 -0.0901 -0.2743
  147OSM   H11F16298   1.610   4.614   3.529 -0.0101 -1.4764 -2.0084
  147OSM   H11G16299   1.499   4.747   3.522 -0.4781  1.7614 -2.7126
  147OSM   C12F16300   1.697   4.801   3.455 -0.1228 -0.3757 -0.1339
  147OSM   H12F16301   1.672   4.893   3.398  2.4144  1.3093  1.3104
  147OSM   H12G16302   1.779   4.746   3.403  1.1788  1.3450  0.0212
  147OSM   C13F16303   1.754   4.850   3.589  0.2760  0.2203  0.9255
  147OSM   H13F16304   1.687   4.930   3.627 -2.2002 -0.9142 -0.7860
  147OSM   H13G16305   1.852   4.901   3.573  0.5704  0.5767  3.5393
  147OSM   C14F16306   1.764   4.748   3.698 -0.1266  0.0430 -0.2914
  147OSM   H14F16307   1.832   4.671   3.656  0.9399  0.1907  1.0852
  147OSM   H14G16308   1.676   4.686   3.725  1.2029 -0.6469  3.0448
  147OSM   C15F16309   1.824   4.808   3.826 -0.5362  0.2302 -0.3922
  147OSM   H15F16310   1.909   4.877   3.806 -0.1703 -0.0817  0.0860
  147OSM   H15G16311   1.867   4.735   3.898 -1.4811 -1.3988 -1.4082
  147OSM   C16F16312   1.716   4.883   3.903  0.4441 -0.1727 -0.5566
  147OSM   H16F16313   1.637   4.809   3.929  1.7878 -1.8847 -1.1952
  147OSM   H16G16314   1.672   4.964   3.841  2.8156  0.6700 -1.2325
  147OSM   C17F16315   1.770   4.934   4.042 -0.2461 -0.0365  0.2246
  147OSM   H17F16316   1.879   4.951   4.029  0.2240 -1.8368  1.5925
  147OSM   H17G16317   1.761   4.852   4.115  1.0150 -0.4543 -0.0701
  147OSM   C18F16318   1.709   5.060   4.098  0.0772 -0.4241  0.1409
  147OSM   H18F16319   1.732   5.070   4.207  0.6177 -0.3899  0.0263
  147OSM   H18G16320   1.600   5.070   4.080 -0.0654 -0.1443  1.1003
  147OSM   H18H16321   1.759   5.145   4.048 -1.0647  0.3472  0.2636
  148OSM      N16322   6.244   6.793   2.095 -0.5403 -0.8544 -0.6316
  148OSM    C1516323   6.323   6.740   1.978  0.3151  0.1719 -0.1288
  148OSM   H15A16324   6.430   6.753   1.986  0.2834  0.4663 -0.1527
  148OSM   H15B16325   6.288   6.783   1.886 -0.0343 -0.8319 -0.4693
  148OSM   H15C16326   6.296   6.636   1.968  0.4895  0.0109  0.9490
  148OSM    C1416327   6.240   6.941   2.096 -0.4580  0.5246 -0.0020
  148OSM   H14A16328   6.332   6.997   2.110  0.0914 -0.8025  2.2937
  148OSM   H14B16329   6.171   6.976   2.171  0.6895  1.8915  0.4789
  148OSM   H14C16330   6.213   6.968   1.995  0.5369 -0.8313 -0.6606
  148OSM    C1316331   6.104   6.734   2.084 -0.1583  0.1618 -0.1833
  148OSM   H13A16332   6.065   6.762   1.987  0.5421  1.4245 -0.1297
  148OSM   H13B16333   6.038   6.771   2.161  1.3477  0.8220  0.8417
  148OSM   H13C16334   6.120   6.629   2.102  0.6924  0.5073  1.2866
  148OSM    C1216335   6.306   6.748   2.231 -0.2191  0.0560  0.1843
  148OSM   H12A16336   6.412   6.765   2.237  0.3509 -3.1658  0.6061
  148OSM   H12B16337   6.292   6.642   2.239 -1.6103  0.3585  2.8816
  148OSM    C1116338   6.248   6.811   2.366 -0.1096  0.2740 -0.1532
  148OSM   H11A16339   6.267   6.920   2.368  2.1283 -0.0564  2.8888
  148OSM   H11B16340   6.308   6.761   2.445 -0.6167 -0.4426 -0.2046
  148OSM      P16341   6.026   6.877   2.483 -0.1377  0.1176 -0.1622
  148OSM    O1316342   5.989   7.004   2.418 -0.4826 -0.6481  0.1479
  148OSM    O1416343   5.908   6.809   2.548 -0.1078 -0.0623  0.1114
  148OSM    O1116344   6.139   6.904   2.593  0.8120  0.6495  0.5120
  148OSM    O1216345   6.109   6.770   2.392 -0.3586 -1.3504  0.5064
  148OSM    C1S16346   6.163   6.810   2.688 -0.5323  0.6529  0.0488
  148OSM    H1S16347   6.208   6.721   2.639  1.2224  1.0880  0.8065
  148OSM    H1T16348   6.074   6.792   2.752  0.3057 -0.2587  0.9841
  148OSM     NF16349   6.305   6.758   2.891  0.1891 -0.3572 -0.3099
  148OSM    HNF16350   6.271   6.782   2.982  0.5533  0.3776 -0.3635
  148OSM    C2S16351   6.278   6.857   2.786 -0.3430  0.9911 -0.1684
  148OSM    H2S16352   6.378   6.866   2.737  0.2348  0.4274  0.8685
  148OSM    C3S16353   6.232   6.991   2.846 -0.0523  0.2653 -0.8329
  148OSM    H3S16354   6.137   6.975   2.902  0.3006  0.7242 -0.0891
  148OSM     O316355   6.200   7.096   2.754 -0.4614 -0.5092 -0.2193
  148OSM    HO316356   6.208   7.051   2.669  2.3800  2.7379 -1.9073
  148OSM    C4S16357   6.331   7.033   2.953 -0.9533 -0.0363  0.2183
  148OSM    H4S16358   6.308   6.998   3.054 -2.5572 -2.1205 -0.7751
  148OSM    C5S16359   6.438   7.110   2.923 -0.3239 -0.3543  0.0550
  148OSM    H5S16360   6.455   7.148   2.821  0.4233 -2.0949 -0.4963
  148OSM    C6S16361   6.530   7.174   3.025  0.1483  0.3312 -0.7092
  148OSM    H6S16362   6.532   7.283   3.006  0.1090  0.1072 -2.1245
  148OSM    H6T16363   6.635   7.141   3.009  0.7575  0.9305  1.7011
  148OSM    C7S16364   6.514   7.148   3.181  0.3168  0.4548  0.6831
  148OSM    H7S16365   6.528   7.042   3.209  0.9398  0.2595 -0.3381
  148OSM    H7T16366   6.408   7.171   3.205 -0.1673 -2.6907  2.0561
  148OSM    C8S16367   6.600   7.249   3.261  0.8675  0.1380  0.5548
  148OSM    H8S16368   6.565   7.348   3.226 -0.8811 -1.2712 -2.0419
  148OSM    H8T16369   6.706   7.222   3.241  0.2775 -1.7555 -0.3000
  148OSM    C9S16370   6.566   7.237   3.408  0.5974 -0.0617 -1.0012
  148OSM    H9S16371   6.601   7.142   3.453 -0.6598  0.6794  1.8468
  148OSM    H9T16372   6.455   7.248   3.413  0.6913  0.4678  0.9488
  148OSM   C10S16373   6.641   7.348   3.499  0.4796  0.1477 -0.0495
  148OSM   H10S16374   6.590   7.362   3.597  2.1197  0.8459  0.7304
  148OSM   H10T16375   6.638   7.441   3.439  1.7387  0.5441  0.4671
  148OSM   C11S16376   6.785   7.300   3.523 -0.1896  0.1989  0.2702
  148OSM   H11S16377   6.826   7.287   3.421 -1.3059 -0.7956 -0.0700
  148OSM   H11T16378   6.780   7.197   3.565  0.3411 -0.3243 -0.9177
  148OSM   C12S16379   6.869   7.398   3.604  0.3218 -0.0078  0.1628
  148OSM   H12S16380   6.843   7.504   3.582 -1.4097 -0.5107 -0.3512
  148OSM   H12T16381   6.978   7.393   3.580 -0.0731 -3.0358 -1.5502
  148OSM   C13S16382   6.850   7.374   3.754  0.6371 -0.6638  0.0342
  148OSM   H13S16383   6.742   7.350   3.759  0.5260 -0.2908 -0.5046
  148OSM   H13T16384   6.871   7.468   3.809 -3.1613 -0.0555  0.6930
  148OSM   C14S16385   6.919   7.252   3.814 -0.2387 -0.4098  0.0662
  148OSM   H14S16386   7.024   7.244   3.782  0.0384 -0.8941  1.0332
  148OSM   H14T16387   6.869   7.163   3.769  0.4893 -0.6292 -0.3216
  148OSM   C15S16388   6.922   7.234   3.967  0.1738 -0.7079  0.8893
  148OSM   H15S16389   6.980   7.321   4.006 -1.1556  0.8883 -0.5468
  148OSM   H15T16390   6.988   7.146   3.977 -0.4549 -1.1713  0.9872
  148OSM   C16S16391   6.789   7.212   4.037  0.4955  0.3564  0.5761
  148OSM   H16S16392   6.740   7.130   3.981  2.1242  1.2627 -2.4315
  148OSM   H16T16393   6.722   7.300   4.038 -3.6513 -2.3026 -3.6839
  148OSM   C17S16394   6.813   7.168   4.181  0.0557 -0.1534 -0.1064
  148OSM   H17S16395   6.840   7.259   4.238 -1.6411 -1.7676  3.6437
  148OSM   H17T16396   6.900   7.099   4.187 -0.1993 -0.4740 -0.0669
  148OSM   C18S16397   6.690   7.121   4.248 -0.6771  0.5547 -0.1484
  148OSM   H18S16398   6.651   7.031   4.195  0.0171 -0.5907  1.2111
  148OSM   H18T16399   6.612   7.199   4.231  0.0091  1.4241  0.5869
  148OSM   H18U16400   6.698   7.098   4.357 -0.0927 -0.9524 -0.4887
  148OSM    C1F16401   6.357   6.634   2.874  0.0774 -0.0220 -0.5725
  148OSM     OF16402   6.410   6.598   2.773 -0.2463 -0.0340 -0.1800
  148OSM    C2F16403   6.343   6.536   2.989 -0.4793 -0.1980 -0.5813
  148OSM    H2F16404   6.248   6.479   2.975  0.6063 -2.2084 -0.0880
  148OSM    H2G16405   6.347   6.592   3.085 -0.4126 -2.9134  1.0939
  148OSM    C3F16406   6.459   6.432   3.007 -0.6610  0.3736 -0.6553
  148OSM    H3F16407   6.557   6.482   3.020 -0.0864 -0.6760 -0.8417
  148OSM    H3G16408   6.470   6.373   2.913  0.0065 -0.5060 -0.0487
  148OSM    C4F16409   6.440   6.331   3.126  0.1655  0.2253  0.4168
  148OSM    H4F16410   6.342   6.280   3.114 -0.3265  0.8421  1.6058
  148OSM    H4G16411   6.455   6.381   3.224  0.6688 -0.6452  0.7969
  148OSM    C5F16412   6.552   6.225   3.113 -0.3447 -0.0482 -0.1655
  148OSM    H5F16413   6.646   6.283   3.115 -0.4293  0.1346 -1.2145
  148OSM    H5G16414   6.559   6.175   3.014  4.3979  0.5778 -0.3596
  148OSM    C6F16415   6.550   6.127   3.227 -0.0862  0.2736  0.2361
  148OSM    H6F16416   6.634   6.056   3.209 -1.0057 -0.7777 -0.0262
  148OSM    H6G16417   6.455   6.071   3.231 -0.5978  1.1687  1.2853
  148OSM    C7F16418   6.559   6.193   3.370 -0.1129  0.4724  0.1344
  148OSM    H7F16419   6.456   6.230   3.391 -0.0749  0.5692  0.1528
  148OSM    H7G16420   6.623   6.283   3.364  0.9260 -0.2893 -0.6137
  148OSM    C8F16421   6.600   6.096   3.482  0.2580 -0.4013 -0.6177
  148OSM    H8F16422   6.640   6.146   3.573  0.6259 -0.3990 -0.7759
  148OSM    H8G16423   6.682   6.034   3.439  0.0765 -0.9528 -0.1632
  148OSM    C9F16424   6.505   5.989   3.520  0.2096  0.6184  0.3216
  148OSM    H9F16425   6.427   5.962   3.448 -0.2143 -0.2013  1.0626
  148OSM   C10F16426   6.504   5.929   3.639 -0.0348  0.9563  0.3181
  148OSM   H10F16427   6.425   5.853   3.644 -0.5325  1.3609 -1.0438
  148OSM   C11F16428   6.587   5.966   3.762 -0.3165 -0.4660 -0.0850
  148OSM   H11F16429   6.663   6.045   3.744 -2.2783  1.0543 -2.2736
  148OSM   H11G16430   6.640   5.874   3.795  0.8087 -0.6326 -2.1568
  148OSM   C12F16431   6.489   6.017   3.874 -0.4575 -0.0967  0.6561
  148OSM   H12F16432   6.403   5.947   3.888 -1.7364  1.1672 -0.4852
  148OSM   H12G16433   6.449   6.115   3.839 -0.8894  0.1372  1.7332
  148OSM   C13F16434   6.554   6.047   4.010 -0.1781 -0.8632  0.6923
  148OSM   H13F16435   6.506   6.133   4.061  0.8673  1.0938 -1.4209
  148OSM   H13G16436   6.658   6.082   3.993 -0.5453  0.6142  1.2883
  148OSM   C14F16437   6.567   5.935   4.109  0.8002 -0.0700  0.4868
  148OSM   H14F16438   6.599   5.841   4.057 -0.7523 -0.5292  0.3024
  148OSM   H14G16439   6.465   5.915   4.148 -0.5649  0.8993 -2.2670
  148OSM   C15F16440   6.662   5.964   4.229  0.0754 -0.2525 -0.2828
  148OSM   H15F16441   6.635   6.061   4.276  1.0520 -0.8500  1.6299
  148OSM   H15G16442   6.765   5.975   4.187 -0.0487  0.6048 -0.3932
  148OSM   C16F16443   6.655   5.854   4.337 -0.0522 -0.4053 -1.3749
  148OSM   H16F16444   6.681   5.754   4.293  0.3996 -0.5094 -0.8767
  148OSM   H16G16445   6.548   5.846   4.367  0.5781  0.6441  1.4433
  148OSM   C17F16446   6.737   5.885   4.465 -1.2036  0.1723 -0.0550
  148OSM   H17F16447   6.835   5.935   4.449 -1.6086  1.1685  0.5082
  148OSM   H17G16448   6.763   5.793   4.522 -1.6795 -0.3020 -0.5938
  148OSM   C18F16449   6.650   5.962   4.553 -0.4633 -0.3236  0.2567
  148OSM   H18F16450   6.620   6.054   4.499 -0.4622 -1.6708 -2.1769
  148OSM   H18G16451   6.706   5.988   4.646  2.0156  0.8412 -1.4631
  148OSM   H18H16452   6.564   5.898   4.582 -0.9124  0.9700  1.9828
  149OSM      N16453   2.170   3.467   2.270  0.6189 -0.4974  0.5851
  149OSM    C1516454   2.295   3.477   2.185  0.7307 -0.2976  0.2683
  149OSM   H15A16455   2.342   3.574   2.190  0.6130 -0.2995  1.8159
  149OSM   H15B16456   2.276   3.460   2.080  2.3375 -0.7907  0.0301
  149OSM   H15C16457   2.360   3.393   2.204  0.8373 -0.7640 -1.8884
  149OSM    C1416458   2.061   3.542   2.204 -0.2749 -0.4347 -0.2242
  149OSM   H14A16459   2.089   3.635   2.156  0.3697  0.0862  1.1076
  149OSM   H14B16460   1.979   3.565   2.269 -2.1221  2.1201 -3.1497
  149OSM   H14C16461   2.019   3.484   2.123  0.1173 -1.6502  0.4185
  149OSM    C1316462   2.132   3.321   2.264  0.4092  0.3000 -0.0001
  149OSM   H13A16463   2.137   3.298   2.158  1.5514  1.6131 -0.2661
  149OSM   H13B16464   2.030   3.314   2.297 -0.1138  2.2147 -1.0209
  149OSM   H13C16465   2.199   3.256   2.318  1.4535  2.1121  1.0173
  149OSM    C1216466   2.181   3.517   2.409  0.4809 -0.2344 -0.2702
  149OSM   H12A16467   2.206   3.622   2.410 -0.7422  0.0872 -1.0700
  149OSM   H12B16468   2.264   3.472   2.460  0.8421  0.7797  0.0723
  149OSM    C1116469   2.059   3.493   2.513  0.6284 -0.1733  0.2992
  149OSM   H11A16470   2.068   3.570   2.593 -0.2321  0.8787 -0.5844
  149OSM   H11B16471   2.082   3.400   2.568  3.2232  0.0246 -0.3402
  149OSM      P16472   1.790   3.442   2.511 -0.1970 -0.4869 -0.0069
  149OSM    O1316473   1.695   3.559   2.529 -0.1056  0.1306 -0.1636
  149OSM    O1416474   1.750   3.325   2.431  0.7167  0.2436 -0.4416
  149OSM    O1116475   1.836   3.397   2.650 -0.0725 -0.4697 -0.0959
  149OSM    O1216476   1.927   3.493   2.452  0.5170  0.2510 -0.5356
  149OSM    C1S16477   1.839   3.478   2.772 -0.1032  0.3328 -0.0931
  149OSM    H1S16478   1.732   3.507   2.784 -1.0287 -2.7815 -0.0206
  149OSM    H1T16479   1.911   3.562   2.761 -0.3829  0.8985  1.8256
  149OSM     NF16480   1.854   3.497   3.016 -0.1173 -0.2440  0.3707
  149OSM    HNF16481   1.933   3.507   3.075  0.0474 -0.5018  0.1969
  149OSM    C2S16482   1.863   3.403   2.909 -0.1639  0.2998 -0.4452
  149OSM    H2S16483   1.783   3.327   2.921  0.4716 -0.2723  0.2986
  149OSM    C3S16484   1.997   3.328   2.903  0.3163 -0.6185  0.3645
  149OSM    H3S16485   2.070   3.411   2.915  0.9949 -0.7256 -2.2773
  149OSM     O316486   2.034   3.275   2.778 -0.1115 -0.2712  0.0952
  149OSM    HO316487   1.970   3.312   2.716  0.2480 -2.8482 -1.9841
  149OSM    C4S16488   2.010   3.236   3.019  0.3056  0.2025  0.1535
  149OSM    H4S16489   2.025   3.278   3.120 -1.1015 -0.9040  0.8522
  149OSM    C5S16490   1.984   3.104   3.009 -0.3069  0.1659  0.2322
  149OSM    H5S16491   1.972   3.065   2.907 -1.1655  0.3547  0.2623
  149OSM    C6S16492   1.977   3.004   3.128  0.0507  0.0390 -0.0834
  149OSM    H6S16493   2.030   2.913   3.093  0.4474  0.1504  0.2244
  149OSM    H6T16494   1.872   2.977   3.153  0.3789 -0.3958  0.8572
  149OSM    C7S16495   2.034   3.047   3.256 -0.6813  0.2195 -0.4639
  149OSM    H7S16496   1.988   3.139   3.300  2.1883  1.1298  0.8982
  149OSM    H7T16497   2.143   3.068   3.250 -0.4084 -1.0367 -0.1598
  149OSM    C8S16498   2.025   2.942   3.373 -0.4017  0.5037  0.2543
  149OSM    H8S16499   2.101   2.976   3.446 -1.6673  2.9369  0.5112
  149OSM    H8T16500   2.049   2.838   3.340 -1.7771 -0.1719  1.2605
  149OSM    C9S16501   1.890   2.938   3.447  0.4718  0.6007  0.1049
  149OSM    H9S16502   1.811   2.927   3.370  0.3808 -0.4683  0.3421
  149OSM    H9T16503   1.875   3.026   3.513 -0.5603 -0.4093  1.2579
  149OSM   C10S16504   1.894   2.826   3.546 -0.7042 -0.2366  0.2997
  149OSM   H10S16505   1.981   2.833   3.616 -0.1724 -1.5800 -0.1964
  149OSM   H10T16506   1.916   2.733   3.489 -1.3808 -0.2960  0.1268
  149OSM   C11S16507   1.775   2.823   3.646 -0.2807  0.7873  0.5164
  149OSM   H11S16508   1.700   2.767   3.586  1.0224  1.0767 -1.4702
  149OSM   H11T16509   1.740   2.926   3.668 -2.3660  0.7550 -2.1142
  149OSM   C12S16510   1.820   2.747   3.767  0.4260  0.1866 -0.1359
  149OSM   H12S16511   1.900   2.796   3.825  2.2115  0.1498 -2.4225
  149OSM   H12T16512   1.864   2.650   3.735  0.9501  1.3122 -3.1915
  149OSM   C13S16513   1.702   2.725   3.866  0.1873 -0.1311 -0.1418
  149OSM   H13S16514   1.641   2.652   3.809  1.2638 -0.6204 -0.7049
  149OSM   H13T16515   1.635   2.813   3.874  1.2013  0.6980 -0.4924
  149OSM   C14S16516   1.742   2.679   4.002 -0.2533 -0.2447 -0.2427
  149OSM   H14S16517   1.822   2.743   4.045 -0.1294 -0.4674 -0.1376
  149OSM   H14T16518   1.791   2.580   3.989  1.3034  0.5956 -1.0338
  149OSM   C15S16519   1.622   2.684   4.102 -0.4489  0.5147  0.4027
  149OSM   H15S16520   1.584   2.789   4.101  0.6163  0.9228  1.0629
  149OSM   H15T16521   1.662   2.663   4.204  0.2555 -0.3048 -0.0377
  149OSM   C16S16522   1.519   2.577   4.067  0.2370  0.2747  0.0780
  149OSM   H16S16523   1.566   2.493   4.013  2.2722  1.3272  0.1161
  149OSM   H16T16524   1.455   2.623   3.989  0.9068 -0.1928 -0.7505
  149OSM   C17S16525   1.455   2.534   4.201  0.5645  0.0760  0.3147
  149OSM   H17S16526   1.432   2.622   4.265  0.4785 -0.5054  1.0944
  149OSM   H17T16527   1.535   2.466   4.238  0.0108 -2.1283 -2.2166
  149OSM   C18S16528   1.329   2.448   4.201  0.3509 -0.5097  0.1216
  149OSM   H18S16529   1.248   2.495   4.142  0.1883 -1.8126 -0.7180
  149OSM   H18T16530   1.304   2.431   4.308  2.8762 -1.0376  0.7146
  149OSM   H18U16531   1.356   2.349   4.159  0.6556 -0.3272 -0.1144
  149OSM    C1F16532   1.744   3.571   3.045  0.3302  0.0193  0.1326
  149OSM     OF16533   1.635   3.562   2.992 -0.0978 -0.7321  0.5835
  149OSM    C2F16534   1.774   3.673   3.150  0.0947 -0.3267  0.7641
  149OSM    H2F16535   1.837   3.746   3.094 -2.0295 -0.1607 -1.6020
  149OSM    H2G16536   1.831   3.626   3.233 -0.2323  0.4248  1.4172
  149OSM    C3F16537   1.648   3.720   3.227 -0.1955  0.0936 -0.0353
  149OSM    H3F16538   1.580   3.632   3.221 -0.0933 -0.0446  0.7613
  149OSM    H3G16539   1.604   3.801   3.164 -0.2770 -0.0921 -0.2216
  149OSM    C4F16540   1.680   3.763   3.367 -0.1335  0.9369 -0.2372
  149OSM    H4F16541   1.762   3.838   3.357  1.2355 -0.7232 -2.2738
  149OSM    H4G16542   1.704   3.677   3.433 -2.4397 -0.4577 -1.0840
  149OSM    C5F16543   1.562   3.848   3.428 -0.3527  1.0518 -0.1422
  149OSM    H5F16544   1.518   3.920   3.356 -1.9690  1.5850  1.3146
  149OSM    H5G16545   1.600   3.898   3.519 -0.0645  0.9838 -0.2216
  149OSM    C6F16546   1.446   3.758   3.464 -0.3253  0.1720  0.4576
  149OSM    H6F16547   1.419   3.694   3.377 -3.6967  0.9317  0.8101
  149OSM    H6G16548   1.363   3.832   3.471  0.6375  1.3432 -0.1165
  149OSM    C7F16549   1.451   3.668   3.589 -0.0798 -0.3588 -0.0667
  149OSM    H7F16550   1.517   3.579   3.584  0.4062 -0.3615  3.3958
  149OSM    H7G16551   1.348   3.629   3.602  0.1338 -0.9734 -0.2163
  149OSM    C8F16552   1.494   3.742   3.722  0.1151  0.9947 -0.4890
  149OSM    H8F16553   1.599   3.771   3.700 -0.5938  2.0339 -2.7773
  149OSM    H8G16554   1.497   3.658   3.795  0.0907 -0.1648 -1.7746
  149OSM    C9F16555   1.395   3.847   3.769 -0.3139 -0.0139  0.4145
  149OSM    H9F16556   1.288   3.822   3.764  0.2584 -3.1306  1.6500
  149OSM   C10F16557   1.432   3.954   3.843  0.0283  0.5068  0.7365
  149OSM   H10F16558   1.361   4.030   3.879  0.4747  0.5246  1.6060
  149OSM   C11F16559   1.575   3.984   3.883  0.4069  0.5608  0.5458
  149OSM   H11F16560   1.616   4.039   3.795 -1.5436 -1.5501 -1.8170
  149OSM   H11G16561   1.644   3.900   3.905  0.0171  0.1931  0.3886
  149OSM   C12F16562   1.567   4.074   4.003  0.3467  0.3805  0.4589
  149OSM   H12F16563   1.532   4.013   4.088  1.2953 -2.3145 -0.9768
  149OSM   H12G16564   1.497   4.157   3.978 -0.1051 -0.8163 -2.7493
  149OSM   C13F16565   1.704   4.126   4.030 -0.0179  0.4003  0.4498
  149OSM   H13F16566   1.738   4.191   3.946  0.4231 -0.1480  0.2021
  149OSM   H13G16567   1.773   4.040   4.028 -2.0801 -1.3409 -0.6260
  149OSM   C14F16568   1.717   4.196   4.165  0.0530  0.1770 -0.4135
  149OSM   H14F16569   1.681   4.126   4.244 -1.1882  0.2361 -0.9071
  149OSM   H14G16570   1.650   4.284   4.178 -2.4387 -1.2537 -2.4700
  149OSM   C15F16571   1.863   4.224   4.204 -0.1620 -0.1511 -0.1973
  149OSM   H15F16572   1.909   4.294   4.131  0.9370  0.0158  0.6272
  149OSM   H15G16573   1.922   4.131   4.220  0.4514  0.4574  1.2447
  149OSM   C16F16574   1.855   4.300   4.342  0.6736  0.2855  0.1649
  149OSM   H16F16575   1.789   4.250   4.415 -0.0554  0.3049 -0.4661
  149OSM   H16G16576   1.803   4.395   4.319 -1.8499 -0.7001  1.3591
  149OSM   C17F16577   1.995   4.326   4.400  0.7407 -0.1742 -0.2108
  149OSM   H17F16578   1.979   4.416   4.463 -2.9084  0.1955 -1.4091
  149OSM   H17G16579   2.065   4.360   4.321 -0.6540  0.6278 -1.1501
  149OSM   C18F16580   2.070   4.206   4.468 -0.3706  0.0671  0.4453
  149OSM   H18F16581   2.173   4.238   4.493 -0.1917 -1.4605  1.8774
  149OSM   H18G16582   2.086   4.122   4.397 -1.6609 -0.0176  0.2214
  149OSM   H18H16583   2.026   4.170   4.564  0.1589 -0.7956  0.3731
  150OSM      N16584   5.877   2.310   2.399 -0.1116  0.4310  0.1319
  150OSM    C1516585   6.002   2.378   2.374 -0.0525 -0.3482  0.0365
  150OSM   H15A16586   6.015   2.464   2.438 -2.1738  1.3716 -1.7051
  150OSM   H15B16587   6.008   2.417   2.273 -1.6995 -3.1368 -1.2727
  150OSM   H15C16588   6.085   2.308   2.376 -0.1677 -0.5609 -1.3375
  150OSM    C1416589   5.763   2.393   2.369  0.6272  0.0786  0.1195
  150OSM   H14A16590   5.742   2.457   2.453  0.2117 -1.8654  1.5547
  150OSM   H14B16591   5.672   2.341   2.346 -0.0299  1.2529 -0.0063
  150OSM   H14C16592   5.784   2.438   2.273  0.1273 -0.0829 -0.0642
  150OSM    C1316593   5.866   2.191   2.310 -0.5754  0.3623 -0.4372
  150OSM   H13A16594   5.946   2.120   2.327 -1.3438 -0.2391  0.8567
  150OSM   H13B16595   5.866   2.207   2.203 -2.6929 -1.5773 -0.8225
  150OSM   H13C16596   5.769   2.147   2.328 -0.7928  1.1856  0.4632
  150OSM    C1216597   5.874   2.266   2.546 -0.4916  0.4136  0.0485
  150OSM   H12A16598   5.947   2.189   2.567  0.1954  1.0301 -0.0608
  150OSM   H12B16599   5.776   2.233   2.577 -0.4512 -0.2089 -0.4512
  150OSM    C1116600   5.926   2.381   2.648  0.5443 -0.2984  0.1217
  150OSM   H11A16601   6.035   2.403   2.636  0.0223  3.7653  1.2240
  150OSM   H11B16602   5.911   2.344   2.751  1.1734 -0.1390  0.2771
  150OSM      P16603   5.885   2.619   2.722  0.2710  0.2483  0.0409
  150OSM    O1316604   6.023   2.664   2.701 -0.8871  0.6068 -0.5069
  150OSM    O1416605   5.773   2.710   2.701 -0.1881  0.3982  0.2033
  150OSM    O1116606   5.873   2.560   2.866 -0.2322 -0.2122 -0.6987
  150OSM    O1216607   5.859   2.502   2.625  0.1280 -0.0662  0.0734
  150OSM    C1S16608   5.891   2.654   2.975 -0.7272 -0.2488 -0.2813
  150OSM    H1S16609   5.809   2.728   2.971  1.8247  2.7655 -0.8206
  150OSM    H1T16610   5.986   2.712   2.974  0.4854 -2.1173  0.1833
  150OSM     NF16611   5.919   2.696   3.221 -0.3319  0.0973  0.5560
  150OSM    HNF16612   5.996   2.690   3.284  1.5557  0.9035 -1.5751
  150OSM    C2S16613   5.884   2.592   3.120  0.5393  0.3855 -0.2692
  150OSM    H2S16614   5.778   2.572   3.144  0.1890  2.2295 -0.1409
  150OSM    C3S16615   5.975   2.475   3.137  0.0540  1.0750 -0.2326
  150OSM    H3S16616   6.078   2.514   3.144  0.4267  0.1680 -0.4693
  150OSM     O316617   5.991   2.388   3.027 -0.0948  0.7703  0.5210
  150OSM    HO316618   5.941   2.422   2.952 -0.7357 -1.9508 -0.4052
  150OSM    C4S16619   5.935   2.400   3.266  0.2955  0.0912  0.6862
  150OSM    H4S16620   5.994   2.435   3.352 -0.4747  0.7078  0.9725
  150OSM    C5S16621   5.853   2.289   3.284  0.4698 -0.2692  1.0566
  150OSM    H5S16622   5.832   2.228   3.194  0.3055  1.6871 -0.2993
  150OSM    C6S16623   5.818   2.224   3.412  0.8661  0.1738  0.5725
  150OSM    H6S16624   5.842   2.116   3.409  0.0346 -0.0346  1.3293
  150OSM    H6T16625   5.708   2.236   3.422  0.7750 -0.5275  0.4842
  150OSM    C7S16626   5.887   2.302   3.533  0.4056 -0.1144 -0.5851
  150OSM    H7S16627   5.872   2.412   3.528 -2.4607 -0.2197  2.4358
  150OSM    H7T16628   5.996   2.282   3.547  0.7689  1.6743 -0.6031
  150OSM    C8S16629   5.798   2.252   3.654  0.0237 -0.4900 -0.1442
  150OSM    H8S16630   5.809   2.143   3.668 -0.4785 -0.1261  4.9249
  150OSM    H8T16631   5.691   2.278   3.639  0.2499  0.0368 -0.9007
  150OSM    C9S16632   5.841   2.328   3.782  0.4863  0.6057  0.1743
  150OSM    H9S16633   5.855   2.435   3.753 -0.8187  0.5264 -0.8790
  150OSM    H9T16634   5.937   2.282   3.812 -0.7878 -1.9936  0.5865
  150OSM   C10S16635   5.737   2.304   3.893 -0.0654 -0.2469  0.6981
  150OSM   H10S16636   5.693   2.202   3.886 -1.5405  0.4448 -0.6855
  150OSM   H10T16637   5.640   2.351   3.867 -1.6714 -3.7510 -0.2777
  150OSM   C11S16638   5.785   2.340   4.034 -0.3412  0.5333 -0.4828
  150OSM   H11S16639   5.788   2.450   4.041  2.6028  0.5333 -0.3018
  150OSM   H11T16640   5.891   2.306   4.041 -0.4126  0.4319  0.2214
  150OSM   C12S16641   5.703   2.269   4.145  0.1161 -0.2641  0.1333
  150OSM   H12S16642   5.707   2.161   4.118  2.8418  0.2574 -2.0074
  150OSM   H12T16643   5.595   2.294   4.144  0.3593  1.0682  2.0477
  150OSM   C13S16644   5.764   2.296   4.277  0.2494  0.3088 -0.2197
  150OSM   H13S16645   5.682   2.291   4.352  1.5198  2.2316  1.4178
  150OSM   H13T16646   5.813   2.396   4.279  1.6311 -0.3568  0.2632
  150OSM   C14S16647   5.871   2.193   4.314 -0.2395 -0.1742 -0.4743
  150OSM   H14S16648   5.952   2.210   4.239 -0.2202  0.5793 -0.2883
  150OSM   H14T16649   5.828   2.091   4.307 -0.1892 -0.1333 -1.6541
  150OSM   C15S16650   5.932   2.216   4.459 -0.0690  0.2579  0.1883
  150OSM   H15S16651   5.997   2.129   4.479 -2.4843 -1.6261  0.2180
  150OSM   H15T16652   5.841   2.213   4.522 -0.9020  0.7953 -0.9460
  150OSM   C16S16653   6.010   2.355   4.485 -0.7321  1.2416  0.4624
  150OSM   H16S16654   5.947   2.444   4.461 -0.6808  1.3747  0.8272
  150OSM   H16T16655   6.097   2.350   4.416 -1.8327  0.2613 -0.9194
  150OSM   C17S16656   6.059   2.372   4.633 -0.1202 -0.2510  0.2539
  150OSM   H17S16657   6.108   2.275   4.655 -1.1865 -0.4478  1.9670
  150OSM   H17T16658   5.961   2.375   4.686  0.1025 -2.3872  0.9048
  150OSM   C18S16659   6.147   2.495   4.662 -0.7332 -0.3248 -0.3261
  150OSM   H18S16660   6.168   2.517   4.768  1.3510  0.5749 -0.8655
  150OSM   H18T16661   6.092   2.586   4.630 -4.4775 -1.0831  3.1584
  150OSM   H18U16662   6.245   2.491   4.609 -1.0866 -0.5480 -0.9789
  150OSM    C1F16663   5.854   2.820   3.228 -0.0305  0.5683 -0.2439
  150OSM     OF16664   5.747   2.846   3.169 -0.0042 -0.0053 -0.3780
  150OSM    C2F16665   5.916   2.920   3.315 -0.3752  0.1195 -0.7064
  150OSM    H2F16666   6.025   2.937   3.297 -0.3296  0.1270 -0.4321
  150OSM    H2G16667   5.907   2.882   3.419  1.2080 -0.1507 -0.6315
  150OSM    C3F16668   5.852   3.065   3.327 -0.1276 -0.0085 -0.6987
  150OSM    H3F16669   5.748   3.058   3.363  0.6187 -1.2019  1.4095
  150OSM    H3G16670   5.845   3.098   3.221  0.0653  2.5835  0.0466
  150OSM    C4F16671   5.930   3.171   3.407  0.2068  0.0612  0.7362
  150OSM    H4F16672   5.876   3.268   3.398  1.7659  0.7904 -1.8717
  150OSM    H4G16673   6.032   3.184   3.365  0.5095  2.9813  2.1317
  150OSM    C5F16674   5.950   3.131   3.555  0.2657  0.2858 -0.1659
  150OSM    H5F16675   6.025   3.189   3.614 -0.1764 -0.6197  1.3257
  150OSM    H5G16676   6.002   3.033   3.551 -1.6414 -0.8522  1.4949
  150OSM    C6F16677   5.819   3.131   3.638  0.0917  0.0469  0.0091
  150OSM    H6F16678   5.747   3.060   3.592 -1.5849  1.9353 -0.4305
  150OSM    H6G16679   5.772   3.232   3.633 -2.9321 -1.2015  0.7875
  150OSM    C7F16680   5.833   3.088   3.784  0.4489  0.0022  0.6698
  150OSM    H7F16681   5.876   2.987   3.801  0.1587  0.2093  2.8329
  150OSM    H7G16682   5.726   3.080   3.814  0.6518 -0.3819  1.3044
  150OSM    C8F16683   5.911   3.187   3.872  0.1696 -0.1708  0.2202
  150OSM    H8F16684   5.866   3.288   3.876  2.3397  0.8416  0.7599
  150OSM    H8G16685   6.011   3.219   3.835  0.2820  0.2743  0.9083
  150OSM    C9F16686   5.924   3.130   4.009  0.1776  1.2299 -0.2327
  150OSM    H9F16687   6.010   3.063   4.024 -2.0521 -1.5351  1.0115
  150OSM   C10F16688   5.849   3.153   4.115 -0.1977  0.2806  0.6456
  150OSM   H10F16689   5.879   3.118   4.215  3.4718  4.4122  1.3329
  150OSM   C11F16690   5.729   3.241   4.117 -1.0901 -0.1009 -0.0952
  150OSM   H11F16691   5.668   3.208   4.204  1.8513 -3.7476  0.8173
  150OSM   H11G16692   5.672   3.252   4.022  0.1731  0.6241 -0.7853
  150OSM   C12F16693   5.780   3.387   4.146  0.5215  0.0180 -0.0346
  150OSM   H12F16694   5.698   3.461   4.131 -0.8019 -1.6310 -1.3580
  150OSM   H12G16695   5.853   3.404   4.065 -0.2676 -2.6561 -1.4489
  150OSM   C13F16696   5.859   3.409   4.281 -0.5776 -0.4326 -0.4413
  150OSM   H13F16697   5.882   3.518   4.275 -0.4938 -0.5275 -2.6449
  150OSM   H13G16698   5.950   3.346   4.274  0.5881  1.1564 -0.1797
  150OSM   C14F16699   5.769   3.386   4.410 -0.4905  0.0623 -0.8453
  150OSM   H14F16700   5.749   3.281   4.438  0.9049  0.1024  0.4584
  150OSM   H14G16701   5.680   3.442   4.375 -0.9423  0.1925  0.4437
  150OSM   C15F16702   5.821   3.442   4.546  0.6057 -0.2843 -0.5981
  150OSM   H15F16703   5.875   3.538   4.532 -3.1159  2.2072  0.5240
  150OSM   H15G16704   5.897   3.367   4.577  0.6183  0.0223  0.1421
  150OSM   C16F16705   5.706   3.458   4.648 -0.3623  0.4265 -0.7509
  150OSM   H16F16706   5.637   3.527   4.594 -1.0342 -0.6017 -1.2392
  150OSM   H16G16707   5.743   3.518   4.734 -1.6047  0.9282 -0.5375
  150OSM   C17F16708   5.636   3.330   4.693  0.6054 -0.3568  0.0412
  150OSM   H17F16709   5.713   3.261   4.733 -0.9646 -1.5425  1.1780
  150OSM   H17G16710   5.596   3.277   4.604  1.1957 -0.7781  0.0230
  150OSM   C18F16711   5.541   3.357   4.811  0.0884  0.5377 -0.2479
  150OSM   H18F16712   5.482   3.448   4.788  0.3321  1.1987  1.5468
  150OSM   H18G16713   5.601   3.379   4.902 -2.9559  2.3890  1.4663
  150OSM   H18H16714   5.476   3.269   4.828 -1.2249  1.9240  2.5568
  151OSM      N16715   4.537   6.936   2.403  0.2812 -0.1585 -0.8521
  151OSM    C1516716   4.554   6.794   2.455  0.1696 -0.2212  0.0519
  151OSM   H15A16717   4.527   6.727   2.374 -3.4164  1.1512 -0.0743
  151OSM   H15B16718   4.488   6.785   2.540  0.3414 -0.9723  0.1107
  151OSM   H15C16719   4.654   6.775   2.490  0.8036 -0.7002 -1.8780
  151OSM    C1416720   4.614   6.959   2.277  0.4248 -0.1314 -0.4503
  151OSM   H14A16721   4.721   6.964   2.291  0.4298 -0.0621 -0.5069
  151OSM   H14B16722   4.582   7.051   2.231 -1.6344 -1.5760 -2.0442
  151OSM   H14C16723   4.595   6.876   2.212 -0.5216  0.2449 -0.6636
  151OSM    C1316724   4.393   6.953   2.370  0.3226  0.1179 -0.4480
  151OSM   H13A16725   4.334   6.915   2.453  1.8974 -1.5708 -0.0241
  151OSM   H13B16726   4.368   6.897   2.281 -1.2377 -0.2199  0.1565
  151OSM   H13C16727   4.374   7.058   2.354 -0.3182 -0.1696 -1.6648
  151OSM    C1216728   4.574   7.037   2.511 -0.3411  0.0103  0.5533
  151OSM   H12A16729   4.673   7.015   2.549  0.1343 -0.7586 -1.0679
  151OSM   H12B16730   4.503   7.028   2.593 -0.7306 -0.5304  0.1599
  151OSM    C1116731   4.584   7.189   2.479 -0.3125 -0.3530 -0.4248
  151OSM   H11A16732   4.651   7.205   2.392  1.8697 -1.7124  0.9258
  151OSM   H11B16733   4.621   7.239   2.571  0.4790  0.4369 -1.1544
  151OSM      P16734   4.456   7.396   2.391 -0.5906 -0.6678  0.3525
  151OSM    O1316735   4.548   7.409   2.271 -1.0179  0.1492 -0.5300
  151OSM    O1416736   4.320   7.456   2.393 -0.3282 -0.2009  0.1149
  151OSM    O1116737   4.528   7.467   2.512  0.6301 -0.2650  0.4159
  151OSM    O1216738   4.462   7.246   2.434 -0.2873 -0.2031  0.3448
  151OSM    C1S16739   4.449   7.475   2.635 -0.3816  0.0871  0.1897
  151OSM    H1S16740   4.374   7.393   2.636  2.4540 -2.7913 -1.4343
  151OSM    H1T16741   4.392   7.570   2.644 -2.6944 -1.1165 -0.8590
  151OSM     NF16742   4.450   7.467   2.885 -0.3820  0.0183 -0.3145
  151OSM    HNF16743   4.451   7.537   2.955 -1.1247 -0.3798  0.1041
  151OSM    C2S16744   4.533   7.469   2.764  0.1062  0.2589  0.5389
  151OSM    H2S16745   4.572   7.365   2.769 -0.6743 -0.0483  0.3624
  151OSM    C3S16746   4.651   7.562   2.770 -0.2285  0.3325 -0.3579
  151OSM    H3S16747   4.597   7.654   2.800 -2.2693 -0.2754 -1.9546
  151OSM     O316748   4.720   7.598   2.648 -0.4103  0.2535 -0.0019
  151OSM    HO316749   4.668   7.559   2.578  0.7484  2.0537 -1.9844
  151OSM    C4S16750   4.749   7.513   2.871  0.3768  0.8081 -0.4719
  151OSM    H4S16751   4.758   7.404   2.866 -5.0741  0.0747  0.2827
  151OSM    C5S16752   4.807   7.585   2.973 -0.6173  0.0132 -0.7394
  151OSM    H5S16753   4.789   7.694   2.972 -1.9859 -0.1727  0.3918
  151OSM    C6S16754   4.901   7.526   3.083  0.4410 -0.0292 -0.3644
  151OSM    H6S16755   4.995   7.498   3.031  0.2947 -1.4659  0.1099
  151OSM    H6T16756   4.853   7.443   3.139  0.5294  1.5179  2.1297
  151OSM    C7S16757   4.930   7.627   3.192  0.3865 -0.1646 -0.0617
  151OSM    H7S16758   4.838   7.671   3.235  0.8157  2.3470 -1.5110
  151OSM    H7T16759   4.985   7.713   3.149 -0.5344  0.5899  0.2396
  151OSM    C8S16760   5.034   7.589   3.296  0.2239  0.1072  0.1530
  151OSM    H8S16761   5.115   7.662   3.317  0.1902  0.0162  0.6046
  151OSM    H8T16762   5.085   7.496   3.263  1.0665  0.2379  1.0474
  151OSM    C9S16763   4.966   7.554   3.425 -0.3165 -0.0089  0.1843
  151OSM    H9S16764   4.882   7.487   3.399 -1.0161  0.8881  0.0826
  151OSM    H9T16765   4.913   7.637   3.476  3.2564  1.2561  2.1799
  151OSM   C10S16766   5.075   7.502   3.530  0.6314 -0.3205 -0.0951
  151OSM   H10S16767   5.137   7.592   3.550  0.2699 -0.0925  0.0168
  151OSM   H10T16768   5.137   7.421   3.487  1.6394  0.2604  0.2161
  151OSM   C11S16769   5.017   7.458   3.657  0.1204  0.1548 -0.5340
  151OSM   H11S16770   4.969   7.358   3.650  0.0269  0.1979 -0.5168
  151OSM   H11T16771   4.935   7.532   3.672  0.9669  1.4398 -1.9643
  151OSM   C12S16772   5.104   7.481   3.783 -0.3109 -0.0979 -0.1319
  151OSM   H12S16773   5.049   7.442   3.872  2.0567  0.3821  1.6432
  151OSM   H12T16774   5.115   7.591   3.793  0.6923 -0.2120  0.1344
  151OSM   C13S16775   5.242   7.408   3.791 -0.3997 -0.2691 -0.0609
  151OSM   H13S16776   5.314   7.464   3.727 -1.1626  0.3653 -0.3755
  151OSM   H13T16777   5.241   7.307   3.745 -0.7042 -1.0621  1.6463
  151OSM   C14S16778   5.301   7.407   3.931 -0.0516  0.1675 -0.3467
  151OSM   H14S16779   5.282   7.505   3.980  0.2621 -0.3172  0.7799
  151OSM   H14T16780   5.412   7.400   3.926 -0.1840 -1.7536 -1.3438
  151OSM   C15S16781   5.249   7.281   4.012 -0.1803 -0.3339  0.0848
  151OSM   H15S16782   5.276   7.188   3.959 -0.5198 -1.4599  1.8007
  151OSM   H15T16783   5.138   7.283   4.013 -0.2647 -2.6071  1.6777
  151OSM   C16S16784   5.322   7.268   4.151  0.6163  0.3376 -0.3982
  151OSM   H16S16785   5.312   7.353   4.221  4.4344 -2.0858  3.6897
  151OSM   H16T16786   5.431   7.278   4.128  0.7004 -0.1248 -0.2237
  151OSM   C17S16787   5.289   7.138   4.222  0.2276 -0.7624  0.2186
  151OSM   H17S16788   5.358   7.137   4.310  1.4695  2.2455 -0.5936
  151OSM   H17T16789   5.298   7.059   4.145  1.7461  0.1911 -0.6376
  151OSM   C18S16790   5.142   7.122   4.277 -1.1471  0.5679  0.4900
  151OSM   H18S16791   5.129   7.165   4.378  0.9360  0.7063  0.7366
  151OSM   H18T16792   5.131   7.011   4.282 -1.3436  0.6318  1.8189
  151OSM   H18U16793   5.058   7.162   4.218 -1.4514 -1.0916 -0.2742
  151OSM    C1F16794   4.357   7.378   2.901 -0.2595  0.2044  0.2642
  151OSM     OF16795   4.358   7.280   2.827 -0.1187  0.0003  0.1001
  151OSM    C2F16796   4.276   7.393   3.021  0.1071  0.1028 -0.8880
  151OSM    H2F16797   4.204   7.477   3.012 -2.1209 -1.7093 -0.9255
  151OSM    H2G16798   4.351   7.402   3.103 -1.2153 -2.1375  0.6855
  151OSM    C3F16799   4.196   7.262   3.042  0.1412  0.1328  0.1053
  151OSM    H3F16800   4.251   7.168   3.022 -0.1800  0.2156 -1.2636
  151OSM    H3G16801   4.115   7.260   2.967  0.3825  0.5253 -0.1712
  151OSM    C4F16802   4.126   7.260   3.177 -0.6956  0.2959  0.1868
  151OSM    H4F16803   4.100   7.364   3.206  2.6265  1.7924 -1.6312
  151OSM    H4G16804   4.188   7.236   3.266 -1.8036 -1.4827  0.5338
  151OSM    C5F16805   4.009   7.150   3.185 -0.8528 -0.8429 -0.0455
  151OSM    H5F16806   4.055   7.054   3.154  0.6198 -0.0724 -0.3629
  151OSM    H5G16807   3.934   7.171   3.106 -0.7345  1.4961  0.3914
  151OSM    C6F16808   3.946   7.127   3.322 -0.2222  0.6306  0.1199
  151OSM    H6F16809   3.941   7.222   3.378 -0.9189  0.3412  0.5688
  151OSM    H6G16810   4.013   7.057   3.377 -2.3556 -0.9474  0.8736
  151OSM    C7F16811   3.811   7.052   3.318 -0.2419 -0.0384  0.4165
  151OSM    H7F16812   3.818   6.958   3.259  0.5685 -1.6486  2.9392
  151OSM    H7G16813   3.732   7.115   3.271  1.7513  0.8408 -1.9239
  151OSM    C8F16814   3.750   7.012   3.456 -0.4660  0.0394  0.2708
  151OSM    H8F16815   3.647   6.972   3.441  1.2043 -4.4326 -0.9196
  151OSM    H8G16816   3.736   7.107   3.512 -1.6470 -0.4113  0.7822
  151OSM    C9F16817   3.825   6.910   3.540  0.4754 -0.2463 -0.2382
  151OSM    H9F16818   3.905   6.954   3.601 -0.8427  1.0002  0.6640
  151OSM   C10F16819   3.792   6.781   3.558  0.0705 -0.1458  0.0693
  151OSM   H10F16820   3.863   6.719   3.614  0.2103 -1.2645 -1.3039
  151OSM   C11F16821   3.685   6.700   3.484 -0.3261  0.8098 -0.4862
  151OSM   H11F16822   3.619   6.758   3.417  0.4440  0.7032 -1.3534
  151OSM   H11G16823   3.621   6.646   3.558  0.7656  3.3604  2.5235
  151OSM   C12F16824   3.760   6.596   3.391  1.3670 -0.7891  0.1294
  151OSM   H12F16825   3.847   6.654   3.352  1.9184 -0.1739  2.1653
  151OSM   H12G16826   3.697   6.551   3.311 -2.4621 -1.7692  3.4090
  151OSM   C13F16827   3.787   6.469   3.468  0.3454 -0.5303 -0.7970
  151OSM   H13F16828   3.691   6.431   3.509 -0.1738  2.1301  0.7014
  151OSM   H13G16829   3.861   6.489   3.549 -0.3928  0.2067 -0.2985
  151OSM   C14F16830   3.857   6.367   3.376  0.1375 -0.2605 -0.1042
  151OSM   H14F16831   3.783   6.341   3.297 -0.6415 -0.5193  0.6850
  151OSM   H14G16832   3.872   6.278   3.442 -4.2153 -0.0675  1.5051
  151OSM   C15F16833   3.995   6.401   3.320  0.6500  1.1327  0.9326
  151OSM   H15F16834   4.069   6.416   3.401  0.5040  1.3948  1.0189
  151OSM   H15G16835   4.000   6.505   3.281  1.6670  0.3125 -1.3225
  151OSM   C16F16836   4.040   6.301   3.208 -0.1715  0.9618  0.5673
  151OSM   H16F16837   4.133   6.327   3.153 -0.1111 -1.6676 -0.7306
  151OSM   H16G16838   3.964   6.296   3.128  3.2769  1.3181 -3.0262
  151OSM   C17F16839   4.066   6.156   3.270 -0.6774 -0.5605  0.0590
  151OSM   H17F16840   4.076   6.086   3.184  1.5267 -0.6820  0.3595
  151OSM   H17G16841   3.971   6.121   3.314 -0.6915 -0.9633 -0.2825
  151OSM   C18F16842   4.183   6.144   3.366  0.4183 -0.2852 -0.3569
  151OSM   H18F16843   4.278   6.180   3.322  0.5605  0.8100  0.7863
  151OSM   H18G16844   4.220   6.040   3.373  0.1366 -0.3028  1.1485
  151OSM   H18H16845   4.158   6.185   3.466 -2.2301 -0.8692 -0.6850
  152OSM      N16846   6.728   6.003   2.196  0.2632  0.4149 -0.0235
  152OSM    C1516847   6.643   5.998   2.079  0.0124 -0.2413  0.1013
  152OSM   H15A16848   6.539   5.992   2.107  0.4664 -1.4657  1.6657
  152OSM   H15B16849   6.668   5.915   2.015 -1.0562  1.6844 -3.0653
  152OSM   H15C16850   6.664   6.084   2.017  3.0909 -1.1325 -0.2741
  152OSM    C1416851   6.689   5.892   2.292 -0.0911  1.1349 -0.1261
  152OSM   H14A16852   6.758   5.884   2.375  0.2427 -1.2315 -0.5584
  152OSM   H14B16853   6.676   5.794   2.248  1.1836  0.7230  0.3586
  152OSM   H14C16854   6.593   5.913   2.337 -0.1702 -0.3989  0.4762
  152OSM    C1316855   6.865   5.967   2.151 -0.1013 -0.4178 -0.0561
  152OSM   H13A16856   6.895   6.039   2.076 -2.1034  0.6773  0.1089
  152OSM   H13B16857   6.858   5.873   2.097 -0.3225  0.7315 -2.1451
  152OSM   H13C16858   6.934   5.954   2.232 -0.7205  0.3947  0.6157
  152OSM    C1216859   6.720   6.137   2.255  0.2963 -0.0913 -0.1685
  152OSM   H12A16860   6.742   6.207   2.175 -0.3240 -0.3188 -0.5482
  152OSM   H12B16861   6.796   6.146   2.331 -0.1061  0.8562  0.1351
  152OSM    C1116862   6.586   6.166   2.329  0.5810  0.2492  0.2452
  152OSM   H11A16863   6.584   6.268   2.373  0.6248 -0.0016  0.8502
  152OSM   H11B16864   6.580   6.098   2.417 -2.1138  1.1935  0.8752
  152OSM      P16865   6.349   6.061   2.288  0.0693  0.4678 -0.1049
  152OSM    O1316866   6.222   6.087   2.215 -0.0940  0.2834 -0.1629
  152OSM    O1416867   6.398   5.920   2.269  0.3738  0.5112 -0.0884
  152OSM    O1116868   6.336   6.089   2.445  0.1503 -0.0847 -0.2353
  152OSM    O1216869   6.471   6.154   2.241 -0.1199  0.3638 -0.6068
  152OSM    C1S16870   6.365   5.989   2.546  0.1577 -0.3720 -0.7866
  152OSM    H1S16871   6.472   5.959   2.546 -0.5457 -3.8495  3.4679
  152OSM    H1T16872   6.315   5.892   2.527 -0.2805 -0.4587  0.6693
  152OSM     NF16873   6.381   5.945   2.794 -0.2833  0.3828 -0.3096
  152OSM    HNF16874   6.334   5.862   2.826 -2.0330  1.7152  0.7809
  152OSM    C2S16875   6.330   6.036   2.693  0.2259  0.1085 -0.1432
  152OSM    H2S16876   6.373   6.138   2.702 -0.2581  0.2977  0.0693
  152OSM    C3S16877   6.180   6.058   2.694  0.6361  0.4298  0.2124
  152OSM    H3S16878   6.132   5.958   2.681 -0.5400  1.0883 -0.6611
  152OSM     O316879   6.125   6.131   2.585  0.0440 -0.1341  0.1351
  152OSM    HO316880   6.201   6.146   2.527  0.5136  0.9450  0.9938
  152OSM    C4S16881   6.133   6.106   2.829  0.0406 -0.0659 -0.3013
  152OSM    H4S16882   6.181   6.195   2.872 -0.6010 -0.6820  1.7946
  152OSM    C5S16883   6.037   6.052   2.910 -1.0978 -0.4014  0.5256
  152OSM    H5S16884   5.992   5.954   2.887 -1.0861 -0.3171  0.1323
  152OSM    C6S16885   6.002   6.109   3.048  0.2609  0.2268  0.3436
  152OSM    H6S16886   5.897   6.100   3.083  0.3184  0.3120  0.5393
  152OSM    H6T16887   6.025   6.218   3.044  0.3230  0.1861 -0.6967
  152OSM    C7S16888   6.096   6.053   3.159 -0.0107  0.1053 -0.7006
  152OSM    H7S16889   6.203   6.072   3.133 -0.1502 -0.4192 -1.6884
  152OSM    H7T16890   6.080   5.944   3.175 -0.9731  0.2932 -0.3593
  152OSM    C8S16891   6.071   6.126   3.298  0.6947  0.5483 -0.1747
  152OSM    H8S16892   6.135   6.081   3.377  1.2359  0.6079 -0.5717
  152OSM    H8T16893   5.965   6.101   3.321  0.6310  0.9696  0.0084
  152OSM    C9S16894   6.084   6.278   3.304 -0.6086 -0.3168 -0.3340
  152OSM    H9S16895   5.987   6.320   3.269 -0.4245  1.0982  0.7801
  152OSM    H9T16896   6.164   6.305   3.232  1.5055  0.2976  2.0899
  152OSM   C10S16897   6.082   6.338   3.448 -0.2120  0.0418 -0.2265
  152OSM   H10S16898   6.014   6.276   3.510  1.2311 -1.1472  0.2366
  152OSM   H10T16899   6.031   6.436   3.442 -0.3399 -0.0182 -0.1090
  152OSM   C11S16900   6.220   6.349   3.516  0.2499 -0.0844 -0.1916
  152OSM   H11S16901   6.311   6.373   3.456  0.3073 -0.4070 -0.2337
  152OSM   H11T16902   6.245   6.246   3.548  1.1771 -0.1955 -1.2084
  152OSM   C12S16903   6.220   6.431   3.643  0.7671  0.0453 -0.4847
  152OSM   H12S16904   6.144   6.393   3.715  3.4613 -1.8912  1.5561
  152OSM   H12T16905   6.185   6.534   3.622 -0.2297 -0.9395 -4.3424
  152OSM   C13S16906   6.346   6.421   3.734  0.5994  0.7125 -0.0006
  152OSM   H13S16907   6.430   6.449   3.667  2.7883 -2.5899  1.1290
  152OSM   H13T16908   6.364   6.315   3.759 -1.2335  0.0494 -1.3399
  152OSM   C14S16909   6.340   6.504   3.858 -0.4129  0.3670 -0.3786
  152OSM   H14S16910   6.336   6.610   3.826 -1.1145  0.0556 -1.3719
  152OSM   H14T16911   6.435   6.483   3.911  0.9288 -2.3259 -3.4958
  152OSM   C15S16912   6.227   6.474   3.961 -0.5626 -0.1435 -0.8595
  152OSM   H15S16913   6.129   6.503   3.917 -1.0356 -0.6038 -0.1179
  152OSM   H15T16914   6.243   6.553   4.037 -0.0426  0.2560 -1.3721
  152OSM   C16S16915   6.229   6.335   4.032  0.4655 -0.2892 -0.5401
  152OSM   H16S16916   6.329   6.322   4.077  1.3633  0.8336 -2.1039
  152OSM   H16T16917   6.215   6.258   3.953  4.0567 -2.2785  0.5345
  152OSM   C17S16918   6.110   6.334   4.137  0.3645  0.6224 -0.9486
  152OSM   H17S16919   6.132   6.420   4.203 -2.2119  2.2461 -2.0317
  152OSM   H17T16920   6.132   6.246   4.202  1.7550  0.1006 -2.0936
  152OSM   C18S16921   5.960   6.332   4.092 -0.1764  0.9691  0.2863
  152OSM   H18S16922   5.937   6.433   4.051  0.2311  0.6975 -0.6183
  152OSM   H18T16923   5.896   6.312   4.181  2.3309  0.0562  1.9872
  152OSM   H18U16924   5.954   6.258   4.009  1.0011  1.4525 -0.2423
  152OSM    C1F16925   6.505   5.953   2.839  0.1687  0.5982 -0.1015
  152OSM     OF16926   6.582   6.033   2.790  0.3120  0.1832  0.0720
  152OSM    C2F16927   6.545   5.864   2.947  0.0984 -0.3857 -0.2095
  152OSM    H2F16928   6.641   5.903   2.988 -0.1548  0.6953 -0.5982
  152OSM    H2G16929   6.565   5.760   2.915  1.9791 -0.3322  0.6574
  152OSM    C3F16930   6.439   5.844   3.056 -0.9706 -0.9929  0.4604
  152OSM    H3F16931   6.343   5.811   3.011 -2.1533  1.3112  1.1065
  152OSM    H3G16932   6.414   5.951   3.074  2.2731  0.2957 -1.7689
  152OSM    C4F16933   6.470   5.760   3.181 -0.3113  0.0111 -0.1806
  152OSM    H4F16934   6.536   5.818   3.250  0.0256  0.1118 -0.5766
  152OSM    H4G16935   6.521   5.667   3.147 -0.3273 -0.1061  0.1146
  152OSM    C5F16936   6.339   5.739   3.262 -0.0939  0.7636 -0.0668
  152OSM    H5F16937   6.269   5.691   3.190  2.6414 -0.9514 -1.7965
  152OSM    H5G16938   6.301   5.840   3.288 -2.5786 -0.0897 -0.0929
  152OSM    C6F16939   6.360   5.646   3.382  0.1509 -0.3877 -0.3869
  152OSM    H6F16940   6.432   5.691   3.453  0.6518  0.5616 -1.4566
  152OSM    H6G16941   6.399   5.544   3.361 -0.9200 -1.1542  1.1859
  152OSM    C7F16942   6.235   5.615   3.462  0.3657  0.6480  0.0907
  152OSM    H7F16943   6.170   5.569   3.385  0.7588 -0.6411  0.5060
  152OSM    H7G16944   6.184   5.708   3.492 -1.9311 -0.1776 -1.0285
  152OSM    C8F16945   6.237   5.524   3.585 -0.4652  0.9270 -0.2614
  152OSM    H8F16946   6.296   5.553   3.675 -0.2721 -0.4974  0.1014
  152OSM    H8G16947   6.277   5.424   3.559 -1.1058  0.6339 -0.1337
  152OSM    C9F16948   6.094   5.498   3.633  0.3037 -0.3928 -0.3625
  152OSM    H9F16949   6.025   5.486   3.548  2.1226 -0.2388 -1.9312
  152OSM   C10F16950   6.040   5.507   3.763  0.0287 -0.4422  0.1413
  152OSM   H10F16951   5.934   5.484   3.785  0.0205  0.9609  1.8015
  152OSM   C11F16952   6.124   5.549   3.882 -0.6620  0.1107  0.0381
  152OSM   H11F16953   6.057   5.595   3.957  0.7543  0.8735  0.8778
  152OSM   H11G16954   6.196   5.630   3.856  0.2231 -0.3560  0.9488
  152OSM   C12F16955   6.195   5.423   3.950 -0.3745 -0.0126 -0.3889
  152OSM   H12F16956   6.265   5.376   3.879 -0.0001  0.8147 -0.5787
  152OSM   H12G16957   6.119   5.343   3.963 -1.2266  1.1409  2.8153
  152OSM   C13F16958   6.251   5.455   4.091 -0.1322 -0.2822 -0.4883
  152OSM   H13F16959   6.297   5.555   4.106 -0.2423 -0.5009  1.6901
  152OSM   H13G16960   6.332   5.380   4.103  0.8213  0.7927 -0.0076
  152OSM   C14F16961   6.150   5.432   4.208  0.3187  0.1363  0.1202
  152OSM   H14F16962   6.129   5.323   4.207  0.2472  0.1431  0.6298
  152OSM   H14G16963   6.057   5.493   4.200 -0.4419 -0.8352  1.2187
  152OSM   C15F16964   6.228   5.451   4.334 -0.4660 -0.7084  0.0920
  152OSM   H15F16965   6.262   5.557   4.344 -0.7308 -0.4414 -1.5447
  152OSM   H15G16966   6.320   5.391   4.322  1.0646  1.5243 -0.0736
  152OSM   C16F16967   6.157   5.409   4.464 -0.3950  0.3197  0.2563
  152OSM   H16F16968   6.108   5.313   4.438  1.5784 -0.1847 -1.9067
  152OSM   H16G16969   6.077   5.485   4.478 -0.2425  0.2066  1.9523
  152OSM   C17F16970   6.254   5.408   4.585  0.5612 -0.0920  0.3174
  152OSM   H17F16971   6.285   5.514   4.596 -0.9758  0.3090  1.0224
  152OSM   H17G16972   6.345   5.358   4.547  1.4534 -0.2733  2.5895
  152OSM   C18F16973   6.200   5.330   4.707  0.7047  0.5399 -0.2943
  152OSM   H18F16974   6.270   5.337   4.794  2.7778 -3.1034 -1.4620
  152OSM   H18G16975   6.180   5.223   4.688 -0.1999  0.2141  2.1874
  152OSM   H18H16976   6.102   5.375   4.733  1.5287  1.2036  1.9164
  153OSM      N16977   0.423   2.306   2.482 -0.3350 -0.6575 -0.0064
  153OSM    C1516978   0.337   2.368   2.371  0.4438 -0.7651  0.2103
  153OSM   H15A16979   0.249   2.417   2.410 -0.5592 -1.9735 -0.4399
  153OSM   H15B16980   0.303   2.282   2.315  0.2373 -2.0165  2.1492
  153OSM   H15C16981   0.396   2.427   2.303 -0.0360 -0.1695  0.2971
  153OSM    C1416982   0.343   2.238   2.584 -0.1334 -0.1585 -0.3634
  153OSM   H14A16983   0.409   2.213   2.666 -0.8458  0.0895  0.3016
  153OSM   H14B16984   0.302   2.144   2.551  0.9056 -0.2786 -1.3725
  153OSM   H14C16985   0.260   2.298   2.620 -0.7625 -1.6505  0.7758
  153OSM    C1316986   0.506   2.200   2.415  0.1479  0.4647 -0.0995
  153OSM   H13A16987   0.570   2.147   2.484  1.9903 -1.3006 -2.9675
  153OSM   H13B16988   0.563   2.234   2.330 -0.0036  2.2055  0.4670
  153OSM   H13C16989   0.439   2.124   2.377 -1.4017  2.8501 -2.4753
  153OSM    C1216990   0.516   2.411   2.550 -0.0221  0.0333  0.5997
  153OSM   H12A16991   0.463   2.504   2.567  0.2734  0.7117 -1.7671
  153OSM   H12B16992   0.588   2.452   2.481 -2.1735  1.6914 -0.7892
  153OSM    C1116993   0.585   2.375   2.680  0.8100 -0.0640  0.5553
  153OSM   H11A16994   0.511   2.352   2.761  2.8939 -1.8029  2.0748
  153OSM   H11B16995   0.636   2.463   2.723  0.4997 -0.3986  1.6577
  153OSM      P16996   0.812   2.284   2.596 -0.0416 -0.2414 -0.2199
  153OSM    O1316997   0.864   2.147   2.594  0.2412 -0.0135  0.2265
  153OSM    O1416998   0.821   2.361   2.471  0.7420 -0.5157 -0.2978
  153OSM    O1116999   0.896   2.364   2.707  0.1292 -0.8963  0.2339
  153OSM    O1217000   0.668   2.263   2.650  0.2648 -0.0576 -0.0846
  153OSM    C1S17001   0.876   2.347   2.848  0.1336  0.2852  0.1443
  153OSM    H1S17002   0.768   2.332   2.870  0.1803  0.7602  0.7366
  153OSM    H1T17003   0.894   2.444   2.900 -1.5243 -0.3710  2.0877
  153OSM     NF17004   0.916   2.189   3.035  0.0860 -0.0645  0.0895
  153OSM    HNF17005   0.960   2.230   3.115  0.7930  0.2249 -0.4335
  153OSM    C2S17006   0.970   2.235   2.911 -0.4466  0.0487  0.9394
  153OSM    H2S17007   0.968   2.147   2.843 -1.2493  1.0408 -0.3936
  153OSM    C3S17008   1.116   2.283   2.910 -0.0088 -0.1464  0.0948
  153OSM    H3S17009   1.118   2.375   2.971  0.6761 -0.5869  0.7408
  153OSM     O317010   1.184   2.307   2.784  0.3104 -0.2722 -0.4388
  153OSM    HO317011   1.115   2.296   2.719 -0.6997 -0.0105  0.5610
  153OSM    C4S17012   1.191   2.175   2.987 -0.1405 -0.2296 -0.0495
  153OSM    H4S17013   1.194   2.187   3.096 -0.9779 -0.9788  0.0697
  153OSM    C5S17014   1.247   2.062   2.937 -0.3478 -0.2101 -0.3763
  153OSM    H5S17015   1.257   2.065   2.828 -1.0192  0.4164 -0.4221
  153OSM    C6S17016   1.303   1.942   3.012 -0.5999 -0.0398 -0.0548
  153OSM    H6S17017   1.407   1.932   2.973 -1.0953  1.9371 -2.1067
  153OSM    H6T17018   1.243   1.857   2.974 -0.8740  0.2050 -0.1763
  153OSM    C7S17019   1.296   1.945   3.162 -0.2702 -0.3096 -0.9904
  153OSM    H7S17020   1.190   1.939   3.195  0.1220 -0.4116  0.2959
  153OSM    H7T17021   1.333   2.043   3.197 -4.7972  0.5984  2.1338
  153OSM    C8S17022   1.370   1.828   3.228  0.1736  0.3267  0.1959
  153OSM    H8S17023   1.473   1.839   3.187 -0.0260  1.5257 -0.0300
  153OSM    H8T17024   1.319   1.732   3.206  2.6082 -0.6762 -1.5328
  153OSM    C9S17025   1.378   1.855   3.380  0.4763 -0.4719 -0.1140
  153OSM    H9S17026   1.275   1.843   3.418 -0.4615  1.6582 -1.8145
  153OSM    H9T17027   1.420   1.955   3.404  0.3759 -0.8605  1.8450
  153OSM   C10S17028   1.453   1.757   3.456  0.7692 -0.0159 -0.2422
  153OSM   H10S17029   1.562   1.777   3.445  0.7706  0.0771 -0.0688
  153OSM   H10T17030   1.440   1.649   3.433 -1.2904 -0.2006  1.5105
  153OSM   C11S17031   1.424   1.773   3.609  0.3216  0.5959  0.3996
  153OSM   H11S17032   1.318   1.746   3.627  0.8778 -1.1499  1.2187
  153OSM   H11T17033   1.435   1.877   3.647  2.2082 -0.3249  2.6322
  153OSM   C12S17034   1.521   1.678   3.683  0.3067  0.3312  0.2434
  153OSM   H12S17035   1.619   1.690   3.633  0.1838  1.1372  0.1850
  153OSM   H12T17036   1.487   1.574   3.666 -0.7343  0.4122  1.6624
  153OSM   C13S17037   1.518   1.698   3.835  0.2439  0.3475 -0.1835
  153OSM   H13S17038   1.427   1.651   3.876  0.1840  0.0098 -0.6922
  153OSM   H13T17039   1.526   1.804   3.868  2.3318  0.2442 -0.2027
  153OSM   C14S17040   1.638   1.622   3.898 -0.4546 -0.0204  0.3228
  153OSM   H14S17041   1.733   1.657   3.851 -0.7006 -1.2118 -1.1411
  153OSM   H14T17042   1.626   1.513   3.877 -3.4001  0.3925 -0.4977
  153OSM   C15S17043   1.651   1.623   4.053 -0.1998 -1.0365 -0.3688
  153OSM   H15S17044   1.555   1.585   4.095 -0.1992  0.0921  0.7094
  153OSM   H15T17045   1.645   1.725   4.097  0.7728 -1.1921  0.1452
  153OSM   C16S17046   1.773   1.561   4.108  0.9311  0.2340  0.0946
  153OSM   H16S17047   1.844   1.530   4.028 -1.3223 -1.6097 -1.3227
  153OSM   H16T17048   1.760   1.465   4.161  1.0578 -1.2242 -2.3640
  153OSM   C17S17049   1.841   1.668   4.204  0.3682 -0.1431 -0.3830
  153OSM   H17S17050   1.760   1.709   4.269 -1.3573  0.8364 -2.9596
  153OSM   H17T17051   1.863   1.757   4.141  2.0364  0.5722  1.1123
  153OSM   C18S17052   1.974   1.617   4.273  0.6078  0.3015 -0.3503
  153OSM   H18S17053   2.046   1.583   4.195 -0.5551  0.4771 -1.5300
  153OSM   H18T17054   1.935   1.525   4.322 -0.6357  0.8534 -0.2809
  153OSM   H18U17055   2.014   1.685   4.351  1.5233 -0.0428 -0.5092
  153OSM    C1F17056   0.814   2.107   3.052 -0.5978 -0.4789 -0.0313
  153OSM     OF17057   0.773   2.050   2.953 -0.0123  0.8734 -0.0787
  153OSM    C2F17058   0.753   2.086   3.185 -1.0771  0.2982  0.4691
  153OSM    H2F17059   0.807   2.153   3.256  0.6872 -0.3287 -0.2211
  153OSM    H2G17060   0.774   1.985   3.226  3.9855  1.4339  1.4304
  153OSM    C3F17061   0.611   2.131   3.185 -0.3035 -0.0601 -0.1817
  153OSM    H3F17062   0.545   2.078   3.114  0.4229  0.3899 -1.2209
  153OSM    H3G17063   0.620   2.237   3.152 -2.0812  0.0074 -0.5416
  153OSM    C4F17064   0.533   2.117   3.318 -0.4660  0.3283  0.3071
  153OSM    H4F17065   0.513   2.008   3.333 -0.3545  0.4487  1.3934
  153OSM    H4G17066   0.436   2.164   3.292 -1.9966 -2.1681  1.2074
  153OSM    C5F17067   0.590   2.176   3.445 -0.0046 -0.0375 -0.4849
  153OSM    H5F17068   0.623   2.280   3.422 -0.4473  0.5742  1.4627
  153OSM    H5G17069   0.686   2.137   3.487  0.5623  3.0097  1.3909
  153OSM    C6F17070   0.492   2.210   3.551 -0.6637 -0.7807  0.1586
  153OSM    H6F17071   0.404   2.262   3.507 -0.9837 -0.5511  1.0537
  153OSM    H6G17072   0.535   2.286   3.619 -0.1879 -0.8460 -0.0653
  153OSM    C7F17073   0.424   2.089   3.630  0.5892  0.0650  0.3760
  153OSM    H7F17074   0.490   2.038   3.704 -1.1380 -2.3341  0.3677
  153OSM    H7G17075   0.394   2.015   3.553 -0.6809  0.5586  0.3739
  153OSM    C8F17076   0.292   2.134   3.696 -0.1837 -0.1232  0.3026
  153OSM    H8F17077   0.234   2.055   3.749 -0.7055  0.8199  1.1867
  153OSM    H8G17078   0.233   2.156   3.604  0.5617  1.4695  0.1641
  153OSM    C9F17079   0.314   2.261   3.784 -0.1430  0.6055  0.1665
  153OSM    H9F17080   0.321   2.359   3.735  1.1415 -0.0992 -1.1302
  153OSM   C10F17081   0.329   2.253   3.919 -0.5563 -1.1176  0.2363
  153OSM   H10F17082   0.333   2.353   3.964 -1.3439 -0.8447 -0.2763
  153OSM   C11F17083   0.343   2.129   3.999 -0.5723  0.5536  0.0255
  153OSM   H11F17084   0.396   2.059   3.931  1.6570  4.0918 -2.2037
  153OSM   H11G17085   0.243   2.082   4.011  0.2853 -1.8914 -1.5961
  153OSM   C12F17086   0.418   2.139   4.129  0.3040 -0.0904 -0.0235
  153OSM   H12F17087   0.516   2.192   4.130  0.9360 -1.1993 -0.3554
  153OSM   H12G17088   0.437   2.034   4.162 -0.4104 -1.2408 -3.0028
  153OSM   C13F17089   0.335   2.205   4.248  0.3575  0.3619 -0.3285
  153OSM   H13F17090   0.225   2.193   4.243 -0.0313  3.0449  0.3790
  153OSM   H13G17091   0.351   2.315   4.241 -1.3481  0.6115 -0.7605
  153OSM   C14F17092   0.377   2.163   4.389 -0.5235 -0.4135  0.1391
  153OSM   H14F17093   0.488   2.169   4.393 -0.4161 -0.8395 -1.5502
  153OSM   H14G17094   0.349   2.055   4.398 -0.0204 -0.5730 -0.1771
  153OSM   C15F17095   0.311   2.235   4.514  0.6635  0.3813  0.4781
  153OSM   H15F17096   0.335   2.175   4.604 -1.7543  0.7985  1.4917
  153OSM   H15G17097   0.200   2.243   4.503  0.6506  0.2872  0.5398
  153OSM   C16F17098   0.349   2.383   4.528  0.1114  0.3994  0.8076
  153OSM   H16F17099   0.322   2.440   4.436  1.2211  0.2762  0.3864
  153OSM   H16G17100   0.459   2.375   4.540  0.0341  1.1338  2.0947
  153OSM   C17F17101   0.275   2.445   4.648  0.4213  0.2573 -0.1207
  153OSM   H17F17102   0.167   2.427   4.631 -0.3984  2.1453  2.4632
  153OSM   H17G17103   0.302   2.552   4.649  1.0399  0.1115 -0.6089
  153OSM   C18F17104   0.328   2.381   4.775 -0.0608 -0.6094 -0.2718
  153OSM   H18F17105   0.289   2.277   4.786 -1.2692 -0.0894  0.5431
  153OSM   H18G17106   0.300   2.442   4.863  0.4187  1.7263 -1.6622
  153OSM   H18H17107   0.438   2.371   4.771 -0.0528 -0.3076 -0.9446
  154OSM      N17108   5.317   0.332   2.408 -0.4876 -0.5893  0.1769
  154OSM    C1517109   5.466   0.376   2.401  0.2630 -0.2349  0.0135
  154OSM   H15A17110   5.486   0.430   2.493 -2.0287 -1.3243  1.2407
  154OSM   H15B17111   5.488   0.446   2.322 -1.4522  1.3410  0.8531
  154OSM   H15C17112   5.537   0.296   2.388  0.1311 -0.5183  0.9647
  154OSM    C1417113   5.244   0.462   2.424 -0.2506 -0.2158  0.7166
  154OSM   H14A17114   5.137   0.449   2.424 -0.1581 -1.0525  0.1142
  154OSM   H14B17115   5.268   0.527   2.342  0.5804  1.7754  2.4481
  154OSM   H14C17116   5.269   0.515   2.515  0.1820  0.1454  0.3880
  154OSM    C1317117   5.286   0.273   2.277 -0.0527  0.0982  0.1163
  154OSM   H13A17118   5.333   0.179   2.251 -0.8367  0.3516 -2.4068
  154OSM   H13B17119   5.318   0.339   2.199 -1.1773 -0.6997 -1.0522
  154OSM   H13C17120   5.182   0.264   2.251 -0.4251 -0.1301  1.5954
  154OSM    C1217121   5.292   0.233   2.523 -0.0169  0.2430  0.6345
  154OSM   H12A17122   5.313   0.275   2.619  1.5010  1.0806 -0.0307
  154OSM   H12B17123   5.367   0.157   2.508 -0.1932 -0.0855  1.3817
  154OSM    C1117124   5.152   0.172   2.532 -0.1696 -0.4140 -0.7903
  154OSM   H11A17125   5.070   0.247   2.531  1.1636  1.0874 -0.7518
  154OSM   H11B17126   5.145   0.122   2.631  0.2711 -0.4619 -0.7802
  154OSM      P17127   4.975   0.058   2.389 -0.1770  0.2638  0.0004
  154OSM    O1317128   4.913   0.169   2.317 -0.5048 -0.1183 -0.5337
  154OSM    O1417129   4.955  -0.078   2.330 -0.2434  0.2509 -0.5737
  154OSM    O1117130   4.913   0.057   2.533  0.0054 -0.3415 -0.2378
  154OSM    O1217131   5.127   0.082   2.431  0.6635 -0.2483  0.4465
  154OSM    C1S17132   4.896  -0.069   2.599  0.1171  0.0877  0.3835
  154OSM    H1S17133   4.984  -0.135   2.583 -1.3498 -1.6436 -0.9362
  154OSM    H1T17134   4.815  -0.135   2.560 -0.3247  0.4686  0.6495
  154OSM     NF17135   4.846  -0.173   2.819  0.3374  0.6621 -0.3190
  154OSM    HNF17136   4.748  -0.173   2.838 -0.2290  1.9006 -2.8563
  154OSM    C2S17137   4.878  -0.052   2.758 -0.1458 -0.1141  0.3217
  154OSM    H2S17138   4.975  -0.018   2.799 -0.3445 -1.5868  2.1826
  154OSM    C3S17139   4.791   0.068   2.801 -0.0558  0.3131  0.6206
  154OSM    H3S17140   4.695   0.058   2.745  0.0410 -0.7052  0.6288
  154OSM     O317141   4.836   0.188   2.738  0.0078 -0.3816 -0.5590
  154OSM    HO317142   4.870   0.152   2.656  2.2374  1.3716 -0.5226
  154OSM    C4S17143   4.774   0.091   2.946  0.4855  1.0134 -0.1188
  154OSM    H4S17144   4.866   0.093   3.006  0.1629 -3.0591  0.8037
  154OSM    C5S17145   4.650   0.095   3.000 -0.2704  0.0538 -0.9455
  154OSM    H5S17146   4.569   0.083   2.927 -0.6784 -1.3582 -0.2894
  154OSM    C6S17147   4.622   0.083   3.154  0.6009 -0.5883 -0.0158
  154OSM    H6S17148   4.706   0.043   3.215  0.2553 -0.4862  0.5287
  154OSM    H6T17149   4.535   0.014   3.164  0.8034 -0.5972  2.2279
  154OSM    C7S17150   4.581   0.218   3.206 -0.3545  0.1070 -0.0637
  154OSM    H7S17151   4.524   0.280   3.133 -1.3327 -0.6831  0.0067
  154OSM    H7T17152   4.674   0.270   3.236  1.0174 -1.6696 -1.0214
  154OSM    C8S17153   4.494   0.210   3.337  0.0911 -0.0326  0.0905
  154OSM    H8S17154   4.558   0.163   3.415 -0.8064  2.2277  2.3306
  154OSM    H8T17155   4.402   0.155   3.309  0.0273  0.6510 -1.1353
  154OSM    C9S17156   4.467   0.353   3.389 -0.0327 -0.2694  0.1621
  154OSM    H9S17157   4.371   0.358   3.445 -1.6021 -0.4269 -2.3731
  154OSM    H9T17158   4.464   0.419   3.300  0.6560  1.7037  1.5286
  154OSM   C10S17159   4.579   0.406   3.481 -0.6749 -1.1977 -0.3602
  154OSM   H10S17160   4.571   0.516   3.466 -1.2402 -1.0759  0.7830
  154OSM   H10T17161   4.676   0.364   3.446 -0.9598 -1.6441 -0.6041
  154OSM   C11S17162   4.541   0.364   3.626  0.1540  0.5264  0.4221
  154OSM   H11S17163   4.532   0.253   3.631 -4.8579  0.7278  2.5420
  154OSM   H11T17164   4.441   0.409   3.643  1.0477  3.4407 -1.3810
  154OSM   C12S17165   4.639   0.414   3.732  0.5159 -0.8159 -0.2481
  154OSM   H12S17166   4.658   0.524   3.732  3.1243 -1.1992  0.9513
  154OSM   H12T17167   4.739   0.367   3.717  1.5465  1.4808 -1.0847
  154OSM   C13S17168   4.607   0.359   3.873  0.8535  0.0659  0.6816
  154OSM   H13S17169   4.616   0.249   3.870  2.9032  0.2096 -1.7965
  154OSM   H13T17170   4.502   0.372   3.905  0.0153 -1.3146 -1.3345
  154OSM   C14S17171   4.707   0.414   3.975  0.7311 -0.0827  0.1407
  154OSM   H14S17172   4.699   0.524   3.980  0.0575 -0.1038 -0.2609
  154OSM   H14T17173   4.809   0.396   3.937  0.7606 -0.8253  0.5390
  154OSM   C15S17174   4.692   0.353   4.115  0.0368 -0.3451 -0.3954
  154OSM   H15S17175   4.679   0.243   4.124 -0.3523 -0.2262  0.7609
  154OSM   H15T17176   4.607   0.409   4.160  0.9316  1.0884 -0.4345
  154OSM   C16S17177   4.817   0.369   4.205  0.2258  0.0563  0.2518
  154OSM   H16S17178   4.819   0.469   4.254  1.9798  0.8458 -1.3328
  154OSM   H16T17179   4.913   0.364   4.150 -0.2925  1.2729 -0.8127
  154OSM   C17S17180   4.808   0.273   4.323  0.4999  0.1170 -0.2595
  154OSM   H17S17181   4.896   0.281   4.390 -0.2313 -0.4183  0.7773
  154OSM   H17T17182   4.799   0.172   4.279 -0.8867  0.3727 -0.6276
  154OSM   C18S17183   4.692   0.299   4.416 -0.1735 -0.3907  0.1538
  154OSM   H18S17184   4.599   0.316   4.358 -1.0789 -0.3606  1.5695
  154OSM   H18T17185   4.706   0.396   4.467 -1.0624  0.8149 -1.7912
  154OSM   H18U17186   4.684   0.219   4.494  1.3782  0.6779  1.4565
  154OSM    C1F17187   4.927  -0.276   2.832 -0.6734 -0.5250 -0.3347
  154OSM     OF17188   5.044  -0.258   2.798 -0.0458 -0.0525 -0.4392
  154OSM    C2F17189   4.876  -0.401   2.900 -0.1638 -0.2521 -0.1641
  154OSM    H2F17190   4.841  -0.475   2.825 -0.2333 -0.0150 -0.3679
  154OSM    H2G17191   4.785  -0.368   2.954  0.3482  1.8584 -0.4793
  154OSM    C3F17192   4.978  -0.455   2.998 -0.8602  0.1212  0.6013
  154OSM    H3F17193   5.017  -0.381   3.070 -2.0164  0.7436  0.6216
  154OSM    H3G17194   5.062  -0.474   2.928 -1.0452  5.1424 -1.4156
  154OSM    C4F17195   4.921  -0.583   3.070 -0.0910 -0.0800  0.6033
  154OSM    H4F17196   4.895  -0.658   2.993 -0.1206  0.2538  0.2842
  154OSM    H4G17197   4.825  -0.557   3.119  0.5909  1.3094  1.2701
  154OSM    C5F17198   5.023  -0.638   3.171  0.4093 -0.0833  0.4947
  154OSM    H5F17199   5.107  -0.674   3.108  1.6115  3.8664 -0.4551
  154OSM    H5G17200   4.978  -0.725   3.224  1.2679 -0.0015  1.3818
  154OSM    C6F17201   5.078  -0.555   3.281 -0.2086  0.6810 -1.1251
  154OSM    H6F17202   5.008  -0.481   3.323  3.2157  4.4529 -1.3748
  154OSM    H6G17203   5.170  -0.503   3.246  0.2232 -0.5493 -1.9038
  154OSM    C7F17204   5.141  -0.651   3.387 -0.4086 -0.1288  0.2224
  154OSM    H7F17205   5.244  -0.674   3.354  0.4512  1.8299  1.4041
  154OSM    H7G17206   5.082  -0.745   3.393  0.5065 -0.7605 -0.4360
  154OSM    C8F17207   5.138  -0.589   3.536 -0.0738 -0.0590  0.9208
  154OSM    H8F17208   5.040  -0.612   3.582  1.2155 -2.4999  2.6550
  154OSM    H8G17209   5.163  -0.481   3.530 -0.6894  0.0572  0.2308
  154OSM    C9F17210   5.245  -0.660   3.613  0.1441 -0.8898  0.0737
  154OSM    H9F17211   5.336  -0.706   3.572  0.2488 -0.6081 -0.0147
  154OSM   C10F17212   5.246  -0.675   3.746 -0.1824  0.9490 -0.0605
  154OSM   H10F17213   5.322  -0.735   3.799 -0.8324 -1.7418 -1.9662
  154OSM   C11F17214   5.149  -0.629   3.845 -0.0187  0.2956  0.5826
  154OSM   H11F17215   5.073  -0.707   3.870  0.0594 -0.6008 -1.7543
  154OSM   H11G17216   5.087  -0.550   3.797 -0.1359  0.0340  0.3007
  154OSM   C12F17217   5.203  -0.591   3.983 -0.2601  0.0629 -0.3850
  154OSM   H12F17218   5.265  -0.500   3.969  0.7910 -0.4337  0.8804
  154OSM   H12G17219   5.249  -0.681   4.027 -2.4626 -0.9767 -0.0789
  154OSM   C13F17220   5.092  -0.543   4.072 -0.8308  0.7971 -0.2664
  154OSM   H13F17221   5.008  -0.614   4.083  0.2693 -0.2839  1.8291
  154OSM   H13G17222   5.046  -0.463   4.011  0.7828  2.6859  0.8686
  154OSM   C14F17223   5.127  -0.494   4.214  0.5548  0.3362 -0.2295
  154OSM   H14F17224   5.034  -0.484   4.274  0.6223 -0.2587 -0.0223
  154OSM   H14G17225   5.176  -0.396   4.198 -2.8002  2.0780 -0.7439
  154OSM   C15F17226   5.229  -0.581   4.292 -0.0666 -0.2255 -0.3120
  154OSM   H15F17227   5.333  -0.568   4.255  1.0076 -2.6114  1.5637
  154OSM   H15G17228   5.201  -0.687   4.277 -1.1673  0.0860 -0.5933
  154OSM   C16F17229   5.233  -0.549   4.444 -0.0427  0.4314 -0.5085
  154OSM   H16F17230   5.135  -0.564   4.494  0.8047  0.0221  1.1015
  154OSM   H16G17231   5.257  -0.441   4.449 -0.6992  0.6926 -2.2584
  154OSM   C17F17232   5.335  -0.629   4.523  0.2159  0.2297 -0.2752
  154OSM   H17F17233   5.432  -0.574   4.524 -0.5191  1.6118  2.1150
  154OSM   H17G17234   5.352  -0.730   4.479  0.7132  0.4407 -0.5809
  154OSM   C18F17235   5.301  -0.650   4.668 -0.4015  0.0803  0.4739
  154OSM   H18F17236   5.382  -0.707   4.719 -0.0527 -0.2302 -0.4079
  154OSM   H18G17237   5.201  -0.694   4.684 -0.4109 -0.9496 -2.0311
  154OSM   H18H17238   5.298  -0.547   4.709 -0.6868  1.5083 -2.8525
  155OSM      N17239   0.332   5.248   2.393 -0.1707 -0.0376 -0.5495
  155OSM    C1517240   0.358   5.380   2.325  0.1525  0.6116  0.2825
  155OSM   H15A17241   0.433   5.368   2.248 -0.0619 -0.7559  0.2630
  155OSM   H15B17242   0.404   5.453   2.391  1.7804  1.1544 -1.3744
  155OSM   H15C17243   0.269   5.417   2.275  0.4611 -0.2518 -0.9389
  155OSM    C1417244   0.224   5.261   2.496 -0.2263 -0.0863  0.5813
  155OSM   H14A17245   0.248   5.336   2.569  3.6279 -1.5731  1.0664
  155OSM   H14B17246   0.211   5.165   2.544 -0.9402 -0.1029  0.3659
  155OSM   H14C17247   0.131   5.279   2.443  0.9067  0.4024 -1.3209
  155OSM    C1317248   0.294   5.151   2.291  0.4798  0.3440  0.1216
  155OSM   H13A17249   0.362   5.134   2.208 -1.7557 -3.9621 -1.1311
  155OSM   H13B17250   0.205   5.182   2.238  0.2724  1.7701  1.2514
  155OSM   H13C17251   0.266   5.052   2.325  3.1087 -1.3607 -2.2024
  155OSM    C1217252   0.460   5.196   2.458  0.5873 -0.4634  0.2848
  155OSM   H12A17253   0.498   5.269   2.527  0.8708 -0.0515 -0.3026
  155OSM   H12B17254   0.537   5.192   2.382  0.2680  2.7897 -0.3483
  155OSM    C1117255   0.453   5.061   2.530  0.0523 -0.1237  0.0743
  155OSM   H11A17256   0.411   4.979   2.469  0.4265 -0.2943  0.0450
  155OSM   H11B17257   0.388   5.079   2.619 -0.3030  1.7466 -0.4998
  155OSM      P17258   0.693   4.968   2.489  0.0194  0.1871 -0.2290
  155OSM    O1317259   0.679   5.021   2.354  0.4496 -0.1190 -0.3200
  155OSM    O1417260   0.830   4.984   2.550 -0.2322  0.0611  0.1285
  155OSM    O1117261   0.640   4.829   2.494 -0.6676  0.6338  0.5348
  155OSM    O1217262   0.581   5.037   2.579 -0.0944  0.5368 -0.5370
  155OSM    C1S17263   0.665   4.750   2.613 -0.2005  0.3383  0.4581
  155OSM    H1S17264   0.763   4.762   2.664  0.8001  1.0761 -1.5067
  155OSM    H1T17265   0.674   4.645   2.580  1.3831  0.4782  0.3590
  155OSM     NF17266   0.584   4.681   2.843 -0.1423  0.3384 -0.1646
  155OSM    HNF17267   0.542   4.591   2.851 -3.9448  1.8979 -0.5963
  155OSM    C2S17268   0.547   4.752   2.717  0.1838 -0.7390  0.0142
  155OSM    H2S17269   0.532   4.860   2.740  0.9179 -0.2807 -1.5254
  155OSM    C3S17270   0.420   4.692   2.649 -0.1649 -0.5385  0.5943
  155OSM    H3S17271   0.441   4.584   2.634 -0.5590 -0.4840 -0.4067
  155OSM     O317272   0.397   4.737   2.513  0.1145  0.0688 -0.3463
  155OSM    HO317273   0.478   4.783   2.487 -0.4299  1.7181  0.6743
  155OSM    C4S17274   0.290   4.699   2.736  0.2466  0.4681  0.0189
  155OSM    H4S17275   0.248   4.801   2.744  1.1279  0.7617  1.1457
  155OSM    C5S17276   0.238   4.594   2.801  0.0046  0.2066 -0.4808
  155OSM    H5S17277   0.277   4.493   2.783  1.1040  0.1298  1.9504
  155OSM    C6S17278   0.130   4.606   2.908  0.5053  0.3828 -0.0536
  155OSM    H6S17279   0.038   4.546   2.893  0.1651  0.9261 -0.1612
  155OSM    H6T17280   0.103   4.713   2.921 -0.1044  0.0960  1.1782
  155OSM    C7S17281   0.189   4.560   3.039 -0.6073  0.3487  0.7238
  155OSM    H7S17282   0.292   4.595   3.062 -0.5006  0.3738  0.2219
  155OSM    H7T17283   0.192   4.450   3.031 -1.7276  0.4494 -2.9826
  155OSM    C8S17284   0.095   4.573   3.165  0.1044 -0.5717  0.1179
  155OSM    H8S17285  -0.001   4.528   3.132 -0.1415 -0.9549  1.3315
  155OSM    H8T17286   0.073   4.681   3.178 -1.8924 -0.6629 -1.8327
  155OSM    C9S17287   0.149   4.530   3.301 -0.1100 -0.5067 -0.0382
  155OSM    H9S17288   0.251   4.572   3.313  0.2730 -1.8145  1.6370
  155OSM    H9T17289   0.158   4.421   3.319 -1.7610 -0.6691 -0.0483
  155OSM   C10S17290   0.071   4.589   3.424  1.0883  1.1296  0.3594
  155OSM   H10S17291  -0.034   4.553   3.431  1.8616 -1.3512  0.2152
  155OSM   H10T17292   0.059   4.698   3.403  0.9620  1.6404  2.8312
  155OSM   C11S17293   0.143   4.570   3.554 -0.0263  0.7797 -0.6742
  155OSM   H11S17294   0.248   4.605   3.539  0.0186 -0.1925 -2.9533
  155OSM   H11T17295   0.139   4.461   3.574 -0.2768  0.9166  0.0665
  155OSM   C12S17296   0.083   4.638   3.676 -0.4926 -0.3306  0.8061
  155OSM   H12S17297  -0.025   4.614   3.675 -0.3929 -0.7624  0.3736
  155OSM   H12T17298   0.087   4.749   3.667 -1.7693 -0.4591 -2.9242
  155OSM   C13S17299   0.150   4.578   3.800 -0.6042  0.1080 -0.7099
  155OSM   H13S17300   0.256   4.610   3.805 -0.0102 -1.8979  2.6366
  155OSM   H13T17301   0.147   4.468   3.810  2.6123 -0.0120 -0.1376
  155OSM   C14S17302   0.084   4.622   3.935  0.2918  0.0477 -0.4121
  155OSM   H14S17303  -0.014   4.577   3.963 -0.3025  1.6550  0.2247
  155OSM   H14T17304   0.075   4.733   3.944  1.3520  0.0314  1.2224
  155OSM   C15S17305   0.185   4.583   4.051  0.6404 -0.1694  0.2247
  155OSM   H15S17306   0.288   4.604   4.015  0.7188  2.5503  1.8062
  155OSM   H15T17307   0.168   4.473   4.060  0.6380 -0.0203  2.3122
  155OSM   C16S17308   0.174   4.652   4.179 -0.1499  1.0476 -0.3477
  155OSM   H16S17309   0.165   4.762   4.169  0.5405  1.2578  1.0741
  155OSM   H16T17310   0.274   4.640   4.227 -0.3292 -1.3620 -0.4589
  155OSM   C17S17311   0.078   4.593   4.269  0.6524 -0.2976 -0.8305
  155OSM   H17S17312  -0.013   4.572   4.210  0.6086 -2.5080 -0.0522
  155OSM   H17T17313   0.049   4.674   4.339  1.2322 -0.3580 -0.5077
  155OSM   C18S17314   0.124   4.472   4.345 -0.0004 -0.6332 -0.9481
  155OSM   H18S17315   0.234   4.475   4.365 -0.3146 -1.3431  1.1652
  155OSM   H18T17316   0.105   4.379   4.288  0.7611 -1.3508 -0.0696
  155OSM   H18U17317   0.076   4.470   4.446  2.0074  0.3508  0.0922
  155OSM    C1F17318   0.680   4.725   2.920  0.0546 -0.1088  0.1960
  155OSM     OF17319   0.739   4.826   2.887 -0.4141 -0.2527 -0.8226
  155OSM    C2F17320   0.724   4.653   3.039 -0.0749  0.4912  0.8281
  155OSM    H2F17321   0.802   4.581   3.007 -2.4112 -1.2294 -1.4404
  155OSM    H2G17322   0.642   4.593   3.085 -1.3743 -0.7698 -2.7784
  155OSM    C3F17323   0.805   4.738   3.139 -0.3262 -0.0535 -0.7702
  155OSM    H3F17324   0.750   4.830   3.171  0.8443 -0.0698  1.5180
  155OSM    H3G17325   0.893   4.783   3.088 -1.4675  3.1164 -0.2023
  155OSM    C4F17326   0.854   4.671   3.275  0.0879 -0.2630  0.0042
  155OSM    H4F17327   0.767   4.649   3.340  0.4828  1.6933  1.2496
  155OSM    H4G17328   0.911   4.747   3.332 -2.0841 -1.2083  3.7664
  155OSM    C5F17329   0.931   4.542   3.240 -0.2507  0.1500 -0.5485
  155OSM    H5F17330   1.011   4.571   3.168  0.2431  1.0483  0.3310
  155OSM    H5G17331   0.864   4.472   3.187 -0.2207 -0.2971 -0.0032
  155OSM    C6F17332   0.996   4.461   3.357  0.1590  0.1907  0.0556
  155OSM    H6F17333   1.014   4.360   3.317 -1.9195 -0.7024  1.2286
  155OSM    H6G17334   0.912   4.461   3.431 -0.4422  0.6233 -0.6117
  155OSM    C7F17335   1.124   4.534   3.415 -0.3555  0.2288  0.5903
  155OSM    H7F17336   1.108   4.643   3.399  1.0317  0.7032  2.1189
  155OSM    H7G17337   1.213   4.501   3.357 -0.8154 -2.9164  1.4929
  155OSM    C8F17338   1.158   4.516   3.558  0.1968 -0.1176 -0.8685
  155OSM    H8F17339   1.266   4.542   3.569 -0.3946  3.6198 -2.3099
  155OSM    H8G17340   1.138   4.416   3.603  0.3687  0.7168  1.1524
  155OSM    C9F17341   1.079   4.605   3.641  0.0537 -0.3729 -0.5359
  155OSM    H9F17342   0.977   4.568   3.658 -0.4771  1.8987  2.1322
  155OSM   C10F17343   1.114   4.722   3.692  0.3583  0.0814  0.1581
  155OSM   H10F17344   1.034   4.763   3.755  0.2739 -1.9730  1.5000
  155OSM   C11F17345   1.238   4.804   3.678 -0.1652 -0.6563 -0.4422
  155OSM   H11F17346   1.214   4.904   3.635 -2.4581 -0.6962  0.5877
  155OSM   H11G17347   1.313   4.779   3.601  0.9461  0.3168  0.2734
  155OSM   C12F17348   1.307   4.816   3.813 -0.4902 -0.0331  0.1229
  155OSM   H12F17349   1.411   4.855   3.804 -0.8455  1.1171  0.7348
  155OSM   H12G17350   1.317   4.718   3.864 -0.0263 -0.2437 -0.3617
  155OSM   C13F17351   1.218   4.909   3.900 -0.2355  0.4264  0.2158
  155OSM   H13F17352   1.124   4.853   3.919  0.9189 -1.2761  1.1054
  155OSM   H13G17353   1.191   4.998   3.839  2.2616  1.5362  0.6053
  155OSM   C14F17354   1.297   4.955   4.025 -0.0135  0.3263 -0.3564
  155OSM   H14F17355   1.368   5.033   3.991 -1.5741  1.0275 -2.2147
  155OSM   H14G17356   1.362   4.872   4.059 -0.2168 -0.1798 -1.1840
  155OSM   C15F17357   1.212   5.013   4.146  0.4788  0.1898 -1.0067
  155OSM   H15F17358   1.166   5.113   4.132 -3.2261 -0.7173  2.6698
  155OSM   H15G17359   1.289   5.029   4.224 -0.5328  1.0152 -0.1613
  155OSM   C16F17360   1.096   4.926   4.201 -0.3939 -0.7548 -0.2434
  155OSM   H16F17361   1.106   4.818   4.177  0.3688 -0.8407  0.4223
  155OSM   H16G17362   1.005   4.960   4.147  1.5641  0.3299 -3.0955
  155OSM   C17F17363   1.086   4.934   4.354  0.3508 -0.2978 -0.3367
  155OSM   H17F17364   1.185   4.951   4.401  0.1824 -2.4196  0.9494
  155OSM   H17G17365   1.068   4.833   4.397 -2.5255  1.1091  2.2308
  155OSM   C18F17366   0.966   5.014   4.414  0.3957 -1.1658 -0.2455
  155OSM   H18F17367   0.972   5.121   4.386 -0.3758 -0.6718  1.3610
  155OSM   H18G17368   0.972   5.010   4.525 -0.0014 -1.0200 -0.2179
  155OSM   H18H17369   0.866   4.970   4.393 -0.1325  0.6926 -1.8613
  156OSM      N17370   4.389   2.598   2.518  0.5507 -0.0548  0.0542
  156OSM    C1517371   4.386   2.752   2.542  0.3923  0.1891 -1.2757
  156OSM   H15A17372   4.474   2.791   2.591  0.9209 -0.8435 -1.3742
  156OSM   H15B17373   4.287   2.779   2.576 -0.1060 -1.2089 -1.5567
  156OSM   H15C17374   4.396   2.803   2.448  2.4625 -0.4568 -1.4628
  156OSM    C1417375   4.266   2.570   2.438 -0.2877  0.7112 -0.3450
  156OSM   H14A17376   4.262   2.467   2.407  1.6745  0.0090  1.5604
  156OSM   H14B17377   4.255   2.622   2.344 -3.2027  0.3084 -0.3402
  156OSM   H14C17378   4.174   2.584   2.492  0.6358 -0.9522  1.7733
  156OSM    C1317379   4.512   2.563   2.437 -0.4540 -0.9340  0.2576
  156OSM   H13A17380   4.595   2.590   2.500 -1.9301  1.4544  1.3547
  156OSM   H13B17381   4.516   2.613   2.341 -2.2583  2.3586  1.6921
  156OSM   H13C17382   4.520   2.457   2.419  2.0165 -0.6528 -0.6247
  156OSM    C1217383   4.379   2.512   2.642 -0.1870  0.1407 -0.5341
  156OSM   H12A17384   4.363   2.410   2.610 -1.7090  0.6481 -1.5051
  156OSM   H12B17385   4.295   2.536   2.707 -0.9222 -0.7807 -1.1225
  156OSM    C1117386   4.500   2.494   2.734 -1.1282 -0.7445 -0.3691
  156OSM   H11A17387   4.464   2.450   2.829 -2.3739 -1.8689 -1.3167
  156OSM   H11B17388   4.556   2.590   2.741  2.4972 -2.7305 -0.0230
  156OSM      P17389   4.744   2.405   2.681  0.5907  0.2556  0.0545
  156OSM    O1317390   4.801   2.279   2.633  0.0510  0.1451  0.5088
  156OSM    O1417391   4.779   2.521   2.600  0.1944 -0.2594  0.0191
  156OSM    O1117392   4.765   2.426   2.834 -0.1463 -0.0450  0.6497
  156OSM    O1217393   4.583   2.392   2.680  0.5202 -0.6134 -0.1847
  156OSM    C1S17394   4.732   2.312   2.915 -0.2214 -0.1167  0.2546
  156OSM    H1S17395   4.813   2.238   2.899 -0.0140  0.0016  0.7400
  156OSM    H1T17396   4.630   2.269   2.899 -0.6107  0.5421  0.8987
  156OSM     NF17397   4.717   2.218   3.142  0.6998 -0.2371 -0.9775
  156OSM    HNF17398   4.625   2.203   3.176  0.7369 -1.6670 -1.4439
  156OSM    C2S17399   4.732   2.346   3.069 -0.3670  0.4732  0.2512
  156OSM    H2S17400   4.832   2.387   3.094 -1.0005  1.7941  0.7067
  156OSM    C3S17401   4.629   2.454   3.098  0.0124 -0.5049 -1.1602
  156OSM    H3S17402   4.532   2.428   3.051 -0.6656 -0.1237 -0.0141
  156OSM     O317403   4.667   2.579   3.033  0.4062  0.8187  0.0163
  156OSM    HO317404   4.726   2.551   2.963  1.2462  0.2727  0.9212
  156OSM    C4S17405   4.598   2.474   3.243 -0.0515  0.7584  0.4012
  156OSM    H4S17406   4.679   2.491   3.316  1.0130 -0.1292 -0.5463
  156OSM    C5S17407   4.469   2.473   3.280 -0.3268 -0.7831  0.2879
  156OSM    H5S17408   4.398   2.441   3.203  1.4192  0.0982 -1.7965
  156OSM    C6S17409   4.413   2.513   3.420  0.2400  0.1587 -0.0734
  156OSM    H6S17410   4.455   2.446   3.499  3.0039 -0.4563 -1.9059
  156OSM    H6T17411   4.303   2.525   3.428  0.2933  1.8039 -1.3649
  156OSM    C7S17412   4.455   2.649   3.475  0.3043 -0.4073  0.4856
  156OSM    H7S17413   4.444   2.719   3.389  0.3915 -0.0842  0.7338
  156OSM    H7T17414   4.563   2.648   3.500  0.2583  0.5975  0.7789
  156OSM    C8S17415   4.380   2.710   3.596 -0.0249 -0.1693 -0.1051
  156OSM    H8S17416   4.385   2.637   3.679 -3.3701 -1.9723 -1.2724
  156OSM    H8T17417   4.272   2.723   3.573  0.2228  0.2798 -1.0627
  156OSM    C9S17418   4.426   2.854   3.627  0.1026 -0.2475 -0.4215
  156OSM    H9S17419   4.390   2.914   3.541  0.2144  1.2619  0.5689
  156OSM    H9T17420   4.537   2.858   3.618  0.1324 -1.9439 -1.3739
  156OSM   C10S17421   4.382   2.917   3.765  0.5325 -0.5470 -0.3261
  156OSM   H10S17422   4.424   3.019   3.775  1.2614 -0.8105 -0.5587
  156OSM   H10T17423   4.415   2.854   3.850  0.7629  1.4450  1.1157
  156OSM   C11S17424   4.228   2.920   3.777  0.0244  0.1030 -0.3440
  156OSM   H11S17425   4.192   2.815   3.783  0.1377  0.1336  1.6745
  156OSM   H11T17426   4.203   2.969   3.681  0.2445 -0.3217 -0.6195
  156OSM   C12S17427   4.173   2.995   3.899  0.2394  0.1257 -0.4671
  156OSM   H12S17428   4.072   3.021   3.861  0.7614 -0.2980 -2.2356
  156OSM   H12T17429   4.231   3.087   3.920 -2.7307  2.2367 -0.9216
  156OSM   C13S17430   4.163   2.908   4.030  0.4911  0.4279  0.5107
  156OSM   H13S17431   4.265   2.865   4.039  0.1753 -1.0987 -2.2304
  156OSM   H13T17432   4.099   2.819   4.007 -2.1862  2.1025  1.0630
  156OSM   C14S17433   4.124   2.976   4.159 -0.2972 -0.0465 -0.0329
  156OSM   H14S17434   4.206   3.049   4.175 -0.7122  0.8107 -1.6192
  156OSM   H14T17435   4.129   2.901   4.241  2.2993 -0.5666 -0.5855
  156OSM   C15S17436   3.980   3.036   4.148 -0.1127  0.0119 -1.0423
  156OSM   H15S17437   3.907   2.952   4.144 -1.0043  0.4692  2.2739
  156OSM   H15T17438   3.972   3.095   4.054 -0.2579  1.6377 -0.0458
  156OSM   C16S17439   3.948   3.127   4.273  0.2824 -0.1238  1.1765
  156OSM   H16S17440   3.855   3.184   4.253  0.7690  0.1501 -0.5180
  156OSM   H16T17441   4.030   3.201   4.289  0.7716  0.0925 -1.7555
  156OSM   C17S17442   3.927   3.045   4.395 -0.5934  0.3771  0.0799
  156OSM   H17S17443   4.019   2.987   4.419 -1.8313 -1.1028  1.4310
  156OSM   H17T17444   3.851   2.967   4.375 -0.6449  0.7771 -1.3855
  156OSM   C18S17445   3.879   3.119   4.513  0.8620 -0.6370 -0.0170
  156OSM   H18S17446   3.790   3.175   4.479 -1.0033 -1.8365  2.5556
  156OSM   H18T17447   3.948   3.199   4.547 -1.2859  0.4695  1.9735
  156OSM   H18U17448   3.867   3.046   4.596  0.9469 -2.0982 -1.2299
  156OSM    C1F17449   4.813   2.122   3.143 -0.6612 -0.3037 -0.2160
  156OSM     OF17450   4.920   2.141   3.081 -0.5630 -0.2729 -0.1274
  156OSM    C2F17451   4.784   1.984   3.206  0.6346 -0.5453 -0.7279
  156OSM    H2F17452   4.846   1.914   3.147  0.5669 -0.7917 -0.5084
  156OSM    H2G17453   4.676   1.959   3.204  0.0904  1.6167 -1.8235
  156OSM    C3F17454   4.830   1.973   3.357  0.1243 -0.0796  0.1274
  156OSM    H3F17455   4.920   2.037   3.368 -1.7802  2.5528  1.4376
  156OSM    H3G17456   4.850   1.865   3.377  0.3835  0.3327  2.3007
  156OSM    C4F17457   4.722   2.022   3.454  0.1683 -0.2869 -0.3653
  156OSM    H4F17458   4.625   1.985   3.417  0.2779  0.1153 -1.0715
  156OSM    H4G17459   4.718   2.132   3.441  0.3847 -0.3316 -0.8416
  156OSM    C5F17460   4.743   1.978   3.597 -0.0822 -0.6154  0.4356
  156OSM    H5F17461   4.792   1.878   3.605  1.2224 -0.2460 -2.0408
  156OSM    H5G17462   4.644   1.971   3.647  0.0857  0.2110  0.9068
  156OSM    C6F17463   4.824   2.086   3.672  0.0673  0.1954 -0.1897
  156OSM    H6F17464   4.771   2.182   3.689  2.5542  1.5155  0.8042
  156OSM    H6G17465   4.914   2.113   3.613  1.3209 -2.3928  0.3883
  156OSM    C7F17466   4.869   2.029   3.805  0.5241 -0.0953  0.1486
  156OSM    H7F17467   4.952   1.958   3.782  1.0646  0.5575  0.0409
  156OSM    H7G17468   4.785   1.965   3.840  0.3961 -0.2641 -0.4412
  156OSM    C8F17469   4.907   2.126   3.911 -0.0545  0.1795 -0.4439
  156OSM    H8F17470   4.821   2.194   3.930  0.9109  1.0620  0.9169
  156OSM    H8G17471   4.986   2.199   3.882  1.4147  0.0200  2.8525
  156OSM    C9F17472   4.946   2.067   4.043  0.5693  0.6279 -0.2669
  156OSM    H9F17473   4.990   1.966   4.036  2.3460  1.0232  2.8800
  156OSM   C10F17474   4.928   2.107   4.170 -0.3536  0.7444  0.6362
  156OSM   H10F17475   4.972   2.041   4.245  3.1681  0.8002 -1.1642
  156OSM   C11F17476   4.872   2.237   4.219 -0.0445  0.1188  0.2762
  156OSM   H11F17477   4.843   2.228   4.326 -0.3121 -1.2602  0.0959
  156OSM   H11G17478   4.770   2.255   4.178  0.3197 -0.3419 -0.8349
  156OSM   C12F17479   4.956   2.364   4.199  0.2793  0.2794 -0.0662
  156OSM   H12F17480   4.971   2.376   4.089 -1.0937  3.1675 -0.0165
  156OSM   H12G17481   5.054   2.353   4.251 -0.5068 -0.0125  1.4115
  156OSM   C13F17482   4.906   2.493   4.250 -0.4436  0.0478 -0.7509
  156OSM   H13F17483   4.798   2.514   4.236 -0.2522  0.5982 -1.4677
  156OSM   H13G17484   4.968   2.578   4.213 -0.4002  0.4003  0.1154
  156OSM   C14F17485   4.918   2.502   4.405 -0.0340  0.7941  0.5194
  156OSM   H14F17486   4.870   2.415   4.455 -0.3494  0.2033 -0.7632
  156OSM   H14G17487   4.850   2.585   4.432 -1.9015 -0.4935 -0.0051
  156OSM   C15F17488   5.065   2.530   4.459  0.1882  0.3820  0.2984
  156OSM   H15F17489   5.109   2.618   4.408 -1.7330  1.4460  0.3814
  156OSM   H15G17490   5.135   2.447   4.434  0.9972  1.2252 -0.3240
  156OSM   C16F17491   5.065   2.530   4.611  0.2046 -0.2678 -0.0775
  156OSM   H16F17492   5.007   2.450   4.661  2.2134 -0.5807  1.9030
  156OSM   H16G17493   5.015   2.619   4.655 -1.4382 -1.8349  1.3850
  156OSM   C17F17494   5.211   2.537   4.669  0.1290  0.0008  0.6144
  156OSM   H17F17495   5.262   2.628   4.629 -1.0549  0.6981  0.6496
  156OSM   H17G17496   5.260   2.442   4.638 -1.5584 -0.9386  0.7205
  156OSM   C18F17497   5.217   2.539   4.827  0.2510 -0.7400 -0.1244
  156OSM   H18F17498   5.207   2.438   4.871  1.0485 -0.4532  0.7621
  156OSM   H18G17499   5.137   2.602   4.873 -0.6938 -0.8810 -1.5163
  156OSM   H18H17500   5.314   2.575   4.867 -0.3402  1.1308 -0.2574
  157OSM      N17501   2.776   1.527   2.169 -0.2510  0.0731 -0.1107
  157OSM    C1517502   2.657   1.462   2.106  0.5670  0.1260 -0.3745
  157OSM   H15A17503   2.690   1.373   2.056  1.8695  2.5453 -4.2486
  157OSM   H15B17504   2.610   1.528   2.035  0.7418 -0.9407 -1.5102
  157OSM   H15C17505   2.579   1.432   2.174  0.1584  2.9625  0.5284
  157OSM    C1417506   2.844   1.429   2.264  1.3135 -0.4992  0.3370
  157OSM   H14A17507   2.939   1.470   2.297  1.8523 -1.1777 -0.3103
  157OSM   H14B17508   2.877   1.345   2.204  0.0250  1.0428 -2.7453
  157OSM   H14C17509   2.790   1.400   2.352  1.0048  1.6049  0.8840
  157OSM    C1317510   2.878   1.546   2.062  0.0588  0.2868 -0.0507
  157OSM   H13A17511   2.896   1.454   2.010 -2.1675 -0.2097 -0.0226
  157OSM   H13B17512   2.971   1.582   2.104 -0.4035  0.9475  0.4414
  157OSM   H13C17513   2.843   1.617   1.989 -0.3251  1.5055  1.2615
  157OSM    C1217514   2.738   1.666   2.236  0.1677  0.5783  0.0401
  157OSM   H12A17515   2.828   1.694   2.289  1.6328 -2.7570 -0.4117
  157OSM   H12B17516   2.688   1.639   2.328  0.2760  1.1501  0.2692
  157OSM    C1117517   2.665   1.777   2.154 -0.0423  0.1205  0.0616
  157OSM   H11A17518   2.711   1.795   2.055  0.2702 -0.7233  0.0518
  157OSM   H11B17519   2.682   1.875   2.204  1.6183 -0.0328 -0.1551
  157OSM      P17520   2.424   1.724   2.256  0.2789  0.0429  0.3827
  157OSM    O1317521   2.301   1.804   2.218  0.1772 -0.1355  0.0241
  157OSM    O1417522   2.407   1.578   2.278  0.5551  0.2456  0.2674
  157OSM    O1117523   2.490   1.789   2.378 -0.5184 -1.0988 -0.4277
  157OSM    O1217524   2.529   1.738   2.134 -0.1205  0.0358 -0.0664
  157OSM    C1S17525   2.502   1.928   2.399  0.6586  0.5800 -0.1288
  157OSM    H1S17526   2.434   1.978   2.326  2.2509 -0.8389 -2.7249
  157OSM    H1T17527   2.608   1.961   2.391 -0.1999  3.6893 -0.0238
  157OSM     NF17528   2.446   2.113   2.574  0.7243  0.6787  0.1325
  157OSM    HNF17529   2.517   2.156   2.629  0.5810  2.3096 -0.8661
  157OSM    C2S17530   2.464   1.968   2.547 -0.5863 -0.4124 -0.4201
  157OSM    H2S17531   2.368   1.913   2.564  0.0380 -1.6517 -0.7745
  157OSM    C3S17532   2.567   1.914   2.648 -0.4537  0.4064 -0.5145
  157OSM    H3S17533   2.666   1.962   2.636  0.1553 -1.1431 -2.1479
  157OSM     O317534   2.588   1.773   2.635 -0.7604 -0.0327 -0.2844
  157OSM    HO317535   2.539   1.744   2.558 -1.0984 -0.9622  0.2775
  157OSM    C4S17536   2.531   1.945   2.794 -0.3088 -0.0697  0.3440
  157OSM    H4S17537   2.595   2.023   2.838 -0.8002  1.1756 -1.0963
  157OSM    C5S17538   2.439   1.881   2.863 -0.2897  0.3282 -0.2524
  157OSM    H5S17539   2.370   1.817   2.806 -1.2684  0.0132  1.2292
  157OSM    C6S17540   2.420   1.899   3.010  0.1359  0.2033  0.4189
  157OSM    H6S17541   2.414   1.800   3.061  1.8649 -0.0709  0.1463
  157OSM    H6T17542   2.316   1.939   3.018 -0.6041 -1.1543 -1.7113
  157OSM    C7S17543   2.521   1.990   3.085  0.5376  0.1388 -0.3186
  157OSM    H7S17544   2.480   2.089   3.054  1.1292  0.0814 -1.3532
  157OSM    H7T17545   2.628   1.978   3.058  0.0705 -3.1539 -1.1398
  157OSM    C8S17546   2.504   1.980   3.233 -0.5633 -0.3377 -0.2873
  157OSM    H8S17547   2.399   2.000   3.261 -0.7042 -1.6506  0.1715
  157OSM    H8T17548   2.571   2.063   3.266 -1.3381  0.8836 -1.6904
  157OSM    C9S17549   2.537   1.843   3.297  0.2990 -0.1721  0.2692
  157OSM    H9S17550   2.643   1.822   3.273  0.1722  1.3959 -1.9288
  157OSM    H9T17551   2.466   1.766   3.262  0.9916 -0.6238 -0.1543
  157OSM   C10S17552   2.523   1.841   3.453 -0.1741  0.3040 -0.2451
  157OSM   H10S17553   2.500   1.739   3.492 -4.1948  2.1088  2.8420
  157OSM   H10T17554   2.432   1.903   3.463 -2.8597 -3.2061 -1.0548
  157OSM   C11S17555   2.646   1.901   3.526 -0.0164  0.2323  0.0089
  157OSM   H11S17556   2.671   1.996   3.474 -4.0267  1.0023 -0.8172
  157OSM   H11T17557   2.736   1.837   3.540 -0.8665 -0.8709  0.6320
  157OSM   C12S17558   2.592   1.937   3.662 -0.9361 -0.1346 -0.0012
  157OSM   H12S17559   2.547   1.845   3.706  1.5657 -1.5832 -0.3011
  157OSM   H12T17560   2.520   2.021   3.675 -0.3461  0.4831 -0.6384
  157OSM   C13S17561   2.711   1.970   3.748 -0.2458 -0.1587 -0.2460
  157OSM   H13S17562   2.763   2.061   3.714 -1.2381  0.8097  0.7483
  157OSM   H13T17563   2.786   1.888   3.757  2.4632  2.1143 -0.7741
  157OSM   C14S17564   2.685   1.981   3.899  0.1528  0.2302  0.0702
  157OSM   H14S17565   2.612   1.903   3.929  0.2413  0.6012  1.2831
  157OSM   H14T17566   2.637   2.079   3.916 -0.6969 -0.0068 -0.8077
  157OSM   C15S17567   2.817   1.955   3.970  1.0321 -0.0731  0.2380
  157OSM   H15S17568   2.893   2.036   3.966  0.0958  0.7777 -0.8227
  157OSM   H15T17569   2.867   1.860   3.938 -0.8977 -1.9166  2.3965
  157OSM   C16S17570   2.788   1.930   4.120  0.7988 -0.1453 -0.2995
  157OSM   H16S17571   2.882   1.931   4.178  0.9872 -1.9583 -0.5135
  157OSM   H16T17572   2.730   1.835   4.133  2.0753 -0.7379  1.5255
  157OSM   C17S17573   2.705   2.042   4.185  0.2323  0.4165 -1.0918
  157OSM   H17S17574   2.603   2.048   4.142  0.1681  1.0925 -0.8550
  157OSM   H17T17575   2.743   2.144   4.162 -0.3846  0.7366 -0.7234
  157OSM   C18S17576   2.685   2.032   4.340 -0.5865 -0.8787  0.3229
  157OSM   H18S17577   2.777   2.066   4.391 -1.2666 -0.5985  1.3955
  157OSM   H18T17578   2.659   1.926   4.361 -0.7699 -1.4961 -2.6299
  157OSM   H18U17579   2.604   2.100   4.374  1.1410  0.5903  1.6604
  157OSM    C1F17580   2.339   2.180   2.528 -0.0265  0.4096  0.4350
  157OSM     OF17581   2.252   2.122   2.465  0.0290 -0.2226 -0.3591
  157OSM    C2F17582   2.350   2.333   2.544  0.4906  0.0176 -0.4555
  157OSM    H2F17583   2.316   2.384   2.452 -1.6864 -3.0877 -1.5491
  157OSM    H2G17584   2.453   2.352   2.582  0.7771 -1.7090 -0.2620
  157OSM    C3F17585   2.254   2.381   2.660  0.3391 -0.1954 -0.4169
  157OSM    H3F17586   2.149   2.375   2.625 -0.5546  1.9423  1.5636
  157OSM    H3G17587   2.280   2.489   2.658 -0.7237  0.1056 -4.1331
  157OSM    C4F17588   2.299   2.319   2.796 -0.2761 -0.0556 -0.2266
  157OSM    H4F17589   2.405   2.331   2.825 -0.1732 -1.4279 -0.0025
  157OSM    H4G17590   2.281   2.211   2.780  2.0552 -0.0527 -4.0689
  157OSM    C5F17591   2.227   2.381   2.917  0.2575 -0.1747 -0.0678
  157OSM    H5F17592   2.117   2.366   2.908 -0.0854  2.7104 -2.1631
  157OSM    H5G17593   2.245   2.490   2.907  0.4130 -0.3882 -2.9787
  157OSM    C6F17594   2.266   2.328   3.058 -0.0174 -0.3741 -0.0862
  157OSM    H6F17595   2.375   2.347   3.063  0.0576 -0.5354 -1.0099
  157OSM    H6G17596   2.235   2.221   3.059 -1.2881 -0.0297 -0.4371
  157OSM    C7F17597   2.202   2.405   3.182 -0.8731 -0.0326 -0.3652
  157OSM    H7F17598   2.094   2.379   3.179 -0.5459 -1.4760 -0.1427
  157OSM    H7G17599   2.209   2.512   3.152 -3.0932  0.5916  1.0498
  157OSM    C8F17600   2.270   2.378   3.329 -0.3025 -0.0825 -0.2622
  157OSM    H8F17601   2.225   2.453   3.396  0.8677  0.4635 -0.0701
  157OSM    H8G17602   2.378   2.403   3.319 -0.6004  0.9201 -1.1505
  157OSM    C9F17603   2.247   2.239   3.380  0.1897  0.2009 -0.0613
  157OSM    H9F17604   2.180   2.174   3.323 -2.0689  1.8836  0.5144
  157OSM   C10F17605   2.275   2.203   3.502 -0.1456  0.4655 -0.3902
  157OSM   H10F17606   2.257   2.099   3.533 -2.1698  1.4204  1.9620
  157OSM   C11F17607   2.361   2.288   3.589 -0.4933  1.1205 -0.4145
  157OSM   H11F17608   2.393   2.387   3.548  0.8305  1.5994  1.6261
  157OSM   H11G17609   2.456   2.230   3.585  0.2046  2.2629 -1.2660
  157OSM   C12F17610   2.317   2.306   3.731 -0.4756 -1.0273 -0.5365
  157OSM   H12F17611   2.234   2.380   3.732 -0.0770 -0.5653 -1.1671
  157OSM   H12G17612   2.399   2.358   3.785 -0.3125 -2.8153  1.0379
  157OSM   C13F17613   2.308   2.182   3.806 -0.1239 -0.1128  0.9973
  157OSM   H13F17614   2.402   2.124   3.815 -0.2786 -0.5197  0.1007
  157OSM   H13G17615   2.238   2.110   3.757  0.4692 -1.4871  2.1019
  157OSM   C14F17616   2.261   2.211   3.950  0.4787 -0.3810 -0.0170
  157OSM   H14F17617   2.158   2.253   3.953  0.1040 -1.1307 -1.3789
  157OSM   H14G17618   2.337   2.274   4.001  0.0028 -2.2562  3.3154
  157OSM   C15F17619   2.255   2.084   4.043  0.4706 -0.0266  0.3425
  157OSM   H15F17620   2.350   2.027   4.047 -0.3556 -1.4742  0.0198
  157OSM   H15G17621   2.187   2.005   4.005 -0.8394 -0.0560  2.5931
  157OSM   C16F17622   2.210   2.120   4.181 -0.4152  0.4562 -0.3063
  157OSM   H16F17623   2.105   2.156   4.179 -0.2044  1.3774  1.8841
  157OSM   H16G17624   2.278   2.202   4.212 -0.4252  0.3130  0.1020
  157OSM   C17F17625   2.207   1.991   4.281 -0.0981  0.4888 -0.2238
  157OSM   H17F17626   2.304   1.937   4.275 -0.0041  0.7048 -0.6727
  157OSM   H17G17627   2.143   1.916   4.229  0.9980 -1.3838  0.9915
  157OSM   C18F17628   2.166   2.010   4.431 -0.1329 -0.3430  0.0833
  157OSM   H18F17629   2.151   1.917   4.489  0.4656 -0.9537 -0.7207
  157OSM   H18G17630   2.068   2.062   4.433  0.4454  0.9034 -1.3109
  157OSM   H18H17631   2.247   2.068   4.481  0.3102 -1.8330  1.1736
  158OSM      N17632   1.759   1.889   2.267  0.1608 -0.0850  0.1493
  158OSM    C1517633   1.900   1.830   2.272  0.2966  0.3210 -0.0241
  158OSM   H15A17634   1.900   1.724   2.295 -0.1057  0.0760 -1.0533
  158OSM   H15B17635   1.968   1.879   2.339 -0.6202  3.2684 -1.0954
  158OSM   H15C17636   1.938   1.829   2.171  0.2269 -0.5214 -0.0493
  158OSM    C1417637   1.720   1.906   2.410  0.2804  0.1795 -1.0086
  158OSM   H14A17638   1.731   1.811   2.459  0.2567  1.0126  0.6989
  158OSM   H14B17639   1.620   1.947   2.413 -0.2243 -1.0789  0.8600
  158OSM   H14C17640   1.782   1.973   2.469 -0.1314 -1.0555  0.9417
  158OSM    C1317641   1.758   2.019   2.197 -0.2090 -0.3324 -1.1847
  158OSM   H13A17642   1.659   2.063   2.194 -0.5393 -0.9060  0.3627
  158OSM   H13B17643   1.796   2.011   2.097  1.7722 -0.3069 -0.4910
  158OSM   H13C17644   1.833   2.076   2.251  2.8435 -3.1429 -2.1198
  158OSM    C1217645   1.671   1.783   2.201 -0.5418  0.2733  0.5084
  158OSM   H12A17646   1.650   1.703   2.271  2.6639 -2.0479 -0.9473
  158OSM   H12B17647   1.723   1.734   2.120 -1.2693  0.3284 -0.0032
  158OSM    C1117648   1.533   1.826   2.141 -0.2065 -0.7880  0.2779
  158OSM   H11A17649   1.476   1.732   2.127 -1.6092 -0.1526  1.4839
  158OSM   H11B17650   1.539   1.867   2.038 -4.6499  1.2321  0.6027
  158OSM      P17651   1.313   1.962   2.231 -0.1118  0.2180 -0.2192
  158OSM    O1317652   1.300   2.104   2.202 -0.2136 -0.9178 -0.7664
  158OSM    O1417653   1.239   1.867   2.135 -0.2606  0.0976 -0.9736
  158OSM    O1117654   1.260   1.921   2.376  0.4985  0.1683  0.2262
  158OSM    O1217655   1.462   1.916   2.224  0.4212  0.0670 -0.2035
  158OSM    C1S17656   1.342   1.833   2.460 -0.5521 -0.2853  0.5881
  158OSM    H1S17657   1.448   1.869   2.462 -0.4970 -0.1269 -2.1424
  158OSM    H1T17658   1.346   1.730   2.418  1.3764  1.0549 -2.9644
  158OSM     NF17659   1.367   1.741   2.687 -0.7450 -0.3552  0.5101
  158OSM    HNF17660   1.349   1.644   2.697 -0.6294 -0.4200  0.1090
  158OSM    C2S17661   1.278   1.821   2.604  0.6015  0.4989 -0.0024
  158OSM    H2S17662   1.269   1.925   2.642 -0.9463 -0.0233  1.1745
  158OSM    C3S17663   1.138   1.747   2.600  0.2408 -0.2479 -0.0657
  158OSM    H3S17664   1.137   1.642   2.562  1.5375 -0.2948 -0.0208
  158OSM     O317665   1.053   1.796   2.494 -0.6965  0.0084  0.0486
  158OSM    HO317666   1.109   1.843   2.432  0.3442 -2.2930 -0.8981
  158OSM    C4S17667   1.058   1.764   2.726  0.2156  0.3686  0.7408
  158OSM    H4S17668   1.031   1.868   2.751  0.0451  0.4052  0.4091
  158OSM    C5S17669   1.006   1.663   2.795  0.1850 -0.1154  0.2631
  158OSM    H5S17670   1.008   1.559   2.759  0.2337 -0.4127  1.1089
  158OSM    C6S17671   0.916   1.678   2.910 -0.1080 -0.2450 -0.1357
  158OSM    H6S17672   0.821   1.622   2.896 -0.9303  1.3643 -1.2752
  158OSM    H6T17673   0.882   1.784   2.908 -0.1317 -0.2302  0.6868
  158OSM    C7S17674   0.978   1.635   3.051  0.3307 -0.0342 -0.1946
  158OSM    H7S17675   1.088   1.653   3.052  0.0299  2.1984 -1.2393
  158OSM    H7T17676   0.964   1.525   3.065 -0.3236  0.0087 -0.5253
  158OSM    C8S17677   0.909   1.693   3.178 -0.5749 -0.6589 -0.0639
  158OSM    H8S17678   0.937   1.797   3.202 -1.1547 -0.6156  0.4246
  158OSM    H8T17679   0.948   1.638   3.266 -0.0865 -0.9127 -0.4319
  158OSM    C9S17680   0.753   1.670   3.178 -0.1809 -0.1736  0.6067
  158OSM    H9S17681   0.740   1.560   3.167 -0.9123  0.0834 -1.4449
  158OSM    H9T17682   0.704   1.730   3.099 -0.3761  0.1755  0.9842
  158OSM   C10S17683   0.702   1.715   3.321  0.9527  0.1273  0.3986
  158OSM   H10S17684   0.597   1.748   3.306  0.5634 -1.3626 -0.3384
  158OSM   H10T17685   0.757   1.805   3.355  1.8110 -0.9693  2.0509
  158OSM   C11S17686   0.714   1.615   3.434  0.2886  0.7022 -0.5784
  158OSM   H11S17687   0.819   1.577   3.434  0.8843  2.2909 -1.1841
  158OSM   H11T17688   0.647   1.529   3.411  0.3596  0.5116 -0.0857
  158OSM   C12S17689   0.668   1.674   3.569 -0.3116 -0.0567  1.0596
  158OSM   H12S17690   0.566   1.720   3.564 -0.0998  0.4576  1.4011
  158OSM   H12T17691   0.738   1.758   3.589 -0.0843  0.1574 -0.4542
  158OSM   C13S17692   0.670   1.572   3.682 -0.6320  0.6448 -0.5177
  158OSM   H13S17693   0.772   1.528   3.690 -0.9997 -0.0687  0.3656
  158OSM   H13T17694   0.609   1.483   3.658  0.1420 -0.0563  0.0228
  158OSM   C14S17695   0.629   1.617   3.824 -0.2253 -0.2231  0.0709
  158OSM   H14S17696   0.535   1.677   3.821  1.2310  2.4959  2.7601
  158OSM   H14T17697   0.708   1.687   3.858 -1.3785  1.6904 -1.0237
  158OSM   C15S17698   0.621   1.514   3.936 -0.6947 -0.3699  0.1171
  158OSM   H15S17699   0.714   1.455   3.918  0.3401  0.8568  1.2837
  158OSM   H15T17700   0.539   1.439   3.928 -0.5289 -0.3835 -2.2305
  158OSM   C16S17701   0.607   1.567   4.076 -0.1582 -0.2241  0.2642
  158OSM   H16S17702   0.546   1.660   4.067 -0.3284 -0.4515 -1.1758
  158OSM   H16T17703   0.703   1.596   4.125 -0.9463  1.7615  0.7295
  158OSM   C17S17704   0.534   1.475   4.168  0.7358  0.6947  0.0067
  158OSM   H17S17705   0.464   1.412   4.109  1.1690  0.3672 -0.1648
  158OSM   H17T17706   0.475   1.545   4.230  0.3332  2.3504 -2.1260
  158OSM   C18S17707   0.619   1.386   4.252  0.3736  0.2054 -0.0861
  158OSM   H18S17708   0.686   1.322   4.190 -1.6186 -0.7090 -1.4332
  158OSM   H18T17709   0.563   1.320   4.322  2.2782 -0.0453  1.2734
  158OSM   H18U17710   0.689   1.452   4.307 -2.6136  4.1129 -0.5601
  158OSM    C1F17711   1.486   1.796   2.732  0.2515 -0.5154  0.0548
  158OSM     OF17712   1.517   1.915   2.722 -0.3776  0.0543 -0.5064
  158OSM    C2F17713   1.585   1.703   2.803  0.2299 -0.2459 -0.4245
  158OSM    H2F17714   1.674   1.756   2.844 -1.5665  0.8062  2.4539
  158OSM    H2G17715   1.616   1.645   2.714  0.0046  2.0120 -2.0681
  158OSM    C3F17716   1.525   1.621   2.916  0.1362  0.2543 -0.1415
  158OSM    H3F17717   1.461   1.544   2.868 -2.3243  2.1099 -0.0546
  158OSM    H3G17718   1.441   1.674   2.966  0.5187  1.2101 -0.4806
  158OSM    C4F17719   1.620   1.582   3.024 -0.1104  0.2585 -0.7083
  158OSM    H4F17720   1.657   1.673   3.077  0.6912 -0.4170 -0.0871
  158OSM    H4G17721   1.705   1.530   2.976  1.4612  3.5384 -1.7798
  158OSM    C5F17722   1.560   1.493   3.134 -0.1347  0.0832  0.0094
  158OSM    H5F17723   1.549   1.390   3.094  0.0178 -0.7135  1.9050
  158OSM    H5G17724   1.457   1.526   3.159  0.2546 -1.1940  3.8702
  158OSM    C6F17725   1.662   1.492   3.255  0.2751 -0.5240  0.2317
  158OSM    H6F17726   1.669   1.595   3.297  2.3567  0.1609 -1.6287
  158OSM    H6G17727   1.760   1.448   3.228  1.6937  0.3481  3.4998
  158OSM    C7F17728   1.612   1.399   3.368  0.3401 -0.1472  0.4478
  158OSM    H7F17729   1.608   1.292   3.339  2.7733 -0.0994 -0.2820
  158OSM    H7G17730   1.508   1.431   3.388  0.4582  0.4596  0.1334
  158OSM    C8F17731   1.695   1.401   3.498  0.3579  0.7793  0.2606
  158OSM    H8F17732   1.696   1.506   3.536 -0.1319  0.5690  0.8615
  158OSM    H8G17733   1.803   1.391   3.470  0.3880  1.3703  0.1535
  158OSM    C9F17734   1.639   1.311   3.599  0.0693 -0.2234 -0.2331
  158OSM    H9F17735   1.530   1.307   3.606 -0.0151 -1.3917 -1.7331
  158OSM   C10F17736   1.707   1.240   3.684 -0.7187  0.6929 -0.2525
  158OSM   H10F17737   1.657   1.171   3.753  0.1584 -0.8513 -1.1110
  158OSM   C11F17738   1.856   1.237   3.692  0.1983 -0.3076 -0.6813
  158OSM   H11F17739   1.896   1.333   3.651  0.8402 -0.9692 -1.6521
  158OSM   H11G17740   1.889   1.154   3.626  1.1732 -0.1061 -0.4618
  158OSM   C12F17741   1.913   1.226   3.839 -0.6806  0.6843 -0.3820
  158OSM   H12F17742   1.907   1.321   3.895 -0.3970  0.1881  0.5170
  158OSM   H12G17743   2.023   1.229   3.820 -0.8061  2.3994 -1.0065
  158OSM   C13F17744   1.876   1.092   3.915  0.2282 -0.0254  0.2284
  158OSM   H13F17745   1.911   1.016   3.842  0.4188  0.3773 -0.1010
  158OSM   H13G17746   1.765   1.089   3.911  0.0489  3.2782 -0.0150
  158OSM   C14F17747   1.960   1.076   4.044  0.0585 -0.3687 -0.9191
  158OSM   H14F17748   2.067   1.101   4.028  0.4927 -0.1854  1.7589
  158OSM   H14G17749   1.954   0.968   4.069  0.4464 -0.6316 -1.9236
  158OSM   C15F17750   1.905   1.161   4.159  0.3517 -0.8989 -0.2151
  158OSM   H15F17751   1.810   1.115   4.196  0.1158  0.0752  0.4110
  158OSM   H15G17752   1.872   1.260   4.121  0.9611  0.1108  1.7531
  158OSM   C16F17753   1.999   1.193   4.274  0.3401 -0.4712  0.1280
  158OSM   H16F17754   2.036   1.104   4.330 -0.3064  0.1973  1.6873
  158OSM   H16G17755   1.941   1.254   4.347 -1.6214  0.9303 -2.4066
  158OSM   C17F17756   2.127   1.278   4.239 -0.1699 -0.1298  0.1789
  158OSM   H17F17757   2.093   1.356   4.168  0.1723 -1.8458 -1.9863
  158OSM   H17G17758   2.205   1.228   4.177 -0.2202 -1.4891  1.1686
  158OSM   C18F17759   2.189   1.344   4.364 -0.2317  0.2982  0.2001
  158OSM   H18F17760   2.105   1.379   4.428 -0.4955 -1.1228  0.6795
  158OSM   H18G17761   2.259   1.423   4.332 -0.7461  0.8173  0.3417
  158OSM   H18H17762   2.249   1.269   4.421 -0.7416 -1.5800 -1.5882
  159OSM      N17763   3.836   3.215   2.294 -0.2172 -0.1432 -0.1421
  159OSM    C1517764   3.719   3.276   2.229 -0.3517 -0.5111  0.5114
  159OSM   H15A17765   3.726   3.384   2.229 -2.6175 -0.3105  1.0014
  159OSM   H15B17766   3.623   3.252   2.272 -0.2435  0.3733  1.2681
  159OSM   H15C17767   3.717   3.258   2.122 -2.6898  1.2902  0.1584
  159OSM    C1417768   3.841   3.071   2.247 -0.9551  0.2313 -0.4670
  159OSM   H14A17769   3.749   3.016   2.262  0.8995 -2.6818  1.0414
  159OSM   H14B17770   3.922   3.021   2.299 -0.8167 -1.1411 -1.9355
  159OSM   H14C17771   3.863   3.064   2.142 -1.6711  1.6667 -0.7396
  159OSM    C1317772   3.960   3.285   2.243 -0.0681  0.6277  0.1366
  159OSM   H13A17773   3.970   3.381   2.292  1.7014  0.8705 -0.6281
  159OSM   H13B17774   3.966   3.310   2.139 -1.1423  0.6483  0.0707
  159OSM   H13C17775   4.046   3.225   2.269 -0.9196 -0.9776 -0.6108
  159OSM    C1217776   3.817   3.214   2.439 -0.6293  0.3021  0.8283
  159OSM   H12A17777   3.845   3.310   2.479  0.3208 -0.0935  1.1318
  159OSM   H12B17778   3.885   3.140   2.480  0.3629  0.8254  0.1397
  159OSM    C1117779   3.677   3.174   2.492  0.3744 -0.2707  0.1515
  159OSM   H11A17780   3.602   3.253   2.473  0.0746 -0.1179  1.8194
  159OSM   H11B17781   3.696   3.163   2.601 -1.5513  2.0167  0.7969
  159OSM      P17782   3.474   3.014   2.427  0.1749 -0.2287 -0.6541
  159OSM    O1317783   3.433   3.103   2.317  0.1083 -0.6163 -0.3788
  159OSM    O1417784   3.460   2.869   2.409 -0.0196  0.1426 -0.1993
  159OSM    O1117785   3.418   3.060   2.568 -0.1245  0.5142 -0.5152
  159OSM    O1217786   3.627   3.040   2.448  0.0124 -0.4018 -0.7880
  159OSM    C1S17787   3.465   3.000   2.691  0.0373  0.8377 -0.4992
  159OSM    H1S17788   3.559   3.053   2.715  0.4793 -0.5894  1.1327
  159OSM    H1T17789   3.502   2.895   2.684  1.6309  1.4228 -1.4649
  159OSM     NF17790   3.424   3.001   2.927 -0.0347  0.4415 -0.5033
  159OSM    HNF17791   3.426   2.915   2.977 -1.0547  1.2282  0.9752
  159OSM    C2S17792   3.364   3.007   2.797 -1.1840  0.5474 -0.4423
  159OSM    H2S17793   3.312   3.102   2.777  0.0363  1.9215  2.3189
  159OSM    C3S17794   3.258   2.895   2.779  0.8040 -0.2323 -0.0219
  159OSM    H3S17795   3.301   2.796   2.806 -2.1090 -1.0278  2.2792
  159OSM     O317796   3.194   2.884   2.649  0.3291 -0.4593  0.0309
  159OSM    HO317797   3.221   2.960   2.597 -1.5369 -0.7343 -1.4666
  159OSM    C4S17798   3.142   2.913   2.886  0.1697 -0.1166  0.2522
  159OSM    H4S17799   3.082   3.004   2.875 -1.1672 -0.8335  1.2279
  159OSM    C5S17800   3.083   2.816   2.966  0.6647 -0.2773  0.4039
  159OSM    H5S17801   3.121   2.713   2.973 -0.2035 -0.6233  0.1345
  159OSM    C6S17802   2.965   2.838   3.057  0.2114 -0.3651 -0.0433
  159OSM    H6S17803   2.885   2.764   3.037 -1.0765  0.4591  1.7207
  159OSM    H6T17804   2.928   2.942   3.044  1.9446  0.0944 -1.6479
  159OSM    C7S17805   3.003   2.805   3.202  0.1893 -0.1024 -0.0737
  159OSM    H7S17806   3.079   2.882   3.229  0.8255 -1.2303  1.4869
  159OSM    H7T17807   3.029   2.702   3.234 -2.0873 -0.2738  1.4375
  159OSM    C8S17808   2.881   2.846   3.291  0.3350  0.2817 -0.0689
  159OSM    H8S17809   2.797   2.782   3.255  0.0896 -0.1513  1.2076
  159OSM    H8T17810   2.848   2.951   3.275  0.6348  0.5687  1.1032
  159OSM    C9S17811   2.904   2.836   3.440  0.6550 -0.0433 -0.6475
  159OSM    H9S17812   2.986   2.904   3.473 -1.1054  1.8980 -0.0981
  159OSM    H9T17813   2.924   2.729   3.463  0.2080 -0.1965 -0.9704
  159OSM   C10S17814   2.782   2.881   3.522 -0.3573  0.9600  0.3021
  159OSM   H10S17815   2.780   2.851   3.629 -0.4134 -1.6271 -0.3629
  159OSM   H10T17816   2.691   2.847   3.469 -0.3729 -0.6300  1.2790
  159OSM   C11S17817   2.770   3.036   3.524  0.0053 -0.5735 -0.5519
  159OSM   H11S17818   2.735   3.062   3.422 -0.2937  0.8069 -0.1091
  159OSM   H11T17819   2.872   3.073   3.549  0.3273 -1.4543 -0.5300
  159OSM   C12S17820   2.666   3.115   3.611 -0.3799 -0.4762  0.0825
  159OSM   H12S17821   2.572   3.055   3.608 -0.5676 -0.2212 -3.6055
  159OSM   H12T17822   2.644   3.204   3.548  3.0931  0.6439  0.2605
  159OSM   C13S17823   2.712   3.127   3.763  0.1039  0.6524  0.0811
  159OSM   H13S17824   2.787   3.209   3.772 -1.0619  1.5106  3.2375
  159OSM   H13T17825   2.765   3.034   3.792 -1.5271 -0.0338  0.9535
  159OSM   C14S17826   2.594   3.159   3.867 -0.3049  0.1595  0.0674
  159OSM   H14S17827   2.517   3.080   3.857  0.5676 -0.9248  1.3899
  159OSM   H14T17828   2.536   3.251   3.845  1.0280  0.9133 -0.3964
  159OSM   C15S17829   2.652   3.176   4.007  0.4032 -0.4298  0.2510
  159OSM   H15S17830   2.710   3.271   4.012 -0.7045  0.2473  0.4584
  159OSM   H15T17831   2.719   3.090   4.030  0.6140 -0.3241  0.0431
  159OSM   C16S17832   2.550   3.185   4.116  0.0087  0.2894  0.2720
  159OSM   H16S17833   2.455   3.235   4.089 -1.0114 -1.5576  0.2327
  159OSM   H16T17834   2.573   3.244   4.207 -1.8614  0.7344  0.4907
  159OSM   C17S17835   2.513   3.047   4.161 -0.1012  0.1273 -0.1308
  159OSM   H17S17836   2.602   2.991   4.197 -0.0332  1.0576  1.2138
  159OSM   H17T17837   2.449   2.997   4.085 -1.2312  0.1427  0.7807
  159OSM   C18S17838   2.413   3.054   4.283 -0.3798 -0.5870  0.4641
  159OSM   H18S17839   2.467   3.082   4.375  1.6712 -1.0846 -0.5331
  159OSM   H18T17840   2.373   2.952   4.304  0.9347 -1.0680  0.6744
  159OSM   H18U17841   2.329   3.120   4.251 -0.3732 -1.2063 -0.9160
  159OSM    C1F17842   3.491   3.112   2.965 -0.3497  0.3306  0.1984
  159OSM     OF17843   3.472   3.220   2.909  0.0664  0.0626  0.6502
  159OSM    C2F17844   3.595   3.096   3.076  0.1716  0.3131  0.3799
  159OSM    H2F17845   3.699   3.097   3.036  0.0572  0.5614  0.0834
  159OSM    H2G17846   3.590   2.996   3.124  0.7433  1.0468  2.0419
  159OSM    C3F17847   3.573   3.203   3.183 -0.2123  0.0692  0.7076
  159OSM    H3F17848   3.474   3.189   3.230 -0.3181 -1.1802  0.1432
  159OSM    H3G17849   3.578   3.300   3.128  1.2935 -2.1435 -3.5435
  159OSM    C4F17850   3.679   3.195   3.293 -0.8648 -0.2187 -0.1935
  159OSM    H4F17851   3.779   3.190   3.244 -1.2484 -0.5918 -0.9616
  159OSM    H4G17852   3.684   3.095   3.341  1.2796  0.1455  0.4758
  159OSM    C5F17853   3.678   3.312   3.390  0.0665 -0.5687 -0.3165
  159OSM    H5F17854   3.577   3.311   3.435 -1.1450 -0.2668 -2.8430
  159OSM    H5G17855   3.682   3.403   3.326  0.7481 -0.2002  0.2243
  159OSM    C6F17856   3.799   3.305   3.485  0.0287  0.7996  0.0757
  159OSM    H6F17857   3.890   3.282   3.426 -1.1279 -0.2600 -1.4057
  159OSM    H6G17858   3.803   3.222   3.559  0.9045  2.0720  1.4858
  159OSM    C7F17859   3.821   3.440   3.564  0.3040 -0.4316  0.2388
  159OSM    H7F17860   3.742   3.440   3.642 -0.2304 -2.8441 -0.2027
  159OSM    H7G17861   3.804   3.519   3.488  0.4614 -1.9055 -1.3759
  159OSM    C8F17862   3.960   3.445   3.630 -0.8616 -0.0048  0.1569
  159OSM    H8F17863   4.033   3.436   3.546 -3.2123 -1.2290 -1.9137
  159OSM    H8G17864   3.970   3.355   3.694  0.5444  0.3335  0.4446
  159OSM    C9F17865   3.986   3.571   3.709 -0.5093  0.0058  0.2225
  159OSM    H9F17866   3.964   3.661   3.651  1.5059  0.4656  0.1055
  159OSM   C10F17867   4.025   3.578   3.837  0.1215  0.7147 -0.4070
  159OSM   H10F17868   4.044   3.676   3.881  1.1326  1.0682 -1.5783
  159OSM   C11F17869   4.058   3.460   3.931 -0.0587 -0.6667 -0.8991
  159OSM   H11F17870   4.126   3.503   4.008 -2.6383  0.7541  0.7381
  159OSM   H11G17871   4.113   3.387   3.869 -1.7308 -2.1741 -0.6847
  159OSM   C12F17872   3.936   3.395   4.002  0.5366  0.1858  0.1337
  159OSM   H12F17873   3.958   3.288   4.023 -0.8368 -0.1465 -0.0242
  159OSM   H12G17874   3.847   3.390   3.935 -0.4008 -0.4216  1.3681
  159OSM   C13F17875   3.884   3.466   4.123  0.0135  0.4830  1.0265
  159OSM   H13F17876   3.804   3.398   4.156  1.3057 -2.0492 -0.7233
  159OSM   H13G17877   3.828   3.557   4.091 -0.0522 -0.1120 -0.6427
  159OSM   C14F17878   3.999   3.488   4.219 -0.7121  0.1478 -0.2123
  159OSM   H14F17879   4.049   3.577   4.177  0.2751  0.1214  0.8643
  159OSM   H14G17880   4.067   3.400   4.226  2.1761  1.9887 -2.9426
  159OSM   C15F17881   3.946   3.520   4.357  0.0009  0.0468 -0.5251
  159OSM   H15F17882   3.891   3.436   4.404 -1.9602  1.5910  0.1327
  159OSM   H15G17883   3.877   3.607   4.363 -0.1207 -0.1450  1.7518
  159OSM   C16F17884   4.063   3.552   4.451 -0.1475  0.1243 -1.3887
  159OSM   H16F17885   4.075   3.663   4.446 -0.5686  0.3805  1.4274
  159OSM   H16G17886   4.158   3.503   4.419  0.7987  0.6461  0.4709
  159OSM   C17F17887   4.033   3.519   4.607  0.1792 -0.3090 -0.0534
  159OSM   H17F17888   4.124   3.540   4.668  2.2037 -1.2052 -2.6015
  159OSM   H17G17889   4.007   3.411   4.611 -0.5689 -0.1524 -0.5151
  159OSM   C18F17890   3.904   3.591   4.664 -0.0100  0.0665  0.5867
  159OSM   H18F17891   3.898   3.697   4.631  0.7089 -1.0455 -3.6683
  159OSM   H18G17892   3.905   3.579   4.775  0.2912  0.1572  0.5956
  159OSM   H18H17893   3.813   3.539   4.628 -0.2848  0.8402  0.1212
  160OSM      N17894   5.677   4.874   2.141  0.4312 -0.1161  0.5126
  160OSM    C1517895   5.745   4.749   2.094 -0.3834 -0.3060 -0.3198
  160OSM   H15A17896   5.808   4.696   2.164  0.0240 -1.1521 -1.2997
  160OSM   H15B17897   5.801   4.768   2.003  0.6428  2.8706  0.8364
  160OSM   H15C17898   5.676   4.671   2.068  0.0500 -0.8815  0.2291
  160OSM    C1417899   5.785   4.960   2.191  0.0895 -1.1041 -0.7684
  160OSM   H14A17900   5.742   5.040   2.249  0.1957 -1.0263 -0.7962
  160OSM   H14B17901   5.832   5.007   2.106 -2.4540  0.3386 -1.4627
  160OSM   H14C17902   5.842   4.911   2.269 -0.2521  0.5736  0.5848
  160OSM    C1317903   5.616   4.953   2.026  0.0555 -0.4831 -0.0922
  160OSM   H13A17904   5.585   5.048   2.068  1.6709  0.6941 -1.4661
  160OSM   H13B17905   5.531   4.903   1.981 -0.6476  0.4253  0.1842
  160OSM   H13C17906   5.684   4.972   1.945 -1.8297  1.9871 -1.2413
  160OSM    C1217907   5.575   4.843   2.241  0.0941  0.7088 -0.0267
  160OSM   H12A17908   5.488   4.807   2.187 -0.4996  1.8668  0.1231
  160OSM   H12B17909   5.545   4.929   2.300  1.0874 -0.2609  1.9927
  160OSM    C1117910   5.618   4.746   2.356  0.2161  0.2518 -0.0782
  160OSM   H11A17911   5.541   4.763   2.434  0.5314  1.0046  0.0732
  160OSM   H11B17912   5.716   4.774   2.401 -0.0439 -0.5635  1.0507
  160OSM      P17913   5.697   4.505   2.384 -0.2418 -0.2498 -0.3645
  160OSM    O1317914   5.682   4.368   2.325  0.6334  0.1845  0.4338
  160OSM    O1417915   5.835   4.558   2.406  0.9390 -0.2758  0.5966
  160OSM    O1117916   5.630   4.496   2.526 -0.3755 -0.1022  0.0981
  160OSM    O1217917   5.612   4.613   2.298 -0.4342  0.1927  0.2733
  160OSM    C1S17918   5.691   4.478   2.654  0.3636 -0.3881  0.8344
  160OSM    H1S17919   5.801   4.486   2.644  0.0799  2.7310 -1.1202
  160OSM    H1T17920   5.650   4.387   2.701  1.0356 -2.0522 -1.5977
  160OSM     NF17921   5.722   4.579   2.876  0.5032  0.1623  0.0933
  160OSM    HNF17922   5.665   4.540   2.948  2.0022 -0.1114  1.1869
  160OSM    C2S17923   5.661   4.599   2.744 -0.3554  0.0251 -0.4486
  160OSM    H2S17924   5.697   4.691   2.693  0.9124  1.0125  2.0375
  160OSM    C3S17925   5.506   4.620   2.762 -0.2733 -0.0338 -0.3302
  160OSM    H3S17926   5.470   4.534   2.822  0.2989 -0.6836 -0.9166
  160OSM     O317927   5.436   4.624   2.640 -0.4390 -0.2568 -0.4103
  160OSM    HO317928   5.495   4.582   2.578  1.5249  1.2700  0.3302
  160OSM    C4S17929   5.486   4.754   2.830  0.3727  0.3629 -0.1301
  160OSM    H4S17930   5.571   4.820   2.810 -0.0726  0.6922 -0.9930
  160OSM    C5S17931   5.415   4.779   2.935 -0.2001 -0.5086  0.2032
  160OSM    H5S17932   5.364   4.698   2.990  4.6915 -1.8861  3.3106
  160OSM    C6S17933   5.433   4.915   3.009  0.0778  0.0370  0.5319
  160OSM    H6S17934   5.339   4.933   3.065 -0.9069 -0.7589 -0.8166
  160OSM    H6T17935   5.445   5.002   2.940 -2.1184  0.8201  1.0558
  160OSM    C7S17936   5.547   4.897   3.110  0.6025 -0.0831  0.1383
  160OSM    H7S17937   5.540   4.982   3.181  1.4221  0.0532  0.0665
  160OSM    H7T17938   5.641   4.894   3.052  0.2667 -2.0351 -0.3807
  160OSM    C8S17939   5.538   4.775   3.205  0.1361  0.1262 -0.5652
  160OSM    H8S17940   5.631   4.776   3.266  0.6274 -2.9233 -1.0917
  160OSM    H8T17941   5.552   4.687   3.139 -0.8890 -0.3921 -0.1222
  160OSM    C9S17942   5.423   4.778   3.309  1.1955 -0.2364 -0.4737
  160OSM    H9S17943   5.424   4.687   3.373 -3.7977 -0.0666  0.1949
  160OSM    H9T17944   5.331   4.767   3.248  0.3602  0.5771  0.5940
  160OSM   C10S17945   5.418   4.901   3.400 -0.3461  0.2948 -0.2822
  160OSM   H10S17946   5.366   4.987   3.354 -2.1146 -0.3689  0.3742
  160OSM   H10T17947   5.517   4.924   3.445 -0.2029 -0.5302 -0.1524
  160OSM   C11S17948   5.334   4.874   3.518  0.4940 -0.0634 -0.7618
  160OSM   H11S17949   5.382   4.789   3.570 -1.7529 -0.1762  1.3322
  160OSM   H11T17950   5.237   4.829   3.486  0.4489 -0.7321  0.2858
  160OSM   C12S17951   5.318   4.986   3.614 -0.7167  0.1065 -0.8623
  160OSM   H12S17952   5.246   4.944   3.687 -0.3832 -2.0069 -1.6918
  160OSM   H12T17953   5.278   5.071   3.554 -0.1111  0.1908 -1.1596
  160OSM   C13S17954   5.442   5.025   3.695 -0.1855  0.3900 -0.2392
  160OSM   H13S17955   5.417   5.105   3.769  0.1329 -1.1541  1.6102
  160OSM   H13T17956   5.509   5.084   3.628  1.4812 -1.2889 -0.1370
  160OSM   C14S17957   5.507   4.918   3.783 -0.3494  0.5729 -0.1150
  160OSM   H14S17958   5.586   4.970   3.842 -2.0411  2.1107  0.9107
  160OSM   H14T17959   5.570   4.844   3.729  0.8566  1.0042  0.6639
  160OSM   C15S17960   5.408   4.852   3.879  0.0908  0.4568 -1.2209
  160OSM   H15S17961   5.467   4.781   3.941  0.1750  0.3877 -1.3816
  160OSM   H15T17962   5.334   4.796   3.817 -2.9275  2.5363  0.2422
  160OSM   C16S17963   5.337   4.947   3.975 -0.0289  0.2113  0.4523
  160OSM   H16S17964   5.263   4.892   4.037 -0.2353 -2.0839 -1.7045
  160OSM   H16T17965   5.276   5.017   3.915 -0.0061 -0.5825 -0.5108
  160OSM   C17S17966   5.438   5.040   4.051  0.1804  0.8561 -0.6138
  160OSM   H17S17967   5.493   5.098   3.974  1.4773  1.6945  0.8937
  160OSM   H17T17968   5.501   4.978   4.119  0.8925  0.6503 -1.4505
  160OSM   C18S17969   5.368   5.147   4.139  1.0299 -0.0481 -0.3242
  160OSM   H18S17970   5.324   5.092   4.225 -0.0369  1.9315  0.4741
  160OSM   H18T17971   5.284   5.202   4.090 -0.4314  0.2672  2.3404
  160OSM   H18U17972   5.436   5.220   4.187  1.2212 -1.5178  1.7948
  160OSM    C1F17973   5.851   4.582   2.885 -0.3463 -0.3285  0.1425
  160OSM     OF17974   5.920   4.624   2.791 -0.4287  0.4970 -0.4762
  160OSM    C2F17975   5.921   4.524   3.007  0.5722  0.3718 -0.8972
  160OSM    H2F17976   6.007   4.468   2.966 -1.7494 -1.9876 -2.9335
  160OSM    H2G17977   5.852   4.444   3.043 -0.2271  1.4517  0.0687
  160OSM    C3F17978   5.943   4.635   3.111 -1.1819 -0.6828  0.2016
  160OSM    H3F17979   5.842   4.668   3.144 -1.5801 -0.4077 -1.2107
  160OSM    H3G17980   5.998   4.719   3.063  0.4864 -0.7193  1.9343
  160OSM    C4F17981   6.016   4.576   3.229 -0.4974 -0.0702 -0.3799
  160OSM    H4F17982   6.066   4.655   3.289 -1.1722  1.2563 -1.5100
  160OSM    H4G17983   6.110   4.521   3.206 -0.2860  0.0065  0.2652
  160OSM    C5F17984   5.928   4.492   3.321 -0.4190 -0.2765 -0.0775
  160OSM    H5F17985   6.001   4.447   3.391 -0.0172 -0.1821 -0.4316
  160OSM    H5G17986   5.889   4.405   3.265  1.3046 -0.7319 -0.6395
  160OSM    C6F17987   5.819   4.566   3.396 -0.2874  0.0960 -0.2429
  160OSM    H6F17988   5.736   4.588   3.325  0.5499  1.0783 -0.9492
  160OSM    H6G17989   5.868   4.661   3.426  1.3979  0.1559 -2.8836
  160OSM    C7F17990   5.764   4.499   3.522  0.0147  0.3724 -0.0384
  160OSM    H7F17991   5.855   4.476   3.582 -0.0611 -0.9318 -0.3789
  160OSM    H7G17992   5.740   4.394   3.496  1.4753 -0.4354  1.6193
  160OSM    C8F17993   5.654   4.565   3.594 -0.6859  0.3154 -0.1696
  160OSM    H8F17994   5.568   4.587   3.527 -1.1926 -1.2339 -0.0599
  160OSM    H8G17995   5.685   4.668   3.624  1.0988 -0.3499  0.3890
  160OSM    C9F17996   5.598   4.482   3.699  0.4037 -0.5287  0.1838
  160OSM    H9F17997   5.502   4.438   3.666 -0.2725  0.6168  0.5895
  160OSM   C10F17998   5.645   4.462   3.821  0.4280 -0.1024  0.5220
  160OSM   H10F17999   5.590   4.396   3.889  0.5520 -0.7230  0.0360
  160OSM   C11F18000   5.767   4.522   3.883 -0.1474  0.0281 -0.1570
  160OSM   H11F18001   5.826   4.589   3.817  0.9296  0.1809  0.9119
  160OSM   H11G18002   5.840   4.440   3.901 -0.8748 -0.5625  0.1693
  160OSM   C12F18003   5.722   4.598   4.009  0.1872 -0.4994 -0.1109
  160OSM   H12F18004   5.633   4.661   3.988  1.2476  1.2566  0.4525
  160OSM   H12G18005   5.797   4.675   4.036  0.7665 -1.6782  1.8323
  160OSM   C13F18006   5.700   4.511   4.134 -0.3914  0.2585  0.3678
  160OSM   H13F18007   5.795   4.454   4.144 -0.2738  0.3896  0.0080
  160OSM   H13G18008   5.622   4.435   4.113  0.0205  0.3302 -1.5549
  160OSM   C14F18009   5.691   4.593   4.265  0.4168  0.2547 -0.0708
  160OSM   H14F18010   5.592   4.642   4.268  0.9159  1.2895 -0.0081
  160OSM   H14G18011   5.773   4.667   4.256 -1.1845  2.0308 -0.6750
  160OSM   C15F18012   5.714   4.505   4.389 -0.5275  0.7391  0.2185
  160OSM   H15F18013   5.803   4.444   4.363 -0.1862  0.7849  1.2331
  160OSM   H15G18014   5.625   4.441   4.406  1.1417 -1.8688 -0.1631
  160OSM   C16F18015   5.743   4.583   4.516 -0.3093 -0.5314  0.1638
  160OSM   H16F18016   5.647   4.622   4.558 -0.6064 -2.0946  1.0126
  160OSM   H16G18017   5.816   4.664   4.496 -1.1447  1.0468  2.8540
  160OSM   C17F18018   5.810   4.497   4.627  0.8176 -0.2079 -0.0115
  160OSM   H17F18019   5.901   4.457   4.579  1.2016  3.9464 -3.3576
  160OSM   H17G18020   5.734   4.419   4.650 -1.3284  2.4306  2.8131
  160OSM   C18F18021   5.845   4.556   4.764 -0.3668 -0.4341  0.7722
  160OSM   H18F18022   5.896   4.483   4.830  0.0658  0.8176  1.8672
  160OSM   H18G18023   5.747   4.586   4.806 -0.0406  1.8454  0.0400
  160OSM   H18H18024   5.904   4.645   4.734 -0.1982 -1.7569 -3.4758
  161OSM      N18025   5.121   2.074   2.744  0.0077 -0.0548  0.0021
  161OSM    C1518026   5.246   2.030   2.809 -0.4371 -0.1185 -0.6568
  161OSM   H15A18027   5.329   2.099   2.797 -0.0548  0.3701  3.4279
  161OSM   H15B18028   5.279   1.936   2.767 -0.2003 -0.8245  1.0035
  161OSM   H15C18029   5.227   2.011   2.914  0.7139 -0.3575 -0.4758
  161OSM    C1418030   5.079   2.207   2.799 -0.0300  0.2634  0.7847
  161OSM   H14A18031   5.007   2.258   2.737  0.1682 -0.2761  0.0840
  161OSM   H14B18032   5.165   2.272   2.786 -1.0259  1.5080  0.1221
  161OSM   H14C18033   5.041   2.201   2.899 -0.2262 -1.3229  0.6374
  161OSM    C1318034   5.139   2.098   2.594 -0.2492 -0.6050  0.7199
  161OSM   H13A18035   5.051   2.139   2.547  1.6784  1.4214 -1.3536
  161OSM   H13B18036   5.161   2.002   2.549  0.7663 -0.0758  0.0403
  161OSM   H13C18037   5.225   2.163   2.585 -0.1548 -0.7220  0.7656
  161OSM    C1218038   5.024   1.967   2.780  0.4797 -0.1695 -0.1265
  161OSM   H12A18039   4.923   2.000   2.760 -1.1883 -4.0135  1.0783
  161OSM   H12B18040   5.021   1.960   2.888  2.3814 -1.3322 -0.0971
  161OSM    C1118041   5.046   1.826   2.730 -0.5875  0.5306  0.7639
  161OSM   H11A18042   5.053   1.829   2.619  0.7971 -2.3434  0.6865
  161OSM   H11B18043   4.953   1.767   2.746  0.6274 -1.7165 -0.0049
  161OSM      P18044   5.212   1.615   2.707 -0.0782  0.6396 -0.0092
  161OSM    O1318045   5.092   1.547   2.646 -0.1271  0.2675  0.0169
  161OSM    O1418046   5.329   1.645   2.625  0.2466 -0.5304  0.3745
  161OSM    O1118047   5.259   1.523   2.826 -0.0513  0.3452  0.2284
  161OSM    O1218048   5.163   1.755   2.781  0.4918  0.3229  0.3666
  161OSM    C1S18049   5.258   1.584   2.960  0.1493  0.4722  0.1077
  161OSM    H1S18050   5.153   1.595   2.994  0.3923 -0.9531  1.4301
  161OSM    H1T18051   5.310   1.682   2.963  0.2431  0.5041 -1.4692
  161OSM     NF18052   5.313   1.551   3.189 -0.5846 -0.5984 -0.7596
  161OSM    HNF18053   5.390   1.597   3.230 -2.2038 -1.1476  3.4207
  161OSM    C2S18054   5.323   1.486   3.063 -0.3717  0.5289 -0.0942
  161OSM    H2S18055   5.262   1.393   3.066  0.3507  0.0231  3.3149
  161OSM    C3S18056   5.475   1.446   3.027 -0.5188  0.6996  0.6495
  161OSM    H3S18057   5.545   1.533   3.022  2.2235 -1.3768  0.2087
  161OSM     O318058   5.488   1.385   2.903 -0.0234  0.5768 -0.6014
  161OSM    HO318059   5.409   1.407   2.853 -0.8737 -3.2420 -1.3238
  161OSM    C4S18060   5.537   1.360   3.137 -0.3488  0.5546 -0.4580
  161OSM    H4S18061   5.614   1.414   3.194  0.9029 -2.3584  0.7988
  161OSM    C5S18062   5.537   1.230   3.160  0.2413  0.7926 -0.2772
  161OSM    H5S18063   5.468   1.171   3.097 -1.5683 -1.3775  3.3938
  161OSM    C6S18064   5.612   1.154   3.264 -0.0495  0.8813  0.0599
  161OSM    H6S18065   5.710   1.201   3.287  1.4330 -0.5023 -2.8971
  161OSM    H6T18066   5.638   1.057   3.216 -2.6463 -0.0758  0.3648
  161OSM    C7S18067   5.540   1.119   3.398  0.2928 -0.6816 -0.1802
  161OSM    H7S18068   5.609   1.046   3.444  1.5520 -1.3882 -2.9533
  161OSM    H7T18069   5.450   1.058   3.377  0.7321 -1.9960  1.4826
  161OSM    C8S18070   5.529   1.243   3.494 -0.6292  0.0646 -0.1852
  161OSM    H8S18071   5.450   1.319   3.478  0.1019  1.3880  2.1023
  161OSM    H8T18072   5.627   1.296   3.490 -1.0070  1.1260  2.6669
  161OSM    C9S18073   5.502   1.211   3.643  0.1428  0.0194  1.0086
  161OSM    H9S18074   5.561   1.120   3.669  1.3585  0.6675  0.5785
  161OSM    H9T18075   5.396   1.179   3.636 -0.0577  0.8630 -0.1129
  161OSM   C10S18076   5.531   1.326   3.738  0.0661 -0.0283  0.4037
  161OSM   H10S18077   5.477   1.420   3.716 -0.0139  0.2518  1.7193
  161OSM   H10T18078   5.639   1.344   3.719 -0.2832  0.4672 -1.3081
  161OSM   C11S18079   5.513   1.277   3.884 -0.2925 -0.5833  0.2859
  161OSM   H11S18080   5.574   1.185   3.898 -1.2502 -1.8369 -2.8875
  161OSM   H11T18081   5.411   1.246   3.914 -1.4117 -0.6222 -3.1134
  161OSM   C12S18082   5.557   1.376   3.997  0.1427  0.2473 -0.2701
  161OSM   H12S18083   5.487   1.462   4.001  0.3001  0.4188 -1.0296
  161OSM   H12T18084   5.662   1.411   3.989  0.7806 -1.4224  0.3980
  161OSM   C13S18085   5.536   1.320   4.132 -0.0831  0.5394  0.7590
  161OSM   H13S18086   5.600   1.230   4.136 -0.9632 -0.0626  1.6971
  161OSM   H13T18087   5.433   1.288   4.159 -0.5109  2.1690  1.1755
  161OSM   C14S18088   5.578   1.422   4.246 -0.1008  0.1220 -0.4105
  161OSM   H14S18089   5.525   1.515   4.218  0.1230  0.2275 -0.4861
  161OSM   H14T18090   5.687   1.441   4.239 -0.0062 -0.3812 -0.3734
  161OSM   C15S18091   5.555   1.374   4.388  0.3838  0.6784  0.0095
  161OSM   H15S18092   5.643   1.413   4.445  2.3680  2.2162 -3.7080
  161OSM   H15T18093   5.557   1.263   4.397  1.4810  0.4055 -2.6104
  161OSM   C16S18094   5.425   1.438   4.451  0.5776  0.5709  0.7673
  161OSM   H16S18095   5.394   1.371   4.534  2.6960  0.5279  1.6047
  161OSM   H16T18096   5.347   1.450   4.374  1.5420 -1.6238 -0.6463
  161OSM   C17S18097   5.454   1.569   4.517  0.0755 -0.3951 -0.0262
  161OSM   H17S18098   5.503   1.640   4.448  1.4772  0.6305  1.9221
  161OSM   H17T18099   5.514   1.544   4.607  0.2798  0.1425 -0.0068
  161OSM   C18S18100   5.323   1.639   4.553 -0.3257  0.0405 -0.2165
  161OSM   H18S18101   5.244   1.627   4.476  1.6981  2.1137 -2.8190
  161OSM   H18T18102   5.335   1.749   4.568 -1.6602  0.2041 -0.2352
  161OSM   H18U18103   5.273   1.598   4.643  1.4370 -1.7932 -0.0002
  161OSM    C1F18104   5.201   1.561   3.254  0.7698  0.2753 -0.5177
  161OSM     OF18105   5.100   1.507   3.209 -0.2392  0.6759  1.4081
  161OSM    C2F18106   5.214   1.613   3.393 -1.2318 -0.0106  0.2960
  161OSM    H2F18107   5.279   1.704   3.394  0.6069 -1.2681  0.7211
  161OSM    H2G18108   5.269   1.545   3.461  0.8527 -0.9737 -2.2049
  161OSM    C3F18109   5.080   1.652   3.446  0.3773 -0.7372 -0.6414
  161OSM    H3F18110   5.022   1.560   3.470 -1.0591  0.7618  2.0836
  161OSM    H3G18111   5.024   1.710   3.369 -0.4115 -1.6619 -0.7961
  161OSM    C4F18112   5.091   1.735   3.578 -0.5065  0.3918  0.1047
  161OSM    H4F18113   4.994   1.774   3.617 -0.1743  1.0386  0.2876
  161OSM    H4G18114   5.171   1.810   3.568  0.0491  0.0482  1.6400
  161OSM    C5F18115   5.141   1.650   3.696 -0.4261  0.4422  0.6184
  161OSM    H5F18116   5.249   1.629   3.679 -0.7836 -0.8047 -0.2948
  161OSM    H5G18117   5.076   1.559   3.700 -0.8721  0.7042 -0.3383
  161OSM    C6F18118   5.119   1.721   3.827 -0.1841 -0.3586  0.2646
  161OSM    H6F18119   5.015   1.751   3.848  0.3383  1.7257  0.0859
  161OSM    H6G18120   5.179   1.815   3.825 -1.2614  0.4031  1.8737
  161OSM    C7F18121   5.165   1.636   3.939 -0.7413  0.9786 -0.1484
  161OSM    H7F18122   5.267   1.595   3.929 -0.4208 -0.0859  4.9515
  161OSM    H7G18123   5.088   1.559   3.962  0.0983  0.8136  2.4181
  161OSM    C8F18124   5.187   1.720   4.068 -0.2854 -0.3951  0.4671
  161OSM    H8F18125   5.112   1.801   4.077  1.8790  1.9121 -0.8753
  161OSM    H8G18126   5.283   1.777   4.063  0.0227 -1.0193 -2.3482
  161OSM    C9F18127   5.178   1.624   4.188  0.0538 -0.4027  0.5426
  161OSM    H9F18128   5.267   1.567   4.216  1.0882  0.8930 -0.0131
  161OSM   C10F18129   5.060   1.583   4.243 -0.2596  0.3263 -0.0169
  161OSM   H10F18130   5.057   1.514   4.328  0.2365  0.4944  0.1408
  161OSM   C11F18131   4.922   1.615   4.214 -0.1531 -0.2427  0.1012
  161OSM   H11F18132   4.867   1.522   4.188  0.7493 -0.9549  0.6648
  161OSM   H11G18133   4.911   1.689   4.132  0.9369  0.0981  0.2482
  161OSM   C12F18134   4.847   1.668   4.337 -0.2505 -0.2670  0.5348
  161OSM   H12F18135   4.864   1.604   4.427 -1.4755 -1.2302  0.1201
  161OSM   H12G18136   4.737   1.666   4.321 -0.3545 -0.6519  1.2219
  161OSM   C13F18137   4.888   1.807   4.374  0.2637 -0.6496 -0.3959
  161OSM   H13F18138   4.873   1.887   4.299  3.1105 -0.4280 -0.8377
  161OSM   H13G18139   4.997   1.809   4.398 -0.2335  0.5498  2.1069
  161OSM   C14F18140   4.814   1.854   4.502  0.1515  0.2720  1.4233
  161OSM   H14F18141   4.826   1.770   4.573 -3.6287 -1.9314 -0.2385
  161OSM   H14G18142   4.708   1.847   4.471 -0.2043 -2.3041  2.9728
  161OSM   C15F18143   4.861   1.996   4.542 -0.3776  0.6792 -0.3054
  161OSM   H15F18144   4.860   2.067   4.456  0.5803  0.7587 -0.2654
  161OSM   H15G18145   4.965   1.986   4.579 -1.4680  0.7335  3.0985
  161OSM   C16F18146   4.801   2.057   4.668  0.7989  0.6365 -0.0528
  161OSM   H16F18147   4.796   1.975   4.743 -0.7273  0.1143 -0.6833
  161OSM   H16G18148   4.702   2.091   4.631  0.7478 -0.6437 -1.1729
  161OSM   C17F18149   4.885   2.176   4.720  0.5197 -0.4697  0.7901
  161OSM   H17F18150   4.846   2.218   4.815  0.6794  0.3024  0.5214
  161OSM   H17G18151   4.867   2.252   4.641 -0.8911  1.1901  2.6183
  161OSM   C18F18152   5.036   2.152   4.747 -0.6757  0.0168 -0.5169
  161OSM   H18F18153   5.060   2.073   4.821  4.2750  2.1014  0.5330
  161OSM   H18G18154   5.089   2.240   4.789  1.6907 -2.7037  2.7204
  161OSM   H18H18155   5.096   2.132   4.655  0.3958 -2.1193  0.5926
  162OSM      N18156   6.890   2.754   2.369  0.2287 -1.2524  0.1276
  162OSM    C1518157   6.747   2.753   2.323 -0.1857 -0.8682  0.1307
  162OSM   H15A18158   6.710   2.652   2.334  1.2262 -1.5008 -0.7496
  162OSM   H15B18159   6.746   2.774   2.217  1.3046 -2.1803 -0.1803
  162OSM   H15C18160   6.673   2.814   2.374  0.4366  0.7457 -0.8213
  162OSM    C1418161   6.967   2.642   2.303  0.3391 -0.0192 -0.0264
  162OSM   H14A18162   7.069   2.648   2.339  0.5342 -0.1292 -0.5469
  162OSM   H14B18163   6.976   2.632   2.196  1.6436  1.4417 -0.1006
  162OSM   H14C18164   6.926   2.550   2.342 -2.3621  1.7622  1.6322
  162OSM    C1318165   6.953   2.884   2.322 -0.0808  0.2051  0.1189
  162OSM   H13A18166   6.902   2.962   2.377  0.4567 -0.3771  1.4688
  162OSM   H13B18167   6.939   2.890   2.215  1.0085  0.6839 -0.0041
  162OSM   H13C18168   7.060   2.893   2.333 -0.1829  0.9767  0.5781
  162OSM    C1218169   6.898   2.753   2.519 -0.6345  0.4952 -0.4971
  162OSM   H12A18170   6.996   2.788   2.546 -1.2796  0.5551  1.9939
  162OSM   H12B18171   6.884   2.651   2.550  0.2060  0.4335 -0.3020
  162OSM    C1118172   6.795   2.842   2.599  0.4767  0.1372 -0.3164
  162OSM   H11A18173   6.791   2.941   2.549  1.9940  0.5532  0.3428
  162OSM   H11B18174   6.823   2.852   2.706 -0.4460 -1.0604  0.0687
  162OSM      P18175   6.642   2.646   2.673  0.6060  0.0285  0.1427
  162OSM    O1318176   6.508   2.588   2.648  0.1377 -0.0855  0.4579
  162OSM    O1418177   6.763   2.560   2.647  1.0736 -0.0521 -0.2854
  162OSM    O1118178   6.653   2.688   2.821  0.0665  0.4193  0.0118
  162OSM    O1218179   6.663   2.784   2.600 -0.3789  0.1158  0.4467
  162OSM    C1S18180   6.579   2.789   2.888  0.4755  0.1789 -0.3674
  162OSM    H1S18181   6.472   2.775   2.861  0.5579  1.4912 -1.5300
  162OSM    H1T18182   6.605   2.889   2.847  1.3823  0.0808 -0.0504
  162OSM     NF18183   6.523   2.878   3.123  1.0295  0.0518  0.0675
  162OSM    HNF18184   6.555   2.967   3.155 -2.5815  1.5031  0.1282
  162OSM    C2S18185   6.619   2.804   3.039  0.3177 -0.1147  0.0373
  162OSM    H2S18186   6.623   2.699   3.075  1.0211  0.1912  0.8761
  162OSM    C3S18187   6.761   2.861   3.050  0.5021  0.6575  0.1654
  162OSM    H3S18188   6.753   2.964   3.010  0.1189  0.3505 -0.5759
  162OSM     O318189   6.862   2.799   2.975 -0.3601  0.4237 -0.3950
  162OSM    HO318190   6.810   2.736   2.924 -0.8160  0.2394  0.2808
  162OSM    C4S18191   6.806   2.870   3.189 -0.5487 -0.3852  0.5355
  162OSM    H4S18192   6.791   2.783   3.255  0.9800  1.0278  2.8766
  162OSM    C5S18193   6.860   2.978   3.249 -0.4465 -0.0110 -0.6298
  162OSM    H5S18194   6.899   3.065   3.194  2.3259  0.6137  2.0385
  162OSM    C6S18195   6.905   2.983   3.390 -0.2088 -0.2447  0.2163
  162OSM    H6S18196   6.905   3.090   3.420  1.9032 -0.2980  0.5582
  162OSM    H6T18197   7.013   2.961   3.397  0.4939  2.6695 -0.2747
  162OSM    C7S18198   6.818   2.917   3.494  0.0013 -0.1347  0.3807
  162OSM    H7S18199   6.837   2.808   3.505  0.7092  0.1525  2.2483
  162OSM    H7T18200   6.713   2.922   3.458 -0.4949 -1.2762  1.5543
  162OSM    C8S18201   6.834   2.977   3.634  0.3038  0.9258 -0.5353
  162OSM    H8S18202   6.798   3.082   3.624  1.1139  1.2937  0.1720
  162OSM    H8T18203   6.942   2.990   3.656  0.7157  0.1172 -2.0132
  162OSM    C9S18204   6.764   2.894   3.742 -0.3581 -0.2444  0.0924
  162OSM    H9S18205   6.826   2.803   3.758  0.0295 -0.2620 -1.3624
  162OSM    H9T18206   6.668   2.854   3.705 -0.1728 -1.2779  0.7033
  162OSM   C10S18207   6.741   2.974   3.865 -0.0363 -1.2030 -0.8016
  162OSM   H10S18208   6.671   3.057   3.839  1.0564  0.4237  1.1339
  162OSM   H10T18209   6.830   3.021   3.912 -0.5730 -1.9141  1.0464
  162OSM   C11S18210   6.676   2.895   3.983 -0.4001  0.2085 -0.4321
  162OSM   H11S18211   6.739   2.804   3.985  1.0116  1.1453 -0.7604
  162OSM   H11T18212   6.571   2.872   3.953 -1.2541  2.0774  0.8976
  162OSM   C12S18213   6.679   2.974   4.119  0.4883 -0.0560 -0.2659
  162OSM   H12S18214   6.591   2.961   4.185  0.7088 -1.4172 -0.2013
  162OSM   H12T18215   6.677   3.082   4.094  0.4966  0.0122  0.0223
  162OSM   C13S18216   6.805   2.940   4.205 -0.0305 -0.0619  0.7037
  162OSM   H13S18217   6.895   2.979   4.152 -0.4737  0.4620  0.3189
  162OSM   H13T18218   6.822   2.831   4.189 -0.6686 -0.0923  0.1868
  162OSM   C14S18219   6.798   2.979   4.351 -0.9104 -1.2283  0.6910
  162OSM   H14S18220   6.714   2.934   4.410 -1.0113 -4.2408 -1.5050
  162OSM   H14T18221   6.785   3.089   4.357  0.0542 -1.0289 -0.4298
  162OSM   C15S18222   6.920   2.946   4.428  0.5821 -0.1692 -0.8662
  162OSM   H15S18223   7.000   3.022   4.419  1.3052 -1.0083 -1.7139
  162OSM   H15T18224   6.966   2.853   4.388 -0.8783 -1.5884  0.5852
  162OSM   C16S18225   6.900   2.919   4.585  0.3494 -0.8029 -0.3057
  162OSM   H16S18226   6.804   2.868   4.604 -1.3492  2.3661  0.3097
  162OSM   H16T18227   6.893   3.017   4.637 -0.3097 -0.7441 -0.5015
  162OSM   C17S18228   7.012   2.836   4.646 -0.0254  0.3336 -0.1605
  162OSM   H17S18229   7.088   2.850   4.566  0.2033  1.8224  0.2753
  162OSM   H17T18230   6.991   2.728   4.658  1.8751  0.0868  1.2478
  162OSM   C18S18231   7.064   2.905   4.772  0.7823 -0.1113  0.5661
  162OSM   H18S18232   7.010   2.864   4.859  1.7856  0.8126  1.6578
  162OSM   H18T18233   7.042   3.014   4.775 -0.3673 -0.3246  0.1768
  162OSM   H18U18234   7.174   2.903   4.791  0.7337 -0.4508  0.8296
  162OSM    C1F18235   6.401   2.838   3.160 -0.5048 -0.2150  0.1102
  162OSM     OF18236   6.351   2.744   3.099 -0.0022  0.2984 -0.1220
  162OSM    C2F18237   6.325   2.915   3.261 -0.5569  0.3261 -0.1629
  162OSM    H2F18238   6.234   2.858   3.290  0.7502 -2.5140 -1.3083
  162OSM    H2G18239   6.285   3.013   3.228 -0.6700  1.1985  2.3681
  162OSM    C3F18240   6.407   2.959   3.378 -0.3015 -0.7372 -0.5510
  162OSM    H3F18241   6.494   3.018   3.341  0.2881 -2.1212 -1.4764
  162OSM    H3G18242   6.458   2.886   3.445  0.9629  0.3016 -0.3488
  162OSM    C4F18243   6.320   3.045   3.475  0.0675 -0.2590  0.0685
  162OSM    H4F18244   6.244   2.981   3.523  2.7352 -0.7727  4.0564
  162OSM    H4G18245   6.260   3.109   3.406  0.1822 -2.7084 -2.5202
  162OSM    C5F18246   6.399   3.122   3.579  0.0514  0.2378 -0.2716
  162OSM    H5F18247   6.484   3.181   3.536  0.9144 -0.1772  0.8098
  162OSM    H5G18248   6.439   3.040   3.642  0.7404 -0.2741 -1.3249
  162OSM    C6F18249   6.308   3.210   3.666  0.6007 -0.3367 -0.6602
  162OSM    H6F18250   6.216   3.159   3.704 -0.3759  2.2351  0.6940
  162OSM    H6G18251   6.265   3.288   3.600  2.6222  2.7113  1.3873
  162OSM    C7F18252   6.376   3.288   3.773 -0.1578 -0.1546  0.0165
  162OSM    H7F18253   6.321   3.377   3.809  1.0738  0.1959  1.1063
  162OSM    H7G18254   6.462   3.339   3.725  0.6040 -1.4365 -0.0362
  162OSM    C8F18255   6.421   3.206   3.892 -0.4877 -0.0592 -0.6868
  162OSM    H8F18256   6.499   3.262   3.947 -0.8217  0.8690 -1.1373
  162OSM    H8G18257   6.465   3.108   3.863 -1.4537 -0.5546 -0.5252
  162OSM    C9F18258   6.306   3.171   3.983 -0.6292 -0.1176 -0.2064
  162OSM    H9F18259   6.234   3.099   3.942 -0.3464 -0.3147 -0.3635
  162OSM   C10F18260   6.278   3.234   4.100 -0.0877  0.0351 -0.5303
  162OSM   H10F18261   6.187   3.197   4.151 -1.7993 -0.3141 -3.5953
  162OSM   C11F18262   6.345   3.352   4.164 -0.3970  0.6047 -0.3149
  162OSM   H11F18263   6.272   3.434   4.173 -0.2121  0.9217 -1.4665
  162OSM   H11G18264   6.437   3.385   4.111  0.0816  0.1690  0.2269
  162OSM   C12F18265   6.393   3.317   4.307  0.0241 -0.2226  0.2262
  162OSM   H12F18266   6.485   3.255   4.303  0.9559  0.8357  2.9333
  162OSM   H12G18267   6.317   3.260   4.365 -0.2200 -0.1773 -0.0436
  162OSM   C13F18268   6.423   3.443   4.382  0.0326 -0.1364  0.0946
  162OSM   H13F18269   6.343   3.520   4.390 -0.4864 -0.8324  3.1867
  162OSM   H13G18270   6.509   3.489   4.330 -1.2354 -0.1574 -2.1371
  162OSM   C14F18271   6.476   3.400   4.527  0.2339 -0.4864  0.4548
  162OSM   H14F18272   6.551   3.318   4.522 -0.6925 -1.3331  0.0968
  162OSM   H14G18273   6.388   3.358   4.581 -0.7062  0.3450 -0.3914
  162OSM   C15F18274   6.523   3.516   4.612  0.4556 -0.3450  0.0188
  162OSM   H15F18275   6.593   3.576   4.548  0.7540  0.2942  0.9281
  162OSM   H15G18276   6.585   3.474   4.693  0.1415 -1.2923 -0.2233
  162OSM   C16F18277   6.422   3.617   4.668 -0.0722 -0.3014  0.5433
  162OSM   H16F18278   6.349   3.632   4.586  2.7564  0.2507 -2.0725
  162OSM   H16G18279   6.479   3.709   4.692 -0.0074 -0.5284  1.2793
  162OSM   C17F18280   6.357   3.570   4.795  0.4608  0.7314 -0.1171
  162OSM   H17F18281   6.430   3.557   4.878  0.3632 -0.6646 -0.2237
  162OSM   H17G18282   6.324   3.466   4.773 -1.0778  0.5341  2.6355
  162OSM   C18F18283   6.250   3.657   4.848  0.0352 -0.6413 -0.7458
  162OSM   H18F18284   6.287   3.750   4.896 -1.1794 -0.1892 -0.6729
  162OSM   H18G18285   6.201   3.594   4.925  1.2830  0.8325  1.3634
  162OSM   H18H18286   6.175   3.681   4.770 -0.7751 -1.7292 -0.3324
  163OSM      N18287   3.489   4.237   2.680 -0.3461  0.4295 -0.4692
  163OSM    C1518288   3.456   4.324   2.793 -0.5930  0.0031 -0.6109
  163OSM   H15A18289   3.452   4.265   2.883  0.4501 -2.1739 -1.9133
  163OSM   H15B18290   3.361   4.374   2.779 -0.9400 -0.5998 -0.4190
  163OSM   H15C18291   3.531   4.402   2.804  0.3451 -1.0044  0.4162
  163OSM    C1418292   3.366   4.158   2.658 -0.4985  0.1042 -0.6056
  163OSM   H14A18293   3.335   4.104   2.747 -1.1473 -0.0612 -0.9315
  163OSM   H14B18294   3.379   4.083   2.582  3.4012  1.1704 -1.2221
  163OSM   H14C18295   3.287   4.226   2.633 -0.7706 -0.2527 -0.7268
  163OSM    C1318296   3.522   4.329   2.564  0.2656  0.0169  0.3298
  163OSM   H13A18297   3.541   4.275   2.473 -0.5670  2.9522 -1.7153
  163OSM   H13B18298   3.617   4.378   2.577  1.4574 -2.5016  1.9243
  163OSM   H13C18299   3.443   4.403   2.555 -0.5748 -0.5788  2.2096
  163OSM    C1218300   3.618   4.150   2.707  0.0674  0.3564  0.1219
  163OSM   H12A18301   3.652   4.103   2.616 -0.4400 -0.0630  0.1429
  163OSM   H12B18302   3.593   4.070   2.776 -2.0152  0.7812 -0.0712
  163OSM    C1118303   3.743   4.211   2.770 -0.3384 -0.0482  0.7094
  163OSM   H11A18304   3.827   4.141   2.790 -1.4603 -1.7109 -0.1938
  163OSM   H11B18305   3.728   4.264   2.867  1.5920 -1.0933  1.6450
  163OSM      P18306   3.914   4.260   2.580 -0.1590  0.5092 -0.0121
  163OSM    O1318307   3.878   4.138   2.503 -0.0239 -0.5151 -0.0603
  163OSM    O1418308   3.957   4.375   2.491  0.4539  0.1816  0.1072
  163OSM    O1118309   4.032   4.228   2.681 -0.2872 -0.5630  0.1180
  163OSM    O1218310   3.792   4.300   2.676 -0.1777  0.1870 -0.0047
  163OSM    C1S18311   4.047   4.312   2.794  0.1849 -0.7152  0.3745
  163OSM    H1S18312   3.987   4.271   2.878  0.9571 -0.4792  1.0608
  163OSM    H1T18313   4.018   4.417   2.770  0.0475 -0.1916  2.6204
  163OSM     NF18314   4.207   4.388   2.966 -0.8418  0.1803 -0.3463
  163OSM    HNF18315   4.250   4.477   2.958 -0.3623 -0.1592 -1.7679
  163OSM    C2S18316   4.193   4.319   2.841 -0.3966 -0.2850  0.5653
  163OSM    H2S18317   4.216   4.213   2.865  1.2215 -0.2433 -0.7081
  163OSM    C3S18318   4.301   4.365   2.739  0.1991  0.3824 -0.0703
  163OSM    H3S18319   4.285   4.473   2.719 -3.3217 -0.2114 -0.9954
  163OSM     O318320   4.292   4.296   2.618 -0.1022  0.3632 -0.4788
  163OSM    HO318321   4.205   4.258   2.629 -0.3600  1.5993  3.1750
  163OSM    C4S18322   4.439   4.348   2.791 -0.1101 -0.6694  0.4130
  163OSM    H4S18323   4.469   4.248   2.825  0.8006 -0.1229  1.2948
  163OSM    C5S18324   4.525   4.451   2.802  0.2206  0.8474  0.0008
  163OSM    H5S18325   4.487   4.552   2.780 -1.0542  0.0708 -1.5159
  163OSM    C6S18326   4.660   4.456   2.878  0.4154 -0.3325  0.4676
  163OSM    H6S18327   4.734   4.493   2.803  0.5388  3.3911  2.1972
  163OSM    H6T18328   4.699   4.354   2.899  1.2024  0.5600  3.9148
  163OSM    C7S18329   4.676   4.540   3.011 -0.3869  0.9830  0.4044
  163OSM    H7S18330   4.610   4.629   3.007 -1.4508  0.2214 -4.0503
  163OSM    H7T18331   4.777   4.583   3.024 -0.5143  2.0808 -1.8975
  163OSM    C8S18332   4.637   4.460   3.141 -0.8412 -0.4398 -0.0390
  163OSM    H8S18333   4.710   4.381   3.170 -2.1660 -1.0608  1.7747
  163OSM    H8T18334   4.538   4.411   3.130 -0.5357 -1.3126  0.8947
  163OSM    C9S18335   4.611   4.553   3.259  0.2258 -0.2062  0.1968
  163OSM    H9S18336   4.521   4.613   3.234  0.1222 -0.8889 -1.1610
  163OSM    H9T18337   4.697   4.620   3.279 -0.1637 -0.1821  1.9466
  163OSM   C10S18338   4.585   4.475   3.385 -0.1829 -0.6470 -0.0941
  163OSM   H10S18339   4.689   4.444   3.409  0.4837  0.2397 -1.7255
  163OSM   H10T18340   4.528   4.386   3.351  0.9496 -2.1166  1.6606
  163OSM   C11S18341   4.515   4.549   3.492  0.5738  0.1586 -0.3496
  163OSM   H11S18342   4.417   4.579   3.448 -0.4342 -2.4483 -0.0695
  163OSM   H11T18343   4.572   4.637   3.528  0.3309 -0.3752  1.4702
  163OSM   C12S18344   4.491   4.475   3.627  0.0464 -0.4994 -0.4762
  163OSM   H12S18345   4.583   4.449   3.683  0.4927  1.5376 -0.1655
  163OSM   H12T18346   4.433   4.383   3.605 -1.8215  1.0009 -2.2445
  163OSM   C13S18347   4.403   4.547   3.726  0.7224 -0.1428  0.1762
  163OSM   H13S18348   4.306   4.561   3.675  0.4948  0.4788  0.7667
  163OSM   H13T18349   4.445   4.647   3.750 -2.5045  1.5213 -0.5468
  163OSM   C14S18350   4.379   4.469   3.859 -0.7859 -0.7605  0.5394
  163OSM   H14S18351   4.347   4.363   3.855  2.4055 -1.8329  0.7382
  163OSM   H14T18352   4.289   4.523   3.897 -0.7833  2.3331 -3.2440
  163OSM   C15S18353   4.487   4.505   3.962  0.4284  0.1553  0.4179
  163OSM   H15S18354   4.482   4.615   3.973  2.3335  0.6149 -2.4475
  163OSM   H15T18355   4.583   4.470   3.921  0.2668 -0.8988  0.8902
  163OSM   C16S18356   4.473   4.436   4.096  0.2503  0.2241  0.4041
  163OSM   H16S18357   4.570   4.397   4.132  0.2887  0.7259  0.8528
  163OSM   H16T18358   4.397   4.355   4.088  0.6636 -0.1269 -0.0456
  163OSM   C17S18359   4.412   4.526   4.202  0.6120 -0.9287  0.3736
  163OSM   H17S18360   4.498   4.594   4.222  1.8564 -2.2768 -0.2048
  163OSM   H17T18361   4.410   4.466   4.296  0.7154 -0.4196  0.7084
  163OSM   C18S18362   4.282   4.600   4.175  0.4741  0.1199 -0.0950
  163OSM   H18S18363   4.256   4.678   4.250 -0.0465 -1.0201  0.9411
  163OSM   H18T18364   4.195   4.531   4.176  1.0813 -0.6551 -0.2289
  163OSM   H18U18365   4.274   4.658   4.081 -1.1973  2.7692  1.5170
  163OSM    C1F18366   4.154   4.355   3.082  0.2721  0.0734  0.2643
  163OSM     OF18367   4.082   4.255   3.095  0.2743  0.4373 -0.5325
  163OSM    C2F18368   4.188   4.455   3.193 -0.1336  0.0191 -0.2195
  163OSM    H2F18369   4.144   4.551   3.160  1.2417  0.3919 -1.0820
  163OSM    H2G18370   4.296   4.472   3.210  0.0691 -0.2081 -1.1988
  163OSM    C3F18371   4.127   4.415   3.328 -0.3641 -0.1937  0.4198
  163OSM    H3F18372   4.019   4.399   3.307  0.0896 -0.3802 -2.1721
  163OSM    H3G18373   4.149   4.504   3.390  1.9680  1.6616 -2.7589
  163OSM    C4F18374   4.178   4.300   3.407 -0.0441 -0.7654  0.6452
  163OSM    H4F18375   4.284   4.327   3.429 -0.2212  0.0946  0.4765
  163OSM    H4G18376   4.169   4.201   3.358 -0.5946 -0.9425  1.0938
  163OSM    C5F18377   4.107   4.289   3.542 -0.2669 -0.0455 -0.2147
  163OSM    H5F18378   4.002   4.256   3.529 -0.1390 -0.0111 -1.4004
  163OSM    H5G18379   4.107   4.395   3.575  1.6241  0.7654 -2.4766
  163OSM    C6F18380   4.169   4.185   3.631 -0.2737  0.5848 -0.0354
  163OSM    H6F18381   4.278   4.204   3.642 -0.1330  1.1960 -2.0811
  163OSM    H6G18382   4.152   4.092   3.573 -2.9511  0.5593  0.6686
  163OSM    C7F18383   4.114   4.174   3.770 -0.1150  0.7273 -0.7608
  163OSM    H7F18384   4.004   4.179   3.775 -0.0744  1.7433 -0.5757
  163OSM    H7G18385   4.150   4.256   3.836 -0.2594  0.0115  0.2383
  163OSM    C8F18386   4.157   4.040   3.842  0.6567  0.3083 -0.1826
  163OSM    H8F18387   4.268   4.044   3.854  0.5099  0.9323  1.1662
  163OSM    H8G18388   4.128   3.956   3.776  0.0003  0.8930 -0.6452
  163OSM    C9F18389   4.098   4.034   3.976  0.1939  0.0498 -0.0216
  163OSM    H9F18390   3.988   4.026   3.973 -0.0296  2.0689  0.9409
  163OSM   C10F18391   4.171   4.022   4.094  0.2010  0.7822 -1.0756
  163OSM   H10F18392   4.113   4.015   4.188 -0.7775  0.7970 -1.6577
  163OSM   C11F18393   4.321   4.041   4.114  0.0580 -0.3039  0.3284
  163OSM   H11F18394   4.359   4.132   4.062 -1.1297 -0.6110 -1.1460
  163OSM   H11G18395   4.379   3.953   4.078 -1.2987 -0.3441 -1.9121
  163OSM   C12F18396   4.350   4.060   4.265 -0.3121 -0.0906 -0.3365
  163OSM   H12F18397   4.461   4.059   4.271 -0.3780  0.4605  2.2079
  163OSM   H12G18398   4.314   3.964   4.308 -0.0288  0.3703  0.9882
  163OSM   C13F18399   4.284   4.184   4.344  0.1654  0.1282  0.6805
  163OSM   H13F18400   4.173   4.186   4.345  0.1331 -0.4344 -0.3396
  163OSM   H13G18401   4.300   4.282   4.295 -0.2306 -0.9785 -1.8374
  163OSM   C14F18402   4.332   4.208   4.489 -0.1951  0.4765 -0.3137
  163OSM   H14F18403   4.437   4.243   4.480  0.0759  0.0646  1.0383
  163OSM   H14G18404   4.331   4.114   4.549 -1.2072  0.4666 -0.3342
  163OSM   C15F18405   4.251   4.317   4.560 -0.0438  0.3467  0.3997
  163OSM   H15F18406   4.147   4.318   4.521  0.1486  1.2493 -0.1186
  163OSM   H15G18407   4.288   4.417   4.531  0.9394  1.3702  4.6585
  163OSM   C16F18408   4.257   4.298   4.714 -0.6774 -0.7251 -0.2573
  163OSM   H16F18409   4.360   4.314   4.752 -1.3000  0.5328  0.9719
  163OSM   H16G18410   4.230   4.193   4.737  0.3016 -0.6732  1.2828
  163OSM   C17F18411   4.160   4.398   4.792 -0.3617  0.1050  1.1504
  163OSM   H17F18412   4.065   4.374   4.739 -0.2172 -1.6211  1.6412
  163OSM   H17G18413   4.191   4.496   4.749  0.0747 -0.8035 -0.6884
  163OSM   C18F18414   4.155   4.406   4.944  0.1197  0.3469  0.5613
  163OSM   H18F18415   4.102   4.498   4.977 -0.4085  0.2111  0.0886
  163OSM   H18G18416   4.253   4.399   4.997 -0.8008 -2.3246  2.0504
  163OSM   H18H18417   4.086   4.332   4.989  0.1280 -0.1666 -0.2675
  164OSM      N18418   0.809   4.625   2.151 -0.1023 -0.1897 -0.0482
  164OSM    C1518419   0.799   4.736   2.250 -0.8409  0.3503 -0.9653
  164OSM   H15A18420   0.759   4.828   2.208 -3.5652 -0.2490  0.0920
  164OSM   H15B18421   0.893   4.763   2.296 -1.8719  0.2267  1.3436
  164OSM   H15C18422   0.738   4.716   2.336 -0.4906 -2.6973 -1.3162
  164OSM    C1418423   0.681   4.624   2.059  0.0716 -0.1847 -0.2190
  164OSM   H14A18424   0.683   4.540   1.992 -2.3858  0.7791 -1.6649
  164OSM   H14B18425   0.686   4.715   2.001  2.5805 -0.6996 -0.9173
  164OSM   H14C18426   0.591   4.624   2.120  0.6389 -0.7596  0.6295
  164OSM    C1318427   0.923   4.645   2.051  0.0652  0.0973 -0.3032
  164OSM   H13A18428   0.928   4.562   1.983  1.7564 -0.9665  1.0521
  164OSM   H13B18429   1.017   4.656   2.103  0.9902  1.3372 -2.1200
  164OSM   H13C18430   0.918   4.738   1.996  3.4270 -0.4636 -1.7954
  164OSM    C1218431   0.836   4.494   2.220 -0.0915 -0.0121 -0.3532
  164OSM   H12A18432   0.927   4.501   2.279  0.3001 -2.6323 -0.5499
  164OSM   H12B18433   0.845   4.417   2.146 -2.1165 -0.8291  0.1907
  164OSM    C1118434   0.733   4.439   2.319 -0.3071 -0.4898 -0.7926
  164OSM   H11A18435   0.638   4.483   2.283 -0.2473  0.6951  0.4137
  164OSM   H11B18436   0.754   4.486   2.418  0.5577 -2.0618 -0.1751
  164OSM      P18437   0.617   4.210   2.291  0.3522  0.0572  0.4244
  164OSM    O1318438   0.547   4.261   2.174  0.0979 -0.2195  0.1488
  164OSM    O1418439   0.647   4.064   2.291  0.1598 -0.1302 -0.2809
  164OSM    O1118440   0.522   4.241   2.415 -0.0510 -0.1222  0.3253
  164OSM    O1218441   0.742   4.300   2.322 -0.3096  0.0313  0.3127
  164OSM    C1S18442   0.561   4.200   2.546 -0.1381  1.3027  0.4969
  164OSM    H1S18443   0.653   4.249   2.586  1.5047 -1.8528  0.8490
  164OSM    H1T18444   0.586   4.092   2.544  0.2872  1.4055 -0.1782
  164OSM     NF18445   0.486   4.185   2.782  0.4586  0.0613  0.2527
  164OSM    HNF18446   0.455   4.099   2.823 -2.7907  1.1840  0.4333
  164OSM    C2S18447   0.441   4.208   2.651 -0.2928 -0.4133  0.1980
  164OSM    H2S18448   0.395   4.308   2.638  0.2218 -0.1561  0.3686
  164OSM    C3S18449   0.326   4.110   2.610  0.0040 -0.1533 -0.5693
  164OSM    H3S18450   0.369   4.009   2.627 -1.8570 -0.9105 -0.0959
  164OSM     O318451   0.288   4.105   2.470 -0.1537  0.4004 -0.5297
  164OSM    HO318452   0.344   4.165   2.420  0.3605  0.5701  0.2216
  164OSM    C4S18453   0.206   4.122   2.702 -0.0760  0.3774  0.8642
  164OSM    H4S18454   0.213   4.064   2.795  0.9958 -1.4770 -0.3094
  164OSM    C5S18455   0.093   4.184   2.674  0.5272 -0.2237 -0.0128
  164OSM    H5S18456   0.083   4.229   2.575 -0.0834 -0.3591 -0.0163
  164OSM    C6S18457  -0.025   4.208   2.767  1.2819  0.1233  0.6478
  164OSM    H6S18458  -0.115   4.197   2.703  2.0466 -1.5314 -0.2233
  164OSM    H6T18459  -0.021   4.317   2.786  0.5480  0.3747 -0.5356
  164OSM    C7S18460  -0.044   4.135   2.904 -0.2516  0.4120  0.2362
  164OSM    H7S18461  -0.017   4.029   2.882 -2.7152 -0.3351  0.4852
  164OSM    H7T18462  -0.154   4.132   2.923 -0.1973 -2.6929  0.6924
  164OSM    C8S18463   0.048   4.201   3.015 -0.4306  0.2396  1.4372
  164OSM    H8S18464   0.054   4.304   2.973  1.4045 -0.4757 -0.2168
  164OSM    H8T18465   0.146   4.151   3.008 -0.8904 -0.5169 -0.1091
  164OSM    C9S18466  -0.001   4.191   3.153  0.2128 -0.0130  0.6015
  164OSM    H9S18467  -0.096   4.248   3.155  0.8843  1.0953  1.9859
  164OSM    H9T18468   0.075   4.241   3.215  0.3494 -1.0192  1.2764
  164OSM   C10S18469  -0.007   4.048   3.217 -0.7989 -0.6704  0.0336
  164OSM   H10S18470   0.096   4.006   3.212 -1.6665 -3.1059  1.0268
  164OSM   H10T18471  -0.064   3.975   3.155  0.4669 -0.2057 -1.7308
  164OSM   C11S18472  -0.076   4.050   3.356 -0.4421  0.0455  0.3068
  164OSM   H11S18473  -0.115   3.948   3.375  2.8191 -1.4189 -0.3743
  164OSM   H11T18474  -0.152   4.130   3.342  1.2629  1.4481 -1.4427
  164OSM   C12S18475   0.013   4.090   3.468 -0.3607  0.2321 -0.5168
  164OSM   H12S18476   0.060   4.182   3.426 -0.4590  0.3790 -0.3084
  164OSM   H12T18477   0.086   4.008   3.482 -0.6169  0.1751  0.5422
  164OSM   C13S18478  -0.062   4.124   3.595 -0.1644 -0.6258 -0.5046
  164OSM   H13S18479  -0.113   4.031   3.630 -2.1098  0.8346  0.7509
  164OSM   H13T18480  -0.140   4.199   3.573  0.0024 -0.9020 -2.1421
  164OSM   C14S18481   0.036   4.170   3.708  0.3637 -0.4198  0.1943
  164OSM   H14S18482   0.107   4.249   3.677  1.0790  1.0044  4.7642
  164OSM   H14T18483   0.106   4.087   3.733  1.3044  0.3062  0.0362
  164OSM   C15S18484  -0.023   4.230   3.835 -0.0436  0.1589  0.4772
  164OSM   H15S18485  -0.082   4.322   3.817 -1.3608 -0.7578 -0.0161
  164OSM   H15T18486   0.055   4.254   3.910 -1.6054 -0.5179  2.3747
  164OSM   C16S18487  -0.117   4.136   3.905  0.4722  0.1517  0.4147
  164OSM   H16S18488  -0.196   4.103   3.835  1.4847 -2.1687  0.2448
  164OSM   H16T18489  -0.163   4.198   3.984 -2.0972  0.2346 -1.0559
  164OSM   C17S18490  -0.060   3.997   3.943  0.0944 -0.2957  0.2942
  164OSM   H17S18491  -0.024   3.937   3.856  2.9017 -1.1227  1.9067
  164OSM   H17T18492  -0.141   3.935   3.988 -0.4354 -0.2369 -0.5386
  164OSM   C18S18493   0.059   3.997   4.041 -0.3535  0.1884  0.4585
  164OSM   H18S18494   0.046   4.062   4.130  0.8301  0.2364  0.6151
  164OSM   H18T18495   0.151   4.014   3.980 -1.9130 -0.5857 -2.2824
  164OSM   H18U18496   0.069   3.897   4.089 -0.7717 -0.1570 -0.1590
  164OSM    C1F18497   0.550   4.280   2.849  0.0411 -1.0080  0.0609
  164OSM     OF18498   0.577   4.389   2.803  0.3509  0.2730 -0.7061
  164OSM    C2F18499   0.597   4.258   2.987  0.4425  0.1127  0.1140
  164OSM    H2F18500   0.691   4.315   3.003  1.1808 -1.1565  0.4309
  164OSM    H2G18501   0.628   4.151   2.987  0.5968  0.1568 -0.0016
  164OSM    C3F18502   0.487   4.282   3.098  0.0728 -0.2189  0.3622
  164OSM    H3F18503   0.407   4.206   3.091 -0.6697  0.2887  2.6168
  164OSM    H3G18504   0.443   4.383   3.088  0.5560 -0.1553 -1.5384
  164OSM    C4F18505   0.552   4.273   3.237  0.2686  0.3218 -0.7105
  164OSM    H4F18506   0.637   4.344   3.254  2.2373 -1.9300 -0.6154
  164OSM    H4G18507   0.604   4.175   3.245 -0.8896 -0.2836 -0.4227
  164OSM    C5F18508   0.452   4.273   3.353  0.1411 -0.1347 -0.9416
  164OSM    H5F18509   0.384   4.189   3.329  0.8669 -0.7005 -1.0544
  164OSM    H5G18510   0.395   4.367   3.336 -1.2108 -0.7682 -0.1339
  164OSM    C6F18511   0.517   4.260   3.492 -0.5154  0.1537  0.2253
  164OSM    H6F18512   0.535   4.365   3.524  1.9260 -0.4783  1.1129
  164OSM    H6G18513   0.611   4.203   3.483 -0.5090  0.1638  0.2271
  164OSM    C7F18514   0.441   4.170   3.595  0.4186 -0.5310  0.3585
  164OSM    H7F18515   0.403   4.078   3.547 -0.7889 -0.0177  0.2894
  164OSM    H7G18516   0.342   4.219   3.611  1.1110  0.7735  0.8778
  164OSM    C8F18517   0.527   4.143   3.723 -0.4144  0.1600 -0.0027
  164OSM    H8F18518   0.621   4.093   3.693 -0.1474 -0.4479  1.7266
  164OSM    H8G18519   0.474   4.071   3.789  2.7838 -2.1792  0.2433
  164OSM    C9F18520   0.564   4.267   3.807 -0.0121  0.0319  0.2802
  164OSM    H9F18521   0.659   4.310   3.773  1.3727 -2.1057  1.2775
  164OSM   C10F18522   0.494   4.321   3.913 -0.4452  0.7475  0.7320
  164OSM   H10F18523   0.522   4.418   3.956  0.9050  0.3066  0.9094
  164OSM   C11F18524   0.374   4.262   3.988 -0.6303 -0.4664  0.0197
  164OSM   H11F18525   0.283   4.248   3.926  0.1349 -0.6750 -1.0815
  164OSM   H11G18526   0.344   4.338   4.063 -0.0453  0.8840 -1.0718
  164OSM   C12F18527   0.392   4.128   4.066  0.3840 -0.1006 -0.0387
  164OSM   H12F18528   0.366   4.046   3.996 -2.9905  2.4855 -2.1263
  164OSM   H12G18529   0.331   4.131   4.158 -0.5440 -1.7575 -0.5619
  164OSM   C13F18530   0.539   4.100   4.115 -0.3460 -0.3135 -0.2366
  164OSM   H13F18531   0.558   4.179   4.191  1.8904 -0.5255 -0.5212
  164OSM   H13G18532   0.619   4.104   4.039 -0.8756 -2.1598 -0.9445
  164OSM   C14F18533   0.556   3.970   4.209  0.3189 -0.0228  1.1464
  164OSM   H14F18534   0.533   3.877   4.152  2.4942  1.6143 -2.8155
  164OSM   H14G18535   0.484   3.994   4.291 -0.1765  1.2151  0.3738
  164OSM   C15F18536   0.693   3.971   4.282 -0.1941  0.2286 -0.1913
  164OSM   H15F18537   0.671   3.916   4.376  0.6820 -0.8513 -0.5979
  164OSM   H15G18538   0.734   4.068   4.318  1.2814 -1.5639  3.4886
  164OSM   C16F18539   0.807   3.903   4.203  0.9387 -0.4924 -0.5305
  164OSM   H16F18540   0.829   3.954   4.107  0.4534  0.0763 -0.3436
  164OSM   H16G18541   0.784   3.799   4.170  0.1214 -0.0157 -1.5184
  164OSM   C17F18542   0.937   3.907   4.283  0.1355 -0.5224 -0.5014
  164OSM   H17F18543   0.966   4.013   4.300 -6.0935  1.1058  2.8209
  164OSM   H17G18544   1.010   3.851   4.220 -0.4307 -1.8888  0.0101
  164OSM   C18F18545   0.915   3.834   4.411  0.0028  0.3981 -0.4650
  164OSM   H18F18546   1.007   3.804   4.464 -0.1626 -0.1518 -0.4834
  164OSM   H18G18547   0.857   3.742   4.386 -0.7669  1.1040 -1.3887
  164OSM   H18H18548   0.852   3.903   4.472  2.0467  3.1912 -1.3270
  165SAPS     N18549   1.880   1.211   6.635 -0.1082  0.4144  0.3304
  165SAPS   HN118550   1.841   1.254   6.549  0.2982 -2.2850 -1.3079
  165SAPS   HN218551   1.971   1.166   6.613 -0.0914  0.3334  0.5586
  165SAPS   HN318552   1.819   1.133   6.669 -0.1736  0.2755 -0.1043
  165SAPS   C1218553   1.915   1.312   6.736 -0.2826 -0.3788  0.5035
  165SAPS  H12A18554   1.825   1.369   6.756  0.4256 -0.1728  3.4049
  165SAPS   C1318555   1.976   1.266   6.869 -0.5597 -0.0009 -0.1238
  165SAPS  O13A18556   1.962   1.147   6.900  1.1521 -0.5761 -0.4862
  165SAPS  O13B18557   2.005   1.351   6.956 -0.1246  0.2148  0.8786
  165SAPS   C1118558   2.019   1.409   6.678  0.2184 -0.8831 -0.3860
  165SAPS  H11A18559   2.119   1.365   6.656  0.6715 -0.3392  0.4870
  165SAPS  H11B18560   2.036   1.490   6.753  0.0836  0.3295 -1.6306
  165SAPS     P18561   1.969   1.627   6.533  0.4530  0.3239  0.4119
  165SAPS   O1318562   1.840   1.683   6.570  0.0845 -0.2023 -0.0632
  165SAPS   O1418563   2.084   1.690   6.605  0.1199 -0.7004  0.1169
  165SAPS   O1218564   1.957   1.470   6.560  0.5907 -1.0214 -0.6044
  165SAPS   O1118565   1.990   1.628   6.371  0.0025 -0.4066 -0.3980
  165SAPS    C118566   2.112   1.608   6.304  0.2411 -0.0849  0.4232
  165SAPS    HA18567   2.135   1.693   6.235  0.7119 -0.8654 -0.4090
  165SAPS    HB18568   2.202   1.615   6.369  1.1562  0.3398 -0.8435
  165SAPS    C218569   2.135   1.471   6.228 -0.2159 -0.1281  0.2052
  165SAPS    HS18570   2.242   1.466   6.202 -0.1868 -1.3097  0.4937
  165SAPS   O2118571   2.047   1.463   6.120  0.1478  0.0349  0.6730
  165SAPS   C2118572   2.096   1.507   5.998 -0.0694  0.2425 -0.3476
  165SAPS   O2218573   2.202   1.568   5.991 -0.5227  0.5827  0.1944
  165SAPS   C2218574   2.001   1.483   5.887  0.3180  0.2164  0.0011
  165SAPS   H2R18575   2.053   1.417   5.815  0.6310  0.4322  0.0257
  165SAPS   H2S18576   1.904   1.441   5.922  1.9291 -1.5286  2.6203
  165SAPS    C318577   2.112   1.357   6.329  0.4632  0.0882 -0.5320
  165SAPS    HX18578   2.008   1.353   6.368  0.8952  0.2331  0.6686
  165SAPS    HY18579   2.171   1.387   6.418 -2.4462  1.0743  1.2287
  165SAPS   O3118580   2.175   1.236   6.279  1.1384 -0.4966  0.2684
  165SAPS   C3118581   2.092   1.153   6.222 -0.3834  0.2170  0.0035
  165SAPS   O3218582   1.973   1.167   6.195  0.2972  0.2027  0.0869
  165SAPS   C3218583   2.170   1.015   6.193 -0.3328 -0.1272 -0.7009
  165SAPS   H2X18584   2.212   0.995   6.294 -2.5171  2.0448  0.7709
  165SAPS   H2Y18585   2.246   1.030   6.114 -1.5765 -0.9505 -2.1080
  165SAPS   C2318586   1.972   1.607   5.796 -0.5907 -0.2244 -0.4520
  165SAPS   H3R18587   2.074   1.645   5.772 -0.6341 -0.3142 -0.7808
  165SAPS   H3S18588   1.918   1.684   5.856  0.7538  1.5638 -1.4041
  165SAPS   C2418589   1.886   1.565   5.674 -0.3246  0.8797 -0.5510
  165SAPS   H4R18590   1.789   1.525   5.710  1.2691 -1.4426  1.5145
  165SAPS   H4S18591   1.936   1.480   5.623  0.1166  0.8163 -0.0283
  165SAPS   C2518592   1.875   1.678   5.581 -0.2056 -0.1688  0.2311
  165SAPS   H5R18593   1.797   1.750   5.609 -2.0222 -1.3622 -1.4849
  165SAPS   C2618594   1.964   1.712   5.490  0.0764 -0.1827 -0.2462
  165SAPS   H6R18595   1.955   1.801   5.425  2.8185  0.2735 -0.1069
  165SAPS   C2718596   2.082   1.636   5.444 -0.1655  0.2654  0.0363
  165SAPS   H7R18597   2.137   1.591   5.530 -0.0614 -0.7855 -0.5522
  165SAPS   H7S18598   2.153   1.704   5.394 -1.0452  0.4951 -0.9302
  165SAPS   C2818599   2.044   1.529   5.347  0.6383 -0.1917 -0.5511
  165SAPS   H8R18600   2.031   1.429   5.391 -0.5178  0.3651  0.4159
  165SAPS   C2918601   2.018   1.550   5.216 -0.0233 -0.3528  0.0690
  165SAPS   H9R18602   1.991   1.460   5.158 -0.8301 -0.7314  1.0090
  165SAPS  C21018603   2.028   1.674   5.133 -0.3474 -0.0999  0.0931
  165SAPS  H10R18604   2.111   1.655   5.061  0.7335  0.4002  1.1685
  165SAPS  H10S18605   2.070   1.760   5.191  0.9770 -1.2457  0.8995
  165SAPS  C21118606   1.892   1.712   5.073 -0.0057  0.3507 -0.1696
  165SAPS  H11R18607   1.827   1.759   5.148 -1.4638 -1.8279  0.0234
  165SAPS  C21218608   1.859   1.720   4.940  0.6265 -0.3173 -0.0614
  165SAPS  H12R18609   1.769   1.772   4.902  1.2035 -0.5022 -1.7713
  165SAPS  C21318610   1.953   1.692   4.829 -0.0616  0.0398 -0.2725
  165SAPS  H13R18611   1.906   1.678   4.729 -0.7875 -1.3455  0.2387
  165SAPS  H13S18612   2.009   1.600   4.857 -0.2143  0.3288  1.0253
  165SAPS  C21418613   2.056   1.798   4.811 -0.3740 -0.6915  0.3292
  165SAPS  H14R18614   2.019   1.897   4.843 -0.6857 -0.0372 -1.8433
  165SAPS  C21518615   2.168   1.790   4.740 -0.5750  0.1144  0.7111
  165SAPS  H15R18616   2.237   1.875   4.731 -0.3483 -0.1293  0.0552
  165SAPS  C21618617   2.222   1.667   4.662 -0.7358 -0.0708  0.0224
  165SAPS  H16R18618   2.224   1.692   4.554 -0.5787  1.8530  0.4234
  165SAPS  H16S18619   2.156   1.579   4.677  0.2547 -1.0054 -0.9452
  165SAPS  C21718620   2.362   1.626   4.717 -0.2582 -0.1235 -0.3996
  165SAPS  H17R18621   2.354   1.582   4.819 -0.3984 -0.6415 -0.6333
  165SAPS  H17S18622   2.413   1.722   4.741 -0.2586 -0.4079  0.7981
  165SAPS  C21818623   2.428   1.507   4.646  0.1202 -0.1076  0.1937
  165SAPS  H18R18624   2.347   1.430   4.645 -0.1028  0.1251  0.1474
  165SAPS  H18S18625   2.510   1.464   4.707  0.9433 -0.6255 -1.2312
  165SAPS  C21918626   2.476   1.538   4.505  0.3553 -0.4929  0.5677
  165SAPS  H19R18627   2.390   1.569   4.441  0.4195 -3.1031 -0.9243
  165SAPS  H19S18628   2.515   1.440   4.470  2.1330  0.1679  0.5982
  165SAPS  C22018629   2.586   1.642   4.508 -0.4565  0.5458 -0.3134
  165SAPS  H20R18630   2.642   1.645   4.412  0.7107  3.4986  0.3438
  165SAPS  H20S18631   2.657   1.617   4.590 -0.1390  2.2274 -0.0403
  165SAPS  H20T18632   2.540   1.743   4.515 -0.7326  0.8391 -4.1000
  165SAPS   C3318633   2.078   0.904   6.144  0.5487  0.0409 -0.3395
  165SAPS   H3X18634   1.997   0.895   6.220 -0.9723  2.4851 -1.5846
  165SAPS   H3Y18635   2.114   0.798   6.141 -0.4575 -0.3193 -0.1609
  165SAPS   C3418636   2.005   0.926   6.006 -0.3439  1.0607 -0.1057
  165SAPS   H4X18637   2.081   0.979   5.946 -1.7534  4.0566  0.5819
  165SAPS   H4Y18638   1.917   0.993   6.016 -1.6352 -0.5020 -0.5672
  165SAPS   C3518639   1.955   0.796   5.940  0.7365 -0.3686  0.5687
  165SAPS   H5X18640   1.886   0.745   6.012  0.7125 -1.7821 -0.4050
  165SAPS   H5Y18641   2.041   0.727   5.928  1.0802 -0.0561  1.2128
  165SAPS   C3618642   1.892   0.810   5.804 -0.2344 -0.1566 -0.7054
  165SAPS   H6X18643   1.971   0.801   5.726 -0.6282 -0.3558 -1.0791
  165SAPS   H6Y18644   1.858   0.912   5.776 -0.2562 -0.4862 -1.9265
  165SAPS   C3718645   1.776   0.711   5.780  0.2779  0.3985 -0.1410
  165SAPS   H7X18646   1.702   0.719   5.863 -0.7681 -0.0883 -0.9982
  165SAPS   H7Y18647   1.821   0.610   5.767 -2.0781 -0.5572 -1.7353
  165SAPS   C3818648   1.706   0.741   5.650  0.6440  0.5859  0.3509
  165SAPS   H8X18649   1.776   0.769   5.568 -0.2216  3.2073  0.4288
  165SAPS   H8Y18650   1.660   0.837   5.681  1.7730  0.8473  1.3154
  165SAPS   C3918651   1.611   0.633   5.604 -0.2681 -0.5087  0.0577
  165SAPS   H9X18652   1.538   0.611   5.684  0.7557 -2.5189  0.5053
  165SAPS   H9Y18653   1.673   0.542   5.589 -1.1269 -1.2205  0.7001
  165SAPS  C31018654   1.541   0.657   5.468  0.5607  0.1367  0.6737
  165SAPS  H10X18655   1.506   0.560   5.427 -3.1460  0.9903  1.4455
  165SAPS  H10Y18656   1.611   0.700   5.393  0.3485  0.6542  0.7638
  165SAPS  C31118657   1.415   0.741   5.474 -0.5967 -0.0482  0.4488
  165SAPS  H11X18658   1.366   0.718   5.572  1.1129 -1.3834  1.0338
  165SAPS  H11Y18659   1.344   0.711   5.394 -1.9689  1.3622  1.0742
  165SAPS  C31218660   1.437   0.890   5.459 -0.1393 -0.0112  0.0407
  165SAPS  H12X18661   1.499   0.907   5.368  0.4054 -0.4684  0.3236
  165SAPS  H12Y18662   1.498   0.934   5.540 -1.2048 -2.8636  2.5848
  165SAPS  C31318663   1.306   0.972   5.446 -0.2150 -0.0843  0.4037
  165SAPS  H13X18664   1.228   0.941   5.519 -1.1615  0.5346 -0.3212
  165SAPS  H13Y18665   1.259   0.956   5.347 -0.1189  0.6112  0.2415
  165SAPS  C31418666   1.339   1.117   5.457 -0.2773  0.4798 -0.3990
  165SAPS  H14X18667   1.388   1.157   5.365 -1.8393  0.8499 -1.0964
  165SAPS  H14Y18668   1.398   1.145   5.548  0.5986 -0.3904 -0.6766
  165SAPS  C31518669   1.215   1.206   5.467 -0.4328 -0.2272  0.1506
  165SAPS  H15X18670   1.182   1.184   5.570  0.5188 -0.4239  0.4219
  165SAPS  H15Y18671   1.138   1.187   5.390  0.5744  0.5743 -1.0987
  165SAPS  C31618672   1.252   1.363   5.462 -0.2152  0.7122  0.0214
  165SAPS  H16X18673   1.157   1.420   5.475 -0.2817  0.5383  0.3161
  165SAPS  H16Y18674   1.291   1.384   5.360 -2.2397 -1.6189 -1.3480
  165SAPS  C31718675   1.351   1.413   5.573  0.3254 -0.0410 -0.1781
  165SAPS  H17X18676   1.343   1.523   5.558 -0.1620  0.0568  0.7351
  165SAPS  H17Y18677   1.450   1.370   5.549  1.1060  0.3463  2.1028
  165SAPS  C31818678   1.309   1.371   5.711  0.2489  0.1288  0.2370
  165SAPS  H18X18679   1.389   1.403   5.782 -1.3845 -0.0220  2.2374
  165SAPS  H18Y18680   1.286   1.263   5.715 -1.1893  0.4465  1.9829
  165SAPS  H18Z18681   1.215   1.423   5.741 -1.1701 -1.6993 -0.8822
  166SAPS     N18682   1.287   0.273   7.079 -0.5685  0.2880  0.0754
  166SAPS   HN118683   1.320   0.345   7.146 -2.3879 -0.6778  2.1368
  166SAPS   HN218684   1.293   0.310   6.982  2.9222  0.6200  0.2900
  166SAPS   HN318685   1.189   0.255   7.108 -0.8864  0.4957 -0.8229
  166SAPS   C1218686   1.386   0.157   7.101 -0.7916  0.2162  0.2141
  166SAPS  H12A18687   1.478   0.190   7.054 -2.6946  2.3929 -2.2897
  166SAPS   C1318688   1.420   0.126   7.247 -0.2180  0.8637  0.5026
  166SAPS  O13A18689   1.343   0.177   7.338  0.3876 -0.2197  0.0142
  166SAPS  O13B18690   1.518   0.053   7.281  0.1790  0.4708 -0.0850
  166SAPS   C1118691   1.335   0.039   7.020 -0.6326  0.3727  0.1206
  166SAPS  H11A18692   1.246  -0.005   7.071  0.2812 -3.1577 -1.1002
  166SAPS  H11B18693   1.409  -0.044   7.025  0.9961  1.5985 -2.0752
  166SAPS     P18694   1.391   0.028   6.762 -0.0998 -0.2869  0.1152
  166SAPS   O1318695   1.364   0.097   6.638 -0.1970  0.1651 -0.5928
  166SAPS   O1418696   1.529   0.029   6.809 -0.1746  0.1737 -0.0829
  166SAPS   O1218697   1.305   0.081   6.886 -0.1060  0.4999  0.0955
  166SAPS   O1118698   1.336  -0.118   6.753 -0.0694  0.4376  0.4534
  166SAPS    C118699   1.195  -0.153   6.757 -0.2940 -0.0350 -0.2410
  166SAPS    HA18700   1.170  -0.202   6.853 -1.0967  0.3409 -0.2529
  166SAPS    HB18701   1.118  -0.075   6.739 -0.3561 -0.2211 -0.8009
  166SAPS    C218702   1.169  -0.263   6.654  0.3005  1.2021 -0.0291
  166SAPS    HS18703   1.058  -0.270   6.661  0.2350  0.7989 -1.3162
  166SAPS   O2118704   1.239  -0.386   6.699 -0.2810 -0.9017  0.1190
  166SAPS   C2118705   1.180  -0.502   6.676 -0.2503  0.4162  0.6545
  166SAPS   O2218706   1.066  -0.519   6.641  0.4109 -0.6355  0.3256
  166SAPS   C2218707   1.280  -0.611   6.717 -0.0698 -0.0673 -0.1325
  166SAPS   H2R18708   1.325  -0.598   6.817  0.8921 -0.6342 -0.4810
  166SAPS   H2S18709   1.224  -0.704   6.742  1.6073 -1.2998 -0.8162
  166SAPS    C318710   1.210  -0.225   6.510  0.3231  0.3444  0.6547
  166SAPS    HX18711   1.316  -0.192   6.509 -0.1789  2.1108  1.4488
  166SAPS    HY18712   1.150  -0.136   6.481 -0.4057  0.0662  1.2572
  166SAPS   O3118713   1.183  -0.341   6.422  0.1825  0.1428  0.5662
  166SAPS   C3118714   1.054  -0.356   6.391  0.8667  0.6587  1.0491
  166SAPS   O3218715   0.963  -0.286   6.425  0.2366  0.5562 -0.4245
  166SAPS   C3218716   1.043  -0.476   6.299  0.2058 -0.4475 -0.5444
  166SAPS   H2X18717   0.987  -0.556   6.354 -0.6020  0.2796 -0.2814
  166SAPS   H2Y18718   1.145  -0.510   6.271  0.6485  0.4215 -0.0221
  166SAPS   C2318719   1.394  -0.616   6.613  0.7707 -0.5829 -0.2932
  166SAPS   H3R18720   1.473  -0.676   6.664  1.2780  0.0093 -0.3594
  166SAPS   H3S18721   1.438  -0.515   6.598 -3.8735  1.9825  1.4368
  166SAPS   C2418722   1.348  -0.690   6.486  0.4635 -0.2406  0.3925
  166SAPS   H4R18723   1.276  -0.628   6.428  2.1280  0.6099 -0.8760
  166SAPS   H4S18724   1.290  -0.780   6.513 -0.5437  0.4701  0.6664
  166SAPS   C2518725   1.464  -0.732   6.402 -0.0930 -0.7970 -0.8628
  166SAPS   H5R18726   1.532  -0.804   6.449 -0.2060 -0.3060  0.0919
  166SAPS   C2618727   1.511  -0.662   6.299 -0.3255 -0.6754 -0.4784
  166SAPS   H6R18728   1.597  -0.703   6.245 -0.2763  0.6368 -1.4558
  166SAPS   C2718729   1.455  -0.543   6.218  0.0438 -0.3532  0.2154
  166SAPS   H7R18730   1.400  -0.471   6.283  0.9922 -0.9185  1.6995
  166SAPS   H7S18731   1.373  -0.590   6.161  0.0092  0.3435 -0.3269
  166SAPS   C2818732   1.569  -0.478   6.144  0.6942  0.0045 -0.2783
  166SAPS   H8R18733   1.597  -0.381   6.188  0.5208  0.3520 -0.9264
  166SAPS   C2918734   1.619  -0.517   6.025 -0.5732  0.9559  0.0771
  166SAPS   H9R18735   1.711  -0.466   5.992 -0.0523 -1.4217 -2.4630
  166SAPS  C21018736   1.585  -0.634   5.938  0.1218 -0.3446  0.8654
  166SAPS  H10R18737   1.552  -0.584   5.845 -0.1988 -0.6355  0.8205
  166SAPS  H10S18738   1.504  -0.697   5.980 -0.4837 -0.9738 -1.1634
  166SAPS  C21118739   1.707  -0.720   5.909  0.0395  0.4676 -0.0214
  166SAPS  H11R18740   1.744  -0.781   5.993 -1.0669  0.0286  0.1624
  166SAPS  C21218741   1.771  -0.729   5.790  0.2168  0.2411  0.2923
  166SAPS  H12R18742   1.861  -0.792   5.790  0.3288  0.3715 -0.6378
  166SAPS  C21318743   1.743  -0.664   5.659 -0.7188 -0.6815 -0.6475
  166SAPS  H13R18744   1.694  -0.565   5.670  1.4338  0.4045 -0.2342
  166SAPS  H13S18745   1.676  -0.719   5.590  0.3363 -0.2448 -2.0852
  166SAPS  C21418746   1.879  -0.644   5.592 -0.0335 -0.1580 -0.3572
  166SAPS  H14R18747   1.967  -0.637   5.657  0.9604  2.1237 -1.8223
  166SAPS  C21518748   1.897  -0.609   5.462  0.4968  0.4045  1.0031
  166SAPS  H15R18749   1.994  -0.575   5.425  0.9175 -0.8263  0.9401
  166SAPS  C21618750   1.783  -0.604   5.360 -0.1701 -0.1660 -0.3630
  166SAPS  H16R18751   1.688  -0.614   5.418 -0.9937  0.7345 -1.5053
  166SAPS  H16S18752   1.781  -0.692   5.292  0.6693  1.0295 -1.9814
  166SAPS  C21718753   1.774  -0.476   5.266  0.2779  0.0836 -0.5568
  166SAPS  H17R18754   1.875  -0.471   5.219  0.8376 -2.2042  0.2522
  166SAPS  H17S18755   1.772  -0.391   5.337 -1.4163  0.1819 -0.6776
  166SAPS  C21818756   1.661  -0.448   5.166  0.4361 -0.1169 -0.4126
  166SAPS  H18R18757   1.687  -0.348   5.125 -0.8265 -0.1436 -1.3619
  166SAPS  H18S18758   1.556  -0.430   5.199  1.3334  3.3726  0.9521
  166SAPS  C21918759   1.647  -0.540   5.043  0.1767  0.1745  0.2642
  166SAPS  H19R18760   1.550  -0.534   4.989  0.5545 -3.1590 -1.0270
  166SAPS  H19S18761   1.664  -0.642   5.083 -0.1519  0.6800  1.7292
  166SAPS  C22018762   1.753  -0.508   4.938 -0.7448 -0.7640  0.1602
  166SAPS  H20R18763   1.731  -0.583   4.859 -2.3926 -0.6834  0.4882
  166SAPS  H20S18764   1.850  -0.524   4.989  0.8915 -3.2447 -3.3375
  166SAPS  H20T18765   1.749  -0.407   4.893  1.1489  0.0843  1.7399
  166SAPS   C3318766   0.969  -0.434   6.171 -0.0655  0.3603  0.1416
  166SAPS   H3X18767   1.034  -0.348   6.142  0.1365 -0.1133 -0.8385
  166SAPS   H3Y18768   0.865  -0.409   6.201  0.0982  0.9296  0.2668
  166SAPS   C3418769   0.964  -0.534   6.051 -0.3015  0.3877  0.2004
  166SAPS   H4X18770   0.883  -0.610   6.065 -1.1176  1.0412 -0.8578
  166SAPS   H4Y18771   1.059  -0.591   6.046 -0.3554  0.4449 -2.5583
  166SAPS   C3518772   0.951  -0.463   5.920  0.4244  0.1062  0.2226
  166SAPS   H5X18773   1.043  -0.403   5.900  1.1316 -1.1151 -0.3340
  166SAPS   H5Y18774   0.861  -0.398   5.912  0.3389  0.1310  1.1857
  166SAPS   C3618775   0.953  -0.565   5.798  0.0954 -0.3514  0.2205
  166SAPS   H6X18776   0.895  -0.655   5.826  2.8952 -2.0613  0.8405
  166SAPS   H6Y18777   1.051  -0.609   5.773 -0.1824 -0.1552 -1.3314
  166SAPS   C3718778   0.874  -0.513   5.681 -0.6666  0.0258 -0.2741
  166SAPS   H7X18779   0.920  -0.421   5.639  0.8116 -1.5881 -2.4183
  166SAPS   H7Y18780   0.772  -0.486   5.715 -0.4046  1.2859 -0.4245
  166SAPS   C3818781   0.882  -0.616   5.561 -0.2216  0.0619 -0.7336
  166SAPS   H8X18782   0.837  -0.710   5.600  0.5593  0.9493  2.6216
  166SAPS   H8Y18783   0.990  -0.632   5.542 -0.2250 -3.0049  1.1110
  166SAPS   C3918784   0.799  -0.570   5.445  0.3013 -0.0859  0.1936
  166SAPS   H9X18785   0.693  -0.558   5.475 -0.2321 -1.2447 -1.1326
  166SAPS   H9Y18786   0.810  -0.662   5.384 -1.8146 -2.2863  2.8680
  166SAPS  C31018787   0.854  -0.453   5.361 -0.5355  0.3697  0.3815
  166SAPS  H10X18788   0.962  -0.466   5.339 -1.0169 -1.3573 -1.1288
  166SAPS  H10Y18789   0.846  -0.361   5.423  1.1818  0.5060  0.4422
  166SAPS  C31118790   0.775  -0.427   5.234  0.4286 -0.1269 -0.0195
  166SAPS  H11X18791   0.766  -0.515   5.167 -1.4188  0.2727 -0.3493
  166SAPS  H11Y18792   0.832  -0.356   5.169  2.9336 -1.7968  0.2164
  166SAPS  C31218793   0.638  -0.358   5.261  0.0597 -0.6646 -0.2666
  166SAPS  H12X18794   0.652  -0.267   5.322  1.9176 -0.9824 -0.1837
  166SAPS  H12Y18795   0.583  -0.429   5.327 -3.5613  1.4797 -0.6782
  166SAPS  C31318796   0.548  -0.326   5.147 -0.0130  0.1259  0.3549
  166SAPS  H13X18797   0.523  -0.416   5.087 -0.3558 -2.1617  3.6293
  166SAPS  H13Y18798   0.613  -0.257   5.089 -0.0506  2.6504  3.1032
  166SAPS  C31418799   0.412  -0.273   5.197 -0.2611 -0.0355 -0.3565
  166SAPS  H14X18800   0.425  -0.187   5.265 -0.8052  0.4646 -0.8766
  166SAPS  H14Y18801   0.357  -0.350   5.256 -0.7747  1.1842  0.8050
  166SAPS  C31518802   0.317  -0.228   5.088  0.2968 -0.4250 -0.5108
  166SAPS  H15X18803   0.286  -0.311   5.021  0.2598 -0.7977 -0.0336
  166SAPS  H15Y18804   0.370  -0.160   5.018  0.1479  0.3691  0.1356
  166SAPS  C31618805   0.201  -0.151   5.140  0.3996  0.2904  0.2953
  166SAPS  H16X18806   0.216  -0.111   5.243  0.9583 -0.0505  0.3522
  166SAPS  H16Y18807   0.121  -0.222   5.172  0.1765  0.5422  0.3067
  166SAPS  C31718808   0.145  -0.058   5.037 -0.4568 -0.0999 -0.5034
  166SAPS  H17X18809   0.145  -0.114   4.941 -0.4491 -0.1617 -0.4676
  166SAPS  H17Y18810   0.209   0.032   5.028  0.8625 -0.8135  1.1709
  166SAPS  C31818811   0.010   0.002   5.068  0.1799 -0.2454 -0.0117
  166SAPS  H18X18812   0.025   0.070   5.155  3.0967  0.3326 -0.8561
  166SAPS  H18Y18813  -0.075  -0.062   5.098  0.1760  0.5335  1.7881
  166SAPS  H18Z18814  -0.023   0.064   4.982 -0.0117  0.0936  0.3041
  167SAPS     N18815   1.706   6.778   6.814  0.5036 -0.5677 -0.0004
  167SAPS   HN118816   1.622   6.727   6.850  0.4780 -0.6515 -0.1757
  167SAPS   HN218817   1.675   6.877   6.809  0.2754 -0.5512  1.4369
  167SAPS   HN318818   1.738   6.748   6.719  2.7869  0.7048  0.3128
  167SAPS   C1218819   1.820   6.765   6.908  0.1967 -0.4257 -0.1626
  167SAPS  H12A18820   1.860   6.665   6.896  1.3190 -0.1119  0.8571
  167SAPS   C1318821   1.945   6.856   6.894  0.1189  0.0528  0.2880
  167SAPS  O13A18822   1.942   6.954   6.816 -0.1625 -0.0131 -0.1865
  167SAPS  O13B18823   2.042   6.832   6.970  0.4196 -0.1290 -0.6864
  167SAPS   C1118824   1.768   6.780   7.055  0.0736 -0.5821  0.3967
  167SAPS  H11A18825   1.720   6.880   7.061 -0.4665 -0.7746 -0.5029
  167SAPS  H11B18826   1.850   6.790   7.130  1.1248  2.7165 -1.0104
  167SAPS     P18827   1.724   6.548   7.154  0.0935  0.0353  0.2632
  167SAPS   O1318828   1.816   6.582   7.264  0.4394 -0.0426 -0.2839
  167SAPS   O1418829   1.605   6.469   7.199 -0.2441  0.1833 -0.0172
  167SAPS   O1218830   1.670   6.680   7.082  0.0195 -0.4948  0.0759
  167SAPS   O1118831   1.813   6.466   7.047  0.4893 -0.1169  0.3190
  167SAPS    C118832   1.741   6.394   6.948  0.1767 -0.1629  0.2489
  167SAPS    HA18833   1.673   6.323   7.001 -0.1972  0.8602  1.1684
  167SAPS    HB18834   1.663   6.458   6.902 -1.0042 -1.2298  0.6824
  167SAPS    C218835   1.838   6.331   6.842  0.2965  0.4840  0.5891
  167SAPS    HS18836   1.908   6.270   6.903  0.8188 -1.0421 -1.4382
  167SAPS   O2118837   1.920   6.435   6.780 -0.0803  0.3335 -0.2010
  167SAPS   C2118838   2.045   6.417   6.751  0.2011 -0.5047 -0.0459
  167SAPS   O2218839   2.116   6.317   6.758  0.3311 -0.3091  0.0453
  167SAPS   C2218840   2.106   6.552   6.706 -0.0868  0.1164 -0.2715
  167SAPS   H2R18841   2.031   6.633   6.722 -0.5279 -0.2216 -0.5854
  167SAPS   H2S18842   2.202   6.563   6.761 -0.3697 -0.3103  0.3172
  167SAPS    C318843   1.785   6.236   6.736 -0.0073  0.0074  0.1367
  167SAPS    HX18844   1.728   6.296   6.663 -0.7839  0.5562  1.1616
  167SAPS    HY18845   1.704   6.174   6.781 -1.6277  0.2222 -2.3055
  167SAPS   O3118846   1.892   6.152   6.683  0.5675 -0.1579 -0.5714
  167SAPS   C3118847   1.877   6.138   6.550 -0.3808  0.0903  0.2358
  167SAPS   O3218848   1.793   6.196   6.484  0.0862  0.3030 -0.0069
  167SAPS   C3218849   1.984   6.039   6.498 -0.0711  0.0567  0.2988
  167SAPS   H2X18850   1.942   5.938   6.520  0.2997 -0.9286 -3.0012
  167SAPS   H2Y18851   2.071   6.066   6.563 -0.7315  0.6809  0.9408
  167SAPS   C2318852   2.132   6.540   6.554 -0.1881 -0.5377  0.6593
  167SAPS   H3R18853   2.138   6.638   6.502 -2.3391 -1.6458 -1.9205
  167SAPS   H3S18854   2.037   6.492   6.522  0.3247 -1.2877  0.2422
  167SAPS   C2418855   2.261   6.464   6.506 -0.2222  0.5349  0.1987
  167SAPS   H4R18856   2.232   6.416   6.410 -1.1455  0.2921  0.5860
  167SAPS   H4S18857   2.269   6.368   6.562 -0.8325 -0.2304 -0.9785
  167SAPS   C2518858   2.398   6.529   6.523  0.1229  0.5411  1.0683
  167SAPS   H5R18859   2.401   6.586   6.617 -3.9512  4.1208 -0.6492
  167SAPS   C2618860   2.480   6.561   6.422  0.8667  0.1035 -0.6934
  167SAPS   H6R18861   2.568   6.625   6.439 -0.1974  1.9654 -1.9099
  167SAPS   C2718862   2.453   6.511   6.277  0.2474 -0.2201  0.2191
  167SAPS   H7R18863   2.369   6.567   6.230 -0.0640 -0.4808  0.4593
  167SAPS   H7S18864   2.420   6.405   6.278 -0.5547  0.0063 -0.7539
  167SAPS   C2818865   2.579   6.514   6.197 -0.3569 -0.6689 -0.0024
  167SAPS   H8R18866   2.675   6.485   6.243  1.4911  1.5379 -2.2265
  167SAPS   C2918867   2.584   6.564   6.073  0.3746 -0.1356 -0.2342
  167SAPS   H9R18868   2.678   6.570   6.017  0.2194 -0.2306 -0.5095
  167SAPS  C21018869   2.468   6.595   5.986 -0.4759 -0.7495  0.5503
  167SAPS  H10R18870   2.369   6.561   6.022 -1.1800 -0.5316 -1.1120
  167SAPS  H10S18871   2.468   6.550   5.885 -0.2994 -1.3066  0.7931
  167SAPS  C21118872   2.464   6.746   5.992  0.1627 -0.3911  0.0451
  167SAPS  H11R18873   2.499   6.798   6.082  3.2472 -3.7153  0.9939
  167SAPS  C21218874   2.400   6.821   5.894 -0.0955  0.3175 -0.0274
  167SAPS  H12R18875   2.375   6.927   5.909 -0.6177 -0.1475  2.9399
  167SAPS  C21318876   2.319   6.760   5.783  0.1203 -0.4049  0.5307
  167SAPS  H13R18877   2.235   6.827   5.754 -0.4475 -1.3059  0.0108
  167SAPS  H13S18878   2.268   6.671   5.826 -0.5625  0.1100  0.8091
  167SAPS  C21418879   2.396   6.732   5.653  0.5890 -0.5118  0.3784
  167SAPS  H14R18880   2.505   6.723   5.660  0.6200 -0.9774 -0.5019
  167SAPS  C21518881   2.338   6.676   5.544 -0.5416 -0.8391 -0.0229
  167SAPS  H15R18882   2.403   6.674   5.455  1.2529  3.0369  0.9428
  167SAPS  C21618883   2.189   6.664   5.527 -0.0520 -0.1846  0.1907
  167SAPS  H16R18884   2.139   6.678   5.626  2.1366  0.8738  1.2166
  167SAPS  H16S18885   2.160   6.560   5.500 -2.6945  1.1931 -3.0725
  167SAPS  C21718886   2.132   6.743   5.412 -0.4191  0.2902 -0.0552
  167SAPS  H17R18887   2.109   6.848   5.442 -0.3645  0.3984 -0.3967
  167SAPS  H17S18888   2.036   6.692   5.387 -0.6605  0.5311  0.3475
  167SAPS  C21818889   2.220   6.732   5.283 -0.1650 -0.0559 -0.0012
  167SAPS  H18R18890   2.255   6.628   5.267 -1.7293 -0.4141 -1.2676
  167SAPS  H18S18891   2.299   6.810   5.295 -0.2560  0.0079  0.1833
  167SAPS  C21918892   2.127   6.763   5.164 -0.7471 -0.6478 -0.2872
  167SAPS  H19R18893   2.069   6.856   5.180  1.2263  0.4452  0.9339
  167SAPS  H19S18894   2.060   6.677   5.145  0.6441 -1.6525 -0.8221
  167SAPS  C22018895   2.206   6.793   5.035  0.0776 -0.1621 -0.5316
  167SAPS  H20R18896   2.265   6.885   5.058 -0.9007 -0.2837  2.9949
  167SAPS  H20S18897   2.139   6.801   4.946 -0.1331  1.3231 -0.2788
  167SAPS  H20T18898   2.269   6.703   5.020  1.7503  1.0637 -1.2159
  167SAPS   C3318899   1.990   6.054   6.347 -0.4953  0.5222 -0.7889
  167SAPS   H3X18900   1.888   6.039   6.306 -1.6067 -1.1340  2.2779
  167SAPS   H3Y18901   2.050   5.970   6.306 -1.3900 -0.8945  0.6723
  167SAPS   C3418902   2.040   6.190   6.293  0.4930 -0.2460  0.5341
  167SAPS   H4X18903   2.127   6.222   6.354  0.4608 -0.3642  0.6421
  167SAPS   H4Y18904   1.962   6.266   6.313  1.0654  0.0328  1.7576
  167SAPS   C3518905   2.069   6.179   6.145 -0.8779  0.0314  0.1904
  167SAPS   H5X18906   1.974   6.185   6.088 -2.5478  0.4003  2.8583
  167SAPS   H5Y18907   2.119   6.083   6.120  0.5418  0.9844 -0.7768
  167SAPS   C3618908   2.155   6.296   6.094  0.6318  0.6176 -0.1516
  167SAPS   H6X18909   2.190   6.360   6.178 -1.1167  0.8759  0.4155
  167SAPS   H6Y18910   2.077   6.358   6.044 -1.0411 -0.8841  0.5151
  167SAPS   C3718911   2.264   6.263   5.994  0.0630  0.5645 -0.4601
  167SAPS   H7X18912   2.287   6.155   6.003 -0.9728  0.2422 -1.4154
  167SAPS   H7Y18913   2.358   6.314   6.024  0.6829 -1.4317  1.2323
  167SAPS   C3818914   2.221   6.291   5.850 -0.1104  0.1270 -0.4696
  167SAPS   H8X18915   2.191   6.398   5.849  0.0628  0.1699 -1.2738
  167SAPS   H8Y18916   2.126   6.242   5.818 -0.3353  0.9690 -1.1294
  167SAPS   C3918917   2.332   6.266   5.744  0.7959 -0.4851  0.5652
  167SAPS   H9X18918   2.377   6.164   5.749  1.1975 -0.2588  2.1129
  167SAPS   H9Y18919   2.421   6.332   5.755  0.5119  0.5484 -2.4781
  167SAPS  C31018920   2.284   6.288   5.597  0.3846  0.5182 -1.4689
  167SAPS  H10X18921   2.208   6.368   5.584 -1.0961 -0.6017 -0.2367
  167SAPS  H10Y18922   2.226   6.196   5.575  0.4946  0.6937 -2.5347
  167SAPS  C31118923   2.379   6.304   5.482 -0.4969  0.0936  0.3167
  167SAPS  H11X18924   2.444   6.214   5.476 -2.8483 -1.8072  1.9149
  167SAPS  H11Y18925   2.436   6.394   5.513 -2.6234  1.8923 -0.7286
  167SAPS  C31218926   2.320   6.335   5.350  0.0194 -0.3988  0.7927
  167SAPS  H12X18927   2.399   6.380   5.285 -0.6701  0.2911  0.4156
  167SAPS  H12Y18928   2.249   6.418   5.372  0.5108  0.8532 -1.9294
  167SAPS  C31318929   2.230   6.223   5.292  0.7713 -0.4110  0.1511
  167SAPS  H13X18930   2.164   6.186   5.372 -1.4231 -0.0479 -1.4087
  167SAPS  H13Y18931   2.292   6.139   5.254  0.5528 -0.6803  0.3888
  167SAPS  C31418932   2.143   6.265   5.165 -0.1839 -0.0432 -0.6057
  167SAPS  H14X18933   2.098   6.366   5.174 -3.1798 -1.3592  0.1147
  167SAPS  H14Y18934   2.052   6.202   5.157  0.7228 -1.3325 -1.2398
  167SAPS  C31518935   2.224   6.249   5.036  0.4817 -0.6046 -0.7570
  167SAPS  H15X18936   2.264   6.147   5.018 -1.6172 -2.2896  3.0166
  167SAPS  H15Y18937   2.313   6.316   5.045  1.0021 -1.2996 -0.6145
  167SAPS  C31618938   2.142   6.300   4.916 -0.4233  0.3753 -0.4196
  167SAPS  H16X18939   2.035   6.270   4.914  0.0031 -1.5292  1.1671
  167SAPS  H16Y18940   2.198   6.257   4.830 -0.6282  2.7025 -1.7924
  167SAPS  C31718941   2.145   6.447   4.909  0.7451 -0.0907 -0.6509
  167SAPS  H17X18942   2.243   6.496   4.924 -0.7029  2.3163  1.9952
  167SAPS  H17Y18943   2.085   6.494   4.990 -0.2805 -0.7816 -0.9849
  167SAPS  C31818944   2.101   6.491   4.769  0.4350  0.2126 -0.2893
  167SAPS  H18X18945   2.123   6.600   4.759 -0.1873  0.1829 -2.2293
  167SAPS  H18Y18946   1.993   6.480   4.747  0.2596 -0.3608  0.8068
  167SAPS  H18Z18947   2.152   6.433   4.690 -0.5503  0.2470 -0.9610
  168SAPS     N18948   0.506   0.903   7.229  0.4389  0.1152 -0.7289
  168SAPS   HN118949   0.419   0.944   7.188 -0.1830 -2.5337 -2.2982
  168SAPS   HN218950   0.504   0.799   7.221 -0.6691 -0.0917  1.5822
  168SAPS   HN318951   0.518   0.927   7.329 -0.5155  1.3444 -0.8868
  168SAPS   C1218952   0.623   0.960   7.154  0.0538  0.0533  0.3913
  168SAPS  H12A18953   0.608   1.066   7.144  1.2087  0.3528  1.5829
  168SAPS   C1318954   0.767   0.947   7.211  0.0965 -0.1355 -0.3265
  168SAPS  O13A18955   0.782   0.875   7.315 -0.3306 -0.2671  0.7383
  168SAPS  O13B18956   0.859   1.015   7.165  0.2586 -0.3618  0.2748
  168SAPS   C1118957   0.636   0.914   7.006  0.5248 -0.6827 -0.0597
  168SAPS  H11A18958   0.660   0.808   6.987 -0.3427 -0.9896  0.4897
  168SAPS  H11B18959   0.721   0.971   6.963 -0.1246  0.1071 -0.3338
  168SAPS     P18960   0.462   0.906   6.782 -0.0079 -0.3886  0.1567
  168SAPS   O1318961   0.405   1.026   6.719 -0.2120 -0.4734  0.5405
  168SAPS   O1418962   0.580   0.847   6.714  0.1978  0.1200 -0.4567
  168SAPS   O1218963   0.507   0.940   6.936 -0.7947 -0.0085 -0.1116
  168SAPS   O1118964   0.359   0.794   6.820 -0.1356 -0.0583  0.0699
  168SAPS    C118965   0.366   0.663   6.767  0.5107  0.0214  0.3289
  168SAPS    HA18966   0.472   0.638   6.744  1.0912  0.9950  1.8321
  168SAPS    HB18967   0.339   0.584   6.840 -0.4381 -1.6053 -1.6708
  168SAPS    C218968   0.281   0.654   6.640 -0.8710  0.4146  0.0085
  168SAPS    HS18969   0.281   0.552   6.596  1.5227 -0.1759  1.1994
  168SAPS   O2118970   0.322   0.743   6.543  0.5874 -0.3866 -0.0539
  168SAPS   C2118971   0.436   0.708   6.478 -0.3671 -0.1106 -0.4626
  168SAPS   O2218972   0.492   0.606   6.485  0.2696  0.2772 -0.3201
  168SAPS   C2218973   0.470   0.837   6.400 -0.1222  0.4312 -0.4670
  168SAPS   H2R18974   0.508   0.910   6.476  0.3881 -0.5653  0.2656
  168SAPS   H2S18975   0.554   0.816   6.331 -0.8201 -2.2246 -0.6135
  168SAPS    C318976   0.133   0.685   6.682 -0.2083 -0.6220  0.0519
  168SAPS    HX18977   0.124   0.781   6.737 -3.5929 -1.0790  0.5480
  168SAPS    HY18978   0.096   0.612   6.757 -0.4278 -0.9064 -0.3304
  168SAPS   O3118979   0.038   0.663   6.572  0.0210  0.1108  0.1536
  168SAPS   C3118980  -0.009   0.779   6.519  0.2533  0.2255 -0.2743
  168SAPS   O3218981   0.017   0.890   6.554  1.0079 -0.0994  0.4790
  168SAPS   C3218982  -0.121   0.740   6.416  0.6397 -0.4146  0.0355
  168SAPS   H2X18983  -0.220   0.752   6.465  0.9598 -2.1903  1.2110
  168SAPS   H2Y18984  -0.118   0.629   6.406 -2.7859 -1.0208  3.2805
  168SAPS   C2318985   0.351   0.895   6.318 -0.2469  0.4392 -0.3457
  168SAPS   H3R18986   0.277   0.936   6.391  0.4568  0.7838  0.1843
  168SAPS   H3S18987   0.311   0.815   6.253 -0.1777  0.3604 -0.2907
  168SAPS   C2418988   0.396   1.006   6.226 -0.2618 -0.1233  0.2141
  168SAPS   H4R18989   0.407   0.959   6.126 -1.6538 -0.5830  0.2601
  168SAPS   H4S18990   0.496   1.047   6.254  1.0668 -0.8565 -3.0075
  168SAPS   C2518991   0.295   1.113   6.216 -0.7407 -0.2923  0.6004
  168SAPS   H5R18992   0.246   1.138   6.311  0.1783 -0.6651  1.1829
  168SAPS   C2618993   0.271   1.195   6.106 -0.1498 -0.5470  1.1828
  168SAPS   H6R18994   0.211   1.287   6.107  1.5535  0.6364 -0.2751
  168SAPS   C2718995   0.335   1.154   5.975  0.5669  0.0827 -0.0865
  168SAPS   H7R18996   0.259   1.093   5.924 -1.0318  3.3466 -1.9217
  168SAPS   H7S18997   0.434   1.103   5.984  0.4299 -0.1884 -0.1420
  168SAPS   C2818998   0.361   1.278   5.889 -0.0197  0.2274  0.1188
  168SAPS   H8R18999   0.463   1.317   5.880 -0.1524  0.2088 -2.0726
  168SAPS   C2919000   0.260   1.338   5.824 -0.0601 -0.7612  0.9036
  168SAPS   H9R19001   0.267   1.437   5.776 -3.7326 -0.8990 -0.2138
  168SAPS  C21019002   0.117   1.286   5.812 -0.7688 -0.3482  0.7432
  168SAPS  H10R19003   0.071   1.292   5.913  0.2286  0.6707  1.1583
  168SAPS  H10S19004   0.107   1.177   5.796 -0.6592 -0.0938 -1.3070
  168SAPS  C21119005   0.036   1.369   5.712  0.7785 -0.2664 -1.2093
  168SAPS  H11R19006  -0.033   1.434   5.768  0.4035 -0.7506 -1.1006
  168SAPS  C21219007   0.035   1.354   5.582  0.2199 -0.6427  0.0321
  168SAPS  H12R19008  -0.016   1.427   5.519 -1.1275 -2.4375 -1.0209
  168SAPS  C21319009   0.115   1.246   5.511  0.0457 -0.3648 -0.1782
  168SAPS  H13R19010   0.048   1.181   5.450  0.7134 -0.3106 -0.9931
  168SAPS  H13S19011   0.165   1.182   5.587  3.1872  2.5360  0.4090
  168SAPS  C21419012   0.222   1.322   5.434 -0.1512  0.2426  0.1082
  168SAPS  H14R19013   0.294   1.385   5.489  0.6839  0.6575 -1.3855
  168SAPS  C21519014   0.247   1.316   5.301 -0.1157  0.4601  0.1838
  168SAPS  H15R19015   0.324   1.385   5.262 -0.6550  1.4747  0.8756
  168SAPS  C21619016   0.160   1.248   5.193 -0.5777 -0.1593  0.0290
  168SAPS  H16R19017   0.097   1.165   5.231 -0.1573 -1.0320 -1.1378
  168SAPS  H16S19018   0.221   1.198   5.115 -1.8312 -0.5189 -0.7409
  168SAPS  C21719019   0.046   1.332   5.128 -0.3527  0.1848 -0.3031
  168SAPS  H17R19020  -0.021   1.367   5.210  0.1512  1.3234 -0.3581
  168SAPS  H17S19021  -0.010   1.264   5.061  0.9532 -1.5597  0.3150
  168SAPS  C21819022   0.105   1.452   5.047  0.6769  0.0018 -0.1339
  168SAPS  H18R19023   0.165   1.413   4.962  1.6715 -0.1120  0.5907
  168SAPS  H18S19024   0.186   1.489   5.114  1.9621  0.3708 -1.8145
  168SAPS  C21919025  -0.001   1.562   5.027 -0.7515 -0.2924 -0.1523
  168SAPS  H19R19026   0.050   1.659   5.007 -1.3116 -0.5710 -3.5800
  168SAPS  H19S19027  -0.052   1.578   5.125 -0.0791 -3.0938  0.7233
  168SAPS  C22019028  -0.100   1.538   4.911 -0.2117 -0.6921  0.0905
  168SAPS  H20R19029  -0.041   1.510   4.821  0.9206 -2.6175  1.3577
  168SAPS  H20S19030  -0.169   1.625   4.901 -1.4626 -1.9008 -2.5552
  168SAPS  H20T19031  -0.166   1.454   4.941  0.9231 -0.9119  2.1934
  168SAPS   C3319032  -0.111   0.812   6.275  0.1069 -0.5753  0.0216
  168SAPS   H3X19033  -0.090   0.921   6.276 -2.9509  0.1147  0.8812
  168SAPS   H3Y19034  -0.212   0.809   6.229  0.7494 -0.6603 -1.4327
  168SAPS   C3419035  -0.011   0.744   6.177 -0.3984 -0.5881  0.6019
  168SAPS   H4X19036  -0.027   0.635   6.187  0.6180 -0.8157 -0.1826
  168SAPS   H4Y19037   0.088   0.759   6.224 -0.1866 -0.2388  0.0567
  168SAPS   C3519038  -0.026   0.797   6.035  0.3324  0.6345 -0.5882
  168SAPS   H5X19039   0.049   0.744   5.973  0.0576 -0.7151  0.2016
  168SAPS   H5Y19040  -0.008   0.907   6.033 -2.5510  1.1819 -1.0205
  168SAPS   C3619041  -0.168   0.770   5.973 -0.2017  0.4652  1.0369
  168SAPS   H6X19042  -0.238   0.853   6.000  0.7067  1.8281 -0.5686
  168SAPS   H6Y19043  -0.215   0.673   5.999 -1.2519 -0.1400 -2.5375
  168SAPS   C3719044  -0.168   0.765   5.819  0.2279 -0.0071  0.3001
  168SAPS   H7X19045  -0.115   0.672   5.790  0.2288  0.3263 -0.8079
  168SAPS   H7Y19046  -0.110   0.852   5.781  0.0596 -0.8163 -1.9659
  168SAPS   C3819047  -0.311   0.769   5.757  0.4007  0.2237 -0.5335
  168SAPS   H8X19048  -0.367   0.862   5.784 -1.0579 -0.8089  0.1640
  168SAPS   H8Y19049  -0.371   0.684   5.797 -1.8570  1.3352 -1.3855
  168SAPS   C3919050  -0.309   0.768   5.608  0.3477  0.8476 -0.4373
  168SAPS   H9X19051  -0.233   0.700   5.565 -1.6413  0.0589 -3.0112
  168SAPS   H9Y19052  -0.266   0.866   5.579  3.1666 -1.1080 -3.4882
  168SAPS  C31019053  -0.442   0.736   5.543  0.1882  0.2666  0.5920
  168SAPS  H10X19054  -0.471   0.636   5.581 -0.8884 -0.0979 -1.0598
  168SAPS  H10Y19055  -0.430   0.733   5.433  3.7122 -0.1863  0.8694
  168SAPS  C31119056  -0.549   0.841   5.586 -0.3463 -0.7968  0.0777
  168SAPS  H11X19057  -0.521   0.931   5.528 -1.9180  0.2133  0.8011
  168SAPS  H11Y19058  -0.542   0.863   5.695  2.1995  0.7910 -0.3342
  168SAPS  C31219059  -0.686   0.795   5.543  0.3114 -0.6299  0.0123
  168SAPS  H12X19060  -0.715   0.723   5.622  2.5775 -0.5256  0.9985
  168SAPS  H12Y19061  -0.682   0.738   5.448  0.0747  1.8151 -1.5610
  168SAPS  C31319062  -0.787   0.910   5.554 -0.6687 -0.3878 -0.0717
  168SAPS  H13X19063  -0.770   0.958   5.653  2.9786 -0.4373 -0.5551
  168SAPS  H13Y19064  -0.891   0.871   5.550 -0.1264 -1.7797 -1.6550
  168SAPS  C31419065  -0.777   0.997   5.426 -0.3294  0.0794 -0.5901
  168SAPS  H14X19066  -0.678   1.040   5.399 -0.3116  0.8074  0.5344
  168SAPS  H14Y19067  -0.829   1.089   5.461 -0.3241 -0.1222 -0.0307
  168SAPS  C31519068  -0.827   0.918   5.307 -0.2724 -0.6704  0.2858
  168SAPS  H15X19069  -0.926   0.872   5.328 -1.4875  0.4950 -2.4132
  168SAPS  H15Y19070  -0.754   0.837   5.287  3.9491  2.6025  1.1277
  168SAPS  C31619071  -0.841   1.006   5.181  0.4733  0.5888 -0.0850
  168SAPS  H16X19072  -0.749   1.065   5.166  2.2488 -1.8386  0.5358
  168SAPS  H16Y19073  -0.910   1.086   5.215 -0.3965 -0.1095 -0.1651
  168SAPS  C31719074  -0.881   0.940   5.050 -0.1140  0.2973 -0.7786
  168SAPS  H17X19075  -0.980   0.890   5.066 -0.7073  2.2578  2.3146
  168SAPS  H17Y19076  -0.810   0.858   5.027 -0.7784 -0.2667 -0.8829
  168SAPS  C31819077  -0.880   1.032   4.930  0.0550 -1.1455 -0.3840
  168SAPS  H18X19078  -0.927   1.130   4.952 -0.8830 -1.4176 -1.1375
  168SAPS  H18Y19079  -0.924   0.984   4.840 -0.1792 -0.2669 -0.7526
  168SAPS  H18Z19080  -0.770   1.048   4.916  0.1819  1.7507  2.6596
  169SAPS     N19081   2.678   2.659   7.029  0.2977 -0.0541 -0.1685
  169SAPS   HN119082   2.585   2.616   7.013  0.4532 -0.4023 -0.1481
  169SAPS   HN219083   2.750   2.619   6.966  0.3343 -1.2121  0.5785
  169SAPS   HN319084   2.713   2.646   7.127  1.7878  0.1277 -0.6511
  169SAPS   C1219085   2.662   2.804   7.002  0.4415 -0.0306  0.9089
  169SAPS  H12A19086   2.592   2.829   7.080  0.4168 -0.7775  1.1267
  169SAPS   C1319087   2.778   2.893   7.022  0.2044 -0.8191 -1.1144
  169SAPS  O13A19088   2.882   2.846   7.071  0.2014  0.2931 -0.4236
  169SAPS  O13B19089   2.767   3.014   6.982  0.0197  0.1887 -0.6819
  169SAPS   C1119090   2.586   2.825   6.865 -0.4528  0.3661 -0.0532
  169SAPS  H11A19091   2.653   2.786   6.785 -1.2696 -0.3245 -0.4272
  169SAPS  H11B19092   2.577   2.935   6.856  3.4335  0.8019 -0.2102
  169SAPS     P19093   2.411   2.666   6.737  0.3749  0.3206 -0.3151
  169SAPS   O1319094   2.492   2.543   6.736 -0.5072 -0.0885 -0.7035
  169SAPS   O1419095   2.260   2.653   6.751 -0.2318 -0.0870  0.1238
  169SAPS   O1219096   2.459   2.759   6.860  0.1200 -0.6532 -0.1489
  169SAPS   O1119097   2.441   2.761   6.611 -0.3137  0.1467  0.2702
  169SAPS    C119098   2.371   2.880   6.579  0.8310 -0.3926  0.1063
  169SAPS    HA19099   2.343   2.934   6.672  0.4737 -0.3350 -0.0336
  169SAPS    HB19100   2.436   2.948   6.519  0.8973 -1.3000 -0.8858
  169SAPS    C219101   2.236   2.847   6.498 -0.6837 -0.5978  0.5249
  169SAPS    HS19102   2.217   2.741   6.527  0.4629 -1.0469 -0.2562
  169SAPS   O2119103   2.265   2.860   6.352  0.3905  0.5999 -0.4146
  169SAPS   C2119104   2.216   2.756   6.280  0.6672  0.1709 -0.0122
  169SAPS   O2219105   2.155   2.658   6.317 -0.8090  0.0888  0.3005
  169SAPS   C2219106   2.253   2.793   6.134  0.2171  0.7237 -0.1035
  169SAPS   H2R19107   2.206   2.894   6.130 -0.3620  0.4731  0.1566
  169SAPS   H2S19108   2.363   2.800   6.120  0.0299  0.7042 -1.7190
  169SAPS    C319109   2.116   2.926   6.555  0.2833 -0.1699  0.4101
  169SAPS    HX19110   2.131   3.036   6.545 -1.6043  0.1692  0.8498
  169SAPS    HY19111   2.097   2.895   6.660 -1.8127  0.7738  0.3651
  169SAPS   O3119112   2.002   2.894   6.477 -0.0156 -0.4038 -0.3540
  169SAPS   C3119113   1.883   2.940   6.527 -0.0687 -0.1904 -1.3649
  169SAPS   O3219114   1.873   3.029   6.611  0.7754  0.0461 -0.4098
  169SAPS   C3219115   1.766   2.862   6.484  0.7832 -0.6744  0.3599
  169SAPS   H2X19116   1.680   2.867   6.554 -1.4292  0.5698 -2.2249
  169SAPS   H2Y19117   1.786   2.754   6.471  0.6552 -0.7426  0.7306
  169SAPS   C2319118   2.191   2.707   6.019 -0.2332  0.3978 -0.1420
  169SAPS   H3R19119   2.192   2.753   5.917 -0.3704  1.8648  0.4897
  169SAPS   H3S19120   2.084   2.689   6.042 -0.2081  1.3045  0.7605
  169SAPS   C2419121   2.271   2.580   6.002 -0.8386  0.2519 -0.5351
  169SAPS   H4R19122   2.231   2.519   5.918  1.1753 -0.2175 -1.2029
  169SAPS   H4S19123   2.254   2.525   6.097 -0.2738  0.8096 -0.1011
  169SAPS   C2519124   2.418   2.589   5.969  0.0219 -0.2808 -1.3998
  169SAPS   H5R19125   2.486   2.620   6.049 -1.2603  2.2397 -1.1938
  169SAPS   C2619126   2.477   2.578   5.852  0.5086 -0.3709 -0.2433
  169SAPS   H6R19127   2.582   2.608   5.856  0.2328  0.5087  1.1706
  169SAPS   C2719128   2.424   2.547   5.716  0.2069  0.2866  0.1469
  169SAPS   H7R19129   2.325   2.502   5.738 -0.8511  1.9021 -1.1493
  169SAPS   H7S19130   2.479   2.472   5.655 -0.8678  2.1314 -3.3674
  169SAPS   C2819131   2.399   2.672   5.635 -0.0431 -0.1014  0.4890
  169SAPS   H8R19132   2.408   2.771   5.682  0.1234  0.9897 -1.7305
  169SAPS   C2919133   2.368   2.663   5.505  0.9697  0.4213 -0.0217
  169SAPS   H9R19134   2.353   2.756   5.449  1.6294 -0.4818 -1.8090
  169SAPS  C21019135   2.360   2.531   5.432  0.6570  0.2288 -0.1825
  169SAPS  H10R19136   2.318   2.453   5.499  0.1758 -0.4117 -1.2011
  169SAPS  H10S19137   2.465   2.507   5.405  0.7976  1.6814 -1.0439
  169SAPS  C21119138   2.273   2.548   5.312  0.4371  0.5048 -0.3973
  169SAPS  H11R19139   2.172   2.578   5.344  1.1636  0.2545  2.4731
  169SAPS  C21219140   2.306   2.553   5.185  0.1197 -0.2039 -0.5166
  169SAPS  H12R19141   2.226   2.556   5.109 -0.9785  0.8919  0.6477
  169SAPS  C21319142   2.452   2.541   5.139  0.1335  0.1745 -0.6038
  169SAPS  H13R19143   2.455   2.499   5.037  1.8292 -1.1185 -0.0669
  169SAPS  H13S19144   2.503   2.464   5.201  2.1805  1.4930 -0.5518
  169SAPS  C21419145   2.533   2.677   5.150 -0.2307  0.6180 -0.0478
  169SAPS  H14R19146   2.555   2.715   5.250 -0.2116  0.6948 -0.0809
  169SAPS  C21519147   2.561   2.760   5.043 -0.5650  0.2699 -0.0142
  169SAPS  H15R19148   2.618   2.854   5.050  0.4705 -0.4261  1.1736
  169SAPS  C21619149   2.537   2.707   4.898 -0.8587 -0.1586 -1.0898
  169SAPS  H16R19150   2.432   2.716   4.864 -1.0126 -0.2304 -0.6486
  169SAPS  H16S19151   2.565   2.599   4.894 -3.0842 -0.8032 -0.7126
  169SAPS  C21719152   2.617   2.795   4.798 -0.1914  0.1519  1.0274
  169SAPS  H17R19153   2.725   2.803   4.821  0.0152 -0.4383  0.3003
  169SAPS  H17S19154   2.570   2.895   4.801  0.2687  0.3503  1.8443
  169SAPS  C21819155   2.607   2.734   4.657  0.2180  0.0479 -0.8330
  169SAPS  H18R19156   2.501   2.719   4.629 -0.5571  0.0527  1.7827
  169SAPS  H18S19157   2.655   2.634   4.655 -2.4625 -1.4265  1.2031
  169SAPS  C21919158   2.674   2.823   4.552 -0.7538  0.4026  0.3017
  169SAPS  H19R19159   2.778   2.816   4.590 -0.9324 -3.9123  0.4467
  169SAPS  H19S19160   2.637   2.928   4.558  0.3982  0.7538  2.1778
  169SAPS  C22019161   2.667   2.785   4.407 -0.3373  0.9271  0.0594
  169SAPS  H20R19162   2.689   2.867   4.336 -0.8016 -0.3571 -1.6417
  169SAPS  H20S19163   2.559   2.764   4.390  0.0464 -0.8743 -0.3704
  169SAPS  H20T19164   2.731   2.695   4.399 -1.7048 -0.0351 -0.4663
  169SAPS   C3319165   1.727   2.912   6.343 -0.0384 -0.4724 -0.1407
  169SAPS   H3X19166   1.697   3.020   6.345 -0.7094 -0.5914 -1.6807
  169SAPS   H3Y19167   1.643   2.853   6.300 -1.5231  0.3268  1.5324
  169SAPS   C3419168   1.833   2.900   6.232  0.2503 -0.5943 -0.1861
  169SAPS   H4X19169   1.884   2.801   6.236  0.3250 -0.5329  0.5372
  169SAPS   H4Y19170   1.916   2.973   6.241  0.3656 -0.1829 -3.4622
  169SAPS   C3519171   1.775   2.939   6.096 -0.0828  0.2884 -0.5546
  169SAPS   H5X19172   1.729   3.040   6.108 -0.6883 -0.1296  0.8290
  169SAPS   H5Y19173   1.688   2.873   6.074  0.2922 -0.4290  0.0717
  169SAPS   C3619174   1.876   2.930   5.984  0.1682  0.0111 -0.0742
  169SAPS   H6X19175   1.918   2.827   5.985  1.8793  0.6764  1.3039
  169SAPS   H6Y19176   1.955   3.005   6.007  0.0475 -0.4780  2.0705
  169SAPS   C3719177   1.806   2.963   5.847  0.1953 -0.1760 -0.3852
  169SAPS   H7X19178   1.762   3.065   5.859 -0.1738 -0.2935 -0.7366
  169SAPS   H7Y19179   1.742   2.879   5.816 -1.4142  0.3446  1.3150
  169SAPS   C3819180   1.914   2.977   5.733 -0.3198 -0.5908  0.5616
  169SAPS   H8X19181   1.989   3.042   5.783 -1.3580  0.6116  0.5898
  169SAPS   H8Y19182   1.858   3.036   5.657  1.5957  0.9873  0.3026
  169SAPS   C3919183   1.969   2.849   5.674 -0.6599 -0.0695  0.7559
  169SAPS   H9X19184   1.892   2.794   5.616 -0.0845  0.2721 -0.3716
  169SAPS   H9Y19185   2.005   2.781   5.755  2.1429  0.1332 -0.1917
  169SAPS  C31019186   2.083   2.852   5.572 -0.1495 -0.4824  0.2464
  169SAPS  H10X19187   2.088   2.748   5.535  0.5796 -0.4628  0.2830
  169SAPS  H10Y19188   2.177   2.883   5.622 -0.4083 -1.3148  1.2826
  169SAPS  C31119189   2.050   2.942   5.454 -0.7680  0.7439  0.6540
  169SAPS  H11X19190   2.062   3.048   5.483  0.6333  0.3378  1.6645
  169SAPS  H11Y19191   1.946   2.919   5.423  0.2408 -0.7997 -2.0048
  169SAPS  C31219192   2.143   2.916   5.333 -0.2518 -0.5601 -0.5557
  169SAPS  H12X19193   2.118   2.816   5.291 -4.5676 -0.2433  0.8380
  169SAPS  H12Y19194   2.251   2.929   5.356 -0.7596  0.2386  1.5956
  169SAPS  C31319195   2.112   3.017   5.220 -0.2755 -0.2385 -0.3434
  169SAPS  H13X19196   2.141   3.118   5.257 -2.0647 -0.0282  0.6332
  169SAPS  H13Y19197   2.002   3.030   5.207 -0.0812  0.5874 -1.3182
  169SAPS  C31419198   2.179   2.973   5.091  0.0958  0.0618  0.3964
  169SAPS  H14X19199   2.150   2.868   5.070 -0.8618  0.4555 -0.3119
  169SAPS  H14Y19200   2.288   2.963   5.111  0.0506 -1.8618 -0.1417
  169SAPS  C31519201   2.134   3.047   4.967  0.4839 -0.2271  0.7317
  169SAPS  H15X19202   2.169   3.153   4.975  0.2051 -0.1421  0.8207
  169SAPS  H15Y19203   2.024   3.055   4.972  0.4913 -0.8183  2.5769
  169SAPS  C31619204   2.178   2.967   4.836  0.5458 -0.6920  0.4855
  169SAPS  H16X19205   2.132   2.865   4.842 -1.5210  0.2652  2.0902
  169SAPS  H16Y19206   2.288   2.955   4.832  0.5799 -0.3527 -2.9983
  169SAPS  C31719207   2.115   3.026   4.708 -0.4223  0.0143  0.2872
  169SAPS  H17X19208   2.090   3.132   4.728  0.5519 -0.0834  2.2535
  169SAPS  H17Y19209   2.014   2.980   4.703 -1.1943  1.7107 -0.7092
  169SAPS  C31819210   2.189   3.011   4.579  0.3385  0.1248  0.0059
  169SAPS  H18X19211   2.272   3.085   4.586 -1.3975  2.0563  1.7732
  169SAPS  H18Y19212   2.120   3.028   4.494 -0.3894  0.4028  0.6302
  169SAPS  H18Z19213   2.223   2.906   4.569 -0.6360 -0.1097 -1.0737
  170SAPS     N19214   4.001   0.194   6.745 -0.1309  0.7323  0.7819
  170SAPS   HN119215   4.080   0.185   6.677 -0.9331  0.6572 -0.1636
  170SAPS   HN219216   4.034   0.282   6.789  2.7921  1.1938 -1.9122
  170SAPS   HN319217   3.985   0.117   6.814  1.8068 -0.5805 -0.1144
  170SAPS   C1219218   3.871   0.221   6.669  0.5427 -0.0447  0.8686
  170SAPS  H12A19219   3.857   0.142   6.598 -1.4150  0.8864  0.1464
  170SAPS   C1319220   3.734   0.221   6.751 -0.3730 -0.6254 -0.5818
  170SAPS  O13A19221   3.752   0.208   6.873 -0.2591  0.0329  0.5289
  170SAPS  O13B19222   3.626   0.248   6.701  0.0128 -0.6000 -0.3573
  170SAPS   C1119223   3.891   0.342   6.572 -0.1148  0.5827 -0.6434
  170SAPS  H11A19224   3.889   0.432   6.636  0.4943  0.2167 -0.0907
  170SAPS  H11B19225   3.806   0.338   6.501  0.9265 -3.5711 -1.9571
  170SAPS     P19226   4.033   0.327   6.352 -0.1040 -0.1601 -0.2970
  170SAPS   O1319227   3.955   0.432   6.283  0.7144  0.1797  0.1843
  170SAPS   O1419228   4.174   0.339   6.329 -0.4041 -0.2206 -0.0515
  170SAPS   O1219229   4.017   0.338   6.511  0.0573 -0.3986  0.0587
  170SAPS   O1119230   3.981   0.177   6.321  0.3782  0.3146 -0.3583
  170SAPS    C119231   4.037   0.113   6.204 -0.5815  0.0634 -0.0109
  170SAPS    HA19232   4.147   0.122   6.205 -0.3757 -1.2541 -2.2129
  170SAPS    HB19233   4.017   0.004   6.216 -0.7462  0.3169  2.4235
  170SAPS    C219234   3.960   0.153   6.075  0.5316  0.3671  0.9258
  170SAPS    HS19235   3.999   0.092   5.992 -2.1194  1.0515 -0.9722
  170SAPS   O2119236   3.977   0.292   6.036 -0.0989 -0.5063 -0.1237
  170SAPS   C2119237   4.106   0.329   6.016  0.3580 -0.5212  0.2493
  170SAPS   O2219238   4.199   0.255   5.991 -0.8992 -0.2281 -0.0057
  170SAPS   C2219239   4.119   0.482   6.014  0.3209  0.0038 -0.5881
  170SAPS   H2R19240   4.026   0.524   5.968  0.6714 -0.0313 -1.3559
  170SAPS   H2S19241   4.135   0.527   6.114 -2.9164  1.2579 -0.4998
  170SAPS    C319242   3.807   0.101   6.094 -0.0928 -1.1260 -0.6341
  170SAPS    HX19243   3.760   0.160   6.176  0.8592  0.0234 -0.8906
  170SAPS    HY19244   3.823   0.002   6.142  2.6589 -0.4716 -0.0403
  170SAPS   O3119245   3.740   0.093   5.969  0.1514  0.4097  0.5600
  170SAPS   C3119246   3.687   0.203   5.911 -0.1210  0.6257 -0.1783
  170SAPS   O3219247   3.685   0.319   5.956 -0.5260  0.5877  0.3936
  170SAPS   C3219248   3.622   0.158   5.782  0.1451  0.4256 -1.0113
  170SAPS   H2X19249   3.514   0.169   5.802  0.0813 -1.1110 -0.3409
  170SAPS   H2Y19250   3.651   0.051   5.768 -0.8614  0.0432 -0.2701
  170SAPS   C2319251   4.234   0.517   5.925  0.1944  0.2406 -0.1780
  170SAPS   H3R19252   4.224   0.624   5.895  2.4440  0.0116 -2.0373
  170SAPS   H3S19253   4.236   0.458   5.831 -2.0460 -2.5403  1.3563
  170SAPS   C2419254   4.367   0.516   6.002  0.1238  0.2816  0.2047
  170SAPS   H4R19255   4.394   0.413   6.036 -0.7988 -0.2101 -0.4939
  170SAPS   H4S19256   4.374   0.575   6.095  1.6571  0.9204 -0.2777
  170SAPS   C2519257   4.473   0.568   5.908  0.5814 -0.8477 -0.2952
  170SAPS   H5R19258   4.438   0.583   5.805 -0.8491  2.2839  0.5072
  170SAPS   C2619259   4.603   0.588   5.936  0.4762  0.1550  0.8042
  170SAPS   H6R19260   4.672   0.638   5.866  2.0574  0.1292  2.2526
  170SAPS   C2719261   4.660   0.562   6.070  0.4322  0.2702  0.5249
  170SAPS   H7R19262   4.770   0.553   6.063  0.5754 -0.3536  2.8986
  170SAPS   H7S19263   4.625   0.465   6.112 -2.1029  1.2089  0.7805
  170SAPS   C2819264   4.627   0.668   6.175  0.0945 -0.5035  0.2492
  170SAPS   H8R19265   4.523   0.664   6.212 -0.3983 -0.7818 -1.0846
  170SAPS   C2919266   4.695   0.778   6.209  0.0539 -0.0233 -0.4654
  170SAPS   H9R19267   4.657   0.850   6.284 -0.2823  0.4850 -1.1059
  170SAPS  C21019268   4.830   0.813   6.152  0.4071  0.3055 -0.2833
  170SAPS  H10R19269   4.822   0.842   6.045 -2.3259  3.5899  0.6208
  170SAPS  H10S19270   4.896   0.725   6.139  0.3306  0.2698 -0.4285
  170SAPS  C21119271   4.909   0.917   6.226  0.0271 -0.1892  0.6238
  170SAPS  H11R19272   4.865   0.960   6.318 -1.1293 -2.5597  1.2497
  170SAPS  C21219273   5.041   0.947   6.191  0.4157  0.2132 -0.5102
  170SAPS  H12R19274   5.090   1.031   6.243  0.8210 -0.4743  0.2445
  170SAPS  C21319275   5.120   0.921   6.067  0.1346 -0.3913 -0.1571
  170SAPS  H13R19276   5.071   0.840   6.009 -0.9638  0.5861 -0.6396
  170SAPS  H13S19277   5.224   0.894   6.095 -0.1289 -0.4948  0.7399
  170SAPS  C21419278   5.118   1.055   5.988 -0.4480  0.1099  0.9488
  170SAPS  H14R19279   5.022   1.101   5.961 -0.4147 -1.0185 -1.3541
  170SAPS  C21519280   5.226   1.100   5.921  0.0572  0.7721  0.1917
  170SAPS  H15R19281   5.223   1.191   5.859  3.8198  2.4162  2.1112
  170SAPS  C21619282   5.368   1.046   5.925  0.5114  0.9638  0.2929
  170SAPS  H16R19283   5.377   0.958   5.992  0.9616  1.3165  0.7011
  170SAPS  H16S19284   5.429   1.124   5.975  2.5223  0.2066 -0.8761
  170SAPS  C21719285   5.415   1.020   5.780 -0.5274  0.2929  0.0225
  170SAPS  H17R19286   5.518   0.982   5.799  0.5300  3.3027  0.7407
  170SAPS  H17S19287   5.431   1.118   5.732  0.7660 -0.2667 -0.7407
  170SAPS  C21819288   5.302   0.944   5.696  0.1142  0.2230 -0.2506
  170SAPS  H18R19289   5.230   1.016   5.652  0.5897  1.2970  0.6907
  170SAPS  H18S19290   5.247   0.870   5.759  0.4561 -0.5093 -0.7868
  170SAPS  C21919291   5.366   0.860   5.579  0.0494 -0.3058 -0.4819
  170SAPS  H19R19292   5.442   0.786   5.612 -0.4964 -1.2703 -1.3697
  170SAPS  H19S19293   5.419   0.947   5.534 -1.2587  0.7525 -0.0427
  170SAPS  C22019294   5.246   0.798   5.497  0.5647 -0.0509 -0.0487
  170SAPS  H20R19295   5.175   0.729   5.548 -0.5419  0.7907 -0.4124
  170SAPS  H20S19296   5.285   0.747   5.406  3.1799  1.4079  0.1559
  170SAPS  H20T19297   5.178   0.877   5.461 -1.2024 -1.1314  0.7470
  170SAPS   C3319298   3.661   0.245   5.659  0.2283 -0.8838 -0.5263
  170SAPS   H3X19299   3.667   0.354   5.677  1.4707 -0.7418 -1.6682
  170SAPS   H3Y19300   3.578   0.234   5.586  0.1517 -1.0916 -0.4085
  170SAPS   C3419301   3.789   0.197   5.587 -0.5332  0.0447  0.8669
  170SAPS   H4X19302   3.797   0.087   5.577  1.0708  0.2026 -0.0405
  170SAPS   H4Y19303   3.876   0.235   5.644  0.4560  0.8437 -1.0606
  170SAPS   C3519304   3.804   0.253   5.446  0.4620  0.4563 -0.6625
  170SAPS   H5X19305   3.912   0.247   5.419  0.1204 -2.5898 -1.7555
  170SAPS   H5Y19306   3.770   0.358   5.430 -1.0734  0.0914  0.0730
  170SAPS   C3619307   3.714   0.166   5.358  0.3644 -0.7592  0.1477
  170SAPS   H6X19308   3.609   0.195   5.381 -0.2652 -1.6788 -1.4307
  170SAPS   H6Y19309   3.730   0.059   5.382 -0.5295 -1.1045 -0.7510
  170SAPS   C3719310   3.730   0.184   5.206  0.3652  0.7512 -0.0879
  170SAPS   H7X19311   3.838   0.171   5.182  0.3273 -0.1666  0.1895
  170SAPS   H7Y19312   3.717   0.291   5.180  0.6149  0.5314 -1.2011
  170SAPS   C3819313   3.658   0.074   5.123 -0.3463  0.0534  0.9755
  170SAPS   H8X19314   3.548   0.091   5.114 -0.8554 -2.7604  0.9196
  170SAPS   H8Y19315   3.671  -0.025   5.171  0.9259 -1.3707 -2.0631
  170SAPS   C3919316   3.720   0.049   4.980  0.1112 -0.3218 -0.0139
  170SAPS   H9X19317   3.670  -0.035   4.927 -0.6509 -0.0679  0.2837
  170SAPS   H9Y19318   3.823   0.015   5.001  0.3656 -0.4842 -1.4114
  170SAPS  C31019319   3.732   0.170   4.888 -0.0008 -0.6877 -0.6825
  170SAPS  H10X19320   3.791   0.153   4.796  1.7154  2.2165 -0.2436
  170SAPS  H10Y19321   3.798   0.244   4.939 -0.6501 -1.1038  0.8309
  170SAPS  C31119322   3.599   0.240   4.857  0.3249  0.1123 -0.1527
  170SAPS  H11X19323   3.555   0.271   4.954  2.1496  0.9548  0.4443
  170SAPS  H11Y19324   3.531   0.167   4.807  1.1287 -1.6896  1.2864
  170SAPS  C31219325   3.634   0.359   4.761  0.3756 -0.0303 -0.4640
  170SAPS  H12X19326   3.670   0.327   4.661 -1.6078 -3.2706 -0.2969
  170SAPS  H12Y19327   3.710   0.432   4.796  0.8036 -1.3076  1.4274
  170SAPS  C31319328   3.500   0.423   4.723 -0.3091  0.3807 -0.4191
  170SAPS  H13X19329   3.442   0.464   4.808 -0.0478 -1.0571  0.4807
  170SAPS  H13Y19330   3.438   0.338   4.690 -3.0124  2.4662 -1.0504
  170SAPS  C31419331   3.519   0.539   4.626  0.8343 -0.5154 -0.3797
  170SAPS  H14X19332   3.576   0.491   4.544  2.5108  1.1162 -0.2472
  170SAPS  H14Y19333   3.577   0.624   4.667  2.6161 -1.8278 -0.0693
  170SAPS  C31519334   3.392   0.613   4.578 -0.4257  0.1092  0.1214
  170SAPS  H15X19335   3.329   0.537   4.527 -0.9445  1.3796 -1.2252
  170SAPS  H15Y19336   3.420   0.694   4.506  1.3128  0.1614  0.7973
  170SAPS  C31619337   3.330   0.695   4.693  0.4347  0.0545 -0.1154
  170SAPS  H16X19338   3.408   0.765   4.729  1.1729 -0.3035 -0.9961
  170SAPS  H16Y19339   3.305   0.622   4.773 -0.4189  0.4117 -0.0400
  170SAPS  C31719340   3.198   0.769   4.647  0.2392 -0.2797  0.3682
  170SAPS  H17X19341   3.120   0.690   4.637  0.9520 -0.9779  0.2207
  170SAPS  H17Y19342   3.220   0.816   4.548  5.0204  1.2969  1.9109
  170SAPS  C31819343   3.145   0.866   4.750 -0.6287 -0.1591 -0.0106
  170SAPS  H18X19344   3.144   0.807   4.845  0.0468 -0.3476 -0.1132
  170SAPS  H18Y19345   3.045   0.908   4.729 -1.0325 -1.0885 -0.0124
  170SAPS  H18Z19346   3.223   0.945   4.759  0.5851 -1.5099  2.8182
  171SAPS     N19347   4.126   6.737   6.827 -0.1752 -0.4040 -0.2562
  171SAPS   HN119348   4.205   6.704   6.886  1.3446  0.1041 -1.9369
  171SAPS   HN219349   4.144   6.712   6.728  0.1597  0.0433 -0.3082
  171SAPS   HN319350   4.111   6.838   6.845 -0.7051 -0.2409 -1.5030
  171SAPS   C1219351   4.006   6.676   6.873  0.4456  0.2665  0.5845
  171SAPS  H12A19352   4.029   6.630   6.968 -0.9191  0.9948  1.2895
  171SAPS   C1319353   3.898   6.778   6.905 -0.0392 -0.2701  0.0062
  171SAPS  O13A19354   3.914   6.903   6.890  0.3805 -0.4225 -0.0744
  171SAPS  O13B19355   3.789   6.735   6.950  0.4329 -0.5815 -0.0749
  171SAPS   C1119356   3.958   6.580   6.754 -0.5188 -0.3610  0.2568
  171SAPS  H11A19357   3.918   6.648   6.677 -0.3583 -1.4643 -0.8284
  171SAPS  H11B19358   3.870   6.524   6.795 -1.6771  2.3101  1.6616
  171SAPS     P19359   4.086   6.351   6.736  0.5175 -0.2921 -0.0451
  171SAPS   O1319360   4.221   6.357   6.792  0.4257  0.4470 -0.1854
  171SAPS   O1419361   3.974   6.295   6.814  0.6698  0.1355  0.7981
  171SAPS   O1219362   4.062   6.500   6.688 -0.2578 -0.2529 -1.0224
  171SAPS   O1119363   4.095   6.273   6.593 -0.1775  0.3391 -0.2986
  171SAPS    C119364   4.106   6.344   6.473  0.5918 -0.0348  0.0238
  171SAPS    HA19365   4.037   6.431   6.464  0.4148 -0.4034 -3.5961
  171SAPS    HB19366   4.199   6.404   6.466 -1.1865  2.9549 -0.0376
  171SAPS    C219367   4.094   6.259   6.345 -0.3274  0.2132 -0.1180
  171SAPS    HS19368   4.188   6.207   6.319 -0.1782 -1.1899  2.8488
  171SAPS   O2119369   4.041   6.340   6.237 -0.2541 -0.4473 -0.3651
  171SAPS   C2119370   4.136   6.413   6.191 -0.4335 -1.1883 -0.6553
  171SAPS   O2219371   4.254   6.408   6.222  0.1634 -0.5858  0.2348
  171SAPS   C2219372   4.083   6.495   6.075 -0.0330  0.8660  0.0084
  171SAPS   H2R19373   4.148   6.482   5.986 -0.5882 -1.1844 -0.1553
  171SAPS   H2S19374   3.986   6.450   6.047  0.2028  0.5894 -0.3769
  171SAPS    C319375   3.986   6.145   6.356 -0.3203  0.1892 -0.6770
  171SAPS    HX19376   3.886   6.191   6.372 -0.4213 -1.0276  3.1413
  171SAPS    HY19377   4.001   6.090   6.451 -1.6154  0.7495 -0.1266
  171SAPS   O3119378   4.002   6.045   6.244  0.1196 -0.5793 -0.0859
  171SAPS   C3119379   4.111   5.973   6.232  0.4915 -0.6172 -0.3791
  171SAPS   O3219380   4.203   5.967   6.310  0.2501  0.0808 -0.2586
  171SAPS   C3219381   4.111   5.902   6.104  0.5479 -0.1037  0.5362
  171SAPS   H2X19382   4.009   5.866   6.077  0.2609  0.5390  0.7470
  171SAPS   H2Y19383   4.181   5.816   6.114  3.0920  2.0207  2.1535
  171SAPS   C2319384   4.068   6.644   6.110 -0.1158 -0.2418 -0.4313
  171SAPS   H3R19385   4.167   6.683   6.139 -0.4547  0.4722 -0.1997
  171SAPS   H3S19386   4.010   6.650   6.204  0.7894 -1.4675  0.2312
  171SAPS   C2419387   4.003   6.725   5.994  0.5106  0.5189  0.5778
  171SAPS   H4R19388   3.965   6.826   6.021 -1.1270  0.1926 -0.3381
  171SAPS   H4S19389   3.914   6.668   5.960  0.3347  0.6398  0.8254
  171SAPS   C2519390   4.101   6.743   5.880 -0.0972 -0.7615  0.2832
  171SAPS   H5R19391   4.192   6.794   5.915 -1.2625  0.8926  1.0697
  171SAPS   C2619392   4.098   6.699   5.754  0.1477  0.2832  0.2687
  171SAPS   H6R19393   4.170   6.729   5.677  0.7439 -0.2074  0.6220
  171SAPS   C2719394   3.992   6.599   5.698  0.3508  0.3570  0.5362
  171SAPS   H7R19395   3.895   6.650   5.679  0.8935  1.0579 -0.4536
  171SAPS   H7S19396   3.967   6.530   5.781  0.4179  1.6454  1.6661
  171SAPS   C2819397   4.023   6.540   5.564  1.0338  0.2062 -0.3328
  171SAPS   H8R19398   4.068   6.440   5.574 -0.4610 -0.7546 -2.4651
  171SAPS   C2919399   3.993   6.588   5.437  0.3957 -0.7896  0.4433
  171SAPS   H9R19400   4.024   6.524   5.353  0.4144 -0.3323  0.0967
  171SAPS  C21019401   3.913   6.712   5.413  0.2849 -0.4006 -0.3593
  171SAPS  H10R19402   3.886   6.760   5.509  0.9249 -2.8609  1.1449
  171SAPS  H10S19403   3.809   6.687   5.383 -0.9881  0.8615  2.5851
  171SAPS  C21119404   3.986   6.815   5.329 -0.1614 -0.4029 -0.2414
  171SAPS  H11R19405   4.037   6.894   5.385  0.8474 -1.6193  0.6190
  171SAPS  C21219406   3.985   6.817   5.195 -0.6206 -0.5217 -0.4497
  171SAPS  H12R19407   4.058   6.883   5.145  4.1228 -3.0935  2.3704
  171SAPS  C21319408   3.931   6.716   5.106 -0.6863 -0.0872  0.5310
  171SAPS  H13R19409   3.826   6.749   5.095  0.3997  3.3593 -1.1097
  171SAPS  H13S19410   3.921   6.615   5.151  0.8970  0.2498  1.7466
  171SAPS  C21419411   4.008   6.721   4.973  0.1860  0.0394 -0.1609
  171SAPS  H14R19412   4.110   6.762   4.976  0.4497 -0.5323 -0.9571
  171SAPS  C21519413   3.956   6.705   4.847 -0.2868  0.5113 -0.2793
  171SAPS  H15R19414   4.036   6.704   4.772  0.3977  0.6541  0.4299
  171SAPS  C21619415   3.823   6.664   4.796  0.1973  0.0577  0.5729
  171SAPS  H16R19416   3.739   6.722   4.839  0.2774  1.4501 -1.0227
  171SAPS  H16S19417   3.794   6.558   4.810 -0.4982  0.1387 -0.1811
  171SAPS  C21719418   3.795   6.701   4.641  0.0146  0.0784 -0.5275
  171SAPS  H17R19419   3.876   6.661   4.576  0.1508  1.5127 -1.2831
  171SAPS  H17S19420   3.799   6.812   4.646 -3.3639  0.3039 -0.8106
  171SAPS  C21819421   3.660   6.674   4.599  0.6500  0.3065 -0.4666
  171SAPS  H18R19422   3.590   6.699   4.681  1.9492 -0.0673  0.7904
  171SAPS  H18S19423   3.646   6.563   4.594  1.8633  0.0809  0.7297
  171SAPS  C21919424   3.609   6.734   4.458 -0.3893 -0.1791 -0.3225
  171SAPS  H19R19425   3.528   6.680   4.403 -0.9393  2.8544 -2.7426
  171SAPS  H19S19426   3.694   6.723   4.387  0.4450  0.7210  0.5125
  171SAPS  C22019427   3.582   6.888   4.464  0.2086 -0.0071 -0.6692
  171SAPS  H20R19428   3.478   6.914   4.491  0.2535 -0.4939 -0.0189
  171SAPS  H20S19429   3.600   6.941   4.368 -0.7934 -0.1885 -0.9667
  171SAPS  H20T19430   3.655   6.932   4.535 -2.1990  1.3254  1.0953
  171SAPS   C3319431   4.161   5.988   5.986  0.2708 -0.8058 -0.6065
  171SAPS   H3X19432   4.196   5.938   5.894 -1.1659  1.6237 -2.5817
  171SAPS   H3Y19433   4.238   6.059   6.023  0.4015 -0.6546 -1.1731
  171SAPS   C3419434   4.048   6.074   5.924 -0.9070  0.0188  0.0766
  171SAPS   H4X19435   3.980   6.132   5.991 -0.8543 -0.7625  0.8262
  171SAPS   H4Y19436   3.985   6.000   5.871  1.9120 -0.8697 -2.3426
  171SAPS   C3519437   4.092   6.179   5.820 -0.1259 -0.2604 -0.5882
  171SAPS   H5X19438   4.169   6.247   5.861 -0.7963  0.9290 -1.2401
  171SAPS   H5Y19439   4.006   6.242   5.790  1.5999  1.5864 -1.9653
  171SAPS   C3619440   4.146   6.128   5.677  0.6047  0.2544  0.8145
  171SAPS   H6X19441   4.233   6.063   5.703  0.4754 -0.0113  0.5802
  171SAPS   H6Y19442   4.184   6.219   5.626  0.9820 -0.4593 -0.2084
  171SAPS   C3719443   4.045   6.053   5.594  0.2168 -0.2105 -0.3134
  171SAPS   H7X19444   3.966   6.120   5.554 -1.3924 -0.8374  1.6956
  171SAPS   H7Y19445   3.992   5.977   5.655  0.5281 -1.8056 -1.9419
  171SAPS   C3819446   4.106   5.977   5.473  0.0566  0.8256 -0.6925
  171SAPS   H8X19447   4.023   5.923   5.423  0.7597  0.1643 -1.1665
  171SAPS   H8Y19448   4.186   5.913   5.515 -0.3889  1.6356  1.5538
  171SAPS   C3919449   4.190   6.073   5.386 -0.0108 -0.0141  0.2651
  171SAPS   H9X19450   4.272   6.112   5.450 -0.4674 -0.2908  1.0327
  171SAPS   H9Y19451   4.118   6.154   5.362 -0.7141 -0.8949 -0.7161
  171SAPS  C31019452   4.249   6.000   5.263 -0.8405  0.2746  0.3650
  171SAPS  H10X19453   4.257   5.892   5.288 -0.9748  0.4852  1.3547
  171SAPS  H10Y19454   4.355   6.032   5.251 -0.7720 -0.6001 -1.8787
  171SAPS  C31119455   4.169   6.013   5.126  0.0732  0.2410 -0.4690
  171SAPS  H11X19456   4.140   6.117   5.101 -2.2277 -0.1775  0.2335
  171SAPS  H11Y19457   4.070   5.965   5.140 -0.9412  2.5195  0.7917
  171SAPS  C31219458   4.241   5.955   5.007 -0.3908 -0.3986 -0.1506
  171SAPS  H12X19459   4.271   5.854   5.044  1.7821 -0.2550 -1.3948
  171SAPS  H12Y19460   4.331   6.016   4.984 -0.4335 -1.4528 -3.5905
  171SAPS  C31319461   4.150   5.947   4.890  0.3698  0.5266 -0.5580
  171SAPS  H13X19462   4.131   6.047   4.846  1.0318  1.1974  0.6396
  171SAPS  H13Y19463   4.053   5.897   4.912  0.8990 -0.0077  0.6411
  171SAPS  C31419464   4.219   5.880   4.769  0.4083  0.4459 -0.0296
  171SAPS  H14X19465   4.144   5.838   4.699 -0.6903  1.1591  0.6845
  171SAPS  H14Y19466   4.272   5.791   4.810  0.1698  0.3999  0.1844
  171SAPS  C31519467   4.315   5.969   4.685 -0.1454 -0.6534 -0.2701
  171SAPS  H15X19468   4.382   5.898   4.632  0.7999  0.8673 -1.1854
  171SAPS  H15Y19469   4.361   6.047   4.750 -1.4819  1.6331 -1.9322
  171SAPS  C31619470   4.231   6.047   4.588 -0.5370  0.0536  0.3722
  171SAPS  H16X19471   4.198   6.139   4.641 -0.2045  0.4889 -0.1638
  171SAPS  H16Y19472   4.135   6.007   4.549 -1.2053  0.7196  1.2828
  171SAPS  C31719473   4.309   6.085   4.461 -0.6143 -0.1148 -0.6052
  171SAPS  H17X19474   4.245   6.142   4.390 -1.8506 -1.6511 -0.7825
  171SAPS  H17Y19475   4.340   5.999   4.399  0.1889  0.5335 -1.1179
  171SAPS  C31819476   4.440   6.163   4.491  0.7342  0.7726  0.1185
  171SAPS  H18X19477   4.487   6.134   4.587  1.7101 -0.5785 -0.7360
  171SAPS  H18Y19478   4.426   6.273   4.498 -0.0043  0.8178 -1.5970
  171SAPS  H18Z19479   4.512   6.154   4.407  0.4900  2.3765 -0.2962
  172SAPS     N19480   4.291   1.920   7.331  0.1610 -0.1865 -0.6261
  172SAPS   HN119481   4.278   2.013   7.287 -1.0174  1.2560  2.5032
  172SAPS   HN219482   4.252   1.933   7.426 -1.2761 -0.3910 -1.1622
  172SAPS   HN319483   4.392   1.895   7.328 -0.2542 -1.9951 -3.1323
  172SAPS   C1219484   4.206   1.823   7.268 -0.5305  0.0033  0.7436
  172SAPS  H12A19485   4.220   1.733   7.326  1.0821  0.7506  1.5886
  172SAPS   C1319486   4.061   1.866   7.269 -0.6805  0.0913  0.4535
  172SAPS  O13A19487   4.019   1.968   7.341  0.2002 -0.1286  0.1789
  172SAPS  O13B19488   3.974   1.797   7.209 -0.1136  0.7676  0.0202
  172SAPS   C1119489   4.258   1.800   7.123  0.5489 -0.2842  0.2709
  172SAPS  H11A19490   4.220   1.880   7.056  0.4781 -1.6318 -1.3816
  172SAPS  H11B19491   4.213   1.707   7.083  3.5060 -0.1760 -3.9980
  172SAPS     P19492   4.471   1.712   6.987 -0.0646  0.0042  0.3628
  172SAPS   O1319493   4.596   1.784   6.949 -0.7554  0.8254  0.1833
  172SAPS   O1419494   4.483   1.567   7.012 -0.5744 -0.3846 -0.2419
  172SAPS   O1219495   4.403   1.786   7.109  0.0733 -0.0945  0.4525
  172SAPS   O1119496   4.368   1.735   6.869 -0.4226 -0.1560 -0.2740
  172SAPS    C119497   4.341   1.859   6.803 -0.0720  0.2875 -0.3366
  172SAPS    HA19498   4.232   1.867   6.818  0.0121  1.5833 -0.3117
  172SAPS    HB19499   4.380   1.944   6.863 -0.8683 -0.8301  1.8673
  172SAPS    C219500   4.367   1.860   6.651 -0.0927 -0.1966  0.2896
  172SAPS    HS19501   4.317   1.766   6.620 -0.8794  0.8191 -1.7382
  172SAPS   O2119502   4.510   1.859   6.613 -0.0947 -0.1417 -0.1454
  172SAPS   C2119503   4.542   1.802   6.497  0.2295 -0.2965 -0.0754
  172SAPS   O2219504   4.468   1.731   6.429 -0.1706  0.0930  0.3824
  172SAPS   C2219505   4.688   1.838   6.474 -0.4978 -0.0178 -0.6652
  172SAPS   H2R19506   4.717   1.924   6.538  0.2412 -0.8303  0.1153
  172SAPS   H2S19507   4.735   1.745   6.512  0.6779 -0.1631 -2.3604
  172SAPS    C319508   4.301   1.987   6.588 -0.0840  0.1195 -0.2793
  172SAPS    HX19509   4.345   2.083   6.625 -0.5168  1.6418 -3.3477
  172SAPS    HY19510   4.201   2.005   6.632 -0.7755  0.1550 -1.8214
  172SAPS   O3119511   4.303   1.985   6.439  0.4034  0.2662  0.3411
  172SAPS   C3119512   4.205   1.916   6.387  0.4770 -0.1917 -1.0199
  172SAPS   O3219513   4.124   1.846   6.446  0.2605 -0.7843 -0.0219
  172SAPS   C3219514   4.190   1.954   6.245  0.4946  0.3925  0.4440
  172SAPS   H2X19515   4.291   1.949   6.201  1.8645  2.4726  3.0402
  172SAPS   H2Y19516   4.173   2.063   6.234  2.3967  0.7984  1.1656
  172SAPS   C2319517   4.741   1.854   6.331 -0.6944 -0.1038 -0.1819
  172SAPS   H3R19518   4.847   1.888   6.342 -0.8702 -0.0417  1.5050
  172SAPS   H3S19519   4.682   1.929   6.275 -0.5390 -0.3694 -0.7043
  172SAPS   C2419520   4.744   1.729   6.254  0.4756  0.8557 -0.2882
  172SAPS   H4R19521   4.646   1.679   6.263 -0.1502  1.8744 -1.1526
  172SAPS   H4S19522   4.823   1.663   6.297 -0.8026  1.5301  3.3916
  172SAPS   C2519523   4.768   1.746   6.106  0.1015  0.1855 -0.9318
  172SAPS   H5R19524   4.874   1.744   6.079  0.4001 -0.7992  0.2734
  172SAPS   C2619525   4.666   1.743   6.013 -0.5346 -0.8981  0.1299
  172SAPS   H6R19526   4.696   1.753   5.908  3.6806 -0.3372  1.1788
  172SAPS   C2719527   4.521   1.728   6.047 -0.3207 -0.7566  0.7104
  172SAPS   H7R19528   4.463   1.791   5.976  1.5445  1.2545  0.8459
  172SAPS   H7S19529   4.495   1.773   6.145  2.8255 -1.5138  2.0021
  172SAPS   C2819530   4.475   1.587   6.066  0.3360  0.4620  0.6488
  172SAPS   H8R19531   4.525   1.539   6.151  0.8567  2.3562  1.4522
  172SAPS   C2919532   4.391   1.511   5.986 -0.2639 -0.1232  0.4118
  172SAPS   H9R19533   4.357   1.414   6.024 -0.2160 -0.7988 -1.2210
  172SAPS  C21019534   4.317   1.563   5.866  0.5830  0.1956 -0.1033
  172SAPS  H10R19535   4.347   1.666   5.837 -0.2799  0.2894 -0.7200
  172SAPS  H10S19536   4.209   1.564   5.894 -0.1395 -0.4930 -2.6069
  172SAPS  C21119537   4.317   1.470   5.739  0.9203 -0.7817 -0.9347
  172SAPS  H11R19538   4.243   1.390   5.729  1.6976 -1.5174 -0.9639
  172SAPS  C21219539   4.402   1.493   5.637  0.4424  0.5253 -0.3598
  172SAPS  H12R19540   4.404   1.427   5.549 -0.2494  0.2053 -0.1395
  172SAPS  C21319541   4.494   1.608   5.633  0.4017 -0.2505  0.2776
  172SAPS  H13R19542   4.558   1.606   5.724  2.7428  1.7620 -1.2016
  172SAPS  H13S19543   4.433   1.700   5.631 -0.0658 -0.5632 -0.0910
  172SAPS  C21419544   4.583   1.608   5.511 -0.6893  0.7566 -0.0218
  172SAPS  H14R19545   4.671   1.542   5.521  0.2429  1.8920 -0.5487
  172SAPS  C21519546   4.573   1.681   5.399 -0.6009  0.4483  0.4472
  172SAPS  H15R19547   4.652   1.670   5.323  0.1221 -0.6605  1.3292
  172SAPS  C21619548   4.465   1.788   5.368 -0.4877 -0.3572  0.1237
  172SAPS  H16R19549   4.389   1.776   5.447  0.6730  0.1588  1.3650
  172SAPS  H16S19550   4.431   1.774   5.263  2.3873  0.1850 -0.9710
  172SAPS  C21719551   4.527   1.930   5.373  0.3307 -0.5197  0.7798
  172SAPS  H17R19552   4.611   1.939   5.444  0.4464  3.7325  0.3485
  172SAPS  H17S19553   4.450   2.008   5.389  0.1495  0.6968 -4.1837
  172SAPS  C21819554   4.587   1.957   5.231 -0.0800 -1.2842 -0.1292
  172SAPS  H18R19555   4.507   1.962   5.154  0.7046 -0.4309 -0.9289
  172SAPS  H18S19556   4.665   1.883   5.201  1.9183  1.0563 -1.0175
  172SAPS  C21919557   4.658   2.094   5.231  0.3128  0.6498  0.7954
  172SAPS  H19R19558   4.746   2.097   5.299 -0.1757  1.3711  1.4166
  172SAPS  H19S19559   4.584   2.171   5.264  1.3782  1.6363  0.9517
  172SAPS  C22019560   4.712   2.145   5.091  0.0562  0.5546 -0.2692
  172SAPS  H20R19561   4.791   2.075   5.054  1.3039  1.8281 -0.1192
  172SAPS  H20S19562   4.748   2.250   5.093  0.6200  0.4327 -2.0694
  172SAPS  H20T19563   4.625   2.143   5.023  0.8950  0.0778 -1.3655
  172SAPS   C3319564   4.084   1.867   6.167  0.7884 -0.2849  0.0195
  172SAPS   H3X19565   3.984   1.887   6.209  0.6054  1.1080 -1.0292
  172SAPS   H3Y19566   4.105   1.758   6.179 -0.5923 -0.8787 -2.3829
  172SAPS   C3419567   4.088   1.896   6.016 -0.2960  0.8922 -0.6313
  172SAPS   H4X19568   4.195   1.893   5.987 -0.4155  1.7916 -1.2060
  172SAPS   H4Y19569   4.058   2.002   6.002  1.8501  1.6226 -0.0783
  172SAPS   C3519570   3.998   1.791   5.937 -0.0484 -0.0657 -0.4490
  172SAPS   H5X19571   3.892   1.810   5.964  0.0971  3.6906 -2.0019
  172SAPS   H5Y19572   4.042   1.695   5.973  1.0247  0.4447 -0.3428
  172SAPS   C3619573   4.023   1.804   5.786  0.6570  0.2124  0.3433
  172SAPS   H6X19574   4.127   1.778   5.757 -0.1809 -1.2974 -1.5910
  172SAPS   H6Y19575   4.008   1.905   5.741 -1.1706 -0.1838 -0.0351
  172SAPS   C3719576   3.915   1.716   5.711  0.7496 -0.1894  0.2003
  172SAPS   H7X19577   3.813   1.749   5.744  0.6552  0.0282 -0.2948
  172SAPS   H7Y19578   3.932   1.609   5.734  0.7045 -0.4322 -0.8159
  172SAPS   C3819579   3.930   1.719   5.557 -0.1944  0.0542 -0.1714
  172SAPS   H8X19580   3.923   1.821   5.513 -4.2578  1.2149  2.6157
  172SAPS   H8Y19581   3.852   1.659   5.506 -0.3598  1.4467 -1.6153
  172SAPS   C3919582   4.069   1.654   5.518 -0.4134 -0.2220  0.1949
  172SAPS   H9X19583   4.098   1.576   5.591 -1.0294 -1.3285 -0.7021
  172SAPS   H9Y19584   4.149   1.731   5.521 -2.3155  1.9858 -1.6837
  172SAPS  C31019585   4.070   1.581   5.388 -0.4632 -0.1629  0.1630
  172SAPS  H10X19586   4.041   1.643   5.301 -0.7584 -0.3714  0.1135
  172SAPS  H10Y19587   3.993   1.501   5.396  0.8822 -1.5128  0.0059
  172SAPS  C31119588   4.206   1.511   5.349 -1.2969  0.3654 -0.6565
  172SAPS  H11X19589   4.221   1.419   5.409  2.1568  1.8402  0.9999
  172SAPS  H11Y19590   4.285   1.588   5.363 -0.9922 -0.0291 -0.1870
  172SAPS  C31219591   4.225   1.494   5.199  0.0836 -0.3225  0.2287
  172SAPS  H12X19592   4.220   1.597   5.157  1.3998  0.1784  1.2043
  172SAPS  H12Y19593   4.137   1.438   5.161  1.2754 -0.8833 -1.8358
  172SAPS  C31319594   4.354   1.422   5.150  0.2574  0.2710 -0.2168
  172SAPS  H13X19595   4.372   1.345   5.228 -3.0079 -0.6205 -0.1952
  172SAPS  H13Y19596   4.440   1.491   5.160 -2.0549  3.0325  2.8549
  172SAPS  C31419597   4.342   1.360   5.009  0.1223  0.0862  0.0290
  172SAPS  H14X19598   4.333   1.442   4.934  1.4537 -0.5185 -0.8259
  172SAPS  H14Y19599   4.241   1.313   5.010 -0.0487  0.3573 -1.8555
  172SAPS  C31519600   4.458   1.278   4.971 -0.1276  0.0120  0.4082
  172SAPS  H15X19601   4.464   1.215   5.062 -0.0939  1.2762  1.3029
  172SAPS  H15Y19602   4.548   1.343   4.969 -1.9195  2.6510 -0.9722
  172SAPS  C31619603   4.423   1.208   4.840  0.6154 -0.8162 -0.1646
  172SAPS  H16X19604   4.380   1.278   4.765 -1.4257 -0.3347  1.3706
  172SAPS  H16Y19605   4.518   1.168   4.799  0.3355  0.1163 -1.7969
  172SAPS  C31719606   4.321   1.095   4.856 -0.1397 -0.2202  0.1090
  172SAPS  H17X19607   4.271   1.109   4.954  0.2097  3.4485 -0.1101
  172SAPS  H17Y19608   4.387   1.006   4.867  1.2806  0.5249 -1.7609
  172SAPS  C31819609   4.217   1.077   4.746  0.4741 -0.6052 -0.5735
  172SAPS  H18X19610   4.127   1.024   4.783  0.0268  1.9648  2.4703
  172SAPS  H18Y19611   4.256   1.028   4.655 -0.2363  2.8848 -2.9660
  172SAPS  H18Z19612   4.189   1.180   4.714 -3.6525 -1.7584 -1.1877
  173SAPS     N19613   2.515   0.241   2.477 -0.1738  0.1091  0.0441
  173SAPS   HN119614   2.429   0.196   2.515 -0.6972  0.2074 -0.9906
  173SAPS   HN219615   2.577   0.169   2.434 -1.6816 -2.0007  1.1728
  173SAPS   HN319616   2.567   0.289   2.553  0.3799  0.1560 -0.3578
  173SAPS   C1219617   2.487   0.353   2.374  0.6564 -0.4331 -0.9222
  173SAPS  H12A19618   2.579   0.408   2.360  0.4995  0.3564  0.9473
  173SAPS   C1319619   2.425   0.304   2.238 -0.1701  0.5912  0.2855
  173SAPS  O13A19620   2.412   0.177   2.226  0.1564 -0.3621 -0.0337
  173SAPS  O13B19621   2.398   0.382   2.146  0.3972  0.1419  0.4145
  173SAPS   C1119622   2.387   0.452   2.435 -0.4772 -0.2372  0.1528
  173SAPS  H11A19623   2.300   0.398   2.478 -0.4796 -1.3453 -1.1840
  173SAPS  H11B19624   2.348   0.526   2.361  0.0620 -0.0641  0.0358
  173SAPS     P19625   2.423   0.659   2.595 -0.2934  0.0857  0.2193
  173SAPS   O1319626   2.534   0.702   2.686  0.2166  0.0777 -0.1440
  173SAPS   O1419627   2.381   0.744   2.481 -0.0324  0.9791  0.1257
  173SAPS   O1219628   2.457   0.516   2.538 -0.6429 -0.2521  0.1893
  173SAPS   O1119629   2.299   0.622   2.677  0.2164 -0.0826  0.2703
  173SAPS    C119630   2.297   0.518   2.767  0.6466 -0.7944 -0.4322
  173SAPS    HA19631   2.226   0.440   2.734 -0.7391 -0.1739  0.9889
  173SAPS    HB19632   2.398   0.481   2.795  0.6820  0.1341  0.7319
  173SAPS    C219633   2.229   0.559   2.900  0.4595  0.1268 -0.6305
  173SAPS    HS19634   2.127   0.599   2.885  0.8439  2.1660  1.5929
  173SAPS   O2119635   2.314   0.661   2.960 -0.0298 -0.3026  0.0502
  173SAPS   C2119636   2.240   0.751   3.035  0.3943 -0.2382  0.0259
  173SAPS   O2219637   2.121   0.747   3.049  0.0027 -0.1282  0.2429
  173SAPS   C2219638   2.327   0.865   3.093  0.5271 -0.3070  0.4374
  173SAPS   H2R19639   2.334   0.947   3.019  0.7505  0.0479  0.8474
  173SAPS   H2S19640   2.265   0.909   3.175 -2.2231 -0.0218 -1.6431
  173SAPS    C319641   2.223   0.426   2.982  0.1218 -0.1664  1.1500
  173SAPS    HX19642   2.324   0.380   2.989 -0.0163 -0.2676  3.0139
  173SAPS    HY19643   2.168   0.356   2.916 -0.4242  0.6110  0.7731
  173SAPS   O3119644   2.169   0.435   3.109  0.0386  0.1324  0.4021
  173SAPS   C3119645   2.034   0.453   3.114  0.2932  0.8792  0.8181
  173SAPS   O3219646   1.963   0.466   3.015  0.1024 -0.4806 -0.3409
  173SAPS   C3219647   1.997   0.467   3.260 -0.5492  0.2096  0.5037
  173SAPS   H2X19648   2.043   0.557   3.306 -0.6525  0.2080  0.6113
  173SAPS   H2Y19649   2.046   0.383   3.313  0.4448  1.0252  0.9108
  173SAPS   C2319650   2.459   0.828   3.155 -0.1937 -0.3318  0.7714
  173SAPS   H3R19651   2.516   0.924   3.161  0.4314 -0.6852  0.5469
  173SAPS   H3S19652   2.525   0.761   3.097  0.6138  0.5251  0.6813
  173SAPS   C2419653   2.445   0.766   3.291  0.0324  0.4687 -0.2090
  173SAPS   H4R19654   2.389   0.837   3.356 -0.7008 -0.5520  0.2999
  173SAPS   H4S19655   2.551   0.764   3.325  0.1279 -3.9126 -0.1845
  173SAPS   C2519656   2.394   0.627   3.289  0.8042  0.3378  0.3067
  173SAPS   H5R19657   2.392   0.586   3.187  0.4289  1.4842 -0.1645
  173SAPS   C2619658   2.353   0.561   3.397  0.1208 -0.8121 -0.4890
  173SAPS   H6R19659   2.314   0.458   3.389 -2.2437  0.0405 -0.8907
  173SAPS   C2719660   2.359   0.616   3.537 -0.3680 -0.4294  0.0998
  173SAPS   H7R19661   2.300   0.710   3.543  0.7912  0.4667 -1.5891
  173SAPS   H7S19662   2.461   0.656   3.554 -0.6839  0.4565 -0.0235
  173SAPS   C2819663   2.323   0.511   3.641 -0.1899 -0.5057  0.4771
  173SAPS   H8R19664   2.342   0.406   3.614  1.0037 -0.1272 -0.2819
  173SAPS   C2919665   2.261   0.541   3.758  0.1203 -0.1107  0.6587
  173SAPS   H9R19666   2.243   0.458   3.827 -1.2213  0.2110  0.7196
  173SAPS  C21019667   2.230   0.677   3.824 -0.1341  0.5732  0.3846
  173SAPS  H10R19668   2.278   0.763   3.774 -2.1881  0.5855 -1.7775
  173SAPS  H10S19669   2.263   0.673   3.930 -1.0534  2.0046  0.7475
  173SAPS  C21119670   2.083   0.699   3.802 -0.4117 -0.2362  0.1571
  173SAPS  H11R19671   2.062   0.692   3.695  2.1225  0.1495 -0.4279
  173SAPS  C21219672   1.994   0.721   3.902  0.1105 -0.0270  0.1652
  173SAPS  H12R19673   1.887   0.740   3.880 -0.4517 -2.1803  0.7695
  173SAPS  C21319674   2.039   0.716   4.048 -0.1813  0.1475  0.1773
  173SAPS  H13R19675   1.970   0.772   4.115  1.4404  1.3737  0.8917
  173SAPS  H13S19676   2.135   0.770   4.063  0.7300 -1.7197  1.5578
  173SAPS  C21419677   2.067   0.577   4.102  0.2366  0.5123 -0.2389
  173SAPS  H14R19678   2.107   0.505   4.030 -0.2721  0.1752 -0.1900
  173SAPS  C21519679   2.056   0.541   4.232  0.3509  0.6884  0.6504
  173SAPS  H15R19680   2.082   0.438   4.262  2.2099  0.9691  0.1168
  173SAPS  C21619681   2.006   0.629   4.344 -0.6284 -0.1133  0.7283
  173SAPS  H16R19682   1.923   0.586   4.403  0.5538 -0.0216  2.5552
  173SAPS  H16S19683   1.960   0.719   4.298  2.2007  0.1088 -1.9738
  173SAPS  C21719684   2.106   0.695   4.437 -0.2526 -0.1387 -0.5341
  173SAPS  H17R19685   2.166   0.759   4.369 -0.1485  0.2571 -0.0817
  173SAPS  H17S19686   2.172   0.621   4.487 -1.5750 -1.3559 -0.5299
  173SAPS  C21819687   2.035   0.776   4.546  0.1981  0.3250  0.0869
  173SAPS  H18R19688   1.939   0.815   4.506 -0.0672  1.6036  1.8838
  173SAPS  H18S19689   2.098   0.866   4.567 -0.7202  0.8672  0.5818
  173SAPS  C21919690   1.992   0.697   4.674  0.2069 -0.6933  0.6114
  173SAPS  H19R19691   1.945   0.602   4.640  0.3368 -0.0058 -1.6673
  173SAPS  H19S19692   1.902   0.749   4.714  0.5386  0.0728  0.3668
  173SAPS  C22019693   2.096   0.681   4.774 -0.9886 -0.2333  0.0885
  173SAPS  H20R19694   2.123   0.775   4.828 -0.1945  0.2002 -1.0281
  173SAPS  H20S19695   2.194   0.649   4.732 -0.8767 -0.8751  0.8011
  173SAPS  H20T19696   2.072   0.602   4.849  0.1697  0.9117  1.7484
  173SAPS   C3319697   1.846   0.455   3.290  0.6845 -0.4906  0.1799
  173SAPS   H3X19698   1.802   0.368   3.237  0.0829  0.3024 -0.6640
  173SAPS   H3Y19699   1.791   0.547   3.261  0.5794 -0.0540  1.6742
  173SAPS   C3419700   1.824   0.443   3.443  0.4439  0.0391  0.0791
  173SAPS   H4X19701   1.890   0.521   3.487 -0.9926  0.4620  1.6157
  173SAPS   H4Y19702   1.860   0.344   3.478 -0.9679 -0.2574  0.7824
  173SAPS   C3519703   1.684   0.454   3.487 -0.5134  0.2560  0.3563
  173SAPS   H5X19704   1.626   0.372   3.439 -0.0942 -1.1928  2.1960
  173SAPS   H5Y19705   1.646   0.555   3.461  0.9641  0.2210 -2.1507
  173SAPS   C3619706   1.645   0.432   3.638 -0.6420 -0.2593  0.5983
  173SAPS   H6X19707   1.696   0.502   3.708 -1.6911  1.7660 -0.5432
  173SAPS   H6Y19708   1.679   0.331   3.668 -0.1200 -0.4908 -0.7168
  173SAPS   C3719709   1.496   0.453   3.658 -0.2798 -1.0645  1.1024
  173SAPS   H7X19710   1.435   0.370   3.615 -0.5954 -0.4138  0.2782
  173SAPS   H7Y19711   1.464   0.549   3.613 -2.7530 -2.5987 -0.6913
  173SAPS   C3819712   1.468   0.457   3.812  0.0705 -0.1238 -0.6177
  173SAPS   H8X19713   1.365   0.495   3.831  1.0723  1.5491  2.0558
  173SAPS   H8Y19714   1.537   0.531   3.858 -0.1592 -1.9028  2.8659
  173SAPS   C3919715   1.491   0.327   3.884 -0.0181 -0.3544  0.2570
  173SAPS   H9X19716   1.594   0.290   3.864  0.2475 -0.4590  1.7214
  173SAPS   H9Y19717   1.414   0.249   3.863 -1.8695  0.7494  2.5090
  173SAPS  C31019718   1.486   0.359   4.029  0.0481  0.2855  0.2734
  173SAPS  H10X19719   1.406   0.430   4.058 -1.5606 -0.7235 -1.4243
  173SAPS  H10Y19720   1.587   0.396   4.055  0.8705 -0.2039 -1.9786
  173SAPS  C31119721   1.472   0.229   4.113 -0.2240 -0.3243  0.0164
  173SAPS  H11X19722   1.558   0.160   4.098  0.1918  0.4577 -1.3074
  173SAPS  H11Y19723   1.382   0.171   4.084  0.6440 -0.7219 -2.0415
  173SAPS  C31219724   1.464   0.255   4.265  0.2054  0.4420  0.3848
  173SAPS  H12X19725   1.519   0.351   4.277 -0.5291  0.7220  1.6144
  173SAPS  H12Y19726   1.514   0.169   4.315 -2.0600 -0.8800  0.4762
  173SAPS  C31319727   1.317   0.250   4.321 -0.1605  0.0002  0.2687
  173SAPS  H13X19728   1.269   0.169   4.262 -1.3645  0.8503  0.0330
  173SAPS  H13Y19729   1.263   0.343   4.290  0.4644 -0.0608 -1.0974
  173SAPS  C31419730   1.304   0.229   4.469 -0.8540 -0.1202  0.5155
  173SAPS  H14X19731   1.353   0.315   4.519 -0.0448 -0.2308 -0.0693
  173SAPS  H14Y19732   1.360   0.136   4.494 -0.8669 -0.0811  0.6918
  173SAPS  C31519733   1.156   0.222   4.517  0.3014  0.0402  0.4834
  173SAPS  H15X19734   1.100   0.160   4.443 -0.6288  2.7859 -1.2482
  173SAPS  H15Y19735   1.103   0.319   4.510 -3.2942 -1.7460  0.1477
  173SAPS  C31619736   1.142   0.156   4.660  0.2188 -0.1286 -0.2047
  173SAPS  H16X19737   1.211   0.209   4.729  0.8291  0.0724 -0.9536
  173SAPS  H16Y19738   1.184   0.053   4.661  2.3748  0.6821  1.3261
  173SAPS  C31719739   0.997   0.152   4.702 -0.1504  0.0912  0.5427
  173SAPS  H17X19740   1.002   0.096   4.798 -1.4873  0.4031  0.8129
  173SAPS  H17Y19741   0.950   0.085   4.627  0.7638 -1.0218  0.9305
  173SAPS  C31819742   0.927   0.289   4.717  0.6315  0.2378  0.2532
  173SAPS  H18X19743   0.966   0.368   4.649  3.7405  0.3226  1.9601
  173SAPS  H18Y19744   0.951   0.330   4.818  0.1730 -0.0162  0.4688
  173SAPS  H18Z19745   0.818   0.286   4.694  0.5448  1.4113  0.4705
  174SAPS     N19746   5.515   6.490   2.461  0.3875  0.5432 -0.5569
  174SAPS   HN119747   5.455   6.450   2.536  1.2246  0.4281  0.0645
  174SAPS   HN219748   5.614   6.460   2.456  0.0696 -0.4409 -1.2723
  174SAPS   HN319749   5.508   6.593   2.472  0.9418  0.4063  1.4535
  174SAPS   C1219750   5.448   6.438   2.339 -0.9706 -0.2228 -0.1685
  174SAPS  H12A19751   5.393   6.526   2.306  2.1855  2.9201  2.2412
  174SAPS   C1319752   5.538   6.421   2.215 -0.0575  0.0451 -0.8076
  174SAPS  O13A19753   5.657   6.459   2.218  0.1688 -0.0763 -0.4776
  174SAPS  O13B19754   5.488   6.388   2.104  0.5525  0.3696 -0.2909
  174SAPS   C1119755   5.360   6.315   2.362  0.5551  0.5054 -0.2090
  174SAPS  H11A19756   5.332   6.267   2.266  2.8017 -1.8156  0.1708
  174SAPS  H11B19757   5.271   6.342   2.422  0.2727  0.9354 -0.8158
  174SAPS     P19758   5.430   6.067   2.426  0.2539 -0.3798  0.3324
  174SAPS   O1319759   5.416   6.038   2.281  0.0277  0.5002  0.5160
  174SAPS   O1419760   5.529   5.994   2.508 -0.6565  0.4609 -0.1197
  174SAPS   O1219761   5.447   6.223   2.445 -0.5213 -0.4270  0.0495
  174SAPS   O1119762   5.292   6.048   2.493  0.0702  0.5987 -0.0260
  174SAPS    C119763   5.277   6.011   2.632 -0.0029 -0.1379  0.4763
  174SAPS    HA19764   5.171   5.992   2.658  0.2436 -1.2311  0.6986
  174SAPS    HB19765   5.327   5.915   2.657  0.9298  0.1874 -0.0782
  174SAPS    C219766   5.329   6.116   2.738 -0.5469  0.1621  0.0285
  174SAPS    HS19767   5.426   6.149   2.694 -0.1846  0.5432  1.0818
  174SAPS   O2119768   5.346   6.043   2.856 -0.4152  0.0809  0.0370
  174SAPS   C2119769   5.458   6.074   2.922  1.0784  0.3317 -0.2246
  174SAPS   O2219770   5.523   6.170   2.916 -0.2034 -0.5932 -0.0951
  174SAPS   C2219771   5.492   5.954   3.007  0.5149 -0.2054 -0.5952
  174SAPS   H2R19772   5.399   5.916   3.055  0.2337  0.4198 -0.6408
  174SAPS   H2S19773   5.544   5.886   2.936 -0.2557  0.3060 -1.6702
  174SAPS    C319774   5.227   6.231   2.764  0.1101  0.4066 -0.1688
  174SAPS    HX19775   5.135   6.179   2.800 -0.3154  0.7123 -0.7927
  174SAPS    HY19776   5.206   6.273   2.663  0.0278  1.8318  0.4278
  174SAPS   O3119777   5.266   6.328   2.855  0.5617 -0.3265 -0.1626
  174SAPS   C3119778   5.346   6.427   2.811  0.4106  0.2796 -0.3867
  174SAPS   O3219779   5.385   6.435   2.698  0.3652  0.2204  0.5839
  174SAPS   C3219780   5.371   6.528   2.915 -0.0779 -0.3616 -0.2627
  174SAPS   H2X19781   5.380   6.478   3.014  3.8509  0.4628 -0.0458
  174SAPS   H2Y19782   5.284   6.597   2.914  0.0310 -0.2036  0.6308
  174SAPS   C2319783   5.586   5.985   3.132 -0.5183 -0.4844 -0.5342
  174SAPS   H3R19784   5.681   6.034   3.100 -0.5043 -0.5939 -0.6633
  174SAPS   H3S19785   5.605   5.887   3.180  0.7189  1.1868  2.6375
  174SAPS   C2419786   5.514   6.065   3.243  0.2101  0.3826 -0.4559
  174SAPS   H4R19787   5.435   5.998   3.282  0.7020  0.0495 -0.0183
  174SAPS   H4S19788   5.472   6.157   3.197  2.3326  1.1928 -0.8790
  174SAPS   C2519789   5.615   6.096   3.349 -0.1823 -0.0472 -0.8324
  174SAPS   H5R19790   5.652   6.006   3.400 -0.7084  0.6382  0.8488
  174SAPS   C2619791   5.646   6.218   3.398 -0.2936  0.1441  0.5052
  174SAPS   H6R19792   5.730   6.229   3.468  1.9515  3.5918 -2.3736
  174SAPS   C2719793   5.597   6.354   3.344 -0.2239 -0.2200 -0.4158
  174SAPS   H7R19794   5.517   6.390   3.412  0.4840 -1.3575  1.0717
  174SAPS   H7S19795   5.552   6.335   3.245  2.0260 -3.3206 -0.9842
  174SAPS   C2819796   5.700   6.466   3.326  0.6541  0.2562 -0.5486
  174SAPS   H8R19797   5.735   6.479   3.223 -0.1037 -0.4000 -0.8996
  174SAPS   C2919798   5.760   6.544   3.425 -0.4034  0.1113  0.1165
  174SAPS   H9R19799   5.834   6.617   3.389  0.3982 -0.5574  0.3767
  174SAPS  C21019800   5.716   6.539   3.570 -0.1506  0.3186  0.2387
  174SAPS  H10R19801   5.624   6.480   3.588 -0.1029  0.3156  0.4801
  174SAPS  H10S19802   5.668   6.636   3.598 -0.6499 -0.5192  2.4553
  174SAPS  C21119803   5.833   6.514   3.664  1.1609 -0.5192 -0.3038
  174SAPS  H11R19804   5.936   6.523   3.628 -0.0239 -1.2089 -4.3137
  174SAPS  C21219805   5.809   6.469   3.791  0.1811  0.2252  0.5391
  174SAPS  H12R19806   5.901   6.447   3.848  0.1853  1.8839  1.2123
  174SAPS  C21319807   5.679   6.438   3.863 -0.0357  1.1773 -0.4502
  174SAPS  H13R19808   5.610   6.523   3.846 -0.6234  0.8258  0.1342
  174SAPS  H13S19809   5.698   6.448   3.972 -0.7423  1.3194 -0.3369
  174SAPS  C21419810   5.630   6.298   3.814 -0.0288  0.0443 -0.4194
  174SAPS  H14R19811   5.642   6.279   3.706 -0.1184  1.0019 -0.6029
  174SAPS  C21519812   5.578   6.203   3.893 -0.0584 -0.9911  0.3679
  174SAPS  H15R19813   5.539   6.114   3.841 -2.7056  1.2168 -1.7229
  174SAPS  C21619814   5.547   6.209   4.040  0.6738 -0.3117 -0.6747
  174SAPS  H16R19815   5.443   6.174   4.058  0.9044 -0.3875  0.6542
  174SAPS  H16S19816   5.558   6.313   4.078  0.0708 -0.7580  0.8204
  174SAPS  C21719817   5.643   6.120   4.114 -0.3494 -0.4410  1.0037
  174SAPS  H17R19818   5.750   6.146   4.098 -0.5363 -0.6401 -0.8463
  174SAPS  H17S19819   5.634   6.013   4.085 -0.8439  0.0896 -0.9425
  174SAPS  C21819820   5.610   6.124   4.265 -0.4299 -0.4703  0.2650
  174SAPS  H18R19821   5.513   6.072   4.280  0.7351 -2.7807  0.2027
  174SAPS  H18S19822   5.610   6.231   4.294  0.1600  0.4065 -2.6390
  174SAPS  C21919823   5.711   6.057   4.356  0.0128  0.3081 -0.3444
  174SAPS  H19R19824   5.804   6.113   4.377  0.5300 -0.0492 -1.5788
  174SAPS  H19S19825   5.750   5.973   4.295 -2.9556 -0.5879 -1.1905
  174SAPS  C22019826   5.646   6.009   4.491  0.3146 -0.3505 -0.2543
  174SAPS  H20R19827   5.551   5.953   4.475 -1.9662  3.1276  0.1024
  174SAPS  H20S19828   5.613   6.100   4.546  0.1289 -1.0966  0.8946
  174SAPS  H20T19829   5.716   5.957   4.559 -0.6340 -0.5622  0.5796
  174SAPS   C3319830   5.502   6.607   2.909  0.2387 -0.2561  0.0145
  174SAPS   H3X19831   5.523   6.646   2.807  3.3491 -0.9892  0.2672
  174SAPS   H3Y19832   5.597   6.561   2.944  0.7620  1.8681  1.6312
  174SAPS   C3419833   5.498   6.736   2.994 -0.4729 -0.3609 -0.0032
  174SAPS   H4X19834   5.423   6.801   2.944 -2.1254 -2.2817 -0.1623
  174SAPS   H4Y19835   5.599   6.783   2.994 -0.9748  0.8089  1.7612
  174SAPS   C3519836   5.479   6.720   3.146  0.4094  0.5829  0.0675
  174SAPS   H5X19837   5.557   6.655   3.191 -1.1589 -0.8721  0.8270
  174SAPS   H5Y19838   5.386   6.667   3.175  1.6511 -1.6576  0.1546
  174SAPS   C3619839   5.491   6.843   3.226 -0.4391 -0.3637 -0.4783
  174SAPS   H6X19840   5.406   6.912   3.208  0.7393  0.9650 -1.1739
  174SAPS   H6Y19841   5.577   6.903   3.189  0.0512 -1.4879 -1.2076
  174SAPS   C3719842   5.526   6.810   3.373  0.6849 -0.0356  0.2166
  174SAPS   H7X19843   5.619   6.750   3.382  1.0707  0.3612 -1.0590
  174SAPS   H7Y19844   5.447   6.743   3.414  1.0180 -0.3482  0.3524
  174SAPS   C3819845   5.538   6.935   3.475  0.5401 -0.6015 -0.1644
  174SAPS   H8X19846   5.441   6.988   3.468 -1.4596 -3.7244  1.3865
  174SAPS   H8Y19847   5.618   7.000   3.434  1.7548 -1.2361  1.1108
  174SAPS   C3919848   5.569   6.901   3.620 -0.2028  0.3876  0.1915
  174SAPS   H9X19849   5.569   7.004   3.663 -0.7420  0.9686 -1.1558
  174SAPS   H9Y19850   5.667   6.854   3.641  0.3178  1.1580 -0.4623
  174SAPS  C31019851   5.457   6.838   3.697  0.0298 -0.1934  0.4283
  174SAPS  H10X19852   5.411   6.752   3.643 -0.8669  1.1592 -1.0481
  174SAPS  H10Y19853   5.372   6.908   3.712 -0.3749 -0.1508 -1.7790
  174SAPS  C31119854   5.506   6.794   3.835 -0.1733 -0.3563  0.2617
  174SAPS  H11X19855   5.536   6.888   3.885  2.5643 -0.6021 -0.7493
  174SAPS  H11Y19856   5.605   6.743   3.830  0.7882  1.4888 -0.6291
  174SAPS  C31219857   5.406   6.716   3.918  0.2876  0.8168 -0.2995
  174SAPS  H12X19858   5.365   6.626   3.867 -0.7600  1.7691 -1.1644
  174SAPS  H12Y19859   5.311   6.772   3.928 -1.4700 -2.1215  0.6210
  174SAPS  C31319860   5.450   6.674   4.063 -0.3153 -0.3480 -0.3184
  174SAPS  H13X19861   5.509   6.581   4.051  0.0165 -0.1136 -0.5222
  174SAPS  H13Y19862   5.358   6.656   4.123 -1.7017 -0.6694 -2.4357
  174SAPS  C31419863   5.536   6.776   4.142  0.7359 -0.5958  0.1640
  174SAPS  H14X19864   5.481   6.872   4.137  0.3627 -0.8638 -1.3024
  174SAPS  H14Y19865   5.623   6.782   4.072  2.1413 -2.5779  1.6108
  174SAPS  C31519866   5.585   6.747   4.281  0.2241  0.6561  0.2230
  174SAPS  H15X19867   5.638   6.838   4.317 -1.4168  1.6179  0.2843
  174SAPS  H15Y19868   5.658   6.663   4.278  1.2779  1.4462  1.9637
  174SAPS  C31619869   5.471   6.709   4.384  0.2923  0.2613 -0.0576
  174SAPS  H16X19870   5.520   6.699   4.483  0.8946 -0.6702 -0.4407
  174SAPS  H16Y19871   5.421   6.621   4.338  0.1233  0.5950 -0.5258
  174SAPS  C31719872   5.356   6.809   4.395 -0.3359 -0.5924  0.1250
  174SAPS  H17X19873   5.300   6.815   4.299  2.5072  0.3366 -1.5933
  174SAPS  H17Y19874   5.406   6.908   4.404 -0.0914 -0.8772  2.5178
  174SAPS  C31819875   5.260   6.805   4.518 -0.3697  0.3187 -0.1387
  174SAPS  H18X19876   5.309   6.758   4.606  0.6344  0.3283 -0.6803
  174SAPS  H18Y19877   5.172   6.745   4.484 -0.1966 -0.3379  0.5465
  174SAPS  H18Z19878   5.222   6.908   4.533  2.5821  1.5048 -0.0949
  175SAPS     N19879   1.458   4.473   2.506  0.6968  0.1957 -0.2383
  175SAPS   HN119880   1.440   4.527   2.593  1.9763  0.3252 -0.0382
  175SAPS   HN219881   1.376   4.422   2.466  1.3806 -0.7418 -0.4816
  175SAPS   HN319882   1.522   4.393   2.525  1.2627  0.7277  0.1194
  175SAPS   C1219883   1.517   4.550   2.392 -0.4953  0.4101 -0.0135
  175SAPS  H12A19884   1.531   4.473   2.318  0.0799  0.6818 -0.1891
  175SAPS   C1319885   1.435   4.659   2.325 -0.2529  0.1694 -0.3149
  175SAPS  O13A19886   1.317   4.677   2.361 -0.5046 -0.4350 -0.3578
  175SAPS  O13B19887   1.472   4.712   2.219 -0.1775  0.5238  0.2400
  175SAPS   C1119888   1.649   4.606   2.445 -0.0453 -0.5209  0.7111
  175SAPS  H11A19889   1.713   4.636   2.359  3.1199 -0.3009  2.9383
  175SAPS  H11B19890   1.703   4.520   2.490  0.9655  1.2799  3.1726
  175SAPS     P19891   1.753   4.809   2.579 -0.2440 -0.0970  0.5639
  175SAPS   O1319892   1.836   4.836   2.452 -0.3361 -0.2380  0.1068
  175SAPS   O1419893   1.696   4.927   2.646 -0.0905 -0.2400 -0.0500
  175SAPS   O1219894   1.640   4.708   2.542  0.4344 -0.2570 -0.1194
  175SAPS   O1119895   1.847   4.737   2.678 -0.5818  0.1695 -0.1192
  175SAPS    C119896   1.799   4.661   2.791  0.4894 -0.1953  0.7958
  175SAPS    HA19897   1.695   4.624   2.779  0.3596 -0.2684  2.0714
  175SAPS    HB19898   1.858   4.567   2.801  0.5153 -0.3039 -0.2104
  175SAPS    C219899   1.810   4.739   2.927 -0.0885  0.7456 -0.2410
  175SAPS    HS19900   1.758   4.679   3.005 -1.4644  0.2971 -1.4452
  175SAPS   O2119901   1.754   4.870   2.908 -0.2553  0.0483  0.1491
  175SAPS   C2119902   1.622   4.876   2.932  0.3165 -0.0770 -1.2461
  175SAPS   O2219903   1.559   4.776   2.959 -0.6305  0.0055 -0.5312
  175SAPS   C2219904   1.572   5.027   2.950  0.0066  0.4824 -0.4212
  175SAPS   H2R19905   1.573   5.073   2.849 -0.3717  2.7806  0.5636
  175SAPS   H2S19906   1.469   5.014   2.988  0.4544 -1.0223  0.3629
  175SAPS    C319907   1.955   4.740   2.978  0.0042 -0.3552 -0.1572
  175SAPS    HX19908   2.028   4.767   2.899 -1.4151 -2.4797 -2.3248
  175SAPS    HY19909   1.979   4.645   3.031  0.8173  0.4999  1.0542
  175SAPS   O3119910   1.957   4.833   3.092 -0.5392  0.0572 -0.0752
  175SAPS   C3119911   1.983   4.956   3.073 -0.3333 -0.3508  0.4511
  175SAPS   O3219912   2.029   5.005   2.967  0.1492 -0.1429  0.0329
  175SAPS   C3219913   1.963   5.033   3.204  0.0145  0.2438  0.2995
  175SAPS   H2X19914   1.881   4.980   3.258  0.4869 -1.0420 -0.2117
  175SAPS   H2Y19915   1.921   5.132   3.174  1.9275  0.2072 -2.9755
  175SAPS   C2319916   1.647   5.091   3.063 -0.4407  0.2056 -0.2010
  175SAPS   H3R19917   1.747   5.107   3.017  0.4407 -0.7090  1.3380
  175SAPS   H3S19918   1.654   5.013   3.142  5.0634  0.9659  0.4291
  175SAPS   C2419919   1.572   5.219   3.113 -0.0826  0.7442 -0.7248
  175SAPS   H4R19920   1.467   5.195   3.139  0.3899 -1.5798 -0.7720
  175SAPS   H4S19921   1.570   5.283   3.022 -2.9548 -1.4466 -2.3974
  175SAPS   C2519922   1.643   5.283   3.234  0.2978  0.0358  0.8368
  175SAPS   H5R19923   1.731   5.343   3.205 -0.3570  0.5623 -0.1202
  175SAPS   C2619924   1.583   5.308   3.356 -0.2964 -0.8174  0.6662
  175SAPS   H6R19925   1.652   5.346   3.433  1.4181  0.5905 -1.4308
  175SAPS   C2719926   1.465   5.252   3.419  0.2986  0.3875 -0.0868
  175SAPS   H7R19927   1.392   5.218   3.343 -0.8554 -0.8117  1.5136
  175SAPS   H7S19928   1.421   5.339   3.472  1.6073  1.2294 -0.3190
  175SAPS   C2819929   1.503   5.144   3.519  0.8259 -0.5801 -0.0337
  175SAPS   H8R19930   1.570   5.065   3.482  2.5869  1.8363 -2.4022
  175SAPS   C2919931   1.472   5.147   3.646  0.4437  0.5075 -0.3776
  175SAPS   H9R19932   1.505   5.063   3.708 -1.8973  0.2328  0.6170
  175SAPS  C21019933   1.388   5.257   3.712 -0.0459 -0.6955 -0.2544
  175SAPS  H10R19934   1.340   5.210   3.800 -1.5961  1.2118 -0.0329
  175SAPS  H10S19935   1.309   5.294   3.644 -1.3310  0.1767  1.6376
  175SAPS  C21119936   1.486   5.364   3.757  0.2519  0.1420  0.8034
  175SAPS  H11R19937   1.568   5.395   3.690 -0.1699 -1.5603 -0.5828
  175SAPS  C21219938   1.462   5.427   3.876  0.4982 -0.0873  0.2798
  175SAPS  H12R19939   1.522   5.509   3.918 -0.4732  0.5714  0.4154
  175SAPS  C21319940   1.348   5.409   3.970 -0.0615  0.1717 -0.3697
  175SAPS  H13R19941   1.262   5.356   3.924  0.5735 -0.3065 -1.0320
  175SAPS  H13S19942   1.317   5.512   4.000  3.5008  1.3982 -0.4448
  175SAPS  C21419943   1.403   5.334   4.084 -0.1006  0.3259  1.1737
  175SAPS  H14R19944   1.435   5.231   4.063 -1.6373  0.3900 -2.1356
  175SAPS  C21519945   1.417   5.380   4.206 -0.4537  0.3062 -0.4249
  175SAPS  H15R19946   1.453   5.326   4.295 -0.5542  1.5112  0.3742
  175SAPS  C21619947   1.381   5.522   4.244  0.3813 -0.2053  0.4029
  175SAPS  H16R19948   1.409   5.602   4.172 -1.7082 -1.5558 -2.0778
  175SAPS  H16S19949   1.426   5.539   4.344 -1.5162 -0.7902  1.3956
  175SAPS  C21719950   1.223   5.544   4.263 -0.2397 -0.1456 -0.3092
  175SAPS  H17R19951   1.168   5.524   4.168  0.6559 -0.4742 -0.7746
  175SAPS  H17S19952   1.193   5.645   4.296  0.0488  0.5704 -2.1172
  175SAPS  C21819953   1.163   5.449   4.371  0.5521 -0.5397  1.0566
  175SAPS  H18R19954   1.224   5.463   4.463 -0.0666  0.9482  1.2646
  175SAPS  H18S19955   1.175   5.348   4.325 -0.2802  0.7193 -2.1968
  175SAPS  C21919956   1.020   5.485   4.413  0.1824  0.0932  0.0840
  175SAPS  H19R19957   0.938   5.452   4.346  0.6877  2.5829 -1.9004
  175SAPS  H19S19958   1.025   5.595   4.425 -0.4072  0.0378  0.9876
  175SAPS  C22019959   0.993   5.422   4.553  0.0318  0.0459  0.0279
  175SAPS  H20R19960   0.982   5.312   4.546  0.3580  0.0990 -2.2507
  175SAPS  H20S19961   0.889   5.451   4.578 -0.3585  0.1650 -1.5843
  175SAPS  H20T19962   1.060   5.453   4.636 -0.5693 -0.7151  0.8091
  175SAPS   C3319963   2.090   5.054   3.283 -0.5149 -0.0642 -0.3517
  175SAPS   H3X19964   2.078   5.112   3.377  0.7018 -1.9623  1.0346
  175SAPS   H3Y19965   2.180   5.090   3.229 -0.1228  0.4986  0.6446
  175SAPS   C3419966   2.126   4.917   3.346  0.0092 -0.1642  0.0270
  175SAPS   H4X19967   2.156   4.843   3.268 -1.9398 -0.1570 -0.7630
  175SAPS   H4Y19968   2.037   4.877   3.399  0.4753 -1.1949  0.0698
  175SAPS   C3519969   2.238   4.926   3.451 -1.0174 -0.5746  0.4528
  175SAPS   H5X19970   2.186   4.966   3.540  1.8126  3.1663  0.6804
  175SAPS   H5Y19971   2.314   4.997   3.412 -1.7896  0.1666  0.2584
  175SAPS   C3619972   2.313   4.796   3.472 -0.3897  0.2641  0.1314
  175SAPS   H6X19973   2.384   4.781   3.388 -1.0418  0.6657 -0.5067
  175SAPS   H6Y19974   2.232   4.721   3.462 -0.1938  0.0254  0.3234
  175SAPS   C3719975   2.394   4.781   3.601 -0.2023 -0.0584 -0.1666
  175SAPS   H7X19976   2.466   4.866   3.599  1.0079 -1.0503 -1.5446
  175SAPS   H7Y19977   2.450   4.685   3.592  1.5090  0.7505  1.1911
  175SAPS   C3819978   2.314   4.771   3.730 -0.4327 -0.3609 -0.2956
  175SAPS   H8X19979   2.213   4.730   3.710 -0.0465 -0.3953 -2.3767
  175SAPS   H8Y19980   2.303   4.879   3.753  2.1777 -0.0787  0.0222
  175SAPS   C3919981   2.383   4.694   3.845  0.7247  0.3249  0.2308
  175SAPS   H9X19982   2.483   4.741   3.853  1.5739 -1.6592  4.2164
  175SAPS   H9Y19983   2.393   4.589   3.811  0.2851  0.1981  0.4761
  175SAPS  C31019984   2.311   4.680   3.977  0.3424 -0.5436 -0.4147
  175SAPS  H10X19985   2.298   4.784   4.014  2.6300 -0.4295  0.1836
  175SAPS  H10Y19986   2.380   4.630   4.048  0.6592 -0.2988 -0.5526
  175SAPS  C31119987   2.176   4.603   3.978 -0.0460 -0.1417 -0.5150
  175SAPS  H11X19988   2.183   4.499   3.940  0.0505  0.3906 -2.0129
  175SAPS  H11Y19989   2.102   4.649   3.909 -1.1770  0.5858  1.1132
  175SAPS  C31219990   2.113   4.615   4.116 -0.5655  0.4081  0.3865
  175SAPS  H12X19991   2.191   4.585   4.189  0.7539  0.6637 -0.8712
  175SAPS  H12Y19992   2.032   4.540   4.109 -0.9771  0.6559  2.0818
  175SAPS  C31319993   2.059   4.754   4.151 -0.3253  0.7088  0.4264
  175SAPS  H13X19994   1.985   4.771   4.070 -0.6783 -0.2139  0.5439
  175SAPS  H13Y19995   2.133   4.835   4.137  1.2725 -0.7659 -0.0681
  175SAPS  C31419996   1.999   4.769   4.296  0.6805  0.6486 -0.5642
  175SAPS  H14X19997   1.913   4.701   4.309  0.0164  1.6868  0.6833
  175SAPS  H14Y19998   1.960   4.871   4.317  0.8045  0.3694  1.1796
  175SAPS  C31519999   2.099   4.726   4.410 -0.5672  0.4459 -0.7272
  175SAPS  H15X20000   2.116   4.616   4.410 -2.0977  0.1643  0.8361
  175SAPS  H15Y20001   2.059   4.758   4.509  1.2836 -0.9949  0.5614
  175SAPS  C31620002   2.231   4.798   4.405 -0.3990  0.1881 -0.3930
  175SAPS  H16X20003   2.217   4.906   4.429  1.0733 -0.0138  1.6009
  175SAPS  H16Y20004   2.276   4.792   4.304 -1.9225 -0.0286 -1.0949
  175SAPS  C31720005   2.343   4.746   4.505  0.4469  0.6800  0.6719
  175SAPS  H17X20006   2.308   4.726   4.609  0.4799  0.8215  0.7097
  175SAPS  H17Y20007   2.430   4.814   4.505 -0.6637  2.1725 -0.5729
  175SAPS  C31820008   2.400   4.606   4.448 -0.8320 -0.2599 -0.6895
  175SAPS  H18X20009   2.339   4.514   4.459 -0.3907 -0.6597 -1.4551
  175SAPS  H18Y20010   2.498   4.586   4.496  0.1183  1.8428 -1.6238
  175SAPS  H18Z20011   2.423   4.618   4.340 -0.2079  0.2474 -0.5083
  176SAPS     N20012   1.800   3.813   2.564 -0.5951 -0.3806  0.1932
  176SAPS   HN120013   1.747   3.902   2.574  1.8960  1.0885  0.9992
  176SAPS   HN220014   1.740   3.731   2.540  0.0094 -0.9500  0.5703
  176SAPS   HN320015   1.833   3.791   2.660 -0.7331 -0.3371  0.2506
  176SAPS   C1220016   1.917   3.826   2.467 -0.3331 -0.4475 -0.2038
  176SAPS  H12A20017   1.962   3.727   2.463 -1.5865 -1.0262 -0.2951
  176SAPS   C1320018   1.875   3.858   2.321  0.3877 -0.0586  0.0774
  176SAPS  O13A20019   1.753   3.851   2.295 -0.3198  0.1311  0.2595
  176SAPS  O13B20020   1.963   3.873   2.232  0.9478  0.1541 -0.6807
  176SAPS   C1120021   2.034   3.916   2.521 -0.2546 -0.1519 -0.2735
  176SAPS  H11A20022   2.005   4.023   2.529 -0.8476 -0.3182 -0.1832
  176SAPS  H11B20023   2.119   3.915   2.449  0.1664 -0.3981  0.2196
  176SAPS     P20024   2.218   3.906   2.706  0.0713 -0.0980 -0.1904
  176SAPS   O1320025   2.317   3.815   2.638 -0.7930  0.4141 -0.5170
  176SAPS   O1420026   2.242   4.053   2.699  0.0723  0.6439  0.2060
  176SAPS   O1220027   2.073   3.874   2.649 -0.3031  0.1452 -0.6523
  176SAPS   O1120028   2.198   3.859   2.854  0.4028 -0.0508 -0.2976
  176SAPS    C120029   2.148   3.727   2.897 -0.2929  0.1933  0.3038
  176SAPS    HA20030   2.055   3.729   2.957 -1.4467 -0.9825 -1.3522
  176SAPS    HB20031   2.103   3.666   2.816 -0.7983 -3.1192  2.8658
  176SAPS    C220032   2.252   3.638   2.969  0.1467 -0.0624 -0.2070
  176SAPS    HS20033   2.211   3.535   2.968 -1.7114  0.6353  0.0924
  176SAPS   O2120034   2.278   3.689   3.100 -0.1165  0.6734  0.4078
  176SAPS   C2120035   2.177   3.676   3.187 -0.1812 -0.4280 -0.1327
  176SAPS   O2220036   2.086   3.595   3.177  0.1333 -0.4718 -0.1017
  176SAPS   C2220037   2.199   3.763   3.302 -0.6400 -0.0751 -0.5842
  176SAPS   H2R20038   2.293   3.735   3.355  0.4929  2.2841 -1.2170
  176SAPS   H2S20039   2.226   3.860   3.256  1.1737  0.3156  1.1683
  176SAPS    C320040   2.393   3.636   2.900  0.8164  0.0663 -0.0947
  176SAPS    HX20041   2.437   3.737   2.910 -2.2266  1.5280 -0.3379
  176SAPS    HY20042   2.384   3.603   2.795  3.2165 -1.5829  0.1278
  176SAPS   O3120043   2.481   3.542   2.963 -0.5795 -0.1897  0.0667
  176SAPS   C3120044   2.464   3.408   2.951  0.5864 -0.0119 -0.6096
  176SAPS   O3220045   2.385   3.360   2.873 -0.2164  0.3342 -0.0117
  176SAPS   C3220046   2.552   3.331   3.045 -1.0377 -0.1115 -0.3206
  176SAPS   H2X20047   2.604   3.403   3.111  0.9931  2.0077 -3.9077
  176SAPS   H2Y20048   2.636   3.290   2.984 -0.1479  1.0840  0.0696
  176SAPS   C2320049   2.074   3.783   3.400 -0.4463  0.8224  0.1080
  176SAPS   H3R20050   2.072   3.686   3.456  2.3671  1.4849  1.5488
  176SAPS   H3S20051   1.990   3.807   3.331 -0.5800  0.1436  0.0236
  176SAPS   C2420052   2.078   3.899   3.502 -0.2840  0.4490 -0.1917
  176SAPS   H4R20053   1.974   3.890   3.541 -0.8819 -1.3164 -2.0212
  176SAPS   H4S20054   2.085   3.990   3.438 -0.0531 -0.5776 -1.6644
  176SAPS   C2520055   2.190   3.862   3.595  0.0431  0.4120  0.4750
  176SAPS   H5R20056   2.289   3.895   3.561  0.1082  0.1794  0.4403
  176SAPS   C2620057   2.169   3.813   3.722 -0.0449 -0.5120  0.2458
  176SAPS   H6R20058   2.256   3.805   3.788 -0.3829  1.7641  1.0223
  176SAPS   C2720059   2.042   3.789   3.798  0.2483  0.2885  0.1727
  176SAPS   H7R20060   1.958   3.803   3.727  0.8850 -0.6301 -0.8041
  176SAPS   H7S20061   2.031   3.870   3.873 -1.1258  1.2594 -1.0278
  176SAPS   C2820062   2.041   3.651   3.851  0.2796  0.1305  0.7582
  176SAPS   H8R20063   2.045   3.577   3.770 -1.0491  0.7526  0.0965
  176SAPS   C2920064   2.021   3.607   3.972  0.9364 -0.5366 -0.4199
  176SAPS   H9R20065   2.019   3.499   3.991 -0.1232 -0.2467  1.4090
  176SAPS  C21020066   1.990   3.693   4.094  1.0019 -0.0509 -0.3345
  176SAPS  H10R20067   2.066   3.772   4.114  2.6586 -1.3855 -1.1629
  176SAPS  H10S20068   2.004   3.628   4.183  4.1484 -0.9286 -1.3780
  176SAPS  C21120069   1.850   3.747   4.096  0.5604 -0.0577 -0.2166
  176SAPS  H11R20070   1.802   3.775   4.001  0.6544  1.3200  0.1252
  176SAPS  C21220071   1.782   3.794   4.200 -1.0093 -0.2692  0.2134
  176SAPS  H12R20072   1.675   3.818   4.188 -0.5808  1.5249 -0.2463
  176SAPS  C21320073   1.841   3.797   4.341  0.2364 -0.0788  0.3494
  176SAPS  H13R20074   1.933   3.859   4.333 -0.4804  0.8685 -1.0777
  176SAPS  H13S20075   1.866   3.691   4.362 -2.0605 -0.9359 -0.8262
  176SAPS  C21420076   1.759   3.845   4.462  0.4031  0.1321  0.5369
  176SAPS  H14R20077   1.656   3.880   4.444  0.6756  0.2645 -0.8973
  176SAPS  C21520078   1.793   3.839   4.587 -0.5061  0.5398 -0.3235
  176SAPS  H15R20079   1.726   3.878   4.665 -0.0350  0.5590  0.0769
  176SAPS  C21620080   1.923   3.784   4.648 -0.4003  0.0062  1.0892
  176SAPS  H16R20081   1.974   3.716   4.576  2.0349 -1.1160  3.6688
  176SAPS  H16S20082   1.910   3.728   4.743 -0.5727  1.2896  1.8470
  176SAPS  C21720083   2.014   3.904   4.680 -0.4438  0.2080 -0.0889
  176SAPS  H17R20084   1.968   3.968   4.759 -0.1474  2.6041 -1.7566
  176SAPS  H17S20085   2.047   3.967   4.595  1.0270 -1.5112 -0.8521
  176SAPS  C21820086   2.142   3.858   4.756 -0.6880  0.3073 -0.5646
  176SAPS  H18R20087   2.107   3.800   4.843  3.4416 -0.6522  0.6833
  176SAPS  H18S20088   2.206   3.942   4.791  0.1855  0.2218 -1.8807
  176SAPS  C21920089   2.229   3.761   4.672  0.2818 -0.2142 -0.7638
  176SAPS  H19R20090   2.164   3.673   4.653 -3.6377  2.5311 -1.5289
  176SAPS  H19S20091   2.320   3.726   4.725  0.5589  0.5966 -0.6888
  176SAPS  C22020092   2.278   3.824   4.542 -0.2652  0.3875 -0.4601
  176SAPS  H20R20093   2.337   3.767   4.467  0.9572  2.1759 -0.9131
  176SAPS  H20S20094   2.348   3.907   4.566  0.0683  0.0950 -0.4087
  176SAPS  H20T20095   2.193   3.865   4.484  0.4408 -0.6571 -2.3257
  176SAPS   C3320096   2.476   3.218   3.120  0.6039 -0.6233 -0.6808
  176SAPS   H3X20097   2.548   3.138   3.150  0.9708  0.3215  1.0605
  176SAPS   H3Y20098   2.391   3.179   3.059  0.8526 -0.2900 -1.2520
  176SAPS   C3420099   2.426   3.246   3.265  0.3730 -0.0010 -0.1429
  176SAPS   H4X20100   2.505   3.247   3.343 -0.8224 -1.0869  1.1397
  176SAPS   H4Y20101   2.374   3.150   3.285  1.4640 -0.7879 -0.9696
  176SAPS   C3520102   2.342   3.378   3.272  1.0119 -0.5610 -0.2401
  176SAPS   H5X20103   2.257   3.376   3.201 -0.2251 -0.1061  1.1691
  176SAPS   H5Y20104   2.409   3.460   3.237 -0.8239  1.1165  0.0183
  176SAPS   C3620105   2.290   3.421   3.412 -0.5942 -0.1989 -0.9285
  176SAPS   H6X20106   2.285   3.532   3.418  0.2105 -0.2597  2.4928
  176SAPS   H6Y20107   2.369   3.395   3.484  0.6754  2.3161 -1.3203
  176SAPS   C3720108   2.156   3.360   3.440 -0.1943 -0.5018  0.6442
  176SAPS   H7X20109   2.147   3.268   3.379  1.2866 -0.6725  0.6487
  176SAPS   H7Y20110   2.083   3.435   3.401 -0.2251 -0.2997  1.0848
  176SAPS   C3820111   2.129   3.326   3.583 -0.0125  0.3175 -0.3936
  176SAPS   H8X20112   2.024   3.292   3.592 -0.1656  0.9998  0.5106
  176SAPS   H8Y20113   2.138   3.413   3.652 -0.1436  0.5431 -0.6594
  176SAPS   C3920114   2.213   3.208   3.630 -0.7731 -0.4667 -0.1746
  176SAPS   H9X20115   2.318   3.245   3.627 -0.7944 -0.4597 -1.3451
  176SAPS   H9Y20116   2.208   3.130   3.551 -1.8105  0.1011 -0.6944
  176SAPS  C31020117   2.181   3.146   3.771  0.1527  0.6548  0.0687
  176SAPS  H10X20118   2.234   3.048   3.780 -0.5218  0.2347 -0.4383
  176SAPS  H10Y20119   2.071   3.137   3.770  0.2387 -2.3285 -2.9997
  176SAPS  C31120120   2.201   3.237   3.894 -0.6055 -0.8673  0.0590
  176SAPS  H11X20121   2.133   3.324   3.885  0.4835 -0.0909 -0.8972
  176SAPS  H11Y20122   2.305   3.275   3.894  0.2802 -3.1095 -1.3612
  176SAPS  C31220123   2.175   3.153   4.020  0.0055 -1.1327 -0.4006
  176SAPS  H12X20124   2.214   3.212   4.106 -0.2329 -1.0356 -0.3598
  176SAPS  H12Y20125   2.229   3.056   4.013 -0.7547 -1.5713 -0.3039
  176SAPS  C31320126   2.032   3.120   4.051  0.0252  0.1239  0.3766
  176SAPS  H13X20127   1.982   3.065   3.969  1.1353 -0.6806  0.2185
  176SAPS  H13Y20128   1.980   3.215   4.076 -1.3451 -0.2520 -0.9316
  176SAPS  C31420129   2.034   3.038   4.188 -0.8566  0.7134  0.1231
  176SAPS  H14X20130   2.104   3.079   4.264 -0.9938  1.3958 -0.1161
  176SAPS  H14Y20131   2.075   2.942   4.149  0.1022  1.4576 -0.7477
  176SAPS  C31520132   1.894   3.013   4.242  0.6049 -0.6964  0.1486
  176SAPS  H15X20133   1.831   2.981   4.157 -0.7662  2.3941 -0.1386
  176SAPS  H15Y20134   1.855   3.105   4.290  1.8336  0.7603 -1.5290
  176SAPS  C31620135   1.896   2.894   4.340  0.0295 -0.0663 -0.2579
  176SAPS  H16X20136   1.960   2.925   4.425 -0.1089 -0.5796  0.0333
  176SAPS  H16Y20137   1.934   2.801   4.293  0.7617  0.9577 -1.7630
  176SAPS  C31720138   1.753   2.867   4.387 -0.5820  0.0564  0.0952
  176SAPS  H17X20139   1.691   2.841   4.299 -3.1757  1.9608  1.2222
  176SAPS  H17Y20140   1.696   2.957   4.417 -2.9216 -1.5520  0.7787
  176SAPS  C31820141   1.748   2.763   4.498  0.6429  0.6415 -0.1072
  176SAPS  H18X20142   1.800   2.798   4.590 -0.5377  0.5969  0.6046
  176SAPS  H18Y20143   1.791   2.665   4.469 -1.5845  0.2581 -2.4969
  176SAPS  H18Z20144   1.645   2.738   4.530  1.0375  0.1016  0.7847
  177SAPS     N20145   2.321   5.396   2.358  0.3402  0.3122  0.0449
  177SAPS   HN120146   2.286   5.330   2.286 -1.7245 -0.2083  1.4227
  177SAPS   HN220147   2.394   5.341   2.407  1.4278  1.0239 -0.7449
  177SAPS   HN320148   2.254   5.410   2.437 -0.9001 -2.0201 -0.4868
  177SAPS   C1220149   2.387   5.524   2.319 -0.0385 -0.1672 -0.3856
  177SAPS  H12A20150   2.479   5.489   2.275  0.7127  0.2128  0.8386
  177SAPS   C1320151   2.315   5.622   2.214  0.4063  0.8463  0.2908
  177SAPS  O13A20152   2.196   5.593   2.190  0.8111 -0.1961 -0.3882
  177SAPS  O13B20153   2.356   5.734   2.194 -0.2185 -0.1606 -0.2681
  177SAPS   C1120154   2.419   5.607   2.447  0.1554  0.1051  0.0711
  177SAPS  H11A20155   2.323   5.653   2.478 -1.2775 -1.5632 -1.6371
  177SAPS  H11B20156   2.495   5.687   2.440 -0.8404  1.0921  0.1790
  177SAPS     P20157   2.483   5.552   2.700  0.3646  0.1124  0.4444
  177SAPS   O1320158   2.359   5.598   2.767 -0.2292  0.0432  0.1981
  177SAPS   O1420159   2.564   5.449   2.768 -0.7054 -0.1764 -0.4175
  177SAPS   O1220160   2.453   5.512   2.551  0.2484  0.5132  0.3946
  177SAPS   O1120161   2.574   5.683   2.681  0.6020  0.4294  0.1842
  177SAPS    C120162   2.712   5.677   2.660 -0.0272  0.2544  0.1822
  177SAPS    HA20163   2.746   5.573   2.639  0.2822  0.0134  1.7278
  177SAPS    HB20164   2.742   5.735   2.570 -0.1124  1.1370  0.7118
  177SAPS    C220165   2.797   5.747   2.766  0.6814  0.0351 -0.4250
  177SAPS    HS20166   2.905   5.732   2.745  0.9397 -0.8783  1.3809
  177SAPS   O2120167   2.758   5.702   2.898 -0.4874 -0.4492  0.0675
  177SAPS   C2120168   2.805   5.580   2.919  0.0508 -0.6091  0.2796
  177SAPS   O2220169   2.874   5.511   2.842  0.3060 -0.3432 -0.5766
  177SAPS   C2220170   2.758   5.531   3.053  0.8047  0.1606  0.4192
  177SAPS   H2R20171   2.782   5.605   3.133  0.3475 -0.3435  1.0256
  177SAPS   H2S20172   2.648   5.542   3.044  0.8902  2.0968  1.1377
  177SAPS    C320173   2.782   5.905   2.756  0.6779  0.5155 -0.1457
  177SAPS    HX20174   2.678   5.931   2.788  0.9115 -2.1279  3.4578
  177SAPS    HY20175   2.816   5.912   2.651  0.4332  0.2414 -0.2456
  177SAPS   O3120176   2.877   5.978   2.845 -0.5239 -0.1132 -0.0056
  177SAPS   C3120177   2.870   6.113   2.829  0.3844 -0.4626  0.1897
  177SAPS   O3220178   2.802   6.166   2.740 -0.1014 -0.0055  0.2247
  177SAPS   C3220179   2.958   6.186   2.928  0.5713 -0.4161  0.3424
  177SAPS   H2X20180   3.041   6.230   2.870  1.3492 -2.0519  0.1646
  177SAPS   H2Y20181   3.005   6.115   3.000 -1.1539  0.9584  3.0157
  177SAPS   C2320182   2.780   5.376   3.068 -0.3669 -0.0544  0.2956
  177SAPS   H3R20183   2.890   5.364   3.062 -0.2004  1.6631 -0.4743
  177SAPS   H3S20184   2.722   5.323   2.989  2.0270  1.8613 -2.9646
  177SAPS   C2420185   2.724   5.318   3.205 -0.6806 -0.3899  0.0555
  177SAPS   H4R20186   2.740   5.209   3.216 -0.4900 -0.5777 -1.8209
  177SAPS   H4S20187   2.613   5.329   3.201 -0.8725 -1.9753  0.2898
  177SAPS   C2520188   2.769   5.389   3.328  0.2021  0.0629 -0.2398
  177SAPS   H5R20189   2.763   5.499   3.320 -0.7206 -0.0358 -1.2048
  177SAPS   C2620190   2.812   5.326   3.442 -0.2075  0.6731 -0.3125
  177SAPS   H6R20191   2.843   5.397   3.519  1.7666 -0.3350 -0.1191
  177SAPS   C2720192   2.835   5.178   3.474  0.4747 -0.3103  0.1564
  177SAPS   H7R20193   2.766   5.117   3.412 -0.5935 -0.6882  1.6551
  177SAPS   H7S20194   2.798   5.168   3.578  1.2612 -0.1708  0.4561
  177SAPS   C2820195   2.977   5.130   3.441  0.2013 -0.3129  0.0339
  177SAPS   H8R20196   3.020   5.145   3.341  1.3374  2.8964  0.8928
  177SAPS   C2920197   3.058   5.090   3.538 -0.5241  0.8123 -0.7086
  177SAPS   H9R20198   3.150   5.035   3.512 -1.2403 -0.8841  0.1790
  177SAPS  C21020199   3.017   5.075   3.687  0.0227 -0.1617 -0.0294
  177SAPS  H10R20200   2.914   5.038   3.708 -0.8922  0.6827 -2.6694
  177SAPS  H10S20201   3.012   5.180   3.723  0.1015  0.0708 -0.6915
  177SAPS  C21120202   3.120   4.994   3.765 -0.2297  0.6776  0.3839
  177SAPS  H11R20203   3.207   4.959   3.706 -2.4438  0.9442 -3.3905
  177SAPS  C21220204   3.127   4.979   3.899 -0.2259 -0.2570  0.1419
  177SAPS  H12R20205   3.209   4.922   3.946 -2.5120 -1.8863  2.4500
  177SAPS  C21320206   3.038   5.038   4.002 -0.3891  0.0033  0.7752
  177SAPS  H13R20207   2.973   5.112   3.951  1.7068  1.1810 -0.3027
  177SAPS  H13S20208   3.098   5.093   4.078 -1.9635 -1.4618  3.2296
  177SAPS  C21420209   2.953   4.933   4.068 -0.4340 -0.3133 -0.0004
  177SAPS  H14R20210   2.865   4.905   4.008 -0.1305 -2.2030  0.3809
  177SAPS  C21520211   2.970   4.877   4.191  0.8565 -0.0680  0.0266
  177SAPS  H15R20212   2.901   4.793   4.212 -0.3646 -0.2980 -4.0297
  177SAPS  C21620213   3.077   4.894   4.285 -0.6571  0.1462  0.4829
  177SAPS  H16R20214   3.047   4.966   4.364  0.3563  0.3495  0.7022
  177SAPS  H16S20215   3.168   4.942   4.244  1.2386 -2.6296  1.1014
  177SAPS  C21720216   3.102   4.760   4.354  0.3953  1.1405 -0.4120
  177SAPS  H17R20217   3.114   4.681   4.276 -3.9830  1.8352 -2.0781
  177SAPS  H17S20218   3.007   4.724   4.398  0.9232 -2.7519 -2.0141
  177SAPS  C21820219   3.206   4.754   4.461  0.1036  0.5760 -0.0266
  177SAPS  H18R20220   3.199   4.843   4.527  0.2438 -0.6593  1.7217
  177SAPS  H18S20221   3.309   4.758   4.418 -0.6196 -0.0943 -1.9086
  177SAPS  C21920222   3.191   4.635   4.554 -0.2070 -0.4577  0.1190
  177SAPS  H19R20223   3.089   4.635   4.598  0.1882 -2.0608  1.1163
  177SAPS  H19S20224   3.254   4.667   4.640 -1.2629  1.5293  0.2158
  177SAPS  C22020225   3.234   4.503   4.496  0.2522  0.3187 -0.3263
  177SAPS  H20R20226   3.210   4.422   4.569 -0.1968  1.1526  0.4671
  177SAPS  H20S20227   3.343   4.499   4.478 -0.0436  1.3119 -2.8082
  177SAPS  H20T20228   3.189   4.479   4.397  0.3073 -0.4965 -0.1604
  177SAPS   C3320229   2.897   6.288   3.021  0.2635 -0.5218 -0.6484
  177SAPS   H3X20230   2.825   6.356   2.970 -0.3068 -0.9742 -0.4419
  177SAPS   H3Y20231   2.974   6.354   3.067  0.2074  0.2299 -1.6080
  177SAPS   C3420232   2.825   6.232   3.139  0.5435 -0.4286  0.0174
  177SAPS   H4X20233   2.909   6.214   3.210  2.5883 -0.9959 -2.4037
  177SAPS   H4Y20234   2.778   6.140   3.100 -0.5318  0.3546 -0.6143
  177SAPS   C3520235   2.721   6.328   3.209  0.4429  0.0433  0.4819
  177SAPS   H5X20236   2.647   6.373   3.139 -0.3819  1.6605  2.3147
  177SAPS   H5Y20237   2.777   6.417   3.243  0.1612  0.0984  0.8064
  177SAPS   C3620238   2.643   6.262   3.322  0.3567 -0.0434  0.5473
  177SAPS   H6X20239   2.569   6.186   3.286 -2.4230  1.5173  2.5467
  177SAPS   H6Y20240   2.576   6.341   3.363 -1.4625 -0.8713 -0.6794
  177SAPS   C3720241   2.724   6.209   3.441  0.3570  0.3380 -0.0186
  177SAPS   H7X20242   2.803   6.281   3.472 -0.7550  1.5439  0.0567
  177SAPS   H7Y20243   2.780   6.118   3.411  1.4243  1.1317 -0.4875
  177SAPS   C3820244   2.637   6.192   3.573 -0.5963  0.2077  0.6532
  177SAPS   H8X20245   2.547   6.129   3.557  0.0424 -0.4503 -0.5125
  177SAPS   H8Y20246   2.597   6.292   3.598  0.2861  0.9905 -0.8957
  177SAPS   C3920247   2.722   6.139   3.684 -0.0326 -0.9006  0.7523
  177SAPS   H9X20248   2.812   6.204   3.692 -0.6768  0.1662 -0.3216
  177SAPS   H9Y20249   2.746   6.034   3.661  0.6611 -0.7450  0.7502
  177SAPS  C31020250   2.657   6.148   3.820  0.1208 -0.3087  0.0095
  177SAPS  H10X20251   2.554   6.105   3.812 -0.3806  0.6143  1.1747
  177SAPS  H10Y20252   2.648   6.247   3.870  0.1429  0.2266 -0.9983
  177SAPS  C31120253   2.749   6.071   3.918  0.3170  1.0430 -0.8306
  177SAPS  H11X20254   2.823   6.125   3.980 -0.7540  0.8795  0.6449
  177SAPS  H11Y20255   2.814   5.993   3.872  0.2644  0.8323 -0.5470
  177SAPS  C31220256   2.655   5.983   4.015 -0.1522 -0.2897 -0.0797
  177SAPS  H12X20257   2.572   6.041   4.061  0.0508 -0.1589  0.1266
  177SAPS  H12Y20258   2.723   5.950   4.097 -1.7494  0.3150  1.5619
  177SAPS  C31320259   2.597   5.857   3.951  0.4741  0.4736  0.7085
  177SAPS  H13X20260   2.676   5.815   3.885  0.3256 -0.4790  1.1249
  177SAPS  H13Y20261   2.504   5.877   3.895  0.4560 -1.3638  0.0329
  177SAPS  C31420262   2.554   5.752   4.057 -0.9773  0.2109 -0.5138
  177SAPS  H14X20263   2.640   5.728   4.123 -1.4848  0.0305  0.0928
  177SAPS  H14Y20264   2.531   5.659   4.001  0.5847 -0.7358  0.3381
  177SAPS  C31520265   2.442   5.794   4.157  0.2429 -0.0474 -0.2215
  177SAPS  H15X20266   2.352   5.814   4.095 -0.5033  1.6555  1.3318
  177SAPS  H15Y20267   2.452   5.891   4.210 -1.5640 -0.9066  1.8416
  177SAPS  C31620268   2.412   5.682   4.259  0.0189  0.2256 -0.2492
  177SAPS  H16X20269   2.324   5.715   4.317  0.1265 -0.4184  0.2871
  177SAPS  H16Y20270   2.493   5.670   4.335 -0.9803  1.9211  1.1478
  177SAPS  C31720271   2.382   5.542   4.196  0.1349  0.1232  0.1790
  177SAPS  H17X20272   2.474   5.504   4.146 -0.2226  0.5235 -0.8153
  177SAPS  H17Y20273   2.301   5.563   4.124  0.3958 -0.6322 -0.3561
  177SAPS  C31820274   2.347   5.451   4.312 -0.4217  0.5171 -0.6238
  177SAPS  H18X20275   2.427   5.458   4.389 -1.0122 -0.5955  0.1187
  177SAPS  H18Y20276   2.324   5.346   4.286  1.5941  0.5640 -2.9337
  177SAPS  H18Z20277   2.256   5.499   4.355  0.4289  0.1202  1.8063
  178SAPS     N20278   4.163   1.944   2.445  0.8073  0.1086  0.1644
  178SAPS   HN120279   4.209   1.967   2.354 -1.7984  2.6426 -0.6764
  178SAPS   HN220280   4.062   1.920   2.435  0.7856  0.9248 -2.1549
  178SAPS   HN320281   4.162   2.026   2.509 -2.6590  0.2665  0.0913
  178SAPS   C1220282   4.238   1.840   2.525  0.7242  0.0837  0.7600
  178SAPS  H12A20283   4.187   1.828   2.620  0.5035 -0.3002  0.5920
  178SAPS   C1320284   4.242   1.701   2.458  0.5581  0.6774 -0.3663
  178SAPS  O13A20285   4.183   1.684   2.343 -0.6365 -0.3071 -0.3617
  178SAPS  O13B20286   4.310   1.611   2.515 -0.2816 -0.3641 -0.0770
  178SAPS   C1120287   4.382   1.891   2.561  0.6465 -0.7757  0.6044
  178SAPS  H11A20288   4.434   1.916   2.466 -1.3491 -0.0069 -0.3368
  178SAPS  H11B20289   4.443   1.816   2.616  0.5935  0.0776  1.8589
  178SAPS     P20290   4.374   2.024   2.789  0.0321 -0.0661 -0.3906
  178SAPS   O1320291   4.509   2.012   2.844 -0.0436 -0.6267  0.8483
  178SAPS   O1420292   4.311   2.155   2.804 -0.3432  0.0761 -0.4769
  178SAPS   O1220293   4.381   2.014   2.632 -0.8271 -0.1209 -0.2804
  178SAPS   O1120294   4.286   1.905   2.831  0.3216 -0.7385 -0.5357
  178SAPS    C120295   4.321   1.771   2.869  0.2670  0.4447  0.3757
  178SAPS    HA20296   4.261   1.711   2.797  2.4838 -2.7155  1.0005
  178SAPS    HB20297   4.426   1.744   2.848  0.6246 -1.0447  3.5436
  178SAPS    C220298   4.290   1.735   3.015  0.0969 -0.0849  0.0538
  178SAPS    HS20299   4.311   1.630   3.046  0.0290  0.0390  0.5356
  178SAPS   O2120300   4.157   1.769   3.066 -0.0018 -1.3457  0.0685
  178SAPS   C2120301   4.060   1.693   3.019 -0.2650  0.4002 -0.7797
  178SAPS   O2220302   4.080   1.593   2.959 -0.2092  0.3588  0.2866
  178SAPS   C2220303   3.926   1.754   3.066 -0.1622  0.0557 -0.2197
  178SAPS   H2R20304   3.947   1.843   3.129 -0.2613 -0.8605  1.1570
  178SAPS   H2S20305   3.874   1.795   2.977  2.7122  2.8895 -0.7398
  178SAPS    C320306   4.391   1.820   3.108 -0.5694 -0.0455 -0.0733
  178SAPS    HX20307   4.356   1.924   3.119  2.1225  0.8843  0.3575
  178SAPS    HY20308   4.489   1.834   3.059 -0.8639  0.1511 -0.6192
  178SAPS   O3120309   4.404   1.760   3.243 -0.5046  0.4527 -0.5690
  178SAPS   C3120310   4.507   1.679   3.263  0.2247  0.5627  0.7128
  178SAPS   O3220311   4.574   1.628   3.171 -0.1222 -0.2533 -0.7760
  178SAPS   C3220312   4.526   1.666   3.406  0.7701 -0.3256 -0.3690
  178SAPS   H2X20313   4.435   1.615   3.444 -1.1380  2.2227 -1.2431
  178SAPS   H2Y20314   4.535   1.771   3.444  0.5499 -0.5884  0.4368
  178SAPS   C2320315   3.837   1.657   3.135 -0.0225 -0.0867 -0.6055
  178SAPS   H3R20316   3.823   1.573   3.065 -0.4384 -1.7480  1.3682
  178SAPS   H3S20317   3.738   1.707   3.141  0.3499  1.1856 -3.4479
  178SAPS   C2420318   3.882   1.616   3.281  0.2141  0.4888 -0.4103
  178SAPS   H4R20319   3.989   1.588   3.270  0.4032  0.0013  2.0505
  178SAPS   H4S20320   3.831   1.523   3.314 -0.5855  1.2520  0.5380
  178SAPS   C2520321   3.869   1.729   3.383  0.1553 -0.3163  0.0872
  178SAPS   H5R20322   3.769   1.760   3.417  0.2408 -0.2437  0.2725
  178SAPS   C2620323   3.971   1.800   3.430  0.1648 -0.2462 -0.2173
  178SAPS   H6R20324   3.945   1.886   3.494  1.4063 -1.3396  1.8589
  178SAPS   C2720325   4.120   1.788   3.419  0.2175  0.4343  0.8645
  178SAPS   H7R20326   4.171   1.885   3.401  0.3981  0.0494 -0.8616
  178SAPS   H7S20327   4.155   1.726   3.335  0.6497  1.5533  0.2019
  178SAPS   C2820328   4.176   1.724   3.547 -0.9348  0.4139  0.7507
  178SAPS   H8R20329   4.192   1.617   3.529  0.7617  0.5490  1.3116
  178SAPS   C2920330   4.195   1.778   3.665 -0.1638  0.5913  0.1722
  178SAPS   H9R20331   4.242   1.722   3.747 -0.1973  1.5019  0.8342
  178SAPS  C21020332   4.167   1.921   3.698 -0.1956  0.5023  0.6327
  178SAPS  H10R20333   4.139   1.921   3.806  0.3986 -1.6638  0.8325
  178SAPS  H10S20334   4.068   1.951   3.658 -0.7767 -2.8988 -0.7952
  178SAPS  C21120335   4.291   2.004   3.668  0.0972 -0.0375 -0.7451
  178SAPS  H11R20336   4.314   2.020   3.561  0.0946 -1.2343 -0.9353
  178SAPS  C21220337   4.377   2.056   3.750 -0.2386 -0.1745  0.4704
  178SAPS  H12R20338   4.462   2.110   3.705  0.7936 -0.7211  1.6774
  178SAPS  C21320339   4.367   2.066   3.902  0.0843  0.9065 -0.8496
  178SAPS  H13R20340   4.292   1.995   3.942  0.6489  1.3958  1.2007
  178SAPS  H13S20341   4.341   2.167   3.941  0.6678  1.2058 -1.2260
  178SAPS  C21420342   4.490   2.023   3.971  0.4945  0.4739 -0.5491
  178SAPS  H14R20343   4.546   1.939   3.928  1.5230  0.8942 -0.0859
  178SAPS  C21520344   4.534   2.068   4.090 -0.3984 -0.3934 -0.3191
  178SAPS  H15R20345   4.621   2.017   4.133 -2.6070 -1.9596  2.7142
  178SAPS  C21620346   4.445   2.151   4.181  0.1236  0.3886 -0.2449
  178SAPS  H16R20347   4.338   2.119   4.184 -0.0415  1.0031  2.3676
  178SAPS  H16S20348   4.445   2.257   4.149  0.8015  0.2351 -0.7711
  178SAPS  C21720349   4.485   2.150   4.335  0.2328 -0.2208  0.2005
  178SAPS  H17R20350   4.593   2.138   4.357  0.4154  2.1865  0.8716
  178SAPS  H17S20351   4.431   2.064   4.381  0.2169 -0.3147  0.0073
  178SAPS  C21820352   4.437   2.277   4.398  0.4418  0.2851 -0.2112
  178SAPS  H18R20353   4.326   2.279   4.405  0.4182  2.2691 -0.4970
  178SAPS  H18S20354   4.473   2.359   4.332 -0.7409 -0.1228 -1.4124
  178SAPS  C21920355   4.490   2.296   4.539  0.0945 -0.6074 -0.0648
  178SAPS  H19R20356   4.466   2.401   4.569 -0.6484 -0.8963  0.3822
  178SAPS  H19S20357   4.601   2.293   4.545  0.1990  1.6395  0.1974
  178SAPS  C22020358   4.439   2.206   4.661  0.4738  0.4240 -0.1960
  178SAPS  H20R20359   4.329   2.187   4.660  0.5697 -0.1415 -0.1682
  178SAPS  H20S20360   4.457   2.251   4.760 -2.1239 -0.6341  0.8504
  178SAPS  H20T20361   4.494   2.110   4.669  1.4784  0.9497 -0.6155
  178SAPS   C3320362   4.657   1.591   3.447  0.1184 -0.2815 -0.0470
  178SAPS   H3X20363   4.744   1.629   3.391 -0.7468  2.0444  0.0918
  178SAPS   H3Y20364   4.651   1.483   3.420 -0.6326  0.0649 -1.3753
  178SAPS   C3420365   4.691   1.593   3.600  0.2334  0.1881 -0.2151
  178SAPS   H4X20366   4.634   1.675   3.649  0.0174  0.2416 -0.5582
  178SAPS   H4Y20367   4.798   1.620   3.612  0.5749 -0.7071 -1.1427
  178SAPS   C3520368   4.649   1.468   3.675  0.1383  0.0993 -0.2888
  178SAPS   H5X20369   4.729   1.394   3.651  0.8227  0.3726  1.0429
  178SAPS   H5Y20370   4.547   1.437   3.646 -1.2228  1.0086  3.0791
  178SAPS   C3620371   4.644   1.487   3.832  0.1119  0.7935 -0.0026
  178SAPS   H6X20372   4.741   1.531   3.865  0.4239 -0.6660  1.1352
  178SAPS   H6Y20373   4.626   1.384   3.867 -4.0852  1.1812 -0.4673
  178SAPS   C3720374   4.514   1.561   3.887 -0.9771 -0.2210  0.0005
  178SAPS   H7X20375   4.420   1.506   3.872 -0.4744 -0.8063 -1.1169
  178SAPS   H7Y20376   4.509   1.648   3.818  1.1620  0.5398  0.7107
  178SAPS   C3820377   4.508   1.623   4.028  0.0016  0.2247 -0.5183
  178SAPS   H8X20378   4.576   1.711   4.030  1.5028 -0.8658  2.2252
  178SAPS   H8Y20379   4.556   1.543   4.089  0.3372 -1.2429 -2.5535
  178SAPS   C3920380   4.363   1.644   4.076  0.4870 -0.4130 -0.2078
  178SAPS   H9X20381   4.298   1.562   4.039 -3.2884  2.3704 -0.3843
  178SAPS   H9Y20382   4.308   1.725   4.023 -1.0420 -0.7678  0.7447
  178SAPS  C31020383   4.354   1.656   4.231 -0.2691  0.3254 -0.1110
  178SAPS  H10X20384   4.384   1.563   4.284  0.5879 -0.3142 -1.6423
  178SAPS  H10Y20385   4.252   1.667   4.276 -0.0096 -0.5642  0.7135
  178SAPS  C31120386   4.438   1.773   4.295  0.0125 -0.0336 -0.1231
  178SAPS  H11X20387   4.402   1.861   4.238 -4.3085 -2.4268 -1.5252
  178SAPS  H11Y20388   4.547   1.769   4.275 -0.0724  1.9400 -1.2886
  178SAPS  C31220389   4.398   1.790   4.446  0.4431 -0.1368  0.0453
  178SAPS  H12X20390   4.290   1.810   4.463  0.6185 -1.2093  2.9477
  178SAPS  H12Y20391   4.442   1.886   4.478 -0.7329  0.1203  0.9802
  178SAPS  C31320392   4.456   1.674   4.533  0.2454 -0.5181  0.2146
  178SAPS  H13X20393   4.546   1.643   4.474 -0.7044 -0.1472 -1.4982
  178SAPS  H13Y20394   4.371   1.603   4.532 -0.9492  0.8824 -0.8256
  178SAPS  C31420395   4.483   1.697   4.683  0.1489 -0.2599 -0.0507
  178SAPS  H14X20396   4.571   1.765   4.693  2.0709 -2.6185  0.1599
  178SAPS  H14Y20397   4.514   1.600   4.726 -1.3401 -1.0358 -0.6946
  178SAPS  C31520398   4.366   1.770   4.751 -0.7975  0.2612 -0.2663
  178SAPS  H15X20399   4.279   1.702   4.767 -0.1691 -0.6615 -0.7343
  178SAPS  H15Y20400   4.339   1.849   4.678 -1.5867  0.5256  0.2966
  178SAPS  C31620401   4.393   1.832   4.896 -0.1020  0.0865 -0.0144
  178SAPS  H16X20402   4.471   1.911   4.887  0.1862 -0.0338  1.2466
  178SAPS  H16Y20403   4.428   1.748   4.959 -0.4326  0.0480  0.1194
  178SAPS  C31720404   4.270   1.909   4.957  0.1920 -0.1527 -0.6101
  178SAPS  H17X20405   4.286   1.965   5.052 -0.9951 -2.0645  0.7786
  178SAPS  H17Y20406   4.198   1.830   4.986  1.5141 -1.6802 -1.3250
  178SAPS  C31820407   4.199   2.003   4.858 -0.3061  0.5158 -0.3952
  178SAPS  H18X20408   4.173   1.966   4.757 -0.1273  1.0302 -0.6348
  178SAPS  H18Y20409   4.275   2.083   4.839 -1.0028  1.2785 -0.0466
  178SAPS  H18Z20410   4.121   2.067   4.905 -1.5387 -0.8923 -0.4835
  179SAPS     N20411   4.041   1.490   2.212 -0.2323  0.0422  0.4874
  179SAPS   HN120412   4.005   1.407   2.262 -3.4502  0.5281 -0.7474
  179SAPS   HN220413   4.118   1.451   2.154  0.7178  0.2979  1.5415
  179SAPS   HN320414   4.089   1.556   2.276  1.4807  1.2881 -1.9078
  179SAPS   C1220415   3.922   1.550   2.131 -1.0042  0.2100 -0.2102
  179SAPS  H12A20416   3.957   1.648   2.102  1.5130 -0.3781  0.5938
  179SAPS   C1320417   3.874   1.465   2.009  0.6421  0.1008  0.0545
  179SAPS  O13A20418   3.926   1.351   1.986 -0.0700  0.2188  0.7389
  179SAPS  O13B20419   3.802   1.528   1.929 -0.0440 -0.0536  0.3037
  179SAPS   C1120420   3.804   1.576   2.239  0.7252 -0.5394  0.1890
  179SAPS  H11A20421   3.751   1.485   2.275  0.5622  0.0928  1.6301
  179SAPS  H11B20422   3.721   1.627   2.185 -0.1535 -1.0379  1.0175
  179SAPS     P20423   3.810   1.801   2.372  0.1229  0.0480  0.0335
  179SAPS   O1320424   3.916   1.870   2.444  0.5422 -0.3024 -0.4810
  179SAPS   O1420425   3.767   1.859   2.241 -0.1564  0.8895  0.1040
  179SAPS   O1220426   3.852   1.652   2.349 -0.1408  0.1599 -0.1088
  179SAPS   O1120427   3.686   1.796   2.467  0.3396  0.0373 -0.1439
  179SAPS    C120428   3.562   1.733   2.423 -0.4739  0.2549 -0.4462
  179SAPS    HA20429   3.541   1.758   2.317 -1.7675 -0.2881 -0.3286
  179SAPS    HB20430   3.578   1.624   2.436  2.8244  0.7215  0.3480
  179SAPS    C220431   3.441   1.778   2.503  0.6431 -0.0136 -0.5176
  179SAPS    HS20432   3.419   1.884   2.478  2.5283  1.1957  2.4006
  179SAPS   O2120433   3.461   1.772   2.642 -0.5132  0.0003 -0.4333
  179SAPS   C2120434   3.516   1.874   2.701 -0.4322 -0.0070 -0.1140
  179SAPS   O2220435   3.520   1.987   2.664  0.0140  0.2791 -0.3310
  179SAPS   C2220436   3.572   1.823   2.838 -0.1894 -0.3420 -0.8776
  179SAPS   H2R20437   3.486   1.765   2.878 -1.6914  1.9355 -0.5600
  179SAPS   H2S20438   3.661   1.761   2.816 -0.5863 -2.0164  1.7293
  179SAPS    C320439   3.321   1.687   2.463 -0.2110  0.8902  0.3699
  179SAPS    HX20440   3.351   1.581   2.471  0.4184  1.1396  1.4930
  179SAPS    HY20441   3.311   1.713   2.355 -0.7622 -0.6208  0.0322
  179SAPS   O3120442   3.207   1.713   2.540  0.1771  0.3955 -0.0097
  179SAPS   C3120443   3.097   1.655   2.496  0.2435 -0.5108 -0.4285
  179SAPS   O3220444   3.089   1.584   2.397 -0.2718  0.3170 -0.2708
  179SAPS   C3220445   2.981   1.689   2.597 -0.7615 -0.6202 -0.6374
  179SAPS   H2X20446   2.945   1.594   2.642 -1.0729  0.0877  0.6333
  179SAPS   H2Y20447   2.903   1.740   2.537  0.0508  1.0116 -0.3592
  179SAPS   C2320448   3.610   1.947   2.931  0.8188 -0.2461 -0.0524
  179SAPS   H3R20449   3.683   2.011   2.877  0.4875  0.1348 -0.0540
  179SAPS   H3S20450   3.646   1.917   3.031  1.3328 -1.1498 -0.4950
  179SAPS   C2420451   3.482   2.032   2.970  0.2949 -0.0790 -0.6218
  179SAPS   H4R20452   3.425   2.081   2.889  0.9142 -0.8189 -1.5349
  179SAPS   H4S20453   3.531   2.115   3.026  1.9976 -0.0812 -2.0019
  179SAPS   C2520454   3.368   1.957   3.042 -0.1161  0.1097 -0.1874
  179SAPS   H5R20455   3.278   1.930   2.984  0.2323 -0.6869 -0.3857
  179SAPS   C2620456   3.390   1.916   3.171 -0.8710  0.4452 -0.8025
  179SAPS   H6R20457   3.304   1.868   3.219  0.9441 -0.6449  1.5597
  179SAPS   C2720458   3.499   1.941   3.272 -0.5723  0.0062 -0.5136
  179SAPS   H7R20459   3.600   1.948   3.227  0.5920 -0.5862  1.8728
  179SAPS   H7S20460   3.511   1.852   3.337 -0.7462  1.1827  1.1973
  179SAPS   C2820461   3.463   2.058   3.355  0.0287  0.3990  0.0969
  179SAPS   H8R20462   3.382   2.126   3.326 -1.2820 -1.4460 -0.7970
  179SAPS   C2920463   3.532   2.088   3.464  0.4237 -0.1875 -0.2333
  179SAPS   H9R20464   3.478   2.164   3.523 -0.5181  0.6267 -2.0453
  179SAPS  C21020465   3.663   2.032   3.519  0.1419 -0.1947 -0.6870
  179SAPS  H10R20466   3.716   2.121   3.561 -1.6471  1.1009 -1.0659
  179SAPS  H10S20467   3.724   1.985   3.438 -0.8752 -2.5476 -0.1601
  179SAPS  C21120468   3.660   1.922   3.625  0.7498  0.5241  0.3960
  179SAPS  H11R20469   3.631   1.824   3.586  0.6948  0.1739  1.2989
  179SAPS  C21220470   3.676   1.928   3.755 -0.9975  0.2257 -0.4231
  179SAPS  H12R20471   3.669   1.836   3.814  1.5841  0.0176 -0.3260
  179SAPS  C21320472   3.719   2.049   3.832  0.7093 -0.0602  0.6686
  179SAPS  H13R20473   3.662   2.046   3.927 -0.0082  2.3467  0.3634
  179SAPS  H13S20474   3.685   2.141   3.780  0.6433 -0.3265  0.2386
  179SAPS  C21420475   3.862   2.055   3.855  0.0594 -0.4313 -0.5013
  179SAPS  H14R20476   3.922   2.084   3.767  1.0397  2.4404  0.9722
  179SAPS  C21520477   3.918   2.011   3.971 -0.4195 -0.5191  0.0550
  179SAPS  H15R20478   4.026   2.006   3.991 -0.2400  0.8892 -0.4540
  179SAPS  C21620479   3.841   1.964   4.096  0.5773  0.3041  0.3670
  179SAPS  H16R20480   3.874   1.860   4.118  1.0439  0.2300 -0.6303
  179SAPS  H16S20481   3.732   1.946   4.092  0.7085 -0.2469 -1.2002
  179SAPS  C21720482   3.887   2.030   4.220  0.6564 -0.2265 -0.0244
  179SAPS  H17R20483   3.823   2.008   4.307 -0.5561  0.0067 -0.8393
  179SAPS  H17S20484   3.892   2.140   4.202  1.9785 -0.3693 -0.7063
  179SAPS  C21820485   4.024   1.993   4.268 -1.1437 -0.4052  0.5426
  179SAPS  H18R20486   4.090   1.966   4.183 -4.3981 -1.1547 -1.9158
  179SAPS  H18S20487   4.023   1.898   4.325 -2.8579 -0.6495  0.1619
  179SAPS  C21920488   4.082   2.100   4.360 -0.1890 -0.8351 -0.7146
  179SAPS  H19R20489   4.096   2.194   4.302 -0.9104  0.7513  1.5431
  179SAPS  H19S20490   4.181   2.077   4.405 -0.2198  0.7908  0.2741
  179SAPS  C22020491   4.004   2.129   4.489 -0.7732 -0.0275  0.3590
  179SAPS  H20R20492   4.064   2.196   4.554  0.5527 -1.1579  0.3658
  179SAPS  H20S20493   3.962   2.039   4.539 -0.2517 -0.4970 -0.0326
  179SAPS  H20T20494   3.915   2.194   4.476 -0.5195  0.5669  1.4453
  179SAPS   C3320495   3.034   1.791   2.716  0.4552 -0.1580  0.4736
  179SAPS   H3X20496   3.110   1.864   2.681 -0.2016  0.1842 -0.2727
  179SAPS   H3Y20497   3.082   1.725   2.791  0.9535 -3.5084 -2.5056
  179SAPS   C3420498   2.912   1.870   2.772  0.1178  0.3513  0.5449
  179SAPS   H4X20499   2.841   1.785   2.788 -0.0125  0.0836 -1.2519
  179SAPS   H4Y20500   2.875   1.934   2.689  0.9123 -0.1126 -0.1823
  179SAPS   C3520501   2.941   1.949   2.899  0.5274  1.0584  0.7446
  179SAPS   H5X20502   2.869   2.034   2.899  1.2881  1.7083  1.4547
  179SAPS   H5Y20503   3.043   1.992   2.897  1.3335 -0.6868  2.0025
  179SAPS   C3620504   2.925   1.871   3.023  0.0800 -0.3052 -0.5074
  179SAPS   H6X20505   2.984   1.779   3.007  2.1369  0.9432 -0.5367
  179SAPS   H6Y20506   2.820   1.837   3.027 -1.3242  3.5486  1.9139
  179SAPS   C3720507   2.966   1.967   3.136  0.6716  0.8979 -0.3844
  179SAPS   H7X20508   2.886   2.042   3.153  0.3926  0.8217 -1.3430
  179SAPS   H7Y20509   3.053   2.022   3.096  0.1757  1.5717 -0.5439
  179SAPS   C3820510   2.995   1.885   3.260 -0.3776 -0.0880  0.5463
  179SAPS   H8X20511   3.076   1.812   3.237 -0.1389  0.5616 -0.8260
  179SAPS   H8Y20512   2.908   1.822   3.287  0.1819 -0.9936  0.2569
  179SAPS   C3920513   3.045   1.980   3.370 -0.0326 -0.7621  0.0238
  179SAPS   H9X20514   2.972   2.065   3.369 -1.9640 -2.3197 -1.7324
  179SAPS   H9Y20515   3.142   2.024   3.338 -1.2005  2.0821  0.0335
  179SAPS  C31020516   3.066   1.913   3.509  0.2563 -0.0006  0.1809
  179SAPS  H10X20517   3.136   1.834   3.475 -0.1253 -0.1434 -0.2938
  179SAPS  H10Y20518   2.974   1.857   3.536  0.1902 -1.3078 -2.4169
  179SAPS  C31120519   3.140   1.998   3.609  0.1923  0.0107  0.0663
  179SAPS  H11X20520   3.076   2.078   3.652 -1.3033 -0.0243 -1.8966
  179SAPS  H11Y20521   3.230   2.051   3.571 -0.5863  0.8386 -0.6926
  179SAPS  C31220522   3.202   1.920   3.728 -0.1722  0.6337 -0.6627
  179SAPS  H12X20523   3.309   1.893   3.726 -0.2330 -0.5267  3.4919
  179SAPS  H12Y20524   3.145   1.825   3.735 -0.0962  0.5225 -1.4076
  179SAPS  C31320525   3.177   1.995   3.855  0.4509  0.7015 -0.6420
  179SAPS  H13X20526   3.072   2.028   3.850  1.0085  2.4091 -1.9258
  179SAPS  H13Y20527   3.232   2.091   3.857 -0.6492  1.3833 -1.9874
  179SAPS  C31420528   3.226   1.918   3.983  0.6018  0.3518  0.1560
  179SAPS  H14X20529   3.335   1.906   3.963  0.8994  1.9038  0.6984
  179SAPS  H14Y20530   3.170   1.823   3.974  0.9918  0.1988 -0.7000
  179SAPS  C31520531   3.201   1.976   4.118 -0.2518 -0.7568 -0.1833
  179SAPS  H15X20532   3.093   1.988   4.144 -0.4256 -0.8184 -0.8406
  179SAPS  H15Y20533   3.245   2.077   4.124 -1.6810  0.0523 -2.2785
  179SAPS  C31620534   3.281   1.906   4.228 -0.1765  0.5281 -0.5492
  179SAPS  H16X20535   3.390   1.923   4.215  0.1196 -2.1600 -2.2780
  179SAPS  H16Y20536   3.271   1.796   4.220 -0.9398  0.7052 -2.4768
  179SAPS  C31720537   3.249   1.969   4.372 -0.3186 -0.5933 -0.4963
  179SAPS  H17X20538   3.280   2.076   4.375  1.4628 -1.0742 -0.1408
  179SAPS  H17Y20539   3.314   1.908   4.438 -0.2756 -0.1460 -0.1200
  179SAPS  C31820540   3.109   1.963   4.417 -0.4055  0.2158 -0.3810
  179SAPS  H18X20541   3.072   1.861   4.397  0.5198  0.4695 -4.1435
  179SAPS  H18Y20542   3.047   2.032   4.356  1.3994  1.8912 -0.4442
  179SAPS  H18Z20543   3.097   1.994   4.523  0.9481  3.3108 -1.0175
  180SAPS     N20544   4.860   3.597   2.154 -0.1190 -0.0999  0.4662
  180SAPS   HN120545   4.847   3.583   2.052  2.5172 -1.8327  0.3018
  180SAPS   HN220546   4.908   3.514   2.193  2.3585  1.4546  0.9337
  180SAPS   HN320547   4.768   3.601   2.203 -1.5020 -1.7433 -1.7996
  180SAPS   C1220548   4.951   3.723   2.178  0.0804 -0.4178 -0.2481
  180SAPS  H12A20549   5.049   3.707   2.136  1.0085  1.5696  0.9941
  180SAPS   C1320550   4.903   3.859   2.132 -0.2538  0.3202  0.6162
  180SAPS  O13A20551   4.793   3.876   2.067  0.0518 -0.0078  0.0605
  180SAPS  O13B20552   4.993   3.950   2.132  0.3533  0.0018 -0.3564
  180SAPS   C1120553   4.969   3.724   2.336 -0.0202  0.0106 -0.0376
  180SAPS  H11A20554   4.866   3.733   2.375  0.9101  1.0032  2.3817
  180SAPS  H11B20555   5.031   3.809   2.372 -0.0271  0.7190 -1.5853
  180SAPS     P20556   5.168   3.608   2.481 -0.0402  0.0979  0.5472
  180SAPS   O1320557   5.200   3.467   2.513 -0.4839 -0.0172  0.1183
  180SAPS   O1420558   5.277   3.691   2.416 -0.2436  0.9115  0.6172
  180SAPS   O1220559   5.035   3.607   2.390 -0.3806 -0.1209  0.5003
  180SAPS   O1120560   5.109   3.694   2.600 -0.0165  1.3218 -0.0742
  180SAPS    C120561   5.006   3.635   2.689  0.1686  0.2797  0.2644
  180SAPS    HA20562   4.903   3.661   2.657  1.0777  0.1143 -3.1868
  180SAPS    HB20563   5.018   3.525   2.692  0.3356  0.2334 -1.3037
  180SAPS    C220564   5.031   3.675   2.840  0.7515 -0.1136 -0.6779
  180SAPS    HS20565   4.997   3.597   2.911 -0.8197  1.5167  0.4617
  180SAPS   O2120566   4.952   3.788   2.874 -0.3725 -0.1026 -0.1468
  180SAPS   C2120567   4.824   3.783   2.914  0.3109  0.1828  0.2361
  180SAPS   O2220568   4.759   3.681   2.925  0.4938  0.4911 -0.2175
  180SAPS   C2220569   4.779   3.921   2.959 -0.7027 -0.1492 -0.1000
  180SAPS   H2R20570   4.871   3.983   2.973  0.1952 -1.5428  0.2964
  180SAPS   H2S20571   4.712   3.977   2.890  0.0962  0.7367 -0.1836
  180SAPS    C320572   5.181   3.712   2.864 -0.6532 -0.0323 -0.0665
  180SAPS    HX20573   5.197   3.805   2.805 -0.4677 -1.5215 -2.4591
  180SAPS    HY20574   5.241   3.635   2.811 -0.5957 -0.5859  0.7826
  180SAPS   O3120575   5.219   3.726   3.002 -0.0154  0.0912  0.0197
  180SAPS   C3120576   5.229   3.609   3.070 -0.1491 -0.3419 -0.1115
  180SAPS   O3220577   5.177   3.502   3.045 -0.4863 -0.4020 -0.0344
  180SAPS   C3220578   5.300   3.649   3.196  0.4287 -0.3479 -0.2790
  180SAPS   H2X20579   5.248   3.732   3.249  0.7042 -1.1122  1.2098
  180SAPS   H2Y20580   5.398   3.693   3.167  0.2909 -0.9725 -1.7725
  180SAPS   C2320581   4.703   3.927   3.100  0.3563  0.6342  0.4200
  180SAPS   H3R20582   4.771   3.896   3.182  1.0743 -3.8262 -1.5872
  180SAPS   H3S20583   4.616   3.860   3.084  0.5053  1.0987 -3.1753
  180SAPS   C2420584   4.652   4.070   3.125  0.2119  0.9714 -0.0325
  180SAPS   H4R20585   4.605   4.120   3.037  0.0561  0.5700 -0.1804
  180SAPS   H4S20586   4.746   4.125   3.149  0.5750  0.5507 -0.4779
  180SAPS   C2520587   4.551   4.064   3.240 -0.4695  0.0389  0.8841
  180SAPS   H5R20588   4.447   4.038   3.215 -0.1437  0.4948 -1.1669
  180SAPS   C2620589   4.571   4.100   3.367  0.1461 -0.6009 -0.2464
  180SAPS   H6R20590   4.479   4.093   3.427 -0.4210 -1.1766 -1.1565
  180SAPS   C2720591   4.699   4.144   3.437  0.1226  0.2417 -0.3450
  180SAPS   H7R20592   4.669   4.185   3.536 -1.3365  0.9415 -1.0360
  180SAPS   H7S20593   4.756   4.225   3.386 -2.5862  2.9057  0.4904
  180SAPS   C2820594   4.799   4.029   3.457 -1.4143  0.3298 -0.1774
  180SAPS   H8R20595   4.824   3.966   3.370  0.4596  1.0814 -0.2416
  180SAPS   C2920596   4.864   3.989   3.567 -0.7738  0.0175  0.1534
  180SAPS   H9R20597   4.943   3.915   3.549 -0.4973  0.2872  0.2549
  180SAPS  C21020598   4.839   4.043   3.702  0.0870  0.2753 -0.1709
  180SAPS  H10R20599   4.743   4.099   3.701 -0.8651 -1.2671 -1.9409
  180SAPS  H10S20600   4.910   4.127   3.718 -0.5659  0.7317  0.3624
  180SAPS  C21120601   4.853   3.943   3.817  0.2713  0.1965  0.3091
  180SAPS  H11R20602   4.856   3.837   3.786 -0.9287  0.2720 -0.0851
  180SAPS  C21220603   4.847   3.978   3.943 -0.2754 -0.5744  0.3365
  180SAPS  H12R20604   4.874   3.900   4.015  1.8793 -0.2054 -0.0132
  180SAPS  C21320605   4.847   4.114   3.993  0.6661 -0.4433  0.8115
  180SAPS  H13R20606   4.799   4.183   3.921 -0.5022 -1.1307  0.9125
  180SAPS  H13S20607   4.947   4.156   4.019 -0.1511  2.3523 -0.2036
  180SAPS  C21420608   4.756   4.126   4.106 -0.3963  0.3178 -0.3376
  180SAPS  H14R20609   4.649   4.111   4.088 -0.3038  0.4609 -1.0282
  180SAPS  C21520610   4.796   4.143   4.235  0.8746 -0.1201  0.0756
  180SAPS  H15R20611   4.717   4.134   4.312  1.4785  0.2888  0.7593
  180SAPS  C21620612   4.936   4.150   4.287 -0.1499  0.7944  0.4438
  180SAPS  H16R20613   4.960   4.258   4.297 -0.4135  1.2482 -2.8677
  180SAPS  H16S20614   5.003   4.107   4.209 -1.6986 -0.0820 -0.4559
  180SAPS  C21720615   4.962   4.081   4.421  0.0497 -0.8871 -0.0984
  180SAPS  H17R20616   4.942   3.971   4.426  1.1375 -1.0206  2.4327
  180SAPS  H17S20617   4.903   4.123   4.505  1.3583  1.6527 -0.3832
  180SAPS  C21820618   5.112   4.093   4.470 -0.1027 -0.0307  0.2458
  180SAPS  H18R20619   5.123   4.190   4.523 -0.9207  1.2063 -1.7297
  180SAPS  H18S20620   5.172   4.087   4.377  0.4676 -1.5563  0.6849
  180SAPS  C21920621   5.148   3.981   4.574  0.4134  0.7387 -0.0891
  180SAPS  H19R20622   5.131   3.881   4.528 -1.4201  1.2844 -0.6775
  180SAPS  H19S20623   5.072   4.001   4.652 -0.3334  2.2620 -1.1523
  180SAPS  C22020624   5.290   3.999   4.625 -0.7700  0.0126 -0.7028
  180SAPS  H20R20625   5.280   4.100   4.670 -2.4175 -0.3812 -0.1311
  180SAPS  H20S20626   5.306   3.922   4.704 -0.2556  1.9882  1.2314
  180SAPS  H20T20627   5.360   4.000   4.539 -0.7697  0.6672 -0.7000
  180SAPS   C3320628   5.322   3.524   3.281 -0.6208  0.9932  0.1690
  180SAPS   H3X20629   5.365   3.445   3.215 -0.5095  1.2085 -0.0166
  180SAPS   H3Y20630   5.219   3.491   3.306 -0.0364 -2.4189 -1.3654
  180SAPS   C3420631   5.412   3.545   3.404 -0.3321  0.1685  0.0552
  180SAPS   H4X20632   5.501   3.607   3.380  0.7376 -1.9597 -1.8982
  180SAPS   H4Y20633   5.435   3.445   3.446 -1.7800  0.0447  0.5991
  180SAPS   C3520634   5.349   3.630   3.517  0.8675  0.5702 -0.0490
  180SAPS   H5X20635   5.400   3.596   3.610 -0.2631 -0.0687  0.3650
  180SAPS   H5Y20636   5.244   3.595   3.531  0.7050 -0.3440 -2.9983
  180SAPS   C3620637   5.376   3.780   3.498 -0.2815  0.0387 -0.0376
  180SAPS   H6X20638   5.312   3.817   3.415 -0.3813 -1.9778 -0.9112
  180SAPS   H6Y20639   5.483   3.792   3.473 -0.6608  0.7617 -1.3797
  180SAPS   C3720640   5.338   3.865   3.618  0.4793 -0.0164  0.1115
  180SAPS   H7X20641   5.366   3.814   3.712  0.8176 -0.6379 -0.3126
  180SAPS   H7Y20642   5.227   3.871   3.620  0.5139  0.5456  1.0426
  180SAPS   C3820643   5.403   3.999   3.613  0.0451  0.5825 -0.3278
  180SAPS   H8X20644   5.406   4.026   3.505  0.1007 -1.3863 -0.8557
  180SAPS   H8Y20645   5.509   3.982   3.642  0.0515  1.2408  0.0577
  180SAPS   C3920646   5.338   4.101   3.702 -0.5252 -0.1041  0.6328
  180SAPS   H9X20647   5.229   4.094   3.679 -0.0717 -2.5485 -1.0467
  180SAPS   H9Y20648   5.380   4.202   3.679 -0.1180 -0.1491  1.1432
  180SAPS  C31020649   5.359   4.077   3.847  0.5079 -0.3736 -0.3704
  180SAPS  H10X20650   5.467   4.085   3.870  0.6981  1.2317 -1.6254
  180SAPS  H10Y20651   5.323   3.977   3.878 -2.7875  1.4057  2.1362
  180SAPS  C31120652   5.275   4.174   3.929  0.2502 -0.0828 -0.7402
  180SAPS  H11X20653   5.177   4.129   3.957  0.7212 -1.1344 -0.7511
  180SAPS  H11Y20654   5.244   4.251   3.855 -2.0376 -0.4670 -0.2794
  180SAPS  C31220655   5.343   4.228   4.048  0.0883 -0.4565 -0.0592
  180SAPS  H12X20656   5.446   4.255   4.017  0.3275  0.1609  1.2004
  180SAPS  H12Y20657   5.351   4.154   4.130  3.1750 -0.5553 -0.3209
  180SAPS  C31320658   5.289   4.365   4.092  0.2135  0.2537  0.3766
  180SAPS  H13X20659   5.178   4.364   4.105  0.1266  0.1526 -0.3122
  180SAPS  H13Y20660   5.312   4.444   4.018 -1.3299  0.7460  0.3863
  180SAPS  C31420661   5.345   4.409   4.225  0.1999  0.3081  0.5817
  180SAPS  H14X20662   5.455   4.407   4.233  0.0894 -1.0766  2.4762
  180SAPS  H14Y20663   5.308   4.335   4.300 -1.3288  0.3852 -0.0516
  180SAPS  C31520664   5.306   4.548   4.251  0.0908 -0.2409  0.4947
  180SAPS  H15X20665   5.202   4.565   4.215 -0.3697 -1.2802  1.2725
  180SAPS  H15Y20666   5.354   4.630   4.194 -1.4576  0.3559  0.0174
  180SAPS  C31620667   5.310   4.595   4.397 -0.0264  0.3773 -0.1601
  180SAPS  H16X20668   5.410   4.571   4.440 -1.2540 -2.3543  1.4030
  180SAPS  H16Y20669   5.236   4.537   4.455  0.8159  0.0786  0.6332
  180SAPS  C31720670   5.297   4.740   4.431 -0.0394 -0.3024  0.9172
  180SAPS  H17X20671   5.211   4.776   4.371  0.2319 -0.3833  0.4748
  180SAPS  H17Y20672   5.386   4.801   4.403 -2.6857  3.5461 -0.0323
  180SAPS  C31820673   5.268   4.764   4.581 -0.3121 -0.4520  0.3889
  180SAPS  H18X20674   5.171   4.714   4.603 -0.1017 -1.7178 -1.4141
  180SAPS  H18Y20675   5.258   4.874   4.595 -1.5564 -0.7016  1.7414
  180SAPS  H18Z20676   5.349   4.723   4.645  0.5035  0.0854 -0.2805
  181POPC     N20677   4.131   4.437   7.139 -0.3131 -0.4775 -0.1505
  181POPC   C1220678   4.001   4.363   7.136 -0.5705 -0.7099  0.0424
  181POPC  H12A20679   3.920   4.405   7.193 -0.4432 -0.8282  0.3095
  181POPC  H12B20680   4.013   4.266   7.182  0.0215 -1.2663 -1.2203
  181POPC   C1320681   4.172   4.496   7.274 -1.2404  0.3264 -0.2714
  181POPC  H13A20682   4.274   4.533   7.274 -1.0087 -0.2570 -1.6912
  181POPC  H13B20683   4.111   4.576   7.312 -0.8929 -0.8304  3.0645
  181POPC  H13C20684   4.174   4.420   7.350 -1.2093 -1.0318 -1.5791
  181POPC   C1420685   4.249   4.344   7.106  0.2369 -0.0465  0.4992
  181POPC  H14A20686   4.249   4.301   7.007  2.1385  0.9581  0.0250
  181POPC  H14B20687   4.343   4.396   7.117 -0.1338  0.7237  0.1046
  181POPC  H14C20688   4.251   4.273   7.187  0.0757  2.2043  2.5799
  181POPC   C1520689   4.124   4.550   7.042  0.4033  0.1071 -0.3211
  181POPC  H15A20690   4.064   4.633   7.076  0.9235 -0.0059  0.9240
  181POPC  H15B20691   4.074   4.529   6.948 -0.3436 -0.1426  0.1266
  181POPC  H15C20692   4.220   4.593   7.019  0.7792 -1.3610 -1.6884
  181POPC   C1120693   3.945   4.349   6.989  0.0598 -0.3441  0.2250
  181POPC  H11A20694   3.869   4.268   6.996 -1.0842  0.8198  3.2072
  181POPC  H11B20695   4.030   4.317   6.925 -0.7579 -2.2683  0.0436
  181POPC     P20696   3.733   4.462   6.892  0.4719 -0.0232 -0.6997
  181POPC   O1320697   3.662   4.504   7.016  0.5486 -0.4617 -0.3350
  181POPC   O1420698   3.705   4.333   6.839  0.1480  0.0980 -0.2620
  181POPC   O1220699   3.881   4.464   6.933 -0.2326 -0.0793  0.5121
  181POPC   O1120700   3.724   4.574   6.782  0.0901  0.0068  0.3907
  181POPC    C120701   3.848   4.643   6.750  0.3391 -0.1539  0.2493
  181POPC    HA20702   3.926   4.571   6.718 -1.8107 -2.1743 -0.8395
  181POPC    HB20703   3.880   4.718   6.825 -0.9371 -0.7441  1.4589
  181POPC    C220704   3.819   4.734   6.624 -0.3403  0.2724  0.6165
  181POPC    HS20705   3.710   4.751   6.629 -0.6099 -0.3382 -1.8329
  181POPC   O2120706   3.857   4.667   6.496 -0.0450  0.4551  0.2320
  181POPC   C2120707   3.765   4.694   6.397 -0.3430 -0.1273  0.5336
  181POPC   O2220708   3.671   4.764   6.401 -0.3594 -0.0689 -0.2068
  181POPC   C2220709   3.809   4.627   6.262  1.4998 -1.0084  0.3594
  181POPC   H2R20710   3.778   4.521   6.264 -0.8520 -0.3745  0.2215
  181POPC   H2S20711   3.920   4.616   6.262  1.5377 -1.1153 -1.6868
  181POPC    C320712   3.880   4.880   6.633 -0.5221  0.5914  0.7739
  181POPC    HX20713   3.990   4.870   6.626 -0.5121 -0.2977  1.9149
  181POPC    HY20714   3.853   4.934   6.726  0.4143  0.9327  0.8560
  181POPC   O3120715   3.844   4.962   6.524 -0.6728 -0.4895  0.1670
  181POPC   C3120716   3.736   5.028   6.534  0.2539  0.6383 -0.1949
  181POPC   O3220717   3.655   5.024   6.621  0.3801 -0.2109  0.0192
  181POPC   C3220718   3.730   5.124   6.413 -0.6348 -0.3623 -0.4695
  181POPC   H2X20719   3.798   5.209   6.434  0.7125 -1.9502  2.2470
  181POPC   H2Y20720   3.624   5.153   6.399 -1.2363 -3.0456 -2.2814
  181POPC   C2320721   3.759   4.707   6.143 -0.2717 -0.7369  0.2608
  181POPC   H3R20722   3.794   4.812   6.147  0.4558 -0.9353 -0.6776
  181POPC   H3S20723   3.648   4.713   6.131  0.0545  2.8074 -3.0965
  181POPC   C2420724   3.812   4.653   6.014 -0.5636  0.1473 -0.3941
  181POPC   H4R20725   3.792   4.546   5.993  2.6129 -0.5513 -0.3256
  181POPC   H4S20726   3.919   4.673   5.993 -0.5633 -0.6975 -1.2237
  181POPC   C2520727   3.768   4.741   5.896 -0.5584 -0.1456  0.0994
  181POPC   H5R20728   3.800   4.844   5.922 -1.0023 -0.5858  2.6250
  181POPC   H5S20729   3.658   4.732   5.888 -0.4957 -0.0476 -1.0177
  181POPC   C2620730   3.826   4.705   5.757  0.0375  0.1367 -0.0674
  181POPC   H6R20731   3.845   4.597   5.742 -1.5353  0.2295 -3.5237
  181POPC   H6S20732   3.923   4.759   5.751  0.4100 -0.5440 -0.2679
  181POPC   C2720733   3.731   4.731   5.638  0.9012 -0.0875  1.0451
  181POPC   H7R20734   3.671   4.824   5.650  1.7610  0.8545 -1.3855
  181POPC   H7S20735   3.659   4.646   5.631 -0.6678  1.3051 -1.1460
  181POPC   C2820736   3.815   4.756   5.513  0.0285 -0.3417  0.0485
  181POPC   H8R20737   3.902   4.686   5.517  0.3179  0.0430  0.5027
  181POPC   H8S20738   3.856   4.859   5.503  0.9746 -0.8851 -2.2694
  181POPC   C2920739   3.731   4.726   5.395 -0.4070  0.7079 -0.6163
  181POPC   H9120740   3.624   4.743   5.411 -0.5789  0.6269 -1.6391
  181POPC  C21020741   3.774   4.680   5.278 -0.0799 -0.0480 -0.2961
  181POPC  H10120742   3.703   4.661   5.197 -1.5919 -0.8551  1.1553
  181POPC  C21120743   3.919   4.658   5.234 -0.3496 -0.2892 -0.2503
  181POPC  H11R20744   3.918   4.604   5.137  0.2807  0.5002 -0.6979
  181POPC  H11S20745   3.973   4.589   5.302 -1.0834 -0.3796  0.2556
  181POPC  C21220746   3.991   4.785   5.200  0.0270  0.7455 -0.3883
  181POPC  H12R20747   4.024   4.844   5.289 -0.2632  1.4534 -0.7499
  181POPC  H12S20748   3.928   4.857   5.145  1.3116  2.6308  0.5021
  181POPC  C21320749   4.121   4.771   5.117  0.2845  0.2590 -0.0742
  181POPC  H13R20750   4.142   4.866   5.063 -0.6973  0.2575 -0.4743
  181POPC  H13S20751   4.092   4.701   5.036 -1.3166  2.5679 -1.6572
  181POPC  C21420752   4.241   4.724   5.194  0.3708 -0.5262  0.1617
  181POPC  H14R20753   4.201   4.636   5.249 -1.5467 -0.4098 -0.9595
  181POPC  H14S20754   4.292   4.792   5.265  1.2796 -2.4327  1.4284
  181POPC  C21520755   4.350   4.673   5.110 -0.0733  0.5944  0.4401
  181POPC  H15R20756   4.309   4.604   5.033 -0.5477  2.0188 -0.6330
  181POPC  H15S20757   4.414   4.610   5.175 -0.3554 -1.9379 -1.5826
  181POPC  C21620758   4.440   4.787   5.044 -0.6131  0.0632 -0.0662
  181POPC  H16R20759   4.505   4.831   5.122 -0.1268 -0.7129 -0.0243
  181POPC  H16S20760   4.378   4.873   5.012 -0.0275 -0.4372 -2.8251
  181POPC  C21720761   4.521   4.746   4.916  0.2221  0.3985  0.4563
  181POPC  H17R20762   4.600   4.680   4.959  0.0133  0.4584  0.9316
  181POPC  H17S20763   4.568   4.836   4.872  0.1795  0.0156 -0.4065
  181POPC  C21820764   4.451   4.674   4.800  0.4380 -0.3715  0.4351
  181POPC  H18R20765   4.344   4.650   4.819  0.3488 -0.7995 -0.4967
  181POPC  H18S20766   4.499   4.574   4.790  0.6947 -0.2211  0.1466
  181POPC  H18T20767   4.471   4.727   4.704  0.4927  1.7499  1.5648
  181POPC   C3320768   3.764   5.053   6.271  0.3272 -0.1338  0.5703
  181POPC   H3X20769   3.673   4.993   6.247  0.3358 -0.6453  1.7279
  181POPC   H3Y20770   3.855   4.991   6.282 -0.4204 -1.3497  0.1370
  181POPC   C3420771   3.766   5.159   6.159 -0.3080  0.0604 -0.7751
  181POPC   H4X20772   3.844   5.236   6.175 -1.5338  0.7899  2.7214
  181POPC   H4Y20773   3.668   5.211   6.149  0.8595  2.1621 -2.0326
  181POPC   C3520774   3.798   5.098   6.028 -0.4769  0.7442  0.3728
  181POPC   H5X20775   3.739   5.005   6.015 -0.8484  0.6337  2.4448
  181POPC   H5Y20776   3.907   5.075   6.023 -0.1175  1.9086  1.8710
  181POPC   C3620777   3.753   5.175   5.905  0.5770 -0.4291  0.1409
  181POPC   H6X20778   3.807   5.272   5.907 -1.4837  0.7780 -0.3260
  181POPC   H6Y20779   3.649   5.210   5.920  0.0693 -1.6024 -0.5573
  181POPC   C3720780   3.779   5.105   5.775  0.0313  0.7823 -0.4477
  181POPC   H7X20781   3.704   5.024   5.762 -1.0243  1.5241  0.7254
  181POPC   H7Y20782   3.882   5.071   5.752  0.2777  1.2278 -0.0136
  181POPC   C3820783   3.739   5.195   5.654 -0.4529 -0.2101  0.6279
  181POPC   H8X20784   3.796   5.291   5.653 -0.4080 -0.2117 -1.6925
  181POPC   H8Y20785   3.631   5.210   5.680 -0.3643 -2.3208  2.5122
  181POPC   C3920786   3.764   5.117   5.520 -0.3417 -0.2396  0.8794
  181POPC   H9X20787   3.713   5.021   5.545 -1.7680  0.5766  1.1823
  181POPC   H9Y20788   3.874   5.102   5.509 -0.5397 -3.4297  2.0552
  181POPC  C31020789   3.694   5.173   5.395 -0.3740  0.4258 -0.5944
  181POPC  H10X20790   3.737   5.274   5.374  0.4032  0.4703  1.0421
  181POPC  H10Y20791   3.584   5.177   5.403 -0.5681 -0.8047 -2.2500
  181POPC  C31120792   3.729   5.084   5.270 -0.0503 -0.5852 -0.2732
  181POPC  H11X20793   3.700   4.980   5.296  2.4445 -1.2382  0.1365
  181POPC  H11Y20794   3.836   5.109   5.258 -0.0591  0.1359  1.0268
  181POPC  C31220795   3.645   5.124   5.147  0.4747  0.7022 -0.0092
  181POPC  H12X20796   3.664   5.232   5.134  1.0321  0.5983 -0.0813
  181POPC  H12Y20797   3.537   5.105   5.166  0.7100  0.6237  1.3568
  181POPC  C31320798   3.681   5.037   5.031  0.1586  0.1454  0.0019
  181POPC  H13X20799   3.655   4.935   5.066  1.8989 -0.7840 -1.2373
  181POPC  H13Y20800   3.791   5.038   5.012  0.2833  2.4392  0.5349
  181POPC  C31420801   3.588   5.074   4.917 -0.3511 -0.4106  0.0924
  181POPC  H14X20802   3.555   5.180   4.920 -1.0733 -0.5718 -1.2042
  181POPC  H14Y20803   3.497   5.010   4.926 -0.2556 -0.3089  2.4955
  181POPC  C31520804   3.654   5.053   4.777  0.2855 -0.2203  0.6450
  181POPC  H15X20805   3.698   4.952   4.783  0.5009 -0.0642  1.9157
  181POPC  H15Y20806   3.732   5.131   4.764 -0.3627  0.7678  2.3903
  181POPC  C31620807   3.544   5.063   4.671 -0.0817 -0.5358  0.2412
  181POPC  H16X20808   3.481   4.972   4.675  0.8137 -1.1476  0.8910
  181POPC  H16Y20809   3.589   5.062   4.569 -2.8350  0.5004 -1.0745
  181POPC  H16Z20810   3.490   5.160   4.683  1.8600  0.5961  0.3736
  182POPC     N20811   5.067   2.969   7.358 -0.1334 -0.4176  0.1543
  182POPC   C1220812   5.068   3.035   7.223 -0.2306 -0.3413  0.0133
  182POPC  H12A20813   4.971   3.073   7.196  0.4390  0.2730 -1.6502
  182POPC  H12B20814   5.079   2.956   7.150  1.8397  0.8258 -1.0199
  182POPC   C1320815   5.197   2.897   7.382 -0.4747 -0.6098 -0.3921
  182POPC  H13A20816   5.204   2.850   7.479 -0.3510  0.0774 -0.0592
  182POPC  H13B20817   5.222   2.825   7.306  0.2928  0.9300 -1.6475
  182POPC  H13C20818   5.285   2.953   7.356 -0.2929 -1.2240 -1.1333
  182POPC   C1420819   5.038   3.078   7.454  0.7153  0.6524 -0.4939
  182POPC  H14A20820   5.105   3.162   7.452 -0.6716  1.8183 -0.0674
  182POPC  H14B20821   4.937   3.110   7.434  1.6225  2.6464 -2.2023
  182POPC  H14C20822   5.045   3.046   7.557  1.6060  1.7954 -0.1889
  182POPC   C1520823   4.958   2.867   7.369  0.0168  0.5036  0.4830
  182POPC  H15A20824   4.978   2.782   7.305  0.7054 -0.5670  2.0549
  182POPC  H15B20825   4.862   2.907   7.340  0.3458 -0.4534 -2.2149
  182POPC  H15C20826   4.944   2.828   7.469  1.5230 -0.8817  0.2063
  182POPC   C1120827   5.167   3.144   7.197  0.1961 -0.5003 -0.3299
  182POPC  H11A20828   5.182   3.174   7.091  1.7059 -1.3097 -0.3658
  182POPC  H11B20829   5.271   3.114   7.221  0.1557 -1.7554 -1.5965
  182POPC     P20830   5.219   3.386   7.270  0.2130  0.0780 -0.1044
  182POPC   O1320831   5.364   3.352   7.265 -0.0026  0.3562 -0.2947
  182POPC   O1420832   5.169   3.480   7.375  0.1147  0.2707  0.2134
  182POPC   O1220833   5.133   3.255   7.278  0.5359 -0.3987  0.5117
  182POPC   O1120834   5.194   3.453   7.132  0.4057 -0.6812  0.7374
  182POPC    C120835   5.066   3.433   7.065 -0.0780 -0.0817  0.3114
  182POPC    HA20836   4.999   3.510   7.107 -1.1577 -1.3542  0.9880
  182POPC    HB20837   5.031   3.327   7.064 -1.9755  0.4778 -2.3653
  182POPC    C220838   5.070   3.472   6.916  0.1103  0.0712 -0.5021
  182POPC    HS20839   4.967   3.453   6.880 -1.0062 -0.2279  2.5638
  182POPC   O2120840   5.167   3.401   6.847 -1.0493 -0.3848  0.0153
  182POPC   C2120841   5.140   3.281   6.800  0.8137 -0.8644  0.1822
  182POPC   O2220842   5.027   3.231   6.803  0.1608 -0.4085 -0.1092
  182POPC   C2220843   5.261   3.208   6.747 -0.3906 -0.5847 -0.2521
  182POPC   H2R20844   5.226   3.103   6.736 -0.8632 -0.3569 -0.9608
  182POPC   H2S20845   5.333   3.213   6.832 -0.7466 -0.5862  0.0529
  182POPC    C320846   5.093   3.627   6.904 -0.7080  0.2179 -0.8007
  182POPC    HX20847   5.186   3.649   6.961 -1.2643  1.6823 -0.3949
  182POPC    HY20848   5.010   3.685   6.950 -0.4491  0.4782 -0.6554
  182POPC   O3120849   5.104   3.662   6.769 -0.0236 -0.1941 -0.4123
  182POPC   C3120850   4.993   3.679   6.707 -0.8280 -0.8744  0.6284
  182POPC   O3220851   4.878   3.668   6.758 -0.3463  0.1423  0.8030
  182POPC   C3220852   5.013   3.729   6.565 -0.2280  0.1063 -0.0829
  182POPC   H2X20853   5.049   3.646   6.501 -0.1663  0.6818 -0.8019
  182POPC   H2Y20854   5.090   3.809   6.562  2.3981 -2.2581 -0.5785
  182POPC   C2320855   5.315   3.277   6.623  0.2594  0.7658  0.2688
  182POPC   H3R20856   5.421   3.250   6.607 -0.0648 -1.7850  1.8914
  182POPC   H3S20857   5.308   3.388   6.630 -1.8818  0.6488  0.7035
  182POPC   C2420858   5.231   3.238   6.500 -0.0385  0.5424 -0.0619
  182POPC   H4R20859   5.140   3.302   6.493 -0.8594 -0.7076 -1.4573
  182POPC   H4S20860   5.195   3.134   6.514 -0.2050  0.2460 -2.2755
  182POPC   C2520861   5.326   3.254   6.375  0.2684 -0.2628 -0.4833
  182POPC   H5R20862   5.401   3.172   6.371  0.4112 -0.1909  0.4417
  182POPC   H5S20863   5.373   3.355   6.382 -0.5978  0.1171 -0.0794
  182POPC   C2620864   5.249   3.243   6.243 -0.1707 -0.5159  0.3348
  182POPC   H6R20865   5.162   3.312   6.232  1.3423  1.1648 -1.8240
  182POPC   H6S20866   5.215   3.138   6.236  2.3224 -1.2649 -3.6828
  182POPC   C2720867   5.336   3.253   6.114  0.1581 -0.1448  0.2721
  182POPC   H7R20868   5.415   3.175   6.118  0.4431  0.0395 -1.0815
  182POPC   H7S20869   5.383   3.353   6.104  2.1230 -1.1349 -0.9870
  182POPC   C2820870   5.252   3.228   5.982 -0.2513 -0.0683 -0.1136
  182POPC   H8R20871   5.309   3.274   5.898  0.3579 -3.9099 -2.0426
  182POPC   H8S20872   5.151   3.273   5.983  0.0258  0.5497  0.1408
  182POPC   C2920873   5.247   3.080   5.937  0.5497  0.2789  0.3053
  182POPC   H9120874   5.181   3.012   5.994  0.8689 -3.2752 -3.0900
  182POPC  C21020875   5.317   3.021   5.835 -0.4878  0.2737  0.2794
  182POPC  H10120876   5.299   2.914   5.818  0.2700  0.2306 -0.3088
  182POPC  C21120877   5.430   3.075   5.752  0.4004  0.6462  0.0531
  182POPC  H11R20878   5.526   3.024   5.775  1.0507  1.4401 -0.8491
  182POPC  H11S20879   5.444   3.179   5.788  3.0315  0.7941 -1.2046
  182POPC  C21220880   5.418   3.064   5.597  0.6854 -0.2372  0.7410
  182POPC  H12R20881   5.312   3.035   5.581  1.0399 -2.0506  1.4608
  182POPC  H12S20882   5.478   2.985   5.548  0.3443  0.3462 -0.6510
  182POPC  C21320883   5.448   3.195   5.515 -0.8031 -0.7370  0.3632
  182POPC  H13R20884   5.549   3.236   5.535 -1.1266  0.5579 -0.5679
  182POPC  H13S20885   5.370   3.267   5.547  1.4864  1.4576  1.3025
  182POPC  C21420886   5.430   3.195   5.362 -0.0405  0.3655 -0.1895
  182POPC  H14R20887   5.445   3.302   5.334 -1.3569  1.3882  2.5999
  182POPC  H14S20888   5.328   3.160   5.334 -0.2752  0.2685  0.7349
  182POPC  C21520889   5.528   3.101   5.292 -0.1279 -0.6460 -0.2830
  182POPC  H15R20890   5.522   3.001   5.339 -0.0018  0.5616  2.5186
  182POPC  H15S20891   5.632   3.135   5.310  0.3869 -0.3462 -3.3450
  182POPC  C21620892   5.513   3.097   5.137 -0.2781 -0.1541 -0.3405
  182POPC  H16R20893   5.550   3.195   5.099  2.6215  0.1280  2.6470
  182POPC  H16S20894   5.405   3.088   5.113 -1.0359  2.2988  1.6848
  182POPC  C21720895   5.602   2.989   5.071 -0.0005 -0.1038 -0.0939
  182POPC  H17R20896   5.592   2.899   5.136  0.9411 -0.1109  0.0505
  182POPC  H17S20897   5.706   3.027   5.066 -0.4411  0.9748 -1.3597
  182POPC  C21820898   5.559   2.946   4.932 -0.3223 -0.6985  0.0709
  182POPC  H18R20899   5.621   2.858   4.902 -0.8852 -0.8939 -0.5329
  182POPC  H18S20900   5.576   3.031   4.863  2.1739 -2.4981 -1.7051
  182POPC  H18T20901   5.452   2.920   4.941 -0.6282  0.7867  1.0587
  182POPC   C3320902   4.876   3.774   6.502 -0.5884  0.1245  0.2542
  182POPC   H3X20903   4.834   3.858   6.561  0.5051  0.2480  0.8883
  182POPC   H3Y20904   4.807   3.687   6.497  0.8456 -1.0807  0.7869
  182POPC   C3420905   4.895   3.817   6.353  0.0707 -0.3133 -0.1555
  182POPC   H4X20906   4.976   3.893   6.344  0.1475 -0.4071 -0.2674
  182POPC   H4Y20907   4.803   3.866   6.316  0.1070 -0.4700 -0.4618
  182POPC   C3520908   4.921   3.698   6.257  0.2386 -0.2191 -0.1484
  182POPC   H5X20909   4.841   3.621   6.263  2.1480 -2.3230  0.0474
  182POPC   H5Y20910   5.013   3.645   6.290  1.1816  1.7976  0.5800
  182POPC   C3620911   4.927   3.748   6.114 -0.1566 -0.9528  0.2035
  182POPC   H6X20912   4.997   3.834   6.123 -2.1552  0.9212 -1.1592
  182POPC   H6Y20913   4.827   3.780   6.078 -1.5544 -1.2532  3.4567
  182POPC   C3720914   4.982   3.643   6.012  0.3044 -0.0191 -0.0309
  182POPC   H7X20915   4.926   3.548   6.019 -0.2525  0.3592  0.7424
  182POPC   H7Y20916   5.085   3.618   6.045  0.3356 -0.8513 -0.7202
  182POPC   C3820917   4.992   3.698   5.870  0.3097  0.4659  0.0696
  182POPC   H8X20918   5.043   3.796   5.875  2.2230 -0.2863 -2.6002
  182POPC   H8Y20919   4.890   3.721   5.831 -1.1981  0.0578  3.4274
  182POPC   C3920920   5.058   3.600   5.773 -0.2574 -0.0686 -0.2319
  182POPC   H9X20921   5.007   3.502   5.764 -0.0924 -0.0384 -1.7726
  182POPC   H9Y20922   5.153   3.569   5.822  0.7948 -1.1854 -2.8019
  182POPC  C31020923   5.084   3.656   5.635 -0.3863 -0.1857 -0.3008
  182POPC  H10X20924   5.146   3.748   5.634  0.9588 -1.0622 -1.5440
  182POPC  H10Y20925   4.987   3.693   5.598  0.2894  2.7749  0.6199
  182POPC  C31120926   5.141   3.557   5.529 -0.0155 -0.5289 -0.2334
  182POPC  H11X20927   5.093   3.457   5.532  0.6585 -0.8289  1.3094
  182POPC  H11Y20928   5.242   3.533   5.569 -0.5739 -0.1101  1.5253
  182POPC  C31220929   5.141   3.608   5.387 -0.4933  0.2344  0.2872
  182POPC  H12X20930   5.226   3.680   5.387 -0.8470  0.6773  1.5510
  182POPC  H12Y20931   5.044   3.658   5.364 -2.0583 -2.0693  1.4448
  182POPC  C31320932   5.182   3.493   5.296 -0.5511 -0.1418 -0.1270
  182POPC  H13X20933   5.105   3.413   5.288  0.1990 -0.7212 -1.9502
  182POPC  H13Y20934   5.266   3.447   5.352 -0.1330  0.4685 -0.2486
  182POPC  C31420935   5.237   3.541   5.162  0.4449  0.2312  0.3448
  182POPC  H14X20936   5.255   3.454   5.096 -0.5902 -0.6971  1.2618
  182POPC  H14Y20937   5.330   3.601   5.176 -0.5838  1.2280  3.8227
  182POPC  C31520938   5.142   3.624   5.079  0.7441 -0.5033  0.5076
  182POPC  H15X20939   5.071   3.693   5.130  0.6493  0.5363 -0.9627
  182POPC  H15Y20940   5.074   3.545   5.041  1.3747 -1.0580  0.5080
  182POPC  C31620941   5.215   3.707   4.968  0.4466  0.3304  0.1497
  182POPC  H16X20942   5.142   3.773   4.916  0.5304 -0.9143 -1.6458
  182POPC  H16Y20943   5.254   3.638   4.890 -1.3500 -1.8524  1.0681
  182POPC  H16Z20944   5.301   3.761   5.012  0.6755  0.7794 -0.8365
  183POPC     N20945   5.494   0.655   7.060  0.1176 -0.1444 -0.0993
  183POPC   C1220946   5.399   0.595   6.954  0.2406  0.3619 -0.2857
  183POPC  H12A20947   5.298   0.620   6.983  0.5765 -0.5378  1.8761
  183POPC  H12B20948   5.400   0.487   6.950  1.4357  0.3013  0.8382
  183POPC   C1320949   5.641   0.625   7.046 -0.2823  0.9557 -0.2380
  183POPC  H13A20950   5.677   0.659   6.950  1.8263 -1.8962 -0.5731
  183POPC  H13B20951   5.683   0.689   7.122 -2.3703  1.7185  0.3592
  183POPC  H13C20952   5.666   0.521   7.052 -1.0382  0.8044  0.4851
  183POPC   C1420953   5.477   0.802   7.067 -0.3943 -0.8110  0.4917
  183POPC  H14A20954   5.373   0.831   7.064 -0.3249 -0.6534 -1.0927
  183POPC  H14B20955   5.523   0.838   7.158  0.3630  0.0259 -0.2001
  183POPC  H14C20956   5.527   0.838   6.978 -0.2785 -2.2351 -0.0459
  183POPC   C1520957   5.465   0.601   7.201 -0.2563  0.8632  0.2289
  183POPC  H15A20958   5.523   0.654   7.275  0.7309  0.2797 -0.1036
  183POPC  H15B20959   5.483   0.494   7.205 -0.6039  0.6354 -2.3364
  183POPC  H15C20960   5.360   0.612   7.224 -0.2665 -1.1212  1.4437
  183POPC   C1120961   5.416   0.654   6.807 -0.4349 -0.1274  0.0385
  183POPC  H11A20962   5.390   0.762   6.803 -0.7763 -0.2243 -0.5101
  183POPC  H11B20963   5.343   0.607   6.738  0.4489 -1.0377 -0.2981
  183POPC     P20964   5.589   0.509   6.676 -0.1051 -0.3115 -0.1762
  183POPC   O1320965   5.587   0.395   6.774  0.3646  0.2904  0.3665
  183POPC   O1420966   5.717   0.555   6.620 -0.3543 -0.0040  0.6325
  183POPC   O1220967   5.543   0.642   6.754  0.0434  0.4049  0.1830
  183POPC   O1120968   5.469   0.487   6.571 -0.3005 -1.1909 -1.0346
  183POPC    C120969   5.458   0.587   6.471  0.2393  0.4020  0.0667
  183POPC    HA20970   5.548   0.648   6.450  0.8668 -0.7142 -0.6018
  183POPC    HB20971   5.380   0.659   6.505  1.2311  2.1847 -1.2727
  183POPC    C220972   5.407   0.526   6.339  0.6464  0.7291  0.0008
  183POPC    HS20973   5.350   0.431   6.356 -0.2692  1.4539  1.1029
  183POPC   O2120974   5.520   0.495   6.261 -0.2915  0.4186  0.3694
  183POPC   C2120975   5.509   0.403   6.170  0.1186  0.5903 -0.3668
  183POPC   O2220976   5.420   0.320   6.164  0.3359  0.4385 -0.0637
  183POPC   C2220977   5.630   0.394   6.081 -0.1979  0.2260 -0.1451
  183POPC   H2R20978   5.586   0.340   5.994  1.6342  0.3817 -1.2275
  183POPC   H2S20979   5.699   0.325   6.134 -1.3208  0.6115  1.8999
  183POPC    C320980   5.310   0.622   6.264 -0.4248 -0.4025  0.1416
  183POPC    HX20981   5.370   0.715   6.254 -0.2174 -0.6763 -1.3440
  183POPC    HY20982   5.218   0.650   6.320 -0.3748  1.6395 -0.7105
  183POPC   O3120983   5.295   0.588   6.130  0.2736  0.2610 -0.4300
  183POPC   C3120984   5.172   0.536   6.104 -0.2875  0.0800 -0.3343
  183POPC   O3220985   5.077   0.538   6.182 -0.2205  0.0779  0.5134
  183POPC   C3220986   5.172   0.483   5.967  0.4925  0.2800  0.4760
  183POPC   H2X20987   5.215   0.381   5.961  0.2990  0.2372 -0.3755
  183POPC   H2Y20988   5.236   0.555   5.911 -0.3058  0.8253  0.2500
  183POPC   C2320989   5.676   0.532   6.027 -0.5517  0.1066 -0.0230
  183POPC   H3R20990   5.596   0.600   5.992 -0.1752 -1.1903 -3.9595
  183POPC   H3S20991   5.729   0.521   5.930 -1.9236 -0.8530 -0.6908
  183POPC   C2420992   5.776   0.597   6.118 -0.3613  0.3566 -0.2953
  183POPC   H4R20993   5.864   0.530   6.121 -1.1832 -0.8688 -1.8190
  183POPC   H4S20994   5.739   0.608   6.222 -0.9703 -1.5757 -0.2598
  183POPC   C2520995   5.807   0.746   6.087 -0.0959  0.6228  0.6676
  183POPC   H5R20996   5.764   0.765   5.987 -0.5512  0.4271  0.8250
  183POPC   H5S20997   5.918   0.748   6.075  0.2731  0.2589  3.4582
  183POPC   C2620998   5.761   0.858   6.184 -0.7108 -0.0372  0.1421
  183POPC   H6R20999   5.770   0.821   6.288 -1.1913 -1.0479 -0.1688
  183POPC   H6S21000   5.652   0.872   6.165 -0.6104  0.1663 -0.3018
  183POPC   C2721001   5.833   0.987   6.157 -0.3190 -0.5749 -0.0203
  183POPC   H7R21002   5.943   0.983   6.175  0.1969 -0.4186 -2.6743
  183POPC   H7S21003   5.791   1.058   6.231  0.4954 -0.7244  0.6060
  183POPC   C2821004   5.824   1.040   6.007 -0.2007  0.3483 -0.4745
  183POPC   H8R21005   5.716   1.030   5.984  0.2484 -4.3575 -1.5437
  183POPC   H8S21006   5.878   0.961   5.951 -0.4710 -0.3019  0.1643
  183POPC   C2921007   5.889   1.170   5.974 -0.0454 -0.0718  0.1210
  183POPC   H9121008   5.981   1.190   6.032 -0.6513  0.4253  0.9363
  183POPC  C21021009   5.862   1.259   5.873 -0.2059 -0.6240  0.2481
  183POPC  H10121010   5.931   1.344   5.862 -0.6013 -0.3424 -0.1006
  183POPC  C21121011   5.761   1.230   5.764  0.3175  0.8372  0.4526
  183POPC  H11R21012   5.695   1.319   5.762  1.1309  1.4481 -0.4879
  183POPC  H11S21013   5.697   1.144   5.792 -1.6408  1.7951 -0.8575
  183POPC  C21221014   5.822   1.220   5.621 -0.4291  0.1131 -0.2345
  183POPC  H12R21015   5.882   1.127   5.625 -1.0028 -0.2616 -0.1543
  183POPC  H12S21016   5.893   1.301   5.595  2.0597 -2.2736 -1.3885
  183POPC  C21321017   5.713   1.197   5.508 -0.0895 -0.4992 -0.1774
  183POPC  H13R21018   5.623   1.262   5.516 -0.4754 -1.1645  1.3540
  183POPC  H13S21019   5.677   1.096   5.537  0.2961 -0.6912 -0.3560
  183POPC  C21421020   5.778   1.192   5.359  0.1485 -0.1265 -0.5881
  183POPC  H14R21021   5.869   1.128   5.354  0.8701  0.7231  0.8392
  183POPC  H14S21022   5.817   1.291   5.327  0.7662  0.1467  0.9138
  183POPC  C21521023   5.678   1.143   5.256 -0.1669 -0.5615  0.0773
  183POPC  H15R21024   5.595   1.215   5.270  1.5000  1.1094  2.0900
  183POPC  H15S21025   5.639   1.044   5.287  0.0102 -0.0563  2.0041
  183POPC  C21621026   5.733   1.147   5.115  0.3789 -0.0437 -0.0226
  183POPC  H16R21027   5.819   1.076   5.119 -0.4991 -1.2488 -1.4972
  183POPC  H16S21028   5.768   1.246   5.081 -0.7516 -0.3977 -2.3788
  183POPC  C21721029   5.624   1.106   5.012  0.2729 -0.4701 -0.4258
  183POPC  H17R21030   5.524   1.119   5.059  0.6289  0.3848  0.1104
  183POPC  H17S21031   5.639   1.001   4.978 -1.9135 -1.2873  0.9264
  183POPC  C21821032   5.632   1.188   4.886 -0.5104 -0.6525 -0.0219
  183POPC  H18R21033   5.736   1.181   4.847  0.0023  1.2133  0.8442
  183POPC  H18S21034   5.603   1.294   4.904 -0.3070 -0.4733 -0.7402
  183POPC  H18T21035   5.560   1.152   4.810 -0.1740 -2.5808  0.5289
  183POPC   C3321036   5.026   0.500   5.905 -0.3426  0.2730 -0.0719
  183POPC   H3X21037   4.982   0.588   5.955 -1.3881 -1.3761  2.0983
  183POPC   H3Y21038   4.965   0.416   5.946  3.0074 -1.9189  0.8611
  183POPC   C3421039   5.025   0.509   5.753  0.1189 -0.0415 -0.9754
  183POPC   H4X21040   5.091   0.591   5.716 -0.0749  0.4696 -0.2210
  183POPC   H4Y21041   4.921   0.516   5.714  0.0087  2.6480 -0.4156
  183POPC   C3521042   5.088   0.381   5.682  0.2009 -0.0786 -0.1594
  183POPC   H5X21043   5.037   0.289   5.716 -2.4869  1.8829  1.4649
  183POPC   H5Y21044   5.194   0.394   5.713  0.4543  2.4568 -1.7627
  183POPC   C3621045   5.071   0.377   5.529 -0.1646 -0.1593  0.0365
  183POPC   H6X21046   5.108   0.472   5.486 -1.6063  0.0600 -0.7757
  183POPC   H6Y21047   4.962   0.373   5.509 -0.2072  0.7740  0.0385
  183POPC   C3721048   5.142   0.266   5.455 -0.7251 -0.8537 -0.1891
  183POPC   H7X21049   5.106   0.172   5.502 -1.6992  0.0649  0.9749
  183POPC   H7Y21050   5.243   0.266   5.500 -0.4203 -0.9688 -0.8518
  183POPC   C3821051   5.136   0.268   5.302  0.6208  0.4212 -0.2060
  183POPC   H8X21052   5.181   0.361   5.261  0.4353  0.2383 -0.8315
  183POPC   H8Y21053   5.028   0.285   5.286  0.2741 -1.3929  0.0430
  183POPC   C3921054   5.207   0.152   5.236  0.1726  0.0673 -0.3376
  183POPC   H9X21055   5.151   0.057   5.248 -1.5970  1.1103  0.0295
  183POPC   H9Y21056   5.295   0.131   5.301  1.1011 -2.0591 -2.1382
  183POPC  C31021057   5.252   0.165   5.090 -0.1872 -0.1487  0.2730
  183POPC  H10X21058   5.325   0.249   5.082  0.0710 -0.2552  1.3142
  183POPC  H10Y21059   5.169   0.180   5.019 -1.6814 -0.1583  1.9455
  183POPC  C31121060   5.324   0.034   5.046  0.1684 -0.1250 -0.7728
  183POPC  H11X21061   5.249  -0.048   5.044 -0.6440  0.6249 -1.5026
  183POPC  H11Y21062   5.413   0.011   5.108 -0.1713  2.0644  0.6056
  183POPC  C31221063   5.385   0.052   4.909  0.4092  0.0690  0.7368
  183POPC  H12X21064   5.314   0.098   4.836  1.6620  0.6231 -0.1579
  183POPC  H12Y21065   5.408  -0.052   4.876 -0.2174 -0.0265  0.5826
  183POPC  C31321066   5.521   0.123   4.897  0.4604 -0.1873 -0.5599
  183POPC  H13X21067   5.600   0.075   4.960  0.0207 -0.2723 -0.0715
  183POPC  H13Y21068   5.517   0.229   4.929  0.4875 -0.9986  2.3950
  183POPC  C31421069   5.597   0.107   4.762  0.3240 -0.0629 -0.1516
  183POPC  H14X21070   5.595   0.002   4.727 -0.0146 -0.5364  1.2232
  183POPC  H14Y21071   5.704   0.134   4.777 -0.0597  1.1427  0.6222
  183POPC  C31521072   5.525   0.185   4.652 -0.3517 -0.4424  0.2883
  183POPC  H15X21073   5.516   0.285   4.699 -0.2379 -0.3657  0.1501
  183POPC  H15Y21074   5.421   0.149   4.638 -0.1040 -0.9151 -0.4095
  183POPC  C31621075   5.587   0.183   4.511 -0.4185  0.2449  0.4105
  183POPC  H16X21076   5.538   0.255   4.442 -0.1072 -0.1844 -0.2781
  183POPC  H16Y21077   5.573   0.081   4.467  1.6970  0.9134 -2.0238
  183POPC  H16Z21078   5.696   0.193   4.529 -0.3142  0.1319 -0.1250
  184POPC     N21079   0.746   1.736   6.624 -0.2354 -0.0097 -0.1444
  184POPC   C1221080   0.807   1.759   6.493 -0.0765  0.2051  0.2521
  184POPC  H12A21081   0.737   1.806   6.425 -0.0056  3.6366  2.3146
  184POPC  H12B21082   0.844   1.666   6.454  0.8324  0.7153 -0.1156
  184POPC   C1321083   0.628   1.642   6.621  0.7502 -0.1576 -0.5828
  184POPC  H13A21084   0.662   1.540   6.631  1.5772  0.1973  0.3361
  184POPC  H13B21085   0.563   1.661   6.705  0.7034  0.0585 -0.6666
  184POPC  H13C21086   0.571   1.652   6.529  3.3357  0.0109 -2.2684
  184POPC   C1421087   0.838   1.692   6.737 -0.3808  0.1674 -0.9236
  184POPC  H14A21088   0.921   1.759   6.751 -0.8835  0.5489  0.3485
  184POPC  H14B21089   0.782   1.699   6.829 -1.3985  2.9752 -1.6453
  184POPC  H14C21090   0.873   1.592   6.720 -2.5080 -0.4990 -1.7318
  184POPC   C1521091   0.682   1.865   6.661 -0.8423  0.2854  0.1199
  184POPC  H15A21092   0.761   1.936   6.682 -0.4359  0.3923 -1.5900
  184POPC  H15B21093   0.632   1.863   6.756 -2.5900  1.8954 -0.6926
  184POPC  H15C21094   0.618   1.899   6.581 -1.6952 -1.7649 -0.1215
  184POPC   C1121095   0.930   1.858   6.505 -0.0410  0.2408  0.6540
  184POPC  H11A21096   0.894   1.957   6.539  0.1730  0.5751 -0.0832
  184POPC  H11B21097   0.960   1.875   6.400  1.2325  1.1225  1.1440
  184POPC     P21098   1.132   1.692   6.508  0.1795 -0.7988 -0.6075
  184POPC   O1321099   1.051   1.574   6.491 -0.2124  0.0856  0.1542
  184POPC   O1421100   1.247   1.690   6.602  0.0057  0.3797 -0.6774
  184POPC   O1221101   1.033   1.801   6.579  0.4697  0.4062 -0.0062
  184POPC   O1121102   1.175   1.755   6.376 -0.5205 -0.3752  0.6462
  184POPC    C121103   1.238   1.886   6.373  0.5204 -0.0465  0.2575
  184POPC    HA21104   1.328   1.890   6.438  0.6609 -1.9482  0.2314
  184POPC    HB21105   1.162   1.956   6.413 -0.2648 -1.6263  1.6840
  184POPC    C221106   1.288   1.925   6.238  0.0995  0.1896 -0.2303
  184POPC    HS21107   1.317   2.031   6.249 -0.7015  0.3157  0.7962
  184POPC   O2121108   1.186   1.921   6.140  0.2253  0.0805 -0.4240
  184POPC   C2121109   1.094   2.005   6.149 -0.0101 -0.0336 -0.7639
  184POPC   O2221110   1.097   2.113   6.201 -0.0676  0.8317  0.5021
  184POPC   C2221111   0.967   1.939   6.081 -0.6463 -0.1467  0.3752
  184POPC   H2R21112   0.873   1.990   6.110 -0.0716  2.1411 -1.4775
  184POPC   H2S21113   0.968   1.835   6.119  0.2576 -0.2884 -0.0091
  184POPC    C321114   1.411   1.847   6.184 -0.1908 -0.8077  0.5132
  184POPC    HX21115   1.376   1.751   6.142 -1.4496 -0.5668  0.9638
  184POPC    HY21116   1.480   1.821   6.267 -0.4921 -0.6821  0.8072
  184POPC   O3121117   1.471   1.934   6.085 -0.1229 -0.6901 -0.4075
  184POPC   C3121118   1.605   1.909   6.051  0.3978  0.7139 -0.3006
  184POPC   O3221119   1.679   1.830   6.106  0.8309  0.1143 -0.1868
  184POPC   C3221120   1.631   1.998   5.931  0.1832  0.4271 -0.4720
  184POPC   H2X21121   1.656   2.098   5.972 -2.3120  0.7823  0.3046
  184POPC   H2Y21122   1.550   1.993   5.855 -0.1071 -1.5985 -0.0848
  184POPC   C2321123   0.978   1.968   5.930  0.3490  0.1741  0.2895
  184POPC   H3R21124   0.911   1.894   5.882 -0.0237 -0.6855  2.0368
  184POPC   H3S21125   1.083   1.954   5.896 -0.1185  0.3599 -1.3162
  184POPC   C2421126   0.935   2.110   5.896 -0.3557 -0.9451  0.3845
  184POPC   H4R21127   0.994   2.178   5.961 -0.7168 -0.6582  0.4188
  184POPC   H4S21128   0.830   2.136   5.921 -1.0859 -1.5827 -1.8299
  184POPC   C2521129   0.947   2.150   5.746 -0.3250  0.4281 -0.1965
  184POPC   H5R21130   1.057   2.166   5.732  0.2488 -3.4090 -1.2264
  184POPC   H5S21131   0.900   2.246   5.716  1.0317  0.7348 -1.5045
  184POPC   C2621132   0.913   2.038   5.647 -0.0455  0.2201 -0.1123
  184POPC   H6R21133   0.812   1.997   5.666  0.1778 -0.3607 -0.1595
  184POPC   H6S21134   0.980   1.951   5.661 -0.2584 -0.1255 -1.1435
  184POPC   C2721135   0.918   2.088   5.503  0.9505  0.1607  0.7193
  184POPC   H7R21136   1.015   2.126   5.464  1.1217  1.5802  2.3740
  184POPC   H7S21137   0.851   2.176   5.496  1.6785  0.5862 -2.1533
  184POPC   C2821138   0.860   1.973   5.409 -0.4775 -0.4192  0.1547
  184POPC   H8R21139   0.823   2.008   5.310  2.3765 -0.6325 -1.0772
  184POPC   H8S21140   0.774   1.927   5.463 -1.4244 -0.0396 -0.9998
  184POPC   C2921141   0.960   1.871   5.387  0.1221  1.0893 -0.8667
  184POPC   H9121142   1.051   1.886   5.447  0.6573  0.5487 -1.5325
  184POPC  C21021143   0.955   1.775   5.287  0.0590  0.0748 -0.0110
  184POPC  H10121144   1.038   1.705   5.275  0.1145  0.3580 -1.4619
  184POPC  C21121145   0.844   1.756   5.184  0.5525 -0.2588 -0.8270
  184POPC  H11R21146   0.758   1.823   5.202  1.6036  0.5614  1.5123
  184POPC  H11S21147   0.806   1.654   5.204 -0.4071  0.4663  1.2864
  184POPC  C21221148   0.887   1.745   5.037 -0.2330 -0.1150 -0.3741
  184POPC  H12R21149   0.945   1.651   5.032 -0.0995 -0.0910  0.5384
  184POPC  H12S21150   0.936   1.841   5.009 -0.7037 -0.2506 -1.7242
  184POPC  C21321151   0.767   1.728   4.949  0.1416  0.0190  0.7861
  184POPC  H13R21152   0.705   1.661   5.012 -0.7027  0.4030  0.3782
  184POPC  H13S21153   0.796   1.671   4.858 -0.0391 -0.8318  1.2609
  184POPC  C21421154   0.700   1.860   4.915 -0.5171  0.1249  0.2556
  184POPC  H14R21155   0.709   1.920   5.007 -2.1599  1.1625 -0.2188
  184POPC  H14S21156   0.592   1.840   4.897  0.1153 -1.3860 -2.4754
  184POPC  C21521157   0.759   1.944   4.797 -0.3849 -0.0312  0.4930
  184POPC  H15R21158   0.865   1.968   4.823  0.2933 -0.4622 -1.6218
  184POPC  H15S21159   0.702   2.040   4.792  1.6336  1.2115  0.0216
  184POPC  C21621160   0.746   1.890   4.654  0.0682 -0.3097 -0.3355
  184POPC  H16R21161   0.807   1.797   4.646  0.3269 -0.2129  0.4873
  184POPC  H16S21162   0.778   1.962   4.576 -0.2892  2.3049  1.8251
  184POPC  C21721163   0.607   1.843   4.609 -0.6313 -0.3406  0.2826
  184POPC  H17R21164   0.535   1.927   4.608  0.4203  0.5763  0.4164
  184POPC  H17S21165   0.568   1.779   4.691 -0.8787  2.1949  2.2557
  184POPC  C21821166   0.601   1.785   4.464 -0.1906 -0.2574  0.2161
  184POPC  H18R21167   0.496   1.758   4.440 -0.2742 -2.6820  2.7295
  184POPC  H18S21168   0.654   1.687   4.453 -0.3935 -0.3431 -0.0030
  184POPC  H18T21169   0.645   1.854   4.389 -0.0262 -1.3295 -0.7116
  184POPC   C3321170   1.761   1.941   5.863  0.2971  0.1981 -0.3993
  184POPC   H3X21171   1.737   1.834   5.843  0.5373 -0.1799  1.2193
  184POPC   H3Y21172   1.844   1.928   5.936  1.4878  0.5727 -1.6259
  184POPC   C3421173   1.819   2.021   5.749 -0.1948  0.0949  0.1182
  184POPC   H4X21174   1.906   1.958   5.721  1.0512  1.1072  1.5819
  184POPC   H4Y21175   1.864   2.117   5.782  1.3543 -0.2829 -0.7621
  184POPC   C3521176   1.730   2.017   5.625  0.1506 -0.0544  0.7828
  184POPC   H5X21177   1.663   2.105   5.634  3.5248  2.8952 -0.1177
  184POPC   H5Y21178   1.685   1.916   5.617  1.3076 -0.5657  0.4308
  184POPC   C3621179   1.812   2.048   5.498 -0.5872 -0.5340  0.0175
  184POPC   H6X21180   1.895   1.974   5.492 -0.6912 -0.7214  0.8256
  184POPC   H6Y21181   1.860   2.149   5.497 -0.8678 -0.3914  0.6585
  184POPC   C3721182   1.728   2.038   5.369 -0.7468 -0.8371  0.1195
  184POPC   H7X21183   1.644   2.110   5.378  0.0377 -0.0341  1.3901
  184POPC   H7Y21184   1.695   1.933   5.356 -0.1336 -1.0912  0.5839
  184POPC   C3821185   1.811   2.080   5.248  0.4836  0.1761 -0.6745
  184POPC   H8X21186   1.884   2.006   5.207 -0.9328 -1.7662  0.1470
  184POPC   H8Y21187   1.869   2.173   5.265  1.8592  0.0621 -3.9865
  184POPC   C3921188   1.718   2.116   5.128 -0.1165 -0.2639  0.2179
  184POPC   H9X21189   1.658   2.207   5.149  1.5602  0.8964  0.2622
  184POPC   H9Y21190   1.660   2.024   5.109 -1.9920  1.1786 -1.4387
  184POPC  C31021191   1.810   2.140   5.012  0.0388  0.0047  0.6247
  184POPC  H10X21192   1.867   2.051   4.977 -0.8919 -0.2275 -0.4000
  184POPC  H10Y21193   1.884   2.220   5.033 -0.7020  0.3494  2.0202
  184POPC  C31121194   1.723   2.176   4.890 -0.6395  0.2200  1.0101
  184POPC  H11X21195   1.784   2.200   4.801  0.0994  0.3639  1.5481
  184POPC  H11Y21196   1.651   2.259   4.907  1.5903  1.7106  4.1716
  184POPC  C31221197   1.648   2.056   4.834  0.1737 -0.8621 -0.6350
  184POPC  H12X21198   1.560   2.052   4.901  0.3400 -0.5716 -0.3949
  184POPC  H12Y21199   1.706   1.961   4.839  0.3354 -0.7095  0.7368
  184POPC  C31321200   1.591   2.077   4.697  0.7395 -0.0883  0.6992
  184POPC  H13X21201   1.538   2.175   4.696 -0.3787 -0.6515 -1.7181
  184POPC  H13Y21202   1.510   2.003   4.677  2.8015 -2.0180 -1.0014
  184POPC  C31421203   1.688   2.075   4.583 -0.3790 -0.2084  0.2350
  184POPC  H14X21204   1.758   2.161   4.586  1.3080 -1.4141 -1.4795
  184POPC  H14Y21205   1.631   2.087   4.488 -0.3700  2.1675  0.4898
  184POPC  C31521206   1.761   1.942   4.571  0.3873  0.0751  0.1095
  184POPC  H15X21207   1.804   1.916   4.670  0.8675 -0.3133 -0.1979
  184POPC  H15Y21208   1.845   1.968   4.503  1.8876 -0.0776  1.8111
  184POPC  C31621209   1.672   1.830   4.530 -0.2349  0.0691  0.3930
  184POPC  H16X21210   1.738   1.745   4.504 -0.5508  0.0107 -0.2328
  184POPC  H16Y21211   1.606   1.866   4.448  0.9389  0.1910 -0.5464
  184POPC  H16Z21212   1.611   1.797   4.616  0.9603 -0.3233  1.1233
  185POPC     N21213   1.069   5.901   2.640  0.2322 -0.7378  0.6717
  185POPC   C1221214   1.075   6.032   2.555  0.8768  0.7487 -0.4777
  185POPC  H12A21215   1.165   6.034   2.496  0.8837 -0.1304 -0.5059
  185POPC  H12B21216   1.077   6.119   2.620 -0.1726  0.0535  0.5142
  185POPC   C1321217   0.940   5.887   2.719  0.1757  0.7249 -0.6677
  185POPC  H13A21218   0.921   5.978   2.775  0.6304 -0.0233  0.7443
  185POPC  H13B21219   0.859   5.879   2.648  1.8400 -0.1437 -2.5485
  185POPC  H13C21220   0.934   5.799   2.781  0.6578  0.8552 -0.4278
  185POPC   C1421221   1.070   5.783   2.550 -0.4832 -0.8101 -0.4740
  185POPC  H14A21222   1.084   5.693   2.608 -1.8504 -1.0578 -0.5064
  185POPC  H14B21223   0.979   5.783   2.492 -0.9834  1.6336  0.2397
  185POPC  H14C21224   1.161   5.792   2.492  0.5992  1.2668  1.4171
  185POPC   C1521225   1.181   5.893   2.736  0.1575 -0.5467 -0.3841
  185POPC  H15A21226   1.171   5.796   2.783 -2.3938  0.1311  0.6329
  185POPC  H15B21227   1.185   5.981   2.799  2.2536 -0.4649 -0.5759
  185POPC  H15C21228   1.273   5.906   2.682 -0.2208  0.7145 -0.7548
  185POPC   C1121229   0.964   6.057   2.443 -0.4803  0.4809  0.0871
  185POPC  H11A21230   0.962   5.966   2.379  2.7532  1.3803 -1.4854
  185POPC  H11B21231   0.990   6.141   2.374 -0.7364 -0.3551 -1.0521
  185POPC     P21232   0.806   6.210   2.580  0.0110 -0.3959  0.1396
  185POPC   O1321233   0.813   6.330   2.498 -0.3658 -0.4294 -0.0898
  185POPC   O1421234   0.890   6.212   2.701 -0.0587 -0.4461 -0.5872
  185POPC   O1221235   0.833   6.081   2.499  0.2801  0.7110  0.3558
  185POPC   O1121236   0.658   6.190   2.626  0.2659  0.0901  0.5751
  185POPC    C121237   0.580   6.273   2.707 -0.1815 -0.3486  0.3227
  185POPC    HA21238   0.470   6.268   2.719 -0.1353  0.6947  1.3573
  185POPC    HB21239   0.606   6.377   2.682 -2.9865  0.2245 -0.5311
  185POPC    C221240   0.616   6.253   2.870 -0.9768 -0.3833  0.4057
  185POPC    HS21241   0.723   6.227   2.879 -0.7091  0.6244  0.1831
  185POPC   O2121242   0.543   6.141   2.926 -0.0363 -0.0867  0.3495
  185POPC   C2121243   0.605   6.032   2.949  0.6823  0.5683 -0.0220
  185POPC   O2221244   0.718   6.002   2.917 -0.6825  0.0792 -0.0290
  185POPC   C2221245   0.501   5.942   3.027 -0.2280 -0.0321  0.7005
  185POPC   H2R21246   0.493   5.841   2.982 -0.9959  0.6865 -0.8418
  185POPC   H2S21247   0.401   5.989   3.013  0.2230  0.7266 -0.0523
  185POPC    C321248   0.597   6.382   2.957  0.0539  0.9212 -0.0667
  185POPC    HX21249   0.489   6.407   2.953 -0.3841 -0.7074  0.8922
  185POPC    HY21250   0.650   6.470   2.915 -0.7252  1.5779  0.3042
  185POPC   O3121251   0.635   6.360   3.092  0.3162  0.2742  0.3986
  185POPC   C3121252   0.756   6.394   3.124  0.1086  0.2983 -0.1301
  185POPC   O3221253   0.834   6.454   3.054  0.2403  0.2427  0.0254
  185POPC   C3221254   0.784   6.358   3.268 -0.6020  1.1523 -0.4540
  185POPC   H2X21255   0.694   6.313   3.315  0.0915  1.8827  1.6923
  185POPC   H2Y21256   0.808   6.453   3.321 -1.2057  0.7164  0.6448
  185POPC   C2321257   0.543   5.923   3.173 -0.8666  0.9364  0.0746
  185POPC   H3R21258   0.651   5.909   3.195 -0.9256  2.3713  1.4483
  185POPC   H3S21259   0.498   5.824   3.197 -1.2360  0.8594 -0.8851
  185POPC   C2421260   0.469   6.020   3.260  0.1112  0.3737 -0.2664
  185POPC   H4R21261   0.359   6.014   3.246  0.1280  0.2778 -0.3607
  185POPC   H4S21262   0.515   6.117   3.232  0.3618  0.1172 -0.7438
  185POPC   C2521263   0.513   6.016   3.408 -0.5540  0.6637  1.3314
  185POPC   H5R21264   0.445   6.084   3.465 -2.6353 -1.1892  1.1861
  185POPC   H5S21265   0.613   6.063   3.404  0.3267 -1.0450 -3.4788
  185POPC   C2621266   0.532   5.871   3.475  0.6864 -0.3993 -0.3030
  185POPC   H6R21267   0.609   5.804   3.432  0.5811 -1.6719  1.3977
  185POPC   H6S21268   0.437   5.819   3.454 -1.4504  3.4820 -1.2841
  185POPC   C2721269   0.547   5.876   3.631 -0.2258  0.0242 -0.1785
  185POPC   H7R21270   0.453   5.909   3.680 -0.1478  1.5589 -1.0104
  185POPC   H7S21271   0.626   5.944   3.668 -1.7061  0.6315  2.0627
  185POPC   C2821272   0.579   5.732   3.688  0.3107 -0.4208 -0.5491
  185POPC   H8R21273   0.634   5.734   3.784  1.1653 -0.7875 -1.0183
  185POPC   H8S21274   0.645   5.679   3.616 -0.4481 -0.7899 -0.9913
  185POPC   C2921275   0.454   5.648   3.705  0.3765 -0.2107 -0.7532
  185POPC   H9121276   0.374   5.656   3.629 -3.2311  0.6434  2.7610
  185POPC  C21021277   0.431   5.567   3.809  0.7072  0.3042  0.6294
  185POPC  H10121278   0.327   5.533   3.817  0.1125  2.0520  0.7405
  185POPC  C21121279   0.515   5.511   3.916  0.1393  0.8652 -0.2529
  185POPC  H11R21280   0.611   5.492   3.865  1.1309 -1.1219  2.1348
  185POPC  H11S21281   0.482   5.412   3.954  0.4863  1.0946  0.6690
  185POPC  C21221282   0.532   5.609   4.030  0.6580 -0.9161 -0.3460
  185POPC  H12R21283   0.431   5.631   4.071  1.4486  2.4165  0.0308
  185POPC  H12S21284   0.580   5.702   3.993  0.1546 -0.7696 -0.6416
  185POPC  C21321285   0.630   5.560   4.139  0.1406  0.3188  0.1485
  185POPC  H13R21286   0.689   5.644   4.180  1.2473 -0.7679  0.8411
  185POPC  H13S21287   0.704   5.493   4.089 -0.9932 -0.9011  0.0468
  185POPC  C21421288   0.559   5.486   4.259  0.2998 -0.2585  0.0013
  185POPC  H14R21289   0.472   5.428   4.221 -0.0496 -1.3185  2.2524
  185POPC  H14S21290   0.503   5.563   4.317 -0.5009 -1.2176  0.5415
  185POPC  C21521291   0.646   5.422   4.357  0.7793  0.7715 -0.1394
  185POPC  H15R21292   0.713   5.494   4.408 -0.7872  0.9513  1.7908
  185POPC  H15S21293   0.712   5.347   4.309 -0.7856 -0.4748 -0.4358
  185POPC  C21621294   0.549   5.348   4.461  0.2438 -0.6044  0.0983
  185POPC  H16R21295   0.473   5.289   4.406 -0.5823  1.0861 -0.6656
  185POPC  H16S21296   0.486   5.417   4.522  0.4773 -2.7247  2.9654
  185POPC  C21721297   0.611   5.235   4.539 -0.2776  0.0138  0.0145
  185POPC  H17R21298   0.700   5.278   4.590 -0.6096 -1.1194  1.6556
  185POPC  H17S21299   0.654   5.162   4.468  1.0708  1.8890 -1.1813
  185POPC  C21821300   0.509   5.186   4.640  0.1681 -0.7433  0.6794
  185POPC  H18R21301   0.418   5.149   4.588  1.0680 -2.2507  0.1100
  185POPC  H18S21302   0.473   5.268   4.707  0.9294  0.4012 -0.2717
  185POPC  H18T21303   0.545   5.098   4.698 -1.4911 -2.0026 -0.1395
  185POPC   C3321304   0.900   6.253   3.280  0.2273 -0.4549  1.1560
  185POPC   H3X21305   0.995   6.277   3.229 -0.7051 -0.6180 -0.7654
  185POPC   H3Y21306   0.866   6.157   3.235  1.4838 -0.3526 -0.0825
  185POPC   C3421307   0.942   6.225   3.424  0.0168  0.0434 -0.0432
  185POPC   H4X21308   0.989   6.125   3.439  0.9548  0.4216 -0.3677
  185POPC   H4Y21309   0.851   6.222   3.488 -1.5107 -3.2424 -2.1407
  185POPC   C3521310   1.055   6.313   3.474 -0.1247 -0.5643  0.4945
  185POPC   H5X21311   1.015   6.414   3.447  1.6538  0.2768  0.8435
  185POPC   H5Y21312   1.140   6.290   3.406  1.5165  0.8318  1.9685
  185POPC   C3621313   1.084   6.275   3.617  0.3356 -1.2850  0.0653
  185POPC   H6X21314   1.096   6.165   3.629  0.2077 -1.1245  1.8545
  185POPC   H6Y21315   1.001   6.322   3.673 -0.1796  0.9558 -2.3566
  185POPC   C3721316   1.216   6.343   3.655 -0.7318  0.4170  0.0338
  185POPC   H7X21317   1.211   6.454   3.659  3.4646  0.8632 -1.8022
  185POPC   H7Y21318   1.284   6.324   3.569 -0.1956  2.1377  0.0356
  185POPC   C3821319   1.278   6.277   3.778 -0.5046 -0.0834 -0.0617
  185POPC   H8X21320   1.360   6.344   3.811  1.7515 -2.9027  0.4239
  185POPC   H8Y21321   1.334   6.188   3.744  1.0350  0.5667  0.6967
  185POPC   C3921322   1.184   6.265   3.894 -0.0145  0.5922  0.4630
  185POPC   H9X21323   1.125   6.171   3.891  0.1731  0.5037 -1.2429
  185POPC   H9Y21324   1.116   6.352   3.877 -0.4563  0.0056 -0.8776
  185POPC  C31021325   1.242   6.258   4.037 -0.1283 -0.3236  0.1221
  185POPC  H10X21326   1.161   6.284   4.108  1.9219  1.5384  1.9169
  185POPC  H10Y21327   1.320   6.336   4.048 -0.8925  0.2916  1.3530
  185POPC  C31121328   1.276   6.111   4.078 -1.0057 -0.0619 -0.8583
  185POPC  H11X21329   1.340   6.058   4.004 -1.0525 -0.8051 -0.3776
  185POPC  H11Y21330   1.182   6.053   4.063 -1.0726 -0.0274 -0.5761
  185POPC  C31221331   1.323   6.101   4.225 -0.0861 -0.2950  0.0531
  185POPC  H12X21332   1.299   6.006   4.277  1.1259 -0.2864  0.6528
  185POPC  H12Y21333   1.261   6.171   4.284  1.8451  0.6063  1.1027
  185POPC  C31321334   1.475   6.125   4.248  0.0302 -0.0161 -0.4544
  185POPC  H13X21335   1.507   6.221   4.204 -0.2572 -1.0688 -3.1209
  185POPC  H13Y21336   1.514   6.041   4.187 -0.3776  0.6896 -1.7300
  185POPC  C31421337   1.537   6.105   4.393  0.3396 -0.2686 -0.5561
  185POPC  H14X21338   1.647   6.087   4.388  0.8521  2.3432  0.1207
  185POPC  H14Y21339   1.506   6.010   4.442 -1.1184  0.1081 -0.7238
  185POPC  C31521340   1.536   6.225   4.501  0.5273  0.2196  0.2238
  185POPC  H15X21341   1.554   6.190   4.605 -2.7659 -0.8686  0.5301
  185POPC  H15Y21342   1.431   6.258   4.511  0.8932  0.8739  2.4500
  185POPC  C31621343   1.631   6.332   4.468  0.3243 -0.2257  0.4612
  185POPC  H16X21344   1.641   6.410   4.546 -1.5789  0.5255  0.0118
  185POPC  H16Y21345   1.603   6.385   4.374  0.3284 -0.3805  0.3733
  185POPC  H16Z21346   1.736   6.299   4.452  0.3402 -0.2165  0.5475
  186POPC     N21347   4.991   3.138   2.765 -0.6050 -0.8022 -0.3665
  186POPC   C1221348   5.019   3.178   2.908 -0.1855  0.2585  0.4042
  186POPC  H12A21349   5.000   3.283   2.922  0.8701  0.6226 -0.7623
  186POPC  H12B21350   5.124   3.166   2.931 -0.2914  0.8292  1.2511
  186POPC   C1321351   4.845   3.136   2.737  0.3385 -0.2615 -0.0921
  186POPC  H13A21352   4.809   3.046   2.783  0.6854 -1.0224 -1.2633
  186POPC  H13B21353   4.796   3.227   2.771 -1.4155 -0.6485 -1.4204
  186POPC  H13C21354   4.818   3.132   2.632  0.2243  2.0917 -0.2075
  186POPC   C1421355   5.064   3.232   2.674  0.8052  0.2660  0.5422
  186POPC  H14A21356   5.034   3.335   2.677  0.5930  0.1936  0.9407
  186POPC  H14B21357   5.169   3.230   2.698  1.5362 -0.5698 -2.3069
  186POPC  H14C21358   5.058   3.205   2.569 -0.0732 -0.5543  0.7855
  186POPC   C1521359   5.043   3.000   2.730 -0.4973  0.0236 -0.7692
  186POPC  H15A21360   5.149   2.998   2.747 -0.3997  1.5489 -1.0627
  186POPC  H15B21361   5.026   2.969   2.628 -0.1823 -1.3983 -0.4176
  186POPC  H15C21362   4.996   2.927   2.795  3.2811 -2.1671 -0.2230
  186POPC   C1121363   4.942   3.104   3.014  0.0827  0.5124 -0.5061
  186POPC  H11A21364   4.833   3.118   3.001 -0.0548 -1.7247 -2.3672
  186POPC  H11B21365   4.965   3.149   3.113 -1.1079 -0.0865  0.0662
  186POPC     P21366   5.102   2.903   3.079  0.3631 -0.0571 -0.4826
  186POPC   O1321367   5.186   3.024   3.112  0.1092  0.0807 -0.0852
  186POPC   O1421368   5.148   2.797   2.987  0.1044  0.6991  0.0806
  186POPC   O1221369   4.966   2.968   3.017 -0.8108  0.3752  0.0936
  186POPC   O1121370   5.050   2.838   3.217  0.1753  0.3357  0.5648
  186POPC    C121371   4.957   2.735   3.209 -0.0345  0.0615  0.3233
  186POPC    HA21372   5.013   2.648   3.169 -1.0166 -0.2119 -0.5025
  186POPC    HB21373   4.873   2.750   3.139 -0.1433  0.1514  0.4718
  186POPC    C221374   4.894   2.709   3.350  0.6229 -0.4534 -0.2728
  186POPC    HS21375   4.801   2.649   3.337 -0.7369  1.7222 -1.2142
  186POPC   O2121376   4.858   2.829   3.423 -0.3229  0.2266  0.1020
  186POPC   C2121377   4.791   2.921   3.364 -0.3484  0.0562 -0.0714
  186POPC   O2221378   4.703   2.905   3.280 -0.0412 -0.1314  0.0553
  186POPC   C2221379   4.832   3.055   3.422 -0.9263  0.4054 -0.4105
  186POPC   H2R21380   4.799   3.139   3.358 -0.0756  0.1736 -1.1694
  186POPC   H2S21381   4.942   3.044   3.425 -1.0136 -0.7624 -0.6714
  186POPC    C321382   4.991   2.623   3.429  0.1599 -0.1724 -1.1845
  186POPC    HX21383   5.094   2.665   3.417  0.6456 -1.2657 -0.9715
  186POPC    HY21384   4.988   2.517   3.397 -1.3172  0.1935 -2.3454
  186POPC   O3121385   4.961   2.638   3.567  0.2658  0.2725 -0.0775
  186POPC   C3121386   4.871   2.549   3.611 -0.3585  0.2534  0.0360
  186POPC   O3221387   4.824   2.459   3.544  0.7065 -0.4631 -0.5146
  186POPC   C3221388   4.848   2.585   3.762  0.3378 -0.3232  0.3455
  186POPC   H2X21389   4.876   2.691   3.776  0.1252 -0.1084 -0.7353
  186POPC   H2Y21390   4.910   2.526   3.832  0.3557 -2.2803 -1.2105
  186POPC   C2321391   4.780   3.078   3.566 -0.2600 -0.0123  0.4536
  186POPC   H3R21392   4.671   3.058   3.569 -0.4824  1.1059  0.2800
  186POPC   H3S21393   4.806   3.179   3.604 -1.2410  1.0721 -1.5724
  186POPC   C2421394   4.834   2.971   3.666 -0.6016 -0.3265  0.1303
  186POPC   H4R21395   4.944   2.980   3.678  0.0913 -1.5481 -3.8766
  186POPC   H4S21396   4.803   2.869   3.634 -0.9145 -0.3636  0.5359
  186POPC   C2521397   4.759   2.980   3.803 -0.2274 -0.5583  0.4764
  186POPC   H5R21398   4.807   2.916   3.880 -1.1379  1.4707  2.8745
  186POPC   H5S21399   4.654   2.947   3.785 -0.6378  0.0560  1.5960
  186POPC   C2621400   4.746   3.122   3.862 -0.3310 -0.0307  0.3318
  186POPC   H6R21401   4.700   3.191   3.787  0.2499 -1.6354 -1.6015
  186POPC   H6S21402   4.846   3.163   3.887  0.5677 -0.8705 -1.6155
  186POPC   C2721403   4.672   3.124   3.998 -0.1173 -0.0025 -0.4131
  186POPC   H7R21404   4.686   3.029   4.054 -3.5366  0.0459  0.7793
  186POPC   H7S21405   4.564   3.127   3.972 -0.6786  0.5392  1.7390
  186POPC   C2821406   4.714   3.236   4.101 -0.7311  0.5999  0.2004
  186POPC   H8R21407   4.716   3.331   4.045  0.1468  0.2511 -0.3829
  186POPC   H8S21408   4.814   3.204   4.139 -0.5383 -0.3741 -1.0702
  186POPC   C2921409   4.628   3.251   4.220 -0.2159 -0.3048  0.5997
  186POPC   H9121410   4.520   3.250   4.198 -0.7194 -1.5871  2.9289
  186POPC  C21021411   4.666   3.271   4.347  0.1187  0.4070  1.2684
  186POPC  H10121412   4.587   3.271   4.424 -1.2188 -0.6340 -0.0549
  186POPC  C21121413   4.806   3.298   4.397  0.2111  0.1321  0.2100
  186POPC  H11R21414   4.795   3.366   4.484 -2.8218  0.8534 -0.6186
  186POPC  H11S21415   4.862   3.340   4.311  1.4711 -3.0297 -0.6627
  186POPC  C21221416   4.878   3.169   4.443  0.1013  0.3276 -0.2159
  186POPC  H12R21417   4.987   3.189   4.452 -0.0116  1.0385 -0.3858
  186POPC  H12S21418   4.857   3.095   4.364  2.6328 -1.7150  0.8627
  186POPC  C21321419   4.816   3.109   4.575  0.2114  0.1901 -0.2416
  186POPC  H13R21420   4.720   3.161   4.593 -0.1140 -0.9456  1.5736
  186POPC  H13S21421   4.893   3.138   4.650  0.1452  0.5475 -0.3077
  186POPC  C21421422   4.811   2.951   4.584  0.1252 -0.9502  0.0334
  186POPC  H14R21423   4.912   2.911   4.560  1.1972 -0.8055  3.6941
  186POPC  H14S21424   4.745   2.907   4.506  0.4944  0.3379 -1.0593
  186POPC  C21521425   4.769   2.900   4.718 -0.4095  0.8314  0.1836
  186POPC  H15R21426   4.670   2.942   4.745 -0.8105  0.0721 -0.0855
  186POPC  H15S21427   4.846   2.920   4.795 -0.8291 -2.4227  1.5910
  186POPC  C21621428   4.746   2.746   4.719 -0.4835 -0.5550  0.1077
  186POPC  H16R21429   4.832   2.692   4.673  1.2766  1.4728  0.8558
  186POPC  H16S21430   4.660   2.732   4.650 -0.6411 -1.5393  0.4855
  186POPC  C21721431   4.699   2.685   4.851 -0.1658 -0.4920  0.0556
  186POPC  H17R21432   4.608   2.742   4.879 -1.3272 -0.7959 -2.7637
  186POPC  H17S21433   4.778   2.697   4.928  1.0834 -0.2724 -1.2304
  186POPC  C21821434   4.670   2.532   4.845  0.4243  0.2881  0.0710
  186POPC  H18R21435   4.745   2.469   4.793  0.7156  1.3314 -0.8199
  186POPC  H18S21436   4.650   2.503   4.950 -1.8475  2.6673  0.3950
  186POPC  H18T21437   4.567   2.517   4.806 -0.0705 -0.7390  1.6706
  186POPC   C3321438   4.702   2.545   3.792 -0.4341 -0.0197 -0.6708
  186POPC   H3X21439   4.675   2.444   3.756 -2.6122 -0.2469  1.3397
  186POPC   H3Y21440   4.635   2.608   3.729  1.4431  0.7501 -1.9864
  186POPC   C3421441   4.664   2.575   3.938  0.6873 -0.6932 -0.1296
  186POPC   H4X21442   4.691   2.682   3.948 -1.3243 -0.1936  0.2777
  186POPC   H4Y21443   4.722   2.520   4.016 -0.5832  2.0217  2.9815
  186POPC   C3521444   4.515   2.560   3.961  0.3448  0.5061  0.9157
  186POPC   H5X21445   4.491   2.455   3.931  0.6568  0.5132  0.6362
  186POPC   H5Y21446   4.456   2.623   3.891  2.6787  1.6022 -0.1667
  186POPC   C3621447   4.473   2.585   4.108 -1.0005 -0.1348  0.2098
  186POPC   H6X21448   4.519   2.506   4.171 -1.5379 -2.7657 -2.4579
  186POPC   H6Y21449   4.363   2.570   4.106 -0.7644 -2.0786 -1.6167
  186POPC   C3721450   4.502   2.726   4.152 -0.3899  0.2298 -0.0768
  186POPC   H7X21451   4.457   2.798   4.080  1.1537  0.7247 -0.5774
  186POPC   H7Y21452   4.611   2.742   4.162 -0.3334  0.8765 -1.4860
  186POPC   C3821453   4.436   2.759   4.290  0.2201 -0.1860  0.2703
  186POPC   H8X21454   4.460   2.676   4.360 -0.3112  0.0143  0.6907
  186POPC   H8Y21455   4.328   2.760   4.267  0.8037 -2.0509 -3.5242
  186POPC   C3921456   4.475   2.905   4.334  0.2510  0.5959  0.5713
  186POPC   H9X21457   4.417   2.977   4.272  1.1586  1.5151  0.7684
  186POPC   H9Y21458   4.583   2.926   4.318 -0.4555  3.6849 -0.9846
  186POPC  C31021459   4.442   2.935   4.480 -0.5249  0.3507 -0.4738
  186POPC  H10X21460   4.526   3.003   4.506  1.5337 -2.2199  0.0568
  186POPC  H10Y21461   4.442   2.843   4.543  0.2211  0.2259 -0.6417
  186POPC  C31121462   4.303   3.005   4.502 -0.6576  0.2829  0.9316
  186POPC  H11X21463   4.222   2.958   4.443 -1.2090  1.2375  0.8963
  186POPC  H11Y21464   4.308   3.114   4.478 -1.8446  0.0035 -0.7458
  186POPC  C31221465   4.265   2.997   4.644 -0.0436  1.0349  0.0391
  186POPC  H12X21466   4.243   2.889   4.656  0.9800  0.3052 -3.4545
  186POPC  H12Y21467   4.169   3.052   4.637  1.1472  3.1203 -0.8805
  186POPC  C31321468   4.358   3.048   4.756  0.3277  0.2190 -0.5949
  186POPC  H13X21469   4.436   2.969   4.755 -0.5508 -0.7027 -2.7029
  186POPC  H13Y21470   4.304   3.049   4.853  2.1692 -0.5868  0.5016
  186POPC  C31421471   4.413   3.182   4.732 -0.2702 -0.6465 -0.2703
  186POPC  H14X21472   4.332   3.258   4.719 -0.6766 -1.2405 -1.3759
  186POPC  H14Y21473   4.473   3.174   4.639  1.0430  0.3197  0.4659
  186POPC  C31521474   4.501   3.237   4.848  0.1329  0.5273  0.3643
  186POPC  H15X21475   4.566   3.151   4.874 -1.4470 -1.3433 -1.5479
  186POPC  H15Y21476   4.440   3.246   4.940  0.1991  0.8094  0.3837
  186POPC  C31621477   4.571   3.360   4.809 -0.2986  0.0256  0.4174
  186POPC  H16X21478   4.659   3.349   4.741 -2.2850 -0.7902 -2.1534
  186POPC  H16Y21479   4.608   3.412   4.900  0.7870 -0.1777  0.1084
  186POPC  H16Z21480   4.503   3.422   4.747  1.7444  0.3960 -1.6102
  187POPC     N21481   2.837   4.359   2.389 -0.1689  0.1716  0.1636
  187POPC   C1221482   2.867   4.359   2.543  0.2969 -0.6275  0.2208
  187POPC  H12A21483   2.849   4.462   2.570  1.7205 -0.4646  0.6042
  187POPC  H12B21484   2.974   4.345   2.547  0.5412 -0.2316 -2.6168
  187POPC   C1321485   2.871   4.224   2.334 -0.3910 -0.3039 -0.6740
  187POPC  H13A21486   2.977   4.205   2.341 -0.3047  0.3996  0.0444
  187POPC  H13B21487   2.806   4.151   2.380  1.1959 -0.7123  0.9983
  187POPC  H13C21488   2.847   4.221   2.228 -1.4385 -0.2340 -0.4480
  187POPC   C1421489   2.696   4.401   2.359  0.3968 -0.3633 -0.0736
  187POPC  H14A21490   2.679   4.501   2.397 -1.0882 -0.7036  0.2234
  187POPC  H14B21491   2.664   4.402   2.256 -2.4086  2.7058  0.6243
  187POPC  H14C21492   2.628   4.335   2.411  1.3609 -1.5690 -0.3262
  187POPC   C1521493   2.931   4.466   2.326 -0.1088 -0.2654  0.4617
  187POPC  H15A21494   2.919   4.566   2.365 -0.7690  0.7864 -2.2156
  187POPC  H15B21495   2.904   4.478   2.222 -0.1967 -0.2600  0.4860
  187POPC  H15C21496   3.036   4.441   2.338 -0.6712 -2.5449  0.8756
  187POPC   C1121497   2.799   4.252   2.631 -0.4321 -0.6485  0.5512
  187POPC  H11A21498   2.850   4.262   2.729  0.8199  0.4975 -0.1718
  187POPC  H11B21499   2.819   4.151   2.589 -1.2276 -0.4671 -0.2956
  187POPC     P21500   2.605   4.399   2.729  0.3612  0.1239  0.1430
  187POPC   O1321501   2.466   4.425   2.676 -0.2928 -0.0150 -0.4956
  187POPC   O1421502   2.703   4.504   2.740  0.0779  0.0541  0.3127
  187POPC   O1221503   2.662   4.270   2.643 -0.4581 -0.7467 -0.0995
  187POPC   O1121504   2.590   4.330   2.870  0.6942 -0.1573  0.0096
  187POPC    C121505   2.585   4.186   2.891 -0.2071  0.1434  0.1755
  187POPC    HA21506   2.670   4.142   2.946 -0.9448 -2.0125 -0.3109
  187POPC    HB21507   2.578   4.134   2.793  1.7391  0.2160 -0.0371
  187POPC    C221508   2.454   4.146   2.974 -0.0496  0.1935  0.1329
  187POPC    HS21509   2.368   4.173   2.910  0.4088  2.2166  0.3007
  187POPC   O2121510   2.455   4.219   3.098 -0.2547  0.1224 -1.0759
  187POPC   C2121511   2.328   4.221   3.152 -0.4600 -0.7151  0.3306
  187POPC   O2221512   2.224   4.187   3.099 -0.1355  0.4630  0.7501
  187POPC   C2221513   2.329   4.284   3.293  0.5170  0.1155  0.3160
  187POPC   H2R21514   2.272   4.225   3.368 -2.3461  0.6310 -1.3173
  187POPC   H2S21515   2.275   4.380   3.282  0.6683  0.0378 -1.4136
  187POPC    C321516   2.454   3.998   2.987  0.1306  1.4045 -0.7146
  187POPC    HX21517   2.444   3.954   2.885 -1.0077  1.3282 -0.5759
  187POPC    HY21518   2.360   3.962   3.033  0.6806 -0.3808 -0.9134
  187POPC   O3121519   2.564   3.939   3.059 -0.2041  0.8897  0.0890
  187POPC   C3121520   2.558   3.930   3.187 -0.1396 -0.6669  0.8674
  187POPC   O3221521   2.469   3.973   3.259 -0.9997  0.5504 -0.6578
  187POPC   C3221522   2.682   3.852   3.241 -0.1003  0.9103  0.3845
  187POPC   H2X21523   2.769   3.922   3.247  1.3035 -0.8078  1.0433
  187POPC   H2Y21524   2.716   3.785   3.159 -0.5094  0.6859  0.3959
  187POPC   C2321525   2.467   4.319   3.361 -0.0432  0.2607  0.2735
  187POPC   H3R21526   2.528   4.380   3.292 -0.0818  0.3978  0.3598
  187POPC   H3S21527   2.521   4.227   3.393 -1.9830 -0.4700  1.6621
  187POPC   C2421528   2.441   4.401   3.487 -0.3899 -0.1412 -0.6938
  187POPC   H4R21529   2.363   4.359   3.553  2.1270  1.2758  3.6418
  187POPC   H4S21530   2.405   4.503   3.460 -2.0014 -0.4547  0.1455
  187POPC   C2521531   2.564   4.409   3.577  0.0937 -0.6795 -0.2445
  187POPC   H5R21532   2.597   4.306   3.601 -0.2274 -0.5951  0.5889
  187POPC   H5S21533   2.537   4.451   3.676 -0.5271 -2.1758  0.2577
  187POPC   C2621534   2.671   4.498   3.515  0.0029 -0.8846 -0.6321
  187POPC   H6R21535   2.612   4.563   3.446 -0.6906 -2.8340 -1.9864
  187POPC   H6S21536   2.744   4.434   3.461  1.1954 -0.0269 -0.0707
  187POPC   C2721537   2.760   4.578   3.621 -0.0085  0.2215 -0.0292
  187POPC   H7R21538   2.697   4.634   3.693 -2.1817 -0.6770 -1.1610
  187POPC   H7S21539   2.806   4.659   3.560 -1.0806  1.6323  0.9628
  187POPC   C2821540   2.868   4.498   3.695 -0.1988 -0.3165  0.3808
  187POPC   H8R21541   2.936   4.443   3.626  0.7440  1.8752 -0.5486
  187POPC   H8S21542   2.812   4.417   3.746  2.3841 -1.0290  2.3409
  187POPC   C2921543   2.947   4.562   3.807  0.8577 -0.0396  0.1426
  187POPC   H9121544   3.050   4.589   3.778  0.8897  0.1277  0.4049
  187POPC  C21021545   2.919   4.558   3.936 -0.1339  0.8435 -0.3303
  187POPC  H10121546   2.980   4.609   4.012  0.1044 -1.0559  0.8076
  187POPC  C21121547   2.788   4.506   3.993  0.4407  0.1407  0.0867
  187POPC  H11R21548   2.706   4.535   3.925  0.2255  1.8576  1.0022
  187POPC  H11S21549   2.771   4.559   4.090  0.3787  0.1122  0.0912
  187POPC  C21221550   2.798   4.353   4.025  0.9279  0.2823  0.1951
  187POPC  H12R21551   2.840   4.301   3.936 -1.4193 -0.0508 -0.7797
  187POPC  H12S21552   2.694   4.322   4.045  2.2886 -4.3710  1.4273
  187POPC  C21321553   2.882   4.317   4.152  0.0285  0.2058  0.0597
  187POPC  H13R21554   2.836   4.375   4.235  0.1247 -1.5234  1.3828
  187POPC  H13S21555   2.987   4.349   4.133 -0.0260  0.8459  0.7765
  187POPC  C21421556   2.881   4.169   4.194 -0.0255  0.4175 -0.7624
  187POPC  H14R21557   2.917   4.093   4.121 -0.1865 -0.4306  0.0302
  187POPC  H14S21558   2.778   4.132   4.208  1.5672 -4.7568 -0.8116
  187POPC  C21521559   2.955   4.166   4.331  0.5433  0.2225 -0.3759
  187POPC  H15R21560   2.945   4.061   4.367 -0.3454  0.5807  0.4733
  187POPC  H15S21561   2.914   4.241   4.402  0.2485  1.9268 -2.2585
  187POPC  C21621562   3.101   4.189   4.314 -0.5127 -0.4697 -0.2767
  187POPC  H16R21563   3.111   4.299   4.303 -0.7340 -0.5545 -1.3967
  187POPC  H16S21564   3.121   4.138   4.218 -0.0778  0.3992 -0.6513
  187POPC  C21721565   3.188   4.135   4.427 -0.5363  0.4423 -0.5210
  187POPC  H17R21566   3.165   4.190   4.521 -0.5081 -0.7804  0.2176
  187POPC  H17S21567   3.292   4.151   4.392 -0.3415 -2.7977 -1.7396
  187POPC  C21821568   3.179   3.985   4.456 -0.4579 -0.0271  0.9959
  187POPC  H18R21569   3.189   3.924   4.363  2.6713 -0.6683  1.6491
  187POPC  H18S21570   3.082   3.955   4.501 -0.4380  0.0513  1.0891
  187POPC  H18T21571   3.258   3.951   4.526 -1.6585 -0.2828  2.2788
  187POPC   C3321572   2.652   3.775   3.367 -0.3511  0.0537 -0.1158
  187POPC   H3X21573   2.571   3.701   3.353  0.3142 -0.7225  0.0307
  187POPC   H3Y21574   2.614   3.844   3.446  1.5178  0.4565  0.4955
  187POPC   C3421575   2.783   3.692   3.416  0.2001 -0.0940  0.0435
  187POPC   H4X21576   2.863   3.768   3.410 -0.0885  0.2637  0.5991
  187POPC   H4Y21577   2.798   3.618   3.335 -3.5439 -0.9377 -0.0919
  187POPC   C3521578   2.751   3.627   3.557 -0.0624 -0.1638  0.6360
  187POPC   H5X21579   2.664   3.559   3.547 -2.3096  2.6640 -0.8047
  187POPC   H5Y21580   2.721   3.711   3.624 -0.7044  1.2743 -1.3410
  187POPC   C3621581   2.870   3.550   3.606 -0.4658  0.6195 -0.4036
  187POPC   H6X21582   2.962   3.611   3.600  1.1228 -1.3230  1.8817
  187POPC   H6Y21583   2.877   3.464   3.536  0.4591  0.1208  0.2859
  187POPC   C3721584   2.841   3.497   3.745 -0.0235  0.1306  0.1028
  187POPC   H7X21585   2.915   3.425   3.788  0.3049 -0.1009 -0.8179
  187POPC   H7Y21586   2.745   3.442   3.742 -1.1639  1.6618  3.7282
  187POPC   C3821587   2.835   3.605   3.854  0.1049  0.0032 -0.4316
  187POPC   H8X21588   2.766   3.680   3.811 -0.3815 -0.0649  0.2177
  187POPC   H8Y21589   2.937   3.642   3.877  1.3123 -0.9950 -3.6111
  187POPC   C3921590   2.783   3.554   3.985  0.6548  0.2458 -0.5179
  187POPC   H9X21591   2.834   3.609   4.067 -0.4513 -0.8835  0.9812
  187POPC   H9Y21592   2.801   3.446   4.003 -0.9185 -0.4607 -2.8159
  187POPC  C31021593   2.636   3.578   4.002  0.0390  0.3994 -0.2235
  187POPC  H10X21594   2.583   3.514   3.927  0.5754  0.1046 -0.3511
  187POPC  H10Y21595   2.609   3.685   3.993 -1.5318 -0.0862 -1.8496
  187POPC  C31121596   2.580   3.535   4.137  0.1199 -0.7385 -0.8413
  187POPC  H11X21597   2.607   3.620   4.203  0.2837 -0.9781 -0.5949
  187POPC  H11Y21598   2.630   3.441   4.168 -1.3780 -1.6275 -1.0002
  187POPC  C31221599   2.423   3.520   4.147  0.0252  0.1629 -0.7604
  187POPC  H12X21600   2.395   3.446   4.069 -4.7632  0.4144  0.4106
  187POPC  H12Y21601   2.369   3.614   4.123  0.6919  0.4912 -0.9884
  187POPC  C31321602   2.387   3.454   4.281  0.3234 -0.1883  0.3334
  187POPC  H13X21603   2.454   3.508   4.352 -0.4298  0.6299  0.4469
  187POPC  H13Y21604   2.418   3.348   4.287  2.2757  0.3690  0.7014
  187POPC  C31421605   2.238   3.460   4.315 -0.4835  0.1804 -0.2496
  187POPC  H14X21606   2.172   3.432   4.229 -2.9703  2.1940  0.8619
  187POPC  H14Y21607   2.213   3.566   4.337 -0.9477 -0.3427  1.9483
  187POPC  C31521608   2.218   3.374   4.444  0.3622  0.2755  0.3868
  187POPC  H15X21609   2.288   3.405   4.525 -0.1492  1.9011  0.2546
  187POPC  H15Y21610   2.234   3.268   4.415 -0.9458  0.1175  0.1777
  187POPC  C31621611   2.076   3.388   4.497 -0.1356  0.1876 -0.7373
  187POPC  H16X21612   2.062   3.497   4.513  0.1523  0.0318  0.6755
  187POPC  H16Y21613   2.063   3.336   4.594  2.4851  0.8419  0.0397
  187POPC  H16Z21614   1.998   3.352   4.426 -0.8594 -2.6493  1.3522
  188POPC     N21615   4.988   5.953   2.258  0.5277 -0.1240  0.0401
  188POPC   C1221616   4.974   5.914   2.403 -0.2932 -0.3619 -0.4769
  188POPC  H12A21617   5.066   5.924   2.459 -1.0443 -0.0403  0.7291
  188POPC  H12B21618   4.945   5.810   2.408 -0.6648 -0.2384  0.0105
  188POPC   C1321619   5.102   5.879   2.195 -0.1505 -0.3684  0.0846
  188POPC  H13A21620   5.118   5.900   2.091  1.1724 -1.5692  0.0237
  188POPC  H13B21621   5.187   5.890   2.262  0.0536 -0.4698 -0.1590
  188POPC  H13C21622   5.073   5.776   2.189  0.7955 -0.5462 -2.5702
  188POPC   C1421623   4.858   5.922   2.184 -0.4721 -0.0795  0.0373
  188POPC  H14A21624   4.839   5.816   2.186  1.8068 -0.5749  2.5387
  188POPC  H14B21625   4.774   5.966   2.236 -0.4987 -0.4254  0.2855
  188POPC  H14C21626   4.857   5.948   2.079  0.5363  0.2623  0.0964
  188POPC   C1521627   5.013   6.106   2.256  0.6426  0.2266 -0.8000
  188POPC  H15A21628   5.100   6.139   2.312  0.5479 -0.2700 -0.3413
  188POPC  H15B21629   4.926   6.154   2.298  2.6737  2.0385  1.6748
  188POPC  H15C21630   5.023   6.133   2.153  2.7023  0.0017 -0.7010
  188POPC   C1121631   4.871   5.989   2.485  0.9080 -0.5205  0.5087
  188POPC  H11A21632   4.879   6.100   2.483 -2.0310 -0.2210 -2.2558
  188POPC  H11B21633   4.887   5.959   2.591 -0.2558 -0.7724  0.6223
  188POPC     P21634   4.646   5.853   2.479 -0.2459 -0.1976  0.0688
  188POPC   O1321635   4.707   5.721   2.455 -0.2448  0.0073 -0.2831
  188POPC   O1421636   4.514   5.874   2.414 -0.6765 -0.0120  0.1993
  188POPC   O1221637   4.740   5.970   2.436  0.1601  0.3983 -1.0152
  188POPC   O1121638   4.628   5.882   2.636 -0.6523  0.2469  0.1637
  188POPC    C121639   4.650   5.780   2.736  0.2695 -0.9478 -0.1832
  188POPC    HA21640   4.712   5.818   2.820  0.8282  2.4805 -1.9607
  188POPC    HB21641   4.707   5.696   2.692  0.1313 -0.4335 -1.3747
  188POPC    C221642   4.518   5.718   2.787  0.4325 -0.4044  0.1589
  188POPC    HS21643   4.540   5.654   2.875  1.1103 -0.8934 -0.3655
  188POPC   O2121644   4.454   5.660   2.670  0.1398  0.0684 -0.1522
  188POPC   C2121645   4.512   5.546   2.627  0.0099 -0.1855 -0.3880
  188POPC   O2221646   4.599   5.484   2.681  0.2481  0.2661 -0.0397
  188POPC   C2221647   4.439   5.505   2.496  0.2124  0.0253 -0.3860
  188POPC   H2R21648   4.514   5.450   2.435  0.5853  0.6218 -0.4722
  188POPC   H2S21649   4.423   5.601   2.443 -0.3758  1.7654  2.7195
  188POPC    C321650   4.431   5.835   2.836 -0.0489 -0.7899 -0.2850
  188POPC    HX21651   4.388   5.880   2.744  1.4598 -1.2763 -1.2898
  188POPC    HY21652   4.503   5.910   2.877 -0.5060 -0.1012 -0.7182
  188POPC   O3121653   4.331   5.802   2.929 -0.4271 -0.0921  0.1855
  188POPC   C3121654   4.203   5.817   2.896  0.8097  0.1476  0.1368
  188POPC   O3221655   4.158   5.864   2.793  0.0874 -0.7259 -0.1497
  188POPC   C3221656   4.103   5.776   3.014  0.4108  0.0279 -0.1421
  188POPC   H2X21657   4.068   5.673   2.996  0.3715 -0.3785  2.0153
  188POPC   H2Y21658   4.023   5.853   3.007 -1.5597 -2.0033 -0.7806
  188POPC   C2321659   4.313   5.418   2.521 -0.6563  0.1938  0.1823
  188POPC   H3R21660   4.341   5.321   2.566  2.0898  1.6618  1.9558
  188POPC   H3S21661   4.267   5.385   2.426 -2.5218 -0.6845  1.3580
  188POPC   C2421662   4.208   5.495   2.589  0.0340  0.5122  0.0682
  188POPC   H4R21663   4.113   5.452   2.551  0.0331 -0.6784  1.3200
  188POPC   H4S21664   4.210   5.601   2.558 -0.5890  0.8305  1.0941
  188POPC   C2521665   4.204   5.475   2.740 -0.5073 -0.0587 -0.4830
  188POPC   H5R21666   4.165   5.567   2.789 -0.8987  0.1165 -1.1023
  188POPC   H5S21667   4.307   5.479   2.781 -1.0983  1.9190  0.9417
  188POPC   C2621668   4.122   5.351   2.790 -0.4311  0.5611 -0.3755
  188POPC   H6R21669   4.175   5.266   2.743  0.7782  1.3149 -0.4368
  188POPC   H6S21670   4.027   5.352   2.732  1.2474 -0.7538 -3.3810
  188POPC   C2721671   4.111   5.322   2.946 -0.0473  0.2908 -0.0115
  188POPC   H7R21672   4.094   5.213   2.941  0.3338  0.2575 -0.6737
  188POPC   H7S21673   4.019   5.368   2.989 -0.2637  0.0032 -0.1656
  188POPC   C2821674   4.242   5.364   3.010  0.4301 -0.1317 -0.0435
  188POPC   H8R21675   4.260   5.472   2.995 -0.2232  0.2100  1.4365
  188POPC   H8S21676   4.332   5.314   2.967 -0.3773  0.4529 -2.6041
  188POPC   C2921677   4.235   5.345   3.159 -0.2443 -0.2287 -0.8539
  188POPC   H9121678   4.135   5.345   3.206  1.6439 -0.0945  3.6858
  188POPC  C21021679   4.333   5.321   3.256  1.0721  0.7567  0.0652
  188POPC  H10121680   4.307   5.290   3.358  2.3757 -1.2804 -0.1743
  188POPC  C21121681   4.478   5.302   3.221  0.5640 -0.7021 -0.1823
  188POPC  H11R21682   4.488   5.339   3.117 -3.0922  0.0145 -0.4186
  188POPC  H11S21683   4.504   5.195   3.227 -0.6407 -0.9496  1.0554
  188POPC  C21221684   4.591   5.369   3.300 -0.6077  0.0947 -0.3672
  188POPC  H12R21685   4.692   5.360   3.256  0.0554  1.7487  0.7185
  188POPC  H12S21686   4.592   5.328   3.403 -0.4011 -1.1435 -0.8513
  188POPC  C21321687   4.574   5.521   3.310 -0.4356  0.2213 -0.3297
  188POPC  H13R21688   4.640   5.565   3.387 -0.8075  0.0199  0.1099
  188POPC  H13S21689   4.468   5.524   3.343 -0.1496 -3.4684  1.4685
  188POPC  C21421690   4.594   5.579   3.178 -0.4267  0.0521  0.5273
  188POPC  H14R21691   4.518   5.544   3.105  1.6763  0.4097 -1.9874
  188POPC  H14S21692   4.692   5.548   3.137 -0.1893 -0.3292  1.3723
  188POPC  C21521693   4.599   5.735   3.184  0.6098 -0.1019  0.4696
  188POPC  H15R21694   4.499   5.781   3.202  0.7459  1.2550 -1.9287
  188POPC  H15S21695   4.606   5.763   3.077 -0.8928  1.2586  0.6869
  188POPC  C21621696   4.700   5.801   3.276 -0.1218 -0.3727 -0.1865
  188POPC  H16R21697   4.796   5.746   3.263 -0.5127 -1.0311 -0.3167
  188POPC  H16S21698   4.677   5.790   3.384 -2.2046  0.4506 -0.5044
  188POPC  C21721699   4.727   5.946   3.241 -0.3069 -0.5082  0.4727
  188POPC  H17R21700   4.739   5.965   3.132  1.2533  1.2071  0.8830
  188POPC  H17S21701   4.817   5.986   3.293 -2.7115  2.4872  2.7222
  188POPC  C21821702   4.617   6.039   3.289  0.0589 -0.3606  0.8308
  188POPC  H18R21703   4.643   6.146   3.308  0.1677  0.1529 -1.8000
  188POPC  H18S21704   4.571   6.008   3.385 -0.8820  0.2164  0.5812
  188POPC  H18T21705   4.538   6.043   3.210 -0.3661 -0.1106  1.2574
  188POPC   C3321706   4.173   5.781   3.152  0.2918 -0.2359  0.0003
  188POPC   H3X21707   4.190   5.887   3.183  0.2780 -0.5157  0.9893
  188POPC   H3Y21708   4.271   5.728   3.152  0.6916  0.4379 -1.9325
  188POPC   C3421709   4.084   5.722   3.261  0.2145 -0.2853 -0.4090
  188POPC   H4X21710   4.085   5.612   3.246 -0.1416 -0.5669  1.4076
  188POPC   H4Y21711   3.982   5.764   3.246  2.0388  4.9430 -0.1030
  188POPC   C3521712   4.134   5.752   3.406 -0.3737 -0.0489  0.1559
  188POPC   H5X21713   4.106   5.857   3.430 -1.7316 -0.6373  1.3009
  188POPC   H5Y21714   4.245   5.746   3.408 -0.4150 -1.4221 -0.5131
  188POPC   C3621715   4.075   5.649   3.506 -0.3790 -0.4640 -0.8919
  188POPC   H6X21716   3.973   5.620   3.474 -1.0516 -0.1950  0.8568
  188POPC   H6Y21717   4.083   5.704   3.603  2.7764 -1.5557 -0.4252
  188POPC   C3721718   4.172   5.529   3.518  0.5248 -0.3553  0.3612
  188POPC   H7X21719   4.196   5.491   3.416 -1.3653  1.1580 -0.7339
  188POPC   H7Y21720   4.111   5.443   3.554 -0.6534 -0.0686 -0.8661
  188POPC   C3821721   4.290   5.543   3.601  0.5807 -0.6625  0.3218
  188POPC   H8X21722   4.247   5.567   3.701 -0.8728 -0.8726 -0.2250
  188POPC   H8Y21723   4.354   5.624   3.562 -2.4327  0.6256 -2.4848
  188POPC   C3921724   4.364   5.409   3.634  0.7575  0.5413  0.1195
  188POPC   H9X21725   4.381   5.352   3.540  0.4526  1.8762 -0.7751
  188POPC   H9Y21726   4.296   5.349   3.699 -0.9176  2.2035  0.0085
  188POPC  C31021727   4.504   5.432   3.685  0.7277  0.2753  0.4783
  188POPC  H10X21728   4.551   5.492   3.604 -0.7749  0.9203  0.0541
  188POPC  H10Y21729   4.557   5.336   3.702 -1.1961 -0.8179  0.6155
  188POPC  C31121730   4.513   5.515   3.811  0.0855  0.0001  0.0749
  188POPC  H11X21731   4.441   5.599   3.801  0.7978  0.5975 -0.1770
  188POPC  H11Y21732   4.617   5.554   3.805  0.7347 -1.7034 -4.6736
  188POPC  C31221733   4.496   5.437   3.942  0.1396 -0.1563 -0.5449
  188POPC  H12X21734   4.572   5.357   3.955 -0.1042 -0.1214  1.2720
  188POPC  H12Y21735   4.406   5.372   3.943  1.3946 -2.0870 -2.4220
  188POPC  C31321736   4.510   5.528   4.073 -0.0004 -0.0364  0.1685
  188POPC  H13X21737   4.431   5.606   4.083 -0.2760 -0.1711 -0.8291
  188POPC  H13Y21738   4.603   5.590   4.072 -1.2995  2.0168 -0.9856
  188POPC  C31421739   4.473   5.440   4.198 -0.3985 -0.3396  0.8691
  188POPC  H14X21740   4.505   5.338   4.169  0.9192  0.0810  0.7673
  188POPC  H14Y21741   4.364   5.427   4.217 -0.0097 -1.9481  2.2005
  188POPC  C31521742   4.535   5.493   4.332  0.2060  0.6019  0.1574
  188POPC  H15X21743   4.484   5.585   4.368  1.5337  1.0367  1.0027
  188POPC  H15Y21744   4.646   5.499   4.320 -0.0081  0.9005 -2.1712
  188POPC  C31621745   4.521   5.387   4.442  0.6157  0.3362 -0.4774
  188POPC  H16X21746   4.423   5.381   4.495  0.1264 -0.8889 -1.4709
  188POPC  H16Y21747   4.594   5.414   4.521  0.6719 -2.6235  0.5944
  188POPC  H16Z21748   4.543   5.286   4.401  0.8163 -0.4340  1.3999
  189SAPI   C1221749   1.280   5.479   6.845  0.3200  0.1382 -0.6447
  189SAPI    H221750   1.271   5.373   6.814 -0.9557  0.3669 -1.1609
  189SAPI    O221751   1.387   5.548   6.771  0.6913  0.1850 -0.2387
  189SAPI   HO221752   1.400   5.503   6.687 -0.3675 -1.6968  0.5343
  189SAPI   C1321753   1.141   5.533   6.803 -0.4623  0.1300 -0.1759
  189SAPI    H321754   1.073   5.469   6.864  0.7018 -2.0961 -1.1123
  189SAPI    O321755   1.115   5.508   6.664 -0.1640  0.4274 -0.0236
  189SAPI   HO321756   1.026   5.479   6.645 -0.2385  0.7628 -0.1995
  189SAPI   C1421757   1.116   5.677   6.847 -0.6307  0.0991  0.5450
  189SAPI    H421758   1.173   5.740   6.776 -0.3553  1.4039  1.8809
  189SAPI    O421759   0.982   5.722   6.830  0.8403 -0.4019 -0.4940
  189SAPI   HO421760   0.990   5.815   6.809  0.9020 -0.8441 -2.6649
  189SAPI   C1521761   1.167   5.705   6.992 -0.0991 -0.5536 -0.7783
  189SAPI    H521762   1.076   5.688   7.053 -0.4677  3.6454  0.1436
  189SAPI    O521763   1.188   5.845   7.009  0.1608 -0.3168 -0.4943
  189SAPI   HO521764   1.280   5.870   7.017 -0.0194  0.2001 -0.0184
  189SAPI   C1621765   1.283   5.626   7.055 -0.1109 -0.0090  0.9042
  189SAPI    H621766   1.373   5.687   7.031 -0.8000  0.4665 -0.5812
  189SAPI    O621767   1.274   5.618   7.193 -0.6473  0.0293 -0.1190
  189SAPI   HO621768   1.195   5.566   7.211  0.4366 -1.1660  1.5850
  189SAPI   C1121769   1.296   5.485   6.998 -0.3829  0.0912 -0.0392
  189SAPI    H121770   1.221   5.415   7.040  1.6469 -1.8116  0.5658
  189SAPI     P21771   1.451   5.281   7.098  0.1988  0.1401  0.2166
  189SAPI   O1321772   1.330   5.237   7.171  0.6972  0.2273 -0.0854
  189SAPI   O1421773   1.579   5.269   7.176  0.2948  0.3785 -0.4393
  189SAPI   O1221774   1.425   5.429   7.037  0.2639 -0.0253  0.1642
  189SAPI   O1121775   1.457   5.190   6.966  0.0295 -0.7144 -0.3421
  189SAPI    C121776   1.581   5.176   6.897 -0.8345  0.5718  0.0984
  189SAPI    HA21777   1.662   5.237   6.943 -1.9007 -0.8248  4.2926
  189SAPI    HB21778   1.605   5.067   6.899 -2.0747  0.2286 -1.7454
  189SAPI    C221779   1.572   5.210   6.745  0.5415 -0.6656  0.9718
  189SAPI    HS21780   1.536   5.314   6.742 -0.1993 -0.9419 -0.9685
  189SAPI   O2121781   1.488   5.120   6.690 -0.1743  1.0350  0.9360
  189SAPI   C2121782   1.410   5.167   6.596  0.1365  0.6695 -0.2065
  189SAPI   O2221783   1.415   5.279   6.545  0.5112 -0.1326 -0.1499
  189SAPI   C2221784   1.307   5.057   6.559 -0.3837 -0.7505  0.4596
  189SAPI   H2R21785   1.357   4.958   6.559  1.2237  0.0037 -1.5535
  189SAPI   H2S21786   1.223   5.076   6.629 -0.6358  3.4977 -0.7180
  189SAPI    C321787   1.711   5.208   6.670 -0.1505  0.6548  0.0167
  189SAPI    HX21788   1.756   5.107   6.679 -1.1913  0.1180 -0.6356
  189SAPI    HY21789   1.775   5.276   6.730 -1.6795  1.9434  0.2372
  189SAPI   O3121790   1.705   5.233   6.523 -0.7144 -0.4098 -0.4092
  189SAPI   C3121791   1.720   5.354   6.483  0.1569  0.2598  0.6446
  189SAPI   O3221792   1.724   5.453   6.555 -0.1201  0.0768  0.8323
  189SAPI   C3221793   1.728   5.351   6.335 -0.4041  0.3966 -0.2707
  189SAPI   H2X21794   1.829   5.306   6.318 -0.7689 -0.5896  0.0814
  189SAPI   H2Y21795   1.720   5.452   6.290 -1.3210 -0.8283 -3.0661
  189SAPI   C2321796   1.250   5.082   6.417  0.9534 -0.3596  0.4232
  189SAPI   H3R21797   1.321   5.128   6.345  0.9309 -0.4362  0.3509
  189SAPI   H3S21798   1.173   5.160   6.435  0.5539 -0.0480 -2.2048
  189SAPI   C2421799   1.197   4.950   6.354  0.5797  0.2492  0.4862
  189SAPI   H4R21800   1.133   4.991   6.273 -1.1600 -2.1345  0.5285
  189SAPI   H4S21801   1.127   4.913   6.432 -1.1956 -3.2027 -2.3779
  189SAPI   C2521802   1.299   4.853   6.300 -1.1695  0.3360 -0.1777
  189SAPI   H5R21803   1.358   4.807   6.381  0.5712  2.5004 -0.0902
  189SAPI   C2621804   1.334   4.821   6.171  0.8498 -0.1612 -0.5353
  189SAPI   H6R21805   1.402   4.738   6.147  0.1589 -1.3267  1.3524
  189SAPI   C2721806   1.264   4.869   6.045 -0.5394  0.7449  0.1175
  189SAPI   H7R21807   1.163   4.913   6.064 -1.9461 -1.5116 -1.6156
  189SAPI   H7S21808   1.248   4.778   5.983  0.2319  1.5032 -1.2617
  189SAPI   C2821809   1.344   4.973   5.966 -1.0991  0.3547 -0.0951
  189SAPI   H8R21810   1.407   5.034   6.033  2.7885 -2.9395 -0.3588
  189SAPI   C2921811   1.348   4.996   5.836  0.4101 -0.3399  0.0284
  189SAPI   H9R21812   1.397   5.087   5.800  0.1634 -0.6498 -1.1361
  189SAPI  C21021813   1.268   4.935   5.722  0.2386  0.2021 -0.0406
  189SAPI  H10R21814   1.226   5.019   5.663  2.0722  2.4844  1.7284
  189SAPI  H10S21815   1.182   4.879   5.763 -0.2622  0.1011 -1.2021
  189SAPI  C21121816   1.349   4.844   5.636 -0.5821 -0.4659  0.6414
  189SAPI  H11R21817   1.408   4.761   5.678  0.3823 -0.3515 -0.4314
  189SAPI  C21221818   1.362   4.856   5.503  0.2266 -0.2657 -0.5915
  189SAPI  H12R21819   1.430   4.782   5.457  0.7743 -0.3679  0.3598
  189SAPI  C21321820   1.286   4.942   5.409 -0.1248  1.0226  0.3572
  189SAPI  H13R21821   1.311   5.048   5.433 -0.8750  1.3051 -0.0579
  189SAPI  H13S21822   1.177   4.925   5.419  0.1135 -0.7317  0.2292
  189SAPI  C21421823   1.329   4.910   5.269  0.4151 -0.2781  0.4366
  189SAPI  H14R21824   1.362   4.805   5.256  0.7555 -0.3081  1.4553
  189SAPI  C21521825   1.318   4.991   5.166 -0.3433 -0.7515  0.0889
  189SAPI  H15R21826   1.369   4.978   5.070 -3.8792  3.0047 -2.6834
  189SAPI  C21621827   1.272   5.132   5.165  0.2862 -0.0661  0.0183
  189SAPI  H16R21828   1.359   5.201   5.155  0.8361 -0.9120 -1.3647
  189SAPI  H16S21829   1.226   5.156   5.263  0.8877  0.9245  0.0700
  189SAPI  C21721830   1.178   5.169   5.045  0.1664  0.4610  0.0688
  189SAPI  H17R21831   1.233   5.167   4.949 -1.2974 -1.5256 -0.7957
  189SAPI  H17S21832   1.137   5.271   5.062  0.9755  0.9637 -0.8875
  189SAPI  C21821833   1.057   5.071   5.033 -0.6860  0.0050  0.7352
  189SAPI  H18R21834   1.032   5.042   5.137  0.3684  0.6059  1.1674
  189SAPI  H18S21835   1.088   4.975   4.986 -1.0663 -0.7732  2.0179
  189SAPI  C21921836   0.937   5.123   4.956 -0.2365  0.9859 -0.1121
  189SAPI  H19R21837   0.880   5.195   5.018 -1.8357  0.6392 -1.1265
  189SAPI  H19S21838   0.862   5.047   4.924 -1.0341  2.2185 -1.2929
  189SAPI  C22021839   0.966   5.200   4.828 -0.6914  0.4987  0.4316
  189SAPI  H20R21840   0.875   5.206   4.764 -2.1949  1.0364  2.5115
  189SAPI  H20S21841   1.054   5.157   4.777 -1.1089 -2.1662  1.7767
  189SAPI  H20T21842   0.984   5.304   4.862  0.5384  0.6368 -0.5839
  189SAPI   C3321843   1.622   5.275   6.257  0.0354 -0.1713 -0.2706
  189SAPI   H3X21844   1.520   5.313   6.281 -0.3691  0.0297 -2.1346
  189SAPI   H3Y21845   1.617   5.166   6.280  1.0497 -0.6042 -1.9206
  189SAPI   C3421846   1.636   5.298   6.106  0.1050 -0.2790 -0.3552
  189SAPI   H4X21847   1.653   5.407   6.089 -1.0295  0.0087  0.2122
  189SAPI   H4Y21848   1.541   5.259   6.064  1.3421 -2.0203 -1.6596
  189SAPI   C3521849   1.749   5.223   6.038 -0.2254  0.6230  0.1956
  189SAPI   H5X21850   1.724   5.115   6.027 -0.3417  0.5154  1.3561
  189SAPI   H5Y21851   1.833   5.227   6.111 -1.1487  3.2430  1.2487
  189SAPI   C3621852   1.796   5.274   5.907  0.2385  0.0952 -0.2546
  189SAPI   H6X21853   1.892   5.226   5.876  0.0068  0.1445 -1.0691
  189SAPI   H6Y21854   1.822   5.377   5.938  0.8083 -0.0412 -0.2504
  189SAPI   C3721855   1.697   5.276   5.797 -0.2708 -0.0929  0.4485
  189SAPI   H7X21856   1.606   5.331   5.829 -1.4988 -1.6407 -0.2359
  189SAPI   H7Y21857   1.662   5.172   5.779 -1.7522  0.1905  1.4532
  189SAPI   C3821858   1.754   5.342   5.666  0.0313 -0.9923  0.1432
  189SAPI   H8X21859   1.861   5.320   5.647  0.6360  1.1702  0.6674
  189SAPI   H8Y21860   1.763   5.451   5.685 -0.0774 -0.9747  0.0946
  189SAPI   C3921861   1.666   5.317   5.547  0.1242  0.2339  0.2299
  189SAPI   H9X21862   1.568   5.359   5.578  0.9817  0.9123  2.1568
  189SAPI   H9Y21863   1.643   5.210   5.529  1.9308  0.2059 -2.6690
  189SAPI  C31021864   1.709   5.398   5.424  0.1533 -0.2877 -0.9843
  189SAPI  H10X21865   1.809   5.368   5.385  0.3905  0.1865 -0.7471
  189SAPI  H10Y21866   1.710   5.506   5.447  0.4753 -0.5081  0.0729
  189SAPI  C31121867   1.614   5.371   5.308  0.3878 -0.3342 -0.1547
  189SAPI  H11X21868   1.513   5.412   5.329  1.1403  0.3655  2.4352
  189SAPI  H11Y21869   1.611   5.260   5.307  2.8656 -0.5090  1.7927
  189SAPI  C31221870   1.667   5.420   5.179  0.2635  0.0577 -0.3811
  189SAPI  H12X21871   1.775   5.397   5.171  0.6010  1.4905 -0.3340
  189SAPI  H12Y21872   1.661   5.530   5.165  0.8512  0.1038 -0.2899
  189SAPI  C31321873   1.598   5.350   5.069 -0.8774 -0.0015 -0.0147
  189SAPI  H13X21874   1.488   5.361   5.081 -0.8259 -1.2604  2.2387
  189SAPI  H13Y21875   1.611   5.242   5.090  0.2932  0.1361  0.0439
  189SAPI  C31421876   1.642   5.374   4.919  0.1172  0.3763 -0.0431
  189SAPI  H14X21877   1.742   5.339   4.886 -1.7959 -4.9682 -1.1867
  189SAPI  H14Y21878   1.634   5.484   4.900 -2.7052  0.3043  0.2904
  189SAPI  C31521879   1.548   5.316   4.810 -0.3186 -0.2276 -0.1488
  189SAPI  H15X21880   1.577   5.356   4.711  1.7594 -0.0313  0.5020
  189SAPI  H15Y21881   1.444   5.353   4.827 -0.8214 -2.1000  1.2172
  189SAPI  C31621882   1.549   5.166   4.811  0.7397  0.3252  0.2800
  189SAPI  H16X21883   1.526   5.140   4.917  0.3264  3.0781  0.9445
  189SAPI  H16Y21884   1.644   5.125   4.769  0.3972  0.9962 -1.2216
  189SAPI  C31721885   1.427   5.092   4.747 -0.3648 -0.0028  0.2963
  189SAPI  H17X21886   1.336   5.150   4.778  0.9901  2.3360  0.1514
  189SAPI  H17Y21887   1.425   4.989   4.789 -1.0894  0.0016  0.2957
  189SAPI  C31821888   1.442   5.095   4.592  0.3957 -0.0112  0.2727
  189SAPI  H18X21889   1.531   5.033   4.567  0.3813 -0.0436  0.3025
  189SAPI  H18Y21890   1.450   5.201   4.559  0.8630 -0.9766 -3.0771
  189SAPI  H18Z21891   1.351   5.056   4.543 -1.4110  4.6468 -0.6257
  190SAPI   C1221892   6.424   0.013   6.994 -0.1637 -0.1755  0.4896
  190SAPI    H221893   6.404  -0.028   6.893 -1.6589  2.2473 -0.2758
  190SAPI    O221894   6.324  -0.052   7.074  0.0800  0.0621  1.1097
  190SAPI   HO221895   6.333  -0.144   7.050  0.6850  0.4679 -0.2978
  190SAPI   C1321896   6.560  -0.016   7.047  0.5462  0.4779  0.4037
  190SAPI    H321897   6.624   0.028   6.968  1.8526 -0.1806  1.0685
  190SAPI    O321898   6.593  -0.158   7.044  0.1935  0.3191 -0.1183
  190SAPI   HO321899   6.655  -0.171   6.972 -0.4088  0.5460 -0.6898
  190SAPI   C1421900   6.581   0.055   7.182 -0.6678 -0.2382  0.5288
  190SAPI    H421901   6.531  -0.014   7.253  1.1479 -0.4922  1.6228
  190SAPI    O421902   6.717   0.056   7.223  0.0764  0.1831  0.9639
  190SAPI   HO421903   6.778   0.090   7.157 -1.6229  2.2947  0.3702
  190SAPI   C1521904   6.507   0.186   7.212  0.3493 -0.0917  0.6547
  190SAPI    H521905   6.573   0.273   7.189 -1.4336  0.9676 -0.7191
  190SAPI    O521906   6.475   0.193   7.351 -0.2137 -0.1122 -0.2891
  190SAPI   HO521907   6.480   0.284   7.382 -2.3532 -0.5148  1.4741
  190SAPI   C1621908   6.389   0.221   7.115 -0.0930  0.5268 -0.7682
  190SAPI    H621909   6.294   0.183   7.159 -1.2602  1.8522 -2.0555
  190SAPI    O621910   6.354   0.358   7.112 -0.6020  0.0654 -0.5304
  190SAPI   HO621911   6.385   0.388   7.027 -0.6751 -0.7052 -0.8443
  190SAPI   C1121912   6.403   0.162   6.975  0.0732 -0.1451 -0.1540
  190SAPI    H121913   6.496   0.198   6.926  1.3400 -0.9190  1.5641
  190SAPI     P21914   6.258   0.317   6.804  0.1071  0.3656  0.0550
  190SAPI   O1321915   6.364   0.414   6.841 -0.1379 -0.3276 -0.1060
  190SAPI   O1421916   6.118   0.362   6.817 -0.0830 -0.0833 -0.5384
  190SAPI   O1221917   6.282   0.175   6.895  0.1315 -0.3031  0.4714
  190SAPI   O1121918   6.280   0.271   6.659 -0.4910 -0.0795  0.1371
  190SAPI    C121919   6.406   0.215   6.611 -0.0002  0.6159  0.2830
  190SAPI    HA21920   6.495   0.260   6.660  0.5397  0.9604 -0.9620
  190SAPI    HB21921   6.399   0.106   6.631  0.7328  0.5547  0.2552
  190SAPI    C221922   6.413   0.236   6.457 -0.2405  0.2236  0.4744
  190SAPI    HS21923   6.419   0.344   6.431 -0.2781  0.3749  1.0728
  190SAPI   O2121924   6.305   0.171   6.386 -0.3260  0.5646  0.3438
  190SAPI   C2121925   6.208   0.256   6.362 -0.1238  0.3317 -0.9969
  190SAPI   O2221926   6.200   0.371   6.402  0.6198 -0.3201 -0.2795
  190SAPI   C2221927   6.113   0.201   6.261 -0.2944 -0.3119  0.0123
  190SAPI   H2R21928   6.127   0.091   6.254 -0.8546 -0.5929  2.2772
  190SAPI   H2S21929   6.010   0.213   6.303 -0.1423 -0.2526  0.3769
  190SAPI    C321930   6.550   0.182   6.393 -0.0417  0.1950 -0.4841
  190SAPI    HX21931   6.542   0.072   6.405  0.0754  0.0278 -1.7861
  190SAPI    HY21932   6.637   0.220   6.452 -0.2871 -0.7577  0.5354
  190SAPI   O3121933   6.557   0.213   6.256 -0.0878  0.1517  0.6524
  190SAPI   C3121934   6.584   0.335   6.222  0.3366  0.2782 -0.7505
  190SAPI   O3221935   6.614   0.417   6.304  0.0927 -0.3154  0.2176
  190SAPI   C3221936   6.545   0.365   6.074 -0.7527  0.9854  0.6969
  190SAPI   H2X21937   6.572   0.470   6.052  0.6306  0.1172 -2.2414
  190SAPI   H2Y21938   6.436   0.348   6.063 -0.1957 -1.6086 -2.1049
  190SAPI   C2321939   6.128   0.260   6.112 -0.0659  0.4292 -0.5135
  190SAPI   H3R21940   6.218   0.216   6.064 -0.4322  1.0725 -1.8679
  190SAPI   H3S21941   6.141   0.370   6.121  1.2632  0.2517 -0.0587
  190SAPI   C2421942   6.004   0.242   6.028  0.2518  0.1143  0.1781
  190SAPI   H4R21943   5.928   0.299   6.086  0.8024 -0.4950  1.5384
  190SAPI   H4S21944   5.962   0.141   6.043 -0.7849  0.7837  2.2387
  190SAPI   C2521945   6.032   0.288   5.882  0.2736 -0.3370 -0.2541
  190SAPI   H5R21946   6.109   0.366   5.871  1.0800 -1.1906 -0.7022
  190SAPI   C2621947   5.989   0.228   5.769 -0.3135 -0.3201  0.2232
  190SAPI   H6R21948   6.002   0.278   5.672 -0.4772 -1.4924 -0.4277
  190SAPI   C2721949   5.886   0.118   5.768  0.1952 -0.6599  0.0645
  190SAPI   H7R21950   5.908   0.048   5.852 -0.7520  2.8443  3.5415
  190SAPI   H7S21951   5.911   0.069   5.672 -0.5029  1.2164 -1.1355
  190SAPI   C2821952   5.746   0.175   5.754 -0.3653  0.1676 -0.5132
  190SAPI   H8R21953   5.706   0.192   5.854  0.8792  1.1464 -0.1567
  190SAPI   C2921954   5.667   0.186   5.648 -0.0854 -0.8010  0.4372
  190SAPI   H9R21955   5.569   0.234   5.662 -1.0481 -2.0245 -1.6792
  190SAPI  C21021956   5.716   0.159   5.507  0.5384  0.1010  0.5545
  190SAPI  H10R21957   5.746   0.052   5.514  0.9056  0.2261  0.9379
  190SAPI  H10S21958   5.804   0.220   5.478  1.0281  0.7856  3.2452
  190SAPI  C21121959   5.600   0.161   5.402 -0.0210 -0.0741  0.0708
  190SAPI  H11R21960   5.542   0.069   5.389 -1.9613  0.9491  0.9853
  190SAPI  C21221961   5.571   0.269   5.330 -0.7669 -0.3167 -0.2947
  190SAPI  H12R21962   5.494   0.259   5.252  1.6444 -2.1776 -2.5851
  190SAPI  C21321963   5.630   0.409   5.336 -0.4280  0.2364  0.9632
  190SAPI  H13R21964   5.712   0.408   5.261  0.3811  2.4363  1.7350
  190SAPI  H13S21965   5.679   0.429   5.433  0.9490 -1.6751  0.7145
  190SAPI  C21421966   5.522   0.514   5.300 -0.3944 -0.9724  0.0008
  190SAPI  H14R21967   5.417   0.483   5.308 -0.5732 -0.0647  1.8616
  190SAPI  C21521968   5.536   0.647   5.269 -0.8510  0.2097  0.2967
  190SAPI  H15R21969   5.444   0.702   5.243  0.1344  2.1904  0.7980
  190SAPI  C21621970   5.657   0.733   5.249 -1.0275  0.0039  0.5091
  190SAPI  H16R21971   5.640   0.808   5.168  0.7481 -0.2607 -0.1662
  190SAPI  H16S21972   5.750   0.686   5.209 -0.2713  2.9958 -1.6731
  190SAPI  C21721973   5.684   0.814   5.374 -0.6282  1.0469 -0.6056
  190SAPI  H17R21974   5.590   0.854   5.418 -0.5018 -0.8382  1.5538
  190SAPI  H17S21975   5.758   0.894   5.352  1.3942 -0.9950 -1.6807
  190SAPI  C21821976   5.739   0.720   5.487 -0.8853 -0.2137 -0.9156
  190SAPI  H18R21977   5.826   0.662   5.448  0.3237 -1.4417  3.1123
  190SAPI  H18S21978   5.661   0.647   5.518 -0.2848 -0.9531 -1.1050
  190SAPI  C21921979   5.774   0.795   5.621  0.5587  0.0452  0.4686
  190SAPI  H19R21980   5.675   0.809   5.670 -0.1045  1.4688 -1.1331
  190SAPI  H19S21981   5.806   0.899   5.598  0.5024  0.3636  1.7615
  190SAPI  C22021982   5.871   0.720   5.710 -0.3040  0.5669 -0.1210
  190SAPI  H20R21983   5.893   0.772   5.806 -1.2276  2.2198 -0.7679
  190SAPI  H20S21984   5.970   0.711   5.660 -1.0900  0.5037 -1.7470
  190SAPI  H20T21985   5.835   0.616   5.725 -0.6898  0.9134  1.5208
  190SAPI   C3321986   6.620   0.269   5.983 -0.3394  0.9881 -0.2730
  190SAPI   H3X21987   6.583   0.165   5.992 -2.0997  1.6791  1.0130
  190SAPI   H3Y21988   6.729   0.268   6.005 -0.4111  2.9854  0.3969
  190SAPI   C3421989   6.607   0.312   5.839 -0.5058  0.0078 -0.5291
  190SAPI   H4X21990   6.665   0.236   5.781  0.6710 -0.1894  0.8646
  190SAPI   H4Y21991   6.641   0.417   5.828  0.4490 -0.1132  0.9810
  190SAPI   C3521992   6.463   0.310   5.779  0.5235  0.5855  0.6906
  190SAPI   H5X21993   6.417   0.395   5.834 -1.1101  0.3556 -0.2537
  190SAPI   H5Y21994   6.430   0.206   5.798  0.7807  0.3100 -0.3061
  190SAPI   C3621995   6.461   0.341   5.629 -0.1257 -0.6540 -0.2106
  190SAPI   H6X21996   6.504   0.256   5.572 -0.1355 -1.1196  0.4700
  190SAPI   H6Y21997   6.522   0.433   5.616 -0.7667  0.0470  1.4606
  190SAPI   C3721998   6.315   0.374   5.577 -0.0429 -0.2590  0.5955
  190SAPI   H7X21999   6.263   0.453   5.636 -2.3241 -0.3535 -1.1628
  190SAPI   H7Y22000   6.273   0.273   5.592  2.0230 -1.1595  0.5557
  190SAPI   C3822001   6.292   0.405   5.430  0.4211  0.3273  0.0013
  190SAPI   H8X22002   6.331   0.331   5.357 -1.2836 -0.7726  0.1709
  190SAPI   H8Y22003   6.359   0.493   5.416 -0.5891  1.3097  1.1471
  190SAPI   C3922004   6.144   0.427   5.400 -0.3325  0.3485  0.3175
  190SAPI   H9X22005   6.100   0.469   5.493  0.2762  2.1982 -0.1977
  190SAPI   H9Y22006   6.100   0.326   5.383  0.3098  0.3547 -1.5713
  190SAPI  C31022007   6.121   0.502   5.268 -0.5109 -0.0030 -0.0587
  190SAPI  H10X22008   6.196   0.465   5.195  0.1719  1.9110 -0.3706
  190SAPI  H10Y22009   6.125   0.611   5.288 -1.2724  0.1005 -0.4096
  190SAPI  C31122010   5.973   0.479   5.210 -0.4146  0.5125 -0.2263
  190SAPI  H11X22011   5.901   0.538   5.270 -1.3230  0.6857 -1.4785
  190SAPI  H11Y22012   5.949   0.372   5.227  0.4452  0.0015 -2.0240
  190SAPI  C31222013   5.963   0.509   5.063  0.0370  0.4301 -0.0881
  190SAPI  H12X22014   6.027   0.442   5.001 -0.8261  0.9129 -1.5437
  190SAPI  H12Y22015   5.983   0.617   5.047 -2.4665  0.9355 -0.2535
  190SAPI  C31322016   5.815   0.479   5.003 -0.1352  0.3382  0.1845
  190SAPI  H13X22017   5.735   0.525   5.065  1.2521 -0.2202  2.5170
  190SAPI  H13Y22018   5.787   0.372   5.015 -1.2012  0.6702  0.7819
  190SAPI  C31422019   5.792   0.528   4.861  0.0479 -0.3897  0.2318
  190SAPI  H14X22020   5.685   0.514   4.838  0.5307 -2.0880 -1.2548
  190SAPI  H14Y22021   5.843   0.464   4.785 -0.5626 -0.9872  0.3164
  190SAPI  C31522022   5.838   0.670   4.838  0.1770  0.5121  0.2985
  190SAPI  H15X22023   5.948   0.680   4.841  0.3702 -1.1615 -0.2124
  190SAPI  H15Y22024   5.806   0.739   4.919 -1.3864  0.3593 -0.1391
  190SAPI  C31622025   5.780   0.719   4.695 -0.6181 -0.1786  0.4389
  190SAPI  H16X22026   5.795   0.830   4.695 -2.0009  0.2258 -4.1914
  190SAPI  H16Y22027   5.670   0.708   4.694 -0.6363 -0.1357 -1.6886
  190SAPI  C31722028   5.832   0.644   4.575 -1.0308 -0.5190 -0.1516
  190SAPI  H17X22029   5.779   0.691   4.489 -1.5414 -2.1785 -0.7810
  190SAPI  H17Y22030   5.801   0.537   4.575 -0.1900 -0.7956  1.4563
  190SAPI  C31822031   5.984   0.650   4.550 -0.0976 -0.0581  0.3335
  190SAPI  H18X22032   6.037   0.606   4.637  0.1767  0.7364  0.5825
  190SAPI  H18Y22033   6.018   0.755   4.535 -0.3350  0.0041  0.2200
  190SAPI  H18Z22034   6.010   0.607   4.451 -1.1275 -2.6175  1.0926
  191SAPI   C1222035   1.577   2.900   2.445 -0.1669  0.3817 -0.2257
  191SAPI    H222036   1.482   2.884   2.389  0.5696  0.7388 -1.6220
  191SAPI    O222037   1.630   2.767   2.465  0.1019  0.1167 -0.3348
  191SAPI   HO222038   1.592   2.715   2.394  0.4528  0.7084 -0.9737
  191SAPI   C1322039   1.669   2.993   2.372 -0.2213 -0.0697 -0.2239
  191SAPI    H322040   1.627   3.095   2.369 -1.3233 -0.5272 -1.4236
  191SAPI    O322041   1.700   2.947   2.241  0.0946 -0.2895 -0.2145
  191SAPI   HO322042   1.745   2.863   2.252  0.1174 -0.2936 -0.3403
  191SAPI   C1422043   1.801   3.017   2.450 -0.7957  0.7654  0.4365
  191SAPI    H422044   1.853   2.919   2.442 -1.7190  0.0793  2.2504
  191SAPI    O422045   1.882   3.112   2.386  0.2031  0.2636 -0.0947
  191SAPI   HO422046   1.835   3.196   2.389 -0.6085 -0.1818 -0.0662
  191SAPI   C1522047   1.793   3.032   2.602  0.4350 -0.4840  0.2716
  191SAPI    H522048   1.775   3.142   2.604  0.9362 -0.3999  0.1814
  191SAPI    O522049   1.916   2.999   2.661  0.3856  0.5168  0.1472
  191SAPI   HO522050   1.957   3.084   2.676  0.9275  0.2132  0.4199
  191SAPI   C1622051   1.664   2.986   2.673  0.2013  0.0443 -0.2714
  191SAPI    H622052   1.686   2.891   2.726  0.0743 -0.5368 -1.2620
  191SAPI    O622053   1.639   3.067   2.783  0.0819  0.1339  0.0752
  191SAPI   HO622054   1.564   3.123   2.761 -0.3236 -0.5868 -0.4160
  191SAPI   C1122055   1.545   2.969   2.581  0.8506  0.1236 -0.4258
  191SAPI    H122056   1.514   3.073   2.560  1.0534  0.0947 -0.8814
  191SAPI     P22057   1.305   2.980   2.704  0.3670 -0.0206 -0.4579
  191SAPI   O1322058   1.175   2.916   2.666 -0.0093 -0.5082  0.6913
  191SAPI   O1422059   1.323   3.127   2.670  0.1571 -0.1607 -0.0579
  191SAPI   O1222060   1.435   2.898   2.638 -0.0376 -0.1242  0.6312
  191SAPI   O1122061   1.330   2.968   2.858  0.4010 -0.1837 -0.0181
  191SAPI    C122062   1.354   2.844   2.924  0.1375 -0.4252  0.4509
  191SAPI    HA22063   1.426   2.787   2.862  1.4963  1.6750 -0.0154
  191SAPI    HB22064   1.387   2.874   3.026  0.8721  4.6222 -0.9985
  191SAPI    C222065   1.231   2.749   2.937 -0.3547 -0.0809  0.1666
  191SAPI    HS22066   1.211   2.710   2.835 -1.0292  2.5433 -0.7897
  191SAPI   O2122067   1.119   2.816   2.985 -0.9335  0.3312  0.4456
  191SAPI   C2122068   1.004   2.767   2.947 -0.9153  0.0290 -0.1622
  191SAPI   O2222069   0.988   2.671   2.873 -0.1676 -0.0863  0.4768
  191SAPI   C2222070   0.889   2.852   3.014  0.6703 -0.0898 -0.6941
  191SAPI   H2R22071   0.881   2.820   3.120 -1.1622  2.7125  0.1224
  191SAPI   H2S22072   0.927   2.957   3.014 -2.0709  0.9831 -0.4385
  191SAPI    C322073   1.266   2.620   3.032  0.3202 -0.2395  0.6547
  191SAPI    HX22074   1.348   2.570   2.976  0.7590  2.7714 -1.5954
  191SAPI    HY22075   1.176   2.556   3.044 -1.6937  2.3719  0.4079
  191SAPI   O3122076   1.312   2.665   3.160 -0.3516  0.0295  0.2145
  191SAPI   C3122077   1.232   2.650   3.268  0.1181 -0.1866 -0.4364
  191SAPI   O3222078   1.127   2.590   3.270  0.6637 -0.0574  0.0935
  191SAPI   C3222079   1.304   2.694   3.395 -0.2603  0.1014  0.6751
  191SAPI   H2X22080   1.329   2.802   3.385 -0.0730 -0.0422 -0.5894
  191SAPI   H2Y22081   1.395   2.631   3.399 -0.1309  0.2380  0.0633
  191SAPI   C2322082   0.752   2.842   2.943 -0.1661 -0.4392 -0.3831
  191SAPI   H3R22083   0.777   2.809   2.840  0.2669 -0.8251 -0.1551
  191SAPI   H3S22084   0.714   2.946   2.928 -0.1059 -0.4176 -0.3899
  191SAPI   C2422085   0.652   2.766   3.019  0.7062  0.0158 -0.4999
  191SAPI   H4R22086   0.551   2.763   2.972 -0.0411 -1.3252  1.0794
  191SAPI   H4S22087   0.637   2.806   3.121  1.2427 -0.8191 -0.0806
  191SAPI   C2522088   0.681   2.616   2.996 -0.7194  0.4433  0.2404
  191SAPI   H5R22089   0.704   2.592   2.891  2.5913  2.5755  0.3192
  191SAPI   C2622090   0.698   2.523   3.098  0.3224  0.0690  0.0617
  191SAPI   H6R22091   0.722   2.416   3.083  2.8617  0.7408 -1.3115
  191SAPI   C2722092   0.651   2.553   3.236  0.4878  0.2152  0.3468
  191SAPI   H7R22093   0.605   2.457   3.266  1.4063 -0.2918  0.1815
  191SAPI   H7S22094   0.570   2.629   3.234  0.0772 -0.2358 -0.3123
  191SAPI   C2822095   0.760   2.609   3.319 -0.8672 -0.2009 -0.4061
  191SAPI   H8R22096   0.854   2.619   3.262 -0.7138 -1.4443 -0.3875
  191SAPI   C2922097   0.756   2.625   3.453  0.2189  0.3460 -0.0347
  191SAPI   H9R22098   0.835   2.668   3.517 -1.2231  0.1076  1.9958
  191SAPI  C21022099   0.627   2.594   3.535 -0.6864 -0.1930 -0.4618
  191SAPI  H10R22100   0.633   2.495   3.584 -2.0515 -0.6123 -1.0818
  191SAPI  H10S22101   0.530   2.584   3.482 -0.1775  1.9627 -1.9333
  191SAPI  C21122102   0.606   2.700   3.643 -0.7905  0.0887  0.2621
  191SAPI  H11R22103   0.549   2.789   3.613  0.6867  0.2468 -2.3952
  191SAPI  C21222104   0.635   2.683   3.780 -0.3823 -0.1507 -0.3478
  191SAPI  H12R22105   0.612   2.761   3.854  1.2895 -0.3993  0.4865
  191SAPI  C21322106   0.698   2.551   3.834  0.3089 -0.3715 -0.6296
  191SAPI  H13R22107   0.730   2.499   3.742  1.9046  1.7168 -1.3265
  191SAPI  H13S22108   0.610   2.498   3.877 -1.5112  0.6784 -2.8143
  191SAPI  C21422109   0.819   2.584   3.917  1.2353 -0.2221 -0.2008
  191SAPI  H14R22110   0.907   2.598   3.852  0.8946 -2.3235 -1.2044
  191SAPI  C21522111   0.822   2.594   4.052 -0.1823 -0.1382 -0.1263
  191SAPI  H15R22112   0.910   2.643   4.098  0.6297 -1.4894 -0.1821
  191SAPI  C21622113   0.706   2.572   4.153  0.4596  0.7896  0.6944
  191SAPI  H16R22114   0.609   2.572   4.098  0.4325  4.3819  0.5062
  191SAPI  H16S22115   0.698   2.662   4.217 -0.4351 -0.7496  2.8695
  191SAPI  C21722116   0.707   2.448   4.240 -0.0052 -0.2924 -0.3221
  191SAPI  H17R22117   0.723   2.349   4.191 -2.2866 -0.4815 -0.7882
  191SAPI  H17S22118   0.603   2.430   4.272 -0.0346 -0.2025 -0.3675
  191SAPI  C21822119   0.786   2.472   4.368 -0.1546 -0.3596  0.8000
  191SAPI  H18R22120   0.734   2.546   4.432 -1.2990 -2.2483  2.1738
  191SAPI  H18S22121   0.890   2.502   4.340 -0.6312  1.8524  1.2202
  191SAPI  C21922122   0.799   2.349   4.455 -0.0525  0.2401 -0.2930
  191SAPI  H19R22123   0.834   2.267   4.389 -0.3443 -0.6708  0.6526
  191SAPI  H19S22124   0.702   2.323   4.502 -0.5908  1.2595 -0.7990
  191SAPI  C22022125   0.913   2.375   4.552  0.4095  0.5798  0.0293
  191SAPI  H20R22126   0.924   2.288   4.620  2.0476  0.4831 -0.3124
  191SAPI  H20S22127   0.897   2.469   4.608 -1.3312  0.4389 -0.1843
  191SAPI  H20T22128   1.007   2.384   4.493  1.1775  0.6667  1.2333
  191SAPI   C3322129   1.205   2.662   3.514  0.1121  0.5070  0.7048
  191SAPI   H3X22130   1.212   2.557   3.549  1.6145  0.6446  0.8853
  191SAPI   H3Y22131   1.102   2.694   3.489  1.0031  1.6694 -1.7382
  191SAPI   C3422132   1.245   2.747   3.639  0.0517  0.5258 -0.2243
  191SAPI   H4X22133   1.254   2.850   3.599 -0.5850  0.1435 -1.4058
  191SAPI   H4Y22134   1.344   2.713   3.677 -0.7671 -0.5066  1.0786
  191SAPI   C3522135   1.154   2.737   3.760  0.3029  0.1445  0.2522
  191SAPI   H5X22136   1.146   2.630   3.789  2.2336 -0.2713 -0.6096
  191SAPI   H5Y22137   1.051   2.768   3.733 -1.0924 -3.2689  1.1993
  191SAPI   C3622138   1.202   2.831   3.867 -0.2191 -0.6885 -0.0563
  191SAPI   H6X22139   1.189   2.938   3.841  0.7178 -0.1752  1.4293
  191SAPI   H6Y22140   1.313   2.829   3.878 -0.1038  0.0105 -1.0499
  191SAPI   C3722141   1.153   2.809   4.011  0.4707  0.1257 -0.7491
  191SAPI   H7X22142   1.152   2.699   4.026  0.1784  0.4281  1.9462
  191SAPI   H7Y22143   1.057   2.862   4.026  0.1286 -0.7808  0.3581
  191SAPI   C3822144   1.261   2.868   4.117  0.4860  0.9245  0.0681
  191SAPI   H8X22145   1.283   2.976   4.108  1.7355  0.8416  1.6669
  191SAPI   H8Y22146   1.356   2.812   4.104  1.8586  2.1219  3.7239
  191SAPI   C3922147   1.229   2.848   4.266  0.1085  0.7139  1.0128
  191SAPI   H9X22148   1.247   2.740   4.288  0.2349  0.1325 -1.6371
  191SAPI   H9Y22149   1.123   2.870   4.289  0.4141  1.8108  1.4085
  191SAPI  C31022150   1.311   2.932   4.363 -0.2366 -0.3376  0.0232
  191SAPI  H10X22151   1.273   3.036   4.358  2.1854  0.6120 -0.1541
  191SAPI  H10Y22152   1.420   2.938   4.341  0.0263 -1.5488  0.8568
  191SAPI  C31122153   1.297   2.891   4.509 -0.4706  0.1789 -0.5139
  191SAPI  H11X22154   1.329   2.977   4.570  1.0447 -0.4875 -0.3366
  191SAPI  H11Y22155   1.370   2.810   4.529 -0.6773  0.2187  0.4603
  191SAPI  C31222156   1.158   2.847   4.552 -0.5227  0.2431 -0.3684
  191SAPI  H12X22157   1.150   2.738   4.530 -1.2397  0.2864 -0.3494
  191SAPI  H12Y22158   1.077   2.899   4.497  0.1729  1.2988 -0.4198
  191SAPI  C31322159   1.125   2.863   4.701  0.4851 -0.1854  0.2905
  191SAPI  H13X22160   1.099   2.966   4.731  1.6319  1.0265 -2.5385
  191SAPI  H13Y22161   1.206   2.830   4.769 -0.7676 -2.5171  0.7572
  191SAPI  C31422162   0.998   2.774   4.732 -0.3069  0.3357 -0.0251
  191SAPI  H14X22163   1.012   2.666   4.711 -2.6327 -0.2141  0.8399
  191SAPI  H14Y22164   0.922   2.820   4.665  0.5323 -0.7055 -1.7585
  191SAPI  C31522165   0.959   2.778   4.879 -0.2534 -0.1450  0.6015
  191SAPI  H15X22166   0.951   2.887   4.901  0.0428  0.0094 -0.0178
  191SAPI  H15Y22167   1.043   2.739   4.941  0.0552 -1.7350 -0.7459
  191SAPI  C31622168   0.828   2.700   4.903 -0.5387 -0.2499  0.2768
  191SAPI  H16X22169   0.831   2.688   5.014  2.2751 -0.3381  0.2511
  191SAPI  H16Y22170   0.836   2.603   4.850 -1.0028 -0.0292 -0.1998
  191SAPI  C31722171   0.698   2.751   4.844 -0.1190 -0.4342  0.5621
  191SAPI  H17X22172   0.707   2.762   4.734 -2.1213  0.2374  0.4233
  191SAPI  H17Y22173   0.666   2.849   4.883 -0.6598  0.0813 -1.0927
  191SAPI  C31822174   0.575   2.654   4.875 -0.4763 -1.2786  0.1800
  191SAPI  H18X22175   0.600   2.562   4.818  0.8334 -0.6683 -0.2690
  191SAPI  H18Y22176   0.486   2.702   4.829  0.4587  0.5770  0.2011
  191SAPI  H18Z22177   0.562   2.625   4.981 -0.5870 -0.5478  0.3743
  192SAPI   C1222178   4.166   0.188   2.108  0.2608 -0.0514 -0.0344
  192SAPI    H222179   4.196   0.154   2.209  0.2165 -0.3311 -0.1158
  192SAPI    O222180   4.167   0.324   2.104 -0.1378 -0.3743  0.3452
  192SAPI   HO222181   4.120   0.362   2.179 -0.2907 -1.5244  0.8616
  192SAPI   C1322182   4.251   0.137   1.997 -0.0966  0.2178 -0.5954
  192SAPI    H322183   4.231   0.028   1.988  0.6848  0.1817 -2.1496
  192SAPI    O322184   4.383   0.159   2.030 -0.0291 -0.3847  0.3830
  192SAPI   HO322185   4.393   0.254   2.019  1.6768 -0.6576 -0.8558
  192SAPI   C1422186   4.212   0.192   1.862  0.9414 -0.8395 -0.3862
  192SAPI    H422187   4.229   0.302   1.858 -0.3676 -0.5833  0.6005
  192SAPI    O422188   4.290   0.137   1.754  0.4132  0.5024  0.7590
  192SAPI   HO422189   4.343   0.206   1.712 -0.0615 -1.2533 -3.1389
  192SAPI   C1522190   4.064   0.160   1.834 -0.8656 -0.6111 -0.5507
  192SAPI    H522191   4.063   0.049   1.823  3.1549 -0.8559 -0.1746
  192SAPI    O522192   4.019   0.224   1.714  0.0274  0.2968 -0.3648
  192SAPI   HO522193   4.054   0.313   1.726 -0.6877  0.6200 -0.6044
  192SAPI   C1622194   3.970   0.188   1.955 -0.6083  0.1933  0.0565
  192SAPI    H622195   3.952   0.297   1.967 -2.4129 -0.3484  3.5575
  192SAPI    O622196   3.845   0.131   1.930 -0.0320 -0.0435  0.0631
  192SAPI   HO622197   3.797   0.196   1.879  0.6988 -1.5343 -2.7325
  192SAPI   C1122198   4.023   0.140   2.090  0.3546  0.4608  0.3655
  192SAPI    H122199   4.026   0.029   2.094 -0.6763  0.4531  2.7377
  192SAPI     P22200   3.914   0.144   2.342 -0.1006  0.6398 -0.3535
  192SAPI   O1322201   3.948  -0.002   2.348 -0.0861  0.2544  0.1920
  192SAPI   O1422202   3.766   0.176   2.362  0.4338  0.3627 -0.1390
  192SAPI   O1222203   3.935   0.185   2.189 -0.8681 -0.3675  0.1244
  192SAPI   O1122204   4.007   0.235   2.429  0.4844 -0.7548  0.2587
  192SAPI    C122205   4.067   0.192   2.550 -0.4223  0.1660 -0.2600
  192SAPI    HA22206   4.035   0.088   2.573 -0.9215  0.0767 -1.2716
  192SAPI    HB22207   4.178   0.190   2.549 -0.3852  1.1872  0.1587
  192SAPI    C222208   4.025   0.280   2.672 -0.1653 -0.8066  0.2840
  192SAPI    HS22209   4.083   0.242   2.759  1.1173  1.7389  0.6443
  192SAPI   O2122210   3.887   0.272   2.684  0.1296 -0.2261  0.2971
  192SAPI   C2122211   3.841   0.189   2.779  0.1490  0.2321 -0.3941
  192SAPI   O2222212   3.919   0.113   2.836 -0.1674  0.2054 -0.4170
  192SAPI   C2222213   3.692   0.199   2.797  0.2752 -0.0199 -0.2403
  192SAPI   H2R22214   3.680   0.309   2.801  2.0012  0.2398 -0.9906
  192SAPI   H2S22215   3.646   0.165   2.702 -2.8278 -0.8394  1.4466
  192SAPI    C322216   4.065   0.431   2.636 -0.5425  0.3364 -0.3552
  192SAPI    HX22217   4.004   0.460   2.548 -0.5011 -0.3233 -0.6077
  192SAPI    HY22218   4.176   0.436   2.624 -0.5572  2.3840 -0.0564
  192SAPI   O3122219   4.056   0.514   2.754  0.7955  0.5631  0.2375
  192SAPI   C3122220   3.946   0.571   2.773  0.7634  0.1635  0.3632
  192SAPI   O3222221   3.848   0.563   2.698 -0.9047 -0.2430  0.1388
  192SAPI   C3222222   3.956   0.666   2.890  0.2911  0.5408 -0.3991
  192SAPI   H2X22223   3.890   0.751   2.864 -0.1493  1.0418  2.1635
  192SAPI   H2Y22224   4.057   0.710   2.901 -0.4449  2.4125 -0.7237
  192SAPI   C2322225   3.636   0.117   2.924  0.3304 -0.4253 -0.2735
  192SAPI   H3R22226   3.673   0.151   3.024 -1.5543 -0.0111  0.3234
  192SAPI   H3S22227   3.660   0.009   2.916  2.3705 -0.0587  0.3852
  192SAPI   C2422228   3.485   0.132   2.938  0.2237 -0.4299 -0.6671
  192SAPI   H4R22229   3.437   0.129   2.838 -1.8937  2.6600  0.1074
  192SAPI   H4S22230   3.471   0.238   2.970  3.5111  0.3669 -1.3984
  192SAPI   C2522231   3.423   0.028   3.031 -0.5924 -0.5294 -0.4392
  192SAPI   H5R22232   3.407  -0.074   2.993  0.7204 -1.0747  0.3949
  192SAPI   C2622233   3.411   0.048   3.164 -0.7564  0.0107 -0.4064
  192SAPI   H6R22234   3.363  -0.029   3.226  0.2040  0.5610  1.0720
  192SAPI   C2722235   3.428   0.176   3.246 -0.3769 -0.8499 -0.7901
  192SAPI   H7R22236   3.523   0.228   3.222 -1.2439  0.8428 -0.7116
  192SAPI   H7S22237   3.433   0.156   3.355 -1.9225 -1.0175 -0.7284
  192SAPI   C2822238   3.320   0.278   3.218  0.2788  0.1061  0.2044
  192SAPI   H8R22239   3.275   0.269   3.118 -1.4897  2.2067  0.7485
  192SAPI   C2922240   3.262   0.367   3.295 -0.2305  0.2586  0.8200
  192SAPI   H9R22241   3.182   0.433   3.260 -2.3930 -1.4374  2.3433
  192SAPI  C21022242   3.313   0.391   3.430  0.6339 -0.2809 -0.0497
  192SAPI  H10R22243   3.301   0.499   3.456 -0.2570 -0.3458 -0.1400
  192SAPI  H10S22244   3.422   0.378   3.443  0.7039 -0.2194 -0.5430
  192SAPI  C21122245   3.239   0.306   3.540 -1.3565 -0.3576  0.8335
  192SAPI  H11R22246   3.216   0.201   3.518 -0.4972 -0.6304  1.1594
  192SAPI  C21222247   3.187   0.357   3.653  0.6779  1.2529  0.5249
  192SAPI  H12R22248   3.152   0.277   3.721 -0.1460  1.6975  0.6335
  192SAPI  C21322249   3.193   0.496   3.704  0.2435  0.5059 -0.1740
  192SAPI  H13R22250   3.216   0.566   3.621  2.1452 -0.3831 -0.4598
  192SAPI  H13S22251   3.281   0.511   3.769  1.1892  0.2248 -1.3556
  192SAPI  C21422252   3.074   0.556   3.774  0.2885  0.5792  1.0726
  192SAPI  H14R22253   2.994   0.572   3.700  0.0448 -1.0097  0.9448
  192SAPI  C21522254   3.052   0.559   3.907  0.4937 -0.9888 -0.2646
  192SAPI  H15R22255   2.955   0.598   3.941  0.8671  0.0515 -0.3654
  192SAPI  C21622256   3.149   0.532   4.017 -0.1169  0.0662  0.3229
  192SAPI  H16R22257   3.249   0.562   3.980 -0.0833 -0.8088 -0.3242
  192SAPI  H16S22258   3.152   0.423   4.040 -0.4356  0.2865  1.4707
  192SAPI  C21722259   3.123   0.611   4.147 -0.2422  0.2077  0.0447
  192SAPI  H17R22260   3.098   0.718   4.125  0.8668 -0.0197 -2.8026
  192SAPI  H17S22261   3.211   0.608   4.215  0.0679 -0.5642 -0.3891
  192SAPI  C21822262   3.006   0.551   4.234 -0.0463  0.0991  1.1643
  192SAPI  H18R22263   3.047   0.452   4.265 -1.1129  0.2316  3.1149
  192SAPI  H18S22264   2.915   0.542   4.171  1.6346 -0.7635 -1.3208
  192SAPI  C21922265   2.974   0.643   4.356  0.3414 -0.3337  0.0656
  192SAPI  H19R22266   2.927   0.736   4.320 -1.7467 -1.0647  0.7552
  192SAPI  H19S22267   3.069   0.649   4.413  0.8011 -2.3338 -0.4115
  192SAPI  C22022268   2.878   0.581   4.459 -0.0648 -0.3825  0.5395
  192SAPI  H20R22269   2.771   0.578   4.429 -0.2396  2.4458  0.6156
  192SAPI  H20S22270   2.879   0.626   4.561 -1.8750 -0.9720  0.8437
  192SAPI  H20T22271   2.920   0.479   4.472  0.5500 -0.1385  0.5270
  192SAPI   C3322272   3.915   0.588   3.017  0.7283 -0.5222 -0.5704
  192SAPI   H3X22273   3.945   0.638   3.111 -1.7685 -2.3560  1.3178
  192SAPI   H3Y22274   3.959   0.486   3.021  4.0808  0.8560  0.9773
  192SAPI   C3422275   3.762   0.569   3.034 -0.2291 -0.2063  0.0194
  192SAPI   H4X22276   3.732   0.529   2.935  0.3355 -0.9961  0.1555
  192SAPI   H4Y22277   3.722   0.672   3.041  0.5159  0.0174  1.5429
  192SAPI   C3522278   3.699   0.486   3.153  0.6979  0.2269  0.5782
  192SAPI   H5X22279   3.730   0.381   3.134  2.5644  1.0004 -1.1372
  192SAPI   H5Y22280   3.588   0.484   3.151  0.6707 -0.3839 -2.2175
  192SAPI   C3622281   3.766   0.525   3.282  0.0411 -0.2187  0.0813
  192SAPI   H6X22282   3.783   0.635   3.286 -0.9278 -0.0949  2.8606
  192SAPI   H6Y22283   3.862   0.470   3.294  0.2113  0.3195  1.3311
  192SAPI   C3722284   3.686   0.506   3.415 -0.6762 -0.4882 -0.4119
  192SAPI   H7X22285   3.649   0.401   3.416 -2.9495  0.2121 -2.5893
  192SAPI   H7Y22286   3.598   0.571   3.396  0.8444  0.8246 -3.8591
  192SAPI   C3822287   3.762   0.553   3.540 -0.0443  0.0216 -0.9169
  192SAPI   H8X22288   3.802   0.656   3.525  0.6772 -0.1245 -0.1391
  192SAPI   H8Y22289   3.850   0.485   3.545 -0.8360 -1.1602 -2.4463
  192SAPI   C3922290   3.686   0.564   3.672 -0.5419 -0.5423  0.5547
  192SAPI   H9X22291   3.604   0.490   3.672  0.3178 -1.5319  1.8008
  192SAPI   H9Y22292   3.634   0.662   3.682 -1.5281 -1.0578  0.6057
  192SAPI  C31022293   3.765   0.548   3.804 -0.1556 -0.1184  0.3833
  192SAPI  H10X22294   3.686   0.544   3.882  0.0767  2.4141  0.8260
  192SAPI  H10Y22295   3.821   0.641   3.823 -0.7635  0.4322 -0.4420
  192SAPI  C31122296   3.865   0.433   3.812 -0.3284 -0.3256  0.0498
  192SAPI  H11X22297   3.909   0.448   3.913  0.1583  0.8655 -0.3214
  192SAPI  H11Y22298   3.939   0.466   3.736 -0.7124 -0.5000 -0.4096
  192SAPI  C31222299   3.812   0.290   3.789 -0.0360  0.4610  0.7952
  192SAPI  H12X22300   3.811   0.280   3.678 -1.6844 -2.0756  0.9640
  192SAPI  H12Y22301   3.708   0.285   3.827 -0.3282 -1.6657 -0.1225
  192SAPI  C31322302   3.901   0.190   3.863 -0.2417  0.7865 -0.2360
  192SAPI  H13X22303   3.845   0.095   3.878 -0.7630  0.9694 -0.9414
  192SAPI  H13Y22304   3.911   0.238   3.963  1.7894  0.4355 -0.2264
  192SAPI  C31422305   4.032   0.154   3.806  0.0012  0.0012  0.2087
  192SAPI  H14X22306   4.102   0.240   3.811 -0.3728  0.2333  2.9603
  192SAPI  H14Y22307   4.023   0.122   3.700 -0.8919  0.9767 -0.0240
  192SAPI  C31522308   4.116   0.045   3.880 -0.3918 -0.0027 -0.2892
  192SAPI  H15X22309   4.056  -0.047   3.889  1.1483 -1.1788 -1.5249
  192SAPI  H15Y22310   4.130   0.097   3.977 -1.0560  1.1345 -0.7829
  192SAPI  C31622311   4.251   0.029   3.803  0.2458  0.9719 -0.7387
  192SAPI  H16X22312   4.285   0.132   3.776  0.4959  1.9662  2.8682
  192SAPI  H16Y22313   4.226  -0.024   3.709 -1.4364 -1.6570  1.0587
  192SAPI  C31722314   4.356  -0.056   3.886  0.1433 -0.3446 -0.2006
  192SAPI  H17X22315   4.302  -0.151   3.905 -1.0618  0.4289  0.3405
  192SAPI  H17Y22316   4.376   0.002   3.979  2.0728  0.4240 -1.0439
  192SAPI  C31822317   4.494  -0.076   3.815  0.0734  0.3012 -0.0325
  192SAPI  H18X22318   4.544   0.020   3.790  2.4206 -0.5987  0.9173
  192SAPI  H18Y22319   4.479  -0.123   3.715 -0.8263 -1.2157  0.7955
  192SAPI  H18Z22320   4.564  -0.127   3.885  1.2655  0.5383 -0.9977
  193SOD    SOD22321   1.322   1.150   7.283 -0.1078 -0.5528 -0.3611
  194SOD    SOD22322   3.231   6.144   2.006  0.0243 -0.0563 -0.0674
  195SOD    SOD22323   4.740   1.569   3.023 -0.2464 -0.9199  0.8588
  196SOD    SOD22324   0.738   2.104   8.190 -0.1616  0.0216 -0.9309
  197SOD    SOD22325   2.248   0.013   7.672  0.2965 -0.4905  0.5959
  198SOD    SOD22326   0.479   0.397   1.568 -0.0464 -0.5143  0.4323
  199SOD    SOD22327   2.940   1.835   0.591 -0.1507 -0.1450  0.3980
  200SOD    SOD22328   5.734   5.138   7.692 -0.2179 -0.0259  0.5096
  201SOD    SOD22329   2.677   2.572   7.449 -0.0699 -0.8412 -0.3795
  202SOD    SOD22330   0.873   1.048   1.876  0.1224 -0.1999  0.4143
  203SOD    SOD22331   1.053   3.999   2.241 -0.0799 -0.2874 -0.2896
  204SOD    SOD22332   3.963   5.106   1.229  0.5846 -0.1761  0.7584
  205SOD    SOD22333   2.717   2.798   1.108  0.2143  0.5093 -0.4086
  206SOD    SOD22334   2.396   2.489   0.259  0.0579 -0.2713 -0.3255
  207SOD    SOD22335   0.899   2.393   1.245 -0.1147  0.2750 -0.3634
  208SOD    SOD22336   1.608   1.651   8.085  0.2024  0.1884  0.2987
  209SOD    SOD22337   1.933   0.088   2.215 -0.5615  0.0722  0.3132
  210SOD    SOD22338   2.705   4.060   1.496 -0.1595  0.3245 -0.2282
  211SOD    SOD22339   4.844   0.976   8.290  0.9264 -0.4366  0.0110
  212SOD    SOD22340   2.744   5.447   6.790 -0.5662 -0.0855  0.6112
  213SOD    SOD22341   2.422   0.939   1.932  0.1000  0.3996  0.1735
  214SOD    SOD22342   3.871   2.582   7.836 -0.2351 -0.0938  0.0603
  215SOD    SOD22343   1.178   6.406   7.084 -0.3902 -0.0009 -0.0376
  216SOD    SOD22344   0.078   6.439   8.364 -0.0224 -0.3209  0.2988
  217SOD    SOD22345   5.239   5.885   1.120  0.0988 -0.1936  0.1265
  218SOD    SOD22346   5.395   1.201   0.955  0.0383 -0.1516  0.6496
  219SOD    SOD22347   6.286   0.924   7.199 -0.0008 -0.1442  0.2023
  220SOD    SOD22348   1.213   4.551   8.418 -0.2843 -0.1818 -0.0995
  221SOD    SOD22349   5.424   2.472   7.662  0.0740 -0.5931 -0.1576
  222SOD    SOD22350   6.817   4.454   1.046 -0.0170  0.2091 -0.3587
  223SOD    SOD22351   0.468   5.765   1.292 -0.2125  0.3833 -0.2315
  224SOD    SOD22352   4.532   0.139   7.249  0.1827  0.1245  0.4293
  225SOD    SOD22353   2.058   2.703   6.877 -0.1603 -0.5652 -0.0310
  226SOD    SOD22354   2.110   5.229   1.908 -0.0899 -0.0198  0.7245
  227SOD    SOD22355   1.456   3.067   1.847  0.2747 -0.0602 -0.1167
  228SOD    SOD22356   2.111   0.475   8.004 -0.2561 -0.0127 -0.1698
  229SOD    SOD22357   3.756   0.970   2.137  0.8127  0.1593  0.0440
  230CLA    CLA22358   3.893   2.765   0.431 -0.2236 -0.2819 -0.1827
  231CLA    CLA22359   6.292   1.054   7.458 -0.1250  0.8802 -0.2577
  232CLA    CLA22360   6.775   5.525   0.255  0.2055  0.1714  0.5002
  233CLA    CLA22361   2.839   0.771   1.160  0.1865  0.0649 -0.3695
  234CLA    CLA22362   0.671   4.333   7.590 -0.1106  0.0565 -0.0147
  235CLA    CLA22363   2.519   0.493   7.663 -0.1121  0.2489 -0.6012
  236CLA    CLA22364   5.827   5.856   0.330 -0.4991  0.0772  0.2114
  237CLA    CLA22365   6.609   6.733   8.245 -0.1323 -0.0234 -0.1359
  238CLA    CLA22366   3.816   3.465   1.024  0.0849 -0.2223  0.0710
  239CLA    CLA22367   4.250   2.386   1.061 -0.3178 -0.2518  0.3249
  240CLA    CLA22368   2.510   5.099   1.352  0.3104 -0.6830 -0.3849
  241CLA    CLA22369   2.216   4.128   8.052  0.0005  0.0007 -0.3881
  242CLA    CLA22370   0.852   3.979   0.145  0.1575 -0.0155  0.1899
  243CLA    CLA22371   2.125   0.066   8.196 -0.0922 -0.1284 -0.0535
  244CLA    CLA22372   0.857   0.643   8.139  0.3699  0.0069  0.2787
  245CLA    CLA22373   0.895   4.604   1.362  0.0453 -0.2018 -0.2612
  246CLA    CLA22374   2.909   2.619   0.468 -0.5907 -0.1285  0.0813
  247TIP3   OH222375   0.640   2.957   7.851 -0.0164 -0.1509 -0.0995
  247TIP3    H122376   0.649   2.992   7.939  0.1845  0.0419 -0.1957
  247TIP3    H222377   0.621   3.033   7.797  0.7168 -0.1389 -0.3569
  248TIP3   OH222378   1.774   1.599   0.704 -0.2413  0.2027 -0.1487
  248TIP3    H122379   1.731   1.636   0.782  0.1505 -0.7860  0.5530
  248TIP3    H222380   1.812   1.675   0.660 -1.9378  1.0067 -0.3342
  249TIP3   OH222381   0.708   6.059   7.176  0.3704  0.1209 -0.0428
  249TIP3    H122382   0.743   6.128   7.120  0.3185  1.4489  1.4889
  249TIP3    H222383   0.674   5.994   7.115  2.4666  0.3361 -1.5685
  250TIP3   OH222384   5.485   3.114   1.123 -0.6478  0.0113 -0.1341
  250TIP3    H122385   5.397   3.079   1.115 -0.4904 -0.6887  0.8846
  250TIP3    H222386   5.477   3.206   1.100 -1.4794 -0.2354 -0.8617
  251TIP3   OH222387   5.901   0.951   7.800  0.3434  0.0733  0.3388
  251TIP3    H122388   5.929   0.861   7.810 -0.6684 -0.2989 -0.0649
  251TIP3    H222389   5.976   0.996   7.761  0.1706 -1.0375 -1.3461
  252TIP3   OH222390   4.694   5.398   8.366 -0.2899 -0.0361  0.0433
  252TIP3    H122391   4.643   5.390   8.446 -2.1065  1.1306 -0.9207
  252TIP3    H222392   4.752   5.322   8.367 -2.1920 -1.5769  1.1220
  253TIP3   OH222393   0.214   2.837   0.116 -0.0977  0.0896  0.6901
  253TIP3    H122394   0.279   2.852   0.183  2.4799 -1.1230 -1.3455
  253TIP3    H222395   0.196   2.743   0.121 -1.4876  0.3448  0.9861
  254TIP3   OH222396   3.523   0.635   6.989 -0.0676 -0.4180  0.1545
  254TIP3    H122397   3.463   0.571   6.952 -1.4560  0.8405  0.1448
  254TIP3    H222398   3.610   0.603   6.965 -0.8043 -1.2962 -1.4861
  255TIP3   OH222399   1.328   4.946   2.259 -0.4582  0.3141  0.2127
  255TIP3    H122400   1.371   4.862   2.244 -0.5440  0.1874  0.6576
  255TIP3    H222401   1.250   4.925   2.310 -1.4726  0.4601 -1.2435
  256TIP3   OH222402   4.213   0.597   1.985 -0.3225  0.1611 -0.6041
  256TIP3    H122403   4.229   0.610   1.892 -0.4702  1.2195 -0.4947
  256TIP3    H222404   4.222   0.502   1.998 -1.2213 -0.1290 -1.8646
  257TIP3   OH222405   2.066   4.291   0.223 -0.1945 -0.1127  0.4179
  257TIP3    H122406   2.137   4.335   0.270 -0.3977  0.5928  0.0791
  257TIP3    H222407   2.099   4.203   0.205  0.9013  0.4515 -0.4163
  258TIP3   OH222408   6.717   5.268   6.935 -0.2028 -0.3178  0.2706
  258TIP3    H122409   6.760   5.347   6.900 -1.9203  0.7997  0.5416
  258TIP3    H222410   6.638   5.259   6.882 -0.6838 -1.1060  1.1056
  259TIP3   OH222411   0.828   0.159   1.027 -0.2726  0.2854  0.0330
  259TIP3    H122412   0.919   0.170   1.056 -0.6821 -0.3638  1.7065
  259TIP3    H222413   0.827   0.192   0.937  1.5741  0.4621  0.0360
  260TIP3   OH222414   3.782   5.256   1.163  0.4972  0.0041 -0.6302
  260TIP3    H122415   3.793   5.351   1.157 -2.6160  0.5464  0.1258
  260TIP3    H222416   3.703   5.245   1.217  0.9048 -3.0418 -0.4779
  261TIP3   OH222417   5.640   4.862   1.155  0.7525 -0.1401 -0.0271
  261TIP3    H122418   5.728   4.901   1.148  1.3129 -1.0023  1.7931
  261TIP3    H222419   5.630   4.840   1.248 -1.4701  0.0753 -0.1579
  262TIP3   OH222420   6.776   2.739   1.067  0.4148 -0.5670  0.2168
  262TIP3    H122421   6.799   2.702   1.152  0.7386 -0.7194  0.0661
  262TIP3    H222422   6.775   2.664   1.007  0.0728 -0.4766  0.1114
  263TIP3   OH222423   6.863   4.151   0.120  0.6008 -0.1550 -0.4806
  263TIP3    H122424   6.951   4.183   0.140  1.0450 -1.5523 -0.0653
  263TIP3    H222425   6.863   4.139   0.025 -0.0630  2.3303 -0.8828
  264TIP3   OH222426   6.594   4.495   2.321 -0.4955 -0.4765 -0.4577
  264TIP3    H122427   6.585   4.516   2.414  0.0346 -0.0024 -0.5046
  264TIP3    H222428   6.639   4.411   2.319  0.0708 -0.1788 -0.2894
  265TIP3   OH222429   5.787   0.448   8.042  0.0606  0.1304  0.2330
  265TIP3    H122430   5.764   0.412   7.956  0.0280  0.6414  0.0227
  265TIP3    H222431   5.835   0.528   8.022 -0.6508  0.6870  0.6981
  266TIP3   OH222432   3.844   4.363   2.233 -0.4800 -0.2658  0.2757
  266TIP3    H122433   3.901   4.313   2.174 -0.8023 -0.4443  0.1179
  266TIP3    H222434   3.892   4.363   2.316 -0.3604 -0.6288  0.2116
  267TIP3   OH222435   2.732   0.396   1.897 -0.4233  0.6953 -0.0452
  267TIP3    H122436   2.826   0.408   1.887 -0.1308 -1.0289  0.3753
  267TIP3    H222437   2.705   0.467   1.956  1.1915 -0.5618  2.4073
  268TIP3   OH222438   4.558   4.236   2.329 -0.1298 -0.5102  0.3928
  268TIP3    H122439   4.606   4.296   2.272 -1.2484  0.9472  0.9352
  268TIP3    H222440   4.614   4.159   2.335  0.7398 -0.0701 -1.3917
  269TIP3   OH222441   3.838   2.634   0.720  0.3031 -0.5206  0.1793
  269TIP3    H122442   3.830   2.718   0.766  0.3917 -1.4862  2.0262
  269TIP3    H222443   3.881   2.657   0.637 -0.2594  1.3395  0.3500
  270TIP3   OH222444   6.541   6.584   0.851 -0.0673  0.1233 -0.2570
  270TIP3    H122445   6.600   6.633   0.793  2.6699 -0.2484  2.0045
  270TIP3    H222446   6.566   6.610   0.939 -1.9197 -1.6620  0.8973
  271TIP3   OH222447   5.209   4.682   8.157  0.0127  0.2345 -0.2986
  271TIP3    H122448   5.170   4.634   8.084 -0.3125  0.1035 -0.0381
  271TIP3    H222449   5.300   4.650   8.160  0.5329  1.4872 -1.7214
  272TIP3   OH222450   0.900   6.764   6.910  0.0650 -0.2715 -0.0022
  272TIP3    H122451   0.946   6.815   6.975 -1.1956 -0.3756  1.0075
  272TIP3    H222452   0.844   6.827   6.864 -0.0993 -0.4341 -0.0275
  273TIP3   OH222453   1.373   3.705   0.440 -0.0293 -0.2051 -0.3020
  273TIP3    H122454   1.317   3.629   0.423  0.3815 -0.7718  0.8306
  273TIP3    H222455   1.426   3.681   0.516  0.5308  0.9917 -0.2790
  274TIP3   OH222456   5.296   0.028   7.049  0.1615 -0.2498  0.0574
  274TIP3    H122457   5.250   0.111   7.060  0.6608  0.0698 -0.2327
  274TIP3    H222458   5.226  -0.038   7.048 -0.2926  0.2284 -0.4326
  275TIP3   OH222459   4.238   5.499   0.617 -0.0854  0.8404  0.1240
  275TIP3    H122460   4.154   5.535   0.646 -0.8550 -0.1261 -0.8536
  275TIP3    H222461   4.247   5.528   0.527  1.8899  3.0978  0.9194
  276TIP3   OH222462   0.331   2.835   7.441 -0.6754  0.2282 -0.2016
  276TIP3    H122463   0.361   2.868   7.526  1.1477 -0.2734 -0.5991
  276TIP3    H222464   0.350   2.741   7.444 -1.0377  0.1236 -0.9900
  277TIP3   OH222465   4.391   5.247   2.018  0.1574 -0.0896  0.0491
  277TIP3    H122466   4.410   5.179   2.083 -1.1517  0.2395  0.8087
  277TIP3    H222467   4.344   5.202   1.948 -1.1456  0.0795  0.7788
  278TIP3   OH222468   5.206   6.640   2.584  0.0304  0.0943 -0.2844
  278TIP3    H122469   5.283   6.692   2.606 -0.3820  0.5938 -0.0099
  278TIP3    H222470   5.140   6.667   2.647 -0.7882  0.6440 -1.3506
  279TIP3   OH222471   6.360   5.382   1.251 -0.7472  0.1536 -0.1102
  279TIP3    H122472   6.399   5.456   1.297 -1.4702  1.5500 -1.6718
  279TIP3    H222473   6.432   5.346   1.199 -0.3359 -0.4515  0.8311
  280TIP3   OH222474   4.859   3.220   1.741  0.1375 -0.4224  0.5810
  280TIP3    H122475   4.815   3.273   1.675  0.4054 -0.6716  0.1949
  280TIP3    H222476   4.946   3.203   1.704 -0.0449 -1.3816  0.5527
  281TIP3   OH222477   1.811   0.177   0.519  0.1891  0.2222 -0.0055
  281TIP3    H122478   1.828   0.090   0.481 -1.6443  0.0503 -0.5405
  281TIP3    H222479   1.815   0.163   0.613  3.4647  0.3673 -0.0050
  282TIP3   OH222480   0.037   1.817   0.048 -0.2640  0.0570  0.0434
  282TIP3    H122481   0.059   1.888  -0.013  0.8750  0.4673  0.9184
  282TIP3    H222482   0.105   1.751   0.034  0.8356  0.7543  1.8190
  283TIP3   OH222483   6.003   1.861   6.997  0.4461 -0.3261 -0.1548
  283TIP3    H122484   6.047   1.822   7.072 -0.2865  1.9753  1.6108
  283TIP3    H222485   5.911   1.836   7.007  0.5789 -1.3252 -1.2368
  284TIP3   OH222486   5.816   3.931   1.329  0.0011  0.1840 -0.2262
  284TIP3    H122487   5.745   3.904   1.271  0.5706 -1.1505 -0.3369
  284TIP3    H222488   5.844   4.016   1.294 -1.3601  0.6301 -0.3131
  285TIP3   OH222489   3.451   5.946   0.700 -0.3989 -0.7386 -0.4250
  285TIP3    H122490   3.399   5.871   0.731 -1.8205 -0.1361 -1.2381
  285TIP3    H222491   3.385   6.010   0.673  0.7784  0.9250  0.5008
  286TIP3   OH222492   1.632   1.778   1.584 -0.3068 -0.2578 -0.1936
  286TIP3    H122493   1.703   1.794   1.647 -0.4191  2.2265 -0.5700
  286TIP3    H222494   1.586   1.701   1.618  0.5021  0.1359  1.9615
  287TIP3   OH222495   6.360   4.534   0.341  0.5786 -0.4816 -0.2339
  287TIP3    H122496   6.419   4.475   0.295  0.7781 -0.8953  0.5270
  287TIP3    H222497   6.417   4.586   0.398  0.3610  0.1686 -0.5996
  288TIP3   OH222498   2.270   6.517   0.262  0.3719 -0.7127  0.4165
  288TIP3    H122499   2.292   6.606   0.289  0.4842 -0.4495 -0.5250
  288TIP3    H222500   2.205   6.528   0.193  0.4734 -1.3608  0.2148
  289TIP3   OH222501   2.893   5.077   7.844  0.3074 -0.1476 -0.3595
  289TIP3    H122502   2.809   5.121   7.852  0.5509  0.0844  1.2307
  289TIP3    H222503   2.872   4.984   7.836 -0.1621  0.0789 -2.5960
  290TIP3   OH222504   5.752   6.947   0.509  0.2398 -0.0994  0.4625
  290TIP3    H122505   5.690   6.879   0.486 -1.3330  1.6778 -0.8434
  290TIP3    H222506   5.816   6.948   0.438 -1.9214  2.2278 -1.6160
  291TIP3   OH222507   1.123   3.024   0.598 -0.1489  0.3136 -0.2789
  291TIP3    H122508   1.047   3.069   0.635 -0.2444 -1.0270  1.2360
  291TIP3    H222509   1.199   3.070   0.635 -0.2434 -0.9314  1.5974
  292TIP3   OH222510   2.659   1.005   8.075 -0.3944 -0.5953  0.4576
  292TIP3    H122511   2.719   1.063   8.029 -0.5146 -1.2678 -0.5824
  292TIP3    H222512   2.672   0.919   8.034 -0.5406 -1.2069  1.6543
  293TIP3   OH222513   5.534   0.628   1.079 -0.5247  0.2598  0.6180
  293TIP3    H122514   5.487   0.544   1.079 -1.2741  0.5866 -2.3800
  293TIP3    H222515   5.511   0.669   0.996  3.4639  1.4028 -0.1252
  294TIP3   OH222516   3.573   1.944   8.237  0.0287 -0.3102 -0.1523
  294TIP3    H122517   3.541   2.022   8.283 -1.4092  0.8511 -2.8663
  294TIP3    H222518   3.498   1.914   8.187  1.2230 -2.0717 -0.9754
  295TIP3   OH222519   4.522   1.370   7.987 -0.3460  0.6643  0.1802
  295TIP3    H122520   4.486   1.318   8.058  1.2286  0.8782  1.1739
  295TIP3    H222521   4.602   1.408   8.022  0.4831  0.7860 -1.6988
  296TIP3   OH222522   4.966   5.394   7.480  0.5896 -0.0808  0.4841
  296TIP3    H122523   4.944   5.359   7.566  1.2376  0.8643  1.0508
  296TIP3    H222524   5.052   5.435   7.492  1.8237 -1.9643 -1.1848
  297TIP3   OH222525   6.086   6.241   1.841  0.3699  0.5664 -0.2500
  297TIP3    H122526   6.155   6.300   1.811 -0.1913  1.0119 -0.7010
  297TIP3    H222527   6.101   6.160   1.793  1.5109  0.1192  0.8251
  298TIP3   OH222528   1.193   4.411   2.566 -0.0437 -0.0557  0.3510
  298TIP3    H122529   1.156   4.498   2.553  0.7396  0.3331  0.6451
  298TIP3    H222530   1.158   4.382   2.651  2.1971  1.3516  1.8627
  299TIP3   OH222531   0.715   2.409   0.844  0.1064  0.4408 -0.1345
  299TIP3    H122532   0.703   2.400   0.938  0.4541  0.4634 -0.0864
  299TIP3    H222533   0.630   2.386   0.806 -0.0009  0.3239  0.1774
  300TIP3   OH222534   2.278   3.101   7.067  0.2632 -0.3981  0.1729
  300TIP3    H122535   2.250   3.188   7.096 -2.6376 -0.8883 -0.8014
  300TIP3    H222536   2.268   3.103   6.972  1.7238 -1.3332 -0.0327
  301TIP3   OH222537   6.397   0.009   8.185  0.2166  0.0762 -0.4819
  301TIP3    H122538   6.457  -0.052   8.228 -0.5825  0.4548  1.2732
  301TIP3    H222539   6.422   0.095   8.218 -1.2018  0.2482  0.2516
  302TIP3   OH222540   5.870   4.193   2.271  0.5508 -0.3651  0.5115
  302TIP3    H122541   5.839   4.282   2.287 -1.8989 -0.9413 -0.5357
  302TIP3    H222542   5.857   4.148   2.354 -1.7782 -0.6045  0.1076
  303TIP3   OH222543   2.145   1.844   7.806 -0.2174 -0.0063  0.3825
  303TIP3    H122544   2.187   1.883   7.729 -1.6435  0.0160 -0.4263
  303TIP3    H222545   2.197   1.874   7.880  0.6502  0.7286 -0.5033
  304TIP3   OH222546   0.124   5.412   2.085 -0.2126  0.3387  0.9066
  304TIP3    H122547   0.074   5.333   2.107  0.4129 -0.2593  0.2221
  304TIP3    H222548   0.204   5.380   2.045 -0.9412  1.3268 -1.5499
  305TIP3   OH222549   4.587   6.479   2.625  0.1413 -0.4723  0.3211
  305TIP3    H122550   4.540   6.477   2.541  0.6367  1.7028 -0.0734
  305TIP3    H222551   4.525   6.518   2.687  0.4182 -0.2885  0.4871
  306TIP3   OH222552   6.183   1.410   2.432 -0.1040 -0.2148  0.3906
  306TIP3    H122553   6.258   1.464   2.457  0.2623 -1.0153  1.0367
  306TIP3    H222554   6.218   1.348   2.368 -0.9486  1.5885 -2.0221
  307TIP3   OH222555   3.038   3.201   1.426 -0.4295  0.4852  0.1112
  307TIP3    H122556   3.088   3.260   1.369 -0.0855 -0.9865 -1.1660
  307TIP3    H222557   2.949   3.235   1.421  0.1529  2.3914  1.4260
  308TIP3   OH222558   1.508   5.113   2.594 -0.5373  0.7139 -0.0217
  308TIP3    H122559   1.435   5.059   2.565  0.6772 -0.2199 -1.4650
  308TIP3    H222560   1.571   5.051   2.631 -0.6313  1.5558  1.6697
  309TIP3   OH222561   2.941   4.326   0.686 -0.1794  0.5359 -0.3286
  309TIP3    H122562   2.962   4.270   0.761 -0.4648 -0.8325 -1.2405
  309TIP3    H222563   3.018   4.382   0.676  1.4771 -1.7732 -1.2474
  310TIP3   OH222564   4.519   3.249   2.941  0.1580  0.3047  0.1500
  310TIP3    H122565   4.555   3.172   2.985  0.8521 -0.5199 -1.7726
  310TIP3    H222566   4.424   3.241   2.952  0.2548 -0.5650  0.3780
  311TIP3   OH222567   0.022   0.097   1.843  0.0157 -0.0023 -0.7866
  311TIP3    H122568   0.067   0.032   1.896  0.8193 -0.4871 -2.0195
  311TIP3    H222569  -0.053   0.050   1.807 -0.0635  0.0911 -0.7431
  312TIP3   OH222570   3.083   2.683   8.127 -0.1711 -0.1023  0.2091
  312TIP3    H122571   3.176   2.704   8.139  0.1086 -1.0796 -0.1796
  312TIP3    H222572   3.038   2.767   8.142  0.7442  0.3329  0.6319
  313TIP3   OH222573   1.016   1.728   2.190 -0.3161 -0.4592 -0.0429
  313TIP3    H122574   1.036   1.648   2.238  0.4060 -0.4748 -0.3603
  313TIP3    H222575   1.101   1.770   2.176 -0.8423  1.7879  2.5408
  314TIP3   OH222576   4.265   5.181   1.578 -0.0774 -0.2647 -0.0743
  314TIP3    H122577   4.340   5.228   1.614 -0.6059  0.1888  0.4581
  314TIP3    H222578   4.294   5.091   1.570  0.0340 -0.4121  1.6178
  315TIP3   OH222579   3.553   2.771   7.915  0.0142  0.4042 -0.4322
  315TIP3    H122580   3.546   2.676   7.930 -1.0046  0.1436 -2.2470
  315TIP3    H222581   3.462   2.801   7.911  0.3276  1.4515 -0.0071
  316TIP3   OH222582   6.335   3.350   8.407  0.6015  0.2730 -0.5101
  316TIP3    H122583   6.324   3.280   8.343  0.4963  0.9619 -1.2625
  316TIP3    H222584   6.345   3.429   8.354 -0.3602  0.9844  0.3373
  317TIP3   OH222585   3.650   1.821   8.466  0.2221 -0.3812  0.2822
  317TIP3    H122586   3.718   1.888   8.453 -2.1570  2.7421  2.2100
  317TIP3    H222587   3.589   1.834   8.394  0.6424 -1.7984 -0.3471
  318TIP3   OH222588   3.119   5.328   7.974  0.1866  0.1658  0.0231
  318TIP3    H122589   3.030   5.356   7.997 -0.2828 -0.0230 -1.4782
  318TIP3    H222590   3.118   5.320   7.879  1.3407 -1.4306  0.1027
  319TIP3   OH222591   0.873   0.332   8.229 -0.1292  0.9037  0.4119
  319TIP3    H122592   0.890   0.363   8.318 -0.5919  0.3265  0.7129
  319TIP3    H222593   0.879   0.410   8.174  1.8815  1.0009  0.7066
  320TIP3   OH222594   3.624   6.100   6.933  0.3270  0.0261  0.4196
  320TIP3    H122595   3.614   6.028   6.996 -1.4243 -0.6211 -0.5255
  320TIP3    H222596   3.712   6.089   6.898 -0.1499 -2.1952 -0.2790
  321TIP3   OH222597   4.047   2.274   1.364 -0.3523  0.4031 -0.2887
  321TIP3    H122598   4.049   2.314   1.277  2.2187 -0.6007 -0.7839
  321TIP3    H222599   4.021   2.183   1.348  2.6454 -0.5435 -0.5042
  322TIP3   OH222600   4.812   5.040   7.676 -0.2878 -0.5187  0.1190
  322TIP3    H122601   4.798   4.961   7.730 -1.1353 -1.6731 -1.6920
  322TIP3    H222602   4.825   5.006   7.588  0.0072  1.3769 -0.6025
  323TIP3   OH222603   3.571   4.414   8.325 -0.8449 -0.6099  0.3912
  323TIP3    H122604   3.650   4.469   8.322  0.1763 -2.0413  0.2811
  323TIP3    H222605   3.586   4.356   8.400 -1.4415 -1.4169 -0.1077
  324TIP3   OH222606   4.060   4.033   1.911  0.4038 -0.9126  0.1002
  324TIP3    H122607   3.976   4.017   1.869  0.5441 -2.3836  0.3238
  324TIP3    H222608   4.044   4.016   2.004  0.9976 -1.4559  0.1127
  325TIP3   OH222609   4.130   4.362   7.908  0.8247  0.4083 -0.0963
  325TIP3    H122610   4.166   4.302   7.974  1.6055 -0.6423 -1.4187
  325TIP3    H222611   4.038   4.337   7.900  1.0721 -0.4274 -0.4202
  326TIP3   OH222612   3.967   0.262   1.300 -0.0074 -0.2647  0.7717
  326TIP3    H122613   4.014   0.194   1.349  0.2125 -1.0643 -0.4981
  326TIP3    H222614   3.999   0.253   1.211 -2.6161 -0.8625 -0.1814
  327TIP3   OH222615   2.813   3.839   2.567 -0.6735 -0.2440 -0.0406
  327TIP3    H122616   2.800   3.922   2.614 -1.3140  0.7235 -1.8333
  327TIP3    H222617   2.900   3.848   2.527  0.2684 -1.4409  1.5888
  328TIP3   OH222618   6.332   1.261   1.156  0.3599  0.6743 -0.1541
  328TIP3    H122619   6.357   1.188   1.099  1.9411  1.7600 -0.9320
  328TIP3    H222620   6.253   1.231   1.200 -0.5037 -0.5166 -2.3640
  329TIP3   OH222621   2.992   5.703   1.502 -0.7196  0.8194 -0.3845
  329TIP3    H122622   2.994   5.774   1.437 -2.1323  1.8546  0.6467
  329TIP3    H222623   3.000   5.623   1.449  0.7502  1.6961 -1.5898
  330TIP3   OH222624   4.837   3.236   0.237  0.4038  0.2941 -0.0007
  330TIP3    H122625   4.809   3.195   0.318  1.8660 -1.3073 -0.2495
  330TIP3    H222626   4.832   3.330   0.255 -1.7116  0.0328  1.0500
  331TIP3   OH222627   6.631   3.509   1.383 -0.4031 -0.2705 -0.0972
  331TIP3    H122628   6.695   3.577   1.364 -0.2336 -0.4911 -0.3206
  331TIP3    H222629   6.618   3.514   1.477 -2.5848  2.0347 -0.4085
  332TIP3   OH222630   2.087   1.118   7.988 -0.3790  0.0442  0.3037
  332TIP3    H122631   1.993   1.123   8.008 -0.6770  0.2605 -1.0598
  332TIP3    H222632   2.115   1.034   8.024 -1.2617 -0.3570  0.0696
  333TIP3   OH222633   5.854   0.804   1.876 -0.2135  0.3171 -0.2272
  333TIP3    H122634   5.798   0.792   1.799  0.6167 -0.4925 -0.7275
  333TIP3    H222635   5.873   0.715   1.906  1.9262  0.4866 -0.9143
  334TIP3   OH222636   1.731   3.137   1.620  0.3746  0.3943  0.4236
  334TIP3    H122637   1.653   3.189   1.643  0.3763  0.2434  0.7703
  334TIP3    H222638   1.799   3.169   1.680  0.3461 -0.0862  0.7217
  335TIP3   OH222639   1.275   2.393   0.487 -0.0585 -0.0295  0.1670
  335TIP3    H122640   1.208   2.460   0.499 -0.6515 -0.8565  1.7219
  335TIP3    H222641   1.358   2.438   0.504  0.0493  1.3937 -3.2633
  336TIP3   OH222642   5.444   3.511   6.970  0.0299 -0.1817 -0.5412
  336TIP3    H122643   5.446   3.601   6.938  1.0151  0.0926  0.2452
  336TIP3    H222644   5.360   3.505   7.017 -0.0919  0.2819 -0.6955
  337TIP3   OH222645   6.656   5.696   8.292  0.1277 -0.9353  0.0085
  337TIP3    H122646   6.725   5.728   8.349  0.2942  0.8728 -1.1167
  337TIP3    H222647   6.577   5.700   8.345  0.1847  1.2215  0.0321
  338TIP3   OH222648   4.997   1.645   6.929  0.5566  0.2652  0.0732
  338TIP3    H122649   4.942   1.679   6.859  0.7833 -0.0313 -0.2513
  338TIP3    H222650   5.012   1.720   6.987 -0.7898  0.1790  0.5620
  339TIP3   OH222651   4.169   2.605   7.116  0.1313  0.2647 -0.1081
  339TIP3    H122652   4.176   2.612   7.021 -1.7598 -0.7825 -0.3838
  339TIP3    H222653   4.075   2.612   7.133  0.2062 -1.8360  1.4707
  340TIP3   OH222654   3.398   4.186   1.979 -0.4190 -0.2677 -0.1034
  340TIP3    H122655   3.403   4.237   2.059  0.2458  1.5462 -1.2232
  340TIP3    H222656   3.486   4.148   1.969 -0.3538 -0.0979 -0.1928
  341TIP3   OH222657   1.244   6.877   7.395  0.7013 -0.2846  0.0780
  341TIP3    H122658   1.307   6.947   7.377  0.5204 -0.0369  0.4050
  341TIP3    H222659   1.169   6.921   7.435  1.1972 -0.8341  1.7097
  342TIP3   OH222660   3.221   6.534   1.914 -0.2217  0.2055  0.2523
  342TIP3    H122661   3.200   6.454   1.963  1.0017 -0.5763 -0.4364
  342TIP3    H222662   3.224   6.506   1.823 -0.5794  1.2274 -0.0843
  343TIP3   OH222663   5.819   2.326   8.377 -0.2660 -0.0916 -0.3955
  343TIP3    H122664   5.802   2.415   8.410  0.7957  0.1181 -0.3692
  343TIP3    H222665   5.768   2.320   8.297  0.0231  0.7328 -0.6560
  344TIP3   OH222666   1.145   6.253   2.139 -0.3261 -0.5358  0.4480
  344TIP3    H122667   1.152   6.342   2.105 -2.9122 -1.2399 -2.3339
  344TIP3    H222668   1.218   6.245   2.201  2.1249  2.3427 -1.7683
  345TIP3   OH222669   1.678   0.868   7.561  0.5429 -0.3308 -1.0565
  345TIP3    H122670   1.614   0.878   7.632 -0.8832 -1.8229 -2.0530
  345TIP3    H222671   1.744   0.808   7.597  1.8624  1.7433  0.2188
  346TIP3   OH222672   1.329   0.658   7.435 -0.2044  0.2459 -0.2297
  346TIP3    H122673   1.286   0.574   7.419  1.8285 -1.0197  0.7110
  346TIP3    H222674   1.383   0.644   7.512  0.8004  2.1876 -0.5146
  347TIP3   OH222675   3.210   4.813   0.124 -0.8399  0.2831  0.4292
  347TIP3    H122676   3.260   4.761   0.061  1.2897 -0.9499  2.9398
  347TIP3    H222677   3.215   4.903   0.090 -0.0916 -0.3556 -1.2822
  348TIP3   OH222678   0.805   4.576   1.047  0.3018  0.4113 -0.1253
  348TIP3    H122679   0.768   4.663   1.055  0.6166  0.5100  0.2618
  348TIP3    H222680   0.842   4.557   1.133  0.5988  0.0646 -0.3245
  349TIP3   OH222681   5.468   3.422   2.441  0.0535  0.0587 -0.8642
  349TIP3    H122682   5.481   3.418   2.346 -1.9305  0.7229 -1.2100
  349TIP3    H222683   5.373   3.426   2.452  0.2546  0.2713  1.1514
  350TIP3   OH222684   5.435   4.872   1.571  0.5046  0.2175 -0.0263
  350TIP3    H122685   5.474   4.790   1.599  1.2618  0.6569  0.2263
  350TIP3    H222686   5.395   4.908   1.651  0.6187  0.3437 -0.0270
  351TIP3   OH222687   5.174   6.618   8.407  0.2618  0.0028  0.0547
  351TIP3    H122688   5.164   6.602   8.313 -2.1197  1.1684  0.0263
  351TIP3    H222689   5.103   6.566   8.447  0.2756  0.7215  1.0456
  352TIP3   OH222690   4.428   5.467   0.974  0.0648 -0.0460  0.3022
  352TIP3    H122691   4.427   5.554   0.933  0.7408  0.8323  2.0748
  352TIP3    H222692   4.338   5.437   0.966  0.0957  0.1903 -1.5441
  353TIP3   OH222693   4.281   3.111   8.422  0.0946 -0.0636 -0.3109
  353TIP3    H122694   4.341   3.039   8.403  0.8401  0.1400  1.1445
  353TIP3    H222695   4.317   3.186   8.374  2.1197  0.5186  1.8981
  354TIP3   OH222696   1.996   4.140   2.224 -0.5096 -0.0768  0.3953
  354TIP3    H122697   1.973   4.047   2.233  0.5983 -0.3744  0.3145
  354TIP3    H222698   2.082   4.147   2.265 -0.7297  0.9934  0.6983
  355TIP3   OH222699   4.635   0.959   7.107 -0.0630  0.4316  0.0807
  355TIP3    H122700   4.678   1.020   7.167  1.0276  0.1995 -0.4532
  355TIP3    H222701   4.676   0.976   7.022 -1.0375  0.2145 -0.4515
  356TIP3   OH222702   2.311   4.487   6.489 -0.3816  0.0046  0.2532
  356TIP3    H122703   2.398   4.468   6.454 -1.2771 -0.9465 -1.5879
  356TIP3    H222704   2.319   4.469   6.583  2.0868  2.5707  0.6437
  357TIP3   OH222705   0.518   2.770   1.230 -0.1045 -0.4280  0.4779
  357TIP3    H122706   0.519   2.726   1.144 -0.3515 -1.3506  0.9312
  357TIP3    H222707   0.606   2.805   1.240  1.0494 -3.2535  1.2884
  358TIP3   OH222708   2.395   1.587   8.025  0.2593 -0.1174  0.4575
  358TIP3    H122709   2.391   1.492   8.019  0.5498 -0.0527 -1.3247
  358TIP3    H222710   2.312   1.617   7.990  0.4426  0.2886  0.3610
  359TIP3   OH222711   3.527   5.253   0.583  0.7176  0.1684 -0.3744
  359TIP3    H122712   3.517   5.324   0.520  0.3753 -0.9289 -1.6231
  359TIP3    H222713   3.621   5.233   0.581  1.4413  2.6419  2.4175
  360TIP3   OH222714   5.610   5.649   1.693 -0.1796 -0.5222 -0.0411
  360TIP3    H122715   5.622   5.554   1.686  0.6058 -0.4088 -0.3841
  360TIP3    H222716   5.688   5.686   1.652 -0.6427  0.2806 -0.2304
  361TIP3   OH222717   5.695   1.715   7.695  0.7617  0.1803  0.1694
  361TIP3    H122718   5.644   1.757   7.764 -0.7813  0.5490 -1.1354
  361TIP3    H222719   5.684   1.621   7.710  3.5284  0.0777  2.5890
  362TIP3   OH222720   6.200   5.742   0.580 -0.4824 -0.2562  0.4124
  362TIP3    H122721   6.247   5.732   0.663 -1.2924 -1.7271  0.7346
  362TIP3    H222722   6.108   5.747   0.605 -0.7506 -0.8849 -0.4045
  363TIP3   OH222723   0.865   1.411   0.608  0.1733 -0.1376 -0.4679
  363TIP3    H122724   0.836   1.382   0.522  0.0179  1.4441 -0.9680
  363TIP3    H222725   0.818   1.493   0.624  0.6874 -0.0658  0.8414
  364TIP3   OH222726   1.212   2.443   1.860  0.0454 -0.0458 -0.5141
  364TIP3    H122727   1.241   2.411   1.945 -0.2792  0.1422 -0.3327
  364TIP3    H222728   1.185   2.534   1.877 -1.3069 -0.4287 -0.5427
  365TIP3   OH222729   0.003   6.728   7.980 -0.4054  0.3016 -0.1403
  365TIP3    H122730  -0.032   6.805   7.936 -0.4423 -0.3048 -1.1857
  365TIP3    H222731  -0.069   6.665   7.981 -1.4642  1.3178  3.5487
  366TIP3   OH222732   5.385   3.919   0.833 -0.0531  0.5319  0.2281
  366TIP3    H122733   5.356   3.978   0.903 -0.3447  0.3529  0.2612
  366TIP3    H222734   5.453   3.865   0.873  0.1634  0.7966  0.2181
  367TIP3   OH222735   2.478   4.637   0.884 -0.0430  0.3255  0.1680
  367TIP3    H122736   2.532   4.573   0.838  0.0478  1.7979 -1.9222
  367TIP3    H222737   2.524   4.653   0.966  2.2144  0.7922 -1.1091
  368TIP3   OH222738   1.333   3.625   7.669 -0.2654 -0.6132  0.0864
  368TIP3    H122739   1.378   3.688   7.725 -0.6709  0.5763 -0.8768
  368TIP3    H222740   1.347   3.658   7.580 -3.4915  0.2199 -0.2650
  369TIP3   OH222741   1.074   4.823   2.341  0.2838 -0.4806 -0.1977
  369TIP3    H122742   1.026   4.855   2.418  2.3275  0.8777  0.6383
  369TIP3    H222743   1.145   4.770   2.378  1.6404  0.6611 -1.0436
  370TIP3   OH222744   5.758   0.285   7.455  0.0599  0.5937  0.4454
  370TIP3    H122745   5.714   0.204   7.430  1.3306 -0.2856  0.9088
  370TIP3    H222746   5.758   0.283   7.551  0.8338  0.7107  0.4548
  371TIP3   OH222747   3.634   5.939   1.633  0.2948  0.3750 -0.1743
  371TIP3    H122748   3.573   5.989   1.687  0.4139  0.4406 -0.0984
  371TIP3    H222749   3.657   5.998   1.561 -0.0000  0.2228 -0.3929
  372TIP3   OH222750   4.195   5.352   1.793  0.0506 -0.0546  0.3720
  372TIP3    H122751   4.126   5.351   1.860  1.2744 -3.7159  1.7813
  372TIP3    H222752   4.170   5.284   1.731  0.2270  1.5968 -1.6053
  373TIP3   OH222753   6.764   5.841   0.278  0.1283 -0.0426  0.3481
  373TIP3    H122754   6.791   5.844   0.370 -1.6391  0.4046  0.9000
  373TIP3    H222755   6.745   5.749   0.261  0.8864 -0.1908  0.2894
  374TIP3   OH222756   2.024   3.823   0.191  0.5151 -0.5179  0.2876
  374TIP3    H122757   2.068   3.907   0.203 -1.4271  0.6499 -0.3481
  374TIP3    H222758   2.031   3.805   0.097 -0.2203 -0.3667  0.1930
  375TIP3   OH222759   1.463   3.338   1.453  0.1189  0.2975 -0.4868
  375TIP3    H122760   1.368   3.332   1.443 -0.0543 -0.2179  1.1559
  375TIP3    H222761   1.496   3.354   1.364 -1.2936 -2.3065 -1.5980
  376TIP3   OH222762   0.414   5.194   7.602 -0.0136  0.7045  0.1235
  376TIP3    H122763   0.450   5.261   7.660 -0.0639  0.4104  0.4927
  376TIP3    H222764   0.339   5.158   7.649  0.2351  0.1327  0.0854
  377TIP3   OH222765   2.889   6.346   2.576  0.1449 -0.0464  0.1742
  377TIP3    H122766   2.837   6.385   2.506  0.4629 -1.2437 -0.7412
  377TIP3    H222767   2.826   6.295   2.627 -0.3416  1.8068  1.5782
  378TIP3   OH222768   5.159   1.707   7.186  0.0664 -0.2914 -0.0749
  378TIP3    H122769   5.136   1.790   7.227  1.3007  0.6969 -1.2957
  378TIP3    H222770   5.198   1.731   7.102  0.4131 -2.1129 -0.4861
  379TIP3   OH222771   4.474   4.987   7.731 -0.4554  0.2782  0.3599
  379TIP3    H122772   4.412   4.972   7.802 -1.2436  0.2694 -0.3102
  379TIP3    H222773   4.505   5.076   7.744  0.3948 -0.1565  1.4514
  380TIP3   OH222774   2.694   1.505   0.279 -0.2367  0.4621  0.2420
  380TIP3    H122775   2.623   1.549   0.231 -0.3161 -0.4881 -0.5332
  380TIP3    H222776   2.754   1.474   0.211  0.4250  0.3959  0.8437
  381TIP3   OH222777   2.469   5.739   1.553 -0.0221 -0.3297 -0.0306
  381TIP3    H122778   2.548   5.784   1.525  0.1852  0.0881  1.1636
  381TIP3    H222779   2.479   5.649   1.521  0.2987  0.0664 -1.0509
  382TIP3   OH222780   5.030   5.160   1.246 -0.3908 -0.0912 -0.1360
  382TIP3    H122781   5.041   5.123   1.334  0.9259  0.8932  0.1491
  382TIP3    H222782   4.955   5.113   1.209  0.2867 -1.9408  0.7436
  383TIP3   OH222783   0.563   6.447   1.521  0.0176  0.1911  0.0510
  383TIP3    H122784   0.515   6.372   1.487 -0.4816 -0.2749  1.6750
  383TIP3    H222785   0.654   6.430   1.498 -0.1625 -0.6754 -0.0370
  384TIP3   OH222786   1.772   3.807   0.396  0.3982 -0.1472 -0.1527
  384TIP3    H122787   1.849   3.756   0.422  0.0585 -0.7457 -0.3307
  384TIP3    H222788   1.747   3.854   0.476 -0.4376 -1.7215  0.5449
  385TIP3   OH222789   0.046   5.474   7.282  0.2855 -0.1026  0.0026
  385TIP3    H122790   0.041   5.554   7.334 -0.4252  0.0382 -0.2737
  385TIP3    H222791  -0.041   5.466   7.242 -0.0059 -1.6083  0.9058
  386TIP3   OH222792   0.902   5.706   0.880 -0.0396 -0.1191  0.0831
  386TIP3    H122793   0.929   5.622   0.917  0.4521 -0.6712 -1.4172
  386TIP3    H222794   0.958   5.771   0.923  0.5120 -0.7245  0.3005
  387TIP3   OH222795   5.774   6.376   0.147 -0.6373 -0.7787  0.2766
  387TIP3    H122796   5.830   6.387   0.071 -1.6516 -0.0383 -0.3728
  387TIP3    H222797   5.692   6.419   0.124  0.0273  2.2429  2.9162
  388TIP3   OH222798   3.355   4.707   7.603  0.5916 -0.2950 -0.0123
  388TIP3    H122799   3.445   4.674   7.598  0.9246  0.5025  0.5395
  388TIP3    H222800   3.321   4.670   7.684  0.7510  0.1827  0.2765
  389TIP3   OH222801   2.606   6.145   8.043 -0.0806 -0.2868  0.1717
  389TIP3    H122802   2.666   6.075   8.016  0.2844  0.7362 -1.8597
  389TIP3    H222803   2.519   6.110   8.027  0.0992 -0.3340 -0.7539
  390TIP3   OH222804   5.307   1.430   6.688 -0.3459 -0.0608 -0.0334
  390TIP3    H122805   5.350   1.345   6.703 -0.4982 -0.1278  0.0232
  390TIP3    H222806   5.376   1.485   6.650 -0.2506 -0.2138 -0.0831
  391TIP3   OH222807   1.633   2.022   6.424  0.0883  0.0674 -0.3616
  391TIP3    H122808   1.713   2.012   6.373 -1.0848 -1.5831 -2.0273
  391TIP3    H222809   1.610   1.933   6.451 -1.5780  0.3747 -0.6116
  392TIP3   OH222810   3.039   6.116   0.147 -1.0374  0.6933 -0.4092
  392TIP3    H122811   2.971   6.060   0.107 -0.0003 -0.7538 -0.2362
  392TIP3    H222812   3.074   6.166   0.073 -0.4988 -0.5080 -1.0058
  393TIP3   OH222813   0.370   3.254   7.632 -0.5072 -0.0657  0.5539
  393TIP3    H122814   0.404   3.290   7.550 -1.6950  0.6481  0.3515
  393TIP3    H222815   0.414   3.170   7.642  0.3077  0.2410 -0.3585
  394TIP3   OH222816   4.619   5.206   2.554  0.3731 -0.4123  1.0787
  394TIP3    H122817   4.579   5.226   2.639  1.9143  3.3144  1.1156
  394TIP3    H222818   4.550   5.222   2.490  0.4944  1.5913  1.4010
  395TIP3   OH222819   2.984   0.870   7.783 -0.2633  0.0895 -0.9885
  395TIP3    H122820   2.993   0.797   7.722 -1.0007 -0.7315 -0.1424
  395TIP3    H222821   2.892   0.894   7.778 -0.2090  0.3931 -0.6182
  396TIP3   OH222822   3.036   4.786   7.150 -0.4802  0.4223  0.2777
  396TIP3    H122823   3.089   4.834   7.086 -0.0333  0.5952  0.7619
  396TIP3    H222824   2.948   4.821   7.140 -0.2641  0.9657  0.2601
  397TIP3   OH222825   0.461   0.427   0.321 -0.4856  0.6078 -0.1490
  397TIP3    H122826   0.530   0.486   0.292  1.2106 -1.1926  0.0215
  397TIP3    H222827   0.436   0.379   0.242 -0.0773 -0.1605  0.1780
  398TIP3   OH222828   6.680   3.387   0.598  0.5567 -0.1168  0.0654
  398TIP3    H122829   6.644   3.369   0.510  0.6826  1.5894 -0.3700
  398TIP3    H222830   6.737   3.313   0.616  1.4383  0.0393 -1.8249
  399TIP3   OH222831   5.702   3.582   7.558  0.3027 -0.4184  0.2097
  399TIP3    H122832   5.658   3.555   7.476 -1.5947  1.4345  0.5201
  399TIP3    H222833   5.737   3.668   7.538  0.6468 -0.3558  1.0746
  400TIP3   OH222834   4.452   5.836   6.410 -0.9768 -0.6631 -0.0371
  400TIP3    H122835   4.395   5.799   6.477 -2.1550 -0.5201 -0.9330
  400TIP3    H222836   4.396   5.895   6.360 -0.1790 -0.9151 -1.2785
  401TIP3   OH222837   1.528   2.144   0.026 -0.3505  0.3862  0.1341
  401TIP3    H122838   1.518   2.237   0.008  1.9951  0.3951 -1.5554
  401TIP3    H222839   1.613   2.137   0.069 -0.3121 -1.0321 -0.1368
  402TIP3   OH222840   0.731   4.377   0.159  0.5055  0.2555 -0.4708
  402TIP3    H122841   0.642   4.389   0.193  0.7569 -1.2224  0.7993
  402TIP3    H222842   0.720   4.319   0.084  0.3444  0.6589 -0.7684
  403TIP3   OH222843   5.611   5.517   1.052  0.1938  0.4713  0.3834
  403TIP3    H122844   5.596   5.486   1.141 -0.7431  1.6789  0.6654
  403TIP3    H222845   5.705   5.538   1.050 -0.0094  1.6310  1.5050
  404TIP3   OH222846   4.863   1.689   7.498  0.4945 -0.2004  0.2191
  404TIP3    H122847   4.798   1.657   7.435  1.0208  0.1409 -0.5102
  404TIP3    H222848   4.857   1.784   7.492  1.5961 -0.1507 -0.4408
  405TIP3   OH222849   5.970   3.745   2.297 -0.6242 -0.3648 -0.3956
  405TIP3    H122850   5.946   3.675   2.236  1.2602  0.0473 -1.7222
  405TIP3    H222851   6.037   3.705   2.353 -0.8081 -0.1322 -0.0132
  406TIP3   OH222852   6.269   0.576   7.710 -0.0243  0.4431 -0.2656
  406TIP3    H122853   6.294   0.489   7.740 -1.2034 -0.3724 -1.5158
  406TIP3    H222854   6.296   0.578   7.618 -1.1719  0.9009 -0.6117
  407TIP3   OH222855   1.767   6.888   7.939 -0.1724  0.5549 -0.4989
  407TIP3    H122856   1.798   6.873   8.028 -1.6584  2.2787  0.3766
  407TIP3    H222857   1.742   6.801   7.907  0.3795 -0.0830  0.7549
  408TIP3   OH222858   0.628   3.155   1.622 -0.0455  0.3100  0.8614
  408TIP3    H122859   0.548   3.181   1.576  0.0897  1.3414  1.1774
  408TIP3    H222860   0.597   3.101   1.695 -0.4237  0.4220  0.7883
  409TIP3   OH222861   0.313   6.472   1.030  0.4176  0.7406  0.0101
  409TIP3    H122862   0.325   6.565   1.011 -0.6204  1.4447  2.3481
  409TIP3    H222863   0.219   6.459   1.030  0.5514 -0.3587 -0.4159
  410TIP3   OH222864   1.293   0.633   2.305 -0.0752  0.1026  0.0080
  410TIP3    H122865   1.293   0.545   2.342  0.7915 -0.1602 -0.5647
  410TIP3    H222866   1.235   0.627   2.229  0.6384 -0.2285 -0.5360
  411TIP3   OH222867   1.207   2.821   1.035 -0.3174 -0.0751 -0.4235
  411TIP3    H122868   1.253   2.757   1.090  0.5786  1.7027  0.9992
  411TIP3    H222869   1.271   2.847   0.970  0.1286  1.0542  0.4368
  412TIP3   OH222870   3.226   5.658   7.518 -0.4305 -0.1108  0.0104
  412TIP3    H122871   3.169   5.666   7.441 -2.1400 -1.2857  1.1082
  412TIP3    H222872   3.223   5.566   7.541  0.7136  0.0856  1.0334
  413TIP3   OH222873   6.831   0.900   1.349 -0.5532  0.1336 -0.0274
  413TIP3    H122874   6.764   0.911   1.417 -0.2764  0.3637  0.2089
  413TIP3    H222875   6.838   0.805   1.339 -1.0984  0.1079 -0.2398
  414TIP3   OH222876   5.540   5.500   0.151 -0.0674  0.0523 -0.1869
  414TIP3    H122877   5.445   5.490   0.139 -0.0716 -0.8409  0.4922
  414TIP3    H222878   5.557   5.592   0.130 -0.9859  0.0709 -0.9128
  415TIP3   OH222879   6.518   4.935   7.555 -1.0394  0.6880  0.0435
  415TIP3    H122880   6.544   4.947   7.646 -3.2234  0.7814  0.7171
  415TIP3    H222881   6.529   5.021   7.515  0.6760  0.4621 -0.0166
  416TIP3   OH222882   6.509   5.281   0.552 -0.7581 -0.4997  0.4344
  416TIP3    H122883   6.565   5.348   0.514  0.9979 -1.4299  1.2339
  416TIP3    H222884   6.464   5.241   0.478  0.9841 -0.8659 -0.4822
  417TIP3   OH222885   5.472   6.295   8.260 -0.0347  0.6758  0.1450
  417TIP3    H122886   5.491   6.380   8.300 -0.6093  0.3893  1.0741
  417TIP3    H222887   5.397   6.311   8.202  0.7898  1.0919 -0.8267
  418TIP3   OH222888   3.183   4.438   7.544  0.0256  0.2411 -0.3491
  418TIP3    H122889   3.172   4.502   7.474  0.1678  1.5096  0.7457
  418TIP3    H222890   3.273   4.448   7.573  0.5086 -1.5097 -1.1144
  419TIP3   OH222891   6.815   6.584   0.184 -0.0682  0.1030  0.0229
  419TIP3    H122892   6.760   6.581   0.106 -0.4766 -0.4500  0.3196
  419TIP3    H222893   6.832   6.677   0.199 -0.1242  0.2207 -0.6246
  420TIP3   OH222894   5.016   2.871   0.213  0.5059 -0.1885 -0.4851
  420TIP3    H122895   5.081   2.815   0.255  1.4895  1.1257 -0.2284
  420TIP3    H222896   5.037   2.959   0.241 -1.6398  0.2595 -0.0711
  421TIP3   OH222897   4.672   1.399   6.908 -0.4031  0.6409  0.0755
  421TIP3    H122898   4.634   1.465   6.965 -1.1565 -0.4353  0.8672
  421TIP3    H222899   4.713   1.448   6.838 -2.0525  1.9141 -0.0517
  422TIP3   OH222900   2.893   1.354   7.450  0.4281  0.6960 -0.1030
  422TIP3    H122901   2.939   1.389   7.527 -0.1010  0.6084  0.2603
  422TIP3    H222902   2.913   1.415   7.380 -0.7653  1.9522  0.5938
  423TIP3   OH222903   5.043   1.749   2.355  0.2396  0.5162  0.1704
  423TIP3    H122904   5.133   1.781   2.353  0.9642 -1.4439 -1.3764
  423TIP3    H222905   4.996   1.804   2.292  0.0624  2.1207  1.6088
  424TIP3   OH222906   3.780   2.568   7.606 -0.4609 -0.7104 -0.2166
  424TIP3    H122907   3.758   2.645   7.554  0.1531  0.8330  1.6933
  424TIP3    H222908   3.773   2.495   7.544 -3.8447  0.4416 -1.4618
  425TIP3   OH222909   1.033   0.156   0.771 -0.2427  0.2365  0.2984
  425TIP3    H122910   0.952   0.207   0.781 -0.6140  0.0824 -1.4719
  425TIP3    H222911   1.102   0.221   0.762 -0.4016  0.3966  0.2267
  426TIP3   OH222912   3.092   0.132   1.289  0.0222  1.0152  0.0109
  426TIP3    H122913   3.166   0.156   1.233  0.5101  0.5426  0.4433
  426TIP3    H222914   3.122   0.054   1.336 -1.5658 -0.5652 -1.4616
  427TIP3   OH222915   0.533   3.842   2.143 -0.0923 -0.1464 -0.3659
  427TIP3    H122916   0.576   3.899   2.206 -0.1400 -0.1874 -0.2952
  427TIP3    H222917   0.445   3.879   2.134 -0.6906 -1.1690  0.9556
  428TIP3   OH222918   0.442   5.179   8.124  0.4050  0.2447 -0.2498
  428TIP3    H122919   0.479   5.184   8.036  0.1347  0.1985 -0.3669
  428TIP3    H222920   0.376   5.110   8.118  0.6854 -0.0577  0.1002
  429TIP3   OH222921   4.358   5.480   7.486 -0.4050 -0.2502  0.0162
  429TIP3    H122922   4.307   5.486   7.406 -0.0993  0.6049 -0.1305
  429TIP3    H222923   4.411   5.401   7.475 -0.5135 -0.2499 -0.5379
  430TIP3   OH222924   4.256   3.241   1.906 -0.0694  0.1826  0.3037
  430TIP3    H122925   4.205   3.182   1.850  1.4621 -0.6457 -0.2586
  430TIP3    H222926   4.345   3.207   1.903  0.6417  1.8842  0.8739
  431TIP3   OH222927   1.912   3.009   8.042  0.1252 -0.5935  0.0823
  431TIP3    H122928   1.897   3.044   7.954 -1.0536 -1.2368  0.0052
  431TIP3    H222929   1.845   3.051   8.096  0.8942 -0.1390  0.7029
  432TIP3   OH222930   2.109   2.438   8.266 -0.1738  0.4570 -0.0457
  432TIP3    H122931   2.023   2.440   8.226 -0.1110  2.5932 -0.1753
  432TIP3    H222932   2.164   2.489   8.207  1.7961 -2.5897 -1.1319
  433TIP3   OH222933   3.494   6.164   1.717 -0.2071 -0.3040 -0.0277
  433TIP3    H122934   3.479   6.201   1.805 -1.2049  0.8893 -0.6651
  433TIP3    H222935   3.560   6.221   1.679 -0.7252 -0.0107 -0.5062
  434TIP3   OH222936   1.056   1.022   2.506 -0.3141 -0.8336 -0.1450
  434TIP3    H122937   1.107   0.974   2.441  0.8526  0.8651 -0.5618
  434TIP3    H222938   1.122   1.063   2.563 -0.9725  3.0244 -1.8425
  435TIP3   OH222939   2.436   1.299   1.037  0.0820 -0.5921 -0.5516
  435TIP3    H122940   2.509   1.277   0.979  0.7416 -2.1516  0.7865
  435TIP3    H222941   2.442   1.394   1.048  1.4003 -0.5876 -1.1305
  436TIP3   OH222942   5.623   1.261   0.355  0.4478  0.2706  0.6933
  436TIP3    H122943   5.703   1.296   0.393  0.8734  0.2435 -0.1555
  436TIP3    H222944   5.623   1.169   0.381  2.6566 -0.7500 -2.3056
  437TIP3   OH222945   5.693   0.842   1.148  0.0832  0.1142  0.4538
  437TIP3    H122946   5.780   0.822   1.182  0.1940  0.2345  0.2502
  437TIP3    H222947   5.644   0.760   1.154 -0.4264  0.5110  2.4192
  438TIP3   OH222948   6.834   6.034   8.128 -0.5324 -0.2597 -0.5513
  438TIP3    H122949   6.793   6.015   8.044 -0.0559 -0.5815 -0.7150
  438TIP3    H222950   6.912   5.978   8.130  0.6735  1.3185 -0.8512
  439TIP3   OH222951   1.288   4.245   1.641  0.2091 -0.2143  0.1230
  439TIP3    H122952   1.339   4.306   1.694 -1.4559  0.1915  1.3218
  439TIP3    H222953   1.205   4.236   1.687 -0.5364 -1.4499 -1.3642
  440TIP3   OH222954   1.316   4.573   0.721  0.3660  0.1619  0.0219
  440TIP3    H122955   1.305   4.651   0.776  0.9811  0.8186 -0.7640
  440TIP3    H222956   1.261   4.507   0.763  1.3549  0.4288  1.8117
  441TIP3   OH222957   4.070   0.146   7.858  0.5006  0.5292  0.0059
  441TIP3    H122958   4.094   0.070   7.806  0.7538  0.7926 -0.2698
  441TIP3    H222959   4.025   0.204   7.796  1.5065  1.1959 -0.1349
  442TIP3   OH222960   4.521   4.548   7.246  0.2102 -0.0456 -0.3845
  442TIP3    H122961   4.564   4.479   7.297  2.4402  2.8027  1.8695
  442TIP3    H222962   4.523   4.515   7.156  2.1340 -2.4587  0.4344
  443TIP3   OH222963   1.075   5.568   7.415  0.1051  0.5908 -0.0873
  443TIP3    H122964   1.063   5.520   7.333  2.2389  1.6523 -1.0954
  443TIP3    H222965   1.054   5.504   7.483 -1.4078 -0.4158 -1.4254
  444TIP3   OH222966   3.193   4.315   7.223  0.5436 -0.2018 -0.3625
  444TIP3    H122967   3.138   4.392   7.209 -0.6124 -1.1112 -1.0014
  444TIP3    H222968   3.254   4.341   7.292  0.1604  1.2617 -0.5424
  445TIP3   OH222969   2.367   2.498   1.370  0.5563  0.1042  0.3296
  445TIP3    H122970   2.446   2.466   1.412  0.6024 -0.2965 -0.0466
  445TIP3    H222971   2.307   2.423   1.372 -0.9570  1.2415  3.3033
  446TIP3   OH222972   6.029   2.843   0.105 -0.7465  0.3602 -0.0546
  446TIP3    H122973   5.971   2.894   0.162 -0.4752 -0.0258  0.5867
  446TIP3    H222974   6.076   2.784   0.165  0.5318  0.8664 -0.5232
  447TIP3   OH222975   1.568   1.559   7.886 -0.5667  0.0685 -0.4262
  447TIP3    H122976   1.530   1.602   7.810 -0.9428 -1.1609 -0.9523
  447TIP3    H222977   1.508   1.488   7.907  0.2703 -0.5027  0.1253
  448TIP3   OH222978   1.655   3.806   0.728  0.6163 -0.1967  0.2310
  448TIP3    H122979   1.619   3.717   0.726  2.6733 -1.0828  0.1868
  448TIP3    H222980   1.747   3.794   0.753  0.7096  2.0078  1.1583
  449TIP3   OH222981   5.731   2.494   0.654  0.1052  0.4208  0.1902
  449TIP3    H122982   5.769   2.455   0.732  2.3268  1.2825 -0.3963
  449TIP3    H222983   5.659   2.549   0.687  0.0322 -0.3919  1.4453
  450TIP3   OH222984   1.629   2.989   1.023  0.0865 -0.0765 -0.0246
  450TIP3    H122985   1.665   2.906   1.056 -0.1993 -0.5952 -0.9734
  450TIP3    H222986   1.621   2.975   0.928  0.2634  1.1329 -0.2277
  451TIP3   OH222987   0.384   2.163   7.432  0.0003 -0.5927 -0.5569
  451TIP3    H122988   0.369   2.127   7.344  0.4380  0.1869 -0.9622
  451TIP3    H222989   0.385   2.258   7.419  0.8421 -0.4872  0.1563
  452TIP3   OH222990   6.232   5.867   7.549  0.2186 -0.7302 -0.2286
  452TIP3    H122991   6.248   5.796   7.613 -0.0301  0.6468  1.4384
  452TIP3    H222992   6.303   5.858   7.486  1.8294 -0.8259  1.4930
  453TIP3   OH222993   0.006   6.690   0.892  0.2405 -0.4177 -0.0645
  453TIP3    H122994  -0.014   6.770   0.940 -0.1695  0.0337 -0.9864
  453TIP3    H222995   0.030   6.627   0.961  0.0819  0.3409  0.7006
  454TIP3   OH222996   6.132   5.285   7.021  0.1887 -0.2420 -0.2158
  454TIP3    H122997   6.148   5.232   6.944  0.3525  0.4201 -0.6404
  454TIP3    H222998   6.062   5.238   7.068 -0.5895 -0.1460 -1.2549
  455TIP3   OH222999   4.989   5.680   7.888  0.0923  0.3218  0.6119
  455TIP3    H123000   4.918   5.701   7.948  0.3617  0.0746  1.0167
  455TIP3    H223001   5.064   5.730   7.919  0.4340 -0.3654  0.9315
  456TIP3   OH223002   0.314   4.082   7.226 -0.7082  0.1890  0.3453
  456TIP3    H123003   0.285   3.992   7.208 -1.2098  0.4157  0.0015
  456TIP3    H223004   0.233   4.131   7.240 -0.3904  0.2074  2.4122
  457TIP3   OH223005   4.219   3.710   0.789 -0.1615 -0.1851 -0.0804
  457TIP3    H123006   4.181   3.634   0.832 -0.9381  0.1391 -0.1643
  457TIP3    H223007   4.293   3.676   0.739  0.7799 -0.5674  1.5277
  458TIP3   OH223008   5.702   0.019   0.152  0.0652 -0.1717  0.0367
  458TIP3    H123009   5.688   0.069   0.071  0.9732  0.5262  0.3003
  458TIP3    H223010   5.763   0.072   0.203 -0.4618 -0.6190  1.1753
  459TIP3   OH223011   1.762   1.268   0.880  0.0617 -0.3881  0.6633
  459TIP3    H123012   1.695   1.200   0.885 -0.8178  0.4892  1.0208
  459TIP3    H223013   1.720   1.347   0.912  1.7661 -0.1712  2.5693
  460TIP3   OH223014   0.555   2.990   1.843  0.3465 -0.1628  0.6191
  460TIP3    H123015   0.464   2.988   1.873 -0.0242 -0.2207 -0.4634
  460TIP3    H223016   0.605   3.021   1.919 -0.5231 -0.4762  1.3346
  461TIP3   OH223017   1.178   2.280   1.628  0.2642 -0.1970  0.2934
  461TIP3    H123018   1.083   2.268   1.619  0.0541  2.1268 -1.2251
  461TIP3    H223019   1.188   2.324   1.712  0.2325 -1.9936  1.3100
  462TIP3   OH223020   2.449   4.549   2.070  0.3279  0.2451 -0.3540
  462TIP3    H123021   2.507   4.617   2.105  0.3659 -0.1611  0.3965
  462TIP3    H223022   2.479   4.468   2.112 -0.1209 -0.1377 -0.7586
  463TIP3   OH223023   6.914   3.134   1.658 -0.0926 -0.4165 -0.8480
  463TIP3    H123024   6.951   3.217   1.625 -1.6257  0.5608 -0.2376
  463TIP3    H223025   6.834   3.122   1.608 -0.8861 -0.5027  0.4069
  464TIP3   OH223026   2.166   2.928   8.125 -0.1541 -0.4331  0.1125
  464TIP3    H123027   2.112   2.883   8.190 -0.7611 -0.3941 -0.3571
  464TIP3    H223028   2.103   2.970   8.066  0.3727 -1.1092 -0.9591
  465TIP3   OH223029   5.916   1.155   2.353 -0.0598  0.5583 -0.3283
  465TIP3    H123030   5.912   1.068   2.312  3.6052  0.1628 -0.1733
  465TIP3    H223031   5.887   1.215   2.285 -0.1111 -0.5951 -1.3704
  466TIP3   OH223032   3.925   2.098   7.119 -0.4363 -0.7120  0.4208
  466TIP3    H123033   3.933   2.051   7.202  0.7409 -0.0534  0.7041
  466TIP3    H223034   3.882   2.036   7.061 -1.6102 -1.0627  1.6099
  467TIP3   OH223035   2.433   3.878   0.795 -0.1249  0.3318 -0.9312
  467TIP3    H123036   2.370   3.877   0.723 -1.6571 -1.6701  0.2943
  467TIP3    H223037   2.380   3.899   0.872  0.9992  0.1606 -0.0809
  468TIP3   OH223038   3.772   6.789   2.626  0.1397 -0.1236 -0.1070
  468TIP3    H123039   3.797   6.701   2.599  0.4051 -0.0026 -0.2603
  468TIP3    H223040   3.784   6.790   2.721  1.1964  0.0776 -0.2282
  469TIP3   OH223041   2.796   5.292   1.222  0.8149  0.1696 -0.2002
  469TIP3    H123042   2.793   5.212   1.274  1.6683 -0.2496 -0.7744
  469TIP3    H223043   2.731   5.279   1.153  1.3661 -0.2970 -0.6470
  470TIP3   OH223044   0.002   3.550   1.451  0.1975 -0.4218  1.2559
  470TIP3    H123045  -0.022   3.621   1.511  0.8832 -1.1165  2.3808
  470TIP3    H223046   0.071   3.588   1.396 -2.7499  1.3625 -1.5414
  471TIP3   OH223047   2.868   1.629   1.287  0.1207  0.2127  0.1805
  471TIP3    H123048   2.958   1.600   1.274  1.7826  3.8052  2.1183
  471TIP3    H223049   2.869   1.722   1.266 -2.9771  0.5631  0.9967
  472TIP3   OH223050   3.704   0.330   7.194 -0.7729 -0.1567  0.0361
  472TIP3    H123051   3.698   0.381   7.113 -0.6633  0.7696  0.5929
  472TIP3    H223052   3.637   0.368   7.251 -0.3043 -0.2523  0.6643
  473TIP3   OH223053   6.742   1.356   0.148  0.8668 -0.1081  0.0574
  473TIP3    H123054   6.809   1.347   0.216  0.4409  0.9045  0.6314
  473TIP3    H223055   6.745   1.449   0.123 -0.8817  0.1634  0.6976
  474TIP3   OH223056   1.784   5.277   8.333 -0.0694 -0.1241 -0.2208
  474TIP3    H123057   1.734   5.238   8.261 -1.0183 -0.0434  0.3688
  474TIP3    H223058   1.789   5.370   8.311  1.3328 -0.3955 -1.1329
  475TIP3   OH223059   6.919   1.877   0.707  0.2099 -0.0625 -0.3133
  475TIP3    H123060   6.894   1.814   0.639 -1.4821 -1.0918  1.1800
  475TIP3    H223061   6.931   1.823   0.786 -1.2759  1.4575  1.0116
  476TIP3   OH223062   1.587   4.478   1.088 -0.5343 -0.5155 -0.4178
  476TIP3    H123063   1.593   4.528   1.007  0.1755  0.9878  0.5208
  476TIP3    H223064   1.621   4.537   1.156  1.5425 -2.7148  0.5905
  477TIP3   OH223065   1.317   6.554   7.950 -0.0357 -0.4992 -0.0464
  477TIP3    H123066   1.273   6.639   7.959 -0.0254 -0.2243 -2.1821
  477TIP3    H223067   1.386   6.569   7.886  1.3443 -1.6483  1.1025
  478TIP3   OH223068   6.761   0.201   6.855 -0.3572  0.0234 -0.4528
  478TIP3    H123069   6.809   0.165   6.930  0.2288 -0.5859 -1.1059
  478TIP3    H223070   6.826   0.206   6.785 -0.9363  0.4392 -0.9743
  479TIP3   OH223071   6.407   2.971   1.353  0.0363  0.4124  0.0181
  479TIP3    H123072   6.412   2.936   1.264 -1.2932  0.8573 -0.2486
  479TIP3    H223073   6.314   2.983   1.370  0.3152  1.3479  1.0724
  480TIP3   OH223074   5.109   2.402   3.201 -0.5334  0.5756 -0.5723
  480TIP3    H123075   5.079   2.314   3.180  0.9824 -0.1384  0.0759
  480TIP3    H223076   5.204   2.394   3.206 -0.5128  1.4103  2.9032
  481TIP3   OH223077   4.543   6.794   0.068  0.3089 -0.3710  0.3334
  481TIP3    H123078   4.630   6.763   0.043  0.0533 -0.1014 -0.9645
  481TIP3    H223079   4.560   6.860   0.135  1.2582  0.8583 -1.0397
  482TIP3   OH223080   1.579   5.989   7.886  0.2696 -0.0172 -0.3836
  482TIP3    H123081   1.593   5.924   7.955  1.9830  1.7255  1.0063
  482TIP3    H223082   1.640   5.964   7.817  1.1578  0.2932  0.2821
  483TIP3   OH223083   5.639   5.180   1.334  0.1441  0.1759  0.3276
  483TIP3    H123084   5.549   5.171   1.304 -0.1474  0.2337  1.1539
  483TIP3    H223085   5.692   5.164   1.256 -0.5980  1.3708 -0.4561
  484TIP3   OH223086   6.647   2.523   7.133 -0.2435  0.2284 -0.4482
  484TIP3    H123087   6.562   2.521   7.177  0.4919  0.1697  1.0374
  484TIP3    H223088   6.670   2.430   7.121 -0.9876  0.2323 -2.1138
  485TIP3   OH223089   4.901   0.113   7.012 -0.5228  0.5439 -0.2739
  485TIP3    H123090   4.904   0.115   6.917 -0.7624 -0.5520 -0.3184
  485TIP3    H223091   4.977   0.163   7.040 -0.1785  0.4517 -1.0423
  486TIP3   OH223092   6.063   6.612   7.346 -0.7529  1.1208  0.4013
  486TIP3    H123093   6.124   6.593   7.276 -0.7808  0.4030  0.5670
  486TIP3    H223094   5.980   6.574   7.317 -0.4365 -0.4427  1.4179
  487TIP3   OH223095   2.793   0.534   0.898  0.1447 -0.3935 -0.4168
  487TIP3    H123096   2.774   0.578   0.981 -0.8645 -0.2766 -0.6922
  487TIP3    H223097   2.790   0.604   0.833 -1.8729 -0.8801 -0.9119
  488TIP3   OH223098   1.479   6.755   7.219 -0.2510  0.4727 -0.1423
  488TIP3    H123099   1.563   6.729   7.180 -0.7345 -0.5253 -0.5591
  488TIP3    H223100   1.491   6.847   7.242  0.5619  0.6816 -1.3033
  489TIP3   OH223101   2.493   2.750   1.025  0.6820 -0.6112  0.1464
  489TIP3    H123102   2.482   2.757   0.930 -0.3735  0.8792  0.3500
  489TIP3    H223103   2.422   2.802   1.062  0.1075 -2.4463  1.8146
  490TIP3   OH223104   3.882   2.066   1.302  0.1927  0.0315 -0.5835
  490TIP3    H123105   3.803   2.116   1.323  1.8025  1.4477  2.8214
  490TIP3    H223106   3.866   1.980   1.340 -1.0899 -1.0187 -3.2304
  491TIP3   OH223107   4.920   0.720   7.327 -0.0976  0.1578 -0.0945
  491TIP3    H123108   4.872   0.762   7.398  1.4403  1.5192  0.2202
  491TIP3    H223109   4.989   0.783   7.304  1.7820 -1.8164 -0.2417
  492TIP3   OH223110   4.525   2.218   7.389 -0.4932 -0.4048  0.2841
  492TIP3    H123111   4.464   2.236   7.318  0.5024 -0.0301 -0.5034
  492TIP3    H223112   4.568   2.136   7.363 -1.0651 -0.9871  1.1235
  493TIP3   OH223113   5.099   4.679   0.205 -0.3832 -0.0393 -0.5561
  493TIP3    H123114   5.082   4.674   0.111 -2.2584 -1.3488 -0.2223
  493TIP3    H223115   5.133   4.767   0.219 -2.1152  0.9673 -2.2022
  494TIP3   OH223116   3.129   5.908   8.261 -0.1927  0.6236  0.3143
  494TIP3    H123117   3.187   5.977   8.292  2.4911 -1.3923  0.2460
  494TIP3    H223118   3.129   5.918   8.165 -1.7019  1.8563  0.4168
  495TIP3   OH223119   2.590   4.090   0.820 -0.3064  0.0777 -0.0127
  495TIP3    H123120   2.628   4.098   0.732 -1.0640  2.9044 -0.1802
  495TIP3    H223121   2.544   4.006   0.818  1.9865 -1.2468 -1.3398
  496TIP3   OH223122   2.228   3.459   1.874  0.4185 -0.0566  0.0891
  496TIP3    H123123   2.188   3.530   1.925 -0.8641 -1.1024  0.5681
  496TIP3    H223124   2.157   3.399   1.854  0.9019  0.1313 -2.7271
  497TIP3   OH223125   2.636   1.124   2.610  0.7910  0.5352  0.2030
  497TIP3    H123126   2.576   1.062   2.652  0.8768 -0.2075 -0.7440
  497TIP3    H223127   2.646   1.091   2.521  1.0815  1.7535 -0.2248
  498TIP3   OH223128   1.474   6.646   6.867 -0.2974 -0.0519 -0.0708
  498TIP3    H123129   1.413   6.623   6.937  2.3060 -0.2564  2.2926
  498TIP3    H223130   1.422   6.697   6.805 -3.1077 -1.2514  1.1437
  499TIP3   OH223131   3.384   4.834   2.228 -0.3354  0.3120  0.3043
  499TIP3    H123132   3.368   4.871   2.141 -1.8402  0.1845  0.4968
  499TIP3    H223133   3.447   4.894   2.269 -1.1914  1.5385 -0.1246
  500TIP3   OH223134   2.377   2.690   1.615  0.2776 -0.1341  0.0829
  500TIP3    H123135   2.466   2.717   1.589  1.0410 -0.5242  2.1439
  500TIP3    H223136   2.354   2.622   1.552  0.5109  1.4705 -1.8415
  501TIP3   OH223137   3.828   1.126   0.796 -0.6197 -0.5760 -0.1575
  501TIP3    H123138   3.876   1.136   0.878 -1.5449 -0.0271  0.3276
  501TIP3    H223139   3.866   1.192   0.738  1.6162 -2.4542 -0.9716
  502TIP3   OH223140   6.886   0.407   1.846 -0.0867 -0.4532 -0.0091
  502TIP3    H123141   6.895   0.479   1.784  0.4099 -1.0744 -0.6624
  502TIP3    H223142   6.825   0.346   1.805 -0.5129 -0.4152  0.5465
  503TIP3   OH223143   6.558   4.138   2.571  0.4109  1.1044  0.6757
  503TIP3    H123144   6.566   4.049   2.606  1.4301  1.4768  1.4285
  503TIP3    H223145   6.478   4.172   2.610 -0.6912  0.1227 -0.5861
  504TIP3   OH223146   0.213   6.898   8.388 -0.0033  0.0475  0.2779
  504TIP3    H123147   0.173   6.888   8.302  0.1698  0.8404  0.0962
  504TIP3    H223148   0.307   6.905   8.370  0.1151 -0.5919  0.6031
  505TIP3   OH223149   1.235   4.664   1.747  0.2882  0.5434 -0.0393
  505TIP3    H123150   1.234   4.692   1.838 -4.4718 -0.5933  0.5485
  505TIP3    H223151   1.233   4.745   1.696 -1.2112  1.2907  1.1226
  506TIP3   OH223152   0.875   2.971   0.222  0.6957  0.0827 -0.2794
  506TIP3    H123153   0.894   2.968   0.129 -0.8098  0.7227 -0.6395
  506TIP3    H223154   0.797   2.917   0.233  0.2243  0.8778  0.4161
  507TIP3   OH223155   6.381   1.527   1.010 -0.1164 -0.1090  0.8255
  507TIP3    H123156   6.375   1.609   0.961  0.6846 -0.2335  0.4925
  507TIP3    H223157   6.291   1.495   1.015 -0.5245  1.0792  1.4666
  508TIP3   OH223158   6.144   3.646   7.162 -0.3470 -0.0222 -0.1406
  508TIP3    H123159   6.239   3.637   7.158 -0.5307 -3.1176  0.3033
  508TIP3    H223160   6.115   3.644   7.071  0.0082  1.7523 -0.3269
  509TIP3   OH223161   5.210   6.272   0.064 -0.1920 -0.4051 -0.3214
  509TIP3    H123162   5.213   6.341   0.130  0.7991 -1.0244  0.3097
  509TIP3    H223163   5.302   6.248   0.050 -0.5320 -1.9025 -0.1866
  510TIP3   OH223164   3.670   2.733   0.027 -0.7751 -0.6242 -0.2930
  510TIP3    H123165   3.754   2.776   0.042 -0.5965 -1.5482  1.6746
  510TIP3    H223166   3.645   2.697   0.112 -1.5556 -3.2365 -1.4987
  511TIP3   OH223167   5.667   0.828   7.722 -0.2647 -0.1002 -0.0353
  511TIP3    H123168   5.761   0.842   7.736  0.2491 -0.2360 -2.7643
  511TIP3    H223169   5.661   0.740   7.685 -1.6127 -0.5024  1.0687
  512TIP3   OH223170   5.008   0.650   0.067  0.1866  0.7798  0.0294
  512TIP3    H123171   4.929   0.597   0.056  0.8181 -0.0091 -0.8521
  512TIP3    H223172   4.998   0.691   0.153 -0.3627 -0.7157  0.7054
  513TIP3   OH223173   6.126   2.745   7.600 -0.2311 -0.1831  0.5130
  513TIP3    H123174   6.148   2.660   7.638 -0.3568 -0.8105 -0.7641
  513TIP3    H223175   6.123   2.730   7.506  1.2908  1.5942  0.1065
  514TIP3   OH223176   3.928   5.547   8.072  0.1311 -0.3150  0.3677
  514TIP3    H123177   3.881   5.474   8.031 -0.3008 -1.1351  2.2347
  514TIP3    H223178   4.020   5.526   8.061  0.0445 -0.1563 -0.7728
  515TIP3   OH223179   1.175   4.761   8.315  0.4029 -0.2793  0.4503
  515TIP3    H123180   1.240   4.786   8.249  1.6464 -1.9956  0.9653
  515TIP3    H223181   1.134   4.844   8.341 -0.2668  0.4711 -2.5433
  516TIP3   OH223182   3.400   5.348   8.046 -0.1110 -0.3171  0.3758
  516TIP3    H123183   3.307   5.346   8.023 -0.0328 -0.1939  0.0452
  516TIP3    H223184   3.443   5.300   7.975  0.3386  1.6403 -0.7514
  517TIP3   OH223185   5.446   1.548   1.641  1.1900  0.8496 -0.5724
  517TIP3    H123186   5.434   1.642   1.658 -2.2308  0.5323 -0.6653
  517TIP3    H223187   5.435   1.507   1.727  0.9147  0.4028 -0.8220
  518TIP3   OH223188   2.078   1.739   0.445  0.0604 -0.5004  0.8768
  518TIP3    H123189   2.068   1.702   0.533  0.1514  0.5335  1.3382
  518TIP3    H223190   1.989   1.746   0.412 -0.0546  0.0888  1.3075
  519TIP3   OH223191   6.447   1.431   0.051  0.0280  0.0244  0.0876
  519TIP3    H123192   6.506   1.359   0.030  0.1234 -0.1009  0.7721
  519TIP3    H223193   6.361   1.402   0.022 -0.0648 -0.6764  1.0217
  520TIP3   OH223194   4.055   4.614   8.509  0.3918 -0.4221 -0.5270
  520TIP3    H123195   3.961   4.615   8.490  0.5270 -1.1921 -1.3080
  520TIP3    H223196   4.091   4.687   8.458  0.3497 -0.7242 -0.9908
  521TIP3   OH223197   1.445   5.495   0.641 -0.1066 -0.4043 -0.3106
  521TIP3    H123198   1.495   5.516   0.563  0.5770  1.0907  0.4788
  521TIP3    H223199   1.511   5.469   0.706 -0.4212  0.6162  0.4436
  522TIP3   OH223200   5.432   6.843   0.664 -0.2387 -0.8911  0.0173
  522TIP3    H123201   5.410   6.818   0.575  1.4922  0.1849 -0.7556
  522TIP3    H223202   5.511   6.793   0.684  0.8724  0.7989 -0.0245
  523TIP3   OH223203   4.186   0.822   2.615 -0.1318 -0.2275  0.6097
  523TIP3    H123204   4.253   0.889   2.614  0.6181 -0.9403 -0.9369
  523TIP3    H223205   4.115   0.859   2.668  0.6620  1.3541  0.6222
  524TIP3   OH223206   2.499   3.610   1.528  0.1678  0.3334 -0.4946
  524TIP3    H123207   2.526   3.597   1.437 -0.4043  1.3417 -0.8231
  524TIP3    H223208   2.447   3.532   1.549 -0.9631  0.7693 -1.5400
  525TIP3   OH223209   5.656   0.794   2.226  0.5162  0.9084  0.3010
  525TIP3    H123210   5.590   0.778   2.159  1.1910 -0.8636 -0.0057
  525TIP3    H223211   5.620   0.865   2.279 -0.7368  1.2899 -0.9973
  526TIP3   OH223212   0.040   4.945   7.511  0.2716 -0.3635  0.2497
  526TIP3    H123213   0.100   4.994   7.454 -0.2919 -0.7216 -0.6794
  526TIP3    H223214   0.085   4.940   7.595  0.6492  1.1346  0.1702
  527TIP3   OH223215   3.785   2.151   8.177  0.4151  0.9327 -0.0645
  527TIP3    H123216   3.729   2.073   8.175  0.0659  1.1642  0.3896
  527TIP3    H223217   3.820   2.157   8.088 -0.4090  0.8710 -0.4025
  528TIP3   OH223218   0.084   6.204   2.074 -0.2121 -0.0389 -0.0194
  528TIP3    H123219  -0.002   6.220   2.037 -1.0760 -1.9592  0.9725
  528TIP3    H223220   0.072   6.215   2.169  0.6162 -0.3841  0.1376
  529TIP3   OH223221   1.423   0.673   7.775 -0.2046 -0.0491  0.1577
  529TIP3    H123222   1.431   0.675   7.871  1.0773 -1.2434  0.1021
  529TIP3    H223223   1.476   0.599   7.748 -1.8030 -0.6961 -1.3922
  530TIP3   OH223224   5.615   0.896   6.736  0.4714  0.6366  0.3843
  530TIP3    H123225   5.534   0.917   6.782  0.7095 -0.3931  1.3143
  530TIP3    H223226   5.609   0.803   6.718  1.0997  0.7130 -0.2718
  531TIP3   OH223227   1.200   5.006   2.674 -0.2055 -0.2729 -0.1488
  531TIP3    H123228   1.259   4.941   2.636 -0.6408  0.0086 -1.3322
  531TIP3    H223229   1.127   4.954   2.708  0.7375 -0.6381  1.4473
  532TIP3   OH223230   3.049   3.581   1.935  0.1080  0.4121 -0.2571
  532TIP3    H123231   2.969   3.528   1.930  0.3383  0.1646 -2.0369
  532TIP3    H223232   3.035   3.638   2.010 -0.7159 -1.2499  0.9197
  533TIP3   OH223233   0.742   4.658   0.759 -0.4145  0.2558  0.2162
  533TIP3    H123234   0.796   4.587   0.794 -0.5642 -0.5687 -1.1495
  533TIP3    H223235   0.689   4.686   0.833 -0.4889 -1.1944  0.7501
  534TIP3   OH223236   4.744   3.715   0.440 -0.7196 -0.1755 -0.2882
  534TIP3    H123237   4.704   3.800   0.422  2.1354  0.7720 -2.9398
  534TIP3    H223238   4.685   3.674   0.503 -3.7993  2.5020 -1.1674
  535TIP3   OH223239   0.634   6.577   0.998  0.4520 -0.2594 -0.2515
  535TIP3    H123240   0.663   6.659   0.957 -0.1852 -0.3436 -0.8958
  535TIP3    H223241   0.629   6.515   0.925  0.2740 -0.6907  0.1258
  536TIP3   OH223242   3.026   1.191   0.298 -0.3005  0.0326  0.3257
  536TIP3    H123243   3.038   1.285   0.282 -0.2170 -0.1565 -0.8274
  536TIP3    H223244   2.980   1.160   0.220 -4.1588 -0.1807  2.4527
  537TIP3   OH223245   5.930   5.532   7.560  0.1266  0.4736  0.1849
  537TIP3    H123246   5.938   5.624   7.537 -0.2166  0.4297 -0.1243
  537TIP3    H223247   6.020   5.502   7.573  0.2242  0.9182  0.5674
  538TIP3   OH223248   3.999   0.287   7.618  0.4743  0.5025 -0.4695
  538TIP3    H123249   3.911   0.270   7.585  0.2452  1.4438 -0.3615
  538TIP3    H223250   4.051   0.215   7.584 -0.6845 -1.1114  1.0055
  539TIP3   OH223251   0.703   1.830   2.323  0.6859 -0.7255 -0.2475
  539TIP3    H123252   0.677   1.856   2.234  1.8775 -1.0178 -0.6979
  539TIP3    H223253   0.780   1.883   2.342 -0.5740  0.6442  1.3396
  540TIP3   OH223254   4.806   5.512   1.629 -0.1440  0.0248 -0.3382
  540TIP3    H123255   4.855   5.481   1.552  2.1511 -0.1137  1.0779
  540TIP3    H223256   4.797   5.435   1.684 -2.4020 -0.0351 -0.7135
  541TIP3   OH223257   0.539   6.939   1.686 -0.2179 -0.3146  0.2702
  541TIP3    H123258   0.589   6.876   1.635 -0.5946  0.7455 -1.4742
  541TIP3    H223259   0.576   6.933   1.774  2.2789 -0.3170 -0.7043
  542TIP3   OH223260   5.940   3.882   0.721  0.0846  0.0552  0.0057
  542TIP3    H123261   5.850   3.854   0.737 -0.2222  0.1261 -1.4637
  542TIP3    H223262   5.990   3.800   0.717  0.0651  0.0068  0.6357
  543TIP3   OH223263   6.588   2.648   8.182 -0.2202  0.4958 -0.3890
  543TIP3    H123264   6.653   2.604   8.127 -0.0865  1.3637 -0.9471
  543TIP3    H223265   6.515   2.587   8.186 -0.7839  0.9343 -2.6642
  544TIP3   OH223266   3.142   0.761   8.435 -0.5011  0.8699  0.3163
  544TIP3    H123267   3.176   0.809   8.511  0.6346  0.3307  0.1729
  544TIP3    H223268   3.110   0.679   8.471  2.3706 -0.5359  0.0087
  545TIP3   OH223269   6.073   2.041   8.320  0.3005 -0.1038 -0.2238
  545TIP3    H123270   6.047   2.128   8.350 -1.9308 -0.2435 -1.5588
  545TIP3    H223271   6.149   2.057   8.263  2.4269  0.4816  2.5676
  546TIP3   OH223272   6.562   6.673   7.768 -0.1129  0.3994 -0.0133
  546TIP3    H123273   6.565   6.739   7.699  2.7688 -0.1268 -0.5104
  546TIP3    H223274   6.469   6.662   7.787 -0.8079  2.8350 -1.5830
  547TIP3   OH223275   3.121   5.662   1.754 -0.2538 -0.8814  0.0049
  547TIP3    H123276   3.075   5.634   1.675 -0.1576  0.8217 -0.6997
  547TIP3    H223277   3.208   5.687   1.724 -0.8308  1.7216  0.2093
  548TIP3   OH223278   6.687   6.269   2.690 -0.4129 -0.3468 -0.1276
  548TIP3    H123279   6.681   6.184   2.733  0.4978 -0.6519 -0.5690
  548TIP3    H223280   6.775   6.271   2.652  0.6068  1.8491  2.0685
  549TIP3   OH223281   5.700   3.924   7.648  0.0578  0.1527  0.3605
  549TIP3    H123282   5.683   3.963   7.562 -0.8254 -1.6034 -0.3034
  549TIP3    H223283   5.785   3.883   7.639 -0.7338 -1.4408 -0.2561
  550TIP3   OH223284   6.892   0.697   0.785 -0.3987 -0.0548  0.0458
  550TIP3    H123285   6.949   0.706   0.709 -0.4788 -0.0518 -0.0138
  550TIP3    H223286   6.846   0.614   0.771  0.1966 -0.4659  0.4999
  551TIP3   OH223287   2.437   5.481   1.857  0.5305  0.0237 -0.0003
  551TIP3    H123288   2.423   5.443   1.770  0.1250  0.3618 -0.0886
  551TIP3    H223289   2.461   5.407   1.912  0.9731 -0.1635 -0.4419
  552TIP3   OH223290   4.045   6.324   7.494  0.7141 -0.4762  0.2102
  552TIP3    H123291   3.985   6.309   7.567  1.0711 -0.4494  0.5106
  552TIP3    H223292   4.018   6.261   7.427  1.0265 -1.2068  0.7536
  553TIP3   OH223293   4.225   4.331   1.009 -0.1880 -0.7806  0.0937
  553TIP3    H123294   4.186   4.245   1.000 -0.8911 -0.6088  1.2487
  553TIP3    H223295   4.193   4.381   0.934  0.6036 -1.6379 -0.8392
  554TIP3   OH223296   5.470   0.503   1.773 -0.0022  0.5858 -0.2401
  554TIP3    H123297   5.526   0.443   1.823  1.4894  2.5664  0.6195
  554TIP3    H223298   5.489   0.482   1.681 -0.8945 -1.4268 -0.0138
  555TIP3   OH223299   0.278   4.726   0.804  0.4407 -0.7834 -0.7728
  555TIP3    H123300   0.251   4.773   0.883  0.6206 -1.4381 -0.3131
  555TIP3    H223301   0.298   4.637   0.835 -2.2065 -1.8905 -1.9967
  556TIP3   OH223302   1.506   3.379   1.181 -0.1483 -0.3397  0.0448
  556TIP3    H123303   1.522   3.462   1.135 -0.6644 -0.6287 -0.6795
  556TIP3    H223304   1.563   3.316   1.136  1.8457 -0.0061  1.9285
  557TIP3   OH223305   4.486   6.108   7.438 -0.1220  0.4040  0.2336
  557TIP3    H123306   4.433   6.028   7.430 -1.6560  1.3919  0.0858
  557TIP3    H223307   4.435   6.163   7.497  1.5523  0.7885  1.3761
  558TIP3   OH223308   3.554   2.842   2.149  0.3662 -0.6032  0.3559
  558TIP3    H123309   3.628   2.781   2.138  1.7431  1.0938 -0.1635
  558TIP3    H223310   3.547   2.855   2.243  1.6798  0.2898  0.3577
  559TIP3   OH223311   0.124   5.158   8.146 -0.1264  0.8025 -0.2209
  559TIP3    H123312   0.082   5.071   8.149 -1.7901  1.5971  1.4003
  559TIP3    H223313   0.160   5.170   8.234  2.5921  0.6652 -1.2331
  560TIP3   OH223314   1.229   3.667   0.003  0.0819  0.2359  0.8224
  560TIP3    H123315   1.191   3.670  -0.084 -2.3530 -0.2252  1.8023
  560TIP3    H223316   1.262   3.756   0.018 -1.3629  0.9018  0.2142
  561TIP3   OH223317   6.935   1.694   0.468  0.1288  0.0798 -0.8128
  561TIP3    H123318   7.026   1.717   0.450  0.5395 -1.7342 -1.2145
  561TIP3    H223319   6.891   1.702   0.383  0.3271 -0.7856 -1.0072
  562TIP3   OH223320   5.289   6.252   1.594 -0.1281 -0.2734 -0.1997
  562TIP3    H123321   5.259   6.309   1.664 -0.5758  0.3117 -0.8543
  562TIP3    H223322   5.337   6.182   1.639 -0.2262  0.1996  0.6652
  563TIP3   OH223323   2.812   4.716   0.967 -0.2799  0.3333  0.5309
  563TIP3    H123324   2.831   4.792   1.022 -0.8593  0.8040  0.0865
  563TIP3    H223325   2.895   4.668   0.963  0.0605  0.8846  0.8963
  564TIP3   OH223326   1.600   5.603   1.680 -0.2076  1.2279 -0.5439
  564TIP3    H123327   1.611   5.589   1.774 -0.6464 -2.6504 -0.9240
  564TIP3    H223328   1.688   5.626   1.650  0.8599 -1.2509  0.3843
  565TIP3   OH223329   3.656   3.888   2.213 -0.6290 -0.5182 -0.4115
  565TIP3    H123330   3.646   3.959   2.277  0.4060  0.1978 -1.0048
  565TIP3    H223331   3.699   3.930   2.138  1.5402 -2.1156 -0.1563
  566TIP3   OH223332   5.557   3.513   2.195  0.1086  0.5409  0.0977
  566TIP3    H123333   5.627   3.461   2.235  0.4980  1.1135  0.1593
  566TIP3    H223334   5.590   3.602   2.194 -0.6503  0.8332  0.1944
  567TIP3   OH223335   5.847   4.984   1.521  0.4848  0.0063 -0.5733
  567TIP3    H123336   5.930   5.031   1.524  1.4506 -1.6713  1.6304
  567TIP3    H223337   5.786   5.041   1.568  0.8036  0.4726 -0.7140
  568TIP3   OH223338   0.295   0.064   0.689  0.1896 -0.0974 -0.1973
  568TIP3    H123339   0.307  -0.029   0.711 -1.9209 -0.5926 -0.8605
  568TIP3    H223340   0.265   0.104   0.771 -2.1701 -0.7649 -0.6482
  569TIP3   OH223341   4.926   2.194   0.431  0.4097 -0.1373 -0.5078
  569TIP3    H123342   4.967   2.219   0.514 -1.6099 -0.3149  0.6243
  569TIP3    H223343   4.908   2.100   0.442 -4.4239  0.7021  1.1401
  570TIP3   OH223344   3.303   2.059   0.041  0.3725 -0.2418  0.4442
  570TIP3    H123345   3.293   2.153   0.031  0.2314 -0.3154 -0.1724
  570TIP3    H223346   3.372   2.049   0.107 -0.0383  0.2832  0.9575
  571TIP3   OH223347   2.480   5.206   7.564 -0.4542  0.6288  0.2025
  571TIP3    H123348   2.454   5.153   7.640  0.9366  0.4064  0.5505
  571TIP3    H223349   2.494   5.294   7.600  0.1240  0.5427  0.2006
  572TIP3   OH223350   2.546   2.047   7.810  0.6461  0.2488 -0.7249
  572TIP3    H123351   2.483   2.027   7.741 -0.5302  3.8518 -0.8920
  572TIP3    H223352   2.613   2.099   7.767  1.1813  0.5025  0.3767
  573TIP3   OH223353   0.230   6.418   0.292  0.8498  0.6957  0.0056
  573TIP3    H123354   0.274   6.334   0.308 -0.3670  0.3118  1.6426
  573TIP3    H223355   0.299   6.476   0.260  1.6080 -1.0580 -1.7813
  574TIP3   OH223356   6.173   4.161   0.901  0.4959 -0.2295  0.3258
  574TIP3    H123357   6.119   4.240   0.891 -1.8948 -1.8121 -0.0778
  574TIP3    H223358   6.125   4.107   0.963  1.9652 -1.4992  0.4072
  575TIP3   OH223359   2.875   4.889   1.189 -0.0314 -0.6210  0.9348
  575TIP3    H123360   2.963   4.918   1.165 -0.5404  0.6988  0.5470
  575TIP3    H223361   2.847   4.951   1.257 -1.6927  0.8141 -0.9132
  576TIP3   OH223362   5.127   6.872   1.589 -0.5710 -0.3462 -0.3140
  576TIP3    H123363   5.098   6.858   1.499  1.5305  1.3775 -1.3302
  576TIP3    H223364   5.173   6.792   1.613  0.3366 -0.1782 -1.4303
  577TIP3   OH223365   0.848   3.923   1.344  0.2114 -0.1333 -0.3052
  577TIP3    H123366   0.943   3.922   1.330  0.5971  1.9561  1.5520
  577TIP3    H223367   0.811   3.934   1.256  1.5749 -2.0036 -1.1956
  578TIP3   OH223368   4.655   3.777   8.238 -0.0059 -0.9486 -0.1635
  578TIP3    H123369   4.570   3.741   8.262 -1.4403  1.5870 -1.0219
  578TIP3    H223370   4.649   3.793   8.144  0.7301  0.7938  0.0387
  579TIP3   OH223371   2.730   1.143   2.141 -0.2514  0.8052 -0.0950
  579TIP3    H123372   2.724   1.185   2.055  0.6611  0.4391 -0.3525
  579TIP3    H223373   2.649   1.093   2.149  0.3413 -0.4337 -1.4497
  580TIP3   OH223374   3.957   0.956   1.544 -0.1270 -0.3302 -0.3934
  580TIP3    H123375   3.978   1.037   1.590  1.2130 -0.5610 -0.5504
  580TIP3    H223376   3.964   0.888   1.611 -0.8608 -0.3696 -0.3488
  581TIP3   OH223377   3.186   6.244   6.518  0.3645  0.4713  0.0908
  581TIP3    H123378   3.207   6.335   6.499  2.1085  0.5913  2.1510
  581TIP3    H223379   3.262   6.195   6.485  0.1141 -0.0569  0.2920
  582TIP3   OH223380   4.710   3.172   7.031 -0.2407  0.2690  1.0834
  582TIP3    H123381   4.752   3.160   6.945 -1.9348 -1.4666  0.4277
  582TIP3    H223382   4.618   3.151   7.016 -0.8741  1.4193  3.0284
  583TIP3   OH223383   0.849   4.477   2.706 -0.3211 -0.1941 -0.5772
  583TIP3    H123384   0.901   4.398   2.692  0.3137  0.3433 -1.3646
  583TIP3    H223385   0.764   4.445   2.736  0.5482 -1.0752  1.0816
  584TIP3   OH223386   3.299   5.488   1.203  0.4314 -0.5178  0.2818
  584TIP3    H123387   3.373   5.427   1.199 -1.0795 -2.5022  0.6715
  584TIP3    H223388   3.223   5.435   1.178 -0.7290  1.7476 -1.2946
  585TIP3   OH223389   1.710   0.495   8.081  0.0955  0.0068 -0.0356
  585TIP3    H123390   1.786   0.516   8.027  1.0348 -2.0266  0.3722
  585TIP3    H223391   1.696   0.401   8.066 -1.6136  0.0860  0.8097
  586TIP3   OH223392   0.948   4.879   1.497 -0.2434 -0.2428 -0.7941
  586TIP3    H123393   1.042   4.898   1.496 -0.3830  0.5977  0.2645
  586TIP3    H223394   0.941   4.793   1.456  0.8853  0.1003 -1.7551
  587TIP3   OH223395   4.236   1.664   0.744 -0.7746 -0.1350  0.4439
  587TIP3    H123396   4.203   1.604   0.810 -0.5010  0.4640  1.1461
  587TIP3    H223397   4.316   1.700   0.783 -0.8647  0.5803 -0.0091
  588TIP3   OH223398   1.953   2.793   0.750 -0.2618 -0.2091 -0.4113
  588TIP3    H123399   1.857   2.791   0.755 -0.2178 -0.9789  0.4127
  588TIP3    H223400   1.975   2.729   0.683 -0.3269  0.0899 -0.7209
  589TIP3   OH223401   0.718   0.801   0.123  0.4836 -0.2896 -0.3899
  589TIP3    H123402   0.671   0.858   0.184 -0.1717 -0.5687 -0.6255
  589TIP3    H223403   0.801   0.846   0.108  1.3202 -0.9466  1.8808
  590TIP3   OH223404   0.431   4.189   0.559 -0.4632 -0.3518  0.3287
  590TIP3    H123405   0.468   4.101   0.555  0.5909  0.1165 -1.0975
  590TIP3    H223406   0.378   4.196   0.479 -0.2410  0.4392  0.2492
  591TIP3   OH223407   2.955   5.520   6.835  0.1277  0.0476 -0.2622
  591TIP3    H123408   2.982   5.500   6.925  2.8341  1.3516 -0.6872
  591TIP3    H223409   2.998   5.453   6.782  0.3546  0.5799 -0.7577
  592TIP3   OH223410   2.250   5.250   2.986 -0.4141  0.5993 -0.0014
  592TIP3    H123411   2.170   5.271   3.035 -1.6895  1.3501 -2.2473
  592TIP3    H223412   2.294   5.335   2.976  1.2883  0.0509  2.0957
  593TIP3   OH223413   4.630   4.675   6.831 -0.3606  0.6932 -0.1119
  593TIP3    H123414   4.688   4.735   6.878 -0.2814  0.8847 -0.4514
  593TIP3    H223415   4.672   4.589   6.840 -0.0282  0.8287 -0.3516
  594TIP3   OH223416   1.108   1.987   7.752 -0.1525  0.8174  0.1358
  594TIP3    H123417   1.142   2.016   7.667 -2.3552  1.7479 -0.5036
  594TIP3    H223418   1.173   1.924   7.783  2.1100  2.4498 -0.9410
  595TIP3   OH223419   5.100   6.205   1.949  0.2691  0.4824 -0.1860
  595TIP3    H123420   5.189   6.170   1.947  0.0652 -0.0097 -1.6815
  595TIP3    H223421   5.109   6.291   1.990  1.1729 -0.2276  1.1702
  596TIP3   OH223422   3.289   1.128   0.323 -0.4480 -0.0231  0.7250
  596TIP3    H123423   3.329   1.141   0.409 -0.2710  2.2611  0.3640
  596TIP3    H223424   3.195   1.140   0.338 -1.0030 -4.0014  1.3175
  597TIP3   OH223425   2.149   3.306   8.440  0.4760 -0.0990 -0.1081
  597TIP3    H123426   2.109   3.220   8.454 -1.9703  0.6442 -1.9177
  597TIP3    H223427   2.177   3.305   8.349 -0.1098  1.2197 -0.3196
  598TIP3   OH223428   0.072   0.165   1.550 -0.3712  0.0499 -0.3203
  598TIP3    H123429   0.058   0.131   1.638  0.6304 -0.2568 -0.2680
  598TIP3    H223430   0.005   0.122   1.497 -2.9217  2.4052  0.7540
  599TIP3   OH223431   2.001   1.199   2.084  0.5371 -0.2304 -0.1472
  599TIP3    H123432   2.077   1.154   2.121  0.3999  0.2424  0.7375
  599TIP3    H223433   2.038   1.277   2.042  1.2070 -2.6145 -4.5439
  600TIP3   OH223434   3.347   1.730   1.311  0.0387  0.2771 -0.4180
  600TIP3    H123435   3.425   1.774   1.277  1.1094 -1.6607 -0.6081
  600TIP3    H223436   3.326   1.778   1.391  1.6570  0.6203 -0.1633
  601TIP3   OH223437   1.471   4.816   7.590 -0.2219 -0.5742  0.1672
  601TIP3    H123438   1.404   4.884   7.594 -0.6343 -0.9272 -0.6331
  601TIP3    H223439   1.451   4.766   7.511  0.7653 -0.9123  0.1110
  602TIP3   OH223440   1.319   3.116   0.196  0.1560  0.4962 -0.3571
  602TIP3    H123441   1.345   3.122   0.288  3.0048 -0.4821 -0.9841
  602TIP3    H223442   1.297   3.024   0.183  2.3256  0.0176 -1.1471
  603TIP3   OH223443   4.050   3.329   8.186  0.2865  0.1354  0.0164
  603TIP3    H123444   4.032   3.235   8.196  2.2089 -0.0979  2.4347
  603TIP3    H223445   4.061   3.360   8.276 -1.2778  2.9654 -0.6604
  604TIP3   OH223446   3.652   1.825   7.896 -0.4053 -0.1444  0.1068
  604TIP3    H123447   3.741   1.858   7.904 -0.3239  0.3368 -2.1775
  604TIP3    H223448   3.662   1.733   7.872 -0.4428  0.2450 -1.5307
  605TIP3   OH223449   6.494   3.548   1.013 -0.0679  0.6258  0.7295
  605TIP3    H123450   6.449   3.548   0.928 -2.9044 -0.3562  2.0744
  605TIP3    H223451   6.586   3.562   0.992 -0.6053  0.1263 -2.5133
  606TIP3   OH223452   2.809   0.196   8.194  0.6801  0.1575  0.0446
  606TIP3    H123453   2.777   0.106   8.194  1.6246 -0.1912 -0.0256
  606TIP3    H223454   2.839   0.210   8.104 -0.2221  0.8267 -0.1589
  607TIP3   OH223455   0.053   5.447   7.996  0.7297  0.3784 -0.0874
  607TIP3    H123456  -0.022   5.502   8.018 -0.3656 -0.5562 -1.3634
  607TIP3    H223457   0.062   5.387   8.070 -1.8614 -1.6256 -1.2602
  608TIP3   OH223458   2.927   3.479   2.573 -0.3622 -0.3333 -0.5116
  608TIP3    H123459   2.865   3.494   2.645  2.1870  1.3244  1.5108
  608TIP3    H223460   2.982   3.407   2.603  0.9092  0.5596 -0.6174
  609TIP3   OH223461   5.710   5.603   8.370 -0.2851 -0.0349  0.3411
  609TIP3    H123462   5.737   5.525   8.419 -0.4555  0.1534  0.7420
  609TIP3    H223463   5.727   5.676   8.430  2.0299  0.4918 -0.8436
  610TIP3   OH223464   1.633   2.230   1.871  0.0612 -0.2960  1.0549
  610TIP3    H123465   1.605   2.239   1.962 -0.1360 -0.3896  1.0038
  610TIP3    H223466   1.579   2.293   1.822 -0.7777 -1.1786  0.8107
  611TIP3   OH223467   2.223   6.953   7.174 -0.3384 -0.3059 -0.3547
  611TIP3    H123468   2.172   6.896   7.117 -1.4100  1.3958 -1.2137
  611TIP3    H223469   2.172   7.034   7.178  1.0899  0.5942  0.8070
  612TIP3   OH223470   4.696   5.948   0.115 -0.0759  0.0370 -0.9547
  612TIP3    H123471   4.657   5.869   0.076  0.6473 -0.7039 -0.2372
  612TIP3    H223472   4.708   6.008   0.042 -2.2809  0.1986 -1.2584
  613TIP3   OH223473   3.930   1.103   0.324  0.2529  0.0626 -0.4918
  613TIP3    H123474   3.888   1.171   0.376  1.0410  0.2847 -0.1273
  613TIP3    H223475   3.858   1.061   0.277 -0.4830 -0.1422  0.7641
  614TIP3   OH223476   6.460   2.868   2.332  0.3095  0.0087  0.4768
  614TIP3    H123477   6.453   2.960   2.360  3.0397  0.5633 -0.3680
  614TIP3    H223478   6.431   2.868   2.241  2.3129  0.5406 -0.2184
  615TIP3   OH223479   6.887   4.758   1.469  0.4015  0.0686  0.0938
  615TIP3    H123480   6.931   4.711   1.540 -0.2238 -0.4656  0.1400
  615TIP3    H223481   6.802   4.715   1.461 -0.6106  1.8408  0.7988
  616TIP3   OH223482   3.550   4.841   1.702  0.1620 -0.5569  0.0396
  616TIP3    H123483   3.553   4.934   1.724 -1.0992 -0.7052  0.9615
  616TIP3    H223484   3.606   4.833   1.625  0.9378  0.8175  0.4289
  617TIP3   OH223485   6.357   0.690   6.877 -0.4036 -0.1387  0.0479
  617TIP3    H123486   6.294   0.730   6.818 -0.9259  0.0906  0.7457
  617TIP3    H223487   6.334   0.598   6.879 -0.8389 -0.0227  0.4464
  618TIP3   OH223488   5.415   6.205   7.773  0.1863  0.5722  0.0161
  618TIP3    H123489   5.393   6.264   7.700 -0.2027  0.8772  0.3751
  618TIP3    H223490   5.330   6.181   7.810  0.3056 -0.6273 -0.4345
  619TIP3   OH223491   4.271   5.793   0.044  0.0281 -0.1755 -0.1243
  619TIP3    H123492   4.203   5.850   0.009 -1.0298 -0.2300  1.7226
  619TIP3    H223493   4.230   5.707   0.052 -0.7949  0.3799  3.7180
  620TIP3   OH223494   2.610   3.372   2.052 -0.5549 -0.0047 -0.3456
  620TIP3    H123495   2.553   3.311   2.005 -0.2440  0.5747 -1.5071
  620TIP3    H223496   2.611   3.338   2.142 -2.9217  0.1023 -0.2025
  621TIP3   OH223497   1.645   2.949   0.750 -0.7468  0.1668  0.1170
  621TIP3    H123498   1.714   3.014   0.734 -2.2644  1.9983  0.6888
  621TIP3    H223499   1.642   2.898   0.669  1.9295 -0.6608  0.4452
  622TIP3   OH223500   3.962   3.348   1.534  0.3890 -0.5584 -0.6307
  622TIP3    H123501   3.909   3.295   1.474 -0.1763 -0.1563 -0.4943
  622TIP3    H223502   3.913   3.347   1.616 -0.6726  1.7981 -1.1712
  623TIP3   OH223503   3.025   2.052   7.612 -0.4275 -0.5790  0.3355
  623TIP3    H123504   2.995   1.981   7.555 -1.1176 -1.2359  1.4906
  623TIP3    H223505   3.079   2.107   7.555 -1.2374 -1.1177 -0.9961
  624TIP3   OH223506   5.107   2.210   0.195  0.6553  0.2798  0.0572
  624TIP3    H123507   5.046   2.195   0.268  1.5126  0.0632  0.7536
  624TIP3    H223508   5.193   2.207   0.236  1.2941 -1.9882 -1.2977
  625TIP3   OH223509   3.120   3.921   7.124  0.0244  0.8891  0.2274
  625TIP3    H123510   3.154   3.898   7.038  0.0446  0.8868  0.2357
  625TIP3    H223511   3.155   3.854   7.183 -0.0586  0.8422  0.2238
  626TIP3   OH223512   0.731   0.558   8.472  0.3855 -0.1640  0.8001
  626TIP3    H123513   0.750   0.639   8.519  1.1278  0.6103 -0.7250
  626TIP3    H223514   0.660   0.582   8.411  1.2171 -0.3804 -0.2906
  627TIP3   OH223515   0.690   0.238   7.816  0.3158 -0.5410  0.0258
  627TIP3    H123516   0.748   0.299   7.862  1.5813 -0.9070 -1.0427
  627TIP3    H223517   0.721   0.152   7.842  0.0537 -0.7409 -0.3273
  628TIP3   OH223518   4.036   4.186   8.226  0.1775 -1.2687 -0.5669
  628TIP3    H123519   4.029   4.162   8.318  0.3114 -0.0031 -0.2135
  628TIP3    H223520   4.122   4.155   8.199  1.4257  0.9740  0.5722
  629TIP3   OH223521   5.754   2.021   1.365 -0.4227  0.0626 -0.1907
  629TIP3    H123522   5.795   2.044   1.282 -0.2458  0.3328 -0.0325
  629TIP3    H223523   5.697   2.095   1.385  0.2289  0.4367  0.3747
  630TIP3   OH223524   3.968   0.163   8.101  0.8666  0.0848  0.1696
  630TIP3    H123525   3.877   0.134   8.109  1.2853 -1.4643 -0.4054
  630TIP3    H223526   3.984   0.166   8.007  1.0960  1.4795  0.2195
  631TIP3   OH223527   6.933   4.260   1.746  0.4334  0.3292 -0.5771
  631TIP3    H123528   6.946   4.259   1.841 -0.2563  3.4312 -0.3418
  631TIP3    H223529   7.019   4.277   1.709  0.8831 -1.7923 -0.6632
  632TIP3   OH223530   2.635   4.609   8.293  0.0198  0.3458 -0.5251
  632TIP3    H123531   2.631   4.549   8.367  0.8521 -0.4835 -1.1372
  632TIP3    H223532   2.547   4.607   8.255 -0.1453  0.0508 -0.1338
  633TIP3   OH223533   0.808   5.862   1.760  0.0335 -0.0691 -0.3319
  633TIP3    H123534   0.804   5.955   1.785  1.3203  0.3008 -1.3787
  633TIP3    H223535   0.716   5.834   1.759 -0.2402  0.3278  2.9310
  634TIP3   OH223536   0.287   4.331   2.219 -0.3642 -0.5246  0.1885
  634TIP3    H123537   0.375   4.315   2.252 -0.4082 -1.2664 -0.0218
  634TIP3    H223538   0.270   4.423   2.236  0.7269 -0.2041 -0.4155
  635TIP3   OH223539   5.974   2.254   1.340 -0.1121  0.3124  0.4566
  635TIP3    H123540   5.969   2.171   1.388 -2.1844  0.4384  0.5159
  635TIP3    H223541   6.017   2.232   1.258  0.6934 -0.5077  1.0717
  636TIP3   OH223542   2.776   4.605   8.047 -0.3859  0.2122  0.4084
  636TIP3    H123543   2.730   4.602   8.130 -1.4822 -1.7556 -0.2067
  636TIP3    H223544   2.744   4.528   7.999  0.4223  1.1202 -1.7084
  637TIP3   OH223545   5.759   1.813   1.934 -0.4136  0.0962  0.2506
  637TIP3    H123546   5.847   1.780   1.916  0.9141  2.2061  2.2986
  637TIP3    H223547   5.718   1.744   1.986  0.8470 -0.0421  1.1142
  638TIP3   OH223548   5.931   5.752   0.603 -0.0826  0.1451  0.2253
  638TIP3    H123549   5.851   5.743   0.653 -0.1184  0.4221  0.2213
  638TIP3    H223550   5.904   5.796   0.522  0.0847  0.3141  0.2604
  639TIP3   OH223551   6.678   0.101   0.777 -0.6696 -0.5201  0.0770
  639TIP3    H123552   6.584   0.093   0.760 -0.4527 -0.8457 -1.0880
  639TIP3    H223553   6.719   0.053   0.705  0.3788 -0.9045  0.9112
  640TIP3   OH223554   3.002   5.302   7.696  0.0093  0.3981 -0.0212
  640TIP3    H123555   2.980   5.210   7.709  0.9083 -0.1181 -1.7721
  640TIP3    H223556   2.949   5.349   7.760  0.3918 -1.4013  1.6967
  641TIP3   OH223557   5.032   1.585   1.628 -0.4817 -0.7480 -0.5936
  641TIP3    H123558   4.955   1.594   1.684  0.0274  0.3388 -0.0333
  641TIP3    H223559   5.088   1.523   1.673 -0.9554 -1.4306 -0.9294
  642TIP3   OH223560   4.187   5.590   7.863 -0.2956 -0.3276 -0.5968
  642TIP3    H123561   4.216   5.680   7.848  1.7627 -0.7670  0.3873
  642TIP3    H223562   4.109   5.581   7.809 -1.6622  2.5938  0.6523
  643TIP3   OH223563   2.727   1.724   1.513 -0.2314  0.0341 -0.3464
  643TIP3    H123564   2.642   1.738   1.469 -1.3966 -1.2682  1.3623
  643TIP3    H223565   2.789   1.715   1.441 -1.9728 -1.5950 -1.7809
  644TIP3   OH223566   6.069   1.036   7.189  0.1785  0.5075 -0.3541
  644TIP3    H123567   5.974   1.035   7.176  0.1703  1.8917 -0.4947
  644TIP3    H223568   6.088   1.124   7.222  1.4559  0.3666 -0.6700
  645TIP3   OH223569   1.269   5.458   0.162 -0.4835 -0.3332  0.1716
  645TIP3    H123570   1.310   5.544   0.152 -0.7127 -0.4121 -1.8473
  645TIP3    H223571   1.314   5.419   0.237  0.1761  1.2183  0.6376
  646TIP3   OH223572   0.757   0.991   1.114  0.2644  0.0324 -0.3086
  646TIP3    H123573   0.785   1.050   1.044 -0.0990  0.1369 -0.3674
  646TIP3    H223574   0.822   0.921   1.113 -0.2325 -0.4387 -1.3520
  647TIP3   OH223575   0.638   3.843   7.447 -0.4470  0.4470  0.3040
  647TIP3    H123576   0.654   3.853   7.353 -1.5459 -0.4108  0.0016
  647TIP3    H223577   0.550   3.879   7.460 -0.0734  1.0920  1.1201
  648TIP3   OH223578   2.384   2.858   0.775  0.4651  0.0800 -0.1192
  648TIP3    H123579   2.295   2.877   0.744 -0.1658  0.6124  1.8707
  648TIP3    H223580   2.438   2.926   0.735 -0.3655  0.9564  0.2173
  649TIP3   OH223581   3.937   2.481   2.210 -0.0513  0.1718 -0.2711
  649TIP3    H123582   3.997   2.407   2.221 -0.4400 -0.0573  0.4224
  649TIP3    H223583   3.916   2.481   2.117  0.2687 -0.3464 -0.3523
  650TIP3   OH223584   3.441   6.472   0.601 -0.3702 -0.1821 -0.5756
  650TIP3    H123585   3.366   6.443   0.548 -0.6661 -3.2087  1.3016
  650TIP3    H223586   3.401   6.508   0.680  0.1229 -1.5762  0.3251
  651TIP3   OH223587   2.740   1.445   6.591  0.4201 -0.0166  0.9260
  651TIP3    H123588   2.807   1.383   6.559  0.7013 -0.2812  2.0058
  651TIP3    H223589   2.772   1.530   6.562  0.2174 -0.3206 -0.2584
  652TIP3   OH223590   4.846   2.771   1.746  0.0354 -0.2165 -0.2328
  652TIP3    H123591   4.883   2.723   1.671 -1.2951 -0.0949 -0.9995
  652TIP3    H223592   4.846   2.862   1.717  2.0401  0.2418  1.0092
  653TIP3   OH223593   6.155   0.738   2.771  0.3748  0.2850 -0.1946
  653TIP3    H123594   6.216   0.811   2.772  0.9485 -0.1537 -1.2964
  653TIP3    H223595   6.114   0.742   2.684  0.0156 -0.3693 -0.0633
  654TIP3   OH223596   5.520   1.480   2.528 -0.0240 -0.1007  0.0598
  654TIP3    H123597   5.497   1.456   2.439 -1.1406 -0.9339  0.5544
  654TIP3    H223598   5.449   1.537   2.557  0.3824  0.2516  0.3881
  655TIP3   OH223599   5.499   1.038   2.088 -0.1242 -0.4528  0.4055
  655TIP3    H123600   5.410   1.065   2.065 -0.2247 -0.9785  0.1782
  655TIP3    H223601   5.501   1.043   2.184  0.6907  2.9958  0.3360
  656TIP3   OH223602   4.580   3.659   2.607  0.4617 -0.0627 -0.0889
  656TIP3    H123603   4.674   3.648   2.596  0.5084  0.0593  0.1969
  656TIP3    H223604   4.553   3.584   2.660  0.3900 -0.1193 -0.2041
  657TIP3   OH223605   6.780   0.461   7.724 -0.1187 -0.0755 -0.1527
  657TIP3    H123606   6.839   0.411   7.669  1.2409  0.5130  0.7179
  657TIP3    H223607   6.747   0.530   7.667  0.2279 -0.2623 -0.5872
  658TIP3   OH223608   1.147   5.523   1.305 -0.1343 -0.5167 -0.6706
  658TIP3    H123609   1.181   5.498   1.219 -0.2143 -3.4507  0.0575
  658TIP3    H223610   1.223   5.520   1.363 -0.2355  0.6610 -0.4442
  659TIP3   OH223611   1.714   3.047   7.261  0.2655 -0.0952  1.1010
  659TIP3    H123612   1.694   2.969   7.313  0.3099 -0.2398  0.9061
  659TIP3    H223613   1.751   3.109   7.323  0.1883 -0.2148  1.2662
  660TIP3   OH223614   4.548   2.839   0.963  0.0864 -0.5557  0.8380
  660TIP3    H123615   4.480   2.772   0.957 -0.6452  0.2586 -0.5543
  660TIP3    H223616   4.581   2.847   0.873  0.8288  0.2606  1.1763
  661TIP3   OH223617   2.351   6.156   7.178  0.1539  0.1089 -0.0565
  661TIP3    H123618   2.385   6.083   7.126 -0.9330 -0.6523  0.2609
  661TIP3    H223619   2.284   6.195   7.122  0.9410  1.0822 -0.3506
  662TIP3   OH223620   1.344   6.719   2.468 -0.1264 -0.5918  0.0413
  662TIP3    H123621   1.404   6.668   2.523  1.9246  2.7161  1.1335
  662TIP3    H223622   1.314   6.790   2.525  0.8361  2.0764 -2.5288
  663TIP3   OH223623   6.348   3.774   2.379  0.4115  0.3234  0.7854
  663TIP3    H123624   6.307   3.765   2.294  1.0403  0.0553  0.5060
  663TIP3    H223625   6.279   3.810   2.435 -0.3129 -0.4463  0.4201
  664TIP3   OH223626   2.059   2.693   1.778 -0.1482  0.3612 -0.2530
  664TIP3    H123627   2.108   2.750   1.720 -0.0468  1.6016  1.0094
  664TIP3    H223628   1.973   2.683   1.736  0.2091  0.5164 -1.0289
  665TIP3   OH223629   1.804   4.961   1.917 -0.1028 -0.3594  0.2459
  665TIP3    H123630   1.843   4.874   1.914  0.7457 -0.0311  1.2157
  665TIP3    H223631   1.710   4.946   1.921 -0.0330 -1.1939 -0.8589
  666TIP3   OH223632   4.253   4.424   8.407  0.5296 -0.2105  0.2401
  666TIP3    H123633   4.263   4.340   8.453  0.4323 -1.9116 -2.5923
  666TIP3    H223634   4.175   4.464   8.446  0.8761 -1.1417  2.0123
  667TIP3   OH223635   0.318   3.199   1.819 -0.3696  0.2297 -0.1730
  667TIP3    H123636   0.309   3.270   1.756  1.0093 -0.0211 -0.7077
  667TIP3    H223637   0.383   3.230   1.882  2.1118 -1.3591 -1.7561
  668TIP3   OH223638   3.920   4.022   0.604  0.4365 -0.0752 -0.3585
  668TIP3    H123639   3.924   3.927   0.601 -0.8921 -0.2384  1.3889
  668TIP3    H223640   3.860   4.047   0.533 -0.4103 -0.6717  0.1329
  669TIP3   OH223641   6.600   1.790   1.259 -0.0873 -1.0123 -0.1307
  669TIP3    H123642   6.618   1.713   1.206  0.9695 -1.1596  0.4136
  669TIP3    H223643   6.681   1.841   1.255 -0.4285 -0.4213  0.3240
  670TIP3   OH223644   4.246   1.909   0.614  0.0685 -0.2610  0.3969
  670TIP3    H123645   4.219   1.871   0.530 -1.1347 -0.2531  0.7672
  670TIP3    H223646   4.247   1.835   0.675  2.1026 -0.4939  0.1428
  671TIP3   OH223647   6.383   3.170   8.202  0.5263  0.8435  0.3831
  671TIP3    H123648   6.372   3.075   8.213  0.2548  0.9513  1.0907
  671TIP3    H223649   6.379   3.183   8.107 -0.7758  0.2935  0.3285
  672TIP3   OH223650   5.080   5.948   8.493 -0.3046  0.2204 -0.3007
  672TIP3    H123651   5.040   5.891   8.427 -0.2808 -0.3123  0.1462
  672TIP3    H223652   5.113   6.023   8.442 -1.6086  0.5498 -0.7212
  673TIP3   OH223653   3.937   3.332   1.808  0.3331  0.1718  0.0214
  673TIP3    H123654   3.998   3.377   1.866 -0.2832  0.2023  0.6587
  673TIP3    H223655   3.851   3.346   1.848  0.1440 -1.8693  0.4551
  674TIP3   OH223656   1.978   3.610   8.103  0.0741 -0.1654 -0.1627
  674TIP3    H123657   1.954   3.586   8.193  3.3637 -1.2526  0.5492
  674TIP3    H223658   1.941   3.698   8.092 -1.6538 -0.5524  1.6784
  675TIP3   OH223659   5.917   6.586   0.853  0.3589 -0.6247  0.0922
  675TIP3    H123660   5.843   6.569   0.794  0.2452  1.0316 -0.2928
  675TIP3    H223661   5.955   6.667   0.819  2.1577 -1.2719  0.4879
  676TIP3   OH223662   6.065   0.490   0.923  0.1035  0.1553  0.0357
  676TIP3    H123663   6.095   0.404   0.893 -0.4289  0.6177 -1.9332
  676TIP3    H223664   5.979   0.472   0.963 -0.5397 -0.1065 -1.4023
  677TIP3   OH223665   1.796   6.283   0.292 -0.1425 -0.1609 -0.8570
  677TIP3    H123666   1.887   6.260   0.277 -0.2464 -0.2609 -1.3508
  677TIP3    H223667   1.794   6.379   0.290 -0.2057 -0.1776 -1.8196
  678TIP3   OH223668   3.587   4.306   7.765 -0.4740 -0.2048 -1.1746
  678TIP3    H123669   3.581   4.334   7.857  0.8028 -0.7464 -0.8986
  678TIP3    H223670   3.500   4.271   7.745 -1.0569  0.7902 -0.4758
  679TIP3   OH223671   6.868   5.648   8.509  0.2627 -0.0897 -0.2448
  679TIP3    H123672   6.923   5.716   8.546 -0.0761 -0.6393  1.3331
  679TIP3    H223673   6.829   5.604   8.585 -1.5866 -0.3430 -1.2796
  680TIP3   OH223674   3.180   2.314   1.732  0.1691  0.4594  0.1311
  680TIP3    H123675   3.247   2.248   1.750 -0.3297 -0.2055 -0.3879
  680TIP3    H223676   3.200   2.345   1.644 -0.2280  0.2126 -0.0503
  681TIP3   OH223677   0.649   3.169   1.222  0.3268  1.0305  0.0992
  681TIP3    H123678   0.668   3.077   1.237  0.1369  1.1805  1.3614
  681TIP3    H223679   0.559   3.170   1.189 -0.0325  0.8199  1.0441
  682TIP3   OH223680   2.185   5.949   0.344 -0.1688 -0.1836  0.5312
  682TIP3    H123681   2.276   5.924   0.357  1.2533  4.2799  1.1824
  682TIP3    H223682   2.162   5.915   0.258  2.4070 -0.7991  0.0054
  683TIP3   OH223683   4.702   4.425   7.636  0.4132 -0.2450  0.0561
  683TIP3    H123684   4.666   4.405   7.549  1.3647  1.3930 -0.7719
  683TIP3    H223685   4.632   4.471   7.681  0.5082  0.4801 -0.5211
  684TIP3   OH223686   1.806   5.662   0.890 -0.1187  0.6636 -0.2517
  684TIP3    H123687   1.743   5.716   0.938 -1.0265 -0.3508 -0.2882
  684TIP3    H223688   1.801   5.693   0.800 -0.1832  0.9267 -0.1588
  685TIP3   OH223689   6.379   2.023   8.017  0.0206  0.0428  0.2470
  685TIP3    H123690   6.329   1.956   8.063 -1.7318  0.4327 -0.9899
  685TIP3    H223691   6.462   1.981   7.995 -0.4548 -1.2143  0.7894
  686TIP3   OH223692   2.874   0.062   2.263 -0.2683 -0.1365 -0.1069
  686TIP3    H123693   2.849   0.131   2.325 -1.1626 -0.3869 -0.1793
  686TIP3    H223694   2.838   0.091   2.179 -0.6668 -0.7003 -0.1324
  687TIP3   OH223695   4.927   2.306   8.110  0.6284 -0.1921  0.5652
  687TIP3    H123696   5.017   2.277   8.124  0.8499 -0.4761 -1.2439
  687TIP3    H223697   4.893   2.246   8.044 -0.2227  1.1616 -0.2760
  688TIP3   OH223698   3.224   0.052   2.760  0.3101  0.4423  0.5317
  688TIP3    H123699   3.215   0.111   2.835 -2.5487  1.8811 -0.7861
  688TIP3    H223700   3.249   0.109   2.687 -0.3760 -0.3020 -0.3108
  689TIP3   OH223701   3.600   1.778   0.459  0.7611  0.1771 -0.6262
  689TIP3    H123702   3.666   1.847   0.449  1.6320 -0.0784  2.3821
  689TIP3    H223703   3.616   1.742   0.547 -1.0681 -2.3989 -1.2352
  690TIP3   OH223704   6.857   5.259   1.351  0.0477 -0.2274  0.4050
  690TIP3    H123705   6.812   5.329   1.397  2.1046  2.5417 -1.4795
  690TIP3    H223706   6.945   5.258   1.387  1.3785  1.2627 -2.4472
  691TIP3   OH223707   5.240   5.089   6.503  0.2328  0.1230  0.0073
  691TIP3    H123708   5.269   5.037   6.578 -0.5640  1.5055  1.3289
  691TIP3    H223709   5.220   5.175   6.540 -0.3897  0.7891 -1.7751
  692TIP3   OH223710   0.078   6.946   0.967 -0.3330 -0.2322  0.1109
  692TIP3    H123711   0.092   7.039   0.950 -0.8018  0.0598  1.2311
  692TIP3    H223712   0.143   6.922   1.033  1.2810 -1.2801 -1.7499
  693TIP3   OH223713   0.315   3.156   6.946  0.3141 -0.0343 -0.2519
  693TIP3    H123714   0.240   3.212   6.928 -0.3022 -1.4954 -2.8129
  693TIP3    H223715   0.333   3.168   7.039 -1.3318  2.4388 -0.1680
  694TIP3   OH223716   2.098   5.206   1.690 -0.5817 -0.2683  0.1059
  694TIP3    H123717   2.124   5.263   1.618  0.5304  0.1381  0.8004
  694TIP3    H223718   2.100   5.118   1.653 -0.8635  0.0015 -0.5766
  695TIP3   OH223719   2.957   2.396   0.224 -0.5649 -0.2128 -0.2554
  695TIP3    H123720   3.028   2.339   0.252 -0.5984  0.1096  0.5199
  695TIP3    H223721   2.955   2.466   0.289 -0.0105  1.1302 -1.6134
  696TIP3   OH223722   3.620   5.070   0.977 -0.1349 -0.6299  0.2896
  696TIP3    H123723   3.697   5.077   1.033  0.3407 -0.5670 -0.3622
  696TIP3    H223724   3.655   5.061   0.888 -0.7800  3.9563 -0.6993
  697TIP3   OH223725   3.051   6.565   8.354  0.6094 -0.1304 -0.5517
  697TIP3    H123726   3.069   6.487   8.408 -0.2750  0.7078  1.0213
  697TIP3    H223727   3.058   6.638   8.415 -0.8851  0.8227 -1.4738
  698TIP3   OH223728   1.206   0.654   0.940 -0.1651  0.3685  0.3833
  698TIP3    H123729   1.197   0.636   0.846  0.4947  0.6489  0.2547
  698TIP3    H223730   1.252   0.738   0.943  0.0688  0.2239  0.9556
  699TIP3   OH223731   3.523   0.649   1.957 -0.2312 -0.0950 -0.1040
  699TIP3    H123732   3.460   0.582   1.986 -0.0506 -0.0314  0.4516
  699TIP3    H223733   3.501   0.664   1.865  1.0922 -2.5044 -0.9142
  700TIP3   OH223734   3.861   5.495   1.452  0.1648 -0.4397 -0.1693
  700TIP3    H123735   3.840   5.404   1.471 -0.8897 -0.2683 -0.4688
  700TIP3    H223736   3.951   5.492   1.418  1.0232 -1.0924  1.9571
  701TIP3   OH223737   2.847   3.185   1.115 -0.5715  0.3257 -0.4129
  701TIP3    H123738   2.837   3.185   1.020  1.0015  3.0346 -0.7004
  701TIP3    H223739   2.942   3.185   1.129 -0.7463 -1.3075  1.2523
  702TIP3   OH223740   2.960   6.295   0.696 -0.3697 -0.0628 -0.2268
  702TIP3    H123741   2.941   6.231   0.627 -0.9881 -1.8818  1.5271
  702TIP3    H223742   2.896   6.276   0.764  2.0625 -0.3964  2.1262
  703TIP3   OH223743   4.425   1.460   2.696 -0.3291  0.1012 -0.2684
  703TIP3    H123744   4.393   1.526   2.634  0.3108 -0.1251 -0.8581
  703TIP3    H223745   4.363   1.388   2.688 -3.4655  2.0717  3.3205
  704TIP3   OH223746   6.134   5.269   1.173  0.6233 -0.0108 -0.2284
  704TIP3    H123747   6.208   5.321   1.204  0.3071  0.3815 -0.1286
  704TIP3    H223748   6.160   5.178   1.188  0.9321  0.1394  0.1478
  705TIP3   OH223749   4.320   4.014   8.238 -0.2153 -0.3289 -0.6334
  705TIP3    H123750   4.279   3.975   8.315 -0.0373  0.1599 -0.2851
  705TIP3    H223751   4.413   4.020   8.261 -0.1317 -0.3683 -0.9630
  706TIP3   OH223752   1.155   2.784   7.395 -0.4002 -0.0604  0.6333
  706TIP3    H123753   1.162   2.871   7.355 -1.2290  0.0678  0.7456
  706TIP3    H223754   1.245   2.754   7.404 -0.0825  0.9356  0.8963
  707TIP3   OH223755   3.216   5.399   7.560  0.7245  0.3086  0.0769
  707TIP3    H123756   3.160   5.362   7.628  1.1416  0.4190  0.4862
  707TIP3    H223757   3.240   5.324   7.506  0.8612  0.1174  0.3948
  708TIP3   OH223758   6.525   1.532   1.682  0.2294 -0.2890 -0.8913
  708TIP3    H123759   6.473   1.587   1.742  0.0656  0.0438 -1.3331
  708TIP3    H223760   6.468   1.457   1.664 -0.4843  0.5083 -2.0838
  709TIP3   OH223761   4.931   4.378   7.794 -0.8862 -0.0634  0.3422
  709TIP3    H123762   4.838   4.380   7.773 -0.9079 -1.7296  0.2085
  709TIP3    H223763   4.971   4.327   7.724 -0.1443 -0.8766  1.3215
  710TIP3   OH223764   4.097   2.571   1.497 -0.6024  0.3689 -0.2455
  710TIP3    H123765   4.180   2.523   1.502 -0.3843  0.7332 -0.2836
  710TIP3    H223766   4.082   2.584   1.403 -1.1683 -0.4853 -0.2764
  711TIP3   OH223767   5.006   0.943   1.487  0.4936  0.0230 -0.1515
  711TIP3    H123768   4.937   0.880   1.470  0.5767  0.2309 -1.4022
  711TIP3    H223769   5.029   0.931   1.579 -1.5019  0.2651  0.4207
  712TIP3   OH223770   0.530   2.917   8.337 -0.2643 -0.0208 -0.3796
  712TIP3    H123771   0.598   2.958   8.392  0.9000  0.4424 -2.0851
  712TIP3    H223772   0.485   2.858   8.397  2.5730 -1.4416  0.5685
  713TIP3   OH223773   4.595   6.132   2.742  0.1881 -0.1380 -0.1705
  713TIP3    H123774   4.677   6.182   2.740  1.1155 -1.5917  0.6263
  713TIP3    H223775   4.620   6.044   2.713 -0.7344 -1.0783  1.7724
  714TIP3   OH223776   1.747   2.517   6.599  0.1579  0.5926 -0.1762
  714TIP3    H123777   1.803   2.444   6.570 -0.4923 -0.1294  0.3337
  714TIP3    H223778   1.697   2.480   6.672 -0.5569  1.4036 -0.2495
  715TIP3   OH223779   2.669   1.249   0.407  0.3290 -0.0985  0.4825
  715TIP3    H123780   2.686   1.326   0.354  0.6160 -0.2341  0.3756
  715TIP3    H223781   2.748   1.196   0.399 -0.0345 -0.6100  0.1892
  716TIP3   OH223782   3.101   2.948   1.536 -0.1337 -0.3311  0.4071
  716TIP3    H123783   3.111   3.034   1.494 -0.8615  0.5231  1.8842
  716TIP3    H223784   3.148   2.888   1.479  0.3162  1.0324 -0.7297
  717TIP3   OH223785   4.458   5.157   0.820  0.1069  0.3065  0.0364
  717TIP3    H123786   4.481   5.164   0.727 -0.5053  2.5389 -0.0200
  717TIP3    H223787   4.479   5.243   0.856  2.7451 -1.2389  2.5978
  718TIP3   OH223788   6.057   0.354   1.830 -0.0930  0.1133 -0.7314
  718TIP3    H123789   6.125   0.387   1.771 -0.4555 -0.7726 -1.6882
  718TIP3    H223790   5.993   0.314   1.772  0.0842 -1.8240  0.3000
  719TIP3   OH223791   4.349   6.569   6.820  0.1084 -0.7194  0.0849
  719TIP3    H123792   4.317   6.480   6.806 -0.9537 -0.3056 -0.2558
  719TIP3    H223793   4.441   6.566   6.795 -0.4150 -1.2643 -2.0092
  720TIP3   OH223794   3.017   0.420   6.350 -0.4329  0.1036 -0.3397
  720TIP3    H123795   3.102   0.461   6.336  0.1495 -1.5404 -2.0647
  720TIP3    H223796   3.038   0.336   6.391 -1.3421  0.1810  0.3161
  721TIP3   OH223797   1.126   6.491   1.721  0.0090 -0.4803  0.2850
  721TIP3    H123798   1.031   6.478   1.718 -0.6069  2.9101  1.5764
  721TIP3    H223799   1.156   6.431   1.789 -2.0328  1.6974  3.3572
  722TIP3   OH223800   3.515   3.949   1.806 -0.1794 -0.7178 -0.1730
  722TIP3    H123801   3.510   3.876   1.867 -0.6876 -0.6726 -0.1548
  722TIP3    H223802   3.447   3.931   1.741 -0.4222 -0.1743 -0.0726
  723TIP3   OH223803   1.785   5.699   0.596  0.0563  0.6794  0.0506
  723TIP3    H123804   1.753   5.642   0.526 -0.5933  2.5684 -1.2752
  723TIP3    H223805   1.864   5.739   0.560  0.8323  0.1945  1.1833
  724TIP3   OH223806   4.572   1.913   1.056 -0.8056  0.6843 -0.3414
  724TIP3    H123807   4.503   1.979   1.054  1.9207  3.7828 -0.3073
  724TIP3    H223808   4.648   1.958   1.094  1.0476 -2.7645  0.5304
  725TIP3   OH223809   2.982   1.865   2.302 -0.0949  0.4515  0.6416
  725TIP3    H123810   2.942   1.895   2.220 -0.6122  1.0565  1.1044
  725TIP3    H223811   3.045   1.933   2.324  2.1469 -1.0703 -0.7157
  726TIP3   OH223812   1.232   0.200   0.039 -0.5050 -0.0718 -0.0572
  726TIP3    H123813   1.320   0.218   0.072  0.3131  0.6023 -2.4029
  726TIP3    H223814   1.247   0.151  -0.042 -2.3435 -0.8330  0.0316
  727TIP3   OH223815   3.774   0.507   6.882  0.2116 -0.6538 -0.1939
  727TIP3    H123816   3.796   0.563   6.808  0.4696  0.0769  0.4123
  727TIP3    H223817   3.769   0.419   6.846  3.2098 -0.7606 -0.5761
  728TIP3   OH223818   4.621   3.265   0.758  0.4851  0.1327 -0.1500
  728TIP3    H123819   4.561   3.335   0.784 -0.4975 -0.7944  0.1527
  728TIP3    H223820   4.610   3.198   0.826  2.2695  0.1646  0.2027
  729TIP3   OH223821   5.218   4.130   8.305  0.3823 -0.4571 -0.0480
  729TIP3    H123822   5.140   4.142   8.358  1.2258 -0.5451  1.2545
  729TIP3    H223823   5.228   4.212   8.258 -2.1054 -1.4207 -2.5399
  730TIP3   OH223824   6.003   1.502   2.135  0.4191 -0.1996  0.1643
  730TIP3    H123825   6.057   1.536   2.206  0.5398 -1.5990  0.7807
  730TIP3    H223826   5.921   1.476   2.178 -0.0775  0.2666 -0.4692
  731TIP3   OH223827   0.265   4.658   8.052 -0.0947 -0.0112 -0.1289
  731TIP3    H123828   0.194   4.655   7.987  0.0251  0.3290 -0.2803
  731TIP3    H223829   0.330   4.716   8.013 -0.0416  0.2288  0.3145
  732TIP3   OH223830   3.205   4.101   0.364 -0.0631  0.1102  0.5193
  732TIP3    H123831   3.239   4.155   0.435 -0.0524 -1.0934  1.4493
  732TIP3    H223832   3.116   4.079   0.390 -0.0892 -0.2767  0.1183
  733TIP3   OH223833   3.440   0.196   6.190 -0.1091  0.3228 -0.1051
  733TIP3    H123834   3.408   0.173   6.278  2.3552  0.1252  0.8261
  733TIP3    H223835   3.397   0.133   6.132 -1.6656  0.3511  0.9650
  734TIP3   OH223836   5.727   1.004   1.693  0.1784  0.1014 -0.9018
  734TIP3    H123837   5.692   0.923   1.657 -0.6732  0.4059 -0.7727
  734TIP3    H223838   5.765   0.979   1.778 -0.4008 -0.0981 -0.6998
  735TIP3   OH223839   1.695   6.733   1.510  0.5178 -0.5100  0.0440
  735TIP3    H123840   1.695   6.762   1.601 -2.0086 -0.5333  0.1324
  735TIP3    H223841   1.613   6.684   1.500  0.3377  0.1447 -2.4331
  736TIP3   OH223842   3.939   0.764   1.005  0.1969 -0.1506  0.0807
  736TIP3    H123843   3.891   0.740   1.084  0.9797 -0.6372  0.4283
  736TIP3    H223844   3.872   0.787   0.941 -0.4575  2.4823  1.5445
  737TIP3   OH223845   3.759   2.360   7.119  0.0983 -0.5182 -0.1960
  737TIP3    H123846   3.816   2.297   7.076  0.7507  0.3370 -0.6290
  737TIP3    H223847   3.771   2.441   7.069 -1.3492 -0.2592 -0.1703
  738TIP3   OH223848   4.779   4.329   8.330  0.2147  0.3358  0.1136
  738TIP3    H123849   4.743   4.417   8.318 -0.8819 -0.2856 -1.4385
  738TIP3    H223850   4.873   4.340   8.317  0.3239  1.5472  1.6851
  739TIP3   OH223851   3.843   6.143   7.355 -0.2257  0.0660 -0.3989
  739TIP3    H123852   3.910   6.142   7.287  1.2452  2.4854  0.8679
  739TIP3    H223853   3.836   6.052   7.383  1.5046 -0.4725 -1.5467
  740TIP3   OH223854   5.110   6.874   0.347 -0.3326  0.3363  0.1145
  740TIP3    H123855   5.160   6.932   0.404  0.7742  0.5108 -0.9935
  740TIP3    H223856   5.135   6.786   0.374 -0.8906  0.3887  0.8217
  741TIP3   OH223857   6.211   2.215   8.153 -0.0632 -0.3646  0.0220
  741TIP3    H123858   6.144   2.253   8.095 -0.1906 -2.4623 -1.3285
  741TIP3    H223859   6.262   2.158   8.095  0.3611 -1.8952  1.8298
  742TIP3   OH223860   3.620   2.787   1.293  0.5665 -0.1463  0.2760
  742TIP3    H123861   3.644   2.754   1.380 -1.6558 -1.0849  0.5968
  742TIP3    H223862   3.679   2.740   1.233  1.3516 -0.3475  1.1800
  743TIP3   OH223863   5.381   6.147   2.049 -0.0298  0.0458 -0.0851
  743TIP3    H123864   5.403   6.103   2.131  1.3923  0.5995 -0.1499
  743TIP3    H223865   5.399   6.240   2.067 -0.7817  0.3182 -0.6802
  744TIP3   OH223866   4.243   2.219   8.466  0.5229 -0.3922  0.8688
  744TIP3    H123867   4.333   2.227   8.433 -0.4360  0.6884 -1.7453
  744TIP3    H223868   4.188   2.242   8.391 -2.0381 -3.1333  1.7413
  745TIP3   OH223869   0.270   0.843   1.516  0.2190  0.2207 -0.8284
  745TIP3    H123870   0.210   0.768   1.516  0.5562 -0.0546 -0.1057
  745TIP3    H223871   0.259   0.882   1.602 -1.0059  1.8775 -1.6827
  746TIP3   OH223872   0.408   4.747   7.784 -0.0467  0.0620  0.2115
  746TIP3    H123873   0.343   4.695   7.737 -0.8864 -1.4404  2.7931
  746TIP3    H223874   0.480   4.686   7.801 -0.2787  0.1754  1.7915
  747TIP3   OH223875   2.395   6.171   1.014 -0.4797 -0.5477 -0.0158
  747TIP3    H123876   2.333   6.099   1.010 -2.2584  0.9147 -0.1075
  747TIP3    H223877   2.434   6.166   1.102 -0.0637 -1.9766 -0.2628
  748TIP3   OH223878   5.036   0.600   2.673 -0.2118 -0.2448  0.3666
  748TIP3    H123879   4.981   0.664   2.719  0.2182 -0.4074  1.1162
  748TIP3    H223880   5.104   0.653   2.633 -1.8531  0.1804 -2.0678
  749TIP3   OH223881   3.404   1.609   0.658 -0.0072 -0.9811  0.4866
  749TIP3    H123882   3.416   1.565   0.574  0.6214 -2.3988  1.2865
  749TIP3    H223883   3.465   1.683   0.656  0.2436 -1.2061 -0.1668
  750TIP3   OH223884   3.940   4.338   1.317 -0.0625  1.0609 -0.0755
  750TIP3    H123885   3.902   4.309   1.399  0.3671  0.4566 -0.0873
  750TIP3    H223886   3.880   4.306   1.249 -0.9011  2.3133  0.0188
  751TIP3   OH223887   3.522   3.892   0.326  0.0054 -0.3053  0.2824
  751TIP3    H123888   3.437   3.872   0.288 -1.6974  4.2863  0.9939
  751TIP3    H223889   3.508   3.892   0.421  1.0681 -0.4538  0.4595
  752TIP3   OH223890   2.695   0.498   0.456  0.3471 -0.5042 -0.4398
  752TIP3    H123891   2.635   0.522   0.386  0.1476  1.0949  0.2269
  752TIP3    H223892   2.652   0.528   0.536  1.4169 -0.5314  0.1725
  753TIP3   OH223893   1.088   0.884   7.495 -0.0527 -0.0678  0.0193
  753TIP3    H123894   1.176   0.869   7.528 -0.1215  0.1444  0.2995
  753TIP3    H223895   1.067   0.804   7.446  0.0216 -0.4151  0.5479
  754TIP3   OH223896   2.034   3.408   1.567 -0.5734  0.1422 -0.0450
  754TIP3    H123897   1.976   3.434   1.640 -0.0890  0.8729  0.0823
  754TIP3    H223898   2.023   3.477   1.502 -0.4151 -0.1100 -0.3378
  755TIP3   OH223899   6.394   0.008   0.421  0.7163  0.3495 -0.6455
  755TIP3    H123900   6.478   0.039   0.388  0.3721  1.8703 -0.1748
  755TIP3    H223901   6.353  -0.034   0.346  1.5899  0.2324 -1.0710
  756TIP3   OH223902   1.573   0.928   7.015  0.0414  0.6542  0.3697
  756TIP3    H123903   1.481   0.949   7.032  0.7216  2.6079  2.0938
  756TIP3    H223904   1.611   0.912   7.101  1.4823  0.6305 -0.2303
  757TIP3   OH223905   4.380   1.211   8.173  0.5202  0.1931 -0.6867
  757TIP3    H123906   4.373   1.118   8.191  1.0469  0.4529  1.0459
  757TIP3    H223907   4.295   1.235   8.137 -0.7866 -0.3748  1.8354
  758TIP3   OH223908   2.347   1.353   1.904 -0.0837  0.2025  0.1440
  758TIP3    H123909   2.366   1.404   1.824 -2.0736  1.8151  0.6395
  758TIP3    H223910   2.349   1.418   1.974 -1.1753 -0.6801  1.0122
  759TIP3   OH223911   6.002   1.424   7.456  0.1767  0.1743  0.1260
  759TIP3    H123912   6.001   1.519   7.467  3.3109  0.6248 -2.1070
  759TIP3    H223913   6.070   1.394   7.516 -0.3058 -0.5865  0.3058
  760TIP3   OH223914   2.043   2.160   1.974  0.1684  0.0724  0.1064
  760TIP3    H123915   2.069   2.210   2.051  1.8969 -1.8828  0.8834
  760TIP3    H223916   2.013   2.226   1.911  1.7736  2.0120  1.2810
  761TIP3   OH223917   2.382   2.876   2.470 -1.0553 -0.4492  0.5440
  761TIP3    H123918   2.297   2.910   2.498 -0.4146 -0.0913  2.1244
  761TIP3    H223919   2.421   2.949   2.421 -0.5147  0.4314  2.2272
  762TIP3   OH223920   2.167   0.938   2.654  0.7097  0.5183  0.0324
  762TIP3    H123921   2.077   0.921   2.682  1.2940 -0.1464  1.6418
  762TIP3    H223922   2.172   0.902   2.566 -0.1348 -1.0753  0.5887
  763TIP3   OH223923   6.926   4.913   8.143  0.7078  0.1706 -0.1013
  763TIP3    H123924   6.959   4.842   8.089 -0.6609 -1.4268  1.0441
  763TIP3    H223925   6.882   4.869   8.216  1.5257  2.2130  1.7389
  764TIP3   OH223926   4.339   2.852   1.218 -0.2195  0.7407 -0.0691
  764TIP3    H123927   4.254   2.872   1.257 -1.2084 -0.6765 -1.3790
  764TIP3    H223928   4.352   2.759   1.234 -0.3584  0.2485 -2.4095
  765TIP3   OH223929   4.794   1.624   7.126  0.1231 -0.4000 -0.5672
  765TIP3    H123930   4.868   1.606   7.067  0.1523 -0.9024 -0.3851
  765TIP3    H223931   4.740   1.686   7.078  0.7554  0.1119 -0.6326
  766TIP3   OH223932   6.809   4.518   8.345  0.3090 -0.2160 -0.3278
  766TIP3    H123933   6.892   4.542   8.303 -1.0109 -1.1760 -3.8017
  766TIP3    H223934   6.743   4.572   8.301 -1.0097  0.7508  2.5560
  767TIP3   OH223935   6.479   1.450   1.313 -0.6837  0.0397  0.2952
  767TIP3    H123936   6.430   1.396   1.250 -0.9062  0.6722 -0.0920
  767TIP3    H223937   6.415   1.515   1.343  0.1028  1.4412 -0.8813
  768TIP3   OH223938   0.516   5.962   1.402 -0.0389  0.3468 -0.5753
  768TIP3    H123939   0.610   5.976   1.413 -0.0081 -0.1462 -0.1969
  768TIP3    H223940   0.475   6.043   1.432  0.2363  0.3555 -0.2296
  769TIP3   OH223941   3.357   1.438   0.444 -0.6763  0.0504  0.3989
  769TIP3    H123942   3.379   1.447   0.351  1.3021  1.1569  0.9107
  769TIP3    H223943   3.399   1.356   0.471  0.9228  0.9713  0.8356
  770TIP3   OH223944   4.216   5.086   6.699  0.1586 -0.6960  0.2715
  770TIP3    H123945   4.195   5.088   6.606  1.7041 -0.2126 -0.0998
  770TIP3    H223946   4.276   5.160   6.712  0.6137 -1.2465  1.4854
  771TIP3   OH223947   5.344   6.386   7.581 -1.2860  0.2144  0.0232
  771TIP3    H123948   5.260   6.431   7.583 -0.2733  2.2937 -0.4113
  771TIP3    H223949   5.399   6.441   7.525  0.3173 -1.1417  0.1799
  772TIP3   OH223950   0.334   4.061   7.941  0.2530 -0.5650  0.1015
  772TIP3    H123951   0.252   4.109   7.935 -1.2836 -3.1409 -0.6499
  772TIP3    H223952   0.397   4.115   7.892 -0.8709  1.5040  0.7929
  773TIP3   OH223953   5.650   1.667   8.396 -0.2427 -0.3343  0.5519
  773TIP3    H123954   5.689   1.755   8.399 -0.8907  0.0577 -1.3812
  773TIP3    H223955   5.636   1.645   8.488  1.8828  0.6821  1.1947
  774TIP3   OH223956   0.814   2.611   1.157  0.4682 -0.1220 -0.2336
  774TIP3    H123957   0.853   2.602   1.070  2.1586  0.9198  0.3652
  774TIP3    H223958   0.825   2.703   1.179  0.4064 -0.4465  1.2425
  775TIP3   OH223959   5.124   2.607   0.301 -0.0191  0.1597  0.1324
  775TIP3    H123960   5.199   2.656   0.266 -1.0117  0.8083 -1.1964
  775TIP3    H223961   5.101   2.546   0.231 -0.6029 -0.1785  0.6138
  776TIP3   OH223962   6.905   1.356   0.404 -0.5428 -0.4005 -0.6573
  776TIP3    H123963   6.959   1.326   0.477 -0.0795  2.0306  0.1212
  776TIP3    H223964   6.834   1.406   0.445 -2.2582 -1.8071 -1.7631
  777TIP3   OH223965   2.882   1.131   6.714 -0.2416  0.0872 -0.1082
  777TIP3    H123966   2.913   1.128   6.804 -0.3515  1.1749 -0.0208
  777TIP3    H223967   2.836   1.048   6.701  0.2869 -0.3264  0.6440
  778TIP3   OH223968   5.652   3.268   1.710 -0.2494  0.0055 -0.6021
  778TIP3    H123969   5.657   3.348   1.657  0.7444 -0.6600 -1.5489
  778TIP3    H223970   5.713   3.284   1.782  1.3699 -0.5784 -1.7838
  779TIP3   OH223971   0.804   2.046   1.073 -0.2856  0.3349  0.0837
  779TIP3    H123972   0.877   2.016   1.019  0.6705 -1.1349  2.0667
  779TIP3    H223973   0.729   2.049   1.013  1.1168  0.7610 -1.7421
  780TIP3   OH223974   4.108   0.921   0.419  0.1872 -0.3542  0.3192
  780TIP3    H123975   4.075   0.997   0.371 -1.2545 -1.8384 -1.1401
  780TIP3    H223976   4.093   0.942   0.511 -1.8461  0.4166 -0.1405
  781TIP3   OH223977   1.089   6.163   1.035  0.0284  0.1077  0.2068
  781TIP3    H123978   1.006   6.208   1.045 -0.5191 -0.7542 -0.3866
  781TIP3    H223979   1.112   6.135   1.124 -1.5138 -1.7140  0.0962
  782TIP3   OH223980   2.786   3.198   0.855  0.3095 -0.3150 -0.1952
  782TIP3    H123981   2.785   3.293   0.862  1.9653 -0.2056 -0.8589
  782TIP3    H223982   2.854   3.180   0.790 -1.1879 -1.9043 -1.4083
  783TIP3   OH223983   5.063   2.883   1.319  0.2207 -0.0080 -0.6800
  783TIP3    H123984   5.077   2.901   1.226 -1.8136 -0.7871 -1.1975
  783TIP3    H223985   5.041   2.790   1.322  0.7967 -0.1191  0.6647
  784TIP3   OH223986   0.952   0.394   7.377 -0.3902 -0.3270  0.3513
  784TIP3    H123987   0.859   0.370   7.379 -0.9290  1.0394 -2.3653
  784TIP3    H223988   0.952   0.489   7.392  0.2966  0.0526 -1.7679
  785TIP3   OH223989   5.550   0.390   2.910  0.0380  0.6118 -0.4427
  785TIP3    H123990   5.492   0.457   2.946  0.0617  0.7009 -0.5679
  785TIP3    H223991   5.493   0.328   2.866 -0.2641 -0.9415  1.9400
  786TIP3   OH223992   5.604   6.234   1.648 -0.3853  0.2554 -0.2158
  786TIP3    H123993   5.662   6.225   1.724  0.7720  3.4390 -0.5764
  786TIP3    H223994   5.661   6.223   1.572 -0.7807  0.8239 -0.5980
  787TIP3   OH223995   4.199   2.008   0.102 -0.0259 -0.4992  0.3613
  787TIP3    H123996   4.215   2.088   0.051  1.4917  0.5550  2.3126
  787TIP3    H223997   4.108   2.016   0.132  0.3458  0.9771  1.2115
  788TIP3   OH223998   0.952   4.206   1.211  0.5329 -0.1178  0.3315
  788TIP3    H123999   1.008   4.165   1.146  2.2990 -0.8660  2.2061
  788TIP3    H224000   0.866   4.164   1.199  0.4325  0.6709 -2.2515
  789TIP3   OH224001   0.971   0.965   8.095 -0.1209  0.1850 -0.4561
  789TIP3    H124002   0.948   0.874   8.117 -1.4108  0.5083 -0.3591
  789TIP3    H224003   1.050   0.958   8.041 -0.3558 -1.0123 -0.6716
  790TIP3   OH224004   5.739   1.713   0.428  0.0935  0.0005  0.1330
  790TIP3    H124005   5.732   1.706   0.524 -0.1460 -1.6487  0.0276
  790TIP3    H224006   5.654   1.747   0.400  0.1369  0.4172  0.4857
  791TIP3   OH224007   2.761   1.238   1.881 -0.2332  0.5752  0.5708
  791TIP3    H124008   2.825   1.213   1.815  1.2410  0.2926  2.0455
  791TIP3    H224009   2.720   1.317   1.846  1.8210  1.5099  0.1435
  792TIP3   OH224010   5.836   4.194   1.217  0.3155  0.0529  0.5097
  792TIP3    H124011   5.847   4.268   1.276  3.7797 -1.0056  1.4203
  792TIP3    H224012   5.908   4.202   1.155  0.1879 -2.0059  0.0289
  793TIP3   OH224013   4.571   1.454   2.928  0.2260 -0.3373 -0.4829
  793TIP3    H124014   4.513   1.482   2.857 -1.7732 -0.3167  1.0837
  793TIP3    H224015   4.568   1.359   2.925 -2.8611 -0.4429  1.7585
  794TIP3   OH224016   3.325   2.782   1.317  0.3899  0.2964 -0.8007
  794TIP3    H124017   3.414   2.797   1.285  0.2836 -1.3054 -2.0280
  794TIP3    H224018   3.269   2.800   1.241 -0.2821  0.7849 -0.1937
  795TIP3   OH224019   6.883   6.412   0.583  0.1452  0.3992  0.0024
  795TIP3    H124020   6.932   6.491   0.561  0.7413 -0.0303 -0.2370
  795TIP3    H224021   6.808   6.413   0.523  1.1538 -0.1709 -1.3118
  796TIP3   OH224022   1.053   6.661   8.239 -0.0179  0.0564 -0.0252
  796TIP3    H124023   1.087   6.654   8.150  1.1017  0.2071  0.3789
  796TIP3    H224024   0.958   6.664   8.228  0.1173  0.4381 -1.2331
  797TIP3   OH224025   2.053   3.196   0.912  0.1100  0.0126 -0.4335
  797TIP3    H124026   2.118   3.146   0.862  0.2317 -2.0511  1.6273
  797TIP3    H224027   2.045   3.149   0.995 -1.0885  2.5032  0.9788
  798TIP3   OH224028   4.912   1.457   1.442  0.6552 -0.2247  0.1869
  798TIP3    H124029   5.001   1.468   1.476  2.5166  0.1988 -4.1640
  798TIP3    H224030   4.878   1.546   1.433 -0.6417 -0.4095  2.5374
  799TIP3   OH224031   3.329   5.933   1.909 -0.3286  0.4511 -0.0908
  799TIP3    H124032   3.399   5.906   1.968 -1.0541 -0.7335  0.2498
  799TIP3    H224033   3.336   5.875   1.833 -0.4671  0.8353 -0.4032
  800TIP3   OH224034   2.625   0.457   1.659  0.2395  0.5982 -0.3498
  800TIP3    H124035   2.689   0.498   1.601  0.8427  0.7963  0.4372
  800TIP3    H224036   2.666   0.460   1.745 -0.8333  0.7344  0.1708
  801TIP3   OH224037   2.646   4.258   1.649  0.1930 -0.3308 -0.3356
  801TIP3    H124038   2.687   4.264   1.735 -0.9556  0.2107  0.2010
  801TIP3    H224039   2.552   4.269   1.667 -0.0399  0.0334 -1.6837
  802TIP3   OH224040   0.208   3.596   8.490 -0.3376  0.2017  0.5138
  802TIP3    H124041   0.158   3.518   8.468 -0.0505  0.3072 -0.6231
  802TIP3    H224042   0.299   3.569   8.479 -0.2185  0.5217  0.7238
  803TIP3   OH224043   2.462   5.013   2.208  0.0023  0.2176  0.1225
  803TIP3    H124044   2.541   5.065   2.221 -0.3633  0.9367 -0.4563
  803TIP3    H224045   2.468   4.943   2.272  0.7593  0.6819  0.5658
  804TIP3   OH224046   3.447   6.334   1.096 -0.5044 -0.1109  0.6210
  804TIP3    H124047   3.437   6.240   1.086  0.9395 -0.2945  0.6302
  804TIP3    H224048   3.537   6.352   1.070 -0.5305  1.1652  1.2862
  805TIP3   OH224049   5.203   6.184   0.765  0.4676 -0.0652  0.1878
  805TIP3    H124050   5.235   6.168   0.677  0.2668 -1.4197  0.3407
  805TIP3    H224051   5.213   6.278   0.778 -1.3939  0.5291 -2.0389
  806TIP3   OH224052   3.658   5.424   2.024  0.7921 -0.0144 -0.4271
  806TIP3    H124053   3.717   5.467   2.086 -0.2596  1.5412 -0.4451
  806TIP3    H224054   3.689   5.454   1.938  0.8392 -0.3393 -0.5250
  807TIP3   OH224055   0.669   3.861   7.129  0.3762 -0.1736 -0.2339
  807TIP3    H124056   0.611   3.830   7.060 -0.0084  1.9286 -0.9300
  807TIP3    H224057   0.757   3.853   7.092  0.2273  0.2274 -0.6888
  808TIP3   OH224058   6.024   3.707   0.052 -0.2427 -0.7274 -0.2255
  808TIP3    H124059   6.118   3.694   0.038 -0.3791  0.0125 -2.0852
  808TIP3    H224060   6.015   3.720   0.146  1.3178 -2.3185  0.1915
  809TIP3   OH224061   0.551   3.540   7.574 -0.0754 -0.2560 -0.0356
  809TIP3    H124062   0.511   3.525   7.489 -0.6033 -2.1563  0.5116
  809TIP3    H224063   0.482   3.580   7.627  0.3909  1.3533 -0.6004
  810TIP3   OH224064   1.248   4.051   6.949  0.0471 -0.4716 -0.3209
  810TIP3    H124065   1.228   4.140   6.920  0.5722 -0.0786  0.4896
  810TIP3    H224066   1.222   3.996   6.875 -3.3047  0.0173  0.3526
  811TIP3   OH224067   1.053   1.219   7.586 -0.2016  0.3679  0.0255
  811TIP3    H124068   1.009   1.225   7.501 -2.4445 -0.5991  1.0357
  811TIP3    H224069   1.057   1.125   7.604 -3.1290  0.5647  2.5258
  812TIP3   OH224070   4.399   5.618   6.223 -0.3750 -0.1099 -0.5305
  812TIP3    H124071   4.403   5.709   6.251  0.5437  0.0476 -1.1257
  812TIP3    H224072   4.451   5.571   6.288 -2.0666 -0.4558  0.6240
  813TIP3   OH224073   1.261   6.634   1.539 -0.1851 -0.7267 -0.7941
  813TIP3    H124074   1.339   6.578   1.536  0.5463  0.2366 -0.0904
  813TIP3    H224075   1.206   6.594   1.606  0.2600 -0.7052 -0.4105
  814TIP3   OH224076   2.712   0.915   7.733 -0.9583  1.0420  0.1711
  814TIP3    H124077   2.714   1.007   7.708  0.4896  0.5585 -1.7308
  814TIP3    H224078   2.681   0.870   7.655  0.5417 -0.2629  0.2773
  815TIP3   OH224079   4.167   5.980   1.211 -0.2969  0.1489  0.1646
  815TIP3    H124080   4.213   6.017   1.286 -1.7267 -0.8116  1.5684
  815TIP3    H224081   4.114   6.052   1.177  2.2188  1.3385 -1.6062
  816TIP3   OH224082   2.448   3.351   7.924  0.2508  0.4689 -0.0648
  816TIP3    H124083   2.458   3.419   7.990  2.0745  1.5792 -1.4192
  816TIP3    H224084   2.383   3.386   7.863  1.1722  0.9991 -0.7495
  817TIP3   OH224085   0.040   5.868   0.094 -0.3708  0.0170 -0.2467
  817TIP3    H124086   0.064   5.960   0.078 -0.1765 -0.0588 -0.3970
  817TIP3    H224087  -0.027   5.872   0.162  2.3222  0.0880  2.6134
  818TIP3   OH224088   4.462   0.872   8.089 -0.3032 -0.2841  0.5682
  818TIP3    H124089   4.498   0.802   8.143  0.3435 -1.1232 -0.8853
  818TIP3    H224090   4.380   0.837   8.055  0.8448 -1.0920 -1.5486
  819TIP3   OH224091   6.325   1.375   6.843 -0.5205 -0.5131 -0.0888
  819TIP3    H124092   6.415   1.343   6.836 -0.7028 -1.1382  0.3653
  819TIP3    H224093   6.271   1.298   6.827 -1.0256  0.2330 -2.3113
  820TIP3   OH224094   4.970   1.064   0.640  0.3583  0.0384 -0.4185
  820TIP3    H124095   4.895   1.096   0.690  1.2968  0.7320  0.5860
  820TIP3    H224096   4.989   0.979   0.679  1.2619  0.6976  0.6506
  821TIP3   OH224097   5.242   3.732   1.096 -0.1672  0.6916  0.7253
  821TIP3    H124098   5.275   3.775   1.175  0.0853  0.2526  0.8600
  821TIP3    H224099   5.218   3.804   1.038  0.6891  1.0161  0.7623
  822TIP3   OH224100   3.781   4.212   1.519  0.6081  0.3342  0.0273
  822TIP3    H124101   3.734   4.276   1.573  0.8220 -0.6102  1.3719
  822TIP3    H224102   3.717   4.143   1.502  0.7714  0.2609 -0.2944
  823TIP3   OH224103   5.868   3.992   7.272 -0.1216 -0.1334  0.1941
  823TIP3    H124104   5.780   3.981   7.308  0.1007 -1.2273  0.4400
  823TIP3    H224105   5.864   4.075   7.224 -0.5119  1.2573  2.4664
  824TIP3   OH224106   1.784   4.889   6.925  0.0797  0.5937  0.4142
  824TIP3    H124107   1.757   4.830   6.855  0.4452  0.7028  0.1750
  824TIP3    H224108   1.818   4.832   6.993  1.4922  0.5659 -0.2827
  825TIP3   OH224109   6.643   2.819   0.363 -0.0124 -0.0036  0.4704
  825TIP3    H124110   6.717   2.775   0.322 -0.6593 -2.5455  1.8462
  825TIP3    H224111   6.635   2.902   0.316  3.5628  0.3043  0.1610
  826TIP3   OH224112   5.721   3.436   6.924  0.0049 -0.4047 -0.2922
  826TIP3    H124113   5.629   3.450   6.947 -0.0861 -1.2530 -0.0798
  826TIP3    H224114   5.733   3.341   6.932  0.8822 -0.3104 -0.3802
  827TIP3   OH224115   4.060   0.061   1.468 -0.8411 -0.1428 -0.4578
  827TIP3    H124116   4.048  -0.024   1.509 -1.2652 -0.1371 -0.5618
  827TIP3    H224117   4.041   0.124   1.537  3.9338 -0.0069  1.0492
  828TIP3   OH224118   3.730   4.708   7.858  0.2022 -0.2379 -0.3427
  828TIP3    H124119   3.681   4.735   7.935  0.5162 -2.4250  0.6828
  828TIP3    H224120   3.804   4.658   7.892  1.2665  0.0965 -2.0033
  829TIP3   OH224121   2.171   6.850   1.419 -0.1749  0.1077 -0.0644
  829TIP3    H124122   2.258   6.891   1.419 -0.5326  1.1020  3.0909
  829TIP3    H224123   2.111   6.923   1.403 -0.6112  0.3485  2.2714
  830TIP3   OH224124   3.877   4.915   8.156 -0.4005  0.3957  0.8309
  830TIP3    H124125   3.941   4.941   8.091  0.4312  0.0470  1.4954
  830TIP3    H224126   3.794   4.914   8.109  0.1569  0.3317 -0.1702
  831TIP3   OH224127   0.063   5.740   1.544  0.0462  0.1079  0.3325
  831TIP3    H124128  -0.021   5.714   1.506  0.6718 -0.0676 -0.9492
  831TIP3    H224129   0.040   5.770   1.632 -1.3899  0.2524 -0.0629
  832TIP3   OH224130   0.219   3.032   7.979  0.3136 -0.3259 -0.2835
  832TIP3    H124131   0.176   3.046   7.895  1.6624 -0.6055 -1.0488
  832TIP3    H224132   0.286   2.966   7.962 -0.1548 -1.2826  1.2929
  833TIP3   OH224133   2.583   1.609   0.524 -0.3493 -0.7919  0.2471
  833TIP3    H124134   2.599   1.584   0.433 -2.3769 -2.2099  0.2109
  833TIP3    H224135   2.488   1.597   0.536 -0.0438 -1.3377  2.7427
  834TIP3   OH224136   1.714   4.215   1.047 -0.2923  0.5888 -0.2265
  834TIP3    H124137   1.712   4.311   1.049 -0.0416  0.6803 -2.1612
  834TIP3    H224138   1.806   4.193   1.063 -0.4885  0.6068  1.0251
  835TIP3   OH224139   1.332   0.306   1.074 -0.0846  0.3425 -0.1812
  835TIP3    H124140   1.239   0.288   1.091 -0.8002  0.6992 -3.1479
  835TIP3    H224141   1.366   0.222   1.041  0.2075  0.6492 -0.6667
  836TIP3   OH224142   5.808   4.719   1.782 -0.7958 -0.1815 -0.2929
  836TIP3    H124143   5.890   4.686   1.817  0.8179  4.0374  0.4649
  836TIP3    H224144   5.822   4.723   1.687 -1.1060 -1.6665 -0.4243
  837TIP3   OH224145   0.282   1.046   7.229  0.0665  0.0186  0.6709
  837TIP3    H124146   0.240   1.100   7.295 -1.2668 -0.9220  0.6310
  837TIP3    H224147   0.210   1.002   7.184  0.9931 -0.0554 -0.8156
  838TIP3   OH224148   2.925   4.091   0.109 -0.4685 -0.4088 -0.0591
  838TIP3    H124149   2.898   4.015   0.160 -1.3163  0.1158  0.2946
  838TIP3    H224150   2.889   4.076   0.022 -0.7879 -0.3361  0.0584
  839TIP3   OH224151   5.652   4.669   7.767  0.3224 -0.0081  0.0426
  839TIP3    H124152   5.639   4.602   7.835  0.2604  0.4624  0.5056
  839TIP3    H224153   5.566   4.709   7.756  0.4569  0.3114  0.1167
  840TIP3   OH224154   1.279   6.775   0.833 -0.0017 -0.2432 -0.6945
  840TIP3    H124155   1.234   6.755   0.751 -2.2497 -1.0833  0.6450
  840TIP3    H224156   1.233   6.723   0.899  1.2798  0.9230  1.2246
  841TIP3   OH224157   5.949   2.304   0.678 -0.7596  0.0945 -1.0808
  841TIP3    H124158   6.015   2.345   0.623 -2.8689  1.6742 -2.6327
  841TIP3    H224159   5.914   2.233   0.625 -0.0024 -1.0678 -0.0700
  842TIP3   OH224160   5.407   4.400   3.017  0.0142 -0.3495 -0.4625
  842TIP3    H124161   5.440   4.373   2.932  0.0888 -0.6345 -0.3443
  842TIP3    H224162   5.481   4.386   3.077 -0.4875 -1.5214 -0.0981
  843TIP3   OH224163   5.243   4.754   1.892  0.5392 -0.0061  0.2762
  843TIP3    H124164   5.241   4.690   1.822  1.2803  0.9265 -0.6325
  843TIP3    H224165   5.334   4.756   1.920  0.1317 -0.8792  1.7831
  844TIP3   OH224166   6.716   3.154   1.873  1.0506 -0.0537  0.5002
  844TIP3    H124167   6.779   3.127   1.805 -0.6617  1.1812 -1.7040
  844TIP3    H224168   6.710   3.249   1.863  1.1062  0.2346  2.7879
  845TIP3   OH224169   0.210   6.869   2.675 -0.6634  0.3674 -0.1317
  845TIP3    H124170   0.192   6.880   2.768  0.5025 -0.0561  0.1698
  845TIP3    H224171   0.305   6.879   2.668 -0.7841  0.8685 -1.3486
  846TIP3   OH224172   1.155   5.139   0.600  0.6578 -0.2488  0.1603
  846TIP3    H124173   1.082   5.170   0.652 -0.4141 -1.3175 -0.6343
  846TIP3    H224174   1.231   5.147   0.657  0.1481  2.0060  0.6026
  847TIP3   OH224175   4.431   6.712   2.071  0.8085  0.5768 -0.3885
  847TIP3    H124176   4.380   6.744   1.997  1.2020  0.5118 -0.6862
  847TIP3    H224177   4.409   6.619   2.078  0.6056  0.6312 -0.2844
  848TIP3   OH224178   6.644   4.450   0.335 -0.2059 -0.1149  0.2465
  848TIP3    H124179   6.708   4.455   0.264 -1.4298  0.4538 -0.8475
  848TIP3    H224180   6.626   4.356   0.344 -1.2165 -0.1146 -1.3281
  849TIP3   OH224181   0.944   2.714   7.563  0.0386 -0.2046  0.5175
  849TIP3    H124182   1.018   2.742   7.508 -0.1214 -0.3927  0.2033
  849TIP3    H224183   0.949   2.618   7.562  0.7011 -0.2001  1.7435
  850TIP3   OH224184   2.163   6.363   7.862 -0.0785 -0.0950  0.3167
  850TIP3    H124185   2.224   6.398   7.927 -0.7484 -0.2091  1.0288
  850TIP3    H224186   2.084   6.417   7.872 -0.2726 -0.2694 -0.2377
  851TIP3   OH224187   1.493   3.295   1.715  0.5109 -0.1549 -1.0139
  851TIP3    H124188   1.454   3.367   1.765  0.1935 -1.1146  0.1761
  851TIP3    H224189   1.471   3.314   1.624 -1.9940 -0.1722 -0.4916
  852TIP3   OH224190   3.017   6.485   2.277 -0.5801 -0.2049 -0.3447
  852TIP3    H124191   2.936   6.439   2.299 -0.9745  1.0208  0.8332
  852TIP3    H224192   2.990   6.574   2.256  0.6324  0.9078  2.3497
  853TIP3   OH224193   6.262   6.419   6.681  0.8119  0.1960 -0.2195
  853TIP3    H124194   6.171   6.391   6.686  1.0336 -0.4426  0.4914
  853TIP3    H224195   6.266   6.477   6.605 -0.1241  0.0020 -0.4226
  854TIP3   OH224196   2.133   0.118   8.506 -0.1077 -0.1493  0.0521
  854TIP3    H124197   2.135   0.037   8.556  1.8283 -0.4771 -0.4807
  854TIP3    H224198   2.120   0.090   8.415  1.6627  0.0165 -0.2786
  855TIP3   OH224199   3.175   1.061   6.549  0.0271  0.0440 -0.0405
  855TIP3    H124200   3.119   1.083   6.475  1.0505  2.0036 -0.2866
  855TIP3    H224201   3.243   1.129   6.550  0.7013 -0.5721  2.0104
  856TIP3   OH224202   0.795   2.865   1.928 -0.2768 -0.4919 -0.2123
  856TIP3    H124203   0.711   2.876   1.886 -0.1488 -1.2296 -0.6793
  856TIP3    H224204   0.780   2.799   1.996 -0.0155 -0.8243 -0.4758
  857TIP3   OH224205   6.533   2.478   2.089  0.7443 -0.0513  0.5622
  857TIP3    H124206   6.583   2.551   2.053  2.1712 -1.1905  0.1260
  857TIP3    H224207   6.522   2.500   2.182  0.1057  1.2604  0.1901
  858TIP3   OH224208   3.160   6.355   2.574 -0.1573  0.6892  0.5364
  858TIP3    H124209   3.177   6.297   2.500  1.2590  1.6048  0.1055
  858TIP3    H224210   3.066   6.372   2.571 -0.5552 -1.3297  0.5166
  859TIP3   OH224211   2.304   3.937   1.886 -0.1067 -0.1208  0.3985
  859TIP3    H124212   2.254   3.874   1.937  0.7421  0.8292  2.5284
  859TIP3    H224213   2.238   3.992   1.843 -0.8537 -0.9804  0.4310
  860TIP3   OH224214   6.236   6.083   7.999 -0.5248  0.4219  0.1568
  860TIP3    H124215   6.294   6.147   7.957 -1.6530  1.9064  0.7773
  860TIP3    H224216   6.283   6.057   8.078 -0.3871  1.0559  0.2901
  861TIP3   OH224217   5.186   0.908   1.296 -0.3832  0.4790 -0.1569
  861TIP3    H124218   5.144   0.971   1.354  1.1814  2.0579 -0.6510
  861TIP3    H224219   5.274   0.897   1.331  0.3727  0.9640 -1.8148
  862TIP3   OH224220   0.130   2.984   1.823  0.4087  0.1103 -0.1129
  862TIP3    H124221   0.054   3.031   1.788  0.2665  1.6854  2.1124
  862TIP3    H224222   0.200   3.049   1.824  1.1887 -0.7117 -0.1167
  863TIP3   OH224223   3.736   6.779   0.947  0.5598  0.2034  0.4157
  863TIP3    H124224   3.774   6.779   0.859  0.7509  0.6780  0.4918
  863TIP3    H224225   3.656   6.831   0.938 -0.9676 -2.0809 -0.0980
  864TIP3   OH224226   3.949   6.271   1.566  0.3662  0.2053  0.6078
  864TIP3    H124227   4.043   6.285   1.556  0.3589 -0.2727 -0.1866
  864TIP3    H224228   3.917   6.352   1.605  0.8093  1.1616 -0.9445
  865TIP3   OH224229   5.693   3.770   0.755 -0.2873  0.7101  1.0249
  865TIP3    H124230   5.688   3.836   0.685  1.3065 -1.6629 -1.5364
  865TIP3    H224231   5.630   3.703   0.728 -1.1223  0.6235  3.0330
  866TIP3   OH224232   0.465   1.900   0.174 -0.1411 -0.0272  0.0232
  866TIP3    H124233   0.482   1.854   0.256 -0.8608 -0.4651 -0.0568
  866TIP3    H224234   0.514   1.851   0.108 -2.2021 -1.7572 -0.3350
  867TIP3   OH224235   2.865   3.806   0.868  0.2683 -0.3208 -0.0595
  867TIP3    H124236   2.943   3.764   0.833  1.1894 -0.6210  2.1704
  867TIP3    H224237   2.897   3.857   0.942 -1.1931  2.3800 -1.1699
  868TIP3   OH224238   0.155   3.338   0.165  0.4174 -0.0871  0.3632
  868TIP3    H124239   0.084   3.382   0.118 -0.8460 -1.4409  0.9264
  868TIP3    H224240   0.121   3.251   0.183  2.4409 -0.9755  0.1865
  869TIP3   OH224241   3.183   3.875   0.572  0.1127  0.2115 -0.1458
  869TIP3    H124242   3.220   3.905   0.655  0.0669 -0.5647  0.1633
  869TIP3    H224243   3.107   3.932   0.557  0.5577  0.8390 -0.0382
  870TIP3   OH224244   0.809   4.888   0.603  0.4117  0.1034  0.2816
  870TIP3    H124245   0.747   4.822   0.635  0.4786 -1.0311 -1.7510
  870TIP3    H224246   0.777   4.910   0.515  1.9467  0.7694 -0.1367
  871TIP3   OH224247   2.079   5.413   6.893  0.3368 -0.1187  0.1213
  871TIP3    H124248   1.997   5.447   6.858 -0.3983 -0.8760  1.0765
  871TIP3    H224249   2.063   5.320   6.907  1.8101 -0.5934 -0.9741
  872TIP3   OH224250   4.453   6.322   7.940 -0.1557  0.2541 -0.4231
  872TIP3    H124251   4.538   6.348   7.977 -1.4664  1.6751  1.8150
  872TIP3    H224252   4.440   6.382   7.866  0.3572  0.6541 -0.1973
  873TIP3   OH224253   1.385   6.890   0.438  0.7203  0.3985 -0.6387
  873TIP3    H124254   1.458   6.835   0.467 -0.4912  0.1876  2.3348
  873TIP3    H224255   1.394   6.971   0.489  0.3107  1.4709 -2.1789
  874TIP3   OH224256   6.468   0.485   8.028  0.0689 -0.2293  0.3377
  874TIP3    H124257   6.464   0.558   8.090  1.7720  1.0411 -0.9690
  874TIP3    H224258   6.420   0.515   7.951 -2.1240 -1.8458  0.9571
  875TIP3   OH224259   6.412   0.114   1.474 -0.5033  0.3366 -0.1320
  875TIP3    H124260   6.503   0.131   1.497 -0.8219 -0.2832  1.8109
  875TIP3    H224261   6.415   0.036   1.418  0.1181 -0.4150  0.8948
  876TIP3   OH224262   4.311   0.693   6.618 -0.0982  0.5679 -0.0198
  876TIP3    H124263   4.394   0.733   6.594  0.9603 -1.2256  0.4406
  876TIP3    H224264   4.322   0.600   6.595 -0.6658 -0.3914  3.1371
  877TIP3   OH224265   5.662   2.464   8.139 -0.7961  0.0404 -0.2616
  877TIP3    H124266   5.690   2.555   8.147 -2.7765  0.8931 -2.0878
  877TIP3    H224267   5.597   2.453   8.208 -0.6457  0.0212 -0.1198
  878TIP3   OH224268   0.251   1.321   2.035 -0.2875  0.8618  0.0521
  878TIP3    H124269   0.246   1.348   1.944 -0.7552  1.3738  0.2262
  878TIP3    H224270   0.221   1.397   2.085 -0.8524  0.2972  0.5948
  879TIP3   OH224271   2.922   2.426   1.240 -0.2831 -0.1303 -0.2039
  879TIP3    H124272   3.016   2.432   1.227 -0.0251 -0.7923  1.2366
  879TIP3    H224273   2.907   2.334   1.264 -1.1872  0.1478  0.3388
  880TIP3   OH224274   4.687   3.334   7.995 -0.3463  0.4073  0.1356
  880TIP3    H124275   4.759   3.339   7.932  0.0563  0.7870  0.6210
  880TIP3    H224276   4.728   3.309   8.078 -0.6772  1.2702  0.5734
  881TIP3   OH224277   1.731   2.518   1.291 -0.0414 -0.5063 -0.5994
  881TIP3    H124278   1.774   2.465   1.224 -0.5236  0.7441 -1.9498
  881TIP3    H224279   1.803   2.568   1.331  0.1734 -0.7942 -0.6240
  882TIP3   OH224280   5.196   0.483   6.624 -0.3775 -0.4596  0.3838
  882TIP3    H124281   5.291   0.481   6.614 -0.3529 -0.7181  0.6592
  882TIP3    H224282   5.165   0.408   6.573 -0.5541  0.4597 -0.9111
  883TIP3   OH224283   2.129   5.551   7.133 -0.6529 -0.4457 -0.3103
  883TIP3    H124284   2.103   5.526   7.044  0.5881  2.1051 -1.4871
  883TIP3    H224285   2.224   5.559   7.129 -0.2746 -2.5909  1.9616
  884TIP3   OH224286   4.731   2.024   2.706  0.3965  0.4369  0.5425
  884TIP3    H124287   4.735   2.117   2.683 -0.7262  0.3236 -0.1595
  884TIP3    H224288   4.650   2.015   2.756 -1.0358 -0.6481 -1.8223
  885TIP3   OH224289   6.782   4.951   7.724 -0.2100 -0.4187 -0.2998
  885TIP3    H124290   6.834   5.029   7.744 -0.9140 -0.1829  0.6449
  885TIP3    H224291   6.818   4.920   7.640 -0.7566  1.6617 -1.3837
  886TIP3   OH224292   0.801   1.391   0.906 -0.2849  0.0076 -0.0084
  886TIP3    H124293   0.707   1.405   0.891 -0.0651  1.3940 -0.2451
  886TIP3    H224294   0.841   1.404   0.820  0.2610  0.8631  0.3599
  887TIP3   OH224295   1.353   3.244   2.016 -0.4964 -0.0789 -0.0490
  887TIP3    H124296   1.389   3.258   2.104 -0.1796 -2.9927  0.3708
  887TIP3    H224297   1.276   3.301   2.013  0.6644  1.6677  1.2913
  888TIP3   OH224298   4.459   3.643   2.901 -0.1692 -0.4100 -0.2968
  888TIP3    H124299   4.545   3.649   2.943 -1.1289  0.7493  1.6411
  888TIP3    H224300   4.467   3.570   2.840  2.3901  0.1035 -0.7042
  889TIP3   OH224301   1.060   6.451   7.999  0.1931 -0.3090  0.0342
  889TIP3    H124302   1.050   6.370   7.949 -0.9913  0.1748 -0.5589
  889TIP3    H224303   1.151   6.478   7.982  1.0727 -2.2165  1.3980
  890TIP3   OH224304   2.871   3.789   7.308 -0.1077  0.2644 -0.3492
  890TIP3    H124305   2.936   3.854   7.335 -0.5602  0.9315 -0.8092
  890TIP3    H224306   2.796   3.841   7.279 -0.9777 -0.4985  0.4722
  891TIP3   OH224307   4.865   0.443   7.768 -0.6002 -0.0649 -0.0562
  891TIP3    H124308   4.909   0.460   7.851 -0.7498 -1.8143  0.4392
  891TIP3    H224309   4.929   0.468   7.702 -0.1669  0.6004  0.5953
  892TIP3   OH224310   4.751   3.394   1.559 -0.4324  0.2760  0.2488
  892TIP3    H124311   4.759   3.486   1.535  1.2100  0.5653  1.6748
  892TIP3    H224312   4.661   3.370   1.536 -0.7070  2.0502 -0.6848
  893TIP3   OH224313   5.597   2.655   0.066 -0.2226 -0.5687 -0.0236
  893TIP3    H124314   5.563   2.573   0.103 -0.0338 -0.4659  0.3845
  893TIP3    H224315   5.632   2.703   0.142 -2.1344  0.7921  0.0769
  894TIP3   OH224316   4.138   2.195   2.590  0.4422  0.5709 -0.1683
  894TIP3    H124317   4.088   2.274   2.614 -0.1607  0.3741 -0.7678
  894TIP3    H224318   4.201   2.186   2.661  0.4568  1.5415 -0.0342
  895TIP3   OH224319   2.230   2.179   1.566  0.5698 -0.0549  0.6587
  895TIP3    H124320   2.232   2.104   1.507 -0.2424 -0.1106  0.7007
  895TIP3    H224321   2.151   2.227   1.542  1.0537  0.7691  0.6637
  896TIP3   OH224322   6.863   4.827   1.207 -0.0388  0.4437 -0.0431
  896TIP3    H124323   6.864   4.813   1.302 -2.7183 -0.1508 -0.0386
  896TIP3    H224324   6.852   4.921   1.197  0.6370  0.5580  0.2004
  897TIP3   OH224325   6.042   3.640   1.196 -0.0362  0.1323 -0.1418
  897TIP3    H124326   6.059   3.725   1.156  1.1105  0.7296  1.4953
  897TIP3    H224327   6.003   3.660   1.280 -0.9802 -1.0298 -0.2771
  898TIP3   OH224328   4.713   0.785   0.858  0.1333 -0.0718  0.5230
  898TIP3    H124329   4.802   0.751   0.854 -0.4218 -1.4942 -0.5643
  898TIP3    H224330   4.713   0.845   0.932  1.8334 -0.5061  0.8991
  899TIP3   OH224331   2.278   1.173   6.949 -0.1935  0.4797 -0.4702
  899TIP3    H124332   2.182   1.169   6.939 -0.1452  1.4071 -1.4180
  899TIP3    H224333   2.298   1.266   6.959  0.5156  0.1953  0.9697
  900TIP3   OH224334   5.457   4.151   1.339  0.3407  0.4201 -0.1942
  900TIP3    H124335   5.545   4.122   1.315  0.8226  0.5480  1.3125
  900TIP3    H224336   5.470   4.232   1.389 -0.5785  0.0982  0.6071
  901TIP3   OH224337   4.635   4.328   7.388  0.2400  0.2527 -0.6328
  901TIP3    H124338   4.588   4.245   7.394  0.6537 -0.0053 -0.8579
  901TIP3    H224339   4.694   4.316   7.313 -0.2391  1.0254 -1.1488
  902TIP3   OH224340   2.882   3.597   2.296 -0.2050 -0.1842 -0.0246
  902TIP3    H124341   2.885   3.611   2.391  0.2081 -1.0933  0.1055
  902TIP3    H224342   2.792   3.567   2.280  0.3681 -2.3629  0.4530
  903TIP3   OH224343   4.502   3.874   2.340 -0.6829  0.2013 -0.0149
  903TIP3    H124344   4.580   3.922   2.312 -1.6076  1.8048  0.0419
  903TIP3    H224345   4.496   3.889   2.434 -0.8501 -0.2485  0.0503
  904TIP3   OH224346   6.345   2.806   1.150 -0.0557  0.0033  0.4302
  904TIP3    H124347   6.414   2.740   1.152 -2.0048 -2.1156  0.8020
  904TIP3    H224348   6.271   2.766   1.194 -1.7814  1.9365 -0.5247
  905TIP3   OH224349   5.509   2.700   0.682 -0.1357 -0.4117 -0.0723
  905TIP3    H124350   5.463   2.683   0.765  2.0068  1.3473  1.6087
  905TIP3    H224351   5.460   2.771   0.641 -0.2023 -0.0536  0.6061
  906TIP3   OH224352   3.839   4.886   2.031 -0.1767  0.2532 -0.5313
  906TIP3    H124353   3.779   4.951   2.067 -2.3244 -1.9338  0.1379
  906TIP3    H224354   3.925   4.911   2.065 -1.1093  2.0450  0.6576
  907TIP3   OH224355   3.402   2.961   6.617  0.0786 -0.3544 -0.2295
  907TIP3    H124356   3.464   2.890   6.629 -1.3832 -1.6496  0.0015
  907TIP3    H224357   3.355   2.940   6.537 -0.0577  0.6132 -0.4206
  908TIP3   OH224358   2.634   3.660   8.346  0.1209  0.2557  0.0217
  908TIP3    H124359   2.539   3.656   8.345  0.0995 -0.9106  1.8675
  908TIP3    H224360   2.655   3.707   8.427  1.1051 -2.4669  1.4596
  909TIP3   OH224361   0.264   6.039   8.472  0.2755 -0.4733  0.4066
  909TIP3    H124362   0.284   6.070   8.384  1.3296 -1.0060  0.4480
  909TIP3    H224363   0.322   5.965   8.486  1.3015  0.5892  2.1499
  910TIP3   OH224364   3.424   4.681   2.989  0.1258 -0.1844 -0.3447
  910TIP3    H124365   3.433   4.611   3.055  0.6931  2.5649  2.7546
  910TIP3    H224366   3.340   4.662   2.946 -0.5652 -1.8838  1.5504
  911TIP3   OH224367   3.195   6.374   0.430  0.5410  0.1051  0.8606
  911TIP3    H124368   3.153   6.295   0.396  1.5578 -0.2384  0.3606
  911TIP3    H224369   3.126   6.418   0.480 -0.3512 -0.5246  0.2182
  912TIP3   OH224370   6.377   2.494   7.226  0.5207 -0.2096  0.2211
  912TIP3    H124371   6.298   2.545   7.240  0.0060 -1.3656  1.8817
  912TIP3    H224372   6.349   2.419   7.175  1.1506  0.7667 -1.6585
  913TIP3   OH224373   5.668   2.222   8.022 -0.3704 -0.2216  0.0517
  913TIP3    H124374   5.688   2.306   8.063  0.9272 -0.7551  0.5923
  913TIP3    H224375   5.576   2.228   7.997 -0.4972  1.0738  0.7479
  914TIP3   OH224376   3.974   0.956   2.751 -0.0472 -0.1167  0.5775
  914TIP3    H124377   3.928   0.984   2.673  1.4348  1.6885  0.2785
  914TIP3    H224378   3.942   1.014   2.820  1.3777  0.8958  0.4464
  915TIP3   OH224379   2.487   1.189   7.194 -0.2061 -0.5546  0.1401
  915TIP3    H124380   2.531   1.273   7.176 -1.2388  0.5584  2.3798
  915TIP3    H224381   2.485   1.145   7.109  2.3627  0.6820 -0.6855
  916TIP3   OH224382   5.781   1.690   0.767 -0.1471 -0.5189  0.3258
  916TIP3    H124383   5.764   1.784   0.754  2.0233 -0.0060  0.8263
  916TIP3    H224384   5.807   1.683   0.859 -0.4449 -1.6535  0.3364
  917TIP3   OH224385   0.318   2.833   2.332  0.3058 -0.5506  0.5060
  917TIP3    H124386   0.287   2.860   2.245  1.5076  0.5472  0.3922
  917TIP3    H224387   0.396   2.780   2.315 -0.0579 -1.2359  0.8929
  918TIP3   OH224388   5.314   2.585   7.479 -0.0029  0.1031 -0.1338
  918TIP3    H124389   5.337   2.534   7.402 -1.3849  1.0275 -1.1941
  918TIP3    H224390   5.220   2.599   7.472 -0.2042  0.0884  1.8060
  919TIP3   OH224391   6.732   0.311   2.773  0.2067 -0.1095  0.0113
  919TIP3    H124392   6.790   0.384   2.753 -0.0894  0.1549  0.1116
  919TIP3    H224393   6.650   0.352   2.801  0.1699 -0.4719  0.4601
  920TIP3   OH224394   3.352   4.224   7.670 -0.2554  0.4101  0.6911
  920TIP3    H124395   3.294   4.147   7.669  1.7644 -1.1901  1.0877
  920TIP3    H224396   3.336   4.266   7.585 -1.8143 -0.0821  0.6946
  921TIP3   OH224397   4.770   2.261   7.584  0.4263  0.0297  0.4884
  921TIP3    H124398   4.702   2.194   7.573  1.0245 -0.2829 -1.8835
  921TIP3    H224399   4.742   2.333   7.527  1.8659  0.0541 -0.2341
  922TIP3   OH224400   3.820   5.301   0.281 -0.2606 -0.1373 -0.0785
  922TIP3    H124401   3.751   5.366   0.274 -1.5317 -1.2767  1.1742
  922TIP3    H224402   3.781   5.220   0.247  0.9840 -0.4803 -0.7803
  923TIP3   OH224403   6.532   6.168   1.817 -0.0542 -0.2424  0.1170
  923TIP3    H124404   6.554   6.219   1.895  1.0062 -1.3895  0.5973
  923TIP3    H224405   6.448   6.127   1.839 -2.0398  2.7992 -1.0679
  924TIP3   OH224406   4.468   5.426   0.030  0.4564  0.3179  0.4120
  924TIP3    H124407   4.470   5.335   0.058  1.3368  0.0637 -0.4464
  924TIP3    H224408   4.376   5.451   0.038 -0.1726 -1.2527 -1.2198
  925TIP3   OH224409   1.187   3.283   0.412  0.1370  0.6533  0.0569
  925TIP3    H124410   1.249   3.340   0.366  0.3839 -0.2792 -0.8061
  925TIP3    H224411   1.111   3.279   0.353  0.0380  0.2726  0.2081
  926TIP3   OH224412   3.580   2.927   0.647  0.0936  0.2199  0.5655
  926TIP3    H124413   3.582   2.835   0.622  0.3426  0.0380  1.2219
  926TIP3    H224414   3.491   2.955   0.630 -0.1469 -0.3091  0.9189
  927TIP3   OH224415   3.085   3.443   8.335  0.6302  0.4914  0.2530
  927TIP3    H124416   3.100   3.351   8.357  0.7293 -0.1436 -2.1880
  927TIP3    H224417   3.095   3.489   8.418 -1.4140 -1.8837  1.9528
  928TIP3   OH224418   0.728   4.739   7.611 -0.0883  0.1788  0.0837
  928TIP3    H124419   0.686   4.801   7.670  1.3916  1.9504 -0.6126
  928TIP3    H224420   0.658   4.679   7.585 -1.7027  1.7911  0.4967
  929TIP3   OH224421   1.104   3.792   7.617  0.0900  0.3177 -0.4898
  929TIP3    H124422   1.042   3.799   7.690  1.4529  1.3573  0.6376
  929TIP3    H224423   1.168   3.727   7.647  1.8717  2.2904  0.2751
  930TIP3   OH224424   2.366   4.395   1.185 -0.0900  0.1225  0.0330
  930TIP3    H124425   2.340   4.457   1.116  0.6192  0.0394 -0.3173
  930TIP3    H224426   2.391   4.316   1.137  0.1037 -0.0466  0.4115
  931TIP3   OH224427   5.632   6.818   7.878 -0.8908  0.1311 -0.3404
  931TIP3    H124428   5.552   6.852   7.837 -1.1929  0.0314  0.1533
  931TIP3    H224429   5.656   6.742   7.825 -1.1994  0.0842 -0.4163
  932TIP3   OH224430   0.662   4.452   1.722 -0.5717  0.4392  0.0559
  932TIP3    H124431   0.593   4.472   1.786  0.2273  1.8605  0.5143
  932TIP3    H224432   0.726   4.523   1.732 -0.1521  0.4134 -1.9500
  933TIP3   OH224433   6.729   1.468   8.363  0.2295 -1.0701 -0.2181
  933TIP3    H124434   6.779   1.499   8.438  1.6994 -1.4081 -1.0158
  933TIP3    H224435   6.711   1.376   8.382  2.0137 -1.6093 -0.9567
  934TIP3   OH224436   6.167   3.420   1.112 -0.2025  0.1769  0.5656
  934TIP3    H124437   6.090   3.364   1.119 -0.0888 -0.4477 -2.1196
  934TIP3    H224438   6.142   3.501   1.156 -2.0980 -0.3132  0.4547
  935TIP3   OH224439   6.290   4.360   7.584 -0.0761  0.5363  0.0373
  935TIP3    H124440   6.282   4.453   7.566 -0.6483  0.5957  0.5681
  935TIP3    H224441   6.208   4.337   7.627  0.8839  0.2286  1.7743
  936TIP3   OH224442   3.602   0.122   1.493  0.4428  0.6941 -0.0425
  936TIP3    H124443   3.625   0.031   1.513  1.1959  1.2917  2.0589
  936TIP3    H224444   3.624   0.171   1.572 -1.1214  2.5338 -0.6559
  937TIP3   OH224445   2.406   4.275   7.737 -0.0089  0.5485 -0.2069
  937TIP3    H124446   2.482   4.265   7.794 -0.0457  1.9591  0.1292
  937TIP3    H224447   2.442   4.274   7.649  0.2117 -0.2650 -0.1140
  938TIP3   OH224448   3.131   1.779   0.728  0.1470  0.1712  0.0001
  938TIP3    H124449   3.122   1.727   0.808  1.3666  0.4166  0.3192
  938TIP3    H224450   3.207   1.741   0.683 -0.7326 -0.1955 -1.2354
  939TIP3   OH224451   5.403   3.714   8.045 -0.2390 -0.7032  0.0592
  939TIP3    H124452   5.351   3.757   7.978  2.2998 -0.1172 -1.6384
  939TIP3    H224453   5.413   3.780   8.114 -1.4196 -0.7332  0.2883
  940TIP3   OH224454   4.888   2.715   2.015 -0.3062 -0.2593 -0.3963
  940TIP3    H124455   4.941   2.767   2.077 -1.9466 -0.4058  1.2057
  940TIP3    H224456   4.900   2.759   1.931  0.4351  1.1525  0.4072
  941TIP3   OH224457   6.652   6.687   1.081  0.1346  1.0297 -0.7496
  941TIP3    H124458   6.702   6.712   1.159 -0.1506 -3.5086  1.1721
  941TIP3    H224459   6.588   6.757   1.071  0.8445  2.3563  2.4910
  942TIP3   OH224460   0.136   1.284   1.166  0.1206 -0.5083  0.5539
  942TIP3    H124461   0.115   1.281   1.072 -1.4621 -0.4541  0.8872
  942TIP3    H224462   0.119   1.195   1.197 -1.6385  0.0156  1.2206
  943TIP3   OH224463   6.934   4.060   6.795  0.2422  0.0772  0.2903
  943TIP3    H124464   6.892   4.145   6.812  1.4532  1.1455 -1.7245
  943TIP3    H224465   6.888   4.025   6.719  0.1562 -0.8215  0.7415
  944TIP3   OH224466   3.635   6.541   8.248 -0.2744  0.2319 -0.1449
  944TIP3    H124467   3.581   6.476   8.203  2.1447 -2.7719  0.8776
  944TIP3    H224468   3.661   6.602   8.180 -3.0160  0.4578 -1.0877
  945TIP3   OH224469   6.708   5.819   1.815 -0.1026 -0.1225  0.2359
  945TIP3    H124470   6.668   5.864   1.741  0.3615  0.1407  0.1390
  945TIP3    H224471   6.673   5.731   1.812 -2.0475  0.5585  1.1784
  946TIP3   OH224472   2.387   4.633   8.183 -0.1482 -0.6911  0.2943
  946TIP3    H124473   2.383   4.559   8.122 -2.2417  0.7864 -1.5453
  946TIP3    H224474   2.380   4.711   8.127  0.1028  0.8496  2.2773
  947TIP3   OH224475   1.469   0.620   8.043  0.3082  0.6597  0.1431
  947TIP3    H124476   1.547   0.565   8.045  0.0028  0.2365  1.1602
  947TIP3    H224477   1.443   0.629   8.135 -1.3136  0.0867 -0.2205
  948TIP3   OH224478   6.381   4.555   0.744  0.4780  0.1897  0.1873
  948TIP3    H124479   6.450   4.614   0.772 -0.4941  0.6911  1.6393
  948TIP3    H224480   6.333   4.604   0.677  0.4899  0.5127  0.4164
  949TIP3   OH224481   2.571   2.148   1.321  0.3707  0.3249  0.1641
  949TIP3    H124482   2.628   2.112   1.389  1.1193  0.1270 -0.5555
  949TIP3    H224483   2.626   2.152   1.243 -0.9182 -1.0175 -0.8740
  950TIP3   OH224484   1.556   3.271   0.706 -0.2397  0.4711 -0.3367
  950TIP3    H124485   1.651   3.258   0.710 -0.1088  1.5317  0.3427
  950TIP3    H224486   1.530   3.290   0.796 -1.0464  0.5622 -0.5797
  951TIP3   OH224487   2.801   6.755   7.437 -0.1015  0.1602  0.5240
  951TIP3    H124488   2.871   6.695   7.461 -0.2439 -0.3073 -0.2267
  951TIP3    H224489   2.833   6.841   7.465  0.5167 -0.1294  0.7179
  952TIP3   OH224490   2.487   4.541   0.601  0.2576 -0.1861  0.1123
  952TIP3    H124491   2.464   4.455   0.567 -0.8599  0.1477 -0.0428
  952TIP3    H224492   2.577   4.532   0.633 -0.1494 -1.6603  0.9461
  953TIP3   OH224493   1.584   6.169   1.121 -0.3986 -0.6408 -0.2596
  953TIP3    H124494   1.601   6.103   1.055  0.4772  0.3480 -1.0684
  953TIP3    H224495   1.506   6.215   1.090 -1.0600 -1.3141  0.3470
  954TIP3   OH224496   3.221   1.405   7.870 -1.0845 -0.6007  0.1262
  954TIP3    H124497   3.221   1.351   7.791  1.9945 -0.0079 -0.4076
  954TIP3    H224498   3.263   1.351   7.937 -0.7905  0.0331  0.4640
  955TIP3   OH224499   6.097   1.457   1.749  0.3005 -0.1594 -0.1395
  955TIP3    H124500   6.078   1.425   1.837 -0.5553 -0.4545 -0.4249
  955TIP3    H224501   6.011   1.467   1.707  0.6846  0.1281 -0.8895
  956TIP3   OH224502   6.618   6.550   1.489 -0.0741  1.0259 -0.4140
  956TIP3    H124503   6.560   6.539   1.564 -0.3947  0.1880 -0.7753
  956TIP3    H224504   6.572   6.508   1.416  1.8302 -1.4878 -0.2924
  957TIP3   OH224505   3.804   6.332   1.885 -0.4021  0.0680 -0.7722
  957TIP3    H124506   3.736   6.317   1.950 -1.8584  2.7572 -1.5071
  957TIP3    H224507   3.794   6.260   1.822 -1.2331 -0.6621  0.1728
  958TIP3   OH224508   6.654   6.136   8.326  0.5715  0.8617 -0.3340
  958TIP3    H124509   6.637   6.073   8.396 -1.8768  0.5084 -1.1801
  958TIP3    H224510   6.714   6.090   8.267  1.9061  0.8167  0.9778
  959TIP3   OH224511   3.783   4.047   2.027  0.4599  0.6041 -0.1727
  959TIP3    H124512   3.763   4.130   1.984 -1.2381 -0.0303 -0.6980
  959TIP3    H224513   3.802   3.987   1.956  0.9240  0.3488  0.1628
  960TIP3   OH224514   2.238   3.116   2.660 -0.5183  0.7988 -0.4705
  960TIP3    H124515   2.323   3.095   2.700 -0.0310  0.7716 -1.4767
  960TIP3    H224516   2.201   3.183   2.717 -1.1557 -1.2097  1.6184
  961TIP3   OH224517   5.567   6.527   0.078 -0.4929 -0.2490  0.1925
  961TIP3    H124518   5.542   6.526  -0.015 -0.3515  1.1319  0.1241
  961TIP3    H224519   5.524   6.604   0.114  2.6650  1.6380  0.3039
  962TIP3   OH224520   5.857   0.589   8.521 -0.0323 -0.0898  0.6469
  962TIP3    H124521   5.841   0.563   8.431  1.9484 -1.3400  0.5830
  962TIP3    H224522   5.782   0.554   8.570 -0.9902  0.3741 -0.4393
  963TIP3   OH224523   1.932   1.706   7.709 -0.8413 -0.1940 -0.4174
  963TIP3    H124524   1.975   1.679   7.628  0.2793 -1.9070  0.6887
  963TIP3    H224525   2.001   1.752   7.758 -1.0977 -0.4086  0.1490
  964TIP3   OH224526   5.632   2.100   2.551  0.2048 -0.1925 -0.6673
  964TIP3    H124527   5.590   2.023   2.591 -0.6016  1.1071  1.0955
  964TIP3    H224528   5.562   2.163   2.540  1.3606  1.4231  0.8050
  965TIP3   OH224529   2.446   3.385   0.426 -0.0978 -0.2923 -0.0119
  965TIP3    H124530   2.516   3.328   0.396 -1.0657 -0.5792 -1.8692
  965TIP3    H224531   2.452   3.462   0.369 -1.7844 -0.6996 -0.7953
  966TIP3   OH224532   3.171   4.613   1.506  0.1954  0.0815 -0.5501
  966TIP3    H124533   3.081   4.641   1.521 -0.3084 -1.0656 -1.3032
  966TIP3    H224534   3.202   4.584   1.592  0.0139  0.8775 -0.2013
  967TIP3   OH224535   5.918   5.911   1.216 -0.0277 -0.6086  0.3270
  967TIP3    H124536   5.882   5.832   1.256 -1.5403 -0.6364 -1.0097
  967TIP3    H224537   5.993   5.880   1.165  0.2848 -0.9495  0.9825
  968TIP3   OH224538   4.030   1.360   6.987  0.6320 -0.3543 -0.3247
  968TIP3    H124539   4.090   1.377   6.915 -0.6493  1.0250 -1.1071
  968TIP3    H224540   3.950   1.328   6.945  0.2763 -0.7073  0.5890
  969TIP3   OH224541   6.264   5.627   1.506  0.3000  0.1856  0.0088
  969TIP3    H124542   6.359   5.633   1.519  0.6055 -0.6103 -1.6172
  969TIP3    H224543   6.250   5.660   1.417 -0.7339 -1.1828 -0.3756
  970TIP3   OH224544   5.616   2.720   7.097  0.5561 -0.5095  0.1066
  970TIP3    H124545   5.706   2.748   7.113  0.1976  0.1483  1.0797
  970TIP3    H224546   5.564   2.799   7.111 -0.4586 -1.5256  2.6042
  971TIP3   OH224547   3.529   2.201   1.133  0.0351 -0.0020 -0.1235
  971TIP3    H124548   3.600   2.235   1.188 -0.3900  0.9863 -0.1730
  971TIP3    H224549   3.571   2.133   1.079  1.0667  0.9592 -0.5686
  972TIP3   OH224550   6.394   3.156   7.053 -0.0869 -0.0535 -0.2073
  972TIP3    H124551   6.395   3.071   7.008  1.6863 -0.3607  0.3595
  972TIP3    H224552   6.421   3.137   7.142  1.7664  1.2686 -0.4336
  973TIP3   OH224553   4.153   6.740   1.946  0.2275 -0.0288 -0.5450
  973TIP3    H124554   4.075   6.770   1.899 -0.6501 -2.7799 -1.0563
  973TIP3    H224555   4.130   6.744   2.038  1.7911  4.9578 -0.0880
  974TIP3   OH224556   1.561   2.333   8.331  0.3335  0.1004  0.0547
  974TIP3    H124557   1.494   2.328   8.263 -0.7536  1.5694  0.9644
  974TIP3    H224558   1.619   2.258   8.313 -3.1371 -3.1136  0.9667
  975TIP3   OH224559   3.791   0.455   0.666 -0.1230  0.3677  0.1046
  975TIP3    H124560   3.772   0.468   0.573 -0.0618 -1.2972 -0.1864
  975TIP3    H224561   3.887   0.451   0.670 -0.1194  0.6180  0.2699
  976TIP3   OH224562   3.709   5.117   7.027 -0.3812 -0.1583 -0.4628
  976TIP3    H124563   3.798   5.139   7.055 -0.3435 -0.5245 -0.2908
  976TIP3    H224564   3.657   5.125   7.107 -0.7194  1.1832 -0.7929
  977TIP3   OH224565   0.921   2.900   8.158 -0.2148  0.4202  0.0705
  977TIP3    H124566   0.835   2.907   8.116 -0.1500  1.0540  0.0333
  977TIP3    H224567   0.965   2.829   8.110  0.1857  1.6985 -1.5748
  978TIP3   OH224568   2.139   5.430   8.007  0.0195 -0.1304  0.1993
  978TIP3    H124569   2.151   5.345   8.050  0.4515 -0.5379 -0.7107
  978TIP3    H224570   2.058   5.421   7.957 -0.0305  0.0569  0.2449
  979TIP3   OH224571   2.484   3.122   8.515  0.3221  0.5410 -0.3379
  979TIP3    H124572   2.474   3.028   8.502  0.1674  0.6873 -1.2990
  979TIP3    H224573   2.435   3.140   8.595  0.6145 -0.2427  0.0266
  980TIP3   OH224574   0.134   1.388   8.351 -0.2998 -0.3371  0.6589
  980TIP3    H124575   0.085   1.322   8.302  0.0508 -0.2385  0.1556
  980TIP3    H224576   0.226   1.368   8.332 -0.1942  0.3545  0.4154
  981TIP3   OH224577   5.570   3.130   8.057  0.2669 -0.0188  0.5079
  981TIP3    H124578   5.486   3.133   8.103  0.0708 -1.4715  0.2817
  981TIP3    H224579   5.605   3.219   8.067 -1.2022  0.5714  0.7495
  982TIP3   OH224580   1.446   0.415   1.813 -0.4119  0.2862 -0.0834
  982TIP3    H124581   1.517   0.404   1.876 -0.9761  0.2168  0.5500
  982TIP3    H224582   1.401   0.331   1.813  2.1500 -1.3593 -3.8668
  983TIP3   OH224583   0.751   1.360   6.717  0.7484 -0.8683  0.2825
  983TIP3    H124584   0.723   1.403   6.798 -1.3815 -0.2438 -0.7204
  983TIP3    H224585   0.725   1.269   6.727 -1.0964 -0.4374 -0.3523
  984TIP3   OH224586   6.420   4.890   1.777 -0.3918 -0.2048  0.1093
  984TIP3    H124587   6.460   4.829   1.839 -1.1411  1.8929  2.8108
  984TIP3    H224588   6.342   4.844   1.746 -0.3017 -1.1052  1.1421
  985TIP3   OH224589   6.111   6.522   2.411 -0.0839  0.0704 -0.4070
  985TIP3    H124590   6.045   6.492   2.348 -0.9337  0.3388  0.3295
  985TIP3    H224591   6.098   6.617   2.416 -0.0296  0.0466  0.1840
  986TIP3   OH224592   2.175   6.206   1.965 -0.4346  0.0453  0.1170
  986TIP3    H124593   2.226   6.131   1.996  1.4217  1.2329  0.0696
  986TIP3    H224594   2.135   6.175   1.883  4.6443  0.5740 -2.9360
  987TIP3   OH224595   1.685   3.102   8.173  0.8541 -0.2061  0.5650
  987TIP3    H124596   1.692   3.172   8.238  0.9928  0.2231  0.0900
  987TIP3    H224597   1.625   3.039   8.213 -2.6630  2.0649 -0.6517
  988TIP3   OH224598   4.641   5.545   8.037 -0.4590  0.2362 -0.0157
  988TIP3    H124599   4.691   5.465   8.023 -1.1608 -0.3132  0.5723
  988TIP3    H224600   4.583   5.551   7.961  0.7859  1.1173 -0.9326
  989TIP3   OH224601   2.882   4.598   7.413 -0.6100 -0.3172  0.4361
  989TIP3    H124602   2.975   4.595   7.390 -1.0708  1.8491 -2.1920
  989TIP3    H224603   2.837   4.573   7.332 -2.3551 -1.1083  1.5941
  990TIP3   OH224604   5.915   6.187   0.498  0.3152 -0.8600  0.1314
  990TIP3    H124605   5.855   6.122   0.463 -0.6688  1.3543 -2.7255
  990TIP3    H224606   5.980   6.200   0.429  1.1643  0.3020  1.1077
  991TIP3   OH224607   3.132   3.383   0.582 -0.3812  0.2721 -0.2513
  991TIP3    H124608   3.195   3.455   0.588  0.3999 -0.4802  1.4317
  991TIP3    H224609   3.047   3.425   0.589  0.0703  1.0227  1.4393
  992TIP3   OH224610   3.936   1.934   7.909  0.3772 -0.3329  0.3365
  992TIP3    H124611   3.886   2.011   7.884 -1.2139 -0.5017  2.6686
  992TIP3    H224612   3.980   1.907   7.829 -1.3696  1.2509 -1.2628
  993TIP3   OH224613   5.356   5.270   0.922  0.2741 -0.3151 -0.6592
  993TIP3    H124614   5.411   5.328   0.871  0.0418 -1.0578 -1.7853
  993TIP3    H224615   5.415   5.199   0.949  0.2172 -0.3257 -0.5626
  994TIP3   OH224616   5.360   3.156   0.801  0.2339 -0.4270  0.4742
  994TIP3    H124617   5.306   3.223   0.759  1.6493  0.0234 -0.7130
  994TIP3    H224618   5.413   3.120   0.731  2.1396 -0.1827  1.7137
  995TIP3   OH224619   2.288   3.826   0.450 -0.3148 -0.3020  0.2629
  995TIP3    H124620   2.202   3.863   0.469  0.1225  1.2898 -0.6761
  995TIP3    H224621   2.345   3.902   0.439  1.5071 -1.3053  1.9952
  996TIP3   OH224622   0.602   4.554   7.802  0.2757 -0.0389  0.0498
  996TIP3    H124623   0.633   4.495   7.733  1.1545  1.6398 -1.0673
  996TIP3    H224624   0.676   4.562   7.863 -0.0096 -0.4470  0.4558
  997TIP3   OH224625   4.025   4.755   0.669 -0.2271  0.0793 -0.4864
  997TIP3    H124626   4.101   4.780   0.721 -1.0176  0.5912  0.4490
  997TIP3    H224627   4.061   4.703   0.597  0.8586 -1.0715  0.8239
  998TIP3   OH224628   5.993   6.372   8.474  0.4121 -1.1453  0.3206
  998TIP3    H124629   5.932   6.338   8.410 -1.2051 -1.0684  1.7465
  998TIP3    H224630   6.029   6.451   8.434 -2.5546  0.4204  0.4815
  999TIP3   OH224631   1.482   2.912   8.218 -0.1866 -0.2734 -0.3373
  999TIP3    H124632   1.404   2.951   8.178  1.7128  2.2392 -1.9002
  999TIP3    H224633   1.452   2.880   8.303 -3.2505 -1.0058 -1.5712
 1000TIP3   OH224634   5.887   5.920   1.940 -0.0290 -0.2010  0.4954
 1000TIP3    H124635   5.923   5.952   2.023 -1.2870  2.1637  0.2362
 1000TIP3    H224636   5.935   5.970   1.874 -1.6041  0.7254  0.0151
 1001TIP3   OH224637   1.607   3.488   7.178 -0.3129  0.1465  0.1134
 1001TIP3    H124638   1.698   3.514   7.161 -0.6817  0.1187 -2.2432
 1001TIP3    H224639   1.561   3.571   7.194  0.2237  0.1058  2.0469
 1002TIP3   OH224640   6.535   6.081   7.647 -0.9587 -0.3844 -0.2141
 1002TIP3    H124641   6.514   5.988   7.639  2.5061 -1.2507 -0.6878
 1002TIP3    H224642   6.558   6.108   7.558 -0.8857  0.6584  0.1119
 1003TIP3   OH224643   3.457   6.753   7.144  0.1609  0.1040 -0.0951
 1003TIP3    H124644   3.375   6.778   7.187  0.3260  2.5413 -1.0844
 1003TIP3    H224645   3.435   6.673   7.095 -1.2234 -0.0744  0.7505
 1004TIP3   OH224646   0.331   1.991   7.671  0.3125  0.0575 -0.1847
 1004TIP3    H124647   0.360   2.055   7.606  0.3559  1.0037  0.7380
 1004TIP3    H224648   0.401   1.926   7.674  1.1731  0.9764  0.2122
 1005TIP3   OH224649   3.426   2.468   7.974 -0.7956 -0.0837 -0.1028
 1005TIP3    H124650   3.407   2.375   7.966 -2.1200  0.0992  0.6660
 1005TIP3    H224651   3.384   2.509   7.899  0.0971 -0.1280 -0.6430
 1006TIP3   OH224652   1.848   0.951   2.423 -0.4680 -0.1318  0.5491
 1006TIP3    H124653   1.797   0.873   2.446  0.1224 -0.6468  0.1421
 1006TIP3    H224654   1.910   0.960   2.495  0.3157 -0.8055 -0.0181
 1007TIP3   OH224655   3.132   1.590   6.699  0.5315  0.2773 -0.8055
 1007TIP3    H124656   3.177   1.521   6.748 -0.4657 -0.8443 -1.4359
 1007TIP3    H224657   3.181   1.670   6.721  1.1001 -0.4438  0.7352
 1008TIP3   OH224658   5.370   5.843   7.025 -0.1479 -0.1315 -0.2771
 1008TIP3    H124659   5.303   5.902   6.991  0.5389  1.3524  0.8266
 1008TIP3    H224660   5.452   5.875   6.988 -0.0264 -2.2984 -2.1055
 1009TIP3   OH224661   2.848   3.445   0.887  0.2370 -0.4780  0.3321
 1009TIP3    H124662   2.877   3.504   0.817  0.5563 -0.8215  0.1712
 1009TIP3    H224663   2.820   3.504   0.957 -3.9582  0.0118 -1.4907
 1010TIP3   OH224664   2.532   6.173   2.154  0.0710  0.1048  0.2361
 1010TIP3    H124665   2.507   6.255   2.195 -0.6551 -0.4338  0.9048
 1010TIP3    H224666   2.579   6.125   2.222  1.2210  0.2906 -0.4027
 1011TIP3   OH224667   1.392   4.652   7.387 -0.1574  0.0639  0.7193
 1011TIP3    H124668   1.443   4.576   7.359 -0.6623 -0.6051  1.5486
 1011TIP3    H224669   1.303   4.633   7.357 -0.0173  1.0454 -0.3954
 1012TIP3   OH224670   2.103   1.908   2.088  0.5327 -0.2323 -0.0234
 1012TIP3    H124671   2.192   1.904   2.123  1.2610 -1.5925 -1.8690
 1012TIP3    H224672   2.096   1.995   2.049  1.3350 -0.3922 -0.5404
 1013TIP3   OH224673   3.966   1.756   2.686 -0.0432 -0.2529  0.4586
 1013TIP3    H124674   3.985   1.834   2.736 -0.7327  0.3834 -0.2305
 1013TIP3    H224675   3.952   1.788   2.596  0.2486 -1.2327  0.0513
 1014TIP3   OH224676   1.277   2.778   8.463 -0.1764  0.2928  0.0705
 1014TIP3    H124677   1.193   2.748   8.496  0.8899  1.1695  4.0077
 1014TIP3    H224678   1.319   2.698   8.430 -1.1062 -0.8607  1.5522
 1015TIP3   OH224679   6.739   6.332   0.807  0.0665  0.4487 -0.1329
 1015TIP3    H124680   6.790   6.370   0.736 -1.1385  2.2855 -0.0820
 1015TIP3    H224681   6.694   6.406   0.847  0.3792 -0.5916  2.3051
 1016TIP3   OH224682   0.047   2.189   7.564 -0.1696  0.1112  0.4008
 1016TIP3    H124683   0.012   2.102   7.547  0.0401 -0.0710  0.8935
 1016TIP3    H224684   0.027   2.239   7.485  0.5970 -0.6591 -0.3033
 1017TIP3   OH224685   1.277   4.465   0.291  0.2406 -0.1704  0.1641
 1017TIP3    H124686   1.360   4.419   0.292  0.1732 -0.5513 -2.9834
 1017TIP3    H224687   1.213   4.399   0.265 -1.3481 -0.1312  3.4466
 1018TIP3   OH224688   0.030   5.676   7.458  0.6991 -0.1226 -0.2310
 1018TIP3    H124689  -0.033   5.748   7.455  2.2104  1.2773  0.0553
 1018TIP3    H224690   0.038   5.655   7.551  0.4822 -0.4535 -0.2870
 1019TIP3   OH224691   4.232   4.277   0.253 -0.4030  0.1934  0.2668
 1019TIP3    H124692   4.238   4.261   0.159 -0.7876  1.2207  0.0561
 1019TIP3    H224693   4.152   4.231   0.280  0.2207 -0.9085  0.2851
 1020TIP3   OH224694   5.710   4.579   6.618 -0.3318  0.0973 -0.5845
 1020TIP3    H124695   5.797   4.573   6.657  0.2945  1.1153 -1.7527
 1020TIP3    H224696   5.693   4.673   6.613 -1.9933 -0.1025  0.6324
 1021TIP3   OH224697   3.547   1.209   1.156  0.8971  0.1991  0.0674
 1021TIP3    H124698   3.491   1.174   1.225 -1.9715  0.8391 -1.7345
 1021TIP3    H224699   3.552   1.303   1.175  2.4465 -0.0120  0.8642
 1022TIP3   OH224700   6.172   1.376   0.008 -0.7751 -0.3394 -0.2188
 1022TIP3    H124701   6.084   1.371  -0.030  0.0156  1.9077 -2.6151
 1022TIP3    H224702   6.213   1.450  -0.036  1.7010 -0.1004  2.2426
 1023TIP3   OH224703   1.026   3.878   8.417  0.2762  0.9040 -0.3538
 1023TIP3    H124704   0.940   3.874   8.375 -0.2009 -1.1601  0.6823
 1023TIP3    H224705   1.006   3.900   8.508  0.5629 -1.7499  0.4259
 1024TIP3   OH224706   1.075   6.740   7.683  0.3904  0.1315 -0.1173
 1024TIP3    H124707   1.084   6.719   7.776  2.7259 -1.7109 -0.6528
 1024TIP3    H224708   0.981   6.733   7.666 -0.2662  1.8191  2.3176
 1025TIP3   OH224709   1.962   4.109   0.779 -0.0114 -0.6977 -0.1325
 1025TIP3    H124710   2.008   4.117   0.863 -2.2533  1.1577  1.0366
 1025TIP3    H224711   1.943   4.199   0.754 -3.5112 -1.3141 -0.1602
 1026TIP3   OH224712   2.791   2.344   7.993 -0.6724 -0.0868 -0.0551
 1026TIP3    H124713   2.875   2.340   8.040 -0.2711  2.4570 -0.4351
 1026TIP3    H224714   2.765   2.252   7.984  2.3355 -1.0132 -0.3971
 1027TIP3   OH224715   3.190   1.543   2.163  0.1457 -0.2219  0.8884
 1027TIP3    H124716   3.221   1.626   2.127  0.0941 -0.5986 -0.0608
 1027TIP3    H224717   3.142   1.568   2.242 -0.5472  0.7360  0.1970
 1028TIP3   OH224718   1.684   2.725   1.091 -0.0077 -0.4775  0.5296
 1028TIP3    H124719   1.716   2.667   1.160  0.6568 -0.6599  0.0805
 1028TIP3    H224720   1.641   2.668   1.028  0.5348 -0.4832  0.1508
 1029TIP3   OH224721   1.070   6.057   1.967 -0.2360  0.3281 -0.4809
 1029TIP3    H124722   1.054   6.129   2.028 -0.3248  0.5737 -0.7973
 1029TIP3    H224723   1.072   6.097   1.881 -0.1375 -0.0266 -0.6467
 1030TIP3   OH224724   3.520   2.109   1.773 -0.1779  0.0877  0.8702
 1030TIP3    H124725   3.581   2.183   1.766 -0.6631  0.3633 -3.7558
 1030TIP3    H224726   3.570   2.034   1.742 -1.1081 -0.4471  0.6316
 1031TIP3   OH224727   5.597   4.966   0.745 -0.1448 -0.2639  0.2653
 1031TIP3    H124728   5.587   5.061   0.742 -0.0595 -0.2585  0.0659
 1031TIP3    H224729   5.628   4.944   0.657  0.2486 -0.4245  0.4419
 1032TIP3   OH224730   4.023   0.995   7.902  0.3546 -0.1754 -0.2987
 1032TIP3    H124731   4.095   1.013   7.842  0.8532  0.3436  0.4435
 1032TIP3    H224732   4.060   0.936   7.967  0.0142 -0.1663 -0.0945
 1033TIP3   OH224733   3.344   6.296   7.140  0.1525  0.6456 -0.1660
 1033TIP3    H124734   3.348   6.368   7.077  0.2576  0.0403 -0.8485
 1033TIP3    H224735   3.435   6.282   7.166  0.1757  0.4707 -0.3486
 1034TIP3   OH224736   4.126   2.404   7.455  0.1866 -0.5591 -0.0699
 1034TIP3    H124737   4.083   2.321   7.472  0.1513 -0.2738  1.3180
 1034TIP3    H224738   4.065   2.451   7.397  1.4018 -2.4932 -3.1461
 1035TIP3   OH224739   0.891   5.655   8.240 -0.2172 -0.6120 -0.1624
 1035TIP3    H124740   0.979   5.644   8.278 -0.0426 -0.3915 -0.4954
 1035TIP3    H224741   0.869   5.569   8.204 -0.0025 -0.5884 -0.3553
 1036TIP3   OH224742   4.854   6.329   0.767  0.5168 -0.3174  0.1354
 1036TIP3    H124743   4.885   6.273   0.695 -0.5264  0.7784 -1.2126
 1036TIP3    H224744   4.888   6.416   0.746 -0.6203  0.2178  0.4322
 1037TIP3   OH224745   0.402   6.175   7.443  0.1779  0.1904 -0.2121
 1037TIP3    H124746   0.363   6.098   7.484  1.4821  0.5938  1.9531
 1037TIP3    H224747   0.371   6.172   7.352 -1.1937 -1.9058  0.2449
 1038TIP3   OH224748   6.757   6.670   0.689 -0.1699 -0.0596  0.2123
 1038TIP3    H124749   6.763   6.762   0.664  0.7139 -0.0044  0.6078
 1038TIP3    H224750   6.817   6.661   0.763 -0.5548 -0.8674  0.4396
 1039TIP3   OH224751   1.175   2.784   1.438  0.1001 -0.2708 -0.2068
 1039TIP3    H124752   1.158   2.873   1.409 -0.8247  0.0622  1.2461
 1039TIP3    H224753   1.265   2.766   1.409 -0.2422  0.5259 -1.8930
 1040TIP3   OH224754   2.223   5.757   1.953 -0.2408  0.3989  0.5411
 1040TIP3    H124755   2.238   5.739   2.046 -0.5364 -0.5965  0.4117
 1040TIP3    H224756   2.230   5.671   1.911 -1.8052  0.5466 -0.1192
 1041TIP3   OH224757   3.270   3.602   7.794  0.1139  0.4629 -0.3803
 1041TIP3    H124758   3.262   3.653   7.714  0.6271  0.9598 -0.1207
 1041TIP3    H224759   3.199   3.632   7.849  1.2352  1.9372  0.3257
 1042TIP3   OH224760   2.105   6.901   0.209 -0.3905 -0.1593 -0.0979
 1042TIP3    H124761   2.096   6.995   0.194  0.7376  0.1760  1.0802
 1042TIP3    H224762   2.183   6.894   0.265 -0.3626 -1.8088 -0.3113
 1043TIP3   OH224763   4.531   3.794   7.027 -0.1626 -0.1084 -0.2439
 1043TIP3    H124764   4.536   3.715   7.079 -0.4015 -0.6302 -0.9980
 1043TIP3    H224765   4.599   3.851   7.063  0.5973 -0.9877 -0.2547
 1044TIP3   OH224766   4.811   1.390   3.157 -0.2042 -0.1442 -0.0179
 1044TIP3    H124767   4.777   1.307   3.192  0.5783 -0.0280  1.0809
 1044TIP3    H224768   4.906   1.383   3.166 -0.0029  0.1189 -1.6933
 1045TIP3   OH224769   0.047   3.944   7.362 -0.0963  0.0266 -0.0841
 1045TIP3    H124770   0.028   4.023   7.311  2.3779  0.4526 -0.4620
 1045TIP3    H224771   0.099   3.889   7.303  1.0489 -0.3994  1.2500
 1046TIP3   OH224772   2.156   0.827   6.514 -0.4535 -0.9098  0.1297
 1046TIP3    H124773   2.104   0.775   6.453  0.0403 -1.1650 -0.0743
 1046TIP3    H224774   2.246   0.799   6.499  0.0821  1.4017 -1.3927
 1047TIP3   OH224775   5.834   0.498   1.669  0.3729  0.0484  0.1356
 1047TIP3    H124776   5.821   0.577   1.616  2.7166 -0.8748 -2.0406
 1047TIP3    H224777   5.848   0.531   1.758  2.4209  2.2424 -0.8824
 1048TIP3   OH224778   0.084   3.809   8.368 -0.3116 -0.0983  0.1109
 1048TIP3    H124779   0.105   3.768   8.452 -0.3318 -1.4931 -0.5362
 1048TIP3    H224780   0.071   3.736   8.308 -0.7761  0.8617 -1.0046
 1049TIP3   OH224781   3.618   1.234   7.792  0.1717  0.1033 -0.1395
 1049TIP3    H124782   3.638   1.304   7.730  2.3678 -1.4743 -1.3576
 1049TIP3    H224783   3.616   1.154   7.738  1.2698 -1.2130  1.6758
 1050TIP3   OH224784   2.853   1.711   8.508 -0.2653 -0.1019 -0.6034
 1050TIP3    H124785   2.872   1.750   8.423 -1.0419 -0.2407 -0.8475
 1050TIP3    H224786   2.838   1.786   8.566  0.6853  0.0007 -0.4819
 1051TIP3   OH224787   2.998   5.022   2.269 -0.3317 -0.2224 -0.2768
 1051TIP3    H124788   3.083   5.061   2.289  0.0818 -1.3929  0.2975
 1051TIP3    H224789   2.965   5.075   2.196  0.3799  0.9392  0.2145
 1052TIP3   OH224790   1.325   1.239   7.525  0.5021 -0.0340 -0.4099
 1052TIP3    H124791   1.366   1.212   7.607 -1.5806 -0.6622  0.4939
 1052TIP3    H224792   1.257   1.302   7.552 -2.4271 -2.6230 -1.1710
 1053TIP3   OH224793   3.972   2.980   7.111 -0.4916  0.2400 -0.0352
 1053TIP3    H124794   3.928   3.065   7.117 -1.2265 -0.0750 -0.7737
 1053TIP3    H224795   4.059   3.001   7.076  0.6823  1.0700  3.0751
 1054TIP3   OH224796   1.636   2.355   0.302 -0.4574  0.1278 -0.2547
 1054TIP3    H124797   1.690   2.290   0.256 -0.0748  0.1192  0.1951
 1054TIP3    H224798   1.604   2.413   0.234  0.9503  0.7384 -0.4218
 1055TIP3   OH224799   4.636   4.718   8.264  0.3522 -0.3001 -0.5714
 1055TIP3    H124800   4.581   4.657   8.313  1.0827  0.0396  0.6967
 1055TIP3    H224801   4.652   4.790   8.325  2.1868 -0.3750 -0.9277
 1056TIP3   OH224802   2.951   0.718   0.465  0.0192  0.6528 -0.3798
 1056TIP3    H124803   2.857   0.718   0.486  0.1207  0.3120  0.0739
 1056TIP3    H224804   2.961   0.650   0.399 -0.0964  0.8847 -0.6402
 1057TIP3   OH224805   0.230   0.297   1.921 -0.1233 -0.5547  0.5305
 1057TIP3    H124806   0.230   0.363   1.991 -0.1516  0.9039 -0.7770
 1057TIP3    H224807   0.144   0.256   1.927 -1.7327  2.2685 -0.9944
 1058TIP3   OH224808   0.842   0.822   7.596 -0.6850 -0.2182  0.6889
 1058TIP3    H124809   0.937   0.827   7.586 -0.6590 -0.5440  0.7619
 1058TIP3    H224810   0.811   0.784   7.514 -0.9556  1.7989 -0.1841
 1059TIP3   OH224811   4.346   5.016   1.843 -0.7622 -0.7594 -0.0675
 1059TIP3    H124812   4.439   5.022   1.865 -0.7463  0.5131 -0.3804
 1059TIP3    H224813   4.345   4.971   1.758 -0.3293  0.0925 -0.5511
 1060TIP3   OH224814   4.317   2.752   1.598 -0.1475 -0.1011 -0.5640
 1060TIP3    H124815   4.249   2.725   1.537  1.4000 -1.2317 -1.8713
 1060TIP3    H224816   4.399   2.736   1.551  1.1062 -0.6989  1.6819
 1061TIP3   OH224817   0.170   6.841   1.989 -0.4201 -0.0511  0.1639
 1061TIP3    H124818   0.204   6.756   1.962 -1.9007 -1.3280  2.0039
 1061TIP3    H224819   0.245   6.900   1.983  0.7836 -1.5884 -0.6782
 1062TIP3   OH224820   5.664   1.261   0.077  0.1816 -0.2454  0.2917
 1062TIP3    H124821   5.655   1.278   0.171  2.1052  2.1308  0.1358
 1062TIP3    H224822   5.609   1.327   0.035  1.7088  0.7408 -0.2464
 1063TIP3   OH224823   3.232   5.233   7.339  0.0912  0.5258 -0.0777
 1063TIP3    H124824   3.143   5.228   7.305  0.1438  0.7535 -0.2452
 1063TIP3    H224825   3.265   5.143   7.331  0.0944  0.5701 -0.6050
 1064TIP3   OH224826   5.787   5.562   7.785  1.0537  0.0667 -0.1133
 1064TIP3    H124827   5.754   5.650   7.802  1.5921  0.0560  1.0954
 1064TIP3    H224828   5.811   5.562   7.693 -1.8391  0.2220 -0.9482
 1065TIP3   OH224829   0.083   2.453   2.558 -0.4471  0.3619 -0.3412
 1065TIP3    H124830   0.008   2.446   2.617  1.1116  0.3073  1.7587
 1065TIP3    H224831   0.054   2.410   2.478 -3.2886  1.9886 -0.3332
 1066TIP3   OH224832   1.170   5.927   0.657  0.1693 -0.3493  0.0353
 1066TIP3    H124833   1.184   5.960   0.569  0.9701  1.4135  0.7810
 1066TIP3    H224834   1.075   5.924   0.668  0.0784  0.5736 -0.4753
 1067TIP3   OH224835   3.566   0.445   7.915 -0.1669  0.8936  0.1665
 1067TIP3    H124836   3.541   0.481   8.000  0.2227  0.4417  0.4791
 1067TIP3    H224837   3.483   0.436   7.867 -0.6356 -0.5947  1.1915
 1068TIP3   OH224838   3.390   3.461   0.756 -0.2007  0.3345 -0.3389
 1068TIP3    H124839   3.363   3.501   0.674 -1.3305 -1.8391 -1.1062
 1068TIP3    H224840   3.480   3.432   0.740 -0.1419  0.6151 -0.5237
 1069TIP3   OH224841   6.098   4.305   1.822  0.0492  0.3687  0.2318
 1069TIP3    H124842   6.067   4.236   1.880 -1.4921  0.5049 -0.3940
 1069TIP3    H224843   6.194   4.300   1.828 -0.0541 -0.9892  1.1429
 1070TIP3   OH224844   3.756   0.751   2.092 -0.1391 -0.1835  0.1068
 1070TIP3    H124845   3.675   0.732   2.043 -1.6379 -2.5270  3.1557
 1070TIP3    H224846   3.818   0.685   2.063 -1.0342 -1.5907  1.2628
 1071TIP3   OH224847   3.180   2.211   7.432  0.5248  0.5132  0.5598
 1071TIP3    H124848   3.172   2.306   7.447  0.7963  0.5973  0.1829
 1071TIP3    H224849   3.255   2.185   7.485 -0.1617  0.3200  1.4674
 1072TIP3   OH224850   5.457   1.076   0.150 -0.3728  0.1897  0.3697
 1072TIP3    H124851   5.416   1.159   0.174  0.2801 -0.0551  2.5008
 1072TIP3    H224852   5.541   1.101   0.112 -1.9741  0.6511 -3.3430
 1073TIP3   OH224853   0.786   3.384   7.879 -0.1494 -0.3952  0.4426
 1073TIP3    H124854   0.861   3.435   7.850 -1.3306  0.6882 -0.8692
 1073TIP3    H224855   0.824   3.307   7.920  1.7097  1.7063  2.9517
 1074TIP3   OH224856   4.559   3.971   0.463 -0.1702  0.1312  0.1977
 1074TIP3    H124857   4.489   4.029   0.497  0.2481  0.5113  0.4246
 1074TIP3    H224858   4.559   3.987   0.369  1.6913  2.5157  0.5221
 1075TIP3   OH224859   3.103   2.263   7.958 -0.3471  0.3129  0.1040
 1075TIP3    H124860   3.088   2.318   8.035 -0.4527 -0.9805  1.0350
 1075TIP3    H224861   3.180   2.211   7.980 -0.4600 -0.1801 -0.6059
 1076TIP3   OH224862   5.500   6.221   0.003  0.4865  0.3655  0.2893
 1076TIP3    H124863   5.580   6.172  -0.017  0.4444  0.5298 -0.2961
 1076TIP3    H224864   5.510   6.303  -0.044 -1.3586 -0.7812 -2.3526
 1077TIP3   OH224865   6.208   6.413   7.531  0.3749 -0.1738 -0.4035
 1077TIP3    H124866   6.179   6.401   7.440  1.1662 -0.5075 -0.6245
 1077TIP3    H224867   6.187   6.330   7.574  2.1727 -0.9718 -0.9143
 1078TIP3   OH224868   3.318   5.809   2.231  0.4319 -0.2665 -0.1124
 1078TIP3    H124869   3.227   5.817   2.259  0.5612  0.1325  0.2014
 1078TIP3    H224870   3.347   5.899   2.219  0.6553 -0.4057 -0.6417
 1079TIP3   OH224871   2.990   6.191   1.480 -0.2547  0.5103  0.2329
 1079TIP3    H124872   2.914   6.219   1.531  0.2876  0.7921  0.8985
 1079TIP3    H224873   3.018   6.110   1.522 -1.2726 -0.6261 -1.1351
 1080TIP3   OH224874   2.628   2.934   8.303  0.3933  0.4200 -0.0450
 1080TIP3    H124875   2.553   2.989   8.278 -1.6414 -2.7407 -1.5391
 1080TIP3    H224876   2.702   2.971   8.254 -0.9824  1.5030 -1.4275
 1081TIP3   OH224877   6.268   2.907   8.290  0.1233  0.3413 -0.0161
 1081TIP3    H124878   6.321   2.858   8.354 -1.8619 -0.6144  0.9911
 1081TIP3    H224879   6.244   2.842   8.224 -1.3482  0.2309  0.5753
 1082TIP3   OH224880   0.627   1.285   6.394 -0.4916 -0.4807  0.3074
 1082TIP3    H124881   0.633   1.222   6.322 -0.3651 -0.2274  0.0941
 1082TIP3    H224882   0.635   1.232   6.473  0.0662 -0.6821  0.1205
 1083TIP3   OH224883   1.723   3.927   1.705  0.1886 -0.0894  0.7934
 1083TIP3    H124884   1.807   3.972   1.706  0.2636 -0.0690 -1.2859
 1083TIP3    H224885   1.724   3.872   1.784  0.8673  2.0785  2.3711
 1084TIP3   OH224886   5.948   1.692   7.533 -0.2107 -0.6375  0.4792
 1084TIP3    H124887   5.877   1.752   7.556 -0.0228 -0.3937  0.4302
 1084TIP3    H224888   6.014   1.747   7.491 -0.1072 -0.9077  0.2795
 1085TIP3   OH224889   3.995   6.561   7.889  0.1085  0.1656  0.3846
 1085TIP3    H124890   3.912   6.530   7.854 -0.3249  1.4325  0.2041
 1085TIP3    H224891   4.046   6.588   7.812  0.4969 -0.1547  0.5245
 1086TIP3   OH224892   0.011   0.213   0.134 -0.0215  0.7131  0.1240
 1086TIP3    H124893  -0.031   0.264   0.203  0.8064  1.1704  0.2978
 1086TIP3    H224894   0.104   0.235   0.140  0.2935 -0.4441 -0.1064
 1087TIP3   OH224895   5.805   2.558   1.636  0.0936  0.9699 -0.9796
 1087TIP3    H124896   5.815   2.465   1.656 -0.8525  1.2379  0.9271
 1087TIP3    H224897   5.822   2.603   1.719 -0.7952  2.4038 -1.5354
 1088TIP3   OH224898   6.176   6.267   7.071 -0.3927 -0.4262  0.3076
 1088TIP3    H124899   6.166   6.276   7.166 -1.0468  0.1197  0.1991
 1088TIP3    H224900   6.099   6.312   7.035 -0.7612 -1.6269 -0.4534
 1089TIP3   OH224901   6.787   3.376   7.880  0.6024 -0.1963  0.6527
 1089TIP3    H124902   6.856   3.425   7.925 -0.0906  0.4805  0.9944
 1089TIP3    H224903   6.805   3.389   7.787  1.0134 -0.1452  0.7368
 1090TIP3   OH224904   3.901   4.916   0.472 -0.0526  0.2916  0.2698
 1090TIP3    H124905   3.936   4.883   0.555 -1.3309 -3.2865 -0.4501
 1090TIP3    H224906   3.955   4.876   0.405  0.8986  3.0654 -0.7722
 1091TIP3   OH224907   6.851   2.566   0.484 -0.0709  0.7726 -0.2024
 1091TIP3    H124908   6.934   2.594   0.523 -0.2719  1.2412 -0.1160
 1091TIP3    H224909   6.784   2.608   0.537 -0.3772  0.1434 -0.0757
 1092TIP3   OH224910   1.702   1.432   8.102 -0.6382 -0.1398 -1.1460
 1092TIP3    H124911   1.795   1.439   8.080  0.2716 -0.7670  2.0224
 1092TIP3    H224912   1.682   1.338   8.096 -0.3535 -0.3358  0.4871
 1093TIP3   OH224913   3.428   5.579   2.265 -0.2841 -0.2937  0.0595
 1093TIP3    H124914   3.398   5.571   2.355 -1.6437  0.5903 -0.2858
 1093TIP3    H224915   3.388   5.660   2.233  0.6672 -0.2717 -1.1511
 1094TIP3   OH224916   5.447   2.925   0.035  0.0749  0.3535 -0.2431
 1094TIP3    H124917   5.477   2.987  -0.032  2.0927  0.1290  0.3678
 1094TIP3    H224918   5.484   2.959   0.117 -1.3654 -0.0147  0.5966
 1095TIP3   OH224919   2.732   6.398   0.008  0.1470  0.8143  0.2534
 1095TIP3    H124920   2.709   6.340  -0.064 -2.4292  1.5511  0.3764
 1095TIP3    H224921   2.779   6.470  -0.033  1.5505 -0.3174 -0.1880
 1096TIP3   OH224922   4.491   3.165   7.969  0.1227  0.1095 -0.4667
 1096TIP3    H124923   4.542   3.242   7.995  2.9970 -1.5778 -0.7251
 1096TIP3    H224924   4.462   3.126   8.051  1.2564 -0.1682 -0.1875
 1097TIP3   OH224925   2.408   2.210   0.579 -0.0270  0.3955 -0.1441
 1097TIP3    H124926   2.337   2.176   0.632 -1.4664  2.4697 -0.6223
 1097TIP3    H224927   2.438   2.135   0.528 -2.1738 -0.4565 -0.2588
 1098TIP3   OH224928   2.609   0.296   7.150 -0.1051 -0.4576 -0.4493
 1098TIP3    H124929   2.653   0.381   7.139 -0.3471 -0.1861  0.6117
 1098TIP3    H224930   2.672   0.242   7.197 -0.2199 -0.6439 -0.5095
 1099TIP3   OH224931   3.081   0.713   6.993 -0.1335 -0.3652 -0.0720
 1099TIP3    H124932   3.022   0.769   6.942  0.9082  0.8448 -0.0205
 1099TIP3    H224933   3.133   0.775   7.045 -1.8061 -1.5837  3.2706
 1100TIP3   OH224934   1.534   3.977   2.409 -0.4180  0.6497 -0.5039
 1100TIP3    H124935   1.578   4.060   2.428  1.6133 -0.5572  0.3821
 1100TIP3    H224936   1.595   3.929   2.354 -2.0122  0.1086 -1.8694
 1101TIP3   OH224937   6.653   2.438   8.001  0.0224  0.1648  0.0099
 1101TIP3    H124938   6.730   2.429   8.057  1.8159 -1.4970 -2.4833
 1101TIP3    H224939   6.622   2.349   7.988  1.2796  0.0880 -3.5202
 1102TIP3   OH224940   4.773   3.371   1.097 -0.4328 -0.0556  0.2872
 1102TIP3    H124941   4.853   3.423   1.091 -0.2843 -0.3981 -0.9194
 1102TIP3    H224942   4.740   3.366   1.007 -2.7194  1.4457  0.9476
 1103TIP3   OH224943   5.144   6.907   8.457  0.0071 -0.6397 -0.6297
 1103TIP3    H124944   5.149   6.814   8.435  0.5007 -0.5663 -0.8420
 1103TIP3    H224945   5.113   6.949   8.377 -4.4383 -1.0663  0.6182
 1104TIP3   OH224946   4.494   3.950   1.447  0.0475 -0.4836  0.0628
 1104TIP3    H124947   4.509   3.856   1.440  0.0314 -0.4926  0.1559
 1104TIP3    H224948   4.473   3.965   1.539  0.0983 -0.3819  0.0588
 1105TIP3   OH224949   1.654   6.739   2.075  0.3692 -0.4987 -0.2407
 1105TIP3    H124950   1.560   6.744   2.092  0.4286 -0.9884  0.2609
 1105TIP3    H224951   1.669   6.800   2.003 -0.0252  1.0074  0.9139
 1106TIP3   OH224952   1.815   2.887   0.072  0.2180  0.4139 -0.8198
 1106TIP3    H124953   1.853   2.833   0.141 -0.5016  1.8191  0.7539
 1106TIP3    H224954   1.882   2.952   0.052  0.7218 -0.4524 -2.0312
 1107TIP3   OH224955   5.053   0.366   2.824  0.0253  0.1752 -0.7117
 1107TIP3    H124956   4.965   0.337   2.799 -0.4455  0.1792  0.8287
 1107TIP3    H224957   5.069   0.444   2.770 -0.3285 -0.5980 -1.9876
 1108TIP3   OH224958   4.599   5.335   1.126  0.2006 -0.2468  0.0998
 1108TIP3    H124959   4.549   5.284   1.189  1.2398 -1.2503  0.1434
 1108TIP3    H224960   4.535   5.394   1.086 -0.6497 -0.2363  1.4212
 1109TIP3   OH224961   5.745   3.944   0.248 -0.2003  0.2867 -0.1440
 1109TIP3    H124962   5.693   4.022   0.230  0.1495  0.0736 -2.2955
 1109TIP3    H224963   5.833   3.966   0.219 -0.3024 -1.2065 -1.7308
 1110TIP3   OH224964   4.253   3.359   7.788 -0.1377 -0.3638 -1.0393
 1110TIP3    H124965   4.199   3.299   7.839  0.6036  0.9989  1.5298
 1110TIP3    H224966   4.318   3.392   7.850 -1.3603  4.1610 -1.7530
 1111TIP3   OH224967   1.159   4.679   0.499  0.3354  0.3292  0.0004
 1111TIP3    H124968   1.190   4.620   0.430 -1.8781 -0.6243 -0.2691
 1111TIP3    H224969   1.203   4.647   0.579 -0.3942 -1.3836 -0.2340
 1112TIP3   OH224970   1.519   3.822   8.260  0.2813 -0.1702 -0.5178
 1112TIP3    H124971   1.545   3.906   8.222 -0.2764  0.2697  0.0599
 1112TIP3    H224972   1.425   3.830   8.274  0.2555 -0.8309 -0.2963
 1113TIP3   OH224973   6.100   3.527   7.476 -0.6529  0.1470 -0.4096
 1113TIP3    H124974   6.045   3.599   7.446  0.0247  0.3682 -1.1396
 1113TIP3    H224975   6.179   3.569   7.510 -0.4735 -0.2233 -0.3585
 1114TIP3   OH224976   5.325   3.898   2.561  0.0784 -0.0785 -0.6188
 1114TIP3    H124977   5.377   3.852   2.626  0.6843 -0.1778 -1.1585
 1114TIP3    H224978   5.316   3.836   2.489  0.9891  0.6529 -1.3976
 1115TIP3   OH224979   3.162   4.407   2.608  0.1294  0.5182  0.1586
 1115TIP3    H124980   3.166   4.454   2.691  3.7114  0.0672  0.3981
 1115TIP3    H224981   3.177   4.474   2.542 -0.8848  0.5760 -0.0406
 1116TIP3   OH224982   0.566   1.777   2.801 -0.4223 -0.6784 -0.8549
 1116TIP3    H124983   0.637   1.831   2.765  0.7564 -0.9241  0.9846
 1116TIP3    H224984   0.504   1.840   2.837 -1.1133 -0.4656 -2.3510
 1117TIP3   OH224985   2.711   3.812   1.628 -0.5562 -0.2298  0.1089
 1117TIP3    H124986   2.644   3.757   1.587 -1.1838  0.7226 -0.1578
 1117TIP3    H224987   2.689   3.812   1.721  0.1919 -1.4418  0.3146
 1118TIP3   OH224988   4.944   3.240   1.414  0.2889  0.0866  0.2888
 1118TIP3    H124989   4.879   3.310   1.424  0.4606  0.2967 -0.0386
 1118TIP3    H224990   5.028   3.283   1.428  0.4573  0.1436 -0.8236
 1119TIP3   OH224991   5.144   5.953   0.941  0.4814  0.3126  0.7103
 1119TIP3    H124992   5.057   5.920   0.920  0.3550  0.1458  1.4704
 1119TIP3    H224993   5.155   6.030   0.884  0.2548 -0.2486 -0.1182
 1120TIP3   OH224994   3.128   1.319   1.525 -0.2648 -0.3836  0.2173
 1120TIP3    H124995   3.052   1.267   1.499  0.1553 -0.7176 -0.3757
 1120TIP3    H224996   3.156   1.361   1.444 -1.1456  1.5264  0.8355
 1121TIP3   OH224997   1.374   5.008   1.993 -0.2647  0.3713  0.0530
 1121TIP3    H124998   1.426   5.087   2.002  2.0354 -1.0229 -0.1364
 1121TIP3    H224999   1.350   4.984   2.082 -0.0314  0.6847  0.1982
 1122TIP3   OH225000   5.205   0.796   2.543  0.4885 -0.4175  0.7670
 1122TIP3    H125001   5.229   0.804   2.451  0.7459 -0.7642  0.8003
 1122TIP3    H225002   5.248   0.870   2.586  0.0966 -0.0649  0.5614
 1123TIP3   OH225003   2.735   0.969   0.942 -0.3272  0.4121 -0.1913
 1123TIP3    H125004   2.737   0.931   1.030 -0.4004 -0.5818 -0.6115
 1123TIP3    H225005   2.826   0.967   0.913 -0.7180 -2.6519 -1.5338
 1124TIP3   OH225006   0.646   1.469   7.337 -0.6490 -1.0081  0.1716
 1124TIP3    H125007   0.611   1.380   7.349  1.5477 -1.8252  0.9484
 1124TIP3    H225008   0.728   1.469   7.385  0.7917  0.5839 -2.0830
 1125TIP3   OH225009   5.703   3.214   2.362 -0.6389 -0.2784 -0.1021
 1125TIP3    H125010   5.616   3.176   2.350 -0.6966  0.5361 -2.9938
 1125TIP3    H225011   5.752   3.147   2.409 -2.7649 -0.7626  1.6086
 1126TIP3   OH225012   2.816   3.831   1.907 -0.4401 -0.2250  0.2412
 1126TIP3    H125013   2.725   3.851   1.929  0.1744  0.2426  2.7051
 1126TIP3    H225014   2.823   3.736   1.918 -0.6133 -0.2460  0.1639
 1127TIP3   OH225015   4.285   1.962   7.922 -0.2570 -0.1897  0.0715
 1127TIP3    H125016   4.372   1.926   7.939 -0.4087 -0.3050  0.6319
 1127TIP3    H225017   4.236   1.945   8.003 -0.1906  1.7537  0.5814
 1128TIP3   OH225018   3.017   0.549   1.720 -0.1728  0.0735 -0.5825
 1128TIP3    H125019   3.003   0.497   1.800 -0.7876  1.0826 -0.0167
 1128TIP3    H225020   3.006   0.486   1.649 -0.3237 -0.7009  0.1081
 1129TIP3   OH225021   2.626   0.557   7.031 -0.5490 -0.2112 -0.0090
 1129TIP3    H125022   2.659   0.595   6.949 -0.8371  1.0844  0.4625
 1129TIP3    H225023   2.684   0.591   7.099  0.4171 -2.1940  0.2428
 1130TIP3   OH225024   4.830   6.752   7.416  0.5116  0.1732 -0.9103
 1130TIP3    H125025   4.915   6.764   7.459 -1.2385 -1.1116  3.4217
 1130TIP3    H225026   4.835   6.665   7.377  0.9321 -0.2445  0.0520
 1131TIP3   OH225027   0.372   1.270   8.191 -0.1507  0.1772 -0.1152
 1131TIP3    H125028   0.312   1.203   8.158 -0.0255 -0.5498  1.0865
 1131TIP3    H225029   0.434   1.283   8.118 -1.3903  0.5215 -1.1445
 1132TIP3   OH225030   3.772   4.566   2.497 -0.5088 -0.0532 -0.3092
 1132TIP3    H125031   3.815   4.631   2.441  0.0262 -0.7783 -0.7621
 1132TIP3    H225032   3.839   4.498   2.511 -0.2910  0.5339  1.9877
 1133TIP3   OH225033   1.138   1.067   2.144 -0.4228 -0.4754 -0.8435
 1133TIP3    H125034   1.139   0.989   2.199 -0.7862  0.2357  0.2093
 1133TIP3    H225035   1.175   1.039   2.060 -0.7135 -1.8067 -0.5402
 1134TIP3   OH225036   5.826   3.039   0.140  0.4576 -0.1934  0.5996
 1134TIP3    H125037   5.830   2.981   0.216 -0.3790 -0.3649  0.5214
 1134TIP3    H225038   5.762   3.106   0.164  2.6572  1.7699  1.4032
 1135TIP3   OH225039   6.807   3.516   2.654 -0.4710  0.2639 -0.0584
 1135TIP3    H125040   6.805   3.480   2.565 -0.4467  0.6370 -0.2135
 1135TIP3    H225041   6.768   3.448   2.709 -0.7708  0.1583 -0.3994
 1136TIP3   OH225042   1.994   5.094   2.037 -0.1982  0.4018 -0.4400
 1136TIP3    H125043   2.015   5.039   2.112  1.3700  1.6133  0.0761
 1136TIP3    H225044   1.932   5.042   1.985 -3.0987  0.3749  2.7199
 1137TIP3   OH225045   6.665   2.104   0.998  0.3427  0.3802  0.5499
 1137TIP3    H125046   6.700   2.167   1.062  3.0134 -0.3654 -0.0497
 1137TIP3    H225047   6.610   2.156   0.940  0.1935  1.6012  1.7455
 1138TIP3   OH225048   2.809   5.800   2.179  0.5367  0.8053  0.0413
 1138TIP3    H125049   2.872   5.738   2.143 -0.8124  0.3269 -1.6177
 1138TIP3    H225050   2.860   5.854   2.239  2.5151  0.4351 -1.2234
 1139TIP3   OH225051   4.569   5.842   1.196  0.6549 -0.2985 -0.3037
 1139TIP3    H125052   4.517   5.804   1.125 -2.2286  0.6128  1.1664
 1139TIP3    H225053   4.597   5.927   1.163  0.9788 -0.6675 -1.0062
 1140TIP3   OH225054   0.614   6.591   1.270  0.1874 -0.1092  0.5693
 1140TIP3    H125055   0.584   6.508   1.307 -0.5380 -0.5052 -0.8212
 1140TIP3    H225056   0.623   6.573   1.176  0.4217  1.2705  0.3106
 1141TIP3   OH225057   4.900   4.625   8.218 -0.5723 -0.1775  0.6348
 1141TIP3    H125058   4.887   4.647   8.125 -2.5690 -0.9878  0.6556
 1141TIP3    H225059   4.831   4.674   8.263 -0.6940 -1.1079  1.4721
 1142TIP3   OH225060   3.175   4.633   7.345  0.2325  0.5146 -0.0903
 1142TIP3    H125061   3.258   4.665   7.382 -0.4461  1.1739  0.9001
 1142TIP3    H225062   3.140   4.708   7.298 -0.2897  0.5562  0.3584
 1143TIP3   OH225063   5.094   2.320   1.803 -1.4119 -0.4743  0.4888
 1143TIP3    H125064   5.166   2.367   1.762 -1.1103 -2.2509 -1.1415
 1143TIP3    H225065   5.108   2.229   1.779 -2.1365 -1.4130  3.2642
 1144TIP3   OH225066   0.153   6.439   1.921 -0.0078 -0.5695 -0.0302
 1144TIP3    H125067   0.148   6.382   1.998  1.3765 -1.5997 -0.6567
 1144TIP3    H225068   0.149   6.379   1.846  0.4336  0.2550 -0.7366
 1145TIP3   OH225069   5.951   3.589   6.945 -0.0744 -0.4660 -0.3164
 1145TIP3    H125070   5.879   3.532   6.918 -0.6620  0.3243 -0.4298
 1145TIP3    H225071   5.910   3.662   6.991  0.8662 -1.5068  2.3672
 1146TIP3   OH225072   4.234   5.400   2.154 -0.1329  0.2742  0.0032
 1146TIP3    H125073   4.287   5.470   2.193  0.8274 -0.7667  0.6323
 1146TIP3    H225074   4.299   5.338   2.119 -0.9712  0.0824 -1.2580
 1147TIP3   OH225075   6.510   1.272   7.405  0.3245  0.4706 -0.5476
 1147TIP3    H125076   6.440   1.211   7.430  1.2065  0.4423  2.1727
 1147TIP3    H225077   6.560   1.225   7.339 -0.5843 -0.6340 -0.4897
 1148TIP3   OH225078   1.565   6.063   8.468 -0.2076  0.3844  0.0426
 1148TIP3    H125079   1.598   6.142   8.509  2.1965 -0.8739  0.7323
 1148TIP3    H225080   1.577   6.078   8.374  0.3633  0.8118  0.1754
 1149TIP3   OH225081   6.449   1.566   2.249 -0.0892 -0.4515  0.2118
 1149TIP3    H125082   6.433   1.536   2.339  0.3593  1.9923  1.2104
 1149TIP3    H225083   6.543   1.554   2.236 -0.1584 -0.8283  0.0599
 1150TIP3   OH225084   6.148   4.527   0.151  0.2651 -0.1766 -0.0838
 1150TIP3    H125085   6.119   4.436   0.161  2.1602 -1.0728 -2.0006
 1150TIP3    H225086   6.230   4.531   0.201  1.3152 -0.1805 -1.7424
 1151TIP3   OH225087   1.339   6.199   7.598 -0.2577 -0.0492 -0.7026
 1151TIP3    H125088   1.344   6.107   7.623  1.0555  0.3405  0.6606
 1151TIP3    H225089   1.417   6.214   7.544 -0.4111  0.2646 -0.8372
 1152TIP3   OH225090   5.450   0.396   7.970  0.0234  0.6420  0.1469
 1152TIP3    H125091   5.532   0.441   7.948  0.5169 -1.1348 -2.0227
 1152TIP3    H225092   5.476   0.305   7.985 -1.2027  0.6084  2.4752
 1153TIP3   OH225093   0.217   3.835   2.461 -0.7404 -0.0341  0.0019
 1153TIP3    H125094   0.250   3.925   2.469 -2.5652  1.0332 -2.8882
 1153TIP3    H225095   0.134   3.836   2.509 -1.1994  0.1221 -0.7775
 1154TIP3   OH225096   0.447   0.875   8.439 -0.4105 -0.1513  0.9946
 1154TIP3    H125097   0.496   0.860   8.358  0.5434  0.4073  1.4419
 1154TIP3    H225098   0.357   0.851   8.418 -0.6623  2.0515 -0.9089
 1155TIP3   OH225099   2.047   5.918   7.030  0.0995  0.0763  0.3546
 1155TIP3    H125100   1.989   5.887   6.960 -1.1702 -0.6679  1.6583
 1155TIP3    H225101   2.127   5.867   7.020  1.6446  2.8082 -2.9752
 1156TIP3   OH225102   6.166   6.557   0.336 -0.1431 -0.3122  0.1407
 1156TIP3    H125103   6.143   6.634   0.283 -0.5122 -0.1567  0.5239
 1156TIP3    H225104   6.136   6.482   0.284  2.2132 -0.3685 -1.3069
 1157TIP3   OH225105   1.543   6.769   3.028  0.1553 -0.1147 -0.3294
 1157TIP3    H125106   1.625   6.721   3.028  1.4598  1.9480  1.4430
 1157TIP3    H225107   1.540   6.810   2.941  2.5786  2.0951  0.4736
 1158TIP3   OH225108   3.176   2.444   1.183 -0.4566 -0.1148  0.1276
 1158TIP3    H125109   3.264   2.479   1.171 -0.4561  0.7348  2.1837
 1158TIP3    H225110   3.149   2.415   1.096  1.5101  0.4001 -0.6947
 1159TIP3   OH225111   0.371   1.128   2.163  0.7822  0.2516  0.2028
 1159TIP3    H125112   0.451   1.168   2.198 -0.1288  2.3452  0.0690
 1159TIP3    H225113   0.331   1.198   2.109 -1.4634 -0.4854  0.8010
 1160TIP3   OH225114   5.202   0.816   2.058  0.1142 -0.1377 -0.6865
 1160TIP3    H125115   5.118   0.775   2.079 -0.3459  1.2738  0.3488
 1160TIP3    H225116   5.234   0.765   1.983 -2.1380 -0.0976 -1.7818
 1161TIP3   OH225117   0.090   0.316   2.571 -0.7699  0.2526 -0.5728
 1161TIP3    H125118   0.141   0.360   2.503  2.5435 -0.4183  1.2574
 1161TIP3    H225119   0.044   0.387   2.616  1.3238  1.4425 -0.1756
 1162TIP3   OH225120   3.478   2.047   0.886  0.0052  0.1348 -0.2578
 1162TIP3    H125121   3.389   2.065   0.855 -0.9335 -2.9915  0.2861
 1162TIP3    H225122   3.535   2.074   0.813 -1.3535  1.9543 -0.7120
 1163TIP3   OH225123   3.133   5.979   7.960  0.2210  0.4736  0.1347
 1163TIP3    H125124   3.139   5.930   7.877  1.8695 -0.7399  0.9145
 1163TIP3    H225125   3.209   6.036   7.960  0.3816  0.2734  0.9246
 1164TIP3   OH225126   5.486   5.139   2.747  0.6661  0.4717  0.9109
 1164TIP3    H125127   5.544   5.069   2.716  2.6082  2.4416 -0.1445
 1164TIP3    H225128   5.464   5.188   2.668 -1.4661  0.5385  1.4850
 1165TIP3   OH225129   4.401   1.073   0.596 -0.0612  0.1868  0.2934
 1165TIP3    H125130   4.308   1.072   0.619  0.0706  1.1288  0.9350
 1165TIP3    H225131   4.440   1.007   0.653 -0.3634 -0.3516 -0.1172
 1166TIP3   OH225132   0.557   2.815   6.950  0.5827 -0.3579 -0.2020
 1166TIP3    H125133   0.514   2.893   6.915  3.0751  0.3561 -1.9761
 1166TIP3    H225134   0.543   2.820   7.045  1.3416  2.7310 -0.1627
 1167TIP3   OH225135   6.726   5.360   8.443 -0.2185 -0.0083  0.3400
 1167TIP3    H125136   6.776   5.427   8.396 -1.7860  1.6796  0.9687
 1167TIP3    H225137   6.714   5.396   8.530  0.0648 -1.7654  1.1492
 1168TIP3   OH225138   0.758   6.583   7.645 -0.7028 -0.1849  0.1441
 1168TIP3    H125139   0.676   6.623   7.674 -0.9124 -0.6167  0.1482
 1168TIP3    H225140   0.731   6.511   7.589 -0.3350  1.9913 -3.1067
 1169TIP3   OH225141   0.398   3.389   8.362  0.5377 -0.0334  0.1583
 1169TIP3    H125142   0.426   3.466   8.312  0.7098  0.5908  1.1714
 1169TIP3    H225143   0.396   3.318   8.298  0.0176  0.8827 -0.8892
 1170TIP3   OH225144   4.964   3.069   8.071 -0.0547  0.0997  0.0740
 1170TIP3    H125145   5.013   3.125   8.011 -0.4067  1.1047  0.6904
 1170TIP3    H225146   4.888   3.041   8.019 -1.0280  1.9827  0.3697
 1171TIP3   OH225147   4.020   0.831   6.609 -0.1397 -0.0816 -0.0891
 1171TIP3    H125148   4.042   0.923   6.592 -1.4323  0.0117 -1.4180
 1171TIP3    H225149   4.105   0.788   6.616  0.4889  1.1425  0.1239
 1172TIP3   OH225150   4.973   0.918   8.480 -0.6687  0.2824 -0.6212
 1172TIP3    H125151   4.986   0.828   8.510  0.8359  0.3550 -0.9466
 1172TIP3    H225152   5.062   0.954   8.473 -1.0419  0.9355 -3.0609
 1173TIP3   OH225153   2.447   3.585   1.039 -0.3293 -0.1465  0.2100
 1173TIP3    H125154   2.436   3.493   1.015  0.8425 -0.0391 -0.8613
 1173TIP3    H225155   2.476   3.627   0.958  0.0550  0.9869  0.9185
 1174TIP3   OH225156   1.749   1.192   0.506  0.3467 -0.6964 -0.1508
 1174TIP3    H125157   1.795   1.211   0.425  0.3557  0.7454  0.1623
 1174TIP3    H225158   1.690   1.267   0.518 -0.5775 -1.5074  0.5146
 1175TIP3   OH225159   2.936   0.060   1.102  0.0079 -0.2696 -0.1587
 1175TIP3    H125160   2.988   0.109   1.166  0.6995 -0.5184 -0.5224
 1175TIP3    H225161   2.979  -0.025   1.097  1.0701  0.3442 -2.3145
 1176TIP3   OH225162   4.628   4.653   1.561  0.5135  0.5899 -0.5102
 1176TIP3    H125163   4.669   4.721   1.615 -1.1673  0.6486  0.8044
 1176TIP3    H225164   4.669   4.661   1.476  3.9588 -0.0685  0.9372
 1177TIP3   OH225165   6.033   4.331   6.991 -0.4831  0.2619  0.4854
 1177TIP3    H125166   6.127   4.330   7.010 -0.4161 -0.1819  0.1467
 1177TIP3    H225167   5.996   4.390   7.057  0.3366  2.3436 -0.8008
 1178TIP3   OH225168   1.222   4.937   7.553 -0.3673 -0.5633  0.0354
 1178TIP3    H125169   1.185   4.944   7.465  0.6369  2.2601 -0.2671
 1178TIP3    H225170   1.146   4.943   7.611 -0.8374  0.2296 -0.6303
 1179TIP3   OH225171   0.958   3.978   1.859  0.5452  0.0986 -0.0617
 1179TIP3    H125172   0.869   3.991   1.892  0.2646  1.9196 -1.3601
 1179TIP3    H225173   1.014   3.988   1.937 -0.3764 -2.5317  1.0562
 1180TIP3   OH225174   1.341   5.574   1.591  0.6012  0.4297 -0.6099
 1180TIP3    H125175   1.431   5.580   1.623 -0.1381  0.4387  1.6765
 1180TIP3    H225176   1.288   5.607   1.664 -1.2064  1.4151 -2.2839
 1181TIP3   OH225177   2.007   6.493   8.387 -0.0433  0.3110  0.1302
 1181TIP3    H125178   1.929   6.530   8.346 -0.7454 -0.8098  0.4163
 1181TIP3    H225179   1.987   6.400   8.397  2.0411 -0.4068 -1.4990
 1182TIP3   OH225180   3.680   0.633   8.292  0.3724 -0.8356  0.3737
 1182TIP3    H125181   3.610   0.622   8.357 -1.7731  1.3853 -1.3607
 1182TIP3    H225182   3.665   0.563   8.228  0.7081 -1.2625  0.7492
 1183TIP3   OH225183   6.383   0.278   1.836  0.4004  0.1654  0.0648
 1183TIP3    H125184   6.403   0.246   1.924 -1.1876 -0.6991  0.1621
 1183TIP3    H225185   6.463   0.320   1.806  1.9475 -2.1197  0.7619
 1184TIP3   OH225186   6.208   6.406   2.067 -0.0545  0.3567 -0.2223
 1184TIP3    H125187   6.289   6.388   2.115  1.2724  0.9646 -2.1093
 1184TIP3    H225188   6.156   6.326   2.077  0.7029 -0.0032  1.1166
 1185TIP3   OH225189   2.242   5.646   8.464 -0.2432 -0.0816  0.0893
 1185TIP3    H125190   2.275   5.681   8.381  0.9496 -1.4691 -0.0605
 1185TIP3    H225191   2.286   5.698   8.531 -0.9766  0.8389 -0.1132
 1186TIP3   OH225192   5.593   3.726   7.184 -0.7577 -0.1104  0.3710
 1186TIP3    H125193   5.662   3.733   7.118 -0.6482  1.6196  0.6227
 1186TIP3    H225194   5.512   3.717   7.135 -0.6015  0.4046  0.0187
 1187TIP3   OH225195   5.872   0.729   6.512 -0.4626  0.3673  0.2073
 1187TIP3    H125196   5.802   0.684   6.560 -1.5308  0.8447 -0.8424
 1187TIP3    H225197   5.933   0.659   6.489 -0.9976 -0.1991  0.4502
 1188TIP3   OH225198   2.783   1.915   1.246  0.8415  0.3026  0.3704
 1188TIP3    H125199   2.849   1.934   1.312 -0.0722 -0.0257  1.3974
 1188TIP3    H225200   2.758   2.001   1.211 -0.0844  0.6699  1.8613
 1189TIP3   OH225201   0.102   1.887   3.271  0.1933 -0.1028 -0.3032
 1189TIP3    H125202   0.105   1.975   3.308 -0.3123 -0.3654  0.3824
 1189TIP3    H225203   0.149   1.833   3.335  0.2350 -0.3831 -0.5699
 1190TIP3   OH225204   0.749   1.736   7.045 -0.0471 -0.0945 -0.0807
 1190TIP3    H125205   0.789   1.819   7.073 -0.0316 -0.3451  0.6595
 1190TIP3    H225206   0.661   1.760   7.017  0.5441  0.4416 -1.5771
 1191TIP3   OH225207   5.093   4.349   7.421 -0.3003 -0.1169 -0.5957
 1191TIP3    H125208   5.172   4.373   7.470  0.0801  0.8418 -1.6215
 1191TIP3    H225209   5.122   4.279   7.363 -0.1041  0.4432 -1.1898
 1192TIP3   OH225210   4.680   1.501   6.657 -0.2732 -0.1926  0.5346
 1192TIP3    H125211   4.677   1.481   6.563 -0.7418 -1.0551  0.7213
 1192TIP3    H225212   4.593   1.477   6.689  0.2810 -1.1100  1.4160
 1193TIP3   OH225213   2.224   0.436   1.170 -0.0557  0.3409 -0.0883
 1193TIP3    H125214   2.303   0.425   1.118 -0.1863 -1.8601  0.0833
 1193TIP3    H225215   2.238   0.381   1.247 -1.7067 -0.0230 -0.0082
 1194TIP3   OH225216   0.160   4.246   0.150  0.7784 -0.0101 -0.5986
 1194TIP3    H125217   0.223   4.200   0.206  1.1560  0.0801 -0.9399
 1194TIP3    H225218   0.214   4.286   0.082  0.1962 -1.1607 -1.7553
 1195TIP3   OH225219   4.727   1.957   8.245  0.1542 -0.1852 -0.7526
 1195TIP3    H125220   4.675   1.883   8.213 -1.5950  0.8930 -0.5409
 1195TIP3    H225221   4.690   2.033   8.201  0.6244  0.8019  0.5055
 1196TIP3   OH225222   3.522   5.476   7.678  0.0378  0.1786  0.0620
 1196TIP3    H125223   3.429   5.456   7.677  0.2402 -1.0160  1.3636
 1196TIP3    H225224   3.535   5.527   7.758  0.5931 -0.2094  0.2281
 1197TIP3   OH225225   1.082   1.485   1.504  0.1506  0.4898 -0.4995
 1197TIP3    H125226   0.995   1.526   1.503 -0.1427 -0.1116  0.0277
 1197TIP3    H225227   1.120   1.511   1.588 -1.2569 -2.7548  1.3391
 1198TIP3   OH225228   2.723   2.547   7.811 -0.4094 -0.5236 -0.0769
 1198TIP3    H125229   2.689   2.491   7.741 -2.6068  0.7732 -0.1311
 1198TIP3    H225230   2.733   2.488   7.886 -1.1179 -1.3174 -0.5777
 1199TIP3   OH225231   6.303   4.657   7.749  0.0914 -0.3363  0.0746
 1199TIP3    H125232   6.282   4.632   7.659 -0.5511  2.4350 -0.6275
 1199TIP3    H225233   6.398   4.659   7.753  0.1187  0.1956 -0.7696
 1200TIP3   OH225234   2.086   5.025   0.430  0.2364  0.0433  0.2823
 1200TIP3    H125235   2.178   4.998   0.435 -0.2533 -2.2213 -1.2435
 1200TIP3    H225236   2.053   5.013   0.519  1.4602  1.3026  0.9557
 1201TIP3   OH225237   6.218   1.341   7.607  0.0843  0.3104  0.4831
 1201TIP3    H125238   6.216   1.258   7.560  0.8485  1.0508 -0.9164
 1201TIP3    H225239   6.306   1.375   7.592 -0.8213  2.2901 -0.6681
 1202TIP3   OH225240   5.165   3.330   0.713 -0.5644 -0.0744 -0.5195
 1202TIP3    H125241   5.096   3.383   0.674  0.2370  1.4578  0.0492
 1202TIP3    H225242   5.207   3.388   0.777  0.2641 -1.4516  0.2433
 1203TIP3   OH225243   0.541   4.147   7.355 -0.0268  0.1706  0.0320
 1203TIP3    H125244   0.562   4.181   7.442  0.1773  0.5346 -0.1574
 1203TIP3    H225245   0.449   4.120   7.362 -0.0977  0.4650  0.2803
 1204TIP3   OH225246   5.079   0.085   7.895 -1.0064  0.0980 -0.2379
 1204TIP3    H125247   5.131   0.155   7.934 -1.8332  1.0376 -0.7820
 1204TIP3    H225248   5.144   0.024   7.860 -0.2672  0.6843  0.0773
 1205TIP3   OH225249   5.569   2.743   1.422  0.0838 -0.3738 -0.0059
 1205TIP3    H125250   5.490   2.790   1.447  1.8551  1.2757  3.0812
 1205TIP3    H225251   5.637   2.778   1.479  2.9747 -2.0992 -2.1134
 1206TIP3   OH225252   3.363   2.318   2.286  0.1583 -0.3883  0.3345
 1206TIP3    H125253   3.337   2.354   2.371 -0.1245 -0.4832  0.2909
 1206TIP3    H225254   3.415   2.387   2.245 -0.8949  0.2178 -0.0102
 1207TIP3   OH225255   2.035   2.656   0.544  1.0234 -0.5312  0.0013
 1207TIP3    H125256   1.992   2.664   0.459 -1.6989  1.9940  1.4261
 1207TIP3    H225257   2.118   2.703   0.533 -0.3477  1.9373 -0.7532
 1208TIP3   OH225258   0.391   3.083   1.142 -0.3314 -0.0565  0.0809
 1208TIP3    H125259   0.376   3.005   1.194 -1.5061  0.2555  0.2443
 1208TIP3    H225260   0.339   3.069   1.063  0.5884 -0.0562 -0.5420
 1209TIP3   OH225261   3.894   6.751   0.120 -0.1554  0.0666  0.0428
 1209TIP3    H125262   3.879   6.844   0.131 -0.2594 -0.1405  2.0330
 1209TIP3    H225263   3.807   6.711   0.125 -0.3651 -0.0517 -2.7893
 1210TIP3   OH225264   6.421   0.367   0.378 -0.2884 -0.4380  0.0203
 1210TIP3    H125265   6.482   0.416   0.433  1.6252 -0.4243 -1.9842
 1210TIP3    H225266   6.370   0.435   0.333 -1.1150 -0.4379  0.9111
 1211TIP3   OH225267   5.451   5.543   8.258 -0.0101 -0.2236 -0.3634
 1211TIP3    H125268   5.395   5.605   8.306 -3.2404 -2.6315 -0.6845
 1211TIP3    H225269   5.537   5.554   8.297 -0.9870  2.6884  1.2681
 1212TIP3   OH225270   5.006   5.001   0.991 -0.4926  0.5845  0.5485
 1212TIP3    H125271   5.052   5.023   0.910  1.4365 -4.1675  0.0192
 1212TIP3    H225272   4.928   5.056   0.990  0.8775  2.8341 -2.9572
 1213TIP3   OH225273   2.940   4.922   0.068  0.6015 -0.7601 -0.2666
 1213TIP3    H125274   3.020   4.871   0.060  1.3702  0.4901 -0.9496
 1213TIP3    H225275   2.903   4.924  -0.021 -0.0300 -1.0751 -0.0194
 1214TIP3   OH225276   3.324   0.585   7.484 -0.5194 -0.2199 -0.2466
 1214TIP3    H125277   3.327   0.676   7.515 -0.5509 -0.1156 -0.5443
 1214TIP3    H225278   3.232   0.569   7.465 -0.7557 -0.8353  1.3113
 1215TIP3   OH225279   1.475   3.065   7.449 -0.4959 -0.1183 -0.1085
 1215TIP3    H125280   1.483   2.973   7.424 -1.9150  0.0478 -1.3542
 1215TIP3    H225281   1.476   3.112   7.366  1.0142  1.0930  0.5509
 1216TIP3   OH225282   6.903   0.006   7.834  0.4780 -0.1292 -0.3767
 1216TIP3    H125283   6.992   0.025   7.805  0.3653  0.2750 -0.4619
 1216TIP3    H225284   6.875   0.086   7.878 -0.2169  0.1222 -1.2492
 1217TIP3   OH225285   4.057   0.398   6.941 -0.2537 -0.2483 -0.5655
 1217TIP3    H125286   4.113   0.474   6.922  1.0268 -1.1024 -0.3041
 1217TIP3    H225287   4.003   0.427   7.014  1.5577 -0.1856  0.8284
 1218TIP3   OH225288   4.285   3.902   1.774 -0.0508 -0.2885 -0.1683
 1218TIP3    H125289   4.340   3.977   1.752  1.6437 -1.2704  0.5490
 1218TIP3    H225290   4.223   3.935   1.840 -1.2088  1.1421 -1.9022
 1219TIP3   OH225291   1.668   4.068   8.281 -0.2929 -0.5948  0.1650
 1219TIP3    H125292   1.634   4.084   8.369 -0.8594  1.6211 -0.3798
 1219TIP3    H225293   1.757   4.037   8.294 -0.3647 -0.2682  1.5264
 1220TIP3   OH225294   6.523   0.603   1.186  0.3544  0.1473  0.0622
 1220TIP3    H125295   6.499   0.551   1.262  0.8781 -1.6868 -0.9583
 1220TIP3    H225296   6.521   0.693   1.217  1.8562 -0.5859  2.6295
 1221TIP3   OH225297   1.325   5.474   2.325  0.1423 -0.1085  0.6491
 1221TIP3    H125298   1.307   5.385   2.295 -0.9886 -0.3803  2.0296
 1221TIP3    H225299   1.266   5.529   2.274 -1.2542 -0.4895  1.7897
 1222TIP3   OH225300   4.684   0.618   6.848  0.0695 -0.1231  0.4733
 1222TIP3    H125301   4.692   0.522   6.845  0.4737 -0.0818  0.1362
 1222TIP3    H225302   4.611   0.634   6.908 -0.1202 -0.6506  0.3921
 1223TIP3   OH225303   4.741   3.099   0.458  0.0341  0.4636 -0.1486
 1223TIP3    H125304   4.724   3.132   0.546  0.1138  1.0280 -0.3374
 1223TIP3    H225305   4.667   3.043   0.438  0.5565 -0.5615  0.7072
 1224TIP3   OH225306   0.376   3.931   2.882  0.5275  0.0910 -0.4059
 1224TIP3    H125307   0.335   3.858   2.928  0.4688 -0.3932 -1.2107
 1224TIP3    H225308   0.432   3.890   2.816 -0.4369  0.7498 -1.6772
 1225TIP3   OH225309   3.294   3.521   1.005 -0.7943 -0.0215 -0.0225
 1225TIP3    H125310   3.364   3.527   1.071 -1.8671 -1.1497  1.2748
 1225TIP3    H225311   3.340   3.503   0.923  0.4900 -0.1202  0.6925
 1226TIP3   OH225312   0.500   2.037   0.470 -0.2456 -0.4127  0.3664
 1226TIP3    H125313   0.515   1.948   0.440 -0.9405 -0.9456  1.5353
 1226TIP3    H225314   0.405   2.050   0.464 -0.3186 -0.2634  1.5140
 1227TIP3   OH225315   4.240   2.587   2.892  0.0692  0.3198  0.7921
 1227TIP3    H125316   4.156   2.601   2.848  0.0038 -2.5360 -0.2438
 1227TIP3    H225317   4.233   2.499   2.929  1.2519  1.4385  4.0848
 1228TIP3   OH225318   0.379   0.552   0.064 -0.5164  0.4648 -0.0162
 1228TIP3    H125319   0.300   0.604   0.080 -0.7761 -0.0207  0.2957
 1228TIP3    H225320   0.432   0.607   0.006 -0.6892  1.1765  0.4786
 1229TIP3   OH225321   2.242   2.415   7.487  0.1763  0.0732 -0.4483
 1229TIP3    H125322   2.254   2.475   7.413 -2.4797 -1.0149 -1.8824
 1229TIP3    H225323   2.167   2.449   7.535 -0.5327 -1.3208 -0.5112
 1230TIP3   OH225324   3.954   1.718   0.182  0.4989  0.4629  0.1584
 1230TIP3    H125325   3.884   1.723   0.247  0.7443  0.6529  0.4100
 1230TIP3    H225326   3.929   1.646   0.125  0.4635  0.0537  0.6795
 1231TIP3   OH225327   4.717   2.875   2.356  0.0597  0.1137  0.1961
 1231TIP3    H125328   4.798   2.823   2.363  1.5999  2.4895  1.6502
 1231TIP3    H225329   4.676   2.866   2.443 -1.2754 -1.0295 -0.5141
 1232TIP3   OH225330   6.909   0.266   1.115  0.1350 -0.6111  0.3911
 1232TIP3    H125331   6.855   0.246   1.039  0.9503 -0.9245 -0.1217
 1232TIP3    H225332   6.968   0.335   1.084  0.2391 -0.4991  0.8404
 1233TIP3   OH225333   5.064   5.740   0.173  0.2964 -0.1592 -0.1165
 1233TIP3    H125334   5.033   5.696   0.094  1.6556 -1.0456 -0.1774
 1233TIP3    H225335   5.075   5.832   0.147 -0.6751 -0.1403 -0.5183
 1234TIP3   OH225336   4.497   4.546   8.390  0.1379  0.5483  0.2528
 1234TIP3    H125337   4.527   4.565   8.479  0.2775 -0.7470  0.5028
 1234TIP3    H225338   4.413   4.502   8.401  0.3503  0.0022 -0.2269
 1235TIP3   OH225339   5.127   0.200   1.632 -0.0230 -0.1562 -0.1605
 1235TIP3    H125340   5.215   0.220   1.664  0.1153 -1.4232  0.3249
 1235TIP3    H225341   5.123   0.104   1.633 -1.6472 -0.1052  0.4702
 1236TIP3   OH225342   5.508   1.655   0.141 -0.1234 -0.1596  0.6534
 1236TIP3    H125343   5.484   1.743   0.113  1.4257  0.0530 -0.1630
 1236TIP3    H225344   5.470   1.645   0.228 -3.0960  0.0716 -0.4948
 1237TIP3   OH225345   6.049   3.895   2.027  0.3508  0.3278 -0.4090
 1237TIP3    H125346   6.063   3.821   1.968  0.3314  0.7382 -0.9389
 1237TIP3    H225347   6.034   3.856   2.112  1.4929 -0.2344 -0.4586
 1238TIP3   OH225348   2.884   3.875   0.243 -0.8237 -0.5869  0.1077
 1238TIP3    H125349   2.949   3.856   0.311 -0.7134  0.3547  0.2921
 1238TIP3    H225350   2.807   3.906   0.292 -0.3000  1.3640 -0.2076
 1239TIP3   OH225351   4.625   3.173   0.005 -0.0902 -0.0010 -0.3685
 1239TIP3    H125352   4.601   3.081   0.007 -0.0913  0.0088  0.5023
 1239TIP3    H225353   4.703   3.179   0.060 -1.1152  0.7967  1.0562
 1240TIP3   OH225354   4.997   6.424   8.501  0.1523 -0.0206 -0.3591
 1240TIP3    H125355   4.911   6.398   8.533 -0.7935  1.2402 -1.7343
 1240TIP3    H225356   5.056   6.354   8.530 -1.3598 -1.0161  0.4285
 1241TIP3   OH225357   4.550   2.539   0.752 -0.8291  0.5538  0.0821
 1241TIP3    H125358   4.528   2.450   0.779  1.7030 -0.1016  0.2820
 1241TIP3    H225359   4.502   2.596   0.812 -0.3185 -0.7628  1.8097
 1242TIP3   OH225360   0.028   4.587   1.146  0.1337  0.2646  0.0967
 1242TIP3    H125361  -0.002   4.673   1.177  2.6060  1.5264 -0.7014
 1242TIP3    H225362   0.112   4.606   1.104  0.5070 -2.5104 -0.5473
 1243TIP3   OH225363   4.055   3.493   0.813  0.1237 -0.3239 -0.0802
 1243TIP3    H125364   3.984   3.461   0.868  1.0182 -0.3119  1.1429
 1243TIP3    H225365   4.073   3.422   0.753 -0.1086 -0.8189  0.4258
 1244TIP3   OH225366   2.892   6.150   0.462  0.3144  0.2967  0.3661
 1244TIP3    H125367   2.926   6.162   0.373  0.3312  0.4853  0.3977
 1244TIP3    H225368   2.861   6.060   0.464  0.2974  0.2979  0.1622
 1245TIP3   OH225369   5.539   6.734   2.151 -0.0169  0.2034  0.2309
 1245TIP3    H125370   5.467   6.723   2.089 -1.5283  1.9002  1.5651
 1245TIP3    H225371   5.577   6.647   2.160 -0.9470 -0.4544 -1.6082
 1246TIP3   OH225372   0.238   5.416   2.758  0.0055  0.0508 -0.2225
 1246TIP3    H125373   0.250   5.340   2.815 -0.3388  0.1033 -0.0723
 1246TIP3    H225374   0.326   5.440   2.730  0.1588 -0.1063  0.1195
 1247TIP3   OH225375   6.010   2.452   0.923  0.1904  0.2897  0.5388
 1247TIP3    H125376   5.937   2.514   0.923 -0.1642 -0.1024  1.9590
 1247TIP3    H225377   5.998   2.401   0.843 -0.6414  0.7536  0.3625
 1248TIP3   OH225378   6.648   3.323   2.755 -0.1174  0.4898 -0.2165
 1248TIP3    H125379   6.556   3.313   2.776 -0.0683  2.1731  1.1102
 1248TIP3    H225380   6.694   3.283   2.828  0.2302 -0.6464 -1.0371
 1249TIP3   OH225381   0.325   3.349   1.239  0.1016 -0.0150  0.6781
 1249TIP3    H125382   0.330   3.265   1.192  0.5865  0.1088  0.5074
 1249TIP3    H225383   0.414   3.383   1.237  0.1399 -0.0094  1.7001
 1250TIP3   OH225384   5.373   3.404   8.374  0.0550  0.5355 -0.7557
 1250TIP3    H125385   5.462   3.440   8.375  1.4513 -2.5469 -0.9047
 1250TIP3    H225386   5.353   3.388   8.466  0.0615  0.3647 -0.7834
 1251TIP3   OH225387   5.846   2.138   7.832  0.2844  0.4112  0.2084
 1251TIP3    H125388   5.775   2.162   7.892 -0.0510  0.5497 -0.2350
 1251TIP3    H225389   5.925   2.140   7.886  0.2742  2.4465  0.2588
 1252TIP3   OH225390   0.869   5.316   2.238  0.3327 -0.3778 -0.1922
 1252TIP3    H125391   0.890   5.327   2.145  0.4154  0.2741 -0.1048
 1252TIP3    H225392   0.856   5.405   2.270  0.0301 -0.6155  0.3611
 1253TIP3   OH225393   0.080   6.155   0.123 -0.2359 -0.1697  0.0615
 1253TIP3    H125394   0.142   6.115   0.063  0.8586 -0.4035  1.2966
 1253TIP3    H225395   0.025   6.211   0.068  0.4651 -0.6702 -1.1833
 1254TIP3   OH225396   1.460   2.814   7.288 -0.1098 -0.0362 -0.5078
 1254TIP3    H125397   1.517   2.769   7.350  0.2248 -1.2402 -1.6436
 1254TIP3    H225398   1.424   2.745   7.233 -1.7436  0.8257 -0.5905
 1255TIP3   OH225399   3.982   1.896   6.769  0.2913 -0.0443  0.1529
 1255TIP3    H125400   3.969   1.818   6.823  0.2513  0.6742  1.2040
 1255TIP3    H225401   3.894   1.918   6.738  0.3504 -0.6107 -0.4440
 1256TIP3   OH225402   1.254   1.342   6.783  0.2268 -0.1874  0.4438
 1256TIP3    H125403   1.246   1.345   6.688  0.2926  0.9748  0.4655
 1256TIP3    H225404   1.278   1.251   6.802  1.3201 -0.1757 -0.7348
 1257TIP3   OH225405   6.474   0.208   2.084  0.2908 -0.0661  0.4371
 1257TIP3    H125406   6.408   0.248   2.140  0.6091  0.5185  0.3999
 1257TIP3    H225407   6.556   0.250   2.109  0.6049 -0.5748  0.2780
 1258TIP3   OH225408   0.960   2.844   1.706 -0.4066  0.1092 -0.6288
 1258TIP3    H125409   0.921   2.850   1.793  1.0131 -1.4008  0.1599
 1258TIP3    H225410   0.988   2.753   1.698  2.2660  0.8937 -1.3920
 1259TIP3   OH225411   4.357   2.276   2.237 -0.6493 -0.1506  0.2817
 1259TIP3    H125412   4.429   2.253   2.296 -0.3880 -0.0337  0.0112
 1259TIP3    H225413   4.383   2.360   2.199 -1.1417  0.1169  0.5257
 1260TIP3   OH225414   2.911   6.209   8.176  0.1137 -0.1609  0.7445
 1260TIP3    H125415   2.979   6.217   8.243  0.8531 -1.5633  0.1954
 1260TIP3    H225416   2.829   6.210   8.226  0.6648 -1.6802  1.7714
 1261TIP3   OH225417   6.768   0.857   7.766  0.5375  0.0561  0.0207
 1261TIP3    H125418   6.705   0.785   7.760  0.4120  0.2376 -1.2840
 1261TIP3    H225419   6.845   0.818   7.807 -0.5637 -0.0428  2.0867
 1262TIP3   OH225420   6.255   5.961   0.401 -0.2599  0.0518 -0.1235
 1262TIP3    H125421   6.335   5.971   0.453  0.9761 -0.2332 -1.9001
 1262TIP3    H225422   6.208   5.889   0.444 -0.9770  2.0047  2.5866
 1263TIP3   OH225423   5.327   2.276   0.344 -0.1787 -0.3699  0.3320
 1263TIP3    H125424   5.390   2.215   0.383  1.5359  1.1552  0.0611
 1263TIP3    H225425   5.273   2.304   0.418 -0.2747 -1.3601  0.6569
 1264TIP3   OH225426   4.093   1.842   7.726 -0.5303 -0.0822 -0.0868
 1264TIP3    H125427   4.140   1.888   7.657  0.2102 -0.1745  0.3489
 1264TIP3    H225428   4.161   1.802   7.779 -1.0969 -0.1263  0.6234
 1265TIP3   OH225429   4.773   3.445   2.525  0.4522  0.2327 -0.0143
 1265TIP3    H125430   4.728   3.372   2.483  0.2610  0.0140  0.5552
 1265TIP3    H225431   4.843   3.468   2.465  0.3801 -0.2800 -0.2995
 1266TIP3   OH225432   3.240   6.321   8.159 -0.3287  0.5726  0.3088
 1266TIP3    H125433   3.220   6.369   8.239 -0.7710  0.3977  0.3038
 1266TIP3    H225434   3.196   6.370   8.089 -1.3772 -0.2305  0.3943
 1267TIP3   OH225435   2.502   0.865   0.784 -0.0832 -0.5727 -0.0070
 1267TIP3    H125436   2.556   0.893   0.858  0.6190  0.3286 -0.8303
 1267TIP3    H225437   2.468   0.779   0.809 -0.6490  0.1299  1.7612
 1268TIP3   OH225438   3.834   2.903   0.809  0.2868  0.4819 -0.1520
 1268TIP3    H125439   3.766   2.908   0.741 -1.2395 -2.1835  1.0531
 1268TIP3    H225440   3.818   2.980   0.863 -0.8832  0.6541 -0.6977
 1269TIP3   OH225441   3.058   2.057   1.077  0.2021 -0.5360 -0.7041
 1269TIP3    H125442   3.074   1.965   1.096  1.3259 -0.6470 -1.9469
 1269TIP3    H225443   3.117   2.105   1.135  1.3745 -0.7355 -1.6817
 1270TIP3   OH225444   0.732   1.995   1.814 -0.1617 -0.1895  0.0096
 1270TIP3    H125445   0.755   1.972   1.904 -0.8374  2.9340  1.1223
 1270TIP3    H225446   0.661   1.935   1.791  0.6715 -1.6840  1.1738
 1271TIP3   OH225447   6.603   2.240   3.220  0.0360 -0.1474 -0.4297
 1271TIP3    H125448   6.551   2.162   3.199 -1.6048  0.4365  1.2020
 1271TIP3    H225449   6.683   2.230   3.167 -0.3565 -2.6318 -0.6994
 1272TIP3   OH225450   0.203   0.778   0.397  0.0858  0.2066  0.0433
 1272TIP3    H125451   0.295   0.801   0.382  0.6658 -1.0042  1.4282
 1272TIP3    H225452   0.174   0.739   0.315  0.1739  2.3494 -1.0750
 1273TIP3   OH225453   4.247   4.023   7.324 -0.3505 -0.2932  0.0532
 1273TIP3    H125454   4.272   3.971   7.247 -0.1653 -0.7797  0.4376
 1273TIP3    H225455   4.151   4.026   7.321 -0.4174 -1.5181  0.5824
 1274TIP3   OH225456   3.056   0.141   0.544 -0.3412  0.0789 -0.2133
 1274TIP3    H125457   3.067   0.142   0.640  0.3647  0.2309 -0.2898
 1274TIP3    H225458   2.963   0.123   0.531 -0.2814 -0.7980  0.4884
 1275TIP3   OH225459   0.788   3.782   7.917 -0.1680  0.3948  0.1257
 1275TIP3    H125460   0.782   3.847   7.846  0.2196  0.0526 -0.2297
 1275TIP3    H225461   0.824   3.704   7.874  0.9763  0.4879  0.8897
 1276TIP3   OH225462   1.512   2.639   6.477 -0.5850  0.3683 -0.1055
 1276TIP3    H125463   1.601   2.621   6.506  0.0742  0.3948 -2.0065
 1276TIP3    H225464   1.475   2.553   6.458 -0.2206  0.4793 -1.3641
 1277TIP3   OH225465   0.452   5.917   0.206 -0.1680  0.0778 -0.0564
 1277TIP3    H125466   0.499   6.000   0.197  0.2472 -0.0446  0.8517
 1277TIP3    H225467   0.450   5.881   0.118  0.4024  0.6487 -0.3154
 1278TIP3   OH225468   1.293   0.650   1.733  0.2630 -0.0445 -0.4178
 1278TIP3    H125469   1.360   0.587   1.760  1.7197  1.2048 -0.9725
 1278TIP3    H225470   1.295   0.647   1.637 -0.2129  0.2808 -0.4404
 1279TIP3   OH225471   1.586   0.495   0.601 -0.2334  0.7063  0.1066
 1279TIP3    H125472   1.570   0.584   0.631  2.5164  0.8685  1.4056
 1279TIP3    H225473   1.572   0.440   0.679  2.9737  0.6575  0.7554
 1280TIP3   OH225474   4.089   6.008   0.682  0.1098 -0.5359 -0.0088
 1280TIP3    H125475   4.137   6.050   0.611  0.2272  0.3344  0.5667
 1280TIP3    H225476   4.156   5.986   0.747 -0.0991 -0.5643  0.1979
 1281TIP3   OH225477   2.835   3.961   8.398  0.8735  0.2549 -0.2553
 1281TIP3    H125478   2.827   3.894   8.330  2.7048  0.5569 -0.8287
 1281TIP3    H225479   2.767   4.025   8.377  0.3257 -0.4921 -0.8025
 1282TIP3   OH225480   4.690   0.711   1.906  0.2619  0.3935  0.8561
 1282TIP3    H125481   4.750   0.785   1.893  1.2615 -0.5880 -0.2753
 1282TIP3    H225482   4.746   0.640   1.936 -0.2394 -0.6735 -0.6553
 1283TIP3   OH225483   2.049   2.522   6.987  0.2875  0.4231 -0.3143
 1283TIP3    H125484   1.968   2.484   7.022 -0.7156  2.2262 -0.6001
 1283TIP3    H225485   2.104   2.446   6.969 -0.4196 -0.7476  2.0604
 1284TIP3   OH225486   2.374   3.408   2.615 -0.3696  0.4954 -0.2272
 1284TIP3    H125487   2.444   3.357   2.572  0.6618  2.0670 -0.5089
 1284TIP3    H225488   2.366   3.369   2.702  0.6435  0.0749 -0.3019
 1285TIP3   OH225489   3.440   5.808   1.018 -0.6219 -0.2796 -0.0141
 1285TIP3    H125490   3.524   5.801   1.062 -0.0838  2.9045 -0.2666
 1285TIP3    H225491   3.459   5.788   0.926  0.2933  1.9558 -0.3711
 1286TIP3   OH225492   6.252   5.646   7.716  1.0855 -0.1319  0.7916
 1286TIP3    H125493   6.244   5.554   7.691  0.7542  0.1300 -0.1102
 1286TIP3    H225494   6.181   5.662   7.778 -0.3443  0.0863 -0.8267
 1287TIP3   OH225495   4.286   1.344   7.781  0.1007  0.2173  0.3322
 1287TIP3    H125496   4.219   1.400   7.820  0.5166  1.3176 -0.4866
 1287TIP3    H225497   4.328   1.302   7.856 -2.8357 -2.1852  0.8242
 1288TIP3   OH225498   6.387   1.765   1.811  0.4411 -0.4629  0.3333
 1288TIP3    H125499   6.460   1.817   1.778  0.4905  0.0931  1.2738
 1288TIP3    H225500   6.310   1.802   1.768  0.5005  0.2691  0.8452
 1289TIP3   OH225501   3.803   1.841   1.448  0.4909  0.0627 -0.5473
 1289TIP3    H125502   3.745   1.770   1.478  0.7103 -0.0245 -0.3230
 1289TIP3    H225503   3.852   1.866   1.526 -0.0785  0.9431 -0.4553
 1290TIP3   OH225504   3.134   1.802   1.088  0.6805  0.2343  0.4447
 1290TIP3    H125505   3.084   1.738   1.037 -0.6466 -0.3686  2.3781
 1290TIP3    H225506   3.225   1.775   1.078  0.3537 -0.5288 -0.6602
 1291TIP3   OH225507   4.673   6.105   0.796  0.5103  0.1393 -0.1506
 1291TIP3    H125508   4.659   6.083   0.888  0.1748  1.5595  0.1746
 1291TIP3    H225509   4.713   6.192   0.798  1.1467 -0.0939 -1.3420
 1292TIP3   OH225510   2.601   4.765   6.500 -0.0649 -0.2338  0.3741
 1292TIP3    H125511   2.536   4.696   6.510 -0.3161 -0.2544 -1.1491
 1292TIP3    H225512   2.683   4.719   6.481  0.2557 -0.1762  1.5367
 1293TIP3   OH225513   0.061   3.191   8.155  0.4492  0.0800 -0.5250
 1293TIP3    H125514   0.129   3.153   8.099 -0.7358 -0.9553 -1.3054
 1293TIP3    H225515   0.090   3.171   8.244  1.5019  0.2545 -0.8122
 1294TIP3   OH225516   6.867   5.209   2.581 -0.1840 -0.3778  0.0354
 1294TIP3    H125517   6.812   5.177   2.652  0.5649 -1.8250  0.0219
 1294TIP3    H225518   6.827   5.172   2.502 -1.4785  1.8766 -0.4411
 1295TIP3   OH225519   5.043   2.563   7.457  0.0798 -0.1399  0.2495
 1295TIP3    H125520   5.043   2.496   7.388  1.0490 -0.3876  0.4833
 1295TIP3    H225521   4.956   2.556   7.497 -0.4447 -0.0962 -0.8410
 1296TIP3   OH225522   2.595   0.215   1.366 -0.1538 -0.2501  0.8872
 1296TIP3    H125523   2.689   0.233   1.373  0.2798 -1.9381 -0.1142
 1296TIP3    H225524   2.586   0.165   1.285 -1.7975 -0.9027  1.4281
 1297TIP3   OH225525   2.391   1.417   7.409  0.0178 -0.0273  0.4199
 1297TIP3    H125526   2.444   1.352   7.454  0.7107  0.4912  0.3668
 1297TIP3    H225527   2.354   1.371   7.334  0.8492 -0.2596  0.1392
 1298TIP3   OH225528   0.292   1.127   0.440  0.3910  0.6597  0.0270
 1298TIP3    H125529   0.212   1.116   0.388  0.9318 -0.9782 -0.5118
 1298TIP3    H225530   0.269   1.091   0.526  0.7757 -0.5863 -0.3748
 1299TIP3   OH225531   4.176   0.585   7.336 -0.3236  0.7388 -0.2403
 1299TIP3    H125532   4.149   0.676   7.327 -0.7347  0.5752 -0.7217
 1299TIP3    H225533   4.112   0.536   7.284 -1.5448 -0.0775  1.9047
 1300TIP3   OH225534   5.109   0.924   0.323 -0.0602 -0.2544  0.4559
 1300TIP3    H125535   5.105   1.020   0.325  0.2543 -0.2409  2.4789
 1300TIP3    H225536   5.028   0.896   0.365 -0.2632 -0.8868 -0.3539
 1301TIP3   OH225537   6.890   4.612   1.748 -0.6376 -0.0528  0.2011
 1301TIP3    H125538   6.956   4.583   1.811 -1.8717 -1.3021  0.9843
 1301TIP3    H225539   6.824   4.542   1.748 -1.3977  0.6080 -1.4083
 1302TIP3   OH225540   5.381   5.418   1.958  0.3408  0.3413 -0.6025
 1302TIP3    H125541   5.336   5.420   2.042  1.5121 -1.7689  0.1517
 1302TIP3    H225542   5.456   5.476   1.968  1.0188 -0.6435  0.1822
 1303TIP3   OH225543   0.883   6.692   2.632  0.1246  0.2849  0.5381
 1303TIP3    H125544   0.903   6.656   2.545 -3.7478  0.0072 -0.4173
 1303TIP3    H225545   0.873   6.615   2.688 -0.9577  0.2344  0.2939
 1304TIP3   OH225546   3.779   2.355   1.209  0.5357  0.1415  0.6324
 1304TIP3    H125547   3.779   2.442   1.169  1.8814 -0.2809 -0.3895
 1304TIP3    H225548   3.770   2.372   1.302  1.5002  1.4532  0.5290
 1305TIP3   OH225549   2.348   6.166   7.468  0.4172 -0.2740 -0.0691
 1305TIP3    H125550   2.333   6.171   7.374 -2.0383  2.8309  0.3329
 1305TIP3    H225551   2.269   6.203   7.507  1.3901 -1.3582  3.2377
 1306TIP3   OH225552   0.222   1.631   0.099 -0.2198  0.7751 -0.4134
 1306TIP3    H125553   0.252   1.554   0.147 -0.0051 -0.3629 -2.2961
 1306TIP3    H225554   0.298   1.661   0.050 -1.2721 -0.3418 -2.9021
 1307TIP3   OH225555   2.289   3.806   1.493  0.6712  0.3220  0.0140
 1307TIP3    H125556   2.219   3.766   1.544  1.0664 -0.6799 -0.2155
 1307TIP3    H225557   2.364   3.748   1.505  0.9534  0.4188 -1.1861
 1308TIP3   OH225558   0.284   4.794   0.456 -0.2181  0.4658 -0.3729
 1308TIP3    H125559   0.315   4.814   0.544 -0.9637  0.9031 -0.2031
 1308TIP3    H225560   0.189   4.804   0.461 -0.6633 -2.7031 -0.3647
 1309TIP3   OH225561   4.279   6.338   8.156  0.7195  0.2892 -0.0651
 1309TIP3    H125562   4.333   6.350   8.078  1.8128  1.1866  0.7975
 1309TIP3    H225563   4.192   6.367   8.130  0.8153 -0.4138 -1.2454
 1310TIP3   OH225564   5.063   0.293   0.367 -0.3019 -0.1421  0.3778
 1310TIP3    H125565   5.043   0.324   0.279  1.3190 -1.5957 -0.5565
 1310TIP3    H225566   5.039   0.366   0.424 -2.3119  0.4648 -1.1500
 1311TIP3   OH225567   3.240   0.428   8.474  1.0572 -0.2494  0.0662
 1311TIP3    H125568   3.187   0.446   8.552  2.8227  0.7104  1.0912
 1311TIP3    H225569   3.175   0.421   8.403 -0.4208  1.4631  1.1413
 1312TIP3   OH225570   5.834   5.178   8.410 -0.1322  0.1536 -0.4378
 1312TIP3    H125571   5.894   5.128   8.465  2.1879  1.5504 -1.5440
 1312TIP3    H225572   5.824   5.126   8.331 -1.1990 -0.5277  0.1257
 1313TIP3   OH225573   4.809   0.669   8.027 -0.4464 -0.3858 -0.1021
 1313TIP3    H125574   4.848   0.756   8.030 -0.1364 -0.3535 -2.6265
 1313TIP3    H225575   4.884   0.609   8.021 -0.4614 -1.2461  4.7160
 1314TIP3   OH225576   4.129   0.263   7.183  0.4145 -0.1991  0.3887
 1314TIP3    H125577   4.047   0.215   7.182  0.5981 -0.5368  1.0280
 1314TIP3    H225578   4.139   0.296   7.093 -1.2428  1.2781  0.6957
 1315TIP3   OH225579   5.318   6.750   8.126 -0.1352  0.0459 -0.2071
 1315TIP3    H125580   5.352   6.750   8.037 -0.8883  2.5074 -0.5673
 1315TIP3    H225581   5.271   6.667   8.134  2.6307 -1.7200 -0.9479
 1316TIP3   OH225582   3.858   3.846   8.085 -0.7834  0.1939 -0.2806
 1316TIP3    H125583   3.848   3.825   7.992  1.2003  0.8218 -0.6885
 1316TIP3    H225584   3.944   3.811   8.108 -1.1926  0.1690  1.2902
 1317TIP3   OH225585   5.809   5.646   1.324  0.5401  0.1969  0.0476
 1317TIP3    H125586   5.855   5.590   1.261  1.6670  0.7957  0.3062
 1317TIP3    H225587   5.731   5.597   1.347  1.3700 -1.1661  0.0689
 1318TIP3   OH225588   6.517   2.509   2.351  0.0291 -0.1853 -0.3129
 1318TIP3    H125589   6.562   2.425   2.356  0.5661  0.1675  1.1194
 1318TIP3    H225590   6.466   2.515   2.432 -1.2447  0.1941 -1.1101
 1319TIP3   OH225591   5.790   6.724   2.769 -0.5955 -0.1171 -0.1373
 1319TIP3    H125592   5.796   6.805   2.819 -0.2945  0.7902 -1.5785
 1319TIP3    H225593   5.828   6.745   2.684  2.3655 -2.5976  0.3825
 1320TIP3   OH225594   3.447   2.438   0.354 -0.0493 -0.0691  0.3931
 1320TIP3    H125595   3.425   2.497   0.427 -1.6242 -0.7525  0.5105
 1320TIP3    H225596   3.484   2.496   0.287  0.2847  0.7496  1.2535
 1321TIP3   OH225597   5.565   5.956   1.892 -0.7691 -0.2282  0.2879
 1321TIP3    H125598   5.660   5.946   1.891 -0.5334  0.4261 -4.0516
 1321TIP3    H225599   5.550   6.030   1.951  1.5419  0.4233  0.1711
 1322TIP3   OH225600   1.601   5.771   8.310  0.0601  0.7370 -0.0022
 1322TIP3    H125601   1.654   5.771   8.390 -0.0191 -1.0491  0.0845
 1322TIP3    H225602   1.614   5.858   8.273 -1.3734  2.3466  2.9023
 1323TIP3   OH225603   3.251   6.093   2.685  0.1739  0.2207 -0.2810
 1323TIP3    H125604   3.307   6.055   2.617  0.5974 -0.8937  0.6588
 1323TIP3    H225605   3.268   6.187   2.681  0.8051  0.0795 -1.1640
 1324TIP3   OH225606   1.025   4.997   2.094 -0.4010 -0.7919 -0.5025
 1324TIP3    H125607   0.995   5.070   2.148  3.7591  1.0968 -0.3524
 1324TIP3    H225608   1.051   4.929   2.156 -0.6457 -0.8318 -0.4419
 1325TIP3   OH225609   5.914   3.505   1.672  0.0044 -0.0432 -0.0927
 1325TIP3    H125610   5.930   3.451   1.595 -0.1401 -1.2175  0.6687
 1325TIP3    H225611   5.887   3.442   1.740 -1.2187  1.1042  0.5326
 1326TIP3   OH225612   0.888   0.125   0.333 -0.2740  0.2782 -0.2913
 1326TIP3    H125613   0.794   0.136   0.316 -0.5033  1.5659  1.4385
 1326TIP3    H225614   0.919   0.068   0.263 -2.7156 -1.7224  0.0912
 1327TIP3   OH225615   0.376   5.714   2.615 -0.2947 -0.3586  0.4176
 1327TIP3    H125616   0.466   5.722   2.644 -0.2654  1.5394 -0.0448
 1327TIP3    H225617   0.325   5.763   2.680 -0.7289  0.3012 -0.3999
 1328TIP3   OH225618   5.856   6.459   1.651 -0.0518  0.3309  0.7321
 1328TIP3    H125619   5.800   6.412   1.712  0.0614 -0.1056  0.5029
 1328TIP3    H225620   5.874   6.543   1.694 -2.1366  1.1217  0.1486
 1329TIP3   OH225621   3.052   5.090   7.171  0.6737  0.1808 -0.2523
 1329TIP3    H125622   3.079   5.044   7.092  0.5468 -0.7992  0.2595
 1329TIP3    H225623   2.957   5.094   7.165  0.6121 -0.5465  0.1986
 1330TIP3   OH225624   4.238   3.880   0.462 -0.3236  0.1060 -0.4110
 1330TIP3    H125625   4.302   3.927   0.516  0.3024 -0.9519 -0.1966
 1330TIP3    H225626   4.164   3.865   0.522 -0.5005  0.7356 -0.4621
 1331TIP3   OH225627   0.986   5.434   0.325 -0.0564  0.3208  0.2408
 1331TIP3    H125628   1.032   5.461   0.245 -1.1701 -0.4269 -0.6829
 1331TIP3    H225629   1.055   5.429   0.392  1.4751 -1.9211 -1.3511
 1332TIP3   OH225630   0.250   5.578   1.717  0.1503 -0.1891  0.3107
 1332TIP3    H125631   0.222   5.487   1.706  0.7070 -0.3463  0.1737
 1332TIP3    H225632   0.192   5.628   1.660  0.0118 -0.4869  0.1887
 1333TIP3   OH225633   6.716   3.181   0.917 -0.3259  0.1866 -0.0243
 1333TIP3    H125634   6.732   3.247   0.984  0.2649  1.3760 -1.2799
 1333TIP3    H225635   6.800   3.173   0.870 -0.3574 -1.5282  0.1405
 1334TIP3   OH225636   3.145   3.809   1.392  0.4316 -0.3292  0.0648
 1334TIP3    H125637   3.085   3.805   1.466 -0.1768  0.5344 -0.3661
 1334TIP3    H225638   3.163   3.717   1.371 -0.0426 -0.5875  0.7522
 1335TIP3   OH225639   0.440   2.933   0.902  0.1057 -0.2295  0.1408
 1335TIP3    H125640   0.495   3.010   0.887  1.0162 -1.3291 -3.0127
 1335TIP3    H225641   0.365   2.946   0.844  0.1629 -1.6009 -0.2619
 1336TIP3   OH225642   2.826   1.041   7.262  0.4257  0.2331 -0.0316
 1336TIP3    H125643   2.772   0.991   7.201  1.7034 -3.1028  1.3218
 1336TIP3    H225644   2.814   1.133   7.236 -2.6242 -0.6509 -2.2909
 1337TIP3   OH225645   1.031   5.728   1.720 -0.8976  0.4191 -0.5195
 1337TIP3    H125646   1.006   5.636   1.709 -1.5365  0.4374  0.6528
 1337TIP3    H225647   0.948   5.773   1.736 -0.8177  1.4846 -2.6402
 1338TIP3   OH225648   4.634   2.270   2.102  0.2499  0.4156  0.4200
 1338TIP3    H125649   4.562   2.308   2.052 -0.5605 -0.4652  0.8756
 1338TIP3    H225650   4.634   2.177   2.078  0.8658  0.2903  0.8658
 1339TIP3   OH225651   4.927   2.648   1.301 -0.4333 -0.5454  0.1295
 1339TIP3    H125652   4.942   2.581   1.234 -0.7487  0.5692 -1.0984
 1339TIP3    H225653   4.880   2.718   1.256 -0.2127  0.4767  1.3928
 1340TIP3   OH225654   0.931   2.213   1.764 -0.1102  0.9399  0.5931
 1340TIP3    H125655   0.853   2.157   1.764  0.7273 -0.2820  0.4344
 1340TIP3    H225656   0.970   2.200   1.851  0.0253  1.3746  0.5990
 1341TIP3   OH225657   2.871   6.599   0.867 -0.1955  0.0413  1.1070
 1341TIP3    H125658   2.957   6.634   0.844 -0.2730 -1.1390 -1.3921
 1341TIP3    H225659   2.870   6.595   0.962  2.8848 -0.7484  1.1947
 1342TIP3   OH225660   3.233   2.483   7.438  0.6126  0.2393  0.2135
 1342TIP3    H125661   3.324   2.512   7.426  0.4989  0.7672  0.5626
 1342TIP3    H225662   3.204   2.531   7.516  0.1250 -0.1488  0.2725
 1343TIP3   OH225663   2.182   5.792   2.692 -0.0481 -0.3394  0.0306
 1343TIP3    H125664   2.217   5.868   2.738 -1.6539  0.7379 -0.4685
 1343TIP3    H225665   2.245   5.722   2.711  1.6996  1.1847  0.1535
 1344TIP3   OH225666   0.587   5.167   1.613  0.2476 -0.1053 -0.6019
 1344TIP3    H125667   0.631   5.247   1.586  0.4156  0.3651  0.9626
 1344TIP3    H225668   0.632   5.141   1.694 -1.6006 -0.2086  0.4425
 1345TIP3   OH225669   5.825   3.640   8.394 -0.0358 -0.2166 -0.0111
 1345TIP3    H125670   5.770   3.700   8.446  0.7333  1.1007 -0.6578
 1345TIP3    H225671   5.909   3.638   8.442  0.4609  0.4924 -0.8234
 1346TIP3   OH225672   5.482   2.697   7.740 -0.4179 -0.4173 -0.4050
 1346TIP3    H125673   5.500   2.757   7.812 -0.4735 -0.6429 -0.2025
 1346TIP3    H225674   5.559   2.705   7.683 -1.3719  1.4973 -1.5512
 1347TIP3   OH225675   2.316   1.585   0.564  0.7465 -0.2901  0.8064
 1347TIP3    H125676   2.231   1.629   0.561  1.1415  0.4367 -0.4974
 1347TIP3    H225677   2.298   1.496   0.535 -0.1067 -1.1986  3.6939
 1348TIP3   OH225678   4.591   1.133   2.091  0.5310  0.2219  0.1107
 1348TIP3    H125679   4.674   1.108   2.131 -0.3347 -0.3723  1.6557
 1348TIP3    H225680   4.604   1.224   2.063  1.2022  0.7235  1.8640
 1349TIP3   OH225681   5.948   6.238   1.086  0.2469  0.5421 -0.1744
 1349TIP3    H125682   5.905   6.158   1.057  0.0673  0.2673  0.8133
 1349TIP3    H225683   6.020   6.250   1.024 -2.0806  1.8692 -2.8272
 1350TIP3   OH225684   5.440   6.620   0.420 -0.1220 -0.5430  0.3768
 1350TIP3    H125685   5.366   6.591   0.367 -0.9535  1.3493  0.4404
 1350TIP3    H225686   5.482   6.689   0.368  0.3022 -0.1135  1.2583
 1351TIP3   OH225687   1.799   1.924   0.189 -0.4995 -0.6796 -0.4637
 1351TIP3    H125688   1.822   1.845   0.238 -0.1766 -0.2602  0.0694
 1351TIP3    H225689   1.796   1.896   0.098  1.6528 -0.8809 -0.5214
 1352TIP3   OH225690   3.314   2.432   7.114 -0.3227  0.1054  0.6972
 1352TIP3    H125691   3.387   2.489   7.090  0.6660 -1.7692 -1.0184
 1352TIP3    H225692   3.319   2.426   7.210  0.8893  1.1113  0.7248
 1353TIP3   OH225693   4.399   1.439   6.701 -0.1070  0.8627  0.0424
 1353TIP3    H125694   4.336   1.492   6.750 -0.6072  0.0364  0.3165
 1353TIP3    H225695   4.418   1.365   6.759  0.0501  0.3886 -0.6031
 1354TIP3   OH225696   4.609   6.479   6.776 -0.1122  0.4396 -0.7800
 1354TIP3    H125697   4.610   6.498   6.682  0.0929  0.8389 -0.6991
 1354TIP3    H225698   4.671   6.541   6.813  0.8442 -0.6402 -0.5505
 1355TIP3   OH225699   3.397   6.424   0.251  0.4019  0.4847  0.2030
 1355TIP3    H125700   3.324   6.416   0.313  0.3158  2.1564  0.3590
 1355TIP3    H225701   3.429   6.335   0.240 -1.8171 -0.3440 -0.0472
 1356TIP3   OH225702   0.899   6.453   2.137  0.4430  0.3334 -0.9877
 1356TIP3    H125703   0.936   6.487   2.219  1.3745 -1.3290 -0.6778
 1356TIP3    H225704   0.965   6.475   2.071 -1.2360  3.5780 -1.7935
 1357TIP3   OH225705   4.458   0.750   7.001 -0.3689 -0.4544  0.2560
 1357TIP3    H125706   4.519   0.817   7.035 -0.8341  0.7495 -1.2053
 1357TIP3    H225707   4.462   0.680   7.067  1.9540 -0.0614  0.6374
 1358TIP3   OH225708   3.665   6.479   1.018  0.1610 -0.6089 -0.2025
 1358TIP3    H125709   3.652   6.435   0.934 -0.2101 -1.5367  0.3254
 1358TIP3    H225710   3.697   6.566   0.995 -1.6087 -0.2172 -1.3770
 1359TIP3   OH225711   2.994   4.728   1.836 -0.0308 -0.6044 -0.2629
 1359TIP3    H125712   2.967   4.722   1.744 -0.5701  0.9690 -0.2382
 1359TIP3    H225713   3.064   4.794   1.836  2.2087 -2.8241  0.0444
 1360TIP3   OH225714   6.725   1.017   2.753  0.2674  0.1722 -0.4023
 1360TIP3    H125715   6.789   0.954   2.720 -0.3104 -0.4814 -0.3133
 1360TIP3    H225716   6.762   1.050   2.835  1.0997  0.8081 -1.0288
 1361TIP3   OH225717   3.426   1.158   0.582 -0.1630 -0.2287  0.3781
 1361TIP3    H125718   3.419   1.173   0.676 -0.7957 -2.7524  0.7958
 1361TIP3    H225719   3.517   1.133   0.569 -0.5445 -1.9178  0.7105
 1362TIP3   OH225720   3.533   6.074   8.261  0.2009  0.0119 -0.6868
 1362TIP3    H125721   3.576   6.031   8.187  0.7211 -0.3004 -0.2166
 1362TIP3    H225722   3.605   6.109   8.314 -0.1829  0.6351 -0.5677
 1363TIP3   OH225723   1.380   0.291   7.816 -0.0965  0.3941  0.5054
 1363TIP3    H125724   1.339   0.348   7.881  1.0982  0.4652  1.2284
 1363TIP3    H225725   1.336   0.207   7.827  0.7982  0.1005  2.1814
 1364TIP3   OH225726   5.797   3.671   0.985 -0.0819 -0.2060 -0.1039
 1364TIP3    H125727   5.725   3.686   1.047  0.2850  1.2977 -0.0001
 1364TIP3    H225728   5.768   3.714   0.905  0.1563 -0.7156 -0.4674
 1365TIP3   OH225729   1.072   1.773   1.675 -0.7656 -0.5068  0.3487
 1365TIP3    H125730   1.061   1.826   1.754 -0.5712  0.7991 -0.4718
 1365TIP3    H225731   1.145   1.715   1.694  0.9519  1.5121  0.2749
 1366TIP3   OH225732   2.446   5.055   7.852 -0.7538  0.1797 -0.0371
 1366TIP3    H125733   2.443   5.001   7.931 -1.9033 -0.9168 -0.7720
 1366TIP3    H225734   2.360   5.097   7.848 -0.0556  1.6631  0.2367
 1367TIP3   OH225735   5.864   0.320   0.616  0.4272 -0.5965  0.4530
 1367TIP3    H125736   5.904   0.355   0.537 -0.8501 -0.1768 -0.0402
 1367TIP3    H225737   5.860   0.226   0.602 -3.3402 -0.2986 -1.8308
 1368TIP3   OH225738   5.309   3.074   7.669 -0.1577 -0.6227 -0.0425
 1368TIP3    H125739   5.321   3.089   7.576  1.9351 -2.4904 -0.1656
 1368TIP3    H225740   5.395   3.091   7.707 -0.7589 -0.7140  1.4232
 1369TIP3   OH225741   0.184   3.444   2.280 -0.7773 -0.5025 -0.3247
 1369TIP3    H125742   0.097   3.435   2.240 -1.5407  0.4985  1.0349
 1369TIP3    H225743   0.242   3.461   2.206 -1.9207 -0.1020 -1.1682
 1370TIP3   OH225744   3.008   6.839   8.469  0.0958  0.4633 -0.1773
 1370TIP3    H125745   2.923   6.853   8.427 -0.0977 -1.0936 -0.3358
 1370TIP3    H225746   3.059   6.917   8.444 -1.5536  1.9006  0.7173
 1371TIP3   OH225747   4.274   5.205   6.994 -0.1051  0.1288 -0.5107
 1371TIP3    H125748   4.287   5.298   6.973  0.2441  0.3474  0.6443
 1371TIP3    H225749   4.298   5.160   6.913  4.6562  0.7108  0.2522
 1372TIP3   OH225750   0.403   2.435   2.003 -0.0985  0.3445  0.2196
 1372TIP3    H125751   0.379   2.348   1.973 -0.9229  1.1336 -1.4947
 1372TIP3    H225752   0.496   2.443   1.982  0.4287 -0.7135  1.9513
 1373TIP3   OH225753   2.486   1.722   7.609  0.0962  0.4528 -0.3586
 1373TIP3    H125754   2.469   1.632   7.637 -0.3036  0.3570 -0.8853
 1373TIP3    H225755   2.579   1.723   7.587  0.6536  0.7655  1.7998
 1374TIP3   OH225756   1.525   4.894   1.583 -0.4224 -0.1199 -0.4020
 1374TIP3    H125757   1.515   4.886   1.678  0.9407 -0.7148 -0.2890
 1374TIP3    H225758   1.547   4.806   1.553  1.9867  0.5587 -0.8702
 1375TIP3   OH225759   5.719   0.226   6.365  0.1616  0.2928 -0.0000
 1375TIP3    H125760   5.706   0.300   6.425 -0.6099 -0.4854  0.8126
 1375TIP3    H225761   5.784   0.171   6.409 -0.2947 -0.2042  0.0622
 1376TIP3   OH225762   1.465   1.504   6.918 -0.5386 -0.4572  0.2055
 1376TIP3    H125763   1.436   1.531   7.005  0.0420 -1.8081  0.8467
 1376TIP3    H225764   1.383   1.493   6.868 -0.9892 -1.2372  1.0733
 1377TIP3   OH225765   5.206   3.259   2.359 -0.2291  0.4089 -0.5726
 1377TIP3    H125766   5.289   3.223   2.389 -0.9324 -0.8854 -0.1004
 1377TIP3    H225767   5.192   3.336   2.415  0.5332  0.5142 -0.5146
 1378TIP3   OH225768   5.820   1.275   0.578  0.6050  0.6869  0.1306
 1378TIP3    H125769   5.846   1.341   0.514 -0.0254  0.1724 -0.6707
 1378TIP3    H225770   5.890   1.209   0.574 -1.5900 -1.7918 -3.5812
 1379TIP3   OH225771   2.393   0.909   8.089  0.4152 -0.4267  1.1925
 1379TIP3    H125772   2.476   0.956   8.084 -0.4189  1.0476  0.6594
 1379TIP3    H225773   2.394   0.853   8.011 -0.9001  2.7994 -1.3637
 1380TIP3   OH225774   4.675   1.821   1.991  0.4100 -0.2563  0.5095
 1380TIP3    H125775   4.634   1.870   1.920 -2.4549 -2.5751  0.3570
 1380TIP3    H225776   4.745   1.771   1.949 -1.3345 -1.7091 -0.7991
 1381TIP3   OH225777   4.812   5.530   7.751 -0.0243  0.3786  0.0552
 1381TIP3    H125778   4.882   5.586   7.783  0.0396  1.6550 -2.1005
 1381TIP3    H225779   4.848   5.441   7.753  0.2330  0.4891  2.5875
 1382TIP3   OH225780   4.860   3.076   0.747  0.1571 -0.4032  0.6940
 1382TIP3    H125781   4.862   3.158   0.796  0.3023  0.3278 -0.5156
 1382TIP3    H225782   4.924   3.088   0.677 -0.3294 -1.2869  0.0859
 1383TIP3   OH225783   5.237   5.477   2.215 -0.1029 -0.0560 -0.6095
 1383TIP3    H125784   5.269   5.546   2.272 -1.3306  0.5667 -0.6557
 1383TIP3    H225785   5.239   5.398   2.269 -2.3900  0.7236  0.7485
 1384TIP3   OH225786   1.554   2.314   1.421 -0.2317 -0.1885 -0.3987
 1384TIP3    H125787   1.593   2.231   1.447  1.1995  0.0917 -1.5297
 1384TIP3    H225788   1.628   2.369   1.396 -1.2680  0.8657 -1.2915
 1385TIP3   OH225789   2.498   6.058   1.254  0.0488 -0.0492  0.4058
 1385TIP3    H125790   2.437   6.058   1.328  1.3640  0.3921  1.5461
 1385TIP3    H225791   2.581   6.032   1.293  0.5826 -0.6940 -1.1181
 1386TIP3   OH225792   0.203   0.912   2.093 -0.3545  0.1225 -0.1862
 1386TIP3    H125793   0.236   0.986   2.143 -1.4059  0.5425 -0.0782
 1386TIP3    H225794   0.271   0.892   2.029  0.6092  0.1647  0.8153
 1387TIP3   OH225795   4.726   6.691   7.087 -0.1800  0.3078 -0.1969
 1387TIP3    H125796   4.742   6.701   6.993 -3.7453  0.7700 -0.8902
 1387TIP3    H225797   4.694   6.602   7.096 -1.1259  0.6988  0.3458
 1388TIP3   OH225798   4.184   0.207   0.687  0.4564 -0.0576 -0.1464
 1388TIP3    H125799   4.270   0.237   0.716  0.8502 -1.0131 -0.2823
 1388TIP3    H225800   4.203   0.133   0.629 -0.4893 -0.7297  0.3818
 1389TIP3   OH225801   3.732   3.295   0.245  0.4292  0.4504 -0.1425
 1389TIP3    H125802   3.665   3.227   0.255  1.4220 -0.6166 -0.5272
 1389TIP3    H225803   3.685   3.370   0.207 -0.9383  0.4410  1.4443
 1390TIP3   OH225804   5.196   6.424   1.802 -0.7824 -0.6569  0.0662
 1390TIP3    H125805   5.134   6.493   1.776  0.1402 -0.5012 -1.9911
 1390TIP3    H225806   5.263   6.470   1.853 -1.4569 -0.5142  0.8380
 1391TIP3   OH225807   0.362   2.551   8.297  0.3087  0.0387  0.0470
 1391TIP3    H125808   0.392   2.607   8.226 -0.0153 -0.1069 -0.2084
 1391TIP3    H225809   0.355   2.609   8.373 -3.5019  1.2455 -1.0096
 1392TIP3   OH225810   0.828   4.779   6.720 -0.5303  0.0396 -0.0833
 1392TIP3    H125811   0.758   4.804   6.659 -1.6270  2.8875  2.0982
 1392TIP3    H225812   0.901   4.837   6.698 -0.1216 -0.4993 -0.1475
 1393TIP3   OH225813   4.715   0.980   8.095  0.0711 -0.0248  0.5046
 1393TIP3    H125814   4.718   0.967   8.000  0.4611 -2.1334  0.7621
 1393TIP3    H225815   4.622   0.971   8.117 -0.3566  2.6806  0.1101
 1394TIP3   OH225816   2.609   5.910   1.969  0.1653  0.0978 -0.6100
 1394TIP3    H125817   2.564   5.835   1.929  0.7309 -0.7939  0.3553
 1394TIP3    H225818   2.672   5.870   2.029 -0.9932  1.3237  1.5807
 1395TIP3   OH225819   6.918   3.899   7.045  0.5306  0.2164 -0.3458
 1395TIP3    H125820   6.845   3.953   7.077  1.5115  0.4305  1.7207
 1395TIP3    H225821   6.927   3.923   6.953 -1.3401  0.9344 -0.3871
 1396TIP3   OH225822   5.120   1.001   1.764  0.4338  0.6369 -0.3208
 1396TIP3    H125823   5.215   0.997   1.763  0.4136 -0.4263  0.2796
 1396TIP3    H225824   5.099   1.088   1.797  1.1935  0.9346 -0.6084
 1397TIP3   OH225825   3.729   0.408   1.344 -0.1445 -0.8883 -0.5717
 1397TIP3    H125826   3.793   0.338   1.328 -0.0018 -0.3699 -2.5565
 1397TIP3    H225827   3.649   0.362   1.368  0.9465 -1.5424  2.2760
 1398TIP3   OH225828   2.015   3.754   1.053 -0.5486  0.3539 -0.5952
 1398TIP3    H125829   2.006   3.659   1.038 -0.1879  0.4897 -1.7339
 1398TIP3    H225830   1.992   3.765   1.145 -0.2834 -0.8883 -0.3568
 1399TIP3   OH225831   3.636   2.130   1.416  0.0697  0.6232 -0.5203
 1399TIP3    H125832   3.677   2.055   1.459  0.0221  1.2458  0.6666
 1399TIP3    H225833   3.549   2.135   1.456  0.7179  2.4027  0.8507
 1400TIP3   OH225834   1.648   0.361   0.377 -0.1910 -0.0020 -0.5179
 1400TIP3    H125835   1.711   0.304   0.422  0.1681  0.4467 -0.4373
 1400TIP3    H225836   1.612   0.416   0.447  0.1708  0.5150 -0.7305
 1401TIP3   OH225837   4.182   0.839   1.378  1.1901 -0.1010 -0.1613
 1401TIP3    H125838   4.126   0.840   1.456  2.5186 -1.2413  0.8591
 1401TIP3    H225839   4.142   0.903   1.319 -1.9490 -1.7603 -0.0483
 1402TIP3   OH225840   0.335   5.672   0.617  0.1770  0.2424 -0.0414
 1402TIP3    H125841   0.402   5.609   0.647 -0.5493  0.0557  1.2738
 1402TIP3    H225842   0.385   5.749   0.590  1.0765 -0.7930 -1.4785
 1403TIP3   OH225843   5.553   4.864   8.139 -0.4170  0.2832 -0.6700
 1403TIP3    H125844   5.636   4.908   8.122 -0.2901 -0.5664 -2.3889
 1403TIP3    H225845   5.564   4.824   8.225  1.6198 -1.2977 -1.6084
 1404TIP3   OH225846   0.170   3.463   7.621 -0.8066 -0.2399 -0.1843
 1404TIP3    H125847   0.231   3.392   7.641  0.0216  0.3989 -0.3750
 1404TIP3    H225848   0.224   3.542   7.625 -1.6425  0.3453 -0.2985
 1405TIP3   OH225849   2.457   1.456   7.721  0.1530 -0.2810 -0.4240
 1405TIP3    H125850   2.419   1.527   7.772 -0.3011 -0.6742 -0.2173
 1405TIP3    H225851   2.414   1.377   7.752  1.5529 -0.8229  0.2530
 1406TIP3   OH225852   2.583   6.449   0.357  0.4349 -0.2426 -0.2258
 1406TIP3    H125853   2.531   6.432   0.436  1.2782 -0.3738  0.3068
 1406TIP3    H225854   2.555   6.381   0.295  0.5139 -0.7840  0.3233
 1407TIP3   OH225855   6.626   1.789   7.425  0.0924 -0.2216  0.5815
 1407TIP3    H125856   6.637   1.884   7.436  0.5126 -0.1537 -0.3430
 1407TIP3    H225857   6.542   1.780   7.380  0.6688 -0.1984 -0.5258
 1408TIP3   OH225858   4.138   4.464   0.805 -0.1023  0.1435  0.2150
 1408TIP3    H125859   4.208   4.530   0.800 -0.3000  0.2771 -1.2269
 1408TIP3    H225860   4.154   4.408   0.729 -0.9829 -0.4157  0.4367
 1409TIP3   OH225861   2.291   4.004   7.489 -0.1049 -0.0980 -0.7994
 1409TIP3    H125862   2.267   4.035   7.402  0.2943 -0.3085 -0.9867
 1409TIP3    H225863   2.275   4.080   7.547  1.8479  0.8484 -1.4044
 1410TIP3   OH225864   5.182   0.051   7.346 -0.3368 -0.0458  0.1475
 1410TIP3    H125865   5.218  -0.033   7.319 -1.3752 -0.4407 -0.0745
 1410TIP3    H225866   5.239   0.116   7.306 -0.2317 -0.6462 -0.7011
 1411TIP3   OH225867   3.493   0.401   1.725 -0.1697  0.0776  0.5340
 1411TIP3    H125868   3.463   0.358   1.646 -0.1464 -0.0669  0.6046
 1411TIP3    H225869   3.524   0.487   1.695  1.4625 -0.6085  0.1228
 1412TIP3   OH225870   0.647   6.950   0.177  0.5646 -0.0916 -0.7130
 1412TIP3    H125871   0.662   7.003   0.099 -0.5831 -0.4383 -1.1896
 1412TIP3    H225872   0.644   6.860   0.145  0.9319 -0.3113 -0.1455
 1413TIP3   OH225873   3.705   2.411   7.872 -0.6768 -0.2120 -0.1373
 1413TIP3    H125874   3.655   2.387   7.794 -1.1208  1.5347 -0.4452
 1413TIP3    H225875   3.639   2.431   7.938 -0.3633  0.5363 -0.0404
 1414TIP3   OH225876   2.329   0.293   1.423  0.3518  0.3503  0.4492
 1414TIP3    H125877   2.317   0.273   1.516 -1.8861 -2.4662 -0.2911
 1414TIP3    H225878   2.419   0.266   1.404  0.0119 -1.5601  1.3237
 1415TIP3   OH225879   0.545   0.348   7.595  0.3545  0.0870  0.7112
 1415TIP3    H125880   0.594   0.429   7.586  0.7638 -0.0487  1.5994
 1415TIP3    H225881   0.592   0.298   7.662 -1.0803  0.0345  1.7368
 1416TIP3   OH225882   6.095   2.342   8.441 -0.1928  0.3518 -0.7653
 1416TIP3    H125883   6.098   2.349   8.537 -0.3883 -1.1321 -0.6351
 1416TIP3    H225884   6.004   2.360   8.418 -0.2252  0.3359 -0.6492
 1417TIP3   OH225885   5.168   4.095   1.439 -0.0297  0.0723 -0.2382
 1417TIP3    H125886   5.150   4.077   1.531 -0.7392 -1.6476 -0.6598
 1417TIP3    H225887   5.261   4.118   1.436  0.0528 -0.0588  0.8710
 1418TIP3   OH225888   0.739   0.507   0.947  0.1886 -0.1067 -0.5521
 1418TIP3    H125889   0.687   0.543   0.875  2.2042 -1.2852 -2.7491
 1418TIP3    H225890   0.813   0.464   0.904  1.3385 -1.1805  2.2465
 1419TIP3   OH225891   3.991   1.667   6.948 -0.1641  0.6161 -0.7946
 1419TIP3    H125892   4.012   1.706   7.032  0.3388 -0.6420 -0.3195
 1419TIP3    H225893   3.917   1.608   6.966  2.0607 -2.2691 -0.4593
 1420TIP3   OH225894   3.240   1.278   2.023  0.1823 -0.5007  0.0672
 1420TIP3    H125895   3.227   1.372   2.041  0.3844 -0.4315 -0.1371
 1420TIP3    H225896   3.158   1.237   2.050 -0.3047 -0.1278 -0.7890
 1421TIP3   OH225897   6.122   3.117   8.430 -0.4106 -0.1783 -0.2672
 1421TIP3    H125898   6.029   3.111   8.405 -0.4637 -1.5882  0.1485
 1421TIP3    H225899   6.169   3.079   8.356 -0.1064  1.0091 -0.6993
 1422TIP3   OH225900   2.220   4.693   2.172  0.0070 -0.1018  0.6127
 1422TIP3    H125901   2.160   4.647   2.230 -1.7419  0.5580 -0.6118
 1422TIP3    H225902   2.296   4.635   2.166 -2.2449 -3.1300 -1.2075
 1423TIP3   OH225903   3.489   0.397   1.031 -0.1552 -0.0909  0.0135
 1423TIP3    H125904   3.421   0.372   0.969 -0.5738  0.6347  0.1702
 1423TIP3    H225905   3.559   0.432   0.976  0.2968 -1.2404 -0.1824
 1424TIP3   OH225906   2.583   3.634   1.269  0.0629 -0.6712 -0.2749
 1424TIP3    H125907   2.532   3.618   1.190  0.2997 -2.3009 -0.1414
 1424TIP3    H225908   2.672   3.610   1.246  0.0409 -1.7028  0.6151
 1425TIP3   OH225909   1.579   5.470   0.403  0.0415 -0.0083 -0.3242
 1425TIP3    H125910   1.511   5.422   0.355 -0.8448  1.2401 -0.3488
 1425TIP3    H225911   1.660   5.445   0.359 -0.4633 -0.9312 -0.7771
 1426TIP3   OH225912   6.498   4.209   1.681  0.0271  0.7114  0.5012
 1426TIP3    H125913   6.578   4.157   1.675  0.7705  1.7430  1.1684
 1426TIP3    H225914   6.478   4.233   1.591  0.7577  0.8598  0.3735
 1427TIP3   OH225915   3.215   5.068   8.045 -0.3224 -0.6391  0.3433
 1427TIP3    H125916   3.210   5.049   7.951 -0.8426 -0.3740  0.3171
 1427TIP3    H225917   3.159   5.145   8.057  0.8259  0.1744  0.6413
 1428TIP3   OH225918   5.685   4.658   7.486  0.5680 -0.2854  0.2749
 1428TIP3    H125919   5.748   4.730   7.483 -1.7913  1.9825  1.1168
 1428TIP3    H225920   5.652   4.659   7.576 -2.8071  0.7261 -0.8241
 1429TIP3   OH225921   4.917   0.454   0.712  0.0073 -0.0734  0.1449
 1429TIP3    H125922   4.835   0.497   0.687  0.0710 -0.0751 -0.0699
 1429TIP3    H225923   4.915   0.452   0.808  0.8919  2.1755  0.2652
 1430TIP3   OH225924   4.394   3.470   8.513  0.3897  0.5202 -0.2391
 1430TIP3    H125925   4.423   3.411   8.443  0.1930 -1.2309  1.0746
 1430TIP3    H225926   4.457   3.455   8.584 -0.9420  0.2257  0.9255
 1431TIP3   OH225927   5.353   3.245   1.518  0.1897 -0.0709 -0.6809
 1431TIP3    H125928   5.428   3.249   1.459  1.4203 -0.2929  0.7832
 1431TIP3    H225929   5.391   3.223   1.603 -1.6333 -0.9557 -0.0316
 1432TIP3   OH225930   2.336   2.298   2.190 -0.2916  0.1525  0.6784
 1432TIP3    H125931   2.426   2.328   2.173 -0.6370  0.7222 -0.1914
 1432TIP3    H225932   2.336   2.206   2.166  0.4517 -0.2604  2.1489
 1433TIP3   OH225933   3.137   4.069   1.293 -0.3629 -0.1683  0.2143
 1433TIP3    H125934   3.158   3.979   1.317 -0.1285 -0.5283 -1.2702
 1433TIP3    H225935   3.210   4.098   1.239 -0.4571  0.9045  0.6328
 1434TIP3   OH225936   0.620   5.042   8.497 -0.1952  0.0198  0.0257
 1434TIP3    H125937   0.590   4.953   8.518 -0.3147 -0.3475 -1.5270
 1434TIP3    H225938   0.709   5.030   8.465 -0.3109  0.4201 -0.4615
 1435TIP3   OH225939   0.768   5.231   1.866  0.0856 -0.0015  0.5921
 1435TIP3    H125940   0.845   5.219   1.810  0.7068  0.6417  1.2960
 1435TIP3    H225941   0.737   5.319   1.845  0.3225  0.2445  1.2483
 1436TIP3   OH225942   3.928   5.622   2.398 -0.2436 -0.2723  0.1523
 1436TIP3    H125943   3.997   5.656   2.454  0.7783 -0.3538 -1.0108
 1436TIP3    H225944   3.860   5.592   2.458 -0.4639  2.2369  1.2803
 1437TIP3   OH225945   3.614   3.751   1.314 -0.2028 -0.1012 -0.3893
 1437TIP3    H125946   3.651   3.787   1.233 -0.8072 -0.1899 -0.7076
 1437TIP3    H225947   3.678   3.685   1.341  1.1477  1.4519  0.4341
 1438TIP3   OH225948   5.923   0.641   2.254  0.1052  0.2371 -0.7075
 1438TIP3    H125949   5.911   0.547   2.267 -0.2404 -0.0023 -2.4421
 1438TIP3    H225950   5.835   0.677   2.262  0.0376  0.2170 -1.2955
 1439TIP3   OH225951   6.553   4.706   1.932  0.1238 -0.1246  0.2761
 1439TIP3    H125952   6.492   4.646   1.975  0.7245 -0.9484  0.0032
 1439TIP3    H225953   6.634   4.698   1.983  0.1665  0.5748  0.3285
 1440TIP3   OH225954   1.557   4.242   2.215  0.1941 -0.8184 -0.0233
 1440TIP3    H125955   1.516   4.249   2.129 -2.1792 -2.0523  0.9083
 1440TIP3    H225956   1.483   4.242   2.277  1.8436  0.8787  2.1093
 1441TIP3   OH225957   4.481   2.738   0.169 -0.1360  0.2502  0.5269
 1441TIP3    H125958   4.574   2.747   0.190 -0.2800  1.8834  0.5657
 1441TIP3    H225959   4.445   2.688   0.242  0.7056 -0.4511  0.4855
 1442TIP3   OH225960   3.216   4.937   7.802  0.7007 -0.4335 -0.4618
 1442TIP3    H125961   3.181   4.862   7.850  0.3225 -1.1700 -1.8161
 1442TIP3    H225962   3.192   4.919   7.711  1.5246  0.8262 -0.9450
 1443TIP3   OH225963   5.405   4.987   6.732  0.3562 -0.3245 -0.0149
 1443TIP3    H125964   5.385   5.075   6.765  1.2247  0.1883 -0.8074
 1443TIP3    H225965   5.350   4.929   6.785 -2.7173  0.8894 -1.6185
 1444TIP3   OH225966   2.192   1.310   0.909 -0.4039  0.6472  0.4815
 1444TIP3    H125967   2.218   1.387   0.858  1.9324 -1.4785 -1.8478
 1444TIP3    H225968   2.271   1.287   0.960 -0.3636 -1.2367 -0.3427
 1445TIP3   OH225969   4.071   0.835   1.959  0.0125 -0.2500 -0.2883
 1445TIP3    H125970   4.040   0.808   1.873 -2.5200  1.1871  0.0767
 1445TIP3    H225971   4.140   0.772   1.981  0.9980 -0.4289 -3.4734
 1446TIP3   OH225972   1.225   1.722   7.769 -0.2820 -0.1354 -0.3794
 1446TIP3    H125973   1.301   1.690   7.722 -0.9549  0.9249 -2.2848
 1446TIP3    H225974   1.161   1.651   7.765  0.0982 -0.5012  0.0127
 1447TIP3   OH225975   6.622   4.803   0.254 -0.0886  0.3455 -0.1576
 1447TIP3    H125976   6.671   4.786   0.335 -0.5314  0.9405  0.2422
 1447TIP3    H225977   6.554   4.864   0.280  0.7108  1.7929 -1.2920
 1448TIP3   OH225978   6.628   0.452   6.885  0.0046  0.3779  0.8074
 1448TIP3    H125979   6.648   0.361   6.904 -0.2526  0.5838  2.1943
 1448TIP3    H225980   6.536   0.452   6.860  0.1639  0.1842  0.2192
 1449TIP3   OH225981   6.300   6.830   1.676  0.5143 -0.2382 -0.0893
 1449TIP3    H125982   6.254   6.893   1.731  1.1488 -0.9323  1.2805
 1449TIP3    H225983   6.322   6.879   1.596 -1.6523  0.3905 -0.3649
 1450TIP3   OH225984   4.701   4.499   0.796  0.0717 -0.6169 -0.0225
 1450TIP3    H125985   4.684   4.457   0.880 -0.3310 -0.3369  0.0378
 1450TIP3    H225986   4.772   4.561   0.814 -0.0522 -0.5164  0.1263
 1451TIP3   OH225987   0.174   1.001   0.666  0.2213 -0.6234  0.4593
 1451TIP3    H125988   0.168   0.938   0.738  1.0779 -0.7895  0.3968
 1451TIP3    H225989   0.110   0.969   0.601  0.4605 -1.2810  0.5415
 1452TIP3   OH225990   3.774   0.654   7.353 -0.3398 -0.4313 -0.4435
 1452TIP3    H125991   3.790   0.747   7.368  3.1219 -0.6906 -1.6100
 1452TIP3    H225992   3.808   0.611   7.431 -1.9998 -0.7673  0.1254
 1453TIP3   OH225993   6.310   4.138   8.077 -0.2458 -0.1497  0.1232
 1453TIP3    H125994   6.299   4.054   8.033  0.8847 -1.1054  1.5884
 1453TIP3    H225995   6.221   4.167   8.096 -0.6394 -1.6907  0.7859
 1454TIP3   OH225996   5.654   1.393   8.017  0.2599 -0.4038  0.4015
 1454TIP3    H125997   5.676   1.302   7.993 -0.9418 -0.9922  1.4249
 1454TIP3    H225998   5.584   1.384   8.082  0.7204  1.2417  1.1651
 1455TIP3   OH225999   6.418   3.711   2.701 -0.0082 -0.4031  0.3008
 1455TIP3    H126000   6.458   3.662   2.772  0.0246  0.2116  0.7078
 1455TIP3    H226001   6.342   3.658   2.675 -0.4008 -0.3094  1.2305
 1456TIP3   OH226002   5.995   5.534   7.064 -0.1405  1.0957  0.1694
 1456TIP3    H126003   6.030   5.464   7.010 -0.5602  0.0830  1.1695
 1456TIP3    H226004   6.066   5.598   7.069  0.1659  0.8651 -0.9465
 1457TIP3   OH226005   5.461   1.512   7.351  0.1117  0.5154  0.0423
 1457TIP3    H126006   5.547   1.553   7.338 -0.4999  1.7253 -0.3780
 1457TIP3    H226007   5.457   1.494   7.444  1.6583 -1.5321 -0.2138
 1458TIP3   OH226008   0.680   6.671   1.870 -0.2722  0.4577  0.6510
 1458TIP3    H126009   0.617   6.603   1.845 -0.6220  0.5361  1.2975
 1458TIP3    H226010   0.681   6.668   1.966  2.8068 -1.5228  0.6953
 1459TIP3   OH226011   1.065   4.428   7.897 -0.0530  0.5988 -0.4116
 1459TIP3    H126012   1.005   4.501   7.882  1.0759  1.6359 -0.1233
 1459TIP3    H226013   1.152   4.468   7.892  0.6116 -0.8156 -0.6328
 1460TIP3   OH226014   1.163   0.142   2.144  0.0173 -0.1788  0.1482
 1460TIP3    H126015   1.068   0.140   2.131  0.0478 -1.0555 -0.0159
 1460TIP3    H226016   1.176   0.093   2.226  0.3948 -0.8530 -0.3107
 1461TIP3   OH226017   2.983   0.190   7.970 -0.0952  0.4065  0.3293
 1461TIP3    H126018   3.078   0.200   7.974  0.5463 -2.8716 -2.3888
 1461TIP3    H226019   2.956   0.246   7.897  0.0517 -0.0976 -0.1161
 1462TIP3   OH226020   5.191   1.226   0.805 -0.4314 -0.4477 -0.0054
 1462TIP3    H126021   5.127   1.296   0.803  1.0300  0.9256 -0.8366
 1462TIP3    H226022   5.145   1.149   0.771 -1.7682  0.3604 -0.0551
 1463TIP3   OH226023   4.555   6.198   1.976  0.4452 -0.0896  0.0498
 1463TIP3    H126024   4.576   6.168   2.064  1.3026 -1.8624 -0.7014
 1463TIP3    H226025   4.525   6.119   1.931  2.9641  0.0477 -2.0992
 1464TIP3   OH226026   0.345   1.704   8.045  0.1329  0.1835 -0.5570
 1464TIP3    H126027   0.357   1.775   8.108  0.1292  0.1689 -0.5393
 1464TIP3    H226028   0.411   1.720   7.978  0.7233 -0.2896 -0.0984
 1465TIP3   OH226029   4.098   6.688   7.661 -0.0309 -0.1719 -0.2749
 1465TIP3    H126030   4.036   6.742   7.613 -0.9264 -1.5290 -0.7023
 1465TIP3    H226031   4.161   6.660   7.595  0.3799  0.2495 -0.0717
 1466TIP3   OH226032   4.326   0.268   1.451  0.6023 -0.5605  0.0730
 1466TIP3    H126033   4.319   0.303   1.362  0.3407  0.3939  0.4625
 1466TIP3    H226034   4.292   0.179   1.443  1.1163 -0.6892 -0.8971
 1467TIP3   OH226035   0.275   5.324   0.239 -0.5104  0.5660  0.3369
 1467TIP3    H126036   0.198   5.268   0.229 -1.1959  1.1760  1.9550
 1467TIP3    H226037   0.349   5.264   0.234 -1.1088 -0.1322 -0.5071
 1468TIP3   OH226038   1.039   0.281   6.882  0.0627 -0.1018  0.0111
 1468TIP3    H126039   1.027   0.265   6.975 -0.3280  0.3439  0.0411
 1468TIP3    H226040   0.953   0.262   6.843  0.2048 -0.2199 -0.2507
 1469TIP3   OH226041   6.092   0.592   0.406  0.6461  0.2536  0.7974
 1469TIP3    H126042   6.162   0.651   0.378  0.0745  1.6704  2.1672
 1469TIP3    H226043   6.113   0.572   0.497  1.9515 -3.4467 -0.1667
 1470TIP3   OH226044   4.874   1.882   2.202 -0.0332  0.1575 -0.4189
 1470TIP3    H126045   4.827   1.869   2.120 -2.3277  1.8877  0.5127
 1470TIP3    H226046   4.807   1.911   2.264  1.4472 -1.7593  2.3060
 1471TIP3   OH226047   0.240   5.992   2.034  0.6240  0.1191 -0.4638
 1471TIP3    H126048   0.213   6.082   2.052 -1.7754 -0.6933  0.3191
 1471TIP3    H226049   0.247   5.951   2.120  1.3920 -0.5367 -0.8226
 1472TIP3   OH226050   0.283   2.200   1.871  0.5563  0.3486 -0.2490
 1472TIP3    H126051   0.336   2.243   1.803 -0.0548  1.6741  0.0701
 1472TIP3    H226052   0.193   2.216   1.844  0.3126  0.4078  0.5835
 1473TIP3   OH226053   4.023   2.171   7.531  0.0220  0.4516 -0.4774
 1473TIP3    H126054   4.033   2.119   7.452 -1.0104  0.1763 -0.4482
 1473TIP3    H226055   3.937   2.145   7.565  0.5790  0.3325  0.8962
 1474TIP3   OH226056   6.674   1.900   8.507  0.3173  0.2074  0.0715
 1474TIP3    H126057   6.678   1.942   8.592  1.7916 -0.6137  0.4333
 1474TIP3    H226058   6.620   1.823   8.521  0.9063 -0.1545  0.3752
 1475TIP3   OH226059   5.888   0.326   6.673  0.6603  0.0279 -0.4129
 1475TIP3    H126060   5.843   0.409   6.681 -0.4876 -0.5695 -0.4356
 1475TIP3    H226061   5.971   0.338   6.719  0.1304  0.9012  0.3256
 1476TIP3   OH226062   3.369   1.473   8.170 -0.1019  0.7825 -0.3245
 1476TIP3    H126063   3.273   1.469   8.163 -0.2550  1.4021  1.0630
 1476TIP3    H226064   3.400   1.401   8.116 -1.3546  0.5144 -0.7236
 1477TIP3   OH226065   6.577   6.880   2.147 -0.2256 -0.1269 -0.4901
 1477TIP3    H126066   6.560   6.969   2.118 -0.2614 -0.5816 -1.9506
 1477TIP3    H226067   6.580   6.885   2.243  0.2899  1.5174 -0.5702
 1478TIP3   OH226068   5.521   6.695   7.564 -0.6765 -0.1363  0.8327
 1478TIP3    H126069   5.502   6.647   7.483 -1.4471  1.4520  0.0227
 1478TIP3    H226070   5.601   6.654   7.598 -0.1512 -0.6514 -0.9134
 1479TIP3   OH226071   6.736   5.637   2.587 -0.4468 -0.4234  0.3670
 1479TIP3    H126072   6.657   5.598   2.624  0.4847  0.4598  3.5383
 1479TIP3    H226073   6.807   5.586   2.624  0.5974  1.1045  0.5374
 1480TIP3   OH226074   3.316   6.690   0.206 -0.3134  0.4274  0.5944
 1480TIP3    H126075   3.221   6.678   0.195 -0.4676  0.3127  1.8900
 1480TIP3    H226076   3.347   6.605   0.238  0.6560 -0.3226 -1.9912
 1481TIP3   OH226077   1.222   1.403   0.052 -0.4883 -0.1953 -0.2107
 1481TIP3    H126078   1.138   1.357   0.050 -1.0085  0.6839  0.4695
 1481TIP3    H226079   1.273   1.358   0.119  0.1332 -1.5982 -1.5607
 1482TIP3   OH226080   6.407   2.333   1.734  0.2419 -0.3297  0.2390
 1482TIP3    H126081   6.314   2.327   1.754 -0.1471 -1.6671 -1.6758
 1482TIP3    H226082   6.410   2.377   1.649  1.4587  0.7809  0.8276
 1483TIP3   OH226083   6.680   0.840   8.440  0.0072 -0.3125 -0.1075
 1483TIP3    H126084   6.664   0.909   8.504  1.6268  0.2211 -0.2358
 1483TIP3    H226085   6.637   0.762   8.478 -2.2953  0.8099 -0.2040
 1484TIP3   OH226086   2.092   0.335   0.666  0.1169  0.2134 -0.4059
 1484TIP3    H126087   2.006   0.371   0.685 -0.9120 -2.9919  1.8144
 1484TIP3    H226088   2.148   0.368   0.736 -0.4902 -1.1932  0.8067
 1485TIP3   OH226089   4.824   5.211   0.376  0.4492 -0.0361 -0.0049
 1485TIP3    H126090   4.766   5.144   0.411 -0.1396 -0.4093 -1.5906
 1485TIP3    H226091   4.852   5.261   0.452 -2.5114  0.5926  0.8037
 1486TIP3   OH226092   1.229   1.638   1.998  0.3528 -0.0745 -0.2156
 1486TIP3    H126093   1.206   1.574   2.065  0.2500 -1.4016 -1.4669
 1486TIP3    H226094   1.223   1.723   2.042  0.5974 -0.9206  1.5205
 1487TIP3   OH226095   2.729   0.068   7.832  0.1137  0.5875 -0.1567
 1487TIP3    H126096   2.774  -0.010   7.801  0.2974  0.2091  1.0314
 1487TIP3    H226097   2.799   0.130   7.853  0.0064  0.6821 -0.0763
 1488TIP3   OH226098   1.054   1.742   7.561 -0.1251 -0.9393  0.3278
 1488TIP3    H126099   0.959   1.749   7.569 -0.4249  1.2650 -2.9727
 1488TIP3    H226100   1.088   1.789   7.637 -1.6667 -0.9530  1.0736
 1489TIP3   OH226101   1.620   4.071   0.320  0.3968 -0.0171 -0.2298
 1489TIP3    H126102   1.599   3.984   0.284  1.1079 -1.0161  1.5964
 1489TIP3    H226103   1.590   4.066   0.411  0.0575  1.8382 -0.2141
 1490TIP3   OH226104   0.056   2.590   0.869 -0.0092 -0.4540 -0.1014
 1490TIP3    H126105   0.020   2.679   0.862  0.0447 -0.0547  3.1486
 1490TIP3    H226106   0.143   2.602   0.906  0.0827 -1.8475  0.1977
 1491TIP3   OH226107   0.284   1.889   2.532 -0.5008 -0.0402 -0.5003
 1491TIP3    H126108   0.292   1.852   2.620 -0.7436  0.4458 -0.2703
 1491TIP3    H226109   0.365   1.863   2.488 -0.7167 -0.9468 -0.3887
 1492TIP3   OH226110   4.095   6.730   2.220 -0.6194 -0.8119 -0.0283
 1492TIP3    H126111   4.130   6.664   2.279 -1.1119  0.3594  1.6750
 1492TIP3    H226112   4.054   6.794   2.279 -1.9104 -0.0269 -1.7062
 1493TIP3   OH226113   6.743   6.560   7.981 -0.2497  0.1030 -0.5441
 1493TIP3    H126114   6.694   6.572   7.900 -2.0319 -2.7358 -0.0032
 1493TIP3    H226115   6.684   6.589   8.050  1.3745  2.8216 -0.1245
 1494TIP3   OH226116   0.187   4.920   0.224  0.1049 -0.6308  0.0450
 1494TIP3    H126117   0.148   5.007   0.229 -0.4810 -0.8625 -0.4303
 1494TIP3    H226118   0.254   4.920   0.292  0.1388  0.2066  0.0158
 1495TIP3   OH226119   2.555   3.714   7.830 -0.7163 -0.1306 -0.5767
 1495TIP3    H126120   2.472   3.758   7.810 -0.8875  0.3685  1.0639
 1495TIP3    H226121   2.532   3.651   7.899  0.0650 -0.7717 -0.8941
 1496TIP3   OH226122   5.166   4.155   0.174  0.6611 -1.2326 -0.5404
 1496TIP3    H126123   5.107   4.199   0.234  1.6677 -0.6450  0.0409
 1496TIP3    H226124   5.113   4.140   0.095 -0.5198 -1.5728  0.3024
 1497TIP3   OH226125   5.628   4.868   0.458  0.2116  0.3907  0.1753
 1497TIP3    H126126   5.650   4.775   0.463  0.1546  0.4065  0.8401
 1497TIP3    H226127   5.551   4.872   0.402  0.6263  0.1111 -0.4219
 1498TIP3   OH226128   4.129   4.795   8.298  0.0353 -0.3442 -0.1548
 1498TIP3    H126129   4.035   4.797   8.280  0.0772  1.9131 -0.3779
 1498TIP3    H226130   4.165   4.867   8.246  1.3838  1.0505  2.4976
 1499TIP3   OH226131   1.280   2.985   7.614  0.0805  0.1066 -0.1801
 1499TIP3    H126132   1.217   3.055   7.631 -0.9438 -0.8976  0.3528
 1499TIP3    H226133   1.323   3.010   7.533 -0.0234  1.5077  0.1699
 1500TIP3   OH226134   0.338   3.787   8.231 -0.5141 -0.4786  1.0957
 1500TIP3    H126135   0.399   3.860   8.239 -2.2182  1.0437  1.0431
 1500TIP3    H226136   0.291   3.786   8.314 -1.8515 -0.2135  0.3761
 1501TIP3   OH226137   3.371   1.363   0.792  0.2135 -0.1852  0.2216
 1501TIP3    H126138   3.420   1.445   0.794  0.5678 -0.3966  0.4652
 1501TIP3    H226139   3.280   1.389   0.775  0.4538  0.1891 -0.5495
 1502TIP3   OH226140   2.945   6.841   7.827 -0.7264 -0.3903  0.1825
 1502TIP3    H126141   2.969   6.748   7.819 -2.4945 -0.8359 -0.3651
 1502TIP3    H226142   2.961   6.862   7.919 -1.1848 -1.5063  0.5297
 1503TIP3   OH226143   6.108   0.265   2.091 -0.3339  0.6117 -0.0565
 1503TIP3    H126144   6.102   0.287   1.998  1.4521 -0.9445 -0.6322
 1503TIP3    H226145   6.026   0.219   2.110 -0.3810  0.1988 -1.1267
 1504TIP3   OH226146   0.298   5.091   7.373 -0.1318 -0.5302  0.4592
 1504TIP3    H126147   0.294   5.150   7.448 -0.2103  0.0836 -0.0220
 1504TIP3    H226148   0.325   5.007   7.410 -1.4207 -0.5723  1.3737
 1505TIP3   OH226149   4.166   5.208   8.445  0.4355 -0.1781  0.0033
 1505TIP3    H126150   4.234   5.149   8.414  0.0145  0.0034 -1.3386
 1505TIP3    H226151   4.128   5.245   8.366 -1.0973 -0.1212  0.7144
 1506TIP3   OH226152   0.400   3.627   0.629  0.4715  0.0252  0.1779
 1506TIP3    H126153   0.469   3.592   0.573 -0.7203 -1.5382 -0.3980
 1506TIP3    H226154   0.357   3.550   0.666 -1.0324  0.9274  0.4171
 1507TIP3   OH226155   1.711   5.811   1.096  0.4185  0.5209 -0.3669
 1507TIP3    H126156   1.777   5.855   1.149  0.9727 -0.3368 -0.3312
 1507TIP3    H226157   1.666   5.753   1.157  0.5152  0.1305 -0.6609
 1508TIP3   OH226158   0.750   1.055   1.663 -0.0580 -0.0707  0.3531
 1508TIP3    H126159   0.792   1.082   1.581 -1.0564  0.9159  0.1417
 1508TIP3    H226160   0.676   1.116   1.673 -1.9769 -2.2571  0.2644
 1509TIP3   OH226161   2.325   5.118   1.836 -0.0118 -0.4291 -0.2794
 1509TIP3    H126162   2.347   5.032   1.872  2.1087  0.5054  0.8542
 1509TIP3    H226163   2.398   5.139   1.779  1.2410  1.9700  2.0186
 1510TIP3   OH226164   3.586   6.793   8.441 -0.4343 -0.4908 -0.7551
 1510TIP3    H126165   3.610   6.756   8.526 -1.6871 -0.9224 -0.5705
 1510TIP3    H226166   3.497   6.762   8.426 -1.4839  2.2518 -0.7139
 1511TIP3   OH226167   1.329   6.015   0.239 -0.2088  0.2634 -0.2170
 1511TIP3    H126168   1.409   6.068   0.249  0.4279 -1.0422  3.1157
 1511TIP3    H226169   1.274   6.041   0.312 -2.3892  0.2757 -1.7846
 1512TIP3   OH226170   4.613   2.051   6.973 -0.6494 -0.2181  0.2676
 1512TIP3    H126171   4.537   2.092   6.932 -1.4414  0.1535  2.0413
 1512TIP3    H226172   4.610   1.960   6.944 -0.4732  0.2779 -1.4418
 1513TIP3   OH226173   5.459   5.011   0.228 -0.1828 -0.4952 -0.2159
 1513TIP3    H126174   5.541   5.045   0.194  0.0172 -0.7444  0.0064
 1513TIP3    H226175   5.394   5.079   0.209  0.1423 -0.1449 -0.0837
 1514TIP3   OH226176   4.967   2.420   0.105 -0.3263 -0.2770  0.0998
 1514TIP3    H126177   5.011   2.340   0.133 -0.0630 -0.1003  0.1956
 1514TIP3    H226178   4.896   2.431   0.169  0.7989  0.5965  1.2659
 1515TIP3   OH226179   4.792   5.650   0.878  0.0797  0.6086 -0.7397
 1515TIP3    H126180   4.860   5.598   0.920 -0.5341  0.3212 -0.0930
 1515TIP3    H226181   4.774   5.604   0.796 -0.4960 -0.2470 -0.1481
 1516TIP3   OH226182   5.101   3.092   0.577 -0.0007 -0.3190  0.2263
 1516TIP3    H126183   5.082   3.108   0.485  1.3743 -0.2326 -0.0640
 1516TIP3    H226184   5.160   3.163   0.603  0.4976 -0.9406  0.8621
 1517TIP3   OH226185   5.302   0.204   0.967  0.1718  0.1580  0.2026
 1517TIP3    H126186   5.222   0.189   0.917 -0.7146  0.6431  1.4190
 1517TIP3    H226187   5.354   0.126   0.954 -0.7390 -0.4001 -0.1825
 1518TIP3   OH226188   3.739   3.724   7.253  0.2596  0.0233  0.8390
 1518TIP3    H126189   3.824   3.684   7.234  0.0502  0.6202 -1.6786
 1518TIP3    H226190   3.755   3.818   7.247 -0.6131  0.1396  0.1667
 1519TIP3   OH226191   2.981   4.649   8.201 -0.2996 -0.4502 -0.5509
 1519TIP3    H126192   2.913   4.634   8.135 -0.4465  1.0525 -0.7723
 1519TIP3    H226193   2.934   4.680   8.278  0.2042  3.0327 -1.4676
 1520TIP3   OH226194   1.459   3.335   0.463  0.7073  0.7135  0.4116
 1520TIP3    H126195   1.509   3.315   0.542  3.3393 -1.5395 -1.6069
 1520TIP3    H226196   1.500   3.415   0.429  0.2105  1.1423  0.8072
 1521TIP3   OH226197   1.806   1.575   7.344  0.2614  0.2748  0.1001
 1521TIP3    H126198   1.818   1.670   7.339  2.8813  0.0902  1.5396
 1521TIP3    H226199   1.826   1.544   7.255  0.5617  0.9576 -0.0771
 1522TIP3   OH226200   4.349   4.210   7.717  0.0153  0.1072  0.5187
 1522TIP3    H126201   4.315   4.203   7.806 -0.7036  0.1206  0.2499
 1522TIP3    H226202   4.425   4.152   7.716  0.2381  0.3746  1.2388
 1523TIP3   OH226203   6.946   1.708   3.079 -0.5244  0.5720 -0.0730
 1523TIP3    H126204   7.035   1.675   3.063 -0.4802  0.1702  0.8757
 1523TIP3    H226205   6.956   1.766   3.154 -0.9904  0.9072 -0.2698
 1524TIP3   OH226206   3.373   0.499   6.610  0.0578 -0.1829  0.0049
 1524TIP3    H126207   3.432   0.434   6.649  1.4543  1.1071  0.1110
 1524TIP3    H226208   3.381   0.576   6.667 -2.4150 -0.2350  0.5289
 1525TIP3   OH226209   1.780   1.404   7.793  0.1932  0.3986 -0.4808
 1525TIP3    H126210   1.831   1.462   7.736 -1.0616  1.0918 -0.9484
 1525TIP3    H226211   1.700   1.454   7.812 -0.7278 -0.9945 -0.5251
 1526TIP3   OH226212   4.690   1.985   7.598 -0.0608  0.2840  0.2498
 1526TIP3    H126213   4.782   1.980   7.569 -0.3593  0.2754 -0.7207
 1526TIP3    H226214   4.693   1.959   7.690  0.4303 -3.6703 -0.6921
 1527TIP3   OH226215   6.356   4.574   2.580  0.5955  0.1292 -0.5001
 1527TIP3    H126216   6.440   4.530   2.568  0.2902 -0.7240  0.3536
 1527TIP3    H226217   6.371   4.635   2.652  0.6794  0.5408 -0.8592
 1528TIP3   OH226218   0.401   0.123   7.483 -0.0332 -0.1867  0.7865
 1528TIP3    H126219   0.370   0.072   7.557 -2.6439  0.8571  0.5351
 1528TIP3    H226220   0.454   0.193   7.522  0.6450 -1.0237  1.4028
 1529TIP3   OH226221   5.736   2.670   7.551 -0.1704  0.6187 -0.0858
 1529TIP3    H126222   5.766   2.750   7.508  0.7038 -0.3749 -1.4188
 1529TIP3    H226223   5.687   2.623   7.483  0.4075 -0.5529  0.2723
 1530TIP3   OH226224   5.569   1.400   1.852 -0.1643 -0.0753 -0.3786
 1530TIP3    H126225   5.609   1.314   1.865  0.7908  0.4960  0.6590
 1530TIP3    H226226   5.588   1.447   1.933 -0.1406  1.3240 -1.1725
 1531TIP3   OH226227   5.353   1.042   0.515 -0.3005  0.0929 -0.1655
 1531TIP3    H126228   5.434   1.036   0.466 -1.8542  0.4842 -3.0283
 1531TIP3    H226229   5.330   1.135   0.513 -1.2494 -0.1289 -0.2015
 1532TIP3   OH226230   5.122   3.472   0.349 -0.0810  0.1928 -0.0150
 1532TIP3    H126231   5.111   3.483   0.255 -0.8173 -1.6531 -0.1896
 1532TIP3    H226232   5.064   3.538   0.388 -0.7687  0.1028 -0.8617
 1533TIP3   OH226233   0.843   3.623   6.989  0.1617 -0.2612  0.5302
 1533TIP3    H126234   0.860   3.645   7.081 -1.3758  1.7532  0.3964
 1533TIP3    H226235   0.928   3.636   6.946  0.5537  0.2375  1.4152
 1534TIP3   OH226236   1.121   3.878   2.068 -1.1055  0.3895 -0.3640
 1534TIP3    H126237   1.216   3.883   2.055 -1.0537 -1.3979 -0.8909
 1534TIP3    H226238   1.096   3.792   2.034 -2.6480  0.0404  1.4902
 1535TIP3   OH226239   2.356   0.462   1.887 -0.0205  0.2765  0.0086
 1535TIP3    H126240   2.371   0.398   1.817 -1.3971  0.2653 -0.2988
 1535TIP3    H226241   2.379   0.415   1.967 -1.3914 -0.7697 -0.1739
 1536TIP3   OH226242   6.192   2.495   7.667 -0.1488 -0.2426  0.2177
 1536TIP3    H126243   6.222   2.468   7.753 -0.1224 -1.1114 -0.0568
 1536TIP3    H226244   6.219   2.425   7.608 -1.7974 -0.5708 -0.1981
 1537TIP3   OH226245   4.438   2.161   7.767 -0.9612 -0.5007  0.0561
 1537TIP3    H126246   4.381   2.173   7.842  0.1438 -0.4308  0.9075
 1537TIP3    H226247   4.434   2.245   7.721 -1.6566 -0.5502  0.0244
 1538TIP3   OH226248   5.731   6.188   2.074 -0.2432  0.4360  0.0420
 1538TIP3    H126249   5.679   6.259   2.111  1.0420  0.8965  1.0546
 1538TIP3    H226250   5.816   6.195   2.119  0.2932 -1.0118 -0.6913
 1539TIP3   OH226251   5.170   0.631   0.771 -0.3998 -0.3184  0.4067
 1539TIP3    H126252   5.238   0.567   0.788 -0.9125 -0.3854  2.5274
 1539TIP3    H226253   5.176   0.649   0.677  3.8185  1.1730  0.7437
 1540TIP3   OH226254   6.607   3.154   3.133  0.2941  0.4043  0.0742
 1540TIP3    H126255   6.670   3.178   3.066 -0.1954 -0.0201 -0.5487
 1540TIP3    H226256   6.551   3.231   3.143  0.5759  0.5880  0.2424
 1541TIP3   OH226257   0.821   3.538   1.410  0.4004  0.6164  0.0117
 1541TIP3    H126258   0.858   3.451   1.402  1.3802  1.1064 -1.0476
 1541TIP3    H226259   0.896   3.596   1.424 -0.0902  1.4498 -0.7003
 1542TIP3   OH226260   4.382   4.087   0.648  0.7155 -0.6853 -0.2589
 1542TIP3    H126261   4.450   4.140   0.689 -0.0321  0.3033 -0.2555
 1542TIP3    H226262   4.357   4.023   0.715  1.0106 -0.4742  0.0528
 1543TIP3   OH226263   3.071   5.849   2.350 -0.4609 -0.1119 -0.3070
 1543TIP3    H126264   3.078   5.826   2.442 -0.3920 -1.9442 -0.7198
 1543TIP3    H226265   3.022   5.932   2.349 -1.0695 -0.4148  1.3346
 1544TIP3   OH226266   4.701   6.768   0.420  0.1539 -0.6758 -0.5392
 1544TIP3    H126267   4.732   6.858   0.411 -1.7589  0.0543 -0.3524
 1544TIP3    H226268   4.721   6.727   0.336 -1.7133  0.8774 -1.8378
 1545TIP3   OH226269   6.739   1.186   0.729  0.0653 -0.0752  0.6255
 1545TIP3    H126270   6.685   1.233   0.793 -1.2258 -1.9661  0.9886
 1545TIP3    H226271   6.749   1.098   0.765 -2.0454 -1.7402 -2.4285
 1546TIP3   OH226272   2.724   1.772   7.977  0.0728  0.2564 -0.5476
 1546TIP3    H126273   2.698   1.691   7.935  0.7553 -0.8185  0.9877
 1546TIP3    H226274   2.786   1.812   7.916 -0.1405 -0.4608 -1.2524
 1547TIP3   OH226275   0.404   0.244   2.547 -0.2194 -0.2456 -0.4436
 1547TIP3    H126276   0.343   0.242   2.620 -2.6611 -0.4158 -2.3300
 1547TIP3    H226277   0.489   0.222   2.585 -1.1325  0.8444  2.4650
 1548TIP3   OH226278   1.155   3.291   2.812 -0.2719 -0.6542 -0.0443
 1548TIP3    H126279   1.218   3.240   2.760 -0.4399 -1.7700  0.8155
 1548TIP3    H226280   1.196   3.299   2.898 -0.7034 -0.1886  0.1229
 1549TIP3   OH226281   6.026   6.559   1.431  0.3152 -0.3770  0.2162
 1549TIP3    H126282   5.995   6.523   1.515 -0.1765 -1.3154 -0.3474
 1549TIP3    H226283   5.976   6.511   1.365  0.7609  0.2950 -0.6224
 1550TIP3   OH226284   6.012   3.132   1.681 -0.4554 -0.2090  0.0412
 1550TIP3    H126285   6.000   3.037   1.684 -0.2467 -0.3199 -1.6322
 1550TIP3    H226286   6.107   3.145   1.688 -0.4592 -0.1366 -0.0434
 1551TIP3   OH226287   4.422   1.574   1.169  0.0342 -0.1340  0.1953
 1551TIP3    H126288   4.421   1.480   1.154  1.9942 -0.2743  0.6468
 1551TIP3    H226289   4.377   1.586   1.253 -0.2467 -0.6652  0.1216
 1552TIP3   OH226290   5.035   5.314   1.964 -0.0440 -0.0282 -0.3374
 1552TIP3    H126291   5.111   5.257   1.973 -0.6761 -0.5948  2.9363
 1552TIP3    H226292   5.057   5.392   2.014 -0.6791  0.9529 -1.5342
 1553TIP3   OH226293   1.877   0.357   1.590 -0.0017  0.4851  0.4933
 1553TIP3    H126294   1.868   0.265   1.563  0.2590  1.0112 -1.4961
 1553TIP3    H226295   1.969   0.365   1.616  0.2270  0.4083 -0.2683
 1554TIP3   OH226296   0.481   1.144   0.876 -0.1178 -0.1563 -0.7387
 1554TIP3    H126297   0.459   1.055   0.849 -0.4162 -0.1196 -0.6229
 1554TIP3    H226298   0.475   1.143   0.971 -2.0535  0.4646 -0.8106
 1555TIP3   OH226299   4.757   1.175   1.526  0.3064  0.0427  0.0515
 1555TIP3    H126300   4.724   1.172   1.616  1.0289  0.7177  0.3504
 1555TIP3    H226301   4.850   1.196   1.535 -0.6096  6.5590 -0.9103
 1556TIP3   OH226302   4.725   1.035   6.846 -0.0734  0.3492 -0.4544
 1556TIP3    H126303   4.654   1.088   6.809 -1.8997 -1.3280  0.4474
 1556TIP3    H226304   4.758   0.984   6.773 -0.2804  0.6286 -0.7437
 1557TIP3   OH226305   6.363   1.952   1.528 -0.2962  0.1446  0.1093
 1557TIP3    H126306   6.344   1.987   1.441  0.2904  1.3291  0.4340
 1557TIP3    H226307   6.285   1.901   1.551 -1.2916  1.4186 -0.3087
 1558TIP3   OH226308   4.524   4.088   7.306  0.6125  0.0856 -0.2760
 1558TIP3    H126309   4.590   4.046   7.251  1.7537 -0.5593  1.5052
 1558TIP3    H226310   4.446   4.092   7.251  2.3845  1.9379 -2.9191
 1559TIP3   OH226311   0.844   6.284   1.114  0.1710  0.5730  0.2239
 1559TIP3    H126312   0.772   6.328   1.158 -0.2021 -0.5633  0.7680
 1559TIP3    H226313   0.809   6.199   1.087  1.3872 -0.1531  0.8192
 1560TIP3   OH226314   1.575   6.307   1.373  0.4727  1.1651 -0.0506
 1560TIP3    H126315   1.629   6.250   1.429 -1.1318  1.0718  1.4774
 1560TIP3    H226316   1.597   6.280   1.284  0.7481 -0.9452  0.6012
 1561TIP3   OH226317   5.751   6.725   8.230  0.2312 -0.0665 -0.0096
 1561TIP3    H126318   5.659   6.751   8.234  0.0396 -0.6333 -0.4784
 1561TIP3    H226319   5.791   6.763   8.308 -0.3267  0.4705  0.0188
 1562TIP3   OH226320   3.515   4.906   2.697  0.5142  0.5147 -0.0773
 1562TIP3    H126321   3.540   4.897   2.788  0.0600 -0.3874 -0.0319
 1562TIP3    H226322   3.527   4.819   2.659  1.3883  1.0400 -1.0677
 1563TIP3   OH226323   6.732   6.418   1.061 -0.0908  0.2816  0.0033
 1563TIP3    H126324   6.676   6.380   1.128 -0.4352  0.5179 -0.1482
 1563TIP3    H226325   6.726   6.513   1.074  1.4700  0.2967  0.9531
 1564TIP3   OH226326   1.824   2.521   0.009  0.6861  0.1165 -0.6539
 1564TIP3    H126327   1.811   2.541  -0.084  0.7268  1.0852 -0.4685
 1564TIP3    H226328   1.738   2.537   0.049  0.6203 -0.4792 -0.5464
 1565TIP3   OH226329   0.129   0.553   7.693  0.0596  0.4760 -0.3805
 1565TIP3    H126330   0.216   0.541   7.732  0.2069  1.0162 -0.5387
 1565TIP3    H226331   0.108   0.467   7.655  1.4218  0.8613 -2.1498
 1566TIP3   OH226332   2.719   4.591   1.853  0.1895 -0.1719  0.3195
 1566TIP3    H126333   2.812   4.610   1.868  0.8667 -1.3662 -1.8492
 1566TIP3    H226334   2.688   4.555   1.936  1.5843  0.4886  1.1690
 1567TIP3   OH226335   6.682   1.289   3.015 -0.5551 -0.1244 -0.2581
 1567TIP3    H126336   6.597   1.289   2.971 -0.7877 -0.5731  0.1860
 1567TIP3    H226337   6.703   1.197   3.028  0.0429 -0.0170 -0.4454
 1568TIP3   OH226338   6.808   0.613   2.025  0.0022 -0.5999 -0.5048
 1568TIP3    H126339   6.846   0.542   1.974  1.1065 -0.4440  0.0683
 1568TIP3    H226340   6.735   0.573   2.073  0.0500 -1.1332 -0.8775
 1569TIP3   OH226341   5.981   5.771   7.450 -0.0743 -0.5885  0.4207
 1569TIP3    H126342   5.916   5.825   7.404 -1.0418 -0.2492  2.1009
 1569TIP3    H226343   6.063   5.819   7.438 -0.8732  1.2126  1.6956
 1570TIP3   OH226344   4.229   3.256   1.570 -0.2985 -0.2367  0.1995
 1570TIP3    H126345   4.188   3.170   1.565 -1.3748  0.2732 -0.0100
 1570TIP3    H226346   4.157   3.318   1.562  0.6924  0.7231 -1.9056
 1571TIP3   OH226347   0.973   2.272   0.299  0.2160 -0.0550 -0.1806
 1571TIP3    H126348   0.916   2.302   0.371  0.6704  1.6177 -0.4636
 1571TIP3    H226349   1.021   2.199   0.335  0.4071  0.7272  1.2334
 1572TIP3   OH226350   5.087   4.593   2.828  0.3294 -0.2839 -0.2830
 1572TIP3    H126351   5.034   4.553   2.759 -0.5640  0.0726  0.1896
 1572TIP3    H226352   5.118   4.519   2.880 -0.1023 -0.4572 -0.2752
 1573TIP3   OH226353   0.965   6.869   0.678 -0.0408  0.3294  0.4433
 1573TIP3    H126354   0.998   6.953   0.710  0.4781  1.2497 -2.2229
 1573TIP3    H226355   1.034   6.838   0.619 -1.5333 -0.4956 -0.9212
 1574TIP3   OH226356   1.739   1.161   7.506  0.1995 -0.5721  0.0388
 1574TIP3    H126357   1.820   1.138   7.461  0.4062  0.5793 -0.2114
 1574TIP3    H226358   1.695   1.078   7.520  0.3767 -1.0245 -1.8301
 1575TIP3   OH226359   1.136   3.251   1.440 -0.0814 -0.0613  0.1333
 1575TIP3    H126360   1.094   3.216   1.519 -0.3470 -0.6528 -0.2582
 1575TIP3    H226361   1.063   3.287   1.389 -0.1295 -1.0461 -0.5262
 1576TIP3   OH226362   3.970   0.040   0.430 -0.0251  0.4571 -0.6420
 1576TIP3    H126363   4.058   0.031   0.465  0.0578  0.2997 -0.8870
 1576TIP3    H226364   3.939  -0.049   0.418  0.3420  0.4879 -1.9420
 1577TIP3   OH226365   2.741   5.749   1.249  0.0957  0.1661 -0.3040
 1577TIP3    H126366   2.767   5.777   1.161  1.4757 -0.0472  0.0169
 1577TIP3    H226367   2.796   5.800   1.308 -0.1683 -0.3590  0.4133
 1578TIP3   OH226368   2.023   5.501   0.020 -0.0502 -0.3957  0.0722
 1578TIP3    H126369   2.035   5.436   0.089 -1.4581 -0.5480  0.2015
 1578TIP3    H226370   2.111   5.535   0.004  0.5468 -1.5139  0.7949
 1579TIP3   OH226371   6.398   0.604   8.284 -0.5502 -0.7512  0.3819
 1579TIP3    H126372   6.411   0.680   8.341  1.4048 -1.0297  0.3899
 1579TIP3    H226373   6.320   0.560   8.319 -0.5057  0.1331  1.6483
 1580TIP3   OH226374   3.868   0.664   1.414 -0.3519 -0.1083 -0.5128
 1580TIP3    H126375   3.811   0.657   1.338  1.1152  0.0702 -1.6659
 1580TIP3    H226376   3.842   0.746   1.456 -1.3431 -0.3402 -0.6568
 1581TIP3   OH226377   1.859   5.527   1.392  0.0490 -0.3747 -0.2050
 1581TIP3    H126378   1.934   5.586   1.389  0.8912 -0.7914  4.4101
 1581TIP3    H226379   1.783   5.585   1.387  0.8428  0.9748  1.7848
 1582TIP3   OH226380   4.215   0.026   6.971  0.9203 -0.0465  0.2336
 1582TIP3    H126381   4.283  -0.025   6.929 -0.7930 -2.6118  0.3387
 1582TIP3    H226382   4.242   0.032   7.063  1.4040 -0.3096  0.1086
 1583TIP3   OH226383   2.755   1.675   7.570  0.8060  0.4771 -0.4889
 1583TIP3    H126384   2.782   1.588   7.541 -0.1892 -0.4831  1.2819
 1583TIP3    H226385   2.751   1.668   7.666 -0.6960  2.0440 -0.3993
 1584TIP3   OH226386   4.804   0.460   1.528 -0.4314 -0.1893 -0.0537
 1584TIP3    H126387   4.735   0.406   1.489  0.4710 -1.3759 -0.0704
 1584TIP3    H226388   4.848   0.402   1.590  0.6057  0.5022 -0.1153
 1585TIP3   OH226389   6.888   1.122   8.477  0.2351 -0.2854 -0.2872
 1585TIP3    H126390   6.808   1.074   8.501 -0.1278  0.6052  0.3585
 1585TIP3    H226391   6.871   1.154   8.389  0.3642 -1.0856 -0.6098
 1586TIP3   OH226392   6.618   0.007   6.683  0.5516  0.1716  0.3928
 1586TIP3    H126393   6.625   0.081   6.743 -0.7709 -0.2191  1.0484
 1586TIP3    H226394   6.709  -0.013   6.659  0.9422  1.9033  0.3051
 1587TIP3   OH226395   1.055   1.031   1.737 -0.1583 -0.3691  0.3105
 1587TIP3    H126396   1.121   1.100   1.746  1.1202 -1.6240  0.7487
 1587TIP3    H226397   1.021   1.043   1.649  0.8926  0.0918 -0.0544
 1588TIP3   OH226398   4.762   3.870   8.525 -0.3983  0.1735  0.3232
 1588TIP3    H126399   4.803   3.939   8.578 -0.0125  0.5143 -0.3860
 1588TIP3    H226400   4.745   3.913   8.440  0.1960 -0.7017 -0.2540
 1589TIP3   OH226401   3.199   6.887   7.732  0.0238 -0.3798  0.4756
 1589TIP3    H126402   3.213   6.975   7.767  0.2848  0.6375 -1.9458
 1589TIP3    H226403   3.123   6.854   7.780 -0.7633  1.6103  0.7122
 1590TIP3   OH226404   0.169   2.596   2.044 -0.1788  0.1218  0.2457
 1590TIP3    H126405   0.255   2.555   2.027  0.2392  0.2371  1.9257
 1590TIP3    H226406   0.114   2.566   1.971  1.2706  0.0379 -0.8738
 1591TIP3   OH226407   4.318   1.499   7.403  0.2758  0.7884 -0.3809
 1591TIP3    H126408   4.259   1.458   7.339  0.3571 -0.4692  0.3232
 1591TIP3    H226409   4.393   1.528   7.350  0.2430 -0.0330 -0.8983
 1592TIP3   OH226410   6.010   0.491   2.814 -0.0380  0.7420  0.0401
 1592TIP3    H126411   6.054   0.570   2.783 -0.3284  1.0934  0.5156
 1592TIP3    H226412   5.917   0.507   2.798 -0.0810  0.4104 -0.0523
 1593TIP3   OH226413   1.962   1.401   8.019  0.3692  0.3113  0.2010
 1593TIP3    H126414   2.004   1.476   7.976  2.0358 -0.7937 -0.1753
 1593TIP3    H226415   1.935   1.345   7.947 -0.1358  0.1458  0.5133
 1594TIP3   OH226416   5.601   1.012   0.444 -0.3695  0.3309 -0.0209
 1594TIP3    H126417   5.683   0.999   0.491  0.2292  1.2973 -0.7658
 1594TIP3    H226418   5.593   0.935   0.387 -0.7232 -0.4697  1.0690
 1595TIP3   OH226419   0.948   4.772   0.331  0.1967  0.1283 -0.1740
 1595TIP3    H126420   0.960   4.678   0.322 -1.3887 -0.1380  0.1910
 1595TIP3    H226421   1.022   4.800   0.385 -0.5369 -1.3146  1.7013
 1596TIP3   OH226422   6.451   5.253   0.052 -0.1822 -0.1545  0.0707
 1596TIP3    H126423   6.357   5.245   0.067 -0.1325 -0.4744  0.2087
 1596TIP3    H226424   6.461   5.339   0.011 -0.5404 -0.1485 -0.0075
 1597TIP3   OH226425   0.653   4.985   1.971 -0.0401  0.0305  0.0954
 1597TIP3    H126426   0.671   5.073   1.938 -0.4572 -0.4283 -1.4031
 1597TIP3    H226427   0.612   4.939   1.898  0.9186 -1.6823  0.5783
 1598TIP3   OH226428   4.144   1.046   0.718 -0.4815 -0.0815  0.0533
 1598TIP3    H126429   4.200   1.044   0.796  0.3387  1.6402 -0.4558
 1598TIP3    H226430   4.061   1.009   0.748  0.4556 -1.3975  1.1912
 1599TIP3   OH226431   2.855   5.489   2.384 -0.1335 -0.3056  0.9897
 1599TIP3    H126432   2.947   5.494   2.412  0.0629 -2.4336  0.9118
 1599TIP3    H226433   2.818   5.417   2.435 -0.4325 -2.6930 -2.2115
 1600TIP3   OH226434   1.642   6.884   6.435 -0.5066  0.1104 -0.2871
 1600TIP3    H126435   1.708   6.913   6.497 -0.4647  0.9316 -0.7057
 1600TIP3    H226436   1.598   6.965   6.407 -1.5046 -0.3948 -0.2140
 1601TIP3   OH226437   1.788   0.256   7.165 -0.5159 -0.7333  0.2023
 1601TIP3    H126438   1.882   0.253   7.177 -0.2397  0.6416 -1.3469
 1601TIP3    H226439   1.771   0.199   7.089 -0.8788 -0.5606  0.1506
 1602TIP3   OH226440   3.077   4.065   7.343  0.6554 -0.6368  0.1847
 1602TIP3    H126441   3.105   4.151   7.312 -1.1501 -0.3045 -0.6431
 1602TIP3    H226442   3.075   4.010   7.265  1.4772 -1.3636  0.6562
 1603TIP3   OH226443   1.512   6.234   0.319  0.0842 -0.0431 -0.2632
 1603TIP3    H126444   1.500   6.211   0.411 -0.9359  4.1762  0.8927
 1603TIP3    H226445   1.605   6.256   0.312 -0.4496  3.0680  0.8807
 1604TIP3   OH226446   6.833   3.869   8.110  0.7098 -0.0141 -0.0307
 1604TIP3    H126447   6.829   3.776   8.134 -0.4968 -0.2652 -1.0705
 1604TIP3    H226448   6.921   3.880   8.074  0.2909 -1.2387 -1.5837
 1605TIP3   OH226449   1.739   3.813   0.097 -0.2703  0.2096  0.0966
 1605TIP3    H126450   1.651   3.829   0.131 -0.6988  0.8577 -1.2391
 1605TIP3    H226451   1.797   3.845   0.166 -1.0080 -1.6354  1.6951
 1606TIP3   OH226452   3.222   4.404   8.446  0.0031  0.2059  0.1700
 1606TIP3    H126453   3.136   4.446   8.450  0.7522  1.7332  0.9571
 1606TIP3    H226454   3.226   4.350   8.525 -0.5502 -0.5635 -0.3109
 1607TIP3   OH226455   4.789   2.619   0.861 -0.0098 -0.8959  0.0381
 1607TIP3    H126456   4.727   2.568   0.809  0.8760 -0.6321 -1.3125
 1607TIP3    H226457   4.793   2.704   0.818  1.1856 -0.8625  0.1898
 1608TIP3   OH226458   4.176   1.459   1.641  0.4580  0.1292  0.1300
 1608TIP3    H126459   4.089   1.460   1.681  1.2043 -1.8166  1.9933
 1608TIP3    H226460   4.234   1.495   1.709  1.2997  0.1812 -0.5955
 1609TIP3   OH226461   1.589   1.618   0.396  0.2066 -0.1467 -0.0158
 1609TIP3    H126462   1.572   1.587   0.484  2.0709 -0.5996  0.2235
 1609TIP3    H226463   1.571   1.712   0.399  0.1385 -0.1847  0.8049
 1610TIP3   OH226464   5.511   4.198   0.506 -0.2939  0.2142  0.9423
 1610TIP3    H126465   5.447   4.144   0.459  0.3724  0.1927  0.0325
 1610TIP3    H226466   5.464   4.280   0.524 -0.7966 -0.0604  0.9142
 1611TIP3   OH226467   4.493   6.789   0.618  0.0785  0.1243 -0.0824
 1611TIP3    H126468   4.565   6.770   0.559 -1.2256  0.1410 -1.7534
 1611TIP3    H226469   4.428   6.721   0.599 -1.3655  1.5441 -0.4230
 1612TIP3   OH226470   6.820   1.921   1.717 -0.0039  0.4820  0.1223
 1612TIP3    H126471   6.881   1.862   1.673  0.5982  0.1889  1.3132
 1612TIP3    H226472   6.753   1.940   1.651 -0.8266 -2.3884 -0.0074
 1613TIP3   OH226473   4.035   0.496   2.308  0.2192  0.2303  0.3926
 1613TIP3    H126474   4.048   0.410   2.347 -0.6402 -0.2262 -0.2812
 1613TIP3    H226475   4.109   0.548   2.339  0.2394 -0.4628  1.5935
 1614TIP3   OH226476   0.987   5.504   1.544 -0.4758 -0.2873 -0.7584
 1614TIP3    H126477   0.966   5.424   1.496  0.3178 -1.2281  0.3876
 1614TIP3    H226478   1.058   5.544   1.493  0.5385 -1.4075 -0.2749
 1615TIP3   OH226479   4.109   3.705   1.144 -0.6995 -0.2797  0.3194
 1615TIP3    H126480   4.075   3.627   1.187 -0.0786 -0.3127  0.7716
 1615TIP3    H226481   4.196   3.717   1.182 -0.4124  0.0896 -0.4303
 1616TIP3   OH226482   2.008   0.491   7.210 -0.1835 -0.1305  0.4120
 1616TIP3    H126483   2.089   0.488   7.260  1.1097  0.6300 -1.4939
 1616TIP3    H226484   1.985   0.584   7.207  0.0355 -0.0906 -0.7207
 1617TIP3   OH226485   6.203   4.268   7.256 -0.1923 -0.1101  0.4784
 1617TIP3    H126486   6.198   4.198   7.191 -1.0332 -0.0586  0.4849
 1617TIP3    H226487   6.190   4.224   7.340 -1.6523  0.1628  0.4181
 1618TIP3   OH226488   3.046   4.587   0.949  0.1808 -0.1676  0.3423
 1618TIP3    H126489   3.091   4.554   0.871  0.7669  0.4172  0.4332
 1618TIP3    H226490   3.097   4.662   0.977 -0.9332  0.6093  0.3567
 1619TIP3   OH226491   6.184   0.949   0.827 -0.5647 -0.2416 -0.2512
 1619TIP3    H126492   6.188   0.868   0.878 -1.4891 -0.6560 -0.8149
 1619TIP3    H226493   6.186   0.921   0.736  1.6335  0.5224 -0.5068
 1620TIP3   OH226494   5.183   6.094   7.158 -1.0178  0.8284  0.0585
 1620TIP3    H126495   5.212   6.025   7.217 -1.0148  2.1899  1.7187
 1620TIP3    H226496   5.195   6.057   7.070  0.2254 -0.7766  0.8493
 1621TIP3   OH226497   6.377   0.202   1.141  0.0623  0.1290  0.2106
 1621TIP3    H126498   6.321   0.167   1.210  2.2228 -1.5902  1.2224
 1621TIP3    H226499   6.328   0.188   1.061 -1.7089  0.4148  1.1918
 1622TIP3   OH226500   1.046   6.307   8.290  0.1437  0.3405 -0.0565
 1622TIP3    H126501   1.072   6.233   8.235 -0.4391  0.3273 -0.3240
 1622TIP3    H226502   1.017   6.374   8.228 -0.6477  0.2724  0.2313
 1623TIP3   OH226503   1.665   0.064   8.325 -0.7915  0.3837 -0.2452
 1623TIP3    H126504   1.722   0.038   8.398  0.6082  2.3141 -0.5633
 1623TIP3    H226505   1.616  -0.015   8.304  0.8421 -1.0308  0.9245
 1624TIP3   OH226506   1.334   5.901   2.293  0.6302  0.1233 -0.0497
 1624TIP3    H126507   1.347   5.855   2.377  0.6777  2.1714  1.1273
 1624TIP3    H226508   1.416   5.947   2.277  0.2177  0.6821 -0.6126
 1625TIP3   OH226509   4.599   2.551   8.264  0.0711 -0.5903 -0.0280
 1625TIP3    H126510   4.648   2.539   8.182  0.8581 -0.8517  0.4659
 1625TIP3    H226511   4.665   2.576   8.328 -0.9861  3.1631 -0.1832
 1626TIP3   OH226512   0.910   3.573   7.742 -0.1563 -0.2165 -0.5363
 1626TIP3    H126513   0.851   3.608   7.676 -0.1989  0.2491 -0.2540
 1626TIP3    H226514   0.975   3.523   7.692  0.6946  1.3599 -1.0710
 1627TIP3   OH226515   2.721   5.032   2.426  0.3720  1.0031  0.1245
 1627TIP3    H126516   2.791   4.966   2.429 -1.0673 -0.5744  0.0668
 1627TIP3    H226517   2.720   5.062   2.335  1.6853  1.8726  0.3685
 1628TIP3   OH226518   0.123   3.458   0.979  0.8604  1.0596 -0.1372
 1628TIP3    H126519   0.050   3.518   0.992  0.3356  0.4882 -0.3961
 1628TIP3    H226520   0.198   3.501   1.020 -0.0946  0.6511  2.1797
 1629TIP3   OH226521   3.905   4.563   8.032 -0.0364 -0.2025 -0.0130
 1629TIP3    H126522   3.887   4.503   8.105  2.0234 -2.0119 -0.8671
 1629TIP3    H226523   3.991   4.535   7.999 -0.4479  1.1902 -2.5142
 1630TIP3   OH226524   3.546   0.093   7.130 -0.1359 -0.2731  0.3515
 1630TIP3    H126525   3.623   0.148   7.144 -1.0290  1.1009  0.0195
 1630TIP3    H226526   3.557   0.020   7.191  0.4518  0.9302  1.7267
 1631TIP3   OH226527   6.882   6.088   1.675 -0.3345 -0.5311 -0.5022
 1631TIP3    H126528   6.952   6.082   1.610  0.9113  0.4398  0.7011
 1631TIP3    H226529   6.903   6.020   1.739 -0.1846  0.0951  0.1261
 1632TIP3   OH226530   6.710   2.007   1.956 -0.5229 -0.1671 -0.0630
 1632TIP3    H126531   6.760   1.955   1.894 -0.1756 -1.2204  1.0628
 1632TIP3    H226532   6.635   2.038   1.906  1.1834  1.4405 -1.7960
 1633TIP3   OH226533   6.841   6.074   0.753 -0.2929  0.1261  0.6438
 1633TIP3    H126534   6.810   6.158   0.786  1.0664  0.0880  2.1217
 1633TIP3    H226535   6.925   6.094   0.711  0.7498 -0.6649  2.2654
 1634TIP3   OH226536   1.630   2.116   7.036  0.2025  0.2391  0.0225
 1634TIP3    H126537   1.574   2.131   6.960  0.0799  0.3805  0.1401
 1634TIP3    H226538   1.569   2.095   7.107  0.3356 -0.1957  0.0092
 1635TIP3   OH226539   5.061   0.645   1.588 -0.0821  0.3325 -0.1345
 1635TIP3    H126540   4.977   0.657   1.544 -0.3425  1.1128  0.5470
 1635TIP3    H226541   5.038   0.627   1.679  0.4893  0.4081  0.0280
 1636TIP3   OH226542   4.380   2.587   1.315  0.3904  0.2903  0.0748
 1636TIP3    H126543   4.434   2.539   1.251  0.7081  0.9993 -0.2057
 1636TIP3    H226544   4.338   2.519   1.367 -1.5265 -0.3855 -2.2142
 1637TIP3   OH226545   0.102   0.487   1.052  0.3032  0.0524  0.3677
 1637TIP3    H126546   0.026   0.544   1.063  0.2054  0.2410 -1.0302
 1637TIP3    H226547   0.178   0.542   1.072  0.3713  1.4371 -2.9527
 1638TIP3   OH226548   2.980   5.770   0.281  0.6602 -0.2519  0.1944
 1638TIP3    H126549   2.968   5.783   0.187  0.7990 -1.9357 -0.0909
 1638TIP3    H226550   2.995   5.676   0.290  1.7697  0.0425  1.7968
 1639TIP3   OH226551   4.437   0.696   1.422  0.6124 -0.0655  0.2559
 1639TIP3    H126552   4.491   0.681   1.344  1.1954 -0.0826  0.6561
 1639TIP3    H226553   4.354   0.731   1.387  0.3137 -1.4313 -0.4705
 1640TIP3   OH226554   5.667   4.224   0.749  0.3917  0.0942  0.1702
 1640TIP3    H126555   5.643   4.137   0.716 -2.0890  1.6962 -2.8308
 1640TIP3    H226556   5.595   4.249   0.807 -0.4269  1.1331 -1.2058
 1641TIP3   OH226557   0.317   5.545   7.599 -1.2068 -0.5867  0.2938
 1641TIP3    H126558   0.355   5.558   7.513 -1.0010  1.3533  0.6512
 1641TIP3    H226559   0.384   5.497   7.648 -1.4089 -1.8818 -0.6539
 1642TIP3   OH226560   0.563   4.244   8.123 -0.3568 -0.1568  0.1667
 1642TIP3    H126561   0.545   4.238   8.029 -1.7658  3.3754  0.0697
 1642TIP3    H226562   0.657   4.265   8.128 -0.1935 -0.7201 -0.4271
 1643TIP3   OH226563   3.682   2.968   7.555 -0.4526  0.5866  0.2544
 1643TIP3    H126564   3.701   3.049   7.603  0.4640  0.4810  0.1039
 1643TIP3    H226565   3.599   2.985   7.510 -0.8085  1.0450  1.0773
 1644TIP3   OH226566   1.169   6.057   1.279  0.2130  0.2538 -0.3896
 1644TIP3    H126567   1.136   6.011   1.356  1.4837  0.1020  0.1003
 1644TIP3    H226568   1.263   6.065   1.295  0.1444  2.4940 -0.7475
 1645TIP3   OH226569   0.014   2.202   0.268  0.3242  0.1932  0.6273
 1645TIP3    H126570   0.006   2.254   0.188 -0.6302 -0.0335  0.5583
 1645TIP3    H226571  -0.050   2.241   0.327 -0.6841 -1.1225  0.4386
 1646TIP3   OH226572   5.657   1.446   0.695 -0.1225 -0.2970 -0.0335
 1646TIP3    H126573   5.720   1.512   0.723  0.1462 -0.2734 -0.6805
 1646TIP3    H226574   5.711   1.368   0.676 -0.4959 -0.9116  1.3262
 1647TIP3   OH226575   3.814   5.309   8.008 -0.3049 -0.3704 -0.0241
 1647TIP3    H126576   3.868   5.265   7.941 -2.1214  1.4645 -2.8912
 1647TIP3    H226577   3.731   5.262   8.006 -1.3513  1.4376 -1.2026
 1648TIP3   OH226578   3.845   3.953   8.358  0.2420  0.0842  0.3118
 1648TIP3    H126579   3.834   3.872   8.408  0.4080 -0.8969 -1.1884
 1648TIP3    H226580   3.839   3.926   8.266  3.7978  1.1936 -0.4002
 1649TIP3   OH226581   2.105   5.920   0.082  0.0394 -0.1025  0.5617
 1649TIP3    H126582   2.156   5.919   0.001 -0.7402  1.5272  0.0205
 1649TIP3    H226583   2.053   5.840   0.078 -0.5848  0.3574 -0.9481
 1650TIP3   OH226584   6.730   4.890   0.943  0.7553  0.0349  0.1200
 1650TIP3    H126585   6.789   4.922   1.011 -0.7892  0.4087  1.3450
 1650TIP3    H226586   6.653   4.946   0.950 -1.0832 -2.4165  0.7680
 1651TIP3   OH226587   3.452   3.536   0.348  0.3183  0.5677  0.4032
 1651TIP3    H126588   3.474   3.481   0.272 -2.5682 -1.0034  0.5690
 1651TIP3    H226589   3.518   3.605   0.347  2.5370 -1.3758 -1.4197
 1652TIP3   OH226590   5.434   4.139   7.355  0.1219 -0.2499  0.3805
 1652TIP3    H126591   5.356   4.150   7.301 -0.0550 -0.5755  0.5676
 1652TIP3    H226592   5.415   4.188   7.435  0.8420  1.1999 -0.2996
 1653TIP3   OH226593   0.543   1.074   2.453 -0.0897 -0.2051 -0.2018
 1653TIP3    H126594   0.554   1.158   2.407  0.0439  0.5635  1.1905
 1653TIP3    H226595   0.629   1.056   2.490 -1.0354  1.2373  3.0667
 1654TIP3   OH226596   2.106   5.048   8.174 -0.1535 -0.0814  0.0956
 1654TIP3    H126597   2.047   5.106   8.125 -1.7656 -1.3578  0.4463
 1654TIP3    H226598   2.048   4.983   8.214  1.4001 -0.7104  1.4238
 1655TIP3   OH226599   6.070   0.786   8.273  0.4357  0.6552 -0.4725
 1655TIP3    H126600   6.060   0.875   8.306  1.4115  0.4378  0.4712
 1655TIP3    H226601   6.048   0.730   8.347  0.9244  0.1317 -0.7150
 1656TIP3   OH226602   5.553   2.518   1.544  0.0782  0.0736 -0.1741
 1656TIP3    H126603   5.638   2.542   1.581  0.9715 -1.8943 -0.8607
 1656TIP3    H226604   5.532   2.591   1.485  1.2750  0.5939  0.0062
 1657TIP3   OH226605   2.293   5.591   7.795  0.8846 -0.0197 -0.6692
 1657TIP3    H126606   2.212   5.568   7.840  0.3245  2.2842 -0.3434
 1657TIP3    H226607   2.338   5.649   7.857  0.9452  1.8005 -2.3128
 1658TIP3   OH226608   1.488   0.252   0.178  0.3657 -0.2026  0.2355
 1658TIP3    H126609   1.540   0.176   0.152  2.0786  0.8044  0.5996
 1658TIP3    H226610   1.546   0.303   0.235 -0.9536  1.0776  0.4962
 1659TIP3   OH226611   4.414   5.722   7.620  0.0588  0.0872 -0.0545
 1659TIP3    H126612   4.421   5.665   7.543 -0.2982  0.4088 -0.3249
 1659TIP3    H226613   4.324   5.752   7.619  0.5837  1.7638 -0.7115
 1660TIP3   OH226614   1.052   1.082   1.087  0.0760  0.1334  0.0138
 1660TIP3    H126615   1.024   1.158   1.137  0.4972  0.4476 -0.2252
 1660TIP3    H226616   1.113   1.036   1.145 -1.3255 -0.8499  0.7512
 1661TIP3   OH226617   0.775   6.318   8.205 -0.6154  0.5547 -0.2657
 1661TIP3    H126618   0.843   6.261   8.240 -0.3856 -0.4632 -2.2260
 1661TIP3    H226619   0.718   6.260   8.155 -2.6313  1.4772  0.8054
 1662TIP3   OH226620   3.356   6.222   7.477  0.2301 -0.3055  0.1494
 1662TIP3    H126621   3.326   6.254   7.393 -0.9501 -2.0235 -0.1299
 1662TIP3    H226622   3.450   6.241   7.478  0.1066  0.4679 -1.1889
 1663TIP3   OH226623   0.128   6.877   0.400 -0.2200  0.0174  0.2861
 1663TIP3    H126624   0.155   6.956   0.446  1.5044 -0.1068 -0.4073
 1663TIP3    H226625   0.038   6.894   0.373 -0.7427  0.7160  2.2689
 1664TIP3   OH226626   3.573   0.920   1.305 -0.0638 -0.0623  0.2027
 1664TIP3    H126627   3.589   0.838   1.259  0.9712 -0.1416  0.6662
 1664TIP3    H226628   3.478   0.926   1.313 -0.2637 -0.1869 -1.6644
 1665TIP3   OH226629   2.821   5.996   0.695 -0.0866  0.0817 -0.1397
 1665TIP3    H126630   2.782   5.950   0.622 -0.1508 -1.4364  0.8029
 1665TIP3    H226631   2.865   5.927   0.746 -0.0030  1.0954  1.2127
 1666TIP3   OH226632   4.612   1.814   0.026 -0.3072 -0.6389  0.1791
 1666TIP3    H126633   4.530   1.857   0.002 -0.1768  0.0694  0.9648
 1666TIP3    H226634   4.632   1.757  -0.049 -0.6472  0.4267 -0.7455
 1667TIP3   OH226635   0.680   2.417   2.249 -0.4473 -0.6233  0.0811
 1667TIP3    H126636   0.702   2.341   2.195  2.1521  0.7986 -1.0564
 1667TIP3    H226637   0.745   2.417   2.319 -1.6041 -0.4736  1.1843
 1668TIP3   OH226638   1.338   2.627   2.573 -0.0644 -0.4547 -0.3066
 1668TIP3    H126639   1.379   2.700   2.618 -0.0888  0.1086 -1.1828
 1668TIP3    H226640   1.256   2.613   2.619 -0.8888  1.2187 -1.1998
 1669TIP3   OH226641   2.498   0.792   2.253 -0.5221 -0.2406  0.5035
 1669TIP3    H126642   2.581   0.830   2.282 -0.7194 -0.0566  0.8326
 1669TIP3    H226643   2.453   0.768   2.334 -0.6217 -0.7031  0.3150
 1670TIP3   OH226644   3.521   6.551   1.949  0.2987  0.1623  0.0323
 1670TIP3    H126645   3.496   6.632   1.994  1.3091  0.7128 -0.3736
 1670TIP3    H226646   3.604   6.526   1.990  0.6457  0.0465 -0.7279
 1671TIP3   OH226647   3.171   1.583   0.910 -0.6163 -0.3343 -0.4004
 1671TIP3    H126648   3.184   1.499   0.955 -3.4421 -0.4113  0.5016
 1671TIP3    H226649   3.255   1.628   0.918  0.4407 -2.3598  0.6682
 1672TIP3   OH226650   2.191   1.499   7.865 -0.1516  0.2638 -0.5850
 1672TIP3    H126651   2.219   1.417   7.824 -0.2048  0.5681 -1.2450
 1672TIP3    H226652   2.149   1.548   7.794 -0.6435  0.6194 -0.0603
 1673TIP3   OH226653   1.769   6.686   6.572  0.1026 -0.1772  0.7628
 1673TIP3    H126654   1.765   6.595   6.543  0.5025  0.2097 -0.5418
 1673TIP3    H226655   1.716   6.734   6.508  2.6344  0.9953 -0.5701
 1674TIP3   OH226656   6.613   3.058   0.270 -0.5271  0.1914  0.6848
 1674TIP3    H126657   6.535   3.096   0.229 -0.7783 -0.8101  0.2019
 1674TIP3    H226658   6.667   3.133   0.292 -1.9718  0.9589  1.7466
 1675TIP3   OH226659   1.335   6.286   1.068 -0.6258  0.2405  1.2841
 1675TIP3    H126660   1.367   6.353   1.008 -0.2893 -0.0850  1.0969
 1675TIP3    H226661   1.252   6.258   1.030  0.3493 -1.1284  0.0484
 1676TIP3   OH226662   2.739   3.511   2.758 -0.0122 -0.1091 -0.4157
 1676TIP3    H126663   2.656   3.526   2.713 -0.1957 -0.2798 -0.1355
 1676TIP3    H226664   2.750   3.587   2.815  0.3012  0.1884 -0.8632
 1677TIP3   OH226665   5.676   0.482   0.160 -0.3735 -0.2198  0.5364
 1677TIP3    H126666   5.614   0.458   0.229 -1.3590  0.7166  0.0181
 1677TIP3    H226667   5.625   0.477   0.079  0.9993 -2.1483 -0.2581
 1678TIP3   OH226668   2.358   0.726   0.456  0.0725 -0.3622 -0.2914
 1678TIP3    H126669   2.446   0.761   0.455 -0.3878  0.8286 -0.0186
 1678TIP3    H226670   2.332   0.724   0.363 -0.7845  2.4033 -0.2006
 1679TIP3   OH226671   6.294   6.030   1.929  0.1221  0.3535 -0.1246
 1679TIP3    H126672   6.213   6.048   1.883  0.0371 -0.1851 -0.1992
 1679TIP3    H226673   6.271   6.032   2.022 -0.5519 -2.1698 -0.1502
 1680TIP3   OH226674   0.845   3.264   1.378 -0.2518  0.1514  0.1197
 1680TIP3    H126675   0.759   3.244   1.341  0.0125 -3.1665  0.9663
 1680TIP3    H226676   0.874   3.181   1.417  2.5044  1.6597  1.5628
 1681TIP3   OH226677   3.925   0.827   0.676  0.2163  0.0234 -0.3339
 1681TIP3    H126678   3.863   0.819   0.749 -0.0708 -2.9648 -0.7565
 1681TIP3    H226679   3.908   0.749   0.623  2.0964  0.8555 -2.2888
 1682TIP3   OH226680   6.589   6.093   1.124  0.1183 -0.1656  0.4218
 1682TIP3    H126681   6.682   6.074   1.114 -0.2725 -2.6333  0.8893
 1682TIP3    H226682   6.557   6.108   1.035  0.5092 -1.7945 -0.0224
 1683TIP3   OH226683   5.323   2.576   2.283 -0.5255 -0.2604  0.3428
 1683TIP3    H126684   5.333   2.503   2.222 -0.0603 -0.7981  1.0593
 1683TIP3    H226685   5.379   2.554   2.357  2.2193  2.2664 -0.7673
 1684TIP3   OH226686   5.395   5.555   1.492 -0.9365 -0.4714 -0.2751
 1684TIP3    H126687   5.358   5.546   1.580 -1.3234  0.0606 -0.3748
 1684TIP3    H226688   5.399   5.650   1.477 -3.0624 -0.5260 -1.7050
 1685TIP3   OH226689   6.499   1.444   7.624  0.2457  0.3702  0.3531
 1685TIP3    H126690   6.563   1.514   7.609  0.8743 -0.1761  0.4318
 1685TIP3    H226691   6.517   1.379   7.556 -1.5584  1.0929 -0.9036
 1686TIP3   OH226692   3.948   6.381   0.515  0.2182 -0.0365  0.2651
 1686TIP3    H126693   3.951   6.308   0.577  0.9025  1.1660  1.7174
 1686TIP3    H226694   3.857   6.410   0.516 -0.2584 -1.3787 -0.9930
 1687TIP3   OH226695   2.191   3.300   7.403  0.0831  0.0266 -0.0010
 1687TIP3    H126696   2.272   3.316   7.354  0.3819  2.2471  1.0594
 1687TIP3    H226697   2.149   3.228   7.358  3.2631 -2.1116  0.1386
 1688TIP3   OH226698   2.733   3.904   7.938  0.0603 -0.0311  0.4110
 1688TIP3    H126699   2.714   3.841   7.868 -2.8484  0.5331  0.5842
 1688TIP3    H226700   2.815   3.945   7.910  1.5565 -3.0993 -0.2047
 1689TIP3   OH226701   0.936   5.401   0.687 -0.0378 -0.0519  0.5802
 1689TIP3    H126702   0.854   5.366   0.653  0.2988 -0.2777 -0.0190
 1689TIP3    H226703   0.914   5.435   0.773 -0.6618 -0.5261  0.6132
 1690TIP3   OH226704   0.109   0.399   1.428  0.0635 -0.6697 -0.1265
 1690TIP3    H126705   0.026   0.411   1.383 -0.3322  1.3366  0.9973
 1690TIP3    H226706   0.097   0.320   1.481 -2.3165  1.1954  2.3556
 1691TIP3   OH226707   1.380   0.949   0.583  0.3433 -0.6309  0.1764
 1691TIP3    H126708   1.466   0.919   0.612  0.7250  0.2114 -0.0633
 1691TIP3    H226709   1.365   0.901   0.501  1.7592  1.1029 -1.1747
 1692TIP3   OH226710   2.513   2.633   2.507  0.6671  0.1170 -0.1474
 1692TIP3    H126711   2.589   2.687   2.529  0.3275  0.3956  0.3364
 1692TIP3    H226712   2.467   2.683   2.439  0.8141  0.0306 -0.3129
 1693TIP3   OH226713   0.983   2.561   2.383  0.1659  0.3511  0.1699
 1693TIP3    H126714   1.063   2.510   2.369 -0.4388 -1.1262  1.6918
 1693TIP3    H226715   0.921   2.498   2.421 -3.0092  0.4676 -4.0851
 1694TIP3   OH226716   6.682   2.040   7.492 -0.2612 -0.3221  0.7099
 1694TIP3    H126717   6.738   2.014   7.565 -0.6228  0.0964  1.1412
 1694TIP3    H226718   6.658   2.130   7.510  0.1338 -0.0095 -0.2497
 1695TIP3   OH226719   4.004   3.081   1.686  0.5979  0.0930  0.1043
 1695TIP3    H126720   3.925   3.050   1.641  0.6742 -0.2545  0.2095
 1695TIP3    H226721   3.986   3.174   1.704  0.1639 -0.0142  0.2378
 1696TIP3   OH226722   0.693   5.283   0.493  0.0261 -0.5422  0.2354
 1696TIP3    H126723   0.764   5.234   0.452  0.9768  1.5986 -0.8350
 1696TIP3    H226724   0.694   5.368   0.449 -1.1183  0.6934  2.4504
 1697TIP3   OH226725   1.507   4.885   8.369 -0.0480 -0.0999  0.2565
 1697TIP3    H126726   1.452   4.818   8.411 -2.0335  2.1953  1.6003
 1697TIP3    H226727   1.530   4.945   8.440  2.6455  0.0953 -0.6706
 1698TIP3   OH226728   5.657   6.207   6.713  0.3701 -0.2875 -0.3498
 1698TIP3    H126729   5.590   6.139   6.717  0.2901 -0.5532 -3.5561
 1698TIP3    H226730   5.607   6.289   6.711  0.2349 -0.3760 -0.6894
 1699TIP3   OH226731   3.058   5.761   6.942  0.3529  0.4683  0.0281
 1699TIP3    H126732   3.122   5.693   6.965  0.2998  0.0337 -1.0555
 1699TIP3    H226733   2.996   5.716   6.884 -0.6637  1.0120  0.6730
 1700TIP3   OH226734   3.209   1.335   1.021 -0.0771 -0.8586  0.6685
 1700TIP3    H126735   3.198   1.271   1.091 -0.4491 -0.1011  1.3231
 1700TIP3    H226736   3.303   1.333   1.001  0.1566 -0.6082  1.6671
 1701TIP3   OH226737   1.838   1.724   8.000 -0.4336 -0.0593  0.4647
 1701TIP3    H126738   1.909   1.691   8.055 -0.6091  1.1411  1.4350
 1701TIP3    H226739   1.879   1.740   7.915  0.6084  1.1204  1.1601
 1702TIP3   OH226740   3.108   0.140   8.458 -0.3464 -0.2548  0.1290
 1702TIP3    H126741   3.200   0.128   8.438  0.3437  0.9067  2.2472
 1702TIP3    H226742   3.077   0.205   8.395  0.4558 -0.1291 -0.1394
 1703TIP3   OH226743   0.184   2.106   0.699 -0.2292 -0.2832 -0.0797
 1703TIP3    H126744   0.109   2.050   0.717 -0.2836 -0.8036 -1.7994
 1703TIP3    H226745   0.202   2.094   0.606  2.1498 -0.3701  0.3255
 1704TIP3   OH226746   6.736   0.239   2.011 -0.0156  0.0475 -0.0040
 1704TIP3    H126747   6.733   0.160   1.958  0.9415  0.0807 -0.1256
 1704TIP3    H226748   6.748   0.310   1.949 -2.3992  0.4885 -0.0376
 1705TIP3   OH226749   2.901   0.265   7.208  0.2791 -0.4047 -0.0188
 1705TIP3    H126750   2.923   0.230   7.294 -2.6105  1.5606  1.6916
 1705TIP3    H226751   2.953   0.345   7.200 -1.6380  1.0588  1.3687
 1706TIP3   OH226752   0.389   1.545   8.254  0.1607 -0.3129 -0.7351
 1706TIP3    H126753   0.379   1.587   8.169  1.7151 -0.7451 -1.1721
 1706TIP3    H226754   0.448   1.471   8.238  0.3252 -0.5243  0.6684
 1707TIP3   OH226755   0.234   1.783   0.388 -0.4290 -0.5443  0.3779
 1707TIP3    H126756   0.324   1.752   0.394  0.5278  1.7319 -0.9084
 1707TIP3    H226757   0.197   1.735   0.314 -0.5088 -1.9231  1.2784
 1708TIP3   OH226758   4.411   3.913   2.900 -0.3560  0.0519 -0.4980
 1708TIP3    H126759   4.336   3.944   2.951  0.2161 -0.0001  0.3865
 1708TIP3    H226760   4.419   3.821   2.922 -0.4499 -0.1082 -1.1224
 1709TIP3   OH226761   3.228   6.495   6.504 -0.5580  0.4008  0.2752
 1709TIP3    H126762   3.178   6.569   6.537  1.3982  2.6443 -1.4477
 1709TIP3    H226763   3.312   6.501   6.549  0.2092  0.2777 -1.0877
 1710TIP3   OH226764   1.946   0.392   1.286 -0.0685 -0.7824  0.5324
 1710TIP3    H126765   1.903   0.451   1.348 -0.8917  0.5072 -1.1952
 1710TIP3    H226766   2.019   0.443   1.250 -0.6417 -0.8551 -0.8053
 1711TIP3   OH226767   0.975   4.803   7.414  0.1714 -0.3739  0.1792
 1711TIP3    H126768   0.966   4.733   7.350 -1.1658 -0.6957  0.6898
 1711TIP3    H226769   0.934   4.769   7.493 -0.8086  1.0851  0.3398
 1712TIP3   OH226770   2.817   2.943   8.497 -0.1314 -0.0806 -0.1807
 1712TIP3    H126771   2.838   2.857   8.534 -1.8637  0.6374  2.7591
 1712TIP3    H226772   2.750   2.925   8.431  0.1351 -1.0397 -0.2050
 1713TIP3   OH226773   1.549   4.505   6.651 -0.2224  0.2370  0.7081
 1713TIP3    H126774   1.466   4.551   6.642 -1.1396 -1.0477  1.9599
 1713TIP3    H226775   1.608   4.569   6.690 -0.2716  1.5008 -1.2052
 1714TIP3   OH226776   5.463   5.903   7.565  0.1679  0.4592  0.7558
 1714TIP3    H126777   5.515   5.977   7.533 -0.0925  0.0831 -0.5938
 1714TIP3    H226778   5.515   5.867   7.637  1.5601  0.3984 -0.2381
 1715TIP3   OH226779   5.579   3.330   1.383 -0.5219 -0.5138 -0.5573
 1715TIP3    H126780   5.575   3.311   1.289 -0.2972 -0.1529 -0.6421
 1715TIP3    H226781   5.667   3.302   1.409 -1.0647 -1.9645 -0.1445
 1716TIP3   OH226782   5.961   2.670   8.067 -0.3800  0.4300  0.0481
 1716TIP3    H126783   5.938   2.651   7.977 -0.0734  0.2590  0.0039
 1716TIP3    H226784   5.878   2.694   8.109 -1.2863 -3.2412  0.7152
 1717TIP3   OH226785   3.004   3.826   1.646 -0.0871  0.5372 -0.2302
 1717TIP3    H126786   2.915   3.845   1.675 -0.7552 -1.8445 -0.4657
 1717TIP3    H226787   3.037   3.764   1.712  0.0207 -1.4192 -2.0116
 1718TIP3   OH226788   1.088   2.546   2.675  0.0239 -0.1639  0.1702
 1718TIP3    H126789   1.052   2.591   2.751  0.6638  0.0435  0.3535
 1718TIP3    H226790   1.042   2.462   2.674 -0.5369  0.1332  0.3383
 1719TIP3   OH226791   5.695   4.430   7.948 -0.7242 -0.2226  1.0180
 1719TIP3    H126792   5.682   4.494   8.018 -1.3902 -0.0722  0.7629
 1719TIP3    H226793   5.790   4.424   7.939 -0.6461  1.3737  0.4511
 1720TIP3   OH226794   1.000   0.845   1.307 -0.6471  0.1140 -0.0477
 1720TIP3    H126795   0.945   0.797   1.244 -0.4183  0.7484 -0.7421
 1720TIP3    H226796   1.089   0.836   1.272 -0.3124 -0.7817  0.9911
 1721TIP3   OH226797   4.551   2.284   1.239 -0.5245 -0.3590 -0.0303
 1721TIP3    H126798   4.475   2.270   1.181 -1.6408 -1.4902  1.6130
 1721TIP3    H226799   4.626   2.259   1.186 -1.1434  1.6285 -2.0215
 1722TIP3   OH226800   3.116   6.032   1.039  0.1668  0.4381  0.8017
 1722TIP3    H126801   3.056   6.106   1.034  1.4532  1.5149  0.6264
 1722TIP3    H226802   3.085   5.970   0.974 -0.1401  1.4400 -0.0232
 1723TIP3   OH226803   6.799   3.777   0.847 -0.6290  0.0684 -0.1465
 1723TIP3    H126804   6.829   3.704   0.901 -1.9411 -2.1678 -2.2308
 1723TIP3    H226805   6.719   3.807   0.891 -0.2947  0.0250  0.5099
 1724TIP3   OH226806   3.968   1.493   0.721  0.2510  0.1885 -0.8505
 1724TIP3    H126807   3.916   1.527   0.795 -0.0422 -2.3664  0.1999
 1724TIP3    H226808   4.059   1.495   0.754  0.1062 -1.0709 -0.3398
 1725TIP3   OH226809   5.335   0.096   1.823  0.4487 -0.2154  0.1769
 1725TIP3    H126810   5.303   0.006   1.826  0.1022 -0.1424 -0.8885
 1725TIP3    H226811   5.385   0.101   1.742  0.0323  0.6965 -0.0349
 1726TIP3   OH226812   4.670   1.157   1.805 -0.2437 -0.6919  0.0495
 1726TIP3    H126813   4.732   1.090   1.834 -0.2467 -1.4037 -1.4846
 1726TIP3    H226814   4.586   1.127   1.839  0.0676 -0.2505  1.2816
 1727TIP3   OH226815   1.531   4.710   0.421 -0.3685  0.2403 -0.3258
 1727TIP3    H126816   1.460   4.664   0.375 -1.9573  1.0550  1.1663
 1727TIP3    H226817   1.608   4.657   0.405 -1.6636 -1.6869 -0.5580
 1728TIP3   OH226818   4.535   1.353   8.356 -0.0785  0.3834  0.5371
 1728TIP3    H126819   4.504   1.301   8.282  0.2661 -0.0382  0.6809
 1728TIP3    H226820   4.479   1.327   8.429  0.3234 -0.0648  0.6950
 1729TIP3   OH226821   3.469   0.735   1.132  0.5424  0.4063 -0.4009
 1729TIP3    H126822   3.411   0.741   1.056  0.0815  0.9490 -0.0212
 1729TIP3    H226823   3.416   0.768   1.204  1.0316  0.0500  0.1266
 1730TIP3   OH226824   4.367   2.315   0.161  0.6378  0.5927  0.4051
 1730TIP3    H126825   4.313   2.241   0.134 -0.8125  1.7777 -0.0545
 1730TIP3    H226826   4.454   2.294   0.126  0.3571 -1.0379  0.5899
 1731TIP3   OH226827   6.657   0.881   0.583  0.2471 -0.4063  0.4982
 1731TIP3    H126828   6.746   0.911   0.565 -0.3267  0.0923 -1.8343
 1731TIP3    H226829   6.652   0.795   0.542 -0.8656  0.3894 -1.1644
 1732TIP3   OH226830   3.866   5.781   1.004 -0.2942 -0.3145 -0.1952
 1732TIP3    H126831   3.865   5.809   0.913 -0.8247 -1.2345 -0.4883
 1732TIP3    H226832   3.795   5.718   1.011  1.0994 -1.9130  0.3191
 1733TIP3   OH226833   2.437   2.462   0.020 -0.5020 -0.2365 -0.5524
 1733TIP3    H126834   2.432   2.419  -0.065 -0.0513 -1.6086  0.0859
 1733TIP3    H226835   2.474   2.548   0.001 -2.8535  0.5469 -2.0644
 1734TIP3   OH226836   6.912   2.623   8.170  0.9877  0.5133  0.0748
 1734TIP3    H126837   6.836   2.681   8.174  0.5991  0.1346 -1.2312
 1734TIP3    H226838   6.970   2.663   8.106  2.4944  1.4297  1.9006
 1735TIP3   OH226839   0.767   5.114   2.833  0.1839 -0.1964 -0.2009
 1735TIP3    H126840   0.756   5.028   2.873  1.1373 -0.0667  0.3924
 1735TIP3    H226841   0.740   5.102   2.742  0.8488 -1.2832 -0.2829
 1736TIP3   OH226842   4.073   0.484   1.424  0.4411  0.0289  0.0088
 1736TIP3    H126843   4.007   0.552   1.411 -0.2919 -0.9894 -2.1378
 1736TIP3    H226844   4.030   0.404   1.394  2.1669 -0.9133 -0.0344
 1737TIP3   OH226845   1.560   2.502   0.986  0.4065 -0.1838  0.3010
 1737TIP3    H126846   1.621   2.475   0.917 -0.8347 -2.6158  0.0539
 1737TIP3    H226847   1.590   2.455   1.064 -0.1420 -0.0631  0.5887
 1738TIP3   OH226848   3.287   4.958   7.378  0.0944 -0.0617  0.1366
 1738TIP3    H126849   3.236   4.935   7.456  0.3338  1.0695  0.6384
 1738TIP3    H226850   3.375   4.927   7.397  0.1543  0.2211  0.3237
 1739TIP3   OH226851   6.597   6.811   1.550 -0.4602 -0.4299  0.2922
 1739TIP3    H126852   6.516   6.830   1.598  0.0536  0.3939  0.8477
 1739TIP3    H226853   6.597   6.716   1.541 -0.9150 -0.5452  1.3130
 1740TIP3   OH226854   5.537   0.925   7.937 -0.2976  0.0785 -0.3249
 1740TIP3    H126855   5.448   0.956   7.918 -0.8429 -0.7190  0.7907
 1740TIP3    H226856   5.560   0.870   7.863 -0.2437  1.2300 -1.1942
 1741TIP3   OH226857   1.158   5.189   1.935  0.7310 -0.0932 -0.0823
 1741TIP3    H126858   1.207   5.108   1.952  0.4918 -0.4764 -1.1407
 1741TIP3    H226859   1.077   5.178   1.984  0.2002 -1.0259 -1.1176
 1742TIP3   OH226860   5.708   2.465   1.235 -0.0689  0.0696 -0.5758
 1742TIP3    H126861   5.761   2.524   1.288 -1.9792  2.0055 -0.6601
 1742TIP3    H226862   5.760   2.448   1.157  1.1130  0.4682  0.1028
 1743TIP3   OH226863   1.195   1.467   1.234 -0.3052 -0.4820 -0.6303
 1743TIP3    H126864   1.152   1.519   1.302 -2.0156 -1.4029 -0.9413
 1743TIP3    H226865   1.215   1.529   1.164 -1.3620 -0.0437 -0.5585
 1744TIP3   OH226866   3.737   4.565   2.770 -0.2286 -0.3389  0.0330
 1744TIP3    H126867   3.788   4.634   2.728 -2.2742  1.4319  0.2667
 1744TIP3    H226868   3.721   4.500   2.701  0.2655  0.2761 -0.6720
 1745TIP3   OH226869   4.872   4.295   0.087  0.1371  0.4020 -0.0255
 1745TIP3    H126870   4.830   4.217   0.124 -1.3898  0.9199 -0.5704
 1745TIP3    H226871   4.840   4.298  -0.003  0.4236  1.4809 -0.1025
 1746TIP3   OH226872   1.266   0.979   1.231  0.0483 -0.1098 -0.3906
 1746TIP3    H126873   1.345   1.029   1.210 -1.5097  2.3993 -0.6717
 1746TIP3    H226874   1.278   0.952   1.322  1.9716 -1.3610 -0.9618
 1747TIP3   OH226875   1.021   3.388   0.610 -0.6132 -0.1971 -0.0957
 1747TIP3    H126876   1.092   3.358   0.553  0.3597  0.5740  0.6704
 1747TIP3    H226877   0.958   3.316   0.609  0.1729 -0.9004 -0.8080
 1748TIP3   OH226878   3.777   3.253   1.344 -0.6123 -0.6062 -0.1751
 1748TIP3    H126879   3.791   3.188   1.275 -0.3143 -0.8008  0.0662
 1748TIP3    H226880   3.775   3.202   1.425  0.5729 -0.2231  0.1150
 1749TIP3   OH226881   1.116   1.061   7.284  0.6816  0.0189 -0.0136
 1749TIP3    H126882   1.057   1.052   7.209  0.5731 -1.7219  0.2291
 1749TIP3    H226883   1.081   1.000   7.349  1.3352  0.7856  1.0933
 1750TIP3   OH226884   1.565   0.451   2.359 -0.5384 -0.5494  0.5364
 1750TIP3    H126885   1.501   0.381   2.369 -0.7729 -0.3876  0.1742
 1750TIP3    H226886   1.554   0.482   2.269  0.5394 -1.0061  0.2268
 1751TIP3   OH226887   3.017   6.025   2.068  0.1764  0.3010  0.1128
 1751TIP3    H126888   2.995   6.030   2.161 -0.0537  0.1449  0.0681
 1751TIP3    H226889   3.013   5.931   2.048  1.2838  0.2273  0.2013
 1752TIP3   OH226890   1.546   6.093   8.184  0.2644  0.2300  0.0347
 1752TIP3    H126891   1.612   6.051   8.129 -1.0054  0.3502 -1.6486
 1752TIP3    H226892   1.506   6.159   8.127  0.4578  2.0019  1.8207
 1753TIP3   OH226893   5.051   0.225   0.765 -0.5005 -0.3263 -0.5929
 1753TIP3    H126894   4.992   0.297   0.745 -1.0964 -0.9575 -1.1277
 1753TIP3    H226895   4.998   0.161   0.813 -0.2843 -0.9328 -1.1415
 1754TIP3   OH226896   4.143   5.467   0.978  0.1254 -0.7050 -0.1651
 1754TIP3    H126897   4.102   5.458   0.892  0.2915  1.0388 -0.4618
 1754TIP3    H226898   4.109   5.549   1.012  0.1199 -1.3344  1.4331
 1755TIP3   OH226899   1.145   6.194   7.004 -0.5321  0.0098 -0.5699
 1755TIP3    H126900   1.235   6.162   7.002  0.0621  1.6129 -2.0037
 1755TIP3    H226901   1.094   6.127   6.958 -0.3427 -1.5290  1.3574
 1756TIP3   OH226902   5.964   2.813   8.364  0.2657  0.3981  0.4035
 1756TIP3    H126903   6.016   2.811   8.445  0.6043 -3.7464  0.3312
 1756TIP3    H226904   6.028   2.800   8.294 -0.4001 -0.4093 -0.0800
 1757TIP3   OH226905   3.328   6.175   7.878 -0.3037  0.2226  0.2457
 1757TIP3    H126906   3.415   6.197   7.846  0.5279 -2.5889  0.3457
 1757TIP3    H226907   3.331   6.194   7.972  0.5814 -0.8492  0.4463
 1758TIP3   OH226908   1.007   1.255   1.976  0.0451 -0.0424  0.3064
 1758TIP3    H126909   1.067   1.304   1.920  1.1836  0.7397  2.1058
 1758TIP3    H226910   1.064   1.218   2.044 -1.6301  2.2940  3.2148
 1759TIP3   OH226911   4.565   2.437   7.140  0.3672 -0.2632  0.0936
 1759TIP3    H126912   4.497   2.444   7.207  0.6887 -1.7492  0.6126
 1759TIP3    H226913   4.517   2.431   7.058 -0.0427  1.0769  0.2148
 1760TIP3   OH226914   2.915   4.083   1.988  0.2736 -0.0286 -0.1171
 1760TIP3    H126915   2.835   4.127   1.961  0.2384  1.0843  1.6426
 1760TIP3    H226916   2.885   4.011   2.044  0.4655  1.4933  2.0872
 1761TIP3   OH226917   6.660   1.249   1.361  0.4156  0.1711  0.1202
 1761TIP3    H126918   6.703   1.236   1.276  0.5886 -1.0243  0.3822
 1761TIP3    H226919   6.609   1.329   1.349  1.2996  0.6327 -0.7628
 1762TIP3   OH226920   3.815   4.147   8.056 -0.5986  0.1855 -0.2183
 1762TIP3    H126921   3.727   4.115   8.079 -0.0497 -1.2473 -0.0175
 1762TIP3    H226922   3.866   4.134   8.136  0.2423 -0.7090 -0.8800
 1763TIP3   OH226923   3.445   4.459   3.148 -0.3273 -0.2755 -0.1566
 1763TIP3    H126924   3.485   4.382   3.109 -0.1308  0.0059 -0.5149
 1763TIP3    H226925   3.381   4.424   3.211  1.2248 -0.7595  1.2370
 1764TIP3   OH226926   3.569   4.333   1.654  0.1374  0.5852 -0.0704
 1764TIP3    H126927   3.556   4.424   1.625 -0.8569  0.1204 -1.1675
 1764TIP3    H226928   3.481   4.300   1.669  0.4920 -0.2058  0.3090
 1765TIP3   OH226929   3.870   2.361   1.919 -0.2769  0.5955  0.2770
 1765TIP3    H126930   3.880   2.335   1.827  0.2833 -0.5458  0.6452
 1765TIP3    H226931   3.828   2.447   1.915  0.5094  0.9497 -1.0750
 1766TIP3   OH226932   0.210   0.802   8.329  0.0416  0.1187  0.4385
 1766TIP3    H126933   0.159   0.848   8.262 -1.1784 -0.5108  0.9154
 1766TIP3    H226934   0.189   0.709   8.316  1.4466 -0.2173  0.3388
 1767TIP3   OH226935   0.834   3.949   2.158 -0.0644 -0.5463 -0.3798
 1767TIP3    H126936   0.759   3.988   2.204  0.5519 -0.9490  0.9928
 1767TIP3    H226937   0.801   3.933   2.069 -1.1392  0.6549 -0.2266
 1768TIP3   OH226938   4.258   2.015   7.592  0.9220  0.7983 -0.1887
 1768TIP3    H126939   4.191   2.082   7.603 -0.3644 -0.5972  1.0617
 1768TIP3    H226940   4.321   2.032   7.662  0.2892  0.4015  0.5002
 1769TIP3   OH226941   1.986   6.763   7.356  0.1320 -0.0339  0.1362
 1769TIP3    H126942   1.930   6.691   7.329  0.5968 -1.4799  2.6465
 1769TIP3    H226943   1.930   6.841   7.350 -1.1770 -0.9739 -0.2593
 1770TIP3   OH226944   6.400   2.159   8.413 -0.0036  0.2010 -0.3844
 1770TIP3    H126945   6.473   2.213   8.384 -0.2570  0.8021  0.0779
 1770TIP3    H226946   6.325   2.218   8.416 -0.4114 -0.3040 -0.4140
 1771TIP3   OH226947   2.750   2.285   0.064  0.2243  0.0292 -0.0937
 1771TIP3    H126948   2.824   2.337   0.095  0.3219 -0.1877  0.0379
 1771TIP3    H226949   2.790   2.211   0.017  0.1474 -0.9983  1.3866
 1772TIP3   OH226950   4.788   6.241   8.030  0.6066 -0.1040  0.2836
 1772TIP3    H126951   4.729   6.166   8.017  0.1093  0.3155  0.1160
 1772TIP3    H226952   4.829   6.224   8.115  0.2254 -0.3856  0.4143
 1773TIP3   OH226953   3.713   4.645   8.222  0.4736  0.3480 -0.0548
 1773TIP3    H126954   3.780   4.694   8.174  0.8968  1.8574  1.9392
 1773TIP3    H226955   3.631   4.672   8.183  0.8955 -0.3509 -1.5107
 1774TIP3   OH226956   3.761   4.732   0.752  0.1835 -0.1870  0.2293
 1774TIP3    H126957   3.792   4.682   0.828 -0.0363 -1.0974 -0.2575
 1774TIP3    H226958   3.840   4.744   0.699  0.1680 -0.3677  0.1624
 1775TIP3   OH226959   5.537   1.836   1.359  0.5340 -0.2480 -0.4008
 1775TIP3    H126960   5.615   1.892   1.348 -0.7336  1.6105 -0.3985
 1775TIP3    H226961   5.569   1.760   1.407  2.2015  0.8716  0.3663
 1776TIP3   OH226962   4.752   3.451   7.037 -0.5851 -0.2526  0.1828
 1776TIP3    H126963   4.766   3.356   7.040 -0.4937 -0.2497 -0.0793
 1776TIP3    H226964   4.699   3.465   6.958  2.1161  0.2211 -1.7046
 1777TIP3   OH226965   0.966   1.581   8.430 -0.2138  0.1053 -0.0044
 1777TIP3    H126966   1.000   1.623   8.509  1.0542 -2.3271  0.8392
 1777TIP3    H226967   0.877   1.615   8.421  0.8269  3.2380  0.3080
 1778TIP3   OH226968   0.710   1.114   8.318 -0.5569 -0.5533 -0.4842
 1778TIP3    H126969   0.692   1.025   8.286  0.1951 -0.3535 -1.5152
 1778TIP3    H226970   0.648   1.127   8.390 -1.0621 -1.7007 -0.6948
 1779TIP3   OH226971   0.720   5.182   0.837  0.2075 -0.4259  0.1518
 1779TIP3    H126972   0.666   5.135   0.773  1.3091 -0.4148 -0.8327
 1779TIP3    H226973   0.806   5.140   0.832  0.3188 -0.4422  1.6735
 1780TIP3   OH226974   0.186   5.665   2.380 -0.1770 -0.1710  0.1369
 1780TIP3    H126975   0.217   5.690   2.468  1.5998 -1.0941 -0.1843
 1780TIP3    H226976   0.093   5.646   2.392 -0.4495  1.6458  1.3978
 1781TIP3   OH226977   1.039   2.394   0.035 -0.1693 -0.3756 -0.8510
 1781TIP3    H126978   1.120   2.343   0.047 -1.1272 -2.4142 -2.5773
 1781TIP3    H226979   0.996   2.389   0.120  0.5806 -0.9824 -0.4876
 1782TIP3   OH226980   2.760   6.932   8.475  0.0095 -0.0608 -0.3447
 1782TIP3    H126981   2.734   6.927   8.382  0.8258  0.5297 -0.6112
 1782TIP3    H226982   2.693   6.987   8.515  0.3947  0.8099 -0.8675
 1783TIP3   OH226983   6.916   6.371   0.288 -0.1989 -0.0391 -0.0075
 1783TIP3    H126984   7.010   6.384   0.288 -0.2038  0.0137  0.6064
 1783TIP3    H226985   6.880   6.453   0.254 -0.0371  0.0668  0.0764
 1784TIP3   OH226986   6.102   3.611   2.499 -0.1040  0.0789 -0.3400
 1784TIP3    H126987   6.187   3.590   2.539 -0.8681 -1.4920  0.5436
 1784TIP3    H226988   6.053   3.529   2.503 -1.5472  0.8704 -1.1731
 1785TIP3   OH226989   2.632   6.874   1.622  0.6038  0.4379 -0.2388
 1785TIP3    H126990   2.709   6.851   1.570  1.0366 -1.6756  1.1934
 1785TIP3    H226991   2.665   6.884   1.711 -0.8604 -1.7372  0.6514
 1786TIP3   OH226992   6.117   1.519   0.506 -0.3152 -0.0136 -0.0968
 1786TIP3    H126993   6.147   1.601   0.467 -2.2758  0.7076 -0.2102
 1786TIP3    H226994   6.037   1.497   0.457  0.2079 -2.0599 -0.1392
 1787TIP3   OH226995   0.457   2.475   0.101  0.7162 -0.2004  0.2629
 1787TIP3    H126996   0.418   2.412   0.041  0.3682  1.3377 -1.1870
 1787TIP3    H226997   0.549   2.480   0.075  0.6682  0.1334  0.1543
 1788TIP3   OH226998   5.765   3.928   2.358  0.0246  0.1328 -0.3181
 1788TIP3    H126999   5.718   3.898   2.436 -0.6682 -3.1889 -1.8313
 1788TIP3    H227000   5.845   3.877   2.356  0.0391  0.1589 -1.7335
 1789TIP3   OH227001   4.713   3.998   7.124  0.8578  0.0990  0.2253
 1789TIP3    H127002   4.710   4.091   7.100  2.4012  0.2085  0.3300
 1789TIP3    H227003   4.804   3.983   7.148  0.8623 -1.6835 -0.7385
 1790TIP3   OH227004   1.892   4.190   7.572 -1.1385 -0.4803 -0.0263
 1790TIP3    H127005   1.985   4.192   7.598 -1.2535  0.3990  0.3381
 1790TIP3    H227006   1.844   4.180   7.655 -1.3991 -0.2212 -0.1464
 1791TIP3   OH227007   5.199   4.409   0.763  0.7386  0.5495  0.1202
 1791TIP3    H127008   5.120   4.389   0.813  1.7293  0.4658  1.7469
 1791TIP3    H227009   5.269   4.408   0.829  1.9233  1.7735 -1.0719
 1792TIP3   OH227010   0.555   3.961   8.273 -0.0598  0.3006 -0.7671
 1792TIP3    H127011   0.645   3.947   8.245  0.2086  1.9467 -0.7930
 1792TIP3    H227012   0.529   4.044   8.234 -0.7195  1.1371  1.2730
 1793TIP3   OH227013   1.562   6.258   7.851 -0.1690 -0.0697 -0.2405
 1793TIP3    H127014   1.545   6.164   7.854  0.8138 -0.2325  1.9950
 1793TIP3    H227015   1.487   6.297   7.896  0.6801 -0.0264  1.1805
 1794TIP3   OH227016   2.565   4.276   7.508 -0.1322  0.7494  0.5098
 1794TIP3    H127017   2.621   4.297   7.583  0.4973  1.9322 -0.2767
 1794TIP3    H227018   2.621   4.225   7.450 -0.4370  0.3679  0.5449
 1795TIP3   OH227019   5.529   6.734   7.180 -0.3630 -0.4356  0.2682
 1795TIP3    H127020   5.529   6.721   7.085  0.7747  1.3142 -0.0147
 1795TIP3    H227021   5.604   6.685   7.211  1.1347  1.4753 -0.1824
 1796TIP3   OH227022   0.594   5.449   8.212  0.2937  0.3144  0.3545
 1796TIP3    H127023   0.500   5.430   8.218  0.5987 -0.9698  1.6065
 1796TIP3    H227024   0.633   5.400   8.284  2.0420  0.1554 -0.6406
 1797TIP3   OH227025   6.644   3.173   2.485  0.2240 -0.6642 -0.6821
 1797TIP3    H127026   6.581   3.236   2.520  0.3989 -0.1410 -1.2940
 1797TIP3    H227027   6.656   3.110   2.556  1.7802  1.2455  0.8499
 1798TIP3   OH227028   0.156   5.628   6.933 -0.2425  0.2376 -0.3253
 1798TIP3    H127029   0.250   5.643   6.949 -0.3338  0.4930 -0.0046
 1798TIP3    H227030   0.151   5.598   6.843  0.1793 -0.0482 -0.2588
 1799TIP3   OH227031   0.018   1.958   2.463  0.2724  0.2345 -0.3206
 1799TIP3    H127032   0.103   1.919   2.480  0.0607 -0.3212 -0.5114
 1799TIP3    H227033   0.010   2.029   2.527 -0.1492 -1.2406  1.3427
 1800TIP3   OH227034   5.956   4.152   3.028 -0.2404  0.2607  0.0885
 1800TIP3    H127035   5.960   4.079   3.090  0.8277 -0.9366 -1.2907
 1800TIP3    H227036   5.863   4.163   3.010 -0.4852 -0.0921  1.0720
 1801TIP3   OH227037   6.293   3.428   7.917 -0.3721  0.0868  0.4986
 1801TIP3    H127038   6.358   3.484   7.959 -0.0612  0.3010 -0.2438
 1801TIP3    H227039   6.337   3.344   7.907  0.3755  0.6380 -1.3569
 1802TIP3   OH227040   4.268   3.955   0.856  0.7262  0.3859 -0.3011
 1802TIP3    H127041   4.236   3.876   0.812 -0.0685  0.5358 -0.0094
 1802TIP3    H227042   4.294   3.925   0.943 -0.3702  0.5700  0.1135
 1803TIP3   OH227043   3.828   3.435   7.787  0.2536 -0.2790  0.6322
 1803TIP3    H127044   3.747   3.405   7.746 -0.1448 -0.9236  1.8400
 1803TIP3    H227045   3.898   3.399   7.732 -0.2672 -0.6602  0.2160
 1804TIP3   OH227046   6.204   1.741   0.093  0.1572  0.5045 -0.1288
 1804TIP3    H127047   6.222   1.682   0.021  0.5668  0.0270  0.3576
 1804TIP3    H227048   6.112   1.766   0.082 -0.1797 -0.6640 -0.0229
 1805TIP3   OH227049   1.115   0.991   0.657  0.1662 -0.0591 -0.6653
 1805TIP3    H127050   1.124   1.061   0.721 -1.8564 -0.2949 -0.0245
 1805TIP3    H227051   1.202   0.952   0.650  1.1340  1.9886 -0.4524
 1806TIP3   OH227052   2.993   5.079   0.673 -0.5420  0.0172 -0.0006
 1806TIP3    H127053   2.967   5.009   0.732  0.1901  0.2937  0.6783
 1806TIP3    H227054   3.050   5.135   0.726 -1.2371  1.2183 -0.4802
 1807TIP3   OH227055   5.297   3.615   1.949  0.2407 -0.1624 -0.5904
 1807TIP3    H127056   5.376   3.620   1.895  0.5195 -2.1046 -0.4593
 1807TIP3    H227057   5.318   3.665   2.027  0.3099  1.6085 -1.6985
 1808TIP3   OH227058   2.317   4.863   8.070 -0.0562 -0.2576 -0.0230
 1808TIP3    H127059   2.264   4.942   8.089  0.7402  0.0454  1.0249
 1808TIP3    H227060   2.253   4.799   8.039 -0.5039  1.3406 -2.7223
 1809TIP3   OH227061   3.111   4.275   1.519 -0.3647 -0.0971 -0.1628
 1809TIP3    H127062   3.199   4.243   1.501 -0.5862 -0.9395  0.2132
 1809TIP3    H227063   3.083   4.228   1.598 -0.8025  0.8361  0.2579
 1810TIP3   OH227064   4.822   3.589   0.840 -0.1540  0.2144 -0.1979
 1810TIP3    H127065   4.750   3.650   0.856  0.7144  1.1994  0.0798
 1810TIP3    H227066   4.901   3.637   0.865  0.7350 -0.3798 -1.6994
 1811TIP3   OH227067   0.051   3.533   0.335 -0.6004  0.0431  0.3103
 1811TIP3    H127068   0.040   3.599   0.267 -0.9557  0.0884  0.4109
 1811TIP3    H227069   0.136   3.494   0.316 -0.5619  0.2609  0.0189
 1812TIP3   OH227070   2.694   2.603   1.282 -0.2488  0.1709  0.0568
 1812TIP3    H127071   2.781   2.571   1.257 -0.1585 -0.4525  1.0924
 1812TIP3    H227072   2.643   2.523   1.297 -0.4456  0.5080  1.2791
 1813TIP3   OH227073   3.400   0.408   2.692 -0.6896 -0.2071 -0.3829
 1813TIP3    H127074   3.372   0.330   2.645  0.1463 -0.5249 -0.3795
 1813TIP3    H227075   3.358   0.480   2.646 -1.5460 -0.6656 -0.3270
 1814TIP3   OH227076   3.229   3.963   2.117 -0.4413 -0.1548  0.7355
 1814TIP3    H127077   3.163   3.895   2.129 -1.3236  0.9048  2.0049
 1814TIP3    H227078   3.200   4.012   2.040 -1.8823  1.1101  2.0374
 1815TIP3   OH227079   1.046   2.789   2.253 -0.5233  0.4354 -0.6108
 1815TIP3    H127080   1.021   2.805   2.344  2.2533  2.6255 -0.0702
 1815TIP3    H227081   1.027   2.696   2.239  2.4978 -1.1473  3.6028
 1816TIP3   OH227082   6.079   0.513   7.027 -0.3703 -0.1548  0.3657
 1816TIP3    H127083   6.134   0.453   7.077 -3.9170 -1.3659  3.3071
 1816TIP3    H227084   6.072   0.474   6.941  0.3499 -1.9898  1.0943
 1817TIP3   OH227085   6.187   2.194   1.164 -0.3704 -0.5378 -0.7694
 1817TIP3    H127086   6.226   2.276   1.135  2.1082 -1.6963 -0.8957
 1817TIP3    H227087   6.260   2.132   1.169 -1.8892 -2.3429  0.8216
 1818TIP3   OH227088   4.597   3.360   1.809 -0.2271 -0.2308 -0.3685
 1818TIP3    H127089   4.667   3.303   1.776 -0.3128 -0.4898 -0.1050
 1818TIP3    H227090   4.543   3.377   1.732 -0.9807 -1.6406 -0.1826
 1819TIP3   OH227091   1.675   3.144   1.905 -0.2608  0.1583 -0.0837
 1819TIP3    H127092   1.734   3.133   1.979  0.5006  0.9431 -0.5459
 1819TIP3    H227093   1.683   3.237   1.882  1.5964 -0.5547 -2.8204
 1820TIP3   OH227094   3.075   6.431   0.106  0.3335  0.4454  0.3661
 1820TIP3    H127095   2.990   6.401   0.138  0.1162  0.6481 -0.0139
 1820TIP3    H227096   3.108   6.488   0.176 -0.5348  1.5935 -0.1216
 1821TIP3   OH227097   0.730   0.804   2.657 -0.0582  0.2598  0.2230
 1821TIP3    H127098   0.753   0.879   2.602 -4.2164  2.5574  1.1752
 1821TIP3    H227099   0.789   0.811   2.733  0.0575  2.2237 -0.0016
 1822TIP3   OH227100   2.500   0.412   1.077 -0.3555  0.0432  0.4384
 1822TIP3    H127101   2.569   0.382   1.019 -0.7659  1.4957 -0.8673
 1822TIP3    H227102   2.545   0.436   1.158  0.2655 -1.6999  0.6517
 1823TIP3   OH227103   4.449   4.239   1.130 -0.1214  0.0018  0.0812
 1823TIP3    H127104   4.363   4.265   1.099 -0.0469 -0.2272 -0.3364
 1823TIP3    H227105   4.433   4.188   1.209 -0.4727 -1.1943 -0.7291
 1824TIP3   OH227106   0.724   3.015   0.542 -0.1417 -0.5326 -0.1530
 1824TIP3    H127107   0.766   3.032   0.626 -0.8975  0.8583 -0.0159
 1824TIP3    H227108   0.776   2.945   0.502  0.1418 -1.3166  1.5186
 1825TIP3   OH227109   6.586   5.167   7.439 -0.2117 -0.1907 -0.2588
 1825TIP3    H127110   6.578   5.179   7.345  1.7622 -1.2076 -0.5996
 1825TIP3    H227111   6.635   5.243   7.469 -1.9510  0.8071  0.2076
 1826TIP3   OH227112   6.075   1.630   8.155  0.3508 -0.6876  0.0436
 1826TIP3    H127113   5.979   1.629   8.146  0.1501  0.2410  1.6592
 1826TIP3    H227114   6.102   1.541   8.132 -0.9546 -1.0956 -0.0319
 1827TIP3   OH227115   4.954   0.365   8.453  0.0205  1.2936  0.2422
 1827TIP3    H127116   4.975   0.283   8.498  0.2645  0.2549 -1.6802
 1827TIP3    H227117   4.892   0.408   8.512 -1.2739 -0.9523  0.6837
 1828TIP3   OH227118   4.801   5.620   2.028  0.0276  0.7736  0.4216
 1828TIP3    H127119   4.896   5.630   2.017 -0.1303  1.0049 -0.8728
 1828TIP3    H227120   4.763   5.684   1.969 -0.9474  0.3939  0.6145
 1829TIP3   OH227121   0.905   0.329   1.456  0.4875 -0.3816 -0.2195
 1829TIP3    H127122   0.935   0.393   1.521 -0.5350 -0.4761  0.3675
 1829TIP3    H227123   0.813   0.315   1.477  0.1054 -0.3364 -1.7729
 1830TIP3   OH227124   1.297   3.234   1.073  0.5263 -0.3967  0.2207
 1830TIP3    H127125   1.349   3.171   1.123  3.1734 -0.9476 -2.9003
 1830TIP3    H227126   1.334   3.319   1.097  0.5625 -0.4929  0.5156
 1831TIP3   OH227127   2.248   3.725   7.463  0.7488  0.3687  0.1877
 1831TIP3    H127128   2.255   3.819   7.479  0.8224  0.3514  0.2643
 1831TIP3    H227129   2.333   3.690   7.491  0.1037  0.0493  1.8811
 1832TIP3   OH227130   1.689   1.163   8.144 -0.3662  0.3324  0.4232
 1832TIP3    H127131   1.771   1.144   8.190 -1.3092 -0.3934  1.8963
 1832TIP3    H227132   1.637   1.083   8.154 -1.2171  0.7405 -0.5721
 1833TIP3   OH227133   0.054   6.374   1.614 -0.4999  0.0322 -0.5200
 1833TIP3    H127134   0.143   6.349   1.588 -0.0381  1.7489 -0.7318
 1833TIP3    H227135   0.018   6.296   1.655  1.0701 -0.7428 -0.5513
 1834TIP3   OH227136   3.658   1.235   2.179  0.5306 -0.1759  0.2753
 1834TIP3    H127137   3.692   1.279   2.101 -2.3887  2.6146  0.3572
 1834TIP3    H227138   3.584   1.289   2.207 -1.3642 -3.4841  2.4072
 1835TIP3   OH227139   2.092   3.169   1.450  0.3494 -0.2966 -0.0815
 1835TIP3    H127140   2.150   3.130   1.515 -0.5900  1.4062  1.8968
 1835TIP3    H227141   2.090   3.263   1.472 -2.8890 -0.2175 -0.1845
 1836TIP3   OH227142   4.582   1.878   7.379  0.0591  0.1439  0.1208
 1836TIP3    H127143   4.589   1.927   7.460  1.5427 -0.9317  0.6750
 1836TIP3    H227144   4.668   1.886   7.337 -0.3983 -0.0633 -0.9061
 1837TIP3   OH227145   2.935   0.095   0.806  0.4251  0.2367 -0.3640
 1837TIP3    H127146   2.919   0.099   0.901  1.9010  0.1999 -0.1005
 1837TIP3    H227147   2.855   0.131   0.767 -0.3834 -0.1476  0.8741
 1838TIP3   OH227148   4.189   0.298   8.213 -0.5156  0.1305 -0.3416
 1838TIP3    H127149   4.123   0.238   8.179  0.3467  1.2315 -4.5669
 1838TIP3    H227150   4.141   0.380   8.228 -0.7507 -0.0988  0.1551
 1839TIP3   OH227151   1.038   4.658   2.567  0.7407  0.4707  0.2843
 1839TIP3    H127152   1.055   4.692   2.654 -1.0515  0.5528  0.6281
 1839TIP3    H227153   0.958   4.606   2.576  0.6710  0.2627 -1.2422
 1840TIP3   OH227154   6.134   3.630   8.286  0.1825 -0.5785  0.8169
 1840TIP3    H127155   6.161   3.721   8.298 -2.7280  0.3410  1.1726
 1840TIP3    H227156   6.111   3.624   8.193  2.0249 -1.5428  0.3574
 1841TIP3   OH227157   5.840   2.049   3.020 -0.6231  0.6643 -0.0670
 1841TIP3    H127158   5.934   2.053   3.038 -0.3208 -1.6744 -0.7813
 1841TIP3    H227159   5.833   2.044   2.925 -1.3077 -1.0355  0.0252
 1842TIP3   OH227160   3.099   0.624   2.806  0.4861 -0.3590  0.5124
 1842TIP3    H127161   3.027   0.671   2.848  0.9215 -0.2664  1.1687
 1842TIP3    H227162   3.137   0.687   2.745 -0.5579 -0.6993 -0.5286
 1843TIP3   OH227163   1.769   0.530   8.446  0.0882  0.1375  0.3393
 1843TIP3    H127164   1.732   0.492   8.527  0.2942  1.4087  1.0536
 1843TIP3    H227165   1.843   0.473   8.425 -1.4909 -1.7673 -0.4577
 1844TIP3   OH227166   6.201   3.887   1.693  0.0596  0.5408  0.3204
 1844TIP3    H127167   6.228   3.945   1.765  1.0049 -0.3153  0.6792
 1844TIP3    H227168   6.232   3.931   1.614 -0.6311  1.2932  0.4481
 1845TIP3   OH227169   0.676   5.455   1.602 -0.2664 -0.4921  0.6800
 1845TIP3    H127170   0.644   5.438   1.691 -2.1095  1.2175  0.4065
 1845TIP3    H227171   0.760   5.498   1.615  0.5572 -2.2325  1.4993
 1846TIP3   OH227172   5.876   6.016   7.297 -0.2870  0.1404 -0.2525
 1846TIP3    H127173   5.822   6.080   7.251  3.1228  1.4985 -2.7336
 1846TIP3    H227174   5.908   5.957   7.229  0.1555 -1.5809  1.3427
 1847TIP3   OH227175   4.393   1.034   7.015 -0.1337 -0.1025 -0.2029
 1847TIP3    H127176   4.346   0.966   6.965  0.1699 -1.4800  1.3274
 1847TIP3    H227177   4.472   0.991   7.046 -1.7300 -0.3518  4.0800
 1848TIP3   OH227178   5.158   1.872   0.419 -0.2150  0.5998  0.0603
 1848TIP3    H127179   5.070   1.891   0.451 -0.4809  0.9212 -0.8266
 1848TIP3    H227180   5.144   1.833   0.332  0.5435  1.6544 -0.5647
 1849TIP3   OH227181   6.171   4.704   0.633 -0.0633 -0.0541 -0.4910
 1849TIP3    H127182   6.197   4.767   0.700  0.1960 -1.2219  0.5513
 1849TIP3    H227183   6.076   4.696   0.644  0.0718 -0.7902  0.2670
 1850TIP3   OH227184   5.652   2.013   0.335  0.6412 -0.0608 -0.0451
 1850TIP3    H127185   5.666   2.067   0.258 -0.0077 -0.9318 -0.7921
 1850TIP3    H227186   5.557   2.006   0.343  0.7089 -1.3488 -0.1663
 1851TIP3   OH227187   1.946   0.190   0.265  0.2006 -0.3635 -0.1354
 1851TIP3    H127188   2.030   0.235   0.254  0.8048 -1.8158 -1.9363
 1851TIP3    H227189   1.906   0.233   0.340  1.3400  2.2146 -0.8813
 1852TIP3   OH227190   2.320   3.435   7.624 -0.0585 -0.2822 -0.5001
 1852TIP3    H127191   2.414   3.431   7.609 -0.0774  0.7345 -0.9806
 1852TIP3    H227192   2.281   3.404   7.542 -0.1304  1.5669 -1.2309
 1853TIP3   OH227193   0.702   3.025   2.644 -0.3085 -0.3348 -0.4530
 1853TIP3    H127194   0.637   3.022   2.715 -0.5750  0.2154 -0.6686
 1853TIP3    H227195   0.782   3.057   2.686 -0.9643  1.8482 -0.7435
 1854TIP3   OH227196   0.340   0.273   2.832 -0.3524  0.8405 -0.6025
 1854TIP3    H127197   0.314   0.365   2.831 -0.3733  0.8549  0.3472
 1854TIP3    H227198   0.431   0.274   2.860 -0.5053  0.5419 -0.0885
 1855TIP3   OH227199   3.262   2.125   1.275 -0.1748 -0.2822 -0.3504
 1855TIP3    H127200   3.319   2.175   1.217  0.7584 -0.9015  0.0132
 1855TIP3    H227201   3.316   2.106   1.351 -1.1834 -0.0301  0.4521
 1856TIP3   OH227202   6.639   1.581   1.068  1.0678  0.5739 -0.1558
 1856TIP3    H127203   6.653   1.498   1.114 -1.2690  1.0124  1.5312
 1856TIP3    H227204   6.547   1.578   1.042  1.3662  1.9943 -1.4913
 1857TIP3   OH227205   5.869   6.044   6.953 -0.2707 -0.0063  0.8365
 1857TIP3    H127206   5.947   5.996   6.980 -0.5595  0.0635  1.8460
 1857TIP3    H227207   5.850   6.012   6.865  1.0998  0.2366  0.4260
 1858TIP3   OH227208   4.764   3.640   7.757  0.2222  0.1630  0.3823
 1858TIP3    H127209   4.767   3.553   7.797 -0.0264 -1.3300 -2.5109
 1858TIP3    H227210   4.706   3.629   7.681  4.3173  1.2276 -3.3492
 1859TIP3   OH227211   6.052   4.951   1.898  0.0873  0.4283 -0.1433
 1859TIP3    H127212   5.991   5.017   1.931 -1.4218 -1.2541  0.5574
 1859TIP3    H227213   6.086   4.907   1.976  1.1179  0.3725 -0.6004
 1860TIP3   OH227214   5.293   2.897   0.846 -0.4076  0.3773 -0.3175
 1860TIP3    H127215   5.346   2.974   0.825  1.6664 -0.6373  0.8716
 1860TIP3    H227216   5.244   2.923   0.924 -1.4907  1.2282 -1.2558
 1861TIP3   OH227217   6.184   6.880   8.352  0.2037  0.0324  0.2480
 1861TIP3    H127218   6.124   6.954   8.338 -0.2408 -0.2224  0.7371
 1861TIP3    H227219   6.235   6.875   8.272 -0.4457  0.2498 -0.1915
 1862TIP3   OH227220   1.406   3.342   8.422 -0.0676 -0.0707  0.2575
 1862TIP3    H127221   1.366   3.421   8.385 -2.3984  0.4572  3.4567
 1862TIP3    H227222   1.492   3.337   8.381 -1.2993  1.8790 -2.9539
 1863TIP3   OH227223   4.480   0.578   7.208  0.2976 -0.5755 -0.4478
 1863TIP3    H127224   4.574   0.564   7.215  0.0665 -1.9457  0.3589
 1863TIP3    H227225   4.451   0.590   7.298 -0.1553  1.0935 -0.7830
 1864TIP3   OH227226   3.804   1.777   1.816 -0.1155  0.4070 -0.1822
 1864TIP3    H127227   3.895   1.806   1.816 -0.0094  0.1887 -1.7917
 1864TIP3    H227228   3.806   1.689   1.854  0.2263  0.6834  0.4581
 1865TIP3   OH227229   2.962   1.288   6.518  0.0733 -0.1182  0.7234
 1865TIP3    H127230   2.939   1.221   6.453 -1.1536  1.0202 -0.0506
 1865TIP3    H227231   2.969   1.240   6.601  2.2872 -1.7176 -0.2755
 1866TIP3   OH227232   4.182   2.353   1.915 -0.7431 -0.1294 -0.3356
 1866TIP3    H127233   4.110   2.405   1.880 -0.2657  0.2337 -0.8021
 1866TIP3    H227234   4.141   2.273   1.946 -1.3620  0.1246 -0.4818
 1867TIP3   OH227235   0.127   6.072   0.375 -0.4550  0.2316 -0.2284
 1867TIP3    H127236   0.102   6.094   0.285  1.4545  1.4764 -0.5190
 1867TIP3    H227237   0.120   5.976   0.379 -1.1486  0.2026 -1.5057
 1868TIP3   OH227238   4.831   1.938   7.300  0.1456 -0.1592  0.3929
 1868TIP3    H127239   4.848   1.915   7.209  0.3766  1.1382  0.0904
 1868TIP3    H227240   4.853   2.031   7.306  0.1302 -0.2229  1.7737
 1869TIP3   OH227241   2.707   0.884   7.085  0.4108  0.2229  0.5596
 1869TIP3    H127242   2.635   0.879   7.022  0.9370 -1.1978  0.0439
 1869TIP3    H227243   2.786   0.872   7.032  1.0855  2.0316  1.0733
 1870TIP3   OH227244   6.604   4.635   7.787 -0.0575  0.2948  0.1818
 1870TIP3    H127245   6.683   4.589   7.818 -0.8256 -1.9462 -0.9362
 1870TIP3    H227246   6.633   4.680   7.707  0.2529  0.0242  0.1383
 1871TIP3   OH227247   0.776   6.097   1.354  0.0368  0.1301 -0.1894
 1871TIP3    H127248   0.770   6.184   1.316 -0.9735  0.9051  1.6098
 1871TIP3    H227249   0.868   6.087   1.379  0.6085 -0.2084 -2.2814
 1872TIP3   OH227250   4.087   1.087   6.605  0.0253 -0.7118 -0.2468
 1872TIP3    H127251   4.013   1.139   6.572  0.6196  0.0729 -0.3837
 1872TIP3    H227252   4.161   1.148   6.604  0.1003 -0.6270  2.5108
 1873TIP3   OH227253   0.195   1.171   7.780  0.3709 -0.2418 -0.5980
 1873TIP3    H127254   0.154   1.192   7.864  0.9443 -0.4178 -0.2667
 1873TIP3    H227255   0.208   1.076   7.784 -1.0825 -0.5196 -1.5682
 1874TIP3   OH227256   1.316   4.629   6.607  0.6203 -0.6833 -0.4937
 1874TIP3    H127257   1.254   4.616   6.535  0.8912 -1.0358 -0.6652
 1874TIP3    H227258   1.264   4.617   6.686  0.0359  0.9294 -0.5965
 1875TIP3   OH227259   0.558   3.481   1.221 -0.1069  0.8954  0.1844
 1875TIP3    H127260   0.648   3.469   1.192  0.1272  0.6859  0.9846
 1875TIP3    H227261   0.558   3.567   1.263 -0.3455  1.0097 -0.0437
 1876TIP3   OH227262   0.160   3.781   2.212  0.3131  0.2611 -0.1579
 1876TIP3    H127263   0.208   3.858   2.178 -0.3425  0.8303  0.1777
 1876TIP3    H227264   0.173   3.785   2.306 -1.4198  1.1754  0.0943
 1877TIP3   OH227265   5.677   6.719   0.764  0.5912  0.4894 -0.5904
 1877TIP3    H127266   5.660   6.749   0.854  0.8407  1.9263 -0.9959
 1877TIP3    H227267   5.743   6.780   0.730  1.1836 -0.5955 -1.4580
 1878TIP3   OH227268   3.182   1.162   6.831 -0.5195 -0.7742 -0.1350
 1878TIP3    H127269   3.196   1.114   6.750  0.9139  1.1112 -1.0710
 1878TIP3    H227270   3.192   1.254   6.807 -2.1345 -0.0163  1.7810
 1879TIP3   OH227271   5.324   4.006   1.129 -0.0578 -0.6016  0.6309
 1879TIP3    H127272   5.229   4.005   1.119  0.0407 -0.7944 -0.3347
 1879TIP3    H227273   5.339   4.064   1.203 -0.7901  1.6064 -0.8566
 1880TIP3   OH227274   4.350   4.848   7.951 -0.1279 -0.2805  0.1498
 1880TIP3    H127275   4.297   4.792   7.894 -0.9410  0.5798  0.0518
 1880TIP3    H227276   4.289   4.879   8.018 -0.2138  2.1199 -0.9492
 1881TIP3   OH227277   3.272   2.075   1.855 -0.2548 -0.1461 -0.3195
 1881TIP3    H127278   3.274   2.105   1.946 -0.2700 -1.2758  0.0736
 1881TIP3    H227279   3.364   2.067   1.830 -0.2201  1.9909 -1.0672
 1882TIP3   OH227280   4.515   6.681   7.970  0.3137  0.0562 -0.0870
 1882TIP3    H127281   4.605   6.653   7.986  0.3727 -0.9563 -1.9825
 1882TIP3    H227282   4.482   6.621   7.903 -1.1625  1.5628 -0.7786
 1883TIP3   OH227283   3.426   2.997   1.643  0.5675  0.7141 -0.1791
 1883TIP3    H127284   3.480   2.947   1.582 -1.3062  1.1387 -2.3419
 1883TIP3    H227285   3.434   2.951   1.726  1.5213 -1.2182 -1.2800
 1884TIP3   OH227286   5.642   0.443   2.143 -0.5009 -0.2030  0.1898
 1884TIP3    H127287   5.639   0.393   2.061  0.9341  2.0368 -1.3510
 1884TIP3    H227288   5.562   0.496   2.141 -0.8799 -0.7419  0.6868
 1885TIP3   OH227289   5.673   5.507   7.445 -0.2858 -0.1016 -0.1425
 1885TIP3    H127290   5.759   5.478   7.478 -0.7059 -0.0906  1.0008
 1885TIP3    H227291   5.681   5.602   7.440 -1.3330  0.3057  3.4387
 1886TIP3   OH227292   5.883   5.313   0.325  0.1892  0.1339 -0.4844
 1886TIP3    H127293   5.917   5.376   0.388  0.1491  0.7785 -1.0944
 1886TIP3    H227294   5.821   5.260   0.375 -0.2620  0.9927 -0.1147
 1887TIP3   OH227295   2.719   2.202   7.635  0.8517 -0.1222 -0.5176
 1887TIP3    H127296   2.729   2.162   7.549  2.8487  0.7932 -0.7706
 1887TIP3    H227297   2.808   2.205   7.671  0.0436 -0.6764  1.6829
 1888TIP3   OH227298   2.886   3.197   7.629 -0.0484  0.2212  0.2778
 1888TIP3    H127299   2.976   3.218   7.605 -0.3872 -1.7039 -3.1908
 1888TIP3    H227300   2.834   3.271   7.595 -0.0724 -0.2633 -0.7587
 1889TIP3   OH227301   5.461   3.068   0.297  0.2239 -0.0963  0.3106
 1889TIP3    H127302   5.551   3.068   0.329  0.3824  0.1263 -0.1344
 1889TIP3    H227303   5.414   3.126   0.357  0.3538 -0.2858  0.5991
 1890TIP3   OH227304   1.309   0.896   7.691  0.5702 -0.8704 -0.8508
 1890TIP3    H127305   1.356   0.815   7.710 -2.2854 -2.3394  0.5674
 1890TIP3    H227306   1.233   0.894   7.749 -0.4080  2.1154 -1.8534
 1891TIP3   OH227307   4.456   5.795   8.226  0.2387  0.1873 -0.3857
 1891TIP3    H127308   4.532   5.755   8.268 -0.3648 -0.7499 -0.1392
 1891TIP3    H227309   4.410   5.721   8.185 -0.6867  0.6828 -0.2783
 1892TIP3   OH227310   6.664   2.174   1.322 -0.0729  0.0700  0.0855
 1892TIP3    H127311   6.694   2.245   1.264 -0.4876  1.9724  2.0585
 1892TIP3    H227312   6.670   2.211   1.410 -3.5278 -1.1169  0.9762
 1893TIP3   OH227313   6.050   5.958   7.854 -0.2440 -0.2883  0.2121
 1893TIP3    H127314   6.047   5.864   7.870 -2.0668 -0.2440  0.3598
 1893TIP3    H227315   6.135   5.987   7.888 -0.0209 -1.7343  0.9111
 1894TIP3   OH227316   1.328   1.262   1.423  0.4502  0.2506  0.3950
 1894TIP3    H127317   1.281   1.320   1.363  2.4458  0.2485 -1.2518
 1894TIP3    H227318   1.352   1.187   1.370  2.3314  0.2636  1.1617
 1895TIP3   OH227319   0.519   0.833   1.402 -0.2604 -0.3001  0.6683
 1895TIP3    H127320   0.531   0.738   1.396 -0.5047 -0.3445  0.8853
 1895TIP3    H227321   0.429   0.844   1.435 -0.2785  0.0073  0.5210
 1896TIP3   OH227322   4.410   3.636   0.588  0.5981  0.0284 -0.0134
 1896TIP3    H127323   4.440   3.552   0.553 -0.7079  0.0184 -1.1731
 1896TIP3    H227324   4.358   3.675   0.518  1.2636  1.8916  0.4403
 1897TIP3   OH227325   6.642   3.687   7.786 -0.1240 -0.1615 -0.5999
 1897TIP3    H127326   6.652   3.651   7.698  2.2434  1.9215 -1.3040
 1897TIP3    H227327   6.731   3.691   7.821 -0.7375  1.2736  0.9328
 1898TIP3   OH227328   0.104   3.153   7.362 -0.5103  0.6529  0.0017
 1898TIP3    H127329   0.182   3.134   7.309  0.5615  2.3412  0.8816
 1898TIP3    H227330   0.035   3.170   7.298 -0.3186 -1.3502 -0.7930
 1899TIP3   OH227331   2.207   5.589   0.257  0.4245 -0.5416 -0.1259
 1899TIP3    H127332   2.222   5.651   0.328 -1.8377  0.3366 -0.3074
 1899TIP3    H227333   2.146   5.525   0.294 -0.7343 -0.1081 -1.1931
 1900TIP3   OH227334   2.372   1.573   1.736  0.6189 -0.1875  0.0508
 1900TIP3    H127335   2.406   1.656   1.768  0.6340 -1.1165  2.6958
 1900TIP3    H227336   2.288   1.596   1.696  1.0764  1.2075 -0.1765
 1901TIP3   OH227337   6.578   0.935   7.537 -0.4411  0.2233 -0.2163
 1901TIP3    H127338   6.493   0.976   7.553  1.2577  3.1130  2.3357
 1901TIP3    H227339   6.612   0.913   7.624  1.5737 -0.5471 -1.1250
 1902TIP3   OH227340   4.015   5.608   1.766  0.4344  0.4765 -0.0905
 1902TIP3    H127341   4.016   5.643   1.677 -0.6424 -1.8627 -1.0871
 1902TIP3    H227342   4.106   5.584   1.783  0.7151  1.2974 -0.3858
 1903TIP3   OH227343   0.856   6.858   1.775  0.0360 -0.3267  0.3766
 1903TIP3    H127344   0.795   6.786   1.790 -1.3061  0.1517 -2.2098
 1903TIP3    H227345   0.925   6.820   1.720 -0.1017  0.0875 -0.0903
 1904TIP3   OH227346   0.511   5.089   6.990 -0.2906 -0.0440  0.1646
 1904TIP3    H127347   0.455   5.166   6.978 -1.0546 -0.5966  0.1643
 1904TIP3    H227348   0.451   5.017   7.006  0.3400 -0.8979 -1.1226
 1905TIP3   OH227349   5.021   2.814   0.538 -0.1882  0.0178 -0.7729
 1905TIP3    H127350   4.945   2.812   0.479  0.2967  0.5002 -1.4304
 1905TIP3    H227351   5.058   2.901   0.527  0.8880 -0.4483 -1.0179
 1906TIP3   OH227352   5.661   3.791   0.022 -0.3262 -0.6873 -0.3369
 1906TIP3    H127353   5.695   3.811   0.109  0.4121  0.0741 -0.7771
 1906TIP3    H227354   5.596   3.860   0.006  0.3934 -0.1141 -0.8499
 1907TIP3   OH227355   1.201   2.395   7.898  0.4906 -0.4898 -0.7051
 1907TIP3    H127356   1.231   2.307   7.917  2.1676 -0.0102 -0.9354
 1907TIP3    H227357   1.249   2.420   7.819 -0.9849  0.1425 -1.4466
 1908TIP3   OH227358   0.811   3.514   1.067 -0.6034  0.1901 -0.6129
 1908TIP3    H127359   0.846   3.603   1.078 -2.8525  0.9048  1.8699
 1908TIP3    H227360   0.866   3.459   1.123  0.3965  0.0690 -1.6665
 1909TIP3   OH227361   6.170   1.621   2.690 -0.1679  0.3918  0.5476
 1909TIP3    H127362   6.194   1.713   2.691 -0.9885  0.6066  1.2979
 1909TIP3    H227363   6.248   1.576   2.657 -0.6477  1.5907 -2.6284
 1910TIP3   OH227364   4.249   0.058   6.672 -0.3611 -0.3337 -0.0425
 1910TIP3    H127365   4.196   0.036   6.595  0.6501 -0.3400 -0.7637
 1910TIP3    H227366   4.339   0.040   6.645  0.5218  3.6750 -0.4078
 1911TIP3   OH227367   4.321   1.380   2.357  0.4882  0.1559 -0.0575
 1911TIP3    H127368   4.314   1.473   2.377 -1.8795  0.2367 -0.8834
 1911TIP3    H227369   4.339   1.339   2.441  0.8656  1.3053  0.4408
 1912TIP3   OH227370   0.446   2.932   2.795 -0.8724 -0.3014  0.2477
 1912TIP3    H127371   0.350   2.927   2.800 -0.9521  1.3016  5.0077
 1912TIP3    H227372   0.464   3.023   2.773 -0.3980 -0.5746 -0.5310
 1913TIP3   OH227373   3.815   4.252   3.115  0.2675  0.2618 -0.1336
 1913TIP3    H127374   3.910   4.259   3.107  0.1319  0.8013 -1.6072
 1913TIP3    H227375   3.783   4.341   3.101 -0.5104 -0.1044 -0.8350
 1914TIP3   OH227376   1.640   5.867   0.136 -0.4695  0.4437  0.0989
 1914TIP3    H127377   1.670   5.922   0.208 -2.6012  0.4685  1.0513
 1914TIP3    H227378   1.616   5.929   0.067  0.5864  0.4728 -0.2622
 1915TIP3   OH227379   4.154   4.738   2.266  0.2021  0.4519  0.5015
 1915TIP3    H127380   4.109   4.727   2.350 -0.8780 -1.9375 -0.2938
 1915TIP3    H227381   4.188   4.827   2.269 -0.5085  0.7410  3.1207
 1916TIP3   OH227382   3.417   4.850   6.498 -0.3721  0.5204 -0.4273
 1916TIP3    H127383   3.490   4.874   6.441 -0.0345 -0.6818 -0.5343
 1916TIP3    H227384   3.352   4.919   6.484  0.4903  1.2801 -0.7900
 1917TIP3   OH227385   4.284   1.971   2.193  0.0765  0.5077  0.2276
 1917TIP3    H127386   4.379   1.962   2.187  0.0161 -0.3100  0.3746
 1917TIP3    H227387   4.261   2.028   2.119  0.5428 -0.3794 -0.6281
 1918TIP3   OH227388   5.770   5.163   1.106 -0.2375  0.0427  0.3009
 1918TIP3    H127389   5.804   5.213   1.032 -3.1402  1.6955 -0.0821
 1918TIP3    H227390   5.821   5.082   1.106  1.8216  1.2278 -1.6599
 1919TIP3   OH227391   0.223   2.652   2.730 -0.1416 -0.3462 -0.1350
 1919TIP3    H127392   0.310   2.676   2.699  0.3286 -1.1920  0.4883
 1919TIP3    H227393   0.201   2.572   2.684 -0.4832 -0.2784 -0.0970
 1920TIP3   OH227394   5.474   5.927   0.714 -0.3349  0.2257 -0.2037
 1920TIP3    H127395   5.414   6.001   0.724  0.9949  1.7127 -2.2324
 1920TIP3    H227396   5.523   5.947   0.634  1.2611 -2.0528  0.0997
 1921TIP3   OH227397   2.151   3.843   7.125 -0.1001 -0.1867 -0.0372
 1921TIP3    H127398   2.179   3.895   7.201 -1.2590 -0.3472  0.5207
 1921TIP3    H227399   2.118   3.762   7.163 -0.7687 -0.2348 -0.7116
 1922TIP3   OH227400   1.116   5.567   8.432 -0.0434  0.3876 -0.7227
 1922TIP3    H127401   1.212   5.568   8.430  0.0401 -1.3406  0.1396
 1922TIP3    H227402   1.095   5.584   8.524 -0.5503  0.6922 -0.8995
 1923TIP3   OH227403   0.952   5.995   6.760 -0.1071  0.2942  0.1049
 1923TIP3    H127404   0.886   5.997   6.691  0.7847 -0.7746 -0.8158
 1923TIP3    H227405   1.035   6.000   6.713  0.5243 -0.7679  1.0607
 1924TIP3   OH227406   2.626   1.221   0.835 -0.2918  0.2768 -0.3152
 1924TIP3    H127407   2.688   1.158   0.872 -0.0488  1.0017  0.5374
 1924TIP3    H227408   2.679   1.285   0.788 -0.5591 -0.2845 -1.4274
 1925TIP3   OH227409   5.975   2.018   1.158  0.0936  0.0952  0.2589
 1925TIP3    H127410   5.992   1.925   1.145 -0.7536  0.1050 -0.9915
 1925TIP3    H227411   6.060   2.060   1.143  0.4549 -0.4488  0.7216
 1926TIP3   OH227412   6.492   3.527   2.341  0.2257  0.3725 -1.0985
 1926TIP3    H127413   6.445   3.467   2.399 -1.1381 -0.1994 -2.7238
 1926TIP3    H227414   6.452   3.613   2.359  0.1485  0.2883 -0.8581
 1927TIP3   OH227415   4.085   2.233   2.222  0.2837  0.4352  0.1460
 1927TIP3    H127416   4.077   2.166   2.154 -0.0842 -1.2162  1.7409
 1927TIP3    H227417   4.177   2.228   2.250 -0.1995 -0.9303  1.6751
 1928TIP3   OH227418   5.347   0.117   7.602 -0.1405 -0.3609 -0.5449
 1928TIP3    H127419   5.371   0.210   7.605  0.7259 -0.5397 -1.4316
 1928TIP3    H227420   5.325   0.102   7.510 -1.0551 -0.8565 -0.2536
 1929TIP3   OH227421   3.690   5.939   0.291 -0.0845  0.1447  0.2286
 1929TIP3    H127422   3.640   6.020   0.294  0.5973  0.6560 -1.4280
 1929TIP3    H227423   3.638   5.877   0.342 -1.6472  1.0574 -0.1954
 1930TIP3   OH227424   2.529   5.186   8.158 -0.0320  0.1147 -0.3106
 1930TIP3    H127425   2.527   5.276   8.126 -0.0317  1.0462  2.1370
 1930TIP3    H227426   2.470   5.186   8.233  2.1427 -1.1754  1.5224
 1931TIP3   OH227427   5.973   2.302   7.365 -0.5010  0.1967 -0.1852
 1931TIP3    H127428   5.981   2.246   7.287  0.7914  0.9074 -0.5976
 1931TIP3    H227429   5.942   2.385   7.330  2.6720  1.4070 -0.4308
 1932TIP3   OH227430   6.664   0.477   8.297  0.4034  0.1188  0.0835
 1932TIP3    H127431   6.618   0.470   8.380 -0.2847 -2.5234 -0.4339
 1932TIP3    H227432   6.621   0.550   8.251 -0.9767 -0.1008  0.9765
 1933TIP3   OH227433   6.272   4.623   2.249  0.5420 -0.3086  0.2641
 1933TIP3    H127434   6.196   4.570   2.228  1.1839 -1.6191  1.0931
 1933TIP3    H227435   6.281   4.615   2.344  2.0507 -0.6895  0.1154
 1934TIP3   OH227436   2.692   2.446   8.353  0.1409  0.0687 -1.0566
 1934TIP3    H127437   2.698   2.399   8.436  0.6075 -0.1820 -1.2285
 1934TIP3    H227438   2.655   2.383   8.291 -0.3648  0.3067 -1.0057
 1935TIP3   OH227439   6.659   4.607   1.147  0.7001  0.4739  0.0588
 1935TIP3    H127440   6.711   4.682   1.117  0.1470  1.0584  0.5190
 1935TIP3    H227441   6.638   4.628   1.238 -1.4684  0.9208 -0.4938
 1936TIP3   OH227442   3.407   0.722   1.717  0.2656 -0.8119 -0.7499
 1936TIP3    H127443   3.447   0.800   1.678 -1.4768 -0.2834 -1.6129
 1936TIP3    H227444   3.349   0.689   1.649 -0.7994 -1.4728  0.4449
 1937TIP3   OH227445   5.613   3.244   3.186  0.7823 -0.3281 -0.0177
 1937TIP3    H127446   5.523   3.215   3.202  0.3634  0.5460 -0.6885
 1937TIP3    H227447   5.659   3.165   3.158 -0.4358 -0.3553 -2.2536
 1938TIP3   OH227448   6.283   6.595   7.725 -0.3748  0.1250 -0.1031
 1938TIP3    H127449   6.292   6.553   7.811  0.0437  0.2618 -0.0779
 1938TIP3    H227450   6.247   6.526   7.669  0.0119 -0.1749  0.0143
 1939TIP3   OH227451   4.678   5.670   8.316 -0.0215 -0.8402 -0.4727
 1939TIP3    H127452   4.668   5.578   8.293  1.7237 -0.5665 -2.6774
 1939TIP3    H227453   4.772   5.688   8.307 -0.3598  1.2350 -0.4695
 1940TIP3   OH227454   6.411   0.108   0.696 -0.3896  0.0686 -1.3898
 1940TIP3    H127455   6.444   0.088   0.609  0.6557  0.2936 -1.0658
 1940TIP3    H227456   6.318   0.126   0.684 -0.2725 -0.0064 -2.4341
 1941TIP3   OH227457   4.366   5.036   8.370  0.1557 -0.3179 -0.2096
 1941TIP3    H127458   4.453   5.015   8.335 -0.1239  0.1320 -1.2207
 1941TIP3    H227459   4.349   4.967   8.434  0.5234 -1.4297 -1.2579
 1942TIP3   OH227460   2.772   6.305   1.591 -0.1513 -0.5495 -0.1520
 1942TIP3    H127461   2.695   6.312   1.535 -0.5228  0.8578  0.4641
 1942TIP3    H227462   2.747   6.353   1.671  1.4833  0.2911 -0.0993
 1943TIP3   OH227463   2.229   2.362   0.813  0.2000 -0.4686  0.2844
 1943TIP3    H127464   2.286   2.437   0.798  0.5211 -0.3992  1.6937
 1943TIP3    H227465   2.286   2.295   0.850 -0.3906 -0.8380  0.5464
 1944TIP3   OH227466   0.718   5.159   8.165  0.5925  0.4194 -0.2477
 1944TIP3    H127467   0.766   5.127   8.241 -0.6701 -0.9390  0.0027
 1944TIP3    H227468   0.629   5.174   8.196  0.1185  0.0857 -1.3857
 1945TIP3   OH227469   0.191   0.554   7.054 -0.4673  0.0491 -0.2871
 1945TIP3    H127470   0.123   0.508   7.104  0.4365 -0.6836  0.3092
 1945TIP3    H227471   0.196   0.507   6.971 -0.7106  0.1225 -0.3426
 1946TIP3   OH227472   4.933   4.167   2.451  0.8041  0.5463  0.1655
 1946TIP3    H127473   4.956   4.089   2.501 -3.0794 -1.0820 -0.2679
 1946TIP3    H227474   4.876   4.217   2.509 -0.5374  0.6427 -1.1788
 1947TIP3   OH227475   3.579   6.336   7.545  0.5908  0.3737  0.6482
 1947TIP3    H127476   3.664   6.302   7.516  0.8412  1.8087 -0.4606
 1947TIP3    H227477   3.601   6.400   7.613  0.3092 -0.0811  1.1663
 1948TIP3   OH227478   3.195   1.873   8.023 -0.1429 -0.5818 -0.0673
 1948TIP3    H127479   3.267   1.821   8.056  0.8602  0.8927  0.1277
 1948TIP3    H227480   3.158   1.820   7.951  0.3052 -1.8999  0.6519
 1949TIP3   OH227481   0.396   3.786   7.917  0.2258 -0.1924 -0.1594
 1949TIP3    H127482   0.426   3.877   7.914  0.7421 -0.3780 -1.2096
 1949TIP3    H227483   0.317   3.789   7.971 -0.3235  1.0505 -0.9632
 1950TIP3   OH227484   4.054   1.253   1.396  0.4127  0.3364 -0.0311
 1950TIP3    H127485   4.110   1.285   1.466  0.5312 -0.2905  0.1672
 1950TIP3    H227486   3.970   1.236   1.439  0.2538  0.6904 -0.2013
 1951TIP3   OH227487   1.004   6.248   1.499  0.1674  0.4262 -0.1765
 1951TIP3    H127488   1.085   6.296   1.484  1.1535 -0.3636  2.2005
 1951TIP3    H227489   1.016   6.206   1.584 -2.9589  0.7520  0.5555
 1952TIP3   OH227490   6.851   0.687   1.055  0.0896  0.2580  0.2270
 1952TIP3    H127491   6.760   0.717   1.059 -0.2009 -0.7299  2.2409
 1952TIP3    H227492   6.869   0.677   0.961 -1.7669  0.7833 -0.2215
 1953TIP3   OH227493   6.761   3.806   7.317  0.1163  0.4625 -0.3789
 1953TIP3    H127494   6.691   3.870   7.304 -0.0804  0.3719  0.2027
 1953TIP3    H227495   6.842   3.857   7.308 -0.0156  0.5740 -1.0113
 1954TIP3   OH227496   2.980   4.735   0.563  0.7348  0.2029 -0.1211
 1954TIP3    H127497   2.925   4.787   0.621  2.0730 -0.3329  1.7209
 1954TIP3    H227498   3.025   4.799   0.508  1.3468  0.9555  1.1957
 1955TIP3   OH227499   3.589   6.662   0.151 -0.2743  0.2890  1.0454
 1955TIP3    H127500   3.497   6.673   0.172  0.0836 -1.1303  3.7849
 1955TIP3    H227501   3.633   6.660   0.236  2.4665  2.0270 -0.1862
 1956TIP3   OH227502   2.627   3.427   7.647 -0.4395  0.3490  0.0827
 1956TIP3    H127503   2.721   3.422   7.665 -0.3269 -0.1109 -0.5613
 1956TIP3    H227504   2.599   3.510   7.684 -0.2241 -0.4711  2.2444
 1957TIP3   OH227505   0.802   6.633   8.176 -0.4066  0.1628  0.3073
 1957TIP3    H127506   0.798   6.644   8.081 -1.7789 -0.6692  0.2373
 1957TIP3    H227507   0.785   6.540   8.190 -0.8070  0.3802  1.3863
 1958TIP3   OH227508   5.908   6.493   2.193  0.3564  0.3555 -0.0941
 1958TIP3    H127509   5.922   6.491   2.099 -0.5215 -0.2839 -0.2237
 1958TIP3    H227510   5.814   6.511   2.203  0.6458  1.5437  0.6747
 1959TIP3   OH227511   6.203   0.490   0.624  0.0818 -0.4598  0.3730
 1959TIP3    H127512   6.219   0.402   0.589  1.2531 -0.1701  0.1329
 1959TIP3    H227513   6.183   0.475   0.716 -2.1503 -1.1595 -0.1608
 1960TIP3   OH227514   0.713   0.125   1.318  0.5477 -0.4248 -0.1343
 1960TIP3    H127515   0.675   0.041   1.291 -2.0649  0.9985 -1.2870
 1960TIP3    H227516   0.684   0.187   1.251  2.6189  1.3822  0.5467
 1961TIP3   OH227517   1.963   2.911   7.569 -0.1576 -0.8296  0.0732
 1961TIP3    H127518   1.955   2.895   7.663  0.0036  0.4602  0.3132
 1961TIP3    H227519   1.993   3.001   7.562 -0.9314 -0.6520 -1.2389
 1962TIP3   OH227520   2.320   3.376   1.594  0.2024 -0.3294 -0.2027
 1962TIP3    H127521   2.250   3.429   1.631 -0.9390 -0.9492 -1.3706
 1962TIP3    H227522   2.307   3.383   1.499  0.5667 -1.9743 -0.3937
 1963TIP3   OH227523   4.387   3.822   2.086 -0.1794 -0.4317 -0.5984
 1963TIP3    H127524   4.447   3.832   2.160 -1.2113  0.6634  0.1280
 1963TIP3    H227525   4.443   3.826   2.008  0.8197 -0.7347  0.0907
 1964TIP3   OH227526   2.434   4.866   1.975  0.1364  0.2606 -0.2562
 1964TIP3    H127527   2.413   4.824   2.058 -1.2712  1.4024  0.0106
 1964TIP3    H227528   2.462   4.954   1.999  1.9421 -0.0993 -0.8733
 1965TIP3   OH227529   1.748   5.909   8.111  0.6020  0.4564 -0.3839
 1965TIP3    H127530   1.833   5.949   8.130  0.8354 -0.3573  0.3362
 1965TIP3    H227531   1.770   5.821   8.081  0.0002  0.1420  0.0896
 1966TIP3   OH227532   2.646   6.201   8.342  0.2584 -0.1764  0.4054
 1966TIP3    H127533   2.608   6.163   8.263  0.0962 -1.3891  1.0427
 1966TIP3    H227534   2.623   6.140   8.412  0.8360  0.6072  1.3091
 1967TIP3   OH227535   0.132   2.562   7.296  0.2922  0.0722  0.2848
 1967TIP3    H127536   0.093   2.649   7.296 -1.4543 -0.6730 -0.4984
 1967TIP3    H227537   0.216   2.574   7.340 -0.2681  1.9784  0.9416
 1968TIP3   OH227538   2.272   5.949   8.410 -0.1571  0.4581  0.6393
 1968TIP3    H127539   2.317   6.028   8.440 -0.1371  1.1385 -1.1049
 1968TIP3    H227540   2.341   5.896   8.371 -0.5588  0.6697 -0.3698
 1969TIP3   OH227541   0.019   1.335   2.857  0.0803  0.0567 -0.1968
 1969TIP3    H127542   0.057   1.298   2.938  2.5790  1.7024 -0.4968
 1969TIP3    H227543   0.006   1.427   2.877 -1.7339 -0.0072 -0.9180
 1970TIP3   OH227544   0.719   2.150   0.657 -0.6932 -0.0223 -0.2882
 1970TIP3    H127545   0.744   2.238   0.630 -0.8588 -0.3040 -1.4121
 1970TIP3    H227546   0.664   2.118   0.585  0.8662 -1.7344 -0.7748
 1971TIP3   OH227547   1.276   3.119   8.446 -0.2808  0.0265  0.4387
 1971TIP3    H127548   1.277   3.123   8.542 -1.0063  2.1746  0.4054
 1971TIP3    H227549   1.325   3.196   8.418  0.5607 -0.9748 -0.9418
 1972TIP3   OH227550   0.065   5.153   2.048  0.2739 -0.0255 -1.0780
 1972TIP3    H127551   0.042   5.097   2.121  1.9458  1.6487  0.8671
 1972TIP3    H227552   0.124   5.100   1.994  1.5463 -0.2951  0.5259
 1973TIP3   OH227553   3.134   4.557   7.043 -0.1272  0.6379  0.2352
 1973TIP3    H127554   3.108   4.641   7.079 -2.2009  0.3634 -0.4614
 1973TIP3    H227555   3.229   4.561   7.037 -0.1258  2.5835  1.0114
 1974TIP3   OH227556   4.095   3.064   2.438 -0.4554  0.7640  0.0391
 1974TIP3    H127557   4.089   3.065   2.534  1.3810  0.5449  0.1993
 1974TIP3    H227558   4.171   3.119   2.418 -0.5792  0.4969 -1.2676
 1975TIP3   OH227559   3.670   3.521   0.746  0.7680  0.2623  0.2373
 1975TIP3    H127560   3.700   3.500   0.835  1.3890 -4.6256 -0.8514
 1975TIP3    H227561   3.725   3.468   0.689 -0.8272  1.7978 -2.9875
 1976TIP3   OH227562   5.237   0.107   0.507 -0.0770 -0.1310  0.4520
 1976TIP3    H127563   5.233   0.108   0.602  0.7511  1.4305  0.5012
 1976TIP3    H227564   5.182   0.180   0.479 -0.5062 -0.7142 -0.2927
 1977TIP3   OH227565   0.499   0.627   7.202 -0.2116  0.2265 -0.3548
 1977TIP3    H127566   0.427   0.564   7.201 -0.4602  0.4727  1.0002
 1977TIP3    H227567   0.570   0.583   7.156 -0.7551 -0.5871 -0.4348
 1978TIP3   OH227568   2.584   0.182   0.073 -0.0319  0.6681  0.7661
 1978TIP3    H127569   2.676   0.165   0.095 -0.2666 -1.4950  0.3255
 1978TIP3    H227570   2.540   0.193   0.158  0.1102 -1.5758  1.1867
 1979TIP3   OH227571   3.113   3.400   8.052  0.1165 -0.3265 -0.4566
 1979TIP3    H127572   3.056   3.335   8.012  0.8492 -0.9986 -0.4297
 1979TIP3    H227573   3.094   3.394   8.145  0.0517 -0.3689 -0.4726
 1980TIP3   OH227574   2.884   5.978   6.685 -0.6960  0.1409  0.1743
 1980TIP3    H127575   2.978   5.974   6.701 -0.6757 -1.4472 -0.1184
 1980TIP3    H227576   2.867   5.904   6.626 -2.3769 -0.7155  1.6194
 1981TIP3   OH227577   1.820   2.524   0.412 -0.5255  0.6462  0.1440
 1981TIP3    H127578   1.766   2.594   0.375  1.8449  1.4431 -2.1524
 1981TIP3    H227579   1.790   2.445   0.369 -0.3187  0.9777 -0.6260
 1982TIP3   OH227580   4.831   6.290   2.666 -0.1420  0.3189  0.1576
 1982TIP3    H127581   4.905   6.335   2.626  0.4885 -0.1385  0.7767
 1982TIP3    H227582   4.756   6.347   2.649 -0.2689 -0.6564 -3.1561
 1983TIP3   OH227583   1.888   0.456   1.899 -0.3585  0.0074  0.4268
 1983TIP3    H127584   1.963   0.511   1.924  1.7745 -1.7866 -1.5024
 1983TIP3    H227585   1.882   0.465   1.804 -1.4168 -1.3056  0.3327
 1984TIP3   OH227586   3.140   1.804   8.507 -0.2848 -0.5495 -0.1262
 1984TIP3    H127587   3.211   1.866   8.525 -1.4411  0.2381  2.2242
 1984TIP3    H227588   3.110   1.826   8.419  1.7000 -0.2540 -0.7745
 1985TIP3   OH227589   1.698   6.521   1.240  0.8106  0.0490 -0.0282
 1985TIP3    H127590   1.625   6.495   1.298 -0.7975  1.1527 -1.4669
 1985TIP3    H227591   1.769   6.462   1.265 -0.5049 -0.9897  1.5581
 1986TIP3   OH227592   3.011   5.400   1.017  0.2709  0.4028  0.5408
 1986TIP3    H127593   3.042   5.321   1.062  0.6864 -1.2607 -2.4042
 1986TIP3    H227594   2.918   5.406   1.038  0.5988  0.1736  2.1806
 1987TIP3   OH227595   0.345   2.478   0.982  0.3129  0.1815  0.0320
 1987TIP3    H127596   0.320   2.569   0.997  1.3315  0.4438  0.1751
 1987TIP3    H227597   0.433   2.471   1.017  0.3259 -0.8104 -0.1734
 1988TIP3   OH227598   6.301   6.358   0.472  0.2284 -0.4352  0.3263
 1988TIP3    H127599   6.377   6.355   0.414  0.5859 -0.6258  0.7976
 1988TIP3    H227600   6.246   6.427   0.435 -0.9884 -2.4826 -1.9794
 1989TIP3   OH227601   5.037   3.822   1.616  0.0162 -0.3326  0.3698
 1989TIP3    H127602   5.049   3.734   1.652 -0.7666 -0.5978  0.0282
 1989TIP3    H227603   5.076   3.881   1.680  0.1558 -0.9049  0.8126
 1990TIP3   OH227604   5.149   6.754   7.855 -0.4516  0.2037 -0.5197
 1990TIP3    H127605   5.229   6.781   7.809 -0.1232  0.7237  0.3205
 1990TIP3    H227606   5.177   6.681   7.910 -0.9114 -0.6190 -1.3727
 1991TIP3   OH227607   3.392   6.664   7.984 -0.2658  0.2350  0.2790
 1991TIP3    H127608   3.306   6.658   8.024 -0.1019  0.3457  0.6534
 1991TIP3    H227609   3.384   6.618   7.901 -0.6225  0.0440  0.4204
 1992TIP3   OH227610   3.658   0.133   8.450 -0.2427  0.5090 -0.5860
 1992TIP3    H127611   3.594   0.195   8.417  0.0857  0.8770 -0.5436
 1992TIP3    H227612   3.649   0.056   8.394 -1.4948  0.1151  0.1185
 1993TIP3   OH227613   4.326   6.938   6.051 -0.1328  0.0839 -0.1223
 1993TIP3    H127614   4.303   7.020   6.008 -1.6628 -0.8823 -1.2740
 1993TIP3    H227615   4.376   6.964   6.128  0.1757  2.0356 -0.9157
 1994TIP3   OH227616   0.178   3.142   8.406 -0.5454 -0.2170  0.4183
 1994TIP3    H127617   0.176   3.151   8.501 -0.5660 -0.3832  0.4341
 1994TIP3    H227618   0.271   3.143   8.383 -0.5742  1.2416  0.2975
 1995TIP3   OH227619   1.745   2.828   7.435  0.1309  0.7891 -0.2804
 1995TIP3    H127620   1.761   2.746   7.389 -0.5964  0.6002 -0.2116
 1995TIP3    H227621   1.824   2.841   7.488 -0.0895 -0.3076  0.3564
 1996TIP3   OH227622   5.039   6.416   2.513  0.7974  0.0773 -0.4015
 1996TIP3    H127623   5.122   6.454   2.543  0.7973 -0.8031  0.7697
 1996TIP3    H227624   5.000   6.484   2.458  1.6720  1.0242  0.1187
 1997TIP3   OH227625   2.479   6.467   1.969 -0.2179  0.6951 -0.1768
 1997TIP3    H127626   2.504   6.377   1.945 -0.6412  0.6838 -0.5987
 1997TIP3    H227627   2.515   6.521   1.899  0.1546  0.8753  0.1488
 1998TIP3   OH227628   3.837   3.161   0.943 -0.1871 -0.7276  0.0694
 1998TIP3    H127629   3.809   3.252   0.958 -0.8698 -0.6904 -1.2325
 1998TIP3    H227630   3.833   3.120   1.029  1.3497  0.7839  0.9226
 1999TIP3   OH227631   4.614   1.426   1.851  0.3496 -0.1218 -0.1279
 1999TIP3    H127632   4.634   1.340   1.816 -1.0124 -0.3712 -0.3657
 1999TIP3    H227633   4.657   1.428   1.937  3.7066  0.4962 -1.6857
 2000TIP3   OH227634   6.304   6.145   8.370  0.1006  0.0701 -0.1147
 2000TIP3    H127635   6.321   6.160   8.463 -0.0372  0.6293 -0.1733
 2000TIP3    H227636   6.358   6.211   8.326 -0.3235  0.2291 -0.4017
 2001TIP3   OH227637   2.623   6.414   8.054 -0.3237 -0.0267  0.0338
 2001TIP3    H127638   2.632   6.319   8.066 -0.0620  0.0417  0.4069
 2001TIP3    H227639   2.564   6.423   7.979 -1.1095 -0.4788  0.5792
 2002TIP3   OH227640   4.917   0.318   1.736  0.8038  0.0855 -0.0870
 2002TIP3    H127641   4.983   0.268   1.687 -1.2258 -1.1485 -1.7257
 2002TIP3    H227642   4.886   0.257   1.803  1.0487  0.5323  0.4379
 2003TIP3   OH227643   0.876   4.629   8.308 -0.0624 -0.0621 -0.0377
 2003TIP3    H127644   0.789   4.624   8.349 -0.2575 -0.4531 -0.4920
 2003TIP3    H227645   0.937   4.624   8.381 -0.4304  1.1763  0.3761
 2004TIP3   OH227646   1.437   2.675   7.038  0.2031 -0.2799 -0.0336
 2004TIP3    H127647   1.437   2.732   6.961 -1.8364  0.4533  0.4544
 2004TIP3    H227648   1.398   2.593   7.009  0.5935 -0.4586 -0.0659
 2005TIP3   OH227649   2.972   0.925   8.289 -0.0025  0.2576  0.0835
 2005TIP3    H127650   2.993   0.894   8.201  0.3926  0.0853  0.2378
 2005TIP3    H227651   3.025   0.871   8.347 -0.1579  0.4645  0.4205
 2006TIP3   OH227652   5.959   6.818   0.709 -0.1022 -0.2374  0.1027
 2006TIP3    H127653   6.000   6.758   0.646  3.5263  0.4416  1.5509
 2006TIP3    H227654   5.999   6.903   0.691 -2.9919  1.1782 -0.0334
 2007TIP3   OH227655   1.400   0.057   0.955 -0.1948 -0.5035 -0.1980
 2007TIP3    H127656   1.361  -0.004   0.892 -1.3332 -0.6323  0.6076
 2007TIP3    H227657   1.393   0.012   1.039 -0.3157  0.4043  0.2831
 2008TIP3   OH227658   2.835   5.215   6.832  0.1170 -0.0349 -0.4886
 2008TIP3    H127659   2.836   5.192   6.925 -0.2706 -0.7560 -0.6579
 2008TIP3    H227660   2.896   5.154   6.791 -0.2565 -0.1938 -0.8135
 2009TIP3   OH227661   1.028   1.311   2.372 -0.0482  0.2730  0.0549
 2009TIP3    H127662   0.940   1.336   2.400 -0.0486  0.8660 -0.4654
 2009TIP3    H227663   1.015   1.228   2.325 -0.2490  0.0664  0.4665
 2010TIP3   OH227664   4.196   2.337   2.943  0.5660  0.1449 -0.1624
 2010TIP3    H127665   4.102   2.327   2.928  0.4032  0.3530  0.6419
 2010TIP3    H227666   4.237   2.290   2.871 -0.1507  1.0133 -1.1643
 2011TIP3   OH227667   4.902   0.032   1.067  0.2852 -0.2497 -0.4089
 2011TIP3    H127668   4.918   0.016   1.160  1.1419 -0.3148 -0.5533
 2011TIP3    H227669   4.870   0.122   1.063 -0.5311 -0.5096  0.0179
 2012TIP3   OH227670   2.595   1.918   0.982 -0.2641  0.4980 -0.1656
 2012TIP3    H127671   2.617   1.825   0.985  0.2979  0.5986 -0.9489
 2012TIP3    H227672   2.507   1.923   1.020  0.5309 -0.0734  1.8985
 2013TIP3   OH227673   4.736   6.535   8.033  0.4197 -0.4271  0.4252
 2013TIP3    H127674   4.767   6.445   8.028 -0.6593 -0.9303  2.0052
 2013TIP3    H227675   4.796   6.584   7.978  0.7067 -2.1911 -0.9331
 2014TIP3   OH227676   0.402   6.479   2.494 -0.0692 -0.7646 -0.6086
 2014TIP3    H127677   0.426   6.526   2.574  1.8661 -0.7528 -1.1460
 2014TIP3    H227678   0.329   6.424   2.520 -1.6774  1.6341  0.3458
 2015TIP3   OH227679   1.482   3.955   1.616  0.1062  0.2619  0.1840
 2015TIP3    H127680   1.561   3.954   1.671  0.4238  1.1521 -0.2308
 2015TIP3    H227681   1.457   4.048   1.614 -0.5706  0.0711 -0.2288
 2016TIP3   OH227682   3.272   5.111   0.268 -0.3946  0.5202 -0.6734
 2016TIP3    H127683   3.344   5.142   0.213 -0.7046 -1.4310 -2.3032
 2016TIP3    H227684   3.194   5.152   0.231 -0.2261  2.5593  1.0357
 2017TIP3   OH227685   2.452   2.330   7.872  0.4445  0.7825 -0.1972
 2017TIP3    H127686   2.544   2.303   7.875  0.2959  0.3080  0.4499
 2017TIP3    H227687   2.414   2.279   7.801  0.5590  0.5465 -0.0930
 2018TIP3   OH227688   2.223   3.166   6.789 -0.2845 -0.2901  0.2560
 2018TIP3    H127689   2.173   3.248   6.783 -0.6064 -0.5199 -0.2663
 2018TIP3    H227690   2.300   3.182   6.735 -0.2301 -0.2464  0.3468
 2019TIP3   OH227691   1.248   6.668   3.029  0.1286  0.3334 -0.1396
 2019TIP3    H127692   1.339   6.685   3.004 -0.1994  0.5290 -1.2833
 2019TIP3    H227693   1.235   6.575   3.013 -0.4280  0.6752 -2.0349
 2020TIP3   OH227694   4.863   2.311   1.627 -0.8374 -0.1684 -0.0498
 2020TIP3    H127695   4.938   2.342   1.677 -2.0386  0.6308  1.3330
 2020TIP3    H227696   4.843   2.225   1.663 -0.3983 -0.5182 -0.6351
 2021TIP3   OH227697   3.808   2.049   2.045 -1.1192 -0.0313 -0.7672
 2021TIP3    H127698   3.779   1.985   2.110  0.5269 -0.3179 -0.2508
 2021TIP3    H227699   3.743   2.119   2.050 -1.1584 -0.1316  1.0885
 2022TIP3   OH227700   4.542   3.424   2.731 -0.2045 -0.0138 -0.5908
 2022TIP3    H127701   4.620   3.390   2.686 -0.3709  0.1791 -1.0336
 2022TIP3    H227702   4.528   3.363   2.803  0.7067  0.2856 -0.1471
 2023TIP3   OH227703   2.322   5.259   0.426  0.1492  0.5165  0.4403
 2023TIP3    H127704   2.344   5.172   0.458 -1.4081  0.0874  0.4180
 2023TIP3    H227705   2.390   5.316   0.461  0.5322 -0.5213  1.4317
 2024TIP3   OH227706   4.827   1.061   0.160  0.2008 -0.0401 -0.4213
 2024TIP3    H127707   4.896   1.014   0.113 -0.1909  1.2414 -2.3792
 2024TIP3    H227708   4.747   1.039   0.113 -0.0222  2.3254 -1.2559
 2025TIP3   OH227709   2.578   3.964   2.325 -0.1380 -0.3296  0.5194
 2025TIP3    H127710   2.529   4.011   2.392 -1.4118  3.6330 -2.7593
 2025TIP3    H227711   2.520   3.894   2.297 -2.1002  1.4479 -0.1235
 2026TIP3   OH227712   5.062   2.508   2.053 -0.2333  0.1065  0.6154
 2026TIP3    H127713   5.011   2.588   2.039  2.7478  2.1963  0.7605
 2026TIP3    H227714   5.075   2.472   1.966 -1.1138  0.0611  0.4903
 2027TIP3   OH227715   0.706   2.840   7.535 -0.4322  0.4035 -0.3576
 2027TIP3    H127716   0.639   2.797   7.588  0.3572  0.5617  0.7982
 2027TIP3    H227717   0.784   2.785   7.545  0.3432  1.5942  0.4281
 2028TIP3   OH227718   6.423   1.048   0.590 -0.5245  0.2848  0.0172
 2028TIP3    H127719   6.474   1.127   0.605 -0.4853  0.2349  0.1455
 2028TIP3    H227720   6.486   0.977   0.598 -0.5541  0.2420 -0.1283
 2029TIP3   OH227721   2.094   0.871   1.456 -0.5626  0.6150  0.3441
 2029TIP3    H127722   2.111   0.825   1.374  0.6755  2.6924 -0.6472
 2029TIP3    H227723   1.999   0.874   1.462 -0.7065  1.0614 -1.4474
 2030TIP3   OH227724   1.915   2.356   7.764  0.3722  0.3543  0.3328
 2030TIP3    H127725   1.866   2.374   7.844  0.4365 -2.1323  1.0209
 2030TIP3    H227726   1.993   2.309   7.794 -0.0750 -1.4802 -1.2157
 2031TIP3   OH227727   6.376   4.900   0.029  0.4061 -0.2148  0.0763
 2031TIP3    H127728   6.455   4.934   0.070 -0.5753  0.0646  1.8000
 2031TIP3    H227729   6.332   4.851   0.098 -2.1753  1.7079 -0.0648
 2032TIP3   OH227730   0.116   3.064   7.646  0.3155  0.8085 -0.0997
 2032TIP3    H127731   0.039   3.102   7.604  0.5324  2.4659  0.9403
 2032TIP3    H227732   0.190   3.111   7.609  0.6343  0.9811  0.7333
 2033TIP3   OH227733   4.000   6.713   0.444  0.1150 -0.2845  0.5132
 2033TIP3    H127734   4.073   6.727   0.383 -1.3608 -1.1230 -1.5509
 2033TIP3    H227735   3.975   6.622   0.431 -1.9754  0.2696  0.3952
 2034TIP3   OH227736   4.217   0.747   2.363  0.0222  0.7226  0.0812
 2034TIP3    H127737   4.216   0.800   2.442 -0.7745  1.4389 -0.3995
 2034TIP3    H227738   4.280   0.677   2.382  0.2955  1.2316  1.1095
 2035TIP3   OH227739   1.879   4.546   2.062  0.4566  0.2137  0.5639
 2035TIP3    H127740   1.912   4.476   2.006 -1.6935 -0.6400  0.2817
 2035TIP3    H227741   1.871   4.505   2.149 -1.1448 -0.0522  0.3203
 2036TIP3   OH227742   2.053   3.040   0.001  0.0268  0.2181  0.3880
 2036TIP3    H127743   2.069   2.984  -0.075  0.5363 -0.7285  1.1666
 2036TIP3    H227744   2.120   3.014   0.064 -1.2971 -0.0937  1.7204
 2037TIP3   OH227745   3.243   4.560   6.797 -0.2832 -0.1068 -0.1743
 2037TIP3    H127746   3.329   4.594   6.772  0.1464 -0.5873  0.5948
 2037TIP3    H227747   3.186   4.636   6.796  0.1568  0.2262 -0.6572
 2038TIP3   OH227748   3.102   0.023   1.622 -0.2903  0.1262  0.1820
 2038TIP3    H127749   3.110  -0.037   1.696 -1.6906 -0.4132 -0.0802
 2038TIP3    H227750   3.150  -0.019   1.551  1.9045  1.0959  0.9839
 2039TIP3   OH227751   2.569   4.713   0.053  0.3117  0.4701  0.0364
 2039TIP3    H127752   2.550   4.779  -0.014 -0.5820 -1.6077 -1.9280
 2039TIP3    H227753   2.535   4.750   0.134 -3.2457  1.1268 -1.5511
 2040TIP3   OH227754   1.105   1.271   0.316 -0.3865  1.0367 -0.7300
 2040TIP3    H127755   1.035   1.330   0.287 -1.7710  0.1104  0.6409
 2040TIP3    H227756   1.061   1.205   0.369  1.5975  0.7268  0.6302
 2041TIP3   OH227757   5.578   4.063   7.833 -0.6547 -0.1178  0.4330
 2041TIP3    H127758   5.614   3.996   7.775  0.5130  0.8149  0.0384
 2041TIP3    H227759   5.627   4.053   7.915 -0.1102  0.5819  0.1964
 2042TIP3   OH227760   5.302   6.663   1.578 -0.3769 -0.4941  0.2292
 2042TIP3    H127761   5.370   6.605   1.614  1.3447  1.4035  0.2284
 2042TIP3    H227762   5.304   6.646   1.484 -2.0484 -2.5552  0.4950
 2043TIP3   OH227763   3.873   1.585   0.981 -0.7354  0.4936  0.1445
 2043TIP3    H127764   3.956   1.558   1.019 -1.6104 -1.8335  0.5753
 2043TIP3    H227765   3.892   1.670   0.940  1.6627  0.3280  0.7453
 2044TIP3   OH227766   0.374   1.409   6.482 -0.3640 -0.4851 -0.0281
 2044TIP3    H127767   0.463   1.376   6.468  1.0298  2.5626  0.8266
 2044TIP3    H227768   0.318   1.335   6.461  2.3386 -2.4351 -0.9774
 2045TIP3   OH227769   1.999   4.098   1.068 -0.4454  0.1251 -0.0949
 2045TIP3    H127770   2.061   4.169   1.086  1.2178 -1.1298 -0.5288
 2045TIP3    H227771   2.020   4.031   1.133 -0.3606 -0.8796 -1.1087
 2046TIP3   OH227772   3.550   6.952   7.821  0.0874  0.1752 -0.3558
 2046TIP3    H127773   3.497   6.897   7.763 -1.8845  2.3166 -0.7902
 2046TIP3    H227774   3.505   6.949   7.905 -1.1057  2.3569 -0.8407
 2047TIP3   OH227775   5.561   3.176   7.732 -0.1032 -0.2274  0.0471
 2047TIP3    H127776   5.644   3.142   7.768 -0.0356  1.1742  1.2988
 2047TIP3    H227777   5.577   3.269   7.719 -0.0251 -0.6408 -4.0633
 2048TIP3   OH227778   1.511   3.216   7.975 -0.6910  0.6414 -0.0479
 2048TIP3    H127779   1.569   3.173   8.038 -1.4537  1.7334  1.4752
 2048TIP3    H227780   1.448   3.149   7.951 -0.8433  0.4086  0.9595
 2049TIP3   OH227781   1.184   6.793   7.992 -0.0568 -0.2245 -0.0975
 2049TIP3    H127782   1.224   6.873   7.957  0.3181 -0.2446  0.2762
 2049TIP3    H227783   1.091   6.813   7.996 -0.0874 -0.1475 -0.9038
 2050TIP3   OH227784   6.067   4.224   2.774  0.3663 -0.3191 -0.2411
 2050TIP3    H127785   6.056   4.181   2.858  0.8548 -2.9771 -1.4341
 2050TIP3    H227786   5.978   4.230   2.738  0.2585 -0.0179  0.0754
 2051TIP3   OH227787   5.141   5.049   2.156  0.0229 -0.4263 -0.6094
 2051TIP3    H127788   5.170   5.097   2.233  0.4300 -1.2704 -0.2300
 2051TIP3    H227789   5.208   5.066   2.090  1.3240 -2.1886  0.1930
 2052TIP3   OH227790   1.259   6.442   1.292 -0.7640  0.0197  0.3420
 2052TIP3    H127791   1.280   6.409   1.379 -0.4325 -0.1584  0.1988
 2052TIP3    H227792   1.293   6.374   1.232  0.3559  0.8289  0.0264
 2053TIP3   OH227793   1.770   6.106   1.458 -0.1628  0.4351 -0.3383
 2053TIP3    H127794   1.749   6.144   1.543 -0.2820  0.2066 -0.2643
 2053TIP3    H227795   1.865   6.096   1.459 -0.2199 -0.1630  0.0268
 2054TIP3   OH227796   2.508   5.193   2.793 -0.5619  0.1849 -0.3368
 2054TIP3    H127797   2.528   5.286   2.785 -0.7958  0.1286 -1.8540
 2054TIP3    H227798   2.588   5.154   2.829  0.0963  0.7622 -1.1496
 2055TIP3   OH227799   5.400   2.262   7.976 -0.1194  0.1361  0.6725
 2055TIP3    H127800   5.348   2.276   8.054 -2.5656  0.3738 -0.8955
 2055TIP3    H227801   5.400   2.347   7.932 -1.1674 -0.6433 -0.9178
 2056TIP3   OH227802   4.120   5.723   1.133 -0.0791  0.0879  0.0375
 2056TIP3    H127803   4.034   5.742   1.094 -0.5928 -0.7949  0.7099
 2056TIP3    H227804   4.151   5.808   1.164 -0.2917  0.5724 -1.0149
 2057TIP3   OH227805   6.242   5.092   2.404  0.0491  0.1817  0.1280
 2057TIP3    H127806   6.266   5.034   2.476  1.8048  1.3633  0.5689
 2057TIP3    H227807   6.275   5.178   2.430  0.7671  0.6473 -2.0652
 2058TIP3   OH227808   0.552   1.993   2.114 -0.4209  0.4018  0.4748
 2058TIP3    H127809   0.465   2.004   2.152 -0.2155  0.2273  1.0065
 2058TIP3    H227810   0.536   1.967   2.023 -0.9286  2.2808 -0.0289
 2059TIP3   OH227811   2.601   5.930   8.463 -0.0308  0.4813  0.0087
 2059TIP3    H127812   2.599   5.888   8.377  0.1328  0.4764  0.0059
 2059TIP3    H227813   2.572   5.862   8.524 -0.6691  0.6473 -0.1053
 2060TIP3   OH227814   4.543   4.955   7.162 -0.6982  0.4597  0.0787
 2060TIP3    H127815   4.548   4.934   7.255 -1.3561 -0.6520 -0.1197
 2060TIP3    H227816   4.488   5.034   7.158  1.6424  2.2368  0.8206
 2061TIP3   OH227817   3.448   4.804   6.921 -0.0488  0.0187  0.1113
 2061TIP3    H127818   3.454   4.757   6.837 -1.4890  1.2572 -0.7435
 2061TIP3    H227819   3.396   4.747   6.977  1.1208 -0.9261  0.2655
 2062TIP3   OH227820   0.981   3.773   0.331 -0.0967  0.2600 -0.1510
 2062TIP3    H127821   1.049   3.730   0.279  1.3380  1.4424  0.6533
 2062TIP3    H227822   0.943   3.838   0.272  2.8456  2.9636  0.6312
 2063TIP3   OH227823   3.402   3.373   2.236 -0.2862 -0.1004 -0.3752
 2063TIP3    H127824   3.318   3.412   2.262  0.4154  0.9433  0.3902
 2063TIP3    H227825   3.396   3.282   2.264 -0.7827  0.2089  0.5515
 2064TIP3   OH227826   3.344   6.534   0.849 -0.2735  0.6139  0.3540
 2064TIP3    H127827   3.285   6.459   0.843  0.9772 -0.3454 -0.6671
 2064TIP3    H227828   3.379   6.529   0.938 -1.4764  1.0164  0.8657
 2065TIP3   OH227829   5.090   0.623   8.319 -0.2503  0.1296  0.5313
 2065TIP3    H127830   5.068   0.607   8.411  1.1523  0.9482  1.0488
 2065TIP3    H227831   5.161   0.562   8.300  0.1259  0.6345  0.2958
 2066TIP3   OH227832   5.384   1.910   0.684  0.3347 -0.2186  0.2779
 2066TIP3    H127833   5.466   1.884   0.726 -0.3813 -2.5316  0.3690
 2066TIP3    H227834   5.318   1.903   0.754  0.0336  1.8580  0.2759
 2067TIP3   OH227835   4.811   6.242   1.158  0.2975  0.3201 -0.2175
 2067TIP3    H127836   4.769   6.297   1.225 -1.2867  3.5954 -3.5067
 2067TIP3    H227837   4.903   6.238   1.184 -0.6178 -0.8445  3.4029
 2068TIP3   OH227838   2.048   6.367   1.672 -0.2303  0.0571 -0.1553
 2068TIP3    H127839   2.089   6.395   1.754  1.3920 -1.2472 -0.4752
 2068TIP3    H227840   2.041   6.272   1.680  0.6236 -0.1809 -1.8001
 2069TIP3   OH227841   0.691   5.749   0.530  0.0364 -0.5155 -0.5535
 2069TIP3    H127842   0.688   5.664   0.485 -0.3947 -0.5621 -0.4414
 2069TIP3    H227843   0.603   5.785   0.519  0.1908 -0.1251 -0.5147
 2070TIP3   OH227844   5.681   0.237   0.892 -1.0192  0.3535 -0.2307
 2070TIP3    H127845   5.714   0.324   0.871  1.9862 -0.4158  0.8325
 2070TIP3    H227846   5.660   0.198   0.808 -2.3185  2.0097 -0.7330
 2071TIP3   OH227847   5.406   0.367   1.166  0.4107 -0.4682 -0.9997
 2071TIP3    H127848   5.367   0.322   1.091 -1.9009  0.3427 -0.3718
 2071TIP3    H227849   5.372   0.320   1.243 -0.6317  1.2176 -0.3843
 2072TIP3   OH227850   1.022   5.549   2.071  0.5113 -0.5986  0.5044
 2072TIP3    H127851   1.050   5.640   2.067 -0.7652 -0.1079  1.8550
 2072TIP3    H227852   0.961   5.545   2.145 -0.8508 -2.1699 -0.6214
 2073TIP3   OH227853   0.913   0.503   7.661 -0.2658 -0.5231 -0.0698
 2073TIP3    H127854   0.819   0.516   7.654 -0.4571 -1.2207  0.9772
 2073TIP3    H227855   0.946   0.586   7.697 -0.1727  0.4900 -2.3414
 2074TIP3   OH227856   2.985   4.063   0.549  0.4541 -0.5389  0.4817
 2074TIP3    H127857   3.006   4.154   0.572  1.1532 -0.7619  0.7702
 2074TIP3    H227858   2.910   4.041   0.604  1.2144 -0.5986  1.5294
 2075TIP3   OH227859   2.763   1.402   6.863 -0.4361 -0.3688  0.4521
 2075TIP3    H127860   2.752   1.367   6.774 -0.1410 -1.0196  0.6693
 2075TIP3    H227861   2.809   1.486   6.850 -1.1086 -0.0634 -0.0669
 2076TIP3   OH227862   5.521   0.898   7.383  0.0843  0.0041 -0.1524
 2076TIP3    H127863   5.558   0.898   7.471  0.9000  1.0358 -0.4712
 2076TIP3    H227864   5.522   0.991   7.357  0.5207 -0.3645 -1.5231
 2077TIP3   OH227865   3.231   2.647   0.417  0.2436 -0.2018 -0.0735
 2077TIP3    H127866   3.280   2.724   0.447  0.5319 -0.4041 -0.0199
 2077TIP3    H227867   3.144   2.657   0.456 -0.5274  1.3640 -2.0126
 2078TIP3   OH227868   5.080   1.512   7.361  0.1062  0.4106  0.5051
 2078TIP3    H127869   5.040   1.571   7.425 -0.6174  1.2959 -0.7189
 2078TIP3    H227870   5.113   1.570   7.292  0.7725 -0.5206  0.0191
 2079TIP3   OH227871   4.290   3.915   7.082  0.0481 -0.5120  0.2054
 2079TIP3    H127872   4.214   3.868   7.048 -1.2372  0.7783  1.1942
 2079TIP3    H227873   4.365   3.863   7.053 -1.0431 -0.6483 -2.7152
 2080TIP3   OH227874   1.560   2.382   6.867 -0.1443  0.0509 -0.3254
 2080TIP3    H127875   1.558   2.320   6.794 -1.4679 -0.0277 -0.2440
 2080TIP3    H227876   1.470   2.415   6.873 -0.1204 -0.1095  1.4105
 2081TIP3   OH227877   2.048   4.668   0.742  0.0841 -0.3050 -0.4438
 2081TIP3    H127878   2.045   4.726   0.818 -0.1026 -2.6264  1.4459
 2081TIP3    H227879   2.128   4.694   0.695  1.0639  0.2136  1.4050
 2082TIP3   OH227880   5.950   5.955   8.137 -0.5772 -0.4774 -1.0254
 2082TIP3    H127881   6.005   5.972   8.060  0.2352 -0.7162 -0.5028
 2082TIP3    H227882   5.994   5.883   8.183 -0.4769  0.3596  0.2279
 2083TIP3   OH227883   4.735   2.742   0.458  0.7390 -0.6268  0.3313
 2083TIP3    H127884   4.740   2.652   0.491 -0.4476 -0.8362 -0.0330
 2083TIP3    H227885   4.699   2.734   0.370 -0.8902  0.3139  0.8815
 2084TIP3   OH227886   5.942   1.278   1.928 -0.5692  0.0876 -0.0699
 2084TIP3    H127887   5.890   1.294   2.007 -1.4137  4.8287 -1.2218
 2084TIP3    H227888   6.029   1.255   1.960 -0.5177  3.0916  2.4659
 2085TIP3   OH227889   5.182   1.954   7.412 -0.2999 -0.7529  0.4518
 2085TIP3    H127890   5.179   2.023   7.477  1.5478  0.8276 -1.0187
 2085TIP3    H227891   5.242   1.888   7.449  2.3021  1.0146 -0.3020
 2086TIP3   OH227892   4.615   2.382   1.499 -0.3272 -0.5877 -0.2667
 2086TIP3    H127893   4.687   2.334   1.538  0.3484  0.1878 -0.5343
 2086TIP3    H227894   4.609   2.348   1.409 -0.3780 -0.7415 -0.2050
 2087TIP3   OH227895   4.909   3.574   7.409  0.0941 -0.2986 -0.0182
 2087TIP3    H127896   4.988   3.522   7.398  0.9249  0.6504  1.2279
 2087TIP3    H227897   4.860   3.530   7.478  0.4204  0.1060  0.4818
 2088TIP3   OH227898   4.543   6.086   2.222  0.1949 -0.1570 -0.3803
 2088TIP3    H127899   4.592   6.143   2.281  0.1287 -0.3826 -0.1032
 2088TIP3    H227900   4.534   6.004   2.270 -0.2366 -0.2010 -0.5267
 2089TIP3   OH227901   4.417   3.456   7.968 -0.0506  0.4598 -0.2323
 2089TIP3    H127902   4.388   3.423   8.053 -0.2138 -0.8511 -0.7718
 2089TIP3    H227903   4.511   3.438   7.967  0.4660  2.7864  0.6613
 2090TIP3   OH227904   1.376   2.272   1.230  0.2457 -0.1910 -0.7263
 2090TIP3    H127905   1.304   2.218   1.264  0.2575  0.8261  1.0157
 2090TIP3    H227906   1.442   2.271   1.299  0.1336  2.2525 -0.5080
 2091TIP3   OH227907   0.596   6.123   0.561  0.4853 -1.0100 -0.5073
 2091TIP3    H127908   0.560   6.180   0.629  0.2944 -1.7395  0.0198
 2091TIP3    H227909   0.655   6.179   0.511  1.2394 -0.6480  0.7417
 2092TIP3   OH227910   3.184   0.570   7.830  0.0207 -0.0729 -0.2257
 2092TIP3    H127911   3.172   0.650   7.880 -0.3505  0.4088 -1.0737
 2092TIP3    H227912   3.115   0.572   7.763  0.3996 -0.7869 -0.6566
 2093TIP3   OH227913   1.812   5.745   8.497  0.6154 -0.0298 -0.0670
 2093TIP3    H127914   1.890   5.696   8.524 -0.3663 -2.4127 -1.1981
 2093TIP3    H227915   1.769   5.768   8.579  1.0542 -1.2581  0.5410
 2094TIP3   OH227916   2.612   3.674   0.847  0.1661  0.4899  0.4604
 2094TIP3    H127917   2.557   3.742   0.808 -0.8753 -0.0652  0.9266
 2094TIP3    H227918   2.695   3.719   0.866 -0.7118  1.8076  1.3694
 2095TIP3   OH227919   0.973   0.460   1.227 -0.3210 -0.0703 -0.8271
 2095TIP3    H127920   0.938   0.398   1.291  0.4549 -0.9505 -1.2351
 2095TIP3    H227921   1.011   0.405   1.158  1.0319  0.8315 -0.8487
 2096TIP3   OH227922   2.838   2.609   1.015  0.1846 -0.6310  0.3726
 2096TIP3    H127923   2.911   2.581   1.070 -0.4122 -1.3722  0.8136
 2096TIP3    H227924   2.877   2.621   0.928  0.5440 -2.7345  0.1762
 2097TIP3   OH227925   2.346   1.318   8.047  0.6222 -0.2839  0.1168
 2097TIP3    H127926   2.253   1.299   8.054  0.3747  1.0943  0.7870
 2097TIP3    H227927   2.385   1.277   8.125  1.3084 -4.4883 -2.0995
 2098TIP3   OH227928   3.558   4.236   3.068 -0.2285 -0.1784 -0.1007
 2098TIP3    H127929   3.534   4.146   3.046 -0.8932  0.0728 -0.4499
 2098TIP3    H227930   3.653   4.233   3.082 -0.4615 -1.2797  1.6227
 2099TIP3   OH227931   1.380   4.842   2.560  0.1412  0.2752  0.4594
 2099TIP3    H127932   1.468   4.807   2.572  0.4907  0.8653 -0.2763
 2099TIP3    H227933   1.337   4.778   2.502  0.8095  1.0519 -0.9623
 2100TIP3   OH227934   2.139   0.621   0.749  0.2418 -0.1448  0.2449
 2100TIP3    H127935   2.169   0.706   0.717  0.9069 -0.1439  0.8519
 2100TIP3    H227936   2.209   0.590   0.806  0.1364 -1.2469 -0.2065
 2101TIP3   OH227937   1.121   0.565   0.358 -0.2025 -0.1635  0.4965
 2101TIP3    H127938   1.065   0.493   0.388 -0.6869 -1.2431 -2.6330
 2101TIP3    H227939   1.063   0.641   0.355 -0.3246 -0.2063  1.4609
 2102TIP3   OH227940   0.334   6.084   0.716 -0.1116  0.1237  0.7619
 2102TIP3    H127941   0.247   6.103   0.681  0.7202  2.0009 -0.4802
 2102TIP3    H227942   0.384   6.052   0.641  1.0440  1.9159  0.6887
 2103TIP3   OH227943   5.772   1.004   6.522  0.5686  0.3438 -0.0426
 2103TIP3    H127944   5.721   0.966   6.593  2.1310  1.0228  1.5177
 2103TIP3    H227945   5.793   0.930   6.465  1.7856 -0.8252  1.8099
 2104TIP3   OH227946   1.867   6.609   0.585  0.0432  0.1343  0.3735
 2104TIP3    H127947   1.856   6.598   0.680 -0.6251  1.0918  0.4154
 2104TIP3    H227948   1.937   6.674   0.576 -1.3572  1.6872  0.2695
 2105TIP3   OH227949   1.828   2.187   0.176 -0.3945 -0.6373  0.2208
 2105TIP3    H127950   1.907   2.209   0.126  0.7431  0.2675  2.3066
 2105TIP3    H227951   1.822   2.091   0.170  1.3438 -0.8108  0.6680
 2106TIP3   OH227952   6.339   1.020   6.985 -0.5811  0.2402  0.1590
 2106TIP3    H127953   6.343   1.008   6.891  1.4432 -1.4483  0.3838
 2106TIP3    H227954   6.427   1.050   7.010 -1.6757  2.8557  1.3278
 2107TIP3   OH227955   5.580   1.112   1.063  0.0589 -0.1667 -0.0755
 2107TIP3    H127956   5.608   1.023   1.084  0.5098  0.2950  1.4416
 2107TIP3    H227957   5.598   1.162   1.143 -3.2100  0.6372  0.3044
 2108TIP3   OH227958   5.147   2.504   8.415  0.1475 -0.5840 -0.6303
 2108TIP3    H127959   5.078   2.471   8.472  1.6738 -0.3788  1.4352
 2108TIP3    H227960   5.127   2.597   8.404 -0.0498 -0.5851 -0.2852
 2109TIP3   OH227961   2.072   3.701   6.813 -0.3986  0.7982  0.2414
 2109TIP3    H127962   1.997   3.747   6.850 -0.0841  1.7813 -0.2973
 2109TIP3    H227963   2.035   3.648   6.741 -0.9525 -0.8534  1.6741
 2110TIP3   OH227964   2.424   6.322   0.141  0.2379  0.5260 -0.2670
 2110TIP3    H127965   2.470   6.358   0.066 -0.6206 -1.0674 -1.6388
 2110TIP3    H227966   2.384   6.398   0.184  2.1973  1.6658 -0.3405
 2111TIP3   OH227967   5.296   4.317   2.266  0.7090  0.1735  0.1392
 2111TIP3    H127968   5.324   4.406   2.242  0.6827  0.2385  0.3440
 2111TIP3    H227969   5.273   4.276   2.183 -1.8410  1.2374  0.2162
 2112TIP3   OH227970   0.281   6.403   7.544 -0.1991 -0.4532 -0.3312
 2112TIP3    H127971   0.317   6.324   7.504 -1.7112 -1.1734 -0.3473
 2112TIP3    H227972   0.187   6.387   7.549 -0.4515  1.0296  0.3994
 2113TIP3   OH227973   4.160   4.888   6.881  0.2745  0.0829  0.2901
 2113TIP3    H127974   4.150   4.959   6.817  0.1912  0.2222  0.4567
 2113TIP3    H227975   4.193   4.814   6.830  1.9612  0.7225  0.3868
 2114TIP3   OH227976   4.082   0.848   7.303 -0.4160 -0.3187 -0.5084
 2114TIP3    H127977   4.106   0.922   7.248 -1.1603 -0.3136 -0.8407
 2114TIP3    H227978   3.996   0.871   7.339  0.1674 -0.1979  0.8844
 2115TIP3   OH227979   1.594   4.608   0.837  0.8715  0.4158  0.3184
 2115TIP3    H127980   1.518   4.595   0.779  1.7892 -1.9346 -0.5002
 2115TIP3    H227981   1.668   4.615   0.778  1.5709  0.1366  1.1468
 2116TIP3   OH227982   4.675   2.789   8.066 -0.7085 -0.1835  0.4841
 2116TIP3    H127983   4.631   2.756   7.987 -0.3644  0.5559 -0.0215
 2116TIP3    H227984   4.711   2.710   8.107 -1.8099 -0.7127  0.4904
 2117TIP3   OH227985   3.218   0.893   1.860  0.9515  0.0517  0.2578
 2117TIP3    H127986   3.285   0.847   1.811  0.0021 -0.7774 -0.2954
 2117TIP3    H227987   3.220   0.853   1.947  0.0710 -1.1311 -0.2457
 2118TIP3   OH227988   5.288   1.437   7.556  0.0680 -0.2741  0.0176
 2118TIP3    H127989   5.239   1.507   7.599 -1.6182 -1.0323 -0.5360
 2118TIP3    H227990   5.245   1.427   7.471 -0.6103 -2.7721  0.5546
 2119TIP3   OH227991   4.677   6.207   7.030  0.3534 -0.2381 -0.5534
 2119TIP3    H127992   4.725   6.213   7.113  0.1149  0.9191 -0.4918
 2119TIP3    H227993   4.699   6.120   6.997  1.0158 -0.4444  0.3776
 2120TIP3   OH227994   4.254   2.632   7.535  0.2821 -0.0338 -0.1240
 2120TIP3    H127995   4.178   2.690   7.541  0.1342 -0.1412 -0.9072
 2120TIP3    H227996   4.217   2.544   7.524  0.5071  0.0118 -1.4104
 2121TIP3   OH227997   2.276   4.345   0.777  0.4062 -0.4092  0.0857
 2121TIP3    H127998   2.190   4.384   0.789 -0.2026 -1.5808 -0.3007
 2121TIP3    H227999   2.298   4.308   0.863  0.7067  0.2179  0.2857
 2122TIP3   OH228000   1.601   5.102   8.176 -0.1705  0.4396  0.1341
 2122TIP3    H128001   1.585   5.019   8.221  2.1693 -0.2534 -0.1641
 2122TIP3    H228002   1.625   5.076   8.087 -0.8579  1.5531 -0.3893
 2123TIP3   OH228003   3.543   1.466   7.593  0.4981 -0.0423  0.0414
 2123TIP3    H128004   3.449   1.483   7.593  0.7425  1.6245  1.4675
 2123TIP3    H228005   3.574   1.503   7.510  0.0566  0.6174  0.1587
 2124TIP3   OH228006   0.178   1.428   1.403  0.5568 -0.4132 -0.0951
 2124TIP3    H128007   0.148   1.391   1.320  1.3653  0.0921 -0.6223
 2124TIP3    H228008   0.099   1.431   1.458 -0.5248  1.3738 -1.6266
 2125TIP3   OH228009   4.731   4.044   2.334 -0.2026  0.3709 -0.0844
 2125TIP3    H128010   4.804   4.073   2.390  0.4359 -0.6926 -0.3460
 2125TIP3    H228011   4.770   4.034   2.247 -0.2549 -1.7494  0.0885
 2126TIP3   OH228012   1.474   6.468   2.003 -0.3338  0.3198  0.0718
 2126TIP3    H128013   1.409   6.414   1.959 -2.0227  1.9116  0.4727
 2126TIP3    H228014   1.509   6.525   1.935 -0.4283  0.4484  0.1299
 2127TIP3   OH228015   0.185   6.482   0.717  0.1140 -0.4097  0.4956
 2127TIP3    H128016   0.132   6.544   0.668  1.0619  1.0183  1.1930
 2127TIP3    H228017   0.126   6.448   0.785 -0.0346  0.8327  1.0021
 2128TIP3   OH228018   4.978   1.925   8.106  0.1018 -0.0653 -0.2639
 2128TIP3    H128019   4.911   1.925   8.174 -0.2863  1.5629 -0.6162
 2128TIP3    H228020   4.936   1.967   8.031  1.6983  1.6281 -0.2739
 2129TIP3   OH228021   4.213   5.522   0.126 -0.6110  0.7085 -0.4766
 2129TIP3    H128022   4.234   5.558   0.212 -0.5091  1.5327 -0.8353
 2129TIP3    H228023   4.195   5.429   0.143 -2.2762  1.1803  0.7161
 2130TIP3   OH228024   3.984   6.626   1.274  0.8138  0.1385  0.3022
 2130TIP3    H128025   3.958   6.713   1.244  1.8335 -0.1868 -1.6940
 2130TIP3    H228026   3.990   6.634   1.370  0.6425  2.1705  0.1779
 2131TIP3   OH228027   6.487   4.371   1.189 -0.2119  0.1210 -0.7544
 2131TIP3    H128028   6.551   4.440   1.175 -0.0130  0.0221 -0.3423
 2131TIP3    H228029   6.403   4.410   1.165 -0.0752  0.4425 -0.7123
 2132TIP3   OH228030   3.199   2.620   2.567  0.4153  0.2362 -0.2794
 2132TIP3    H128031   3.122   2.587   2.613 -0.6694  0.1988 -2.0078
 2132TIP3    H228032   3.192   2.716   2.575  1.1876  0.2056  1.0505
 2133TIP3   OH228033   5.547   3.838   1.903  0.5530  0.2298  0.8036
 2133TIP3    H128034   5.593   3.826   1.986  0.7363  3.9436  1.4054
 2133TIP3    H228035   5.511   3.927   1.908  0.3573  0.5374 -2.9859
 2134TIP3   OH228036   0.219   5.932   2.295  0.1249 -0.4236  0.3498
 2134TIP3    H128037   0.213   5.837   2.307 -3.6015 -0.4094 -0.4395
 2134TIP3    H228038   0.191   5.969   2.378  0.4735 -0.0048  0.2851
 2135TIP3   OH228039   3.579   4.731   0.987  0.4499 -0.4384 -0.3708
 2135TIP3    H128040   3.633   4.664   1.028  0.7954 -0.7490 -1.3144
 2135TIP3    H228041   3.641   4.799   0.960  0.2295 -0.2494 -0.4067
 2136TIP3   OH228042   3.868   5.954   6.566  0.6182 -0.4640 -0.4784
 2136TIP3    H128043   3.892   5.877   6.515  1.4766  0.2773 -1.2072
 2136TIP3    H228044   3.781   5.978   6.534  0.2205 -1.2839 -0.0454
 2137TIP3   OH228045   5.427   1.435   0.921  0.5815 -0.0392 -0.2809
 2137TIP3    H128046   5.430   1.467   0.830  0.7488  0.7112 -0.0223
 2137TIP3    H228047   5.349   1.477   0.958  0.3056 -0.6367 -0.1782
 2138TIP3   OH228048   1.218   6.826   0.212  0.1529  0.2260 -0.4915
 2138TIP3    H128049   1.289   6.827   0.277  0.3087 -0.1263 -0.6537
 2138TIP3    H228050   1.263   6.817   0.128 -0.0586  0.5100 -0.6345
 2139TIP3   OH228051   5.875   1.609   1.533 -0.2182 -0.1557 -0.5674
 2139TIP3    H128052   5.788   1.585   1.502  0.4700 -2.2423 -1.0669
 2139TIP3    H228053   5.873   1.588   1.627 -1.0160  2.2885  0.0343
 2140TIP3   OH228054   5.046   3.488   0.065 -0.1651 -0.6223 -0.1209
 2140TIP3    H128055   5.078   3.418   0.008  0.6856 -0.1831 -0.2039
 2140TIP3    H228056   5.015   3.556   0.005  1.5605  0.2241 -0.1196
 2141TIP3   OH228057   2.450   2.310   1.812 -0.1756  0.0314  0.3688
 2141TIP3    H128058   2.459   2.248   1.740 -1.1931  0.5208 -0.2180
 2141TIP3    H228059   2.420   2.257   1.886  1.9303 -0.6563  0.7764
 2142TIP3   OH228060   1.095   3.350   2.008 -0.5126  0.6804  0.0108
 2142TIP3    H128061   1.073   3.401   2.086 -0.4512  0.6419  0.0538
 2142TIP3    H228062   1.037   3.275   2.011  0.3148  0.0495  0.6701
 2143TIP3   OH228063   4.365   4.861   0.105 -0.0239  0.6340  0.4967
 2143TIP3    H128064   4.290   4.801   0.112  0.3533  0.0873 -0.1062
 2143TIP3    H228065   4.438   4.813   0.144  0.4802  0.3476 -0.7578
 2144TIP3   OH228066   2.832   5.089   1.407  0.4657  0.3123 -0.0159
 2144TIP3    H128067   2.871   5.173   1.432  0.7418  1.3777 -3.5789
 2144TIP3    H228068   2.739   5.098   1.428  0.0662  2.4510 -2.2424
 2145TIP3   OH228069   4.112   5.221   1.091  0.7539  0.1849  0.4242
 2145TIP3    H128070   4.194   5.256   1.125 -0.3715  3.6109  0.0489
 2145TIP3    H228071   4.074   5.294   1.042 -1.8778 -1.7143 -0.5968
 2146TIP3   OH228072   0.688   3.040   7.326 -0.4798 -0.2006  0.1020
 2146TIP3    H128073   0.602   3.006   7.302 -0.1670 -1.1125  0.2263
 2146TIP3    H228074   0.720   2.979   7.393  1.0942 -1.0510 -1.3325
 2147TIP3   OH228075   3.356   0.260   1.497  0.0198  0.4303 -0.2853
 2147TIP3    H128076   3.423   0.198   1.526  0.2883  1.4584  1.4037
 2147TIP3    H228077   3.375   0.274   1.404 -0.3167 -2.2959 -0.8589
 2148TIP3   OH228078   3.582   2.247   0.121  0.1485 -0.3947 -0.4941
 2148TIP3    H128079   3.661   2.232   0.172 -0.4644  0.5627  0.7994
 2148TIP3    H228080   3.511   2.250   0.186 -0.8041 -0.2119 -1.5040
 2149TIP3   OH228081   2.053   4.272   7.178 -0.2508 -0.2522  0.0701
 2149TIP3    H128082   2.069   4.354   7.225 -0.4149  0.2946 -0.7906
 2149TIP3    H228083   2.088   4.288   7.090 -0.5003 -1.0216 -0.1777
 2150TIP3   OH228084   0.738   0.790   1.732  0.6561 -0.1853 -0.0932
 2150TIP3    H128085   0.693   0.873   1.718 -0.3899 -0.5709  0.8266
 2150TIP3    H228086   0.774   0.767   1.646 -0.1098  0.6062 -0.6396
 2151TIP3   OH228087   5.538   4.227   1.796  0.3262 -0.0411 -0.1645
 2151TIP3    H128088   5.487   4.181   1.862 -0.1004 -0.4030 -0.7338
 2151TIP3    H228089   5.600   4.281   1.846  0.9202 -1.3120  0.5134
 2152TIP3   OH228090   4.885   6.625   2.356 -0.6202 -0.4236  0.4463
 2152TIP3    H128091   4.808   6.597   2.306  0.6529 -1.7892 -0.8771
 2152TIP3    H228092   4.885   6.720   2.349 -1.0351 -0.5170 -1.3775
 2153TIP3   OH228093   5.892   5.240   7.553 -0.1062  0.6544 -0.0994
 2153TIP3    H128094   5.880   5.267   7.462 -0.5099  1.9505  0.3115
 2153TIP3    H228095   5.987   5.240   7.566  0.2324 -3.0178 -1.4699
 2154TIP3   OH228096   1.921   1.331   8.339  0.3280 -0.0401 -0.2685
 2154TIP3    H128097   1.934   1.353   8.247  2.0177  0.5464  0.0706
 2154TIP3    H228098   1.953   1.241   8.346  1.7877  0.4804  0.0416
 2155TIP3   OH228099   6.943   1.510   0.013 -0.1946  0.1457 -0.6736
 2155TIP3    H128100   7.012   1.552   0.064 -0.7167 -1.5814  1.6615
 2155TIP3    H228101   6.987   1.441  -0.036 -0.2587 -1.6212  1.5892
 2156TIP3   OH228102   4.721   2.835   1.209 -0.1449  0.0105  0.5878
 2156TIP3    H128103   4.675   2.848   1.126  1.7353 -0.1490 -0.5155
 2156TIP3    H228104   4.690   2.906   1.265 -1.0385  0.4295 -0.4047
 2157TIP3   OH228105   1.356   2.151   7.882  0.3319 -0.3971  0.4954
 2157TIP3    H128106   1.349   2.057   7.899  0.7227 -0.4799  0.2206
 2157TIP3    H228107   1.411   2.156   7.804  0.1949  0.0546  0.4307
 2158TIP3   OH228108   1.198   1.869   8.281 -0.2408  0.0424 -0.4760
 2158TIP3    H128109   1.132   1.922   8.325  0.4321  0.9810 -0.5716
 2158TIP3    H228110   1.187   1.782   8.318 -1.7365  0.0961 -0.7071
 2159TIP3   OH228111   1.877   5.403   7.408  0.0933 -0.7124 -0.2874
 2159TIP3    H128112   1.855   5.383   7.317 -0.1210 -1.3087 -0.1092
 2159TIP3    H228113   1.962   5.447   7.403 -0.7813  0.9964 -0.9301
 2160TIP3   OH228114   1.002   2.675   8.468  0.5344 -0.0282  0.3378
 2160TIP3    H128115   0.943   2.676   8.393  0.7175  0.2745  0.1926
 2160TIP3    H228116   0.991   2.588   8.507 -1.3607  0.6372  1.3929
 2161TIP3   OH228117   3.664   5.534   0.122  0.3823 -0.0463  0.7163
 2161TIP3    H128118   3.622   5.606   0.075 -0.1547  0.7749  2.3514
 2161TIP3    H228119   3.735   5.505   0.065 -1.6439 -0.6876 -1.6321
 2162TIP3   OH228120   3.358   6.776   0.745 -0.3868  0.2340  0.4668
 2162TIP3    H128121   3.382   6.752   0.656  2.1037 -1.6444  1.5296
 2162TIP3    H228122   3.359   6.693   0.793  0.9889  1.4714  2.7591
 2163TIP3   OH228123   2.308   0.345   0.019 -0.2855  0.6690  0.1028
 2163TIP3    H128124   2.266   0.262  -0.004 -0.0435  0.2578  1.0461
 2163TIP3    H228125   2.402   0.327   0.010 -0.2622  1.4508 -1.5837
 2164TIP3   OH228126   6.521   2.043   0.245 -0.3095  0.2134  0.6784
 2164TIP3    H128127   6.546   2.135   0.238 -1.7613  0.5882 -0.0965
 2164TIP3    H228128   6.434   2.039   0.205 -0.3224 -1.4817  0.7982
 2165TIP3   OH228129   3.746   5.473   1.774  0.0939  0.2665  0.3198
 2165TIP3    H128130   3.699   5.537   1.720  0.1013 -0.1630 -0.1946
 2165TIP3    H228131   3.837   5.501   1.770  0.0145  0.5656  0.5722
 2166TIP3   OH228132   1.020   4.688   8.082  0.0425 -0.4038  1.1843
 2166TIP3    H128133   1.055   4.777   8.069  0.2978 -0.5902  0.5850
 2166TIP3    H228134   0.986   4.690   8.172  0.0772  0.2903  1.1940
 2167TIP3   OH228135   6.782   0.878   1.877 -0.5449  0.2853 -0.3310
 2167TIP3    H128136   6.708   0.870   1.937  2.2022 -0.9027  3.1638
 2167TIP3    H228137   6.832   0.798   1.888  1.6567  1.2862 -2.0855
 2168TIP3   OH228138   2.781   6.604   2.141 -0.0758 -0.0429 -0.5287
 2168TIP3    H128139   2.863   6.654   2.146 -1.2773  1.9366  0.9436
 2168TIP3    H228140   2.724   6.656   2.085 -1.4630  0.4549  1.2610
 2169TIP3   OH228141   5.068   2.602   8.054 -0.2084 -0.1731 -0.5592
 2169TIP3    H128142   5.002   2.576   8.119 -1.6453  1.2954 -1.3807
 2169TIP3    H228143   5.141   2.635   8.107 -0.4851 -0.9313  0.3413
 2170TIP3   OH228144   4.979   3.433   7.980  0.4240 -0.0803  0.2019
 2170TIP3    H128145   5.004   3.520   7.948 -0.8851  0.2585  0.0423
 2170TIP3    H228146   5.051   3.376   7.952  1.4290  0.9871  0.5333
 2171TIP3   OH228147   6.593   1.489   7.869 -0.5727 -0.6188 -0.3279
 2171TIP3    H128148   6.557   1.435   7.799 -0.4782 -1.2800  0.1212
 2171TIP3    H228149   6.531   1.477   7.942  0.6924 -2.0163  0.5607
 2172TIP3   OH228150   0.866   2.266   8.289 -0.1344  0.3641  0.3929
 2172TIP3    H128151   0.913   2.298   8.366  0.0894  0.7571  0.0966
 2172TIP3    H228152   0.897   2.321   8.217  0.3847 -0.6423 -0.1665
 2173TIP3   OH228153   2.556   0.455   0.699  0.2791 -0.3662 -0.4701
 2173TIP3    H128154   2.489   0.487   0.638 -1.3575 -1.4144  0.6839
 2173TIP3    H228155   2.520   0.474   0.786  1.5603 -0.8558  0.1920
 2174TIP3   OH228156   0.689   3.252   8.271 -0.2180  0.1682  0.7365
 2174TIP3    H128157   0.634   3.328   8.290 -0.5808 -0.2205  1.2948
 2174TIP3    H228158   0.772   3.269   8.316  0.0014  0.6006  0.1770
 2175TIP3   OH228159   2.255   0.840   7.435  0.5644 -0.2564  0.1907
 2175TIP3    H128160   2.178   0.785   7.446  0.1939  0.5674  2.3370
 2175TIP3    H228161   2.233   0.898   7.363 -0.8653 -0.0278  0.7763
 2176TIP3   OH228162   5.004   3.333   2.186 -0.0638 -0.3943 -0.9546
 2176TIP3    H128163   4.991   3.270   2.115 -1.4931 -2.1966  0.8113
 2176TIP3    H228164   5.072   3.294   2.240 -0.8852 -0.4008  0.0998
 2177TIP3   OH228165   6.758   2.347   1.533 -0.1904 -0.4938  0.2719
 2177TIP3    H128166   6.777   2.398   1.611  0.1995  0.2305 -0.2840
 2177TIP3    H228167   6.745   2.412   1.464  2.1810 -1.1026 -0.8866
 2178TIP3   OH228168   1.321   3.872   1.116 -0.4295  0.0889  0.1637
 2178TIP3    H128169   1.337   3.861   1.022 -2.1734  1.1419 -0.3039
 2178TIP3    H228170   1.371   3.950   1.140 -0.8861  0.4771 -0.1465
 2179TIP3   OH228171   3.318   3.833   8.072  0.4275 -0.0464 -0.4055
 2179TIP3    H128172   3.278   3.770   8.132  0.2819 -0.5216 -0.9848
 2179TIP3    H228173   3.318   3.916   8.120 -1.6274  0.0830 -0.5092
 2180TIP3   OH228174   4.560   4.211   0.020  0.3493  0.2387  0.2399
 2180TIP3    H128175   4.496   4.141   0.032  0.0849  0.4159 -0.1396
 2180TIP3    H228176   4.603   4.190  -0.063 -0.4947  1.1335 -0.4266
 2181TIP3   OH228177   4.765   5.364   1.891 -0.6283 -0.0317  0.0690
 2181TIP3    H128178   4.762   5.433   1.957  1.7432  0.3981 -0.1623
 2181TIP3    H228179   4.835   5.306   1.920 -0.1943 -0.3821 -1.5351
 2182TIP3   OH228180   6.102   0.408   7.324  0.7423 -0.3642  0.3390
 2182TIP3    H128181   6.192   0.415   7.290  1.0732 -1.6105  0.8988
 2182TIP3    H228182   6.113   0.381   7.415 -0.1826  1.1431  0.9386
 2183TIP3   OH228183   5.992   3.501   2.117 -0.1894 -0.6622  0.2045
 2183TIP3    H128184   6.078   3.523   2.080  0.1670  0.1971  1.4683
 2183TIP3    H228185   5.933   3.501   2.042  0.9098 -1.3047 -0.6983
 2184TIP3   OH228186   5.877   0.078   7.872  0.0573  0.0265 -0.2279
 2184TIP3    H128187   5.926   0.057   7.952  1.2196 -0.7092 -1.0977
 2184TIP3    H228188   5.822   0.002   7.857 -0.2082  0.1921 -0.1114
 2185TIP3   OH228189   3.010   6.729   2.173  0.8461  0.0423  0.4223
 2185TIP3    H128190   3.050   6.795   2.116  0.1737  0.2241  0.1497
 2185TIP3    H228191   2.996   6.775   2.255 -0.2344  0.4513  0.0240
 2186TIP3   OH228192   0.811   1.609   7.710 -0.1316 -0.2994  0.0775
 2186TIP3    H128193   0.896   1.595   7.751  0.6666  1.2860 -0.9255
 2186TIP3    H228194   0.785   1.522   7.680  1.7412 -0.6513 -0.6930
 2187TIP3   OH228195   3.002   1.423   1.812 -0.3240 -0.0097  0.5620
 2187TIP3    H128196   3.037   1.334   1.817 -0.1862 -0.0784 -0.9931
 2187TIP3    H228197   2.956   1.425   1.728  0.2100  1.5835  0.2811
 2188TIP3   OH228198   4.700   4.067   6.649  0.2657 -0.7879 -0.5149
 2188TIP3    H128199   4.673   3.979   6.676 -0.5267 -0.5494 -0.4996
 2188TIP3    H228200   4.663   4.124   6.717  0.5409 -0.4208 -0.6751
 2189TIP3   OH228201   5.105   3.256   1.677 -0.1400  0.2140  0.1513
 2189TIP3    H128202   5.160   3.206   1.616 -0.1152  1.0749 -0.5412
 2189TIP3    H228203   5.163   3.275   1.751  0.1875  0.2316 -0.1102
 2190TIP3   OH228204   3.812   0.043   0.153 -0.6258 -0.0114 -0.2400
 2190TIP3    H128205   3.726   0.064   0.115 -0.4867 -0.1783 -0.6563
 2190TIP3    H228206   3.835   0.120   0.205 -0.9603  0.0959 -0.2442
 2191TIP3   OH228207   4.790   0.274   1.099  0.2843 -0.6635  0.0713
 2191TIP3    H128208   4.853   0.319   1.157 -1.0460 -0.1043  1.1260
 2191TIP3    H228209   4.704   0.301   1.131 -0.5449  0.3860 -2.7435
 2192TIP3   OH228210   4.869   5.372   0.119 -0.2257  0.4390 -0.3540
 2192TIP3    H128211   4.953   5.330   0.100 -0.2427 -0.0959  0.6228
 2192TIP3    H228212   4.832   5.318   0.190 -0.9990  1.1698 -0.1906
 2193TIP3   OH228213   5.842   2.356   7.614  0.0261 -0.6931  0.7471
 2193TIP3    H128214   5.856   2.284   7.676  1.0825 -0.5028  0.7592
 2193TIP3    H228215   5.917   2.350   7.554 -1.7619 -1.8810 -1.5522
 2194TIP3   OH228216   2.396   4.076   0.348 -0.1184  0.0724  0.1033
 2194TIP3    H128217   2.363   4.148   0.294 -0.7468 -0.3989 -0.1445
 2194TIP3    H228218   2.410   4.116   0.434 -0.8153  0.4151  0.0683
 2195TIP3   OH228219   2.154   6.424   2.102 -0.1097 -0.5759 -0.0398
 2195TIP3    H128220   2.134   6.484   2.030  0.3381 -0.3227  0.0460
 2195TIP3    H228221   2.179   6.343   2.059  1.4387 -0.0361 -0.2149
 2196TIP3   OH228222   1.184   5.331   8.053  0.1135  0.5161 -0.0999
 2196TIP3    H128223   1.266   5.322   8.101  0.0500 -1.6888 -0.2683
 2196TIP3    H228224   1.118   5.347   8.121  0.4234  0.3673  0.2407
 2197TIP3   OH228225   0.801   1.287   7.141  0.1289 -0.1340 -0.6278
 2197TIP3    H128226   0.812   1.192   7.144 -2.3062 -0.4715  0.9640
 2197TIP3    H228227   0.846   1.319   7.219  1.4971  0.1544 -1.4951
 2198TIP3   OH228228   4.734   0.994   1.009 -0.7766 -0.1043 -0.3073
 2198TIP3    H128229   4.820   1.036   1.020 -1.0052  0.8259 -1.8443
 2198TIP3    H228230   4.701   0.984   1.098  0.4699  0.4997  0.2528
 2199TIP3   OH228231   5.388   2.020   0.429  0.5657  0.2958 -0.0370
 2199TIP3    H128232   5.384   2.010   0.524 -0.1825  1.4288  0.0615
 2199TIP3    H228233   5.306   1.981   0.397  0.7644  0.0154 -0.2066
 2200TIP3   OH228234   5.141   6.365   7.214 -0.2050 -0.3054  0.6488
 2200TIP3    H128235   5.144   6.269   7.205 -1.2513 -0.2019 -1.2587
 2200TIP3    H228236   5.230   6.393   7.193 -0.0125 -0.8345  0.7417
 2201TIP3   OH228237   1.088   6.406   0.282 -0.3152  0.4104 -0.2437
 2201TIP3    H128238   1.117   6.386   0.193 -1.5479 -1.5056 -0.2618
 2201TIP3    H228239   1.005   6.453   0.271 -0.8744 -0.5285 -0.1189
 2202TIP3   OH228240   4.853   4.623   2.290 -0.0116  0.3264  0.2866
 2202TIP3    H128241   4.925   4.564   2.315  0.6748  0.6189 -0.9486
 2202TIP3    H228242   4.880   4.660   2.206 -2.1420 -0.4791 -0.8403
 2203TIP3   OH228243   5.259   1.781   6.934  0.2829  0.1362  0.1885
 2203TIP3    H128244   5.351   1.767   6.916  0.1019 -1.3535  0.2593
 2203TIP3    H228245   5.229   1.841   6.866  0.6396 -1.7421 -1.7441
 2204TIP3   OH228246   3.418   6.562   1.249  0.5528 -0.1919  0.1553
 2204TIP3    H128247   3.424   6.489   1.188 -2.0539 -0.5895  0.2305
 2204TIP3    H228248   3.432   6.522   1.335  1.3774 -0.1645  0.0388
 2205TIP3   OH228249   3.855   1.641   7.590  0.2922 -0.6107 -0.1081
 2205TIP3    H128250   3.811   1.645   7.675 -0.1492 -0.2132 -0.3508
 2205TIP3    H228251   3.947   1.661   7.609  0.2853 -0.9832  0.3347
 2206TIP3   OH228252   4.668   0.563   0.687 -0.3406 -0.4073  0.3884
 2206TIP3    H128253   4.677   0.635   0.750 -1.0904 -0.0806  0.1346
 2206TIP3    H228254   4.589   0.585   0.638 -0.4029 -1.2588  0.1081
 2207TIP3   OH228255   0.742   4.286   1.986 -0.0903 -0.0539 -0.2005
 2207TIP3    H128256   0.665   4.267   2.041 -0.1600  0.6477 -0.0451
 2207TIP3    H228257   0.758   4.205   1.938  1.5714 -1.6457  2.7674
 2208TIP3   OH228258   4.890   2.203   2.396  0.4649  0.0678  0.3022
 2208TIP3    H128259   4.866   2.231   2.484  1.8656  0.2845  0.6403
 2208TIP3    H228260   4.850   2.268   2.338  1.9375  1.6383  0.9594
 2209TIP3   OH228261   2.317   4.236   2.044  0.0652  0.4497  0.0202
 2209TIP3    H128262   2.316   4.248   2.139  0.8011  0.0564  0.0866
 2209TIP3    H228263   2.240   4.182   2.025  0.7131 -0.7111  0.5777
 2210TIP3   OH228264   2.163   6.153   6.979  0.1876  0.3682  0.6061
 2210TIP3    H128265   2.133   6.187   6.895  0.0863  0.5339  0.7072
 2210TIP3    H228266   2.116   6.071   6.990  1.4516 -0.4943 -0.2694
 2211TIP3   OH228267   5.914   1.295   2.971  0.0783 -0.3080  0.3150
 2211TIP3    H128268   5.957   1.337   2.896  0.9714  0.3511  1.1666
 2211TIP3    H228269   5.910   1.364   3.038 -0.4612 -0.9585  0.9691
 2212TIP3   OH228270   0.441   1.326   7.702  0.3244 -0.1689 -0.2750
 2212TIP3    H128271   0.492   1.293   7.775 -0.0428  0.4144  0.2621
 2212TIP3    H228272   0.358   1.279   7.707  0.6529 -0.8306 -0.9090
 2213TIP3   OH228273   0.105   3.952   1.479  0.0995  0.4695 -0.2926
 2213TIP3    H128274   0.150   3.994   1.553  1.0935 -0.0428 -0.5929
 2213TIP3    H228275   0.157   3.874   1.460 -0.0858  0.6504 -1.6126
 2214TIP3   OH228276   3.261   4.660   8.224 -0.1177  0.1452 -0.2547
 2214TIP3    H128277   3.170   4.653   8.198 -0.5449 -0.9357  1.3978
 2214TIP3    H228278   3.265   4.620   8.310  2.0718 -0.5311 -0.5977
 2215TIP3   OH228279   4.894   1.052   2.507  0.2105  0.2916  0.8399
 2215TIP3    H128280   4.872   0.960   2.520 -1.2713  0.7182  1.5689
 2215TIP3    H228281   4.825   1.100   2.553  1.0457  1.7705  0.6213
 2216TIP3   OH228282   6.534   2.075   1.739 -0.3245  0.1102 -0.2353
 2216TIP3    H128283   6.543   2.037   1.651 -2.4658  1.0030 -0.9286
 2216TIP3    H228284   6.506   2.165   1.722  0.3012  0.6313  1.3778
 2217TIP3   OH228285   2.506   5.832   8.219  0.0577 -0.1886 -0.5203
 2217TIP3    H128286   2.465   5.903   8.171  0.0910 -0.8775 -1.6058
 2217TIP3    H228287   2.500   5.757   8.160 -1.9338 -1.6828  1.4098
 2218TIP3   OH228288   4.561   5.133   0.569  0.3773  0.2702 -0.0119
 2218TIP3    H128289   4.553   5.085   0.487 -3.6813  0.7835 -0.1570
 2218TIP3    H228290   4.534   5.222   0.547  0.2678  0.6913  1.6624
 2219TIP3   OH228291   0.052   6.101   7.756 -0.4041 -0.0160  0.1658
 2219TIP3    H128292   0.085   6.179   7.711  2.5470 -0.9476  0.4847
 2219TIP3    H228293  -0.037   6.124   7.782 -0.3104  2.5261 -1.3923
 2220TIP3   OH228294   3.322   4.226   0.598 -0.0883  0.2269  0.0018
 2220TIP3    H128295   3.353   4.316   0.589  0.5076 -0.0816 -1.2018
 2220TIP3    H228296   3.336   4.206   0.691  0.7753  1.0155  0.0645
 2221TIP3   OH228297   1.060   4.184   2.062  0.0260  0.1950 -0.4539
 2221TIP3    H128298   1.024   4.252   2.004 -1.2844  0.0939  0.1924
 2221TIP3    H228299   1.155   4.197   2.058 -0.1778  2.0825 -0.3525
 2222TIP3   OH228300   2.029   4.820   7.467 -0.1433 -0.3460  0.0219
 2222TIP3    H128301   2.074   4.774   7.396  1.0278 -0.4852  0.8368
 2222TIP3    H228302   2.097   4.871   7.510 -1.0283  0.4809  0.4727
 2223TIP3   OH228303   6.486   2.255   7.677  0.0556  0.1385  0.3237
 2223TIP3    H128304   6.423   2.233   7.609 -0.2651  0.5043  0.5012
 2223TIP3    H228305   6.568   2.271   7.629 -0.8911  3.6606 -0.3984
 2224TIP3   OH228306   2.702   3.009   7.673 -0.1262  0.5847  0.0155
 2224TIP3    H128307   2.631   3.038   7.616 -0.8605  0.0741  0.6428
 2224TIP3    H228308   2.766   3.080   7.671  0.0065  0.4465 -1.6673
 2225TIP3   OH228309   4.169   5.774   8.216  0.6454 -0.7647 -0.2962
 2225TIP3    H128310   4.143   5.706   8.279  0.5613 -1.1986 -0.7886
 2225TIP3    H228311   4.207   5.843   8.270 -0.0945 -0.7995  0.3028
 2226TIP3   OH228312   0.808   5.322   0.037 -0.2427 -0.1640 -0.0225
 2226TIP3    H128313   0.728   5.302   0.085 -0.3233 -1.5555 -0.7040
 2226TIP3    H228314   0.839   5.238   0.005  0.5374  0.5578 -1.2605
 2227TIP3   OH228315   1.223   5.277   8.482  0.3167 -0.7230  0.4637
 2227TIP3    H128316   1.313   5.276   8.450 -0.4443  1.1150 -2.0411
 2227TIP3    H228317   1.224   5.339   8.554  0.5645  1.8876 -1.6274
 2228TIP3   OH228318   1.461   2.745   1.635 -0.0088 -0.0853  0.3256
 2228TIP3    H128319   1.371   2.712   1.638 -0.3922  0.9369  0.6927
 2228TIP3    H228320   1.468   2.787   1.549 -1.0697  2.9080  1.5750
 2229TIP3   OH228321   4.104   6.795   2.582 -0.1473  0.3139  0.0508
 2229TIP3    H128322   4.028   6.833   2.539  0.6151  2.1346  0.2259
 2229TIP3    H228323   4.150   6.747   2.513 -0.3235  1.0043 -0.5558
 2230TIP3   OH228324   2.437   0.712   7.157  0.5161 -0.2282  0.1227
 2230TIP3    H128325   2.503   0.661   7.110  0.1302  0.8723 -1.7153
 2230TIP3    H228326   2.375   0.646   7.190  0.0834 -1.0351 -2.0977
 2231TIP3   OH228327   1.772   6.627   0.841 -0.2921  0.5094 -0.0050
 2231TIP3    H128328   1.822   6.641   0.921 -0.5478  1.1074  0.0567
 2231TIP3    H228329   1.681   6.644   0.866 -0.5504 -0.6126 -0.1025
 2232TIP3   OH228330   0.849   3.639   2.187  0.0281  0.6654  0.0021
 2232TIP3    H128331   0.889   3.723   2.209  1.3759  0.1922 -0.4664
 2232TIP3    H228332   0.888   3.616   2.102  0.5330 -0.9152  0.6177
 2233TIP3   OH228333   3.596   0.933   2.308 -0.1109 -0.4288 -0.3421
 2233TIP3    H128334   3.559   0.854   2.349 -1.0437  0.5399  0.7582
 2233TIP3    H228335   3.574   1.004   2.369 -1.1303  1.0134 -2.2775
 2234TIP3   OH228336   2.983   5.432   7.106  0.0482 -0.0869 -0.5491
 2234TIP3    H128337   2.971   5.337   7.111 -0.7565  0.0432  0.1815
 2234TIP3    H228338   3.050   5.452   7.170  0.9876 -0.2765 -1.4494
 2235TIP3   OH228339   6.759   5.922   2.593 -0.0253  0.2963 -0.1778
 2235TIP3    H128340   6.721   5.835   2.585 -1.2492  0.9216 -1.6010
 2235TIP3    H228341   6.699   5.969   2.652  0.9708  0.0147  1.0898
 2236TIP3   OH228342   6.554   4.055   2.896 -0.0583 -0.7325  0.3539
 2236TIP3    H128343   6.587   4.014   2.816  1.0338 -1.7433  1.2848
 2236TIP3    H228344   6.568   3.989   2.964 -1.3370 -0.0534  1.3211
 2237TIP3   OH228345   0.982   1.081   1.478  0.5920  0.3171  0.1288
 2237TIP3    H128346   0.973   1.130   1.395  0.2190  0.6551  0.3651
 2237TIP3    H228347   0.979   0.989   1.452 -1.3899  0.4007 -0.0559
 2238TIP3   OH228348   2.178   1.350   0.398  0.2384  0.2633 -0.3341
 2238TIP3    H128349   2.231   1.300   0.337 -0.8142  1.1288 -2.0247
 2238TIP3    H228350   2.195   1.310   0.483  0.7069 -1.8432 -1.3701
 2239TIP3   OH228351   4.803   1.251   2.805  0.2573  0.1473  0.0089
 2239TIP3    H128352   4.791   1.156   2.809  0.8886  0.0710  0.2652
 2239TIP3    H228353   4.745   1.280   2.735  0.8902 -0.5695 -0.8284
 2240TIP3   OH228354   3.378   5.630   7.233  0.1390 -0.5651  0.4529
 2240TIP3    H128355   3.423   5.669   7.159  0.0980  1.6765  1.5397
 2240TIP3    H228356   3.448   5.600   7.291  0.2125 -0.0867  0.6172
 2241TIP3   OH228357   2.107   0.800   2.413 -0.1814 -0.6985 -0.0856
 2241TIP3    H128358   2.200   0.787   2.396 -0.5127 -2.1483 -1.0027
 2241TIP3    H228359   2.080   0.721   2.461 -1.1050 -0.7179 -0.5997
 2242TIP3   OH228360   2.287   3.453   1.319  0.0416 -0.6063  0.1897
 2242TIP3    H128361   2.193   3.452   1.305 -0.2302  4.2924 -0.2272
 2242TIP3    H228362   2.322   3.489   1.237  2.2966 -1.8459  0.5283
 2243TIP3   OH228363   5.573   5.274   7.533 -0.2024 -0.0500  0.1844
 2243TIP3    H128364   5.594   5.353   7.482 -1.6686 -0.1883 -0.7075
 2243TIP3    H228365   5.481   5.257   7.513 -0.4523 -0.8939  1.8789
 2244TIP3   OH228366   4.105   6.778   0.987 -0.5372 -0.2181 -0.1577
 2244TIP3    H128367   4.077   6.864   1.018 -0.5464 -0.5265  0.7208
 2244TIP3    H228368   4.062   6.716   1.046  1.7353 -0.7216  1.1008
 2245TIP3   OH228369   0.561   6.712   8.245 -0.5640  0.2961 -0.5901
 2245TIP3    H128370   0.645   6.671   8.224 -1.6181 -1.3972 -1.8450
 2245TIP3    H228371   0.560   6.717   8.341  0.8417  0.0968 -0.5426
 2246TIP3   OH228372   3.336   5.565   2.527  0.5424  0.2670  0.3192
 2246TIP3    H128373   3.373   5.488   2.571 -2.5526 -1.4521  0.2103
 2246TIP3    H228374   3.293   5.614   2.597  1.8452  1.5578  0.2601
 2247TIP3   OH228375   1.203   2.650   0.334  0.1334 -0.2227 -0.0724
 2247TIP3    H128376   1.128   2.634   0.276 -0.4145  1.0540  0.2337
 2247TIP3    H228377   1.206   2.745   0.343  0.9137 -0.3296  1.0685
 2248TIP3   OH228378   0.500   5.117   0.208 -0.1954  0.4847 -0.4900
 2248TIP3    H128379   0.489   5.077   0.121 -1.8982  1.4115 -0.7579
 2248TIP3    H228380   0.565   5.062   0.252  0.2337 -0.3864 -2.1234
 2249TIP3   OH228381   4.714   4.391   1.902  0.0400 -0.3646  0.1707
 2249TIP3    H128382   4.802   4.396   1.866 -0.6301 -1.0097 -1.6889
 2249TIP3    H228383   4.707   4.301   1.935  0.3324 -0.0599  1.1039
 2250TIP3   OH228384   1.554   6.933   0.193 -0.0533 -0.9393 -0.9630
 2250TIP3    H128385   1.535   6.952   0.285  0.8732  0.8437 -1.1029
 2250TIP3    H228386   1.554   6.837   0.188  0.1763 -1.0788  0.9487
 2251TIP3   OH228387   1.791   0.751   0.072  0.3040 -0.1635 -0.0958
 2251TIP3    H128388   1.744   0.729   0.153 -1.4340  1.4647 -0.5912
 2251TIP3    H228389   1.796   0.669   0.024  0.7130 -1.0084  1.3079
 2252TIP3   OH228390   6.416   1.742   0.842  0.1621  0.4051  0.2022
 2252TIP3    H128391   6.452   1.820   0.885  0.3854  1.3384 -1.5613
 2252TIP3    H228392   6.339   1.775   0.795  0.7069 -0.2548 -1.2019
 2253TIP3   OH228393   0.868   0.393   7.950  0.2690 -0.0222  0.5710
 2253TIP3    H128394   0.876   0.473   8.002  1.4125  0.0165  0.3627
 2253TIP3    H228395   0.940   0.397   7.887  2.4323 -2.7062  2.6107
 2254TIP3   OH228396   6.160   5.092   0.563 -0.0461 -0.5003  0.2305
 2254TIP3    H128397   6.069   5.065   0.576 -0.2822 -0.6610 -1.5820
 2254TIP3    H228398   6.156   5.187   0.554  0.4393 -0.0185  3.5779
 2255TIP3   OH228399   6.692   1.552   1.457 -0.1794  0.1329  0.3625
 2255TIP3    H128400   6.629   1.580   1.523 -1.5883  0.3065 -0.9848
 2255TIP3    H228401   6.637   1.523   1.384  1.3198  0.2019 -0.8232
 2256TIP3   OH228402   4.077   2.098   2.005  0.1967  0.0342 -0.0235
 2256TIP3    H128403   3.982   2.103   2.012 -0.0041 -1.2919 -1.4769
 2256TIP3    H228404   4.095   2.012   1.968  1.9889  0.1737  0.4137
 2257TIP3   OH228405   6.319   0.303   7.739  0.7137 -0.4733  0.6641
 2257TIP3    H128406   6.287   0.233   7.682  0.1425  0.8561 -0.7225
 2257TIP3    H228407   6.377   0.259   7.801 -1.9180 -2.6510  1.7962
 2258TIP3   OH228408   6.766   3.672   2.378 -0.1552  0.3099  0.1680
 2258TIP3    H128409   6.776   3.607   2.448  1.0657  0.8091  0.4738
 2258TIP3    H228410   6.672   3.686   2.372 -0.3149 -0.1770  1.3002
 2259TIP3   OH228411   5.073   0.523   0.503  0.4541 -0.5944  0.1089
 2259TIP3    H128412   5.032   0.536   0.589  0.2163 -0.6330  0.0020
 2259TIP3    H228413   5.120   0.605   0.486  0.1183 -0.4112  0.0647
 2260TIP3   OH228414   0.667   1.078   1.372 -0.8467 -0.4048 -0.1526
 2260TIP3    H128415   0.707   1.078   1.285  3.9864  2.5684  1.6559
 2260TIP3    H228416   0.684   0.990   1.406  0.7336 -0.4231 -0.9088
 2261TIP3   OH228417   2.110   1.805   8.149  0.0461  0.2957 -0.0252
 2261TIP3    H128418   2.196   1.844   8.132 -1.2643  3.0346 -0.9128
 2261TIP3    H228419   2.048   1.863   8.105 -2.5074 -0.0023  2.8448
 2262TIP3   OH228420   5.834   1.229   1.546 -0.2712 -0.1889 -0.5677
 2262TIP3    H128421   5.878   1.168   1.487 -3.4406 -2.9375 -0.3613
 2262TIP3    H228422   5.805   1.175   1.619 -0.0186  2.3628  1.5550
 2263TIP3   OH228423   1.292   5.717   8.147 -0.3869  0.0876 -0.2245
 2263TIP3    H128424   1.319   5.662   8.220  0.1735 -0.2729 -0.6999
 2263TIP3    H228425   1.353   5.696   8.076 -0.5005  0.9222 -0.5863
 2264TIP3   OH228426   0.240   2.316   7.716 -0.1226 -0.3633 -0.1636
 2264TIP3    H128427   0.165   2.275   7.673 -0.0904 -0.8019  0.1939
 2264TIP3    H228428   0.212   2.327   7.806 -0.4439  1.1843 -0.4289
 2265TIP3   OH228429   6.156   2.154   7.768  0.4283 -0.9430  0.2240
 2265TIP3    H128430   6.171   2.173   7.675  0.5809  0.7742  0.5631
 2265TIP3    H228431   6.222   2.207   7.813 -0.8003 -0.3557  1.3741
 2266TIP3   OH228432   3.428   2.648   1.527 -0.2568  0.1536  0.2681
 2266TIP3    H128433   3.406   2.679   1.439 -2.2636 -1.2978  0.1735
 2266TIP3    H228434   3.346   2.659   1.576  1.1546  2.1392  2.3897
 2267TIP3   OH228435   3.998   3.177   0.732 -0.7102 -0.1679  0.1559
 2267TIP3    H128436   3.932   3.164   0.801 -0.0520  1.4571  1.1580
 2267TIP3    H228437   4.026   3.089   0.709 -1.0553 -0.7677  1.8823
 2268TIP3   OH228438   1.582   6.780   1.182 -0.6076 -0.3929 -0.1365
 2268TIP3    H128439   1.609   6.690   1.200 -1.6760 -1.0714 -1.6884
 2268TIP3    H228440   1.506   6.795   1.238  0.5525  0.1492  1.3396
 2269TIP3   OH228441   0.615   0.866   8.220 -0.2785  0.4547 -0.3598
 2269TIP3    H128442   0.680   0.799   8.201  0.3952  0.0531  2.7368
 2269TIP3    H228443   0.541   0.845   8.164 -1.5491 -5.2056  2.6786
 2270TIP3   OH228444   1.861   4.085   0.040 -0.2048  0.1321 -0.0225
 2270TIP3    H128445   1.907   4.123  -0.035 -0.3360  2.9755  1.2188
 2270TIP3    H228446   1.928   4.036   0.087  0.2156 -0.4148 -1.1405
 2271TIP3   OH228447   4.691   4.675   1.310  0.5287  0.4334 -0.9273
 2271TIP3    H128448   4.713   4.586   1.284 -0.6956 -0.3907  0.6800
 2271TIP3    H228449   4.656   4.715   1.231  0.6648 -0.6463 -1.5554
 2272TIP3   OH228450   2.025   5.357   2.475  0.5040  0.2380  0.1653
 2272TIP3    H128451   2.047   5.368   2.567  0.0984  0.5822  0.2225
 2272TIP3    H228452   1.954   5.419   2.459 -1.5821 -1.9454  0.4120
 2273TIP3   OH228453   6.886   6.515   1.426  0.0750  0.0793  0.5653
 2273TIP3    H128454   6.894   6.471   1.510  1.0091  2.3923  1.7793
 2273TIP3    H228455   6.796   6.549   1.425  0.7585  2.0878  1.7884
 2274TIP3   OH228456   3.456   1.403   7.068 -0.2149 -0.0037  0.4080
 2274TIP3    H128457   3.467   1.346   6.992  2.9370 -0.7528  1.2691
 2274TIP3    H228458   3.439   1.490   7.031  0.1336 -0.5549 -1.1061
 2275TIP3   OH228459   0.320   6.085   8.185  0.2718 -0.5775  0.0211
 2275TIP3    H128460   0.304   6.046   8.099 -0.7498 -1.9032  0.7580
 2275TIP3    H228461   0.415   6.090   8.192  0.3686 -0.3642 -1.2154
 2276TIP3   OH228462   2.335   1.916   1.060 -0.3213 -0.7866 -0.3880
 2276TIP3    H128463   2.244   1.943   1.053 -0.3628 -1.3217 -2.8439
 2276TIP3    H228464   2.331   1.827   1.096 -0.8741 -1.1735 -1.3599
 2277TIP3   OH228465   1.342   0.638   1.456 -0.1580 -0.2038 -0.6241
 2277TIP3    H128466   1.391   0.560   1.429 -0.8108 -0.0067 -2.5259
 2277TIP3    H228467   1.287   0.659   1.380 -0.4189  1.7791  0.0641
 2278TIP3   OH228468   3.787   5.456   8.313 -0.4136  0.5479  0.2875
 2278TIP3    H128469   3.843   5.494   8.381  0.5827 -1.4820  0.7083
 2278TIP3    H228470   3.795   5.516   8.239  0.8736  1.2633  0.9645
 2279TIP3   OH228471   2.380   5.608   7.471 -0.7171 -0.0267 -0.0069
 2279TIP3    H128472   2.414   5.627   7.558 -0.0193  2.0429 -0.6972
 2279TIP3    H228473   2.457   5.585   7.419 -0.9950 -0.2088 -0.3413
 2280TIP3   OH228474   0.462   0.248   1.122 -0.0176  0.5692 -0.3181
 2280TIP3    H128475   0.507   0.202   1.051 -1.1079  0.5252 -0.9968
 2280TIP3    H228476   0.406   0.181   1.163  2.2062 -0.0117  2.0781
 2281TIP3   OH228477   1.939   1.480   0.061 -0.5384  0.2384 -0.3854
 2281TIP3    H128478   1.946   1.410  -0.004 -1.0101  0.6070 -0.8439
 2281TIP3    H228479   1.977   1.557   0.017  0.9009  0.0530  0.4723
 2282TIP3   OH228480   5.751   6.572   7.631  0.0403 -0.3481  0.0785
 2282TIP3    H128481   5.797   6.575   7.715  0.6688 -0.8574 -0.2431
 2282TIP3    H228482   5.775   6.487   7.594  1.3330  0.6757 -1.5117
 2283TIP3   OH228483   5.049   2.199   7.517  0.2434 -0.6269 -0.1330
 2283TIP3    H128484   5.051   2.273   7.456  1.5005  0.3322  1.0257
 2283TIP3    H228485   4.966   2.209   7.564  0.6653  0.3922  0.4134
 2284TIP3   OH228486   0.722   3.633   0.014  0.1466 -0.2904  0.0082
 2284TIP3    H128487   0.785   3.613   0.083 -1.1182 -0.1806  1.2614
 2284TIP3    H228488   0.761   3.599  -0.066  1.4324 -0.8867  0.8575
 2285TIP3   OH228489   2.479   2.018   6.438  0.0698  0.2108  0.0163
 2285TIP3    H128490   2.447   2.096   6.392 -1.5568  0.3381  1.2871
 2285TIP3    H228491   2.401   1.979   6.477  0.9999 -1.5092  0.2554
 2286TIP3   OH228492   0.610   0.495   2.234  0.2688  0.1730 -0.6314
 2286TIP3    H128493   0.577   0.406   2.218 -0.7490  0.4112  0.0802
 2286TIP3    H228494   0.649   0.521   2.150 -1.7151  0.0255 -1.6640
 2287TIP3   OH228495   1.817   3.149   0.706  0.6346  0.2382  0.5850
 2287TIP3    H128496   1.850   3.217   0.647 -0.3784 -0.4257 -0.8180
 2287TIP3    H228497   1.892   3.125   0.760  2.0454 -0.0898 -1.4039
 2288TIP3   OH228498   1.560   4.805   1.034 -0.1136 -0.1082 -0.5447
 2288TIP3    H128499   1.585   4.783   1.124 -0.8812 -1.1347 -0.5654
 2288TIP3    H228500   1.592   4.732   0.982 -1.3465 -0.4759 -0.8307
 2289TIP3   OH228501   5.867   2.646   1.368  0.2809 -0.1913  0.1252
 2289TIP3    H128502   5.878   2.741   1.379  0.9089 -0.0707 -1.3227
 2289TIP3    H228503   5.873   2.611   1.457  2.0848  0.9367  0.5009
 2290TIP3   OH228504   5.797   3.631   1.983 -0.5129 -0.1768  0.1243
 2290TIP3    H128505   5.765   3.696   2.045 -0.1179  1.1061 -0.9744
 2290TIP3    H228506   5.864   3.676   1.932  0.0474 -1.5622 -0.4323
 2291TIP3   OH228507   2.231   0.984   7.200  0.3847 -0.0912 -0.8115
 2291TIP3    H128508   2.270   1.068   7.175 -0.0545 -0.1708 -1.8162
 2291TIP3    H228509   2.270   0.920   7.141  2.2014 -0.9794  1.2124
 2292TIP3   OH228510   6.655   5.117   8.345  0.5901  0.1599 -0.8002
 2292TIP3    H128511   6.682   5.198   8.388 -0.4044  0.5300 -0.8383
 2292TIP3    H228512   6.560   5.124   8.338  0.5163 -0.8925 -1.0557
 2293TIP3   OH228513   4.894   1.914   0.465  0.4722 -0.2035 -0.4198
 2293TIP3    H128514   4.855   1.896   0.550 -1.5732  1.1798 -1.0051
 2293TIP3    H228515   4.854   1.851   0.405 -3.5412  3.0468 -1.6336
 2294TIP3   OH228516   4.801   6.708   6.821  0.3968 -0.1882  0.5659
 2294TIP3    H128517   4.773   6.789   6.780  0.8326 -0.8510 -1.1500
 2294TIP3    H228518   4.895   6.701   6.800 -0.3924 -3.0861 -3.0812
 2295TIP3   OH228519   1.430   4.269   0.885  0.2100 -0.1935 -0.1407
 2295TIP3    H128520   1.457   4.190   0.839  0.1438  0.0416 -0.5812
 2295TIP3    H228521   1.499   4.283   0.950 -0.2157 -1.1063  0.5505
 2296TIP3   OH228522   4.175   6.112   0.429 -0.9570 -0.4560 -0.2314
 2296TIP3    H128523   4.124   6.084   0.353  2.3456 -0.3887 -2.6978
 2296TIP3    H228524   4.218   6.193   0.401 -0.2675  0.0382  2.0456
 2297TIP3   OH228525   1.659   2.595   1.911 -0.1280 -0.3846 -0.2973
 2297TIP3    H128526   1.688   2.570   1.823 -0.1200 -1.4253 -0.0165
 2297TIP3    H228527   1.713   2.543   1.970  1.2169  1.6973  0.4295
 2298TIP3   OH228528   3.976   5.254   2.268  0.1813 -0.1731 -0.3005
 2298TIP3    H128529   3.895   5.275   2.313  0.9856 -0.8442  1.5608
 2298TIP3    H228530   4.023   5.338   2.263  0.6187 -0.3003  1.2839
 2299TIP3   OH228531   2.240   1.055   7.594  0.1339 -0.4720 -0.3447
 2299TIP3    H128532   2.259   0.970   7.555  0.5578 -0.5128 -0.0522
 2299TIP3    H228533   2.310   1.112   7.564 -0.4607 -0.0729 -1.0053
 2300TIP3   OH228534   5.169   1.140   7.627 -0.1787 -0.1234  0.0531
 2300TIP3    H128535   5.115   1.216   7.649  2.5364  1.5759  1.2741
 2300TIP3    H228536   5.155   1.128   7.533 -0.3411  2.1945 -0.2874
 2301TIP3   OH228537   2.979   5.694   8.354  0.6598 -0.6174 -0.2141
 2301TIP3    H128538   3.014   5.642   8.426 -0.1827  0.7501  1.2489
 2301TIP3    H228539   3.052   5.750   8.328  0.0580  1.3812  2.0255
 2302TIP3   OH228540   4.807   6.055   7.372  0.7403 -0.6792 -0.0374
 2302TIP3    H128541   4.716   6.076   7.394  0.9215 -1.0610  1.1302
 2302TIP3    H228542   4.859   6.101   7.438  1.4707  0.2952 -1.2242
 2303TIP3   OH228543   5.474   0.298   6.995 -0.3879 -0.0165 -0.3446
 2303TIP3    H128544   5.528   0.335   6.925 -1.4896  1.4307 -0.4895
 2303TIP3    H228545   5.504   0.207   7.003  0.6332  0.1469 -1.8091
 2304TIP3   OH228546   0.944   2.473   0.696  0.4991 -0.0418  0.2910
 2304TIP3    H128547   0.899   2.500   0.616  1.0160 -1.9168 -0.6907
 2304TIP3    H228548   0.875   2.437   0.751  0.5163 -1.5289 -0.5976
 2305TIP3   OH228549   5.546   2.265   0.598 -0.0003  0.3822  0.7335
 2305TIP3    H128550   5.591   2.347   0.579 -0.3113  0.3796 -0.0536
 2305TIP3    H228551   5.605   2.197   0.567 -0.7024  0.3911 -0.7450
 2306TIP3   OH228552   0.625   0.640   0.733 -0.5627 -0.3854 -0.7011
 2306TIP3    H128553   0.692   0.708   0.738 -0.0907 -0.8770 -0.1802
 2306TIP3    H228554   0.543   0.686   0.749 -0.1558 -0.0844  0.7051
 2307TIP3   OH228555   0.316   4.903   1.638 -0.3249  0.4892  0.1575
 2307TIP3    H128556   0.336   4.936   1.551 -0.2826 -2.6017 -1.1043
 2307TIP3    H228557   0.250   4.836   1.624  0.2423 -0.6491  2.4304
 2308TIP3   OH228558   5.317   3.380   7.788 -0.1222  0.0736  0.4247
 2308TIP3    H128559   5.395   3.433   7.767  0.1691 -0.3228  0.5019
 2308TIP3    H228560   5.337   3.293   7.754 -1.1293  0.3104 -0.8479
 2309TIP3   OH228561   6.801   1.322   7.953 -0.1843  0.1357  0.4498
 2309TIP3    H128562   6.792   1.255   7.886  0.7597  1.1574 -0.7590
 2309TIP3    H228563   6.750   1.396   7.920  0.0414  0.5546  1.0175
 2310TIP3   OH228564   1.492   1.016   2.326 -0.0949 -0.0175 -0.0935
 2310TIP3    H128565   1.549   1.046   2.397 -0.7199 -0.5514  0.6614
 2310TIP3    H228566   1.504   0.921   2.324  3.2192  0.2349 -3.6210
 2311TIP3   OH228567   4.866   2.097   8.438 -0.3402  0.0659 -0.3803
 2311TIP3    H128568   4.879   2.049   8.519 -0.9852  0.6529  0.0833
 2311TIP3    H228569   4.821   2.036   8.380 -2.0990  0.4040  0.5610
 2312TIP3   OH228570   2.616   1.597   7.289 -0.7595  0.5306  0.3598
 2312TIP3    H128571   2.533   1.580   7.332 -0.5962  0.3154  0.5960
 2312TIP3    H228572   2.638   1.514   7.246 -1.2629  0.9459 -0.7356
 2313TIP3   OH228573   0.667   6.162   1.592  0.7995 -0.4384 -0.2071
 2313TIP3    H128574   0.598   6.224   1.568  1.1060  0.4802  1.1963
 2313TIP3    H228575   0.715   6.147   1.510 -0.8270 -0.8460 -1.1342
 2314TIP3   OH228576   2.047   1.426   1.907 -0.4513 -0.8268  0.3792
 2314TIP3    H128577   2.075   1.510   1.944 -2.2531 -0.2128  0.4347
 2314TIP3    H228578   2.121   1.399   1.853  0.1093  0.8937  0.2072
 2315TIP3   OH228579   4.122   6.698   7.309  0.7072 -0.3395  0.0325
 2315TIP3    H128580   4.107   6.785   7.346  2.5199 -0.0544  0.1718
 2315TIP3    H228581   4.163   6.715   7.224  1.6123 -1.0581  0.3140
 2316TIP3   OH228582   3.124   4.717   6.469  0.5110 -0.0642 -0.0955
 2316TIP3    H128583   3.094   4.762   6.548 -0.0129  3.2962 -2.0150
 2316TIP3    H228584   3.220   4.717   6.476  0.5379  1.6472 -0.1288
 2317TIP3   OH228585   3.630   2.841   1.585 -0.2185 -0.2738 -0.0304
 2317TIP3    H128586   3.695   2.841   1.655 -2.0900  1.3428  1.8457
 2317TIP3    H228587   3.572   2.768   1.606 -0.5800 -0.0006 -0.0588
 2318TIP3   OH228588   2.613   3.917   0.304  0.5046  0.1359 -0.0510
 2318TIP3    H128589   2.574   3.852   0.245  0.8114 -0.1874  0.1064
 2318TIP3    H228590   2.554   3.993   0.296  1.2291  0.5799 -1.7571
 2319TIP3   OH228591   3.417   3.485   8.253  0.2760 -0.0326  0.0522
 2319TIP3    H128592   3.344   3.474   8.191  0.0327 -0.7909  0.4694
 2319TIP3    H228593   3.434   3.579   8.253 -1.7652  0.3895  1.1390
 2320TIP3   OH228594   4.373   4.137   2.056 -0.4956  0.0682 -0.2158
 2320TIP3    H128595   4.365   4.046   2.086 -1.0363 -0.1937 -1.1045
 2320TIP3    H228596   4.325   4.188   2.122 -1.0155 -0.4065 -0.2156
 2321TIP3   OH228597   0.741   0.026   2.401 -0.0731 -0.1581  0.0584
 2321TIP3    H128598   0.765  -0.059   2.364 -0.3071 -0.5333  0.7519
 2321TIP3    H228599   0.682   0.005   2.474 -1.5620  0.6777 -0.8486
 2322TIP3   OH228600   4.314   6.364   0.386  0.5696  0.3269  0.5216
 2322TIP3    H128601   4.372   6.429   0.347  0.9183 -0.8121 -1.0063
 2322TIP3    H228602   4.372   6.310   0.441 -0.1363  2.6913  3.8237
 2323TIP3   OH228603   6.827   5.019   1.503  0.1659 -0.2947 -0.1362
 2323TIP3    H128604   6.882   5.074   1.449 -0.4472  0.6755  0.2039
 2323TIP3    H228605   6.856   4.929   1.484  4.3478  0.2221  2.6638
 2324TIP3   OH228606   6.406   2.188   7.327  0.0105  0.0456 -0.3659
 2324TIP3    H128607   6.500   2.177   7.315  0.0119  0.9083 -1.2265
 2324TIP3    H228608   6.369   2.102   7.304  0.5534 -0.2028 -0.3253
 2325TIP3   OH228609   4.817   6.280   0.111 -0.1314  0.8584  0.0447
 2325TIP3    H128610   4.759   6.220   0.064  0.7159 -0.8754  1.1044
 2325TIP3    H228611   4.884   6.224   0.149  1.6974  2.6816 -0.2980
 2326TIP3   OH228612   5.607   0.692   2.517 -0.2271 -0.0137  1.0847
 2326TIP3    H128613   5.669   0.681   2.444  0.8442 -0.6389  2.0565
 2326TIP3    H228614   5.561   0.773   2.496  2.8250  2.0448  1.6178
 2327TIP3   OH228615   1.692   2.134   7.354 -0.0094  0.3407  0.0976
 2327TIP3    H128616   1.603   2.138   7.321  0.6517  0.7233 -1.7405
 2327TIP3    H228617   1.701   2.213   7.409 -0.6281  0.5756 -0.1376
 2328TIP3   OH228618   3.478   6.229   0.068 -0.8684  0.7917 -0.3572
 2328TIP3    H128619   3.550   6.290   0.051 -1.2423  1.7145  1.2122
 2328TIP3    H228620   3.515   6.164   0.127 -1.5949  1.9629  1.4658
 2329TIP3   OH228621   3.872   4.761   1.782 -0.2383 -0.0545  0.1351
 2329TIP3    H128622   3.880   4.838   1.726  0.4467  0.0910  0.4183
 2329TIP3    H228623   3.868   4.796   1.871 -0.3564 -0.3248  0.2377
 2330TIP3   OH228624   0.774   1.157   8.056  0.6544 -0.1677 -0.4558
 2330TIP3    H128625   0.750   1.173   8.148 -1.1019 -1.8509 -0.5686
 2330TIP3    H228626   0.847   1.096   8.061  0.4293 -0.4184 -0.1838
 2331TIP3   OH228627   4.775   2.823   2.883 -0.5268  0.6263 -0.2125
 2331TIP3    H128628   4.844   2.852   2.943 -1.8424  1.6047  0.8996
 2331TIP3    H228629   4.720   2.765   2.935  0.1451 -1.2366 -1.4681
 2332TIP3   OH228630   2.694   3.897   7.076 -0.1392 -0.5661 -0.2257
 2332TIP3    H128631   2.649   3.864   6.998  3.1631 -3.4623 -1.1077
 2332TIP3    H228632   2.765   3.952   7.041 -1.1218  1.6476  1.0248
 2333TIP3   OH228633   0.423   1.915   8.200  0.1903  0.7368 -0.1869
 2333TIP3    H128634   0.505   1.917   8.250  1.0176  0.0249 -1.4720
 2333TIP3    H228635   0.440   1.972   8.124 -0.2012 -0.0663 -0.8908
 2334TIP3   OH228636   1.414   1.402   0.268  0.1537 -0.3537 -0.2199
 2334TIP3    H128637   1.385   1.337   0.333  1.1441 -1.7701 -1.1615
 2334TIP3    H228638   1.482   1.452   0.314 -0.8132  0.2525  0.6067
 2335TIP3   OH228639   1.719   4.722   8.242 -0.2396 -0.4148 -0.3874
 2335TIP3    H128640   1.716   4.633   8.277 -0.4794  0.6339  2.5001
 2335TIP3    H228641   1.638   4.762   8.273  0.1656  1.0164 -1.1049
 2336TIP3   OH228642   0.898   3.318   2.573  0.0883 -0.1418  0.2632
 2336TIP3    H128643   0.824   3.348   2.626 -2.1812 -3.8464 -0.4163
 2336TIP3    H228644   0.928   3.239   2.618  3.6724  1.1440  0.3932
 2337TIP3   OH228645   6.415   6.135   7.163 -0.7920 -0.0822 -0.1245
 2337TIP3    H128646   6.378   6.047   7.160  0.1488 -0.4826 -0.2959
 2337TIP3    H228647   6.344   6.192   7.133 -1.0397 -0.9149 -1.1642
 2338TIP3   OH228648   2.155   3.299   7.879  0.4373 -0.3997 -0.3227
 2338TIP3    H128649   2.138   3.387   7.844 -0.0205 -0.0321  0.7791
 2338TIP3    H228650   2.099   3.241   7.827 -0.2869  0.1399 -0.1559
 2339TIP3   OH228651   4.303   1.569   8.036  0.5319 -0.8492 -0.1955
 2339TIP3    H128652   4.360   1.500   8.068  1.3255  1.1422  3.1594
 2339TIP3    H228653   4.214   1.536   8.050  0.8950 -1.2961  1.1030
 2340TIP3   OH228654   2.880   4.324   7.242 -0.4595  0.1411 -0.1950
 2340TIP3    H128655   2.911   4.258   7.179 -1.3931 -0.5380  0.0325
 2340TIP3    H228656   2.813   4.372   7.194  1.0879  1.8225 -0.7957
 2341TIP3   OH228657   5.890   3.306   1.871  0.2427 -0.2193  0.5903
 2341TIP3    H128658   5.880   3.274   1.961  0.2962  1.1787  1.1217
 2341TIP3    H228659   5.960   3.252   1.834  2.7701  1.4527  2.5693
 2342TIP3   OH228660   0.057   4.693   0.626  0.4650 -0.4818 -0.2028
 2342TIP3    H128661   0.138   4.687   0.677  0.0328 -1.9570  0.3867
 2342TIP3    H228662   0.007   4.616   0.653 -2.4415  1.8531  1.6615
 2343TIP3   OH228663   6.373   1.430   8.060  0.0910  0.0087  0.3730
 2343TIP3    H128664   6.278   1.428   8.068  0.0795 -0.5991  0.2086
 2343TIP3    H228665   6.395   1.348   8.015  0.4509  1.4024 -2.2139
 2344TIP3   OH228666   3.092   5.527   2.170 -0.0502 -0.4923 -0.9852
 2344TIP3    H128667   3.036   5.454   2.194 -0.2550  0.0205  0.1603
 2344TIP3    H228668   3.139   5.549   2.251 -0.0448  0.6785 -1.2854
 2345TIP3   OH228669   2.781   0.704   2.603 -0.1372  0.2086  0.1230
 2345TIP3    H128670   2.809   0.711   2.694 -1.1920  0.1112  0.4771
 2345TIP3    H228671   2.688   0.683   2.609  0.4379 -3.1094 -0.9487
 2346TIP3   OH228672   2.282   0.051   0.951  0.0980 -0.2060 -0.0123
 2346TIP3    H128673   2.289   0.030   1.044 -0.8499  2.8704  0.8949
 2346TIP3    H228674   2.224  -0.016   0.915 -0.3753 -0.8580  1.8583
 2347TIP3   OH228675   6.069   2.750   2.404  0.1906  0.9803 -0.1377
 2347TIP3    H128676   6.103   2.712   2.484  1.9960  2.5449 -0.0885
 2347TIP3    H228677   6.100   2.692   2.334  0.1282  0.5816  0.1669
 2348TIP3   OH228678   2.804   0.393   7.505  0.4634  0.0386  0.1346
 2348TIP3    H128679   2.771   0.306   7.487  1.5823 -0.5588  0.8429
 2348TIP3    H228680   2.727   0.450   7.497 -0.4935 -1.1319  0.6422
 2349TIP3   OH228681   6.081   5.360   6.686  0.2923  0.1003  0.5329
 2349TIP3    H128682   6.122   5.274   6.692 -1.4090 -1.3004 -3.9311
 2349TIP3    H228683   5.995   5.349   6.725 -0.4607 -0.7400 -1.2801
 2350TIP3   OH228684   4.136   0.193   0.050  0.4178 -0.1625  0.7130
 2350TIP3    H128685   4.218   0.232   0.020 -0.3594  0.3471 -0.8666
 2350TIP3    H228686   4.119   0.122  -0.012 -0.8649  0.4247  0.3630
 2351TIP3   OH228687   5.021   5.000   8.525  0.6902  0.3479 -0.4030
 2351TIP3    H128688   5.103   5.019   8.479 -0.0246  1.8924 -1.0710
 2351TIP3    H228689   5.031   5.043   8.610 -0.0271  1.9266 -1.0782
 2352TIP3   OH228690   0.597   2.074   6.968 -0.0052 -0.3935 -0.3287
 2352TIP3    H128691   0.671   2.075   6.907  1.4921 -1.9855  1.3261
 2352TIP3    H228692   0.562   1.985   6.961  0.1155 -0.5612  1.0299
 2353TIP3   OH228693   6.060   3.715   0.319 -0.4378 -0.6005  0.4556
 2353TIP3    H128694   6.114   3.691   0.395 -0.6805  0.8425  1.1289
 2353TIP3    H228695   5.972   3.685   0.342 -0.3607 -0.8594  0.4083
 2354TIP3   OH228696   1.382   1.221   0.456  0.1970 -0.2079  0.1313
 2354TIP3    H128697   1.377   1.271   0.537  1.0098  1.8941 -1.0418
 2354TIP3    H228698   1.382   1.130   0.484 -0.6461  0.4319  2.4130
 2355TIP3   OH228699   1.493   6.768   8.244 -0.8210  0.1262 -0.3726
 2355TIP3    H128700   1.459   6.770   8.154  1.5703  0.2653 -1.3579
 2355TIP3    H228701   1.454   6.691   8.283 -0.4783 -1.0334 -2.1904
 2356TIP3   OH228702   2.226   2.853   6.971  0.5384  0.5155 -0.2493
 2356TIP3    H128703   2.247   2.933   7.019  1.9748  0.1656 -0.2537
 2356TIP3    H228704   2.309   2.825   6.932 -0.1925 -0.2863 -1.3179
 2357TIP3   OH228705   6.786   5.072   1.773 -0.3497  0.9649  0.0140
 2357TIP3    H128706   6.781   5.032   1.686 -1.2609 -0.0783  0.5071
 2357TIP3    H228707   6.823   5.003   1.828 -1.8680  0.7857  0.8749
 2358TIP3   OH228708   4.222   1.163   2.263 -0.1756  0.2644 -0.3931
 2358TIP3    H128709   4.248   1.247   2.300  0.6804 -0.9267  1.8938
 2358TIP3    H228710   4.131   1.152   2.292 -0.1367  0.1829 -0.3049
 2359TIP3   OH228711   4.221   6.524   1.181  0.3395  0.6247 -0.1948
 2359TIP3    H128712   4.252   6.614   1.186  1.0127  0.4648 -1.1050
 2359TIP3    H228713   4.130   6.527   1.211  0.3353  1.6108 -0.2969
 2360TIP3   OH228714   4.420   3.479   2.459 -0.1643  0.3595 -0.0824
 2360TIP3    H128715   4.333   3.460   2.494  0.4847 -0.6903  1.0835
 2360TIP3    H228716   4.478   3.472   2.536  1.1902 -0.9927 -1.1555
 2361TIP3   OH228717   0.441   6.159   0.977  0.1872 -0.1047  0.5978
 2361TIP3    H128718   0.416   6.113   0.897  0.1216 -0.2594  0.7047
 2361TIP3    H228719   0.402   6.246   0.969 -1.2178 -0.6515  1.1839
 2362TIP3   OH228720   4.773   1.394   2.079  0.1374 -0.4142  0.2043
 2362TIP3    H128721   4.710   1.421   2.145 -0.2193 -0.1419 -0.2432
 2362TIP3    H228722   4.856   1.429   2.109 -0.6446  3.4794 -1.5822
 2363TIP3   OH228723   0.570   5.481   0.652  0.1071  0.0959 -0.0577
 2363TIP3    H128724   0.626   5.424   0.600  1.7312  1.2970  0.3101
 2363TIP3    H228725   0.560   5.435   0.735 -2.2548 -1.6890 -1.2049
 2364TIP3   OH228726   1.790   3.820   8.088 -0.6033 -0.4357  0.2426
 2364TIP3    H128727   1.806   3.820   8.182 -1.6997 -1.1657  0.4505
 2364TIP3    H228728   1.798   3.912   8.062  0.3352 -0.3157  0.9246
 2365TIP3   OH228729   0.532   5.939   7.638 -0.3701 -0.1157  1.0952
 2365TIP3    H128730   0.538   5.851   7.676 -0.9390 -0.1184  1.1926
 2365TIP3    H228731   0.449   5.938   7.590  0.4622 -0.2077 -0.3992
 2366TIP3   OH228732   0.485   1.311   0.469 -0.7439  0.1679 -0.5990
 2366TIP3    H128733   0.534   1.293   0.549 -0.6231  0.2905 -0.6449
 2366TIP3    H228734   0.416   1.244   0.467 -2.8077  2.0859  1.2655
 2367TIP3   OH228735   3.184   0.327   2.863 -0.1140 -0.2126 -0.0080
 2367TIP3    H128736   3.274   0.357   2.859 -0.2221  0.0564 -0.4572
 2367TIP3    H228737   3.133   0.405   2.886 -0.2745 -0.2725 -0.1510
 2368TIP3   OH228738   2.008   0.120   1.359 -0.0160  0.2914  0.4255
 2368TIP3    H128739   1.932   0.104   1.302 -0.8573  0.3095  1.5125
 2368TIP3    H228740   2.029   0.212   1.345  0.4573  0.0354 -0.6376
 2369TIP3   OH228741   1.225   6.526   2.156  0.6346 -0.5001 -0.4216
 2369TIP3    H128742   1.317   6.529   2.129  0.1555  1.5001 -2.0690
 2369TIP3    H228743   1.228   6.517   2.251  2.5508  0.2934 -0.3723
 2370TIP3   OH228744   4.993   0.822   0.818 -0.3032 -0.9709 -0.1480
 2370TIP3    H128745   5.053   0.750   0.801 -0.6084 -1.3047  0.1745
 2370TIP3    H228746   5.002   0.839   0.912  1.9980  1.3987 -0.6617
 2371TIP3   OH228747   1.010   0.911   6.972 -0.3299  0.7344 -0.5400
 2371TIP3    H128748   0.939   0.919   7.036  0.7323  1.4583  0.6014
 2371TIP3    H228749   0.998   0.824   6.934 -2.0639  1.0088 -0.7008
 2372TIP3   OH228750   4.816   0.710   1.465  0.2176  0.5982  0.0490
 2372TIP3    H128751   4.808   0.622   1.500  0.5252  0.1836 -0.8846
 2372TIP3    H228752   4.775   0.706   1.379 -1.8562  1.9675  0.9074
 2373TIP3   OH228753   2.514   6.487   7.761 -0.0968  0.7206  0.3160
 2373TIP3    H128754   2.574   6.413   7.753 -0.0820  0.8089 -0.5294
 2373TIP3    H228755   2.487   6.506   7.671 -1.8109  0.3602  0.7137
 2374TIP3   OH228756   6.368   5.700   0.776  0.2207 -0.0011 -0.1755
 2374TIP3    H128757   6.413   5.616   0.766  0.0838 -0.0054 -0.7701
 2374TIP3    H228758   6.433   5.765   0.750  0.1287  0.0398 -0.3023
 2375TIP3   OH228759   5.442   1.027   0.796  0.2867 -0.7311  0.0330
 2375TIP3    H128760   5.409   1.060   0.712  1.8425  1.8942  0.3255
 2375TIP3    H228761   5.469   0.937   0.778  1.1173 -0.0621 -2.4938
 2376TIP3   OH228762   3.206   2.395   1.471 -0.5443  1.0091 -0.3379
 2376TIP3    H128763   3.194   2.382   1.377  0.1972  1.4255 -0.4948
 2376TIP3    H228764   3.186   2.488   1.486  0.9806  1.3694 -0.3762
 2377TIP3   OH228765   4.011   4.224   1.672 -0.2921 -0.1249  0.5691
 2377TIP3    H128766   4.069   4.149   1.686 -2.5824 -1.5848  3.1777
 2377TIP3    H228767   3.940   4.190   1.619 -1.0279  0.3742  1.2158
 2378TIP3   OH228768   0.113   6.188   0.629 -0.0893 -0.1760 -0.0729
 2378TIP3    H128769   0.134   6.279   0.610 -0.9866  0.1135  0.2327
 2378TIP3    H228770   0.116   6.143   0.545  0.4032  0.1241 -0.2152
 2379TIP3   OH228771   2.702   5.506   1.408 -0.0000 -0.1325 -0.0207
 2379TIP3    H128772   2.712   5.464   1.322  0.2292 -1.3835  0.5907
 2379TIP3    H228773   2.736   5.594   1.396  1.2843 -0.7143 -0.8803
 2380TIP3   OH228774   5.090   3.439   8.245 -0.3211 -0.1177  0.1206
 2380TIP3    H128775   5.033   3.418   8.170 -1.2764  0.1664  0.7518
 2380TIP3    H228776   5.179   3.438   8.208 -0.7955  0.3335 -1.0962
 2381TIP3   OH228777   0.801   1.616   0.245 -0.0129  0.1738 -0.3108
 2381TIP3    H128778   0.815   1.531   0.286 -1.7498 -0.6704 -1.3603
 2381TIP3    H228779   0.887   1.641   0.213  0.6188 -0.9756  0.4103
 2382TIP3   OH228780   3.442   4.033   7.307 -0.2521 -0.4569 -0.0172
 2382TIP3    H128781   3.385   3.979   7.363  0.0676 -1.0305 -0.2426
 2382TIP3    H228782   3.519   4.049   7.361 -0.0077 -0.8869 -0.2294
 2383TIP3   OH228783   1.721   5.041   1.154  0.0043 -0.1035  0.1149
 2383TIP3    H128784   1.690   4.986   1.083 -1.2356  0.8099 -0.0737
 2383TIP3    H228785   1.803   5.079   1.121 -0.4051  0.0799 -0.7176
 2384TIP3   OH228786   6.018   5.485   0.503  0.1253 -0.3735 -0.0214
 2384TIP3    H128787   6.079   5.497   0.430  1.1135 -0.6862  0.7396
 2384TIP3    H228788   5.983   5.572   0.520  2.0131  0.2380  0.9443
 2385TIP3   OH228789   3.109   6.330   2.086  0.0994 -0.4745 -0.2824
 2385TIP3    H128790   3.065   6.367   2.162  0.1543  2.4081 -1.5471
 2385TIP3    H228791   3.037   6.305   2.027  0.0288 -3.2719  0.8163
 2386TIP3   OH228792   1.010   0.243   7.155 -0.1865  0.5788  0.5227
 2386TIP3    H128793   0.987   0.274   7.242 -1.4131  0.4653  0.2556
 2386TIP3    H228794   0.943   0.178   7.133 -0.7420  1.6338 -1.0717
 2387TIP3   OH228795   3.385   1.086   7.009  0.2152  0.2796 -0.3997
 2387TIP3    H128796   3.303   1.085   6.960  0.1942 -2.6865 -0.5050
 2387TIP3    H228797   3.446   1.135   6.954 -1.0025  0.9889 -1.1604
 2388TIP3   OH228798   2.219   6.675   8.398 -0.3330 -0.7427 -0.5006
 2388TIP3    H128799   2.143   6.617   8.396 -1.4563  0.6782 -0.7033
 2388TIP3    H228800   2.213   6.725   8.317  0.5621 -0.2682 -0.2891
 2389TIP3   OH228801   0.087   5.592   7.724 -0.3447 -0.2711  0.5805
 2389TIP3    H128802   0.162   5.564   7.671 -1.6467 -1.8299 -0.5516
 2389TIP3    H228803   0.077   5.523   7.790 -0.9445 -0.2213  0.5449
 2390TIP3   OH228804   6.525   5.597   1.384 -0.1380  0.0193 -0.5054
 2390TIP3    H128805   6.534   5.679   1.335 -1.1060  1.3600  1.4222
 2390TIP3    H228806   6.614   5.580   1.417 -0.2132  1.2299  0.4180
 2391TIP3   OH228807   5.498   0.483   8.443  0.0597 -0.0713 -0.1903
 2391TIP3    H128808   5.428   0.467   8.380 -0.9507 -2.3064  1.3531
 2391TIP3    H228809   5.522   0.575   8.431 -3.1958  0.8113 -0.7173
 2392TIP3   OH228810   0.714   0.464   6.471 -0.3469  0.1517  0.2310
 2392TIP3    H128811   0.697   0.376   6.505 -1.3640 -0.4318 -1.6587
 2392TIP3    H228812   0.632   0.512   6.487 -0.5201  0.1286 -0.5251
 2393TIP3   OH228813   2.827   2.939   1.517 -0.3928 -0.2129 -0.5196
 2393TIP3    H128814   2.921   2.949   1.535 -0.4940  3.1015 -1.1331
 2393TIP3    H228815   2.784   2.985   1.590 -1.3596  1.0844 -1.8570
 2394TIP3   OH228816   1.041   0.426   0.089  0.1646 -0.3193  0.4879
 2394TIP3    H128817   1.108   0.362   0.066 -0.4856 -1.9715  2.8176
 2394TIP3    H228818   1.086   0.490   0.145  0.0520 -0.8095  1.1473
 2395TIP3   OH228819   0.112   3.353   1.608 -0.1985 -0.3513 -0.3630
 2395TIP3    H128820   0.200   3.386   1.624  0.1871 -0.7941 -1.4492
 2395TIP3    H228821   0.063   3.429   1.575 -0.8227  0.4018  2.1110
 2396TIP3   OH228822   3.944   5.801   7.751  0.1529 -0.3818 -1.0271
 2396TIP3    H128823   3.860   5.839   7.726  0.7717  0.6212 -1.6486
 2396TIP3    H228824   3.945   5.808   7.847  0.2880  1.3304 -1.1165
 2397TIP3   OH228825   3.934   0.545   2.046  0.3302 -0.4902 -0.0953
 2397TIP3    H128826   3.947   0.517   2.136 -0.5515 -0.2341  0.1275
 2397TIP3    H228827   4.015   0.590   2.022 -0.1389  1.1926  1.2618
 2398TIP3   OH228828   6.088   6.323   0.197  0.3855 -0.2165  0.4001
 2398TIP3    H128829   6.055   6.350   0.111 -1.3793 -1.6385  0.5803
 2398TIP3    H228830   6.059   6.232   0.206  0.2025  0.0169  2.6621
 2399TIP3   OH228831   0.875   3.354   2.220  0.6871 -0.3300 -0.1243
 2399TIP3    H128832   0.849   3.446   2.218  1.9572  0.0411 -0.6814
 2399TIP3    H228833   0.872   3.330   2.312 -1.3434 -0.2589 -0.1296
 2400TIP3   OH228834   1.003   4.046   8.000  0.4283 -0.6730  0.0876
 2400TIP3    H128835   0.980   4.111   7.935  0.4322 -0.6113  0.1474
 2400TIP3    H228836   1.043   3.974   7.950 -0.8797 -1.2607 -0.1527
 2401TIP3   OH228837   1.697   0.580   2.075 -1.0211 -0.5724  0.3748
 2401TIP3    H128838   1.749   0.610   2.149 -0.2787  1.1546 -0.7792
 2401TIP3    H228839   1.760   0.539   2.016 -0.7872  1.8286 -1.1852
 2402TIP3   OH228840   4.870   5.141   6.999 -0.1682  0.2350 -0.4434
 2402TIP3    H128841   4.859   5.170   7.090  1.1427  0.8368 -0.4667
 2402TIP3    H228842   4.961   5.159   6.979 -0.1877 -0.8276 -1.5704
 2403TIP3   OH228843   1.810   3.932   7.159 -0.1099 -0.6685 -0.0902
 2403TIP3    H128844   1.899   3.908   7.187 -0.0711 -1.6685 -1.0125
 2403TIP3    H228845   1.800   4.023   7.188  1.1374 -0.6038  0.2188
 2404TIP3   OH228846   6.950   3.457   0.606 -0.2643  0.4442  0.2021
 2404TIP3    H128847   6.856   3.469   0.619 -0.6053  0.5469 -1.9508
 2404TIP3    H228848   6.964   3.478   0.514  1.6415 -0.9899  0.1071
 2405TIP3   OH228849   3.890   2.700   1.582 -0.7094  0.6165  0.0555
 2405TIP3    H128850   3.846   2.621   1.614 -0.1042  1.2559  2.6678
 2405TIP3    H228851   3.969   2.667   1.538 -0.9635 -0.2785  0.2433
 2406TIP3   OH228852   5.385   6.568   7.911 -0.4854 -0.0912  0.1457
 2406TIP3    H128853   5.352   6.485   7.944 -1.3818  0.0617 -0.3027
 2406TIP3    H228854   5.382   6.559   7.816 -2.7818  1.2151  0.0155
 2407TIP3   OH228855   0.096   4.606   8.259  0.0127  0.3521  0.7055
 2407TIP3    H128856   0.141   4.630   8.179 -0.0148 -1.9801 -0.0686
 2407TIP3    H228857   0.166   4.587   8.322  0.1504 -1.4147  0.0735
 2408TIP3   OH228858   4.358   2.193   1.767 -0.1150  0.8560  0.0490
 2408TIP3    H128859   4.295   2.251   1.811 -0.9215  1.5314 -1.8605
 2408TIP3    H228860   4.441   2.240   1.772 -0.4944  1.5924 -0.3715
 2409TIP3   OH228861   6.806   2.116   0.759 -0.4105 -0.5877  0.0961
 2409TIP3    H128862   6.830   2.032   0.719 -1.8917 -0.5281 -1.0188
 2409TIP3    H228863   6.791   2.095   0.851  0.8810 -1.1900  0.1908
 2410TIP3   OH228864   5.780   4.311   7.464  0.1190 -0.3804  0.2543
 2410TIP3    H128865   5.792   4.406   7.470 -0.9507 -0.1492 -0.9254
 2410TIP3    H228866   5.737   4.288   7.546 -0.1366  0.2359  0.3012
 2411TIP3   OH228867   0.756   2.924   1.279  0.0929 -0.5484  0.3960
 2411TIP3    H128868   0.778   2.947   1.369  0.5807  1.6356 -0.2226
 2411TIP3    H228869   0.840   2.924   1.233  0.1089 -3.5820  0.2704
 2412TIP3   OH228870   5.995   0.045   7.552  0.2648  0.9128  0.5616
 2412TIP3    H128871   6.081   0.004   7.560 -0.7240 -1.3977  0.2213
 2412TIP3    H228872   6.008   0.135   7.579  2.8602  0.7099  0.1803
 2413TIP3   OH228873   1.630   2.763   8.450  0.6181 -0.1245  0.4191
 2413TIP3    H128874   1.696   2.817   8.493 -1.8740  2.3917  1.3212
 2413TIP3    H228875   1.548   2.783   8.495 -0.9419 -2.6766 -1.0191
 2414TIP3   OH228876   6.769   6.797   1.306  0.2672  0.5015  0.2934
 2414TIP3    H128877   6.840   6.858   1.327 -0.3682  1.4132 -0.1181
 2414TIP3    H228878   6.715   6.795   1.385  0.2466  0.5243  0.2799
 2415TIP3   OH228879   1.887   2.705   6.738 -0.1304  0.5664 -0.5278
 2415TIP3    H128880   1.825   2.777   6.747  0.8387  1.2398  1.3380
 2415TIP3    H228881   1.833   2.628   6.721 -1.3854  1.3111 -0.0131
 2416TIP3   OH228882   5.259   2.351   1.375  0.0920  0.3240 -0.6594
 2416TIP3    H128883   5.173   2.313   1.392  0.7527 -0.7809  0.4299
 2416TIP3    H228884   5.305   2.284   1.324  0.7881  0.2723  0.0240
 2417TIP3   OH228885   2.895   6.224   6.548  0.6752  0.8435  0.1200
 2417TIP3    H128886   2.991   6.221   6.539  0.5659 -0.5406 -0.8267
 2417TIP3    H228887   2.873   6.142   6.591 -0.1497  0.8834 -0.2184
 2418TIP3   OH228888   4.819   6.796   8.457  0.2508  0.0435  0.1602
 2418TIP3    H128889   4.852   6.827   8.372 -0.9806 -2.1490 -1.2289
 2418TIP3    H228890   4.834   6.701   8.454  1.4508  0.0504  3.0386
 2419TIP3   OH228891   3.021   0.798   8.044 -0.3162 -0.1850 -0.2330
 2419TIP3    H128892   2.945   0.741   8.035  1.4112 -2.3082 -2.7613
 2419TIP3    H228893   3.023   0.849   7.963 -0.2963  1.5790  0.8239
 2420TIP3   OH228894   3.274   3.380   1.690 -0.2603  0.1475  0.1617
 2420TIP3    H128895   3.318   3.462   1.716  2.0015 -1.0558  0.4201
 2420TIP3    H228896   3.343   3.329   1.648 -2.0121 -1.0257 -1.4529
 2421TIP3   OH228897   1.526   4.100   7.357 -0.2169  0.8063 -0.7037
 2421TIP3    H128898   1.613   4.133   7.377 -0.7133  2.0332 -0.4987
 2421TIP3    H228899   1.512   4.121   7.265  0.8532 -2.1146 -1.6665
 2422TIP3   OH228900   4.138   2.221   6.997 -0.5206  0.4376  0.4779
 2422TIP3    H128901   4.092   2.302   6.974 -0.9021  0.4171  1.1478
 2422TIP3    H228902   4.070   2.164   7.032 -0.0376  0.2951  1.2063
 2423TIP3   OH228903   0.115   0.684   0.131  0.0282 -0.2329  0.4167
 2423TIP3    H128904   0.132   0.770   0.093 -0.8393 -0.0916  0.3204
 2423TIP3    H228905   0.041   0.650   0.081  1.6677 -1.9529 -0.9464
 2424TIP3   OH228906   0.302   6.750   0.214 -0.3162 -0.1741 -0.1148
 2424TIP3    H128907   0.228   6.794   0.255 -2.6613 -3.1474 -0.8521
 2424TIP3    H228908   0.370   6.749   0.281 -2.3161 -0.6913  2.0274
 2425TIP3   OH228909   0.464   4.933   0.739 -0.6110 -0.2465 -0.1233
 2425TIP3    H128910   0.410   4.861   0.771 -1.6784  0.6257  0.0903
 2425TIP3    H228911   0.403   5.007   0.729  0.3403  0.4676 -0.8965
 2426TIP3   OH228912   2.088   2.346   2.169  0.0228 -0.2343 -0.3538
 2426TIP3    H128913   2.183   2.334   2.172  0.0118 -0.1511  0.6858
 2426TIP3    H228914   2.055   2.287   2.237 -0.6595 -0.1570 -0.6175
 2427TIP3   OH228915   0.066   6.632   0.495  0.1771 -0.1790 -0.0374
 2427TIP3    H128916   0.099   6.570   0.430 -0.0289 -0.4208  0.0900
 2427TIP3    H228917   0.099   6.717   0.465 -1.1503 -0.0756 -1.2922
 2428TIP3   OH228918   1.448   4.162   7.106 -0.5686 -0.1981  0.6255
 2428TIP3    H128919   1.417   4.108   7.033 -0.6446  2.7742 -1.7538
 2428TIP3    H228920   1.529   4.202   7.074  0.0552  0.3124  2.6749
 2429TIP3   OH228921   4.991   1.192   0.396  0.3476 -0.3691 -0.1589
 2429TIP3    H128922   5.012   1.174   0.488 -0.2824  1.4802  0.3824
 2429TIP3    H228923   4.896   1.187   0.391  0.3659 -0.2846 -0.6723
 2430TIP3   OH228924   1.677   6.022   0.911  0.7805 -0.3523 -0.1924
 2430TIP3    H128925   1.591   5.980   0.908  0.5713 -0.2227  1.9785
 2430TIP3    H228926   1.734   5.958   0.953  1.4863 -0.0273 -0.6338
 2431TIP3   OH228927   3.778   1.034   1.075  0.3633  0.6036  0.3094
 2431TIP3    H128928   3.696   1.074   1.103  0.3757  2.2846 -1.7959
 2431TIP3    H228929   3.755   0.983   0.997  1.2230  0.6130  0.0315
 2432TIP3   OH228930   6.854   4.573   7.668  0.2678 -0.8017 -0.5443
 2432TIP3    H128931   6.789   4.601   7.603  0.8779 -0.6230 -1.0834
 2432TIP3    H228932   6.899   4.499   7.627  0.7918 -0.5653 -0.4009
 2433TIP3   OH228933   2.657   5.238   7.896 -0.1967 -0.1487 -0.7269
 2433TIP3    H128934   2.596   5.165   7.884  0.6948 -0.7813 -1.5739
 2433TIP3    H228935   2.606   5.305   7.941 -1.0125 -1.3232  0.1475
 2434TIP3   OH228936   5.960   6.816   1.335 -0.6196  0.5390 -0.2107
 2434TIP3    H128937   5.973   6.731   1.377  1.2266  0.2442 -1.2773
 2434TIP3    H228938   5.940   6.795   1.244  0.5407  1.2444 -0.6443
 2435TIP3   OH228939   0.729   2.930   2.252 -0.5139 -0.1747 -0.1205
 2435TIP3    H128940   0.696   2.876   2.324 -1.4392  0.2202 -0.2278
 2435TIP3    H228941   0.801   2.880   2.215  0.5339 -0.0141  1.6055
 2436TIP3   OH228942   6.719   3.936   1.888 -0.4752 -0.3700 -0.0196
 2436TIP3    H128943   6.718   3.991   1.966 -0.1272 -0.1723 -0.1513
 2436TIP3    H228944   6.797   3.880   1.898  0.4625  0.7101 -0.9326
 2437TIP3   OH228945   3.563   2.292   6.944  0.8634 -0.0282 -0.1377
 2437TIP3    H128946   3.608   2.331   7.019 -1.4519  1.2874  0.6645
 2437TIP3    H228947   3.520   2.366   6.901 -0.1022 -1.1346 -1.1340
 2438TIP3   OH228948   5.606   3.496   7.328 -0.0696 -0.1686  0.2731
 2438TIP3    H128949   5.615   3.585   7.295  0.7239  0.0520  1.0360
 2438TIP3    H228950   5.531   3.460   7.281  1.7000 -0.3272 -2.7107
 2439TIP3   OH228951   5.728   2.202   6.901 -0.3523  0.0129  0.4213
 2439TIP3    H128952   5.709   2.109   6.917 -0.4682 -0.0884 -0.2905
 2439TIP3    H228953   5.747   2.207   6.808  0.4309  0.5804  0.6009
 2440TIP3   OH228954   0.367   0.296   8.154 -0.2012  0.2336 -0.1723
 2440TIP3    H128955   0.360   0.255   8.240 -0.3370  0.6513  0.0152
 2440TIP3    H228956   0.360   0.223   8.092 -1.4993  0.0808  0.1271
 2441TIP3   OH228957   2.021   4.790   2.004  0.0125  0.4195 -0.2539
 2441TIP3    H128958   2.096   4.774   2.062 -0.3259  2.1458  0.7312
 2441TIP3    H228959   1.963   4.715   2.020  2.2194 -1.9658 -2.4138
 2442TIP3   OH228960   2.572   0.959   0.401 -0.3037 -0.0014 -0.5380
 2442TIP3    H128961   2.588   1.050   0.426 -2.1430  0.1695  0.1847
 2442TIP3    H228962   2.636   0.908   0.450 -0.5378  0.7640  0.6054
 2443TIP3   OH228963   5.428   5.490   7.311 -0.3706  0.0792  0.2752
 2443TIP3    H128964   5.410   5.584   7.314 -1.2159 -0.0756  0.3866
 2443TIP3    H228965   5.519   5.482   7.338  0.4628  1.0686 -1.9744
 2444TIP3   OH228966   5.090   1.988   7.152  0.3546 -1.1017 -0.1003
 2444TIP3    H128967   5.086   1.980   7.247 -1.7254  0.6753  0.0309
 2444TIP3    H228968   5.139   2.069   7.137 -0.8306 -0.4388 -0.4590
 2445TIP3   OH228969   2.494   1.204   8.271 -0.9286  0.0894 -0.1459
 2445TIP3    H128970   2.556   1.245   8.331 -1.9021  0.7553  0.4366
 2445TIP3    H228971   2.549   1.162   8.205  0.1453  0.2030  0.6445
 2446TIP3   OH228972   4.223   0.990   7.678  0.0747  0.4373 -0.1898
 2446TIP3    H128973   4.196   1.059   7.617 -0.6171  0.1604 -0.1987
 2446TIP3    H228974   4.302   1.025   7.718  0.5492  0.6217 -1.2450
 2447TIP3   OH228975   4.867   5.186   0.664  0.1346 -0.2953 -0.5333
 2447TIP3    H128976   4.787   5.225   0.699 -0.5825 -1.7097 -0.5037
 2447TIP3    H228977   4.938   5.240   0.699 -0.6345 -0.7866  1.9845
 2448TIP3   OH228978   6.224   0.700   0.988 -0.3535  0.1972  0.0411
 2448TIP3    H128979   6.234   0.681   1.082  1.5501  0.2968 -0.1016
 2448TIP3    H228980   6.172   0.627   0.954  1.7276 -1.6303  0.5883
 2449TIP3   OH228981   6.893   6.869   1.633  0.0972  0.1010 -0.2439
 2449TIP3    H128982   6.977   6.834   1.604 -0.6910 -1.1109 -1.1025
 2449TIP3    H228983   6.848   6.795   1.673 -1.9111 -0.1364 -2.7632
 2450TIP3   OH228984   3.665   1.003   8.286  0.1765  0.6904  0.3184
 2450TIP3    H128985   3.706   0.975   8.204  0.3054 -1.9615  1.1840
 2450TIP3    H228986   3.739   1.014   8.347 -0.1002 -0.5465  0.9075
 2451TIP3   OH228987   2.791   4.135   1.066 -0.0925 -0.5490  0.6632
 2451TIP3    H128988   2.724   4.131   0.998  0.7137 -1.6663 -0.0915
 2451TIP3    H228989   2.825   4.225   1.060 -1.4665  0.0380  1.0537
 2452TIP3   OH228990   2.010   3.084   1.198  0.1955 -0.0902  0.0539
 2452TIP3    H128991   1.964   3.000   1.210 -2.3641  1.1290 -0.5881
 2452TIP3    H228992   2.044   3.105   1.285 -2.4261 -0.0507  1.1731
 2453TIP3   OH228993   5.363   4.545   7.400  0.1017  0.1874  0.2283
 2453TIP3    H128994   5.428   4.478   7.423  1.7311  0.5540 -2.7561
 2453TIP3    H228995   5.326   4.514   7.317 -0.8578  1.8143  0.0055
 2454TIP3   OH228996   0.979   0.796   8.410 -0.6677  0.1200  0.0128
 2454TIP3    H128997   1.070   0.768   8.397  0.1225  1.5812  1.9318
 2454TIP3    H228998   0.927   0.725   8.372  1.2232  0.0857 -2.8130
 2455TIP3   OH228999   6.518   6.007   0.457 -0.3332  0.1462  0.0121
 2455TIP3    H129000   6.538   5.966   0.372 -2.4820  1.5285 -1.2541
 2455TIP3    H229001   6.592   6.064   0.475 -0.4803  0.9464 -1.7295
 2456TIP3   OH229002   5.336   2.512   7.886  0.0323 -0.1638 -0.1748
 2456TIP3    H129003   5.383   2.596   7.892  1.7926 -1.1185  0.2219
 2456TIP3    H229004   5.262   2.522   7.946  2.6592 -0.3361  3.4755
 2457TIP3   OH229005   4.963   1.405   0.823  0.3341 -0.2037  0.0626
 2457TIP3    H129006   4.887   1.380   0.876  1.0618 -2.3563  0.1660
 2457TIP3    H229007   4.929   1.473   0.764 -0.8912  1.0937  2.1286
 2458TIP3   OH229008   1.058   0.064   7.565  0.4272 -0.0906 -0.1150
 2458TIP3    H129009   1.071   0.159   7.561 -0.0590  0.1060  1.9880
 2458TIP3    H229010   0.966   0.052   7.539  0.2409  0.1077  0.4426
 2459TIP3   OH229011   4.468   6.572   0.240  0.2860  0.0522  0.2912
 2459TIP3    H129012   4.562   6.560   0.245  0.4592  1.5130  1.3956
 2459TIP3    H229013   4.453   6.605   0.151  1.0844  1.5588  0.6757
 2460TIP3   OH229014   0.368   4.849   7.432  0.0649  0.1368 -0.5538
 2460TIP3    H129015   0.410   4.885   7.511 -1.3259 -0.7130  0.6296
 2460TIP3    H229016   0.381   4.755   7.439 -1.6642 -0.1132 -0.3385
 2461TIP3   OH229017   4.953   5.675   1.292 -0.1868 -0.7784  0.6053
 2461TIP3    H129018   4.939   5.728   1.371 -2.7269 -0.5175  0.0691
 2461TIP3    H229019   4.954   5.585   1.323 -1.0717 -0.6710  0.9654
 2462TIP3   OH229020   6.449   3.897   0.215 -0.6294  0.0633  0.1015
 2462TIP3    H129021   6.497   3.980   0.223 -1.0180  0.3280 -0.2645
 2462TIP3    H229022   6.475   3.864   0.129 -0.9744  0.1266 -0.0277
 2463TIP3   OH229023   4.220   3.544   2.283 -0.1183  0.6643  0.5398
 2463TIP3    H129024   4.297   3.519   2.333  0.1476 -0.4491 -0.3768
 2463TIP3    H229025   4.253   3.561   2.194 -1.2319 -2.8146 -0.6932
 2464TIP3   OH229026   6.788   4.699   2.118  0.2234 -0.3058  0.0842
 2464TIP3    H129027   6.783   4.781   2.168 -0.7236 -0.4847  0.2885
 2464TIP3    H229028   6.781   4.630   2.184  0.6911 -0.5535 -0.1223
 2465TIP3   OH229029   4.633   3.262   2.371 -0.3962 -0.0569 -0.2583
 2465TIP3    H129030   4.600   3.309   2.294  1.7416  1.1893 -0.4909
 2465TIP3    H229031   4.564   3.198   2.391 -1.9683  1.0193 -1.8904
 2466TIP3   OH229032   2.917   5.723   6.555  0.3472 -0.0969  0.5168
 2466TIP3    H129033   2.973   5.645   6.551  1.1522  0.5189 -0.7164
 2466TIP3    H229034   2.939   5.772   6.477 -2.1168  0.0631 -0.1583
 2467TIP3   OH229035   1.873   2.721   8.076  0.1672 -0.1765  0.0791
 2467TIP3    H129036   1.930   2.797   8.080  0.6417 -0.4928 -0.5749
 2467TIP3    H229037   1.818   2.736   7.999 -2.1030  1.1272  1.8277
 2468TIP3   OH229038   3.589   5.549   7.395  0.3462  0.2218 -0.5271
 2468TIP3    H129039   3.668   5.600   7.413  0.9385 -1.2074  1.2071
 2468TIP3    H229040   3.557   5.522   7.481 -2.1846  0.9164 -1.1627
 2469TIP3   OH229041   3.428   0.367   0.253 -0.1684 -0.8350  0.1725
 2469TIP3    H129042   3.381   0.447   0.274  0.3595 -0.4423 -0.1280
 2469TIP3    H229043   3.365   0.297   0.270 -1.2605 -0.2718 -1.3641
 2470TIP3   OH229044   3.739   1.127   1.432 -0.1064 -0.3121 -0.3331
 2470TIP3    H129045   3.802   1.061   1.458  0.5861  0.2853 -0.4510
 2470TIP3    H229046   3.683   1.084   1.368  0.0566 -0.9063 -0.0751
 2471TIP3   OH229047   4.429   5.487   8.229 -0.3084  0.3015 -0.7401
 2471TIP3    H129048   4.512   5.508   8.186  0.3110  0.3799  0.4385
 2471TIP3    H229049   4.447   5.407   8.279 -0.3432  1.3997  1.1055
 2472TIP3   OH229050   3.798   5.078   0.771  0.4175  0.1501  0.1955
 2472TIP3    H129051   3.742   5.046   0.700 -0.7390 -1.2814  1.6645
 2472TIP3    H229052   3.882   5.098   0.729 -1.5004  3.8533 -2.3849
 2473TIP3   OH229053   2.887   0.337   1.400  0.2307  0.1050 -0.6976
 2473TIP3    H129054   2.950   0.311   1.333  1.0499 -0.1360  0.1495
 2473TIP3    H229055   2.936   0.333   1.482 -0.6505  0.7599 -0.1228
 2474TIP3   OH229056   6.046   4.553   0.944 -0.0393 -0.4079 -0.9468
 2474TIP3    H129057   5.994   4.476   0.922 -3.0171  0.3305  2.5797
 2474TIP3    H229058   6.003   4.625   0.898 -0.5816 -0.1591 -0.0722
 2475TIP3   OH229059   4.547   2.744   7.836 -0.2084  0.2345 -0.4670
 2475TIP3    H129060   4.498   2.820   7.869  0.1736  0.3105 -0.0758
 2475TIP3    H229061   4.537   2.750   7.741  1.2613  1.7827 -0.5749
 2476TIP3   OH229062   5.354   1.829   1.113  0.5160 -0.0564 -0.1338
 2476TIP3    H129063   5.350   1.799   1.204  0.1352  0.2428 -0.0521
 2476TIP3    H229064   5.316   1.757   1.063 -1.7335  0.8231  0.1925
 2477TIP3   OH229065   5.890   5.659   1.873  0.4270  0.4487 -0.8971
 2477TIP3    H129066   5.968   5.649   1.818  0.9881 -0.6865  0.0651
 2477TIP3    H229067   5.863   5.750   1.860  2.2082  1.0217 -0.8893
 2478TIP3   OH229068   2.067   4.352   1.587  0.1821  0.3151  0.1998
 2478TIP3    H129069   2.142   4.316   1.539 -0.0014  1.1440 -0.7269
 2478TIP3    H229070   2.080   4.447   1.584 -1.5778  0.5521 -1.1219
 2479TIP3   OH229071   0.042   2.034   2.208 -0.3434  0.4939 -0.1176
 2479TIP3    H129072  -0.035   2.080   2.175 -0.7795 -0.1877 -0.0826
 2479TIP3    H229073   0.017   2.003   2.295  0.1178  0.6205  0.0640
 2480TIP3   OH229074   3.538   1.599   1.969  0.1372 -0.1063 -0.1091
 2480TIP3    H129075   3.629   1.584   1.943  0.4676 -0.0957  0.9902
 2480TIP3    H229076   3.538   1.687   2.007 -0.3690 -0.0464 -0.2400
 2481TIP3   OH229077   3.296   1.779   2.106  0.3904 -0.1571 -0.0837
 2481TIP3    H129078   3.386   1.798   2.082  0.7123 -2.1051 -0.5793
 2481TIP3    H229079   3.244   1.843   2.057  1.4529  0.6891 -0.1486
 2482TIP3   OH229080   2.140   4.156   8.361 -0.3342 -0.5305 -0.3179
 2482TIP3    H129081   2.166   4.247   8.373 -2.4574  0.1580 -0.4643
 2482TIP3    H229082   2.178   4.130   8.277 -0.7378  0.6462 -0.8770
 2483TIP3   OH229083   1.355   5.330   0.381 -0.2721 -1.0563  0.3380
 2483TIP3    H129084   1.266   5.295   0.394 -1.1376  0.7360 -0.4582
 2483TIP3    H229085   1.372   5.382   0.460 -0.6644  0.0274 -0.2735
 2484TIP3   OH229086   4.897   4.332   1.592 -0.0873 -0.6538  0.3948
 2484TIP3    H129087   4.899   4.400   1.525 -0.7712 -0.3834  0.6309
 2484TIP3    H229088   4.828   4.272   1.562 -0.9588 -0.1084  1.2309
 2485TIP3   OH229089   0.298   5.656   8.318  0.2862 -0.3057 -0.2351
 2485TIP3    H129090   0.309   5.569   8.279  0.6336 -0.8155  0.9508
 2485TIP3    H229091   0.261   5.639   8.404 -0.9487  0.8295 -0.5127
 2486TIP3   OH229092   6.222   2.694   8.126  0.3198  0.3143  0.2172
 2486TIP3    H129093   6.229   2.616   8.181  1.3844 -0.9031 -1.5085
 2486TIP3    H229094   6.136   2.686   8.084  1.0736 -0.8954 -1.2069
 2487TIP3   OH229095   6.192   0.553   2.463 -0.0808  0.6268  0.3067
 2487TIP3    H129096   6.278   0.557   2.505  1.3086 -2.2505 -1.9205
 2487TIP3    H229097   6.166   0.461   2.471 -1.8109  0.9376 -1.1564
 2488TIP3   OH229098   4.142   1.575   7.626 -0.1952 -0.2872 -0.8657
 2488TIP3    H129099   4.209   1.599   7.690 -1.1429 -1.1333  0.4910
 2488TIP3    H229100   4.186   1.585   7.541  0.9187  1.4303 -0.1593
 2489TIP3   OH229101   0.380   0.408   1.362 -0.0695 -0.0019  0.4780
 2489TIP3    H129102   0.286   0.407   1.379 -0.5300  0.2289 -1.7641
 2489TIP3    H229103   0.391   0.363   1.278  1.6896  0.8175  0.2003
 2490TIP3   OH229104   6.810   4.422   1.515  0.4752  0.9685 -0.6214
 2490TIP3    H129105   6.752   4.401   1.588  0.4712 -0.0508 -0.9097
 2490TIP3    H229106   6.893   4.381   1.539  0.7868  1.5490 -0.6927
 2491TIP3   OH229107   2.488   2.678   7.923  0.5742  0.1322 -0.2432
 2491TIP3    H129108   2.532   2.694   8.006  0.6288  0.7934 -0.3961
 2491TIP3    H229109   2.554   2.636   7.868  0.4882 -0.4560  0.0980
 2492TIP3   OH229110   0.787   1.494   6.312  0.5287 -0.0707 -0.1210
 2492TIP3    H129111   0.800   1.523   6.221 -0.1418 -0.1175 -0.2364
 2492TIP3    H229112   0.718   1.429   6.307  0.1732  0.2515  0.4848
 2493TIP3   OH229113   3.702   0.853   0.851  0.4453 -0.0536 -0.5391
 2493TIP3    H129114   3.624   0.897   0.819  0.4034  0.4497  0.2458
 2493TIP3    H229115   3.677   0.760   0.855 -1.2810  0.4026  2.8385
 2494TIP3   OH229116   3.052   2.532   7.155 -0.2159  0.0236  0.1555
 2494TIP3    H129117   3.132   2.506   7.201  0.3421  0.3032 -0.6407
 2494TIP3    H229118   3.070   2.513   7.063 -1.4458 -0.8378  0.0655
 2495TIP3   OH229119   3.730   5.329   2.361 -0.3920 -0.0324  0.4122
 2495TIP3    H129120   3.651   5.317   2.309 -0.0612  1.7953 -0.5928
 2495TIP3    H229121   3.705   5.394   2.427  0.1844  0.3632  0.2487
 2496TIP3   OH229122   1.572   1.199   7.283 -0.5029  0.3996  0.5478
 2496TIP3    H129123   1.608   1.229   7.200 -1.5152  0.3093  0.0631
 2496TIP3    H229124   1.647   1.198   7.343  0.5116 -0.7509 -0.6761
 2497TIP3   OH229125   3.047   1.994   0.192 -0.2733 -0.3559  0.6249
 2497TIP3    H129126   3.056   1.944   0.111 -1.2231 -0.3441  0.5034
 2497TIP3    H229127   3.093   2.076   0.175 -2.2412  0.5555 -0.6986
 2498TIP3   OH229128   5.278   3.674   8.343 -0.1070 -0.3273  0.7063
 2498TIP3    H129129   5.198   3.623   8.335  0.2590 -0.8347  0.2488
 2498TIP3    H229130   5.336   3.620   8.397 -0.2478  0.2635  1.4725
 2499TIP3   OH229131   2.026   4.435   8.242  0.3911 -0.6116  0.2338
 2499TIP3    H129132   2.075   4.517   8.236  0.2610 -0.4946  0.7340
 2499TIP3    H229133   2.014   4.421   8.336 -0.9883 -0.3642  0.1122
 2500TIP3   OH229134   6.388   1.037   0.224  0.6784  0.3445  0.3179
 2500TIP3    H129135   6.313   1.035   0.164  0.8061 -0.8559  0.1677
 2500TIP3    H229136   6.380   1.120   0.269 -0.7464  0.2485  0.2979
 2501TIP3   OH229137   0.634   4.328   0.678 -0.2078 -0.3864 -0.2215
 2501TIP3    H129138   0.557   4.276   0.657 -1.0037  0.1762  1.2152
 2501TIP3    H229139   0.708   4.268   0.668 -0.6793 -0.6704 -2.6303
 2502TIP3   OH229140   6.114   0.551   6.595 -0.1226  0.2211  0.5230
 2502TIP3    H129141   6.130   0.490   6.523 -1.0781  0.1498  0.3514
 2502TIP3    H229142   6.131   0.499   6.674 -1.3322 -0.4236  0.3902
 2503TIP3   OH229143   1.748   2.635   0.664  0.2019 -0.2923  0.2177
 2503TIP3    H129144   1.756   2.600   0.575 -0.3834 -0.2591  0.1446
 2503TIP3    H229145   1.712   2.562   0.715 -0.3250 -0.0378  0.2227
 2504TIP3   OH229146   0.910   0.410   1.949  0.1949 -0.1733 -0.1501
 2504TIP3    H129147   0.912   0.316   1.929 -0.7606 -0.1320 -0.4857
 2504TIP3    H229148   0.916   0.414   2.044 -2.0060 -0.7163  0.0678
 2505TIP3   OH229149   5.649   6.412   1.099 -0.2829 -0.1352  0.4428
 2505TIP3    H129150   5.559   6.381   1.111 -0.8113  0.7213 -1.0321
 2505TIP3    H229151   5.647   6.461   1.016  1.3379  0.6791  0.8375
 2506TIP3   OH229152   6.108   6.633   0.596 -0.0933  0.0483  0.0176
 2506TIP3    H129153   6.175   6.579   0.636  0.7626  0.6221 -0.5876
 2506TIP3    H229154   6.095   6.594   0.509 -2.9466 -2.0439  1.2575
 2507TIP3   OH229155   6.338   3.221   0.620 -0.5154 -0.3352 -0.2515
 2507TIP3    H129156   6.376   3.265   0.544  2.9074 -2.6087 -0.0736
 2507TIP3    H229157   6.251   3.260   0.629 -0.4172  1.2917 -4.2143
 2508TIP3   OH229158   2.264   0.068   7.896  0.4621  0.0203 -0.6137
 2508TIP3    H129159   2.354   0.078   7.928  0.6834  0.2877 -1.2755
 2508TIP3    H229160   2.209   0.097   7.968  0.9585  1.0960 -0.6375
 2509TIP3   OH229161   1.301   0.025   8.319 -0.3006 -0.1939  0.0778
 2509TIP3    H129162   1.312   0.096   8.255  0.4651  1.7727  2.2327
 2509TIP3    H229163   1.373  -0.035   8.300  0.7821  1.0838 -0.0436
 2510TIP3   OH229164   3.129   5.713   8.011  0.4499  0.1519 -0.2040
 2510TIP3    H129165   3.122   5.806   7.990  0.0087  0.2386  0.2885
 2510TIP3    H229166   3.038   5.685   8.025  0.7350  0.2045  1.9862
 2511TIP3   OH229167   6.438   3.631   7.535 -0.0028  0.2479 -0.0311
 2511TIP3    H129168   6.533   3.631   7.519 -0.4023 -0.5413 -2.8315
 2511TIP3    H229169   6.412   3.539   7.528 -1.1548  0.6024 -0.6775
 2512TIP3   OH229170   0.975   2.819   0.750 -0.2103  0.0024  0.0966
 2512TIP3    H129171   0.951   2.782   0.835  1.0253 -1.1926 -0.0485
 2512TIP3    H229172   1.013   2.904   0.771 -0.4743 -0.0187  0.6757
 2513TIP3   OH229173   1.793   0.659   0.443  0.0356  0.1958 -0.1575
 2513TIP3    H129174   1.794   0.668   0.539 -0.4774  0.5207 -0.1757
 2513TIP3    H229175   1.855   0.588   0.425 -1.8695 -1.7865  0.6410
 2514TIP3   OH229176   5.002   5.788   8.285 -0.1826  0.3440  0.5061
 2514TIP3    H129177   4.943   5.795   8.209  1.5781 -1.1357 -1.1121
 2514TIP3    H229178   4.994   5.696   8.312 -0.2623  0.6875  1.6939
 2515TIP3   OH229179   5.445   6.552   8.356 -0.3010 -0.2739  0.1513
 2515TIP3    H129180   5.358   6.577   8.385 -0.0384  2.0418 -0.8644
 2515TIP3    H229181   5.484   6.633   8.324  1.7094 -1.5264 -0.7531
 2516TIP3   OH229182   2.240   6.612   0.712  0.2121  0.3304 -0.3421
 2516TIP3    H129183   2.240   6.626   0.806  2.8091  0.9317 -0.3708
 2516TIP3    H229184   2.214   6.520   0.701  1.8935 -0.3536  1.1102
 2517TIP3   OH229185   5.979   1.509   3.147  0.1060 -0.8623  0.6005
 2517TIP3    H129186   6.069   1.494   3.118 -0.1429 -1.7987  0.2701
 2517TIP3    H229187   5.948   1.583   3.094  0.5753 -0.7523  0.4795
 2518TIP3   OH229188   3.127   3.733   0.833  0.0735 -0.2033  0.1989
 2518TIP3    H129189   3.179   3.813   0.845 -3.2441  1.6834  4.8425
 2518TIP3    H229190   3.170   3.668   0.890 -0.9564  0.5082  1.8529
 2519TIP3   OH229191   4.054   2.798   2.605  0.2682 -0.1649 -0.0574
 2519TIP3    H129192   4.027   2.720   2.655  0.9466 -0.0452  0.5215
 2519TIP3    H229193   3.978   2.820   2.552  0.1343 -1.3663 -0.4064
 2520TIP3   OH229194   1.382   6.333   0.125  0.2770  0.4250 -0.5043
 2520TIP3    H129195   1.460   6.337   0.069  1.3883  0.4982  0.9865
 2520TIP3    H229196   1.411   6.286   0.203 -1.6537 -1.0766 -0.5972
 2521TIP3   OH229197   3.574   0.199   2.167  0.1758 -0.3894  0.2302
 2521TIP3    H129198   3.631   0.197   2.244 -0.4196 -0.0106  0.6901
 2521TIP3    H229199   3.603   0.276   2.117  1.5736 -1.4815 -0.7375
 2522TIP3   OH229200   4.592   3.776   1.914 -0.1419 -0.4709  0.4202
 2522TIP3    H129201   4.610   3.762   1.821 -0.9175 -1.5545  0.4121
 2522TIP3    H229202   4.678   3.790   1.953  0.1646  0.3838 -0.5069
 2523TIP3   OH229203   6.503   2.262   0.859 -0.4057  0.5829  0.1674
 2523TIP3    H129204   6.412   2.286   0.877 -0.4027  0.7361 -0.0184
 2523TIP3    H229205   6.503   2.238   0.766 -0.6314 -1.1222  0.5589
 2524TIP3   OH229206   0.742   1.884   1.403 -0.2347 -0.2112 -0.5411
 2524TIP3    H129207   0.695   1.867   1.484  1.3040  0.7486  0.6025
 2524TIP3    H229208   0.697   1.959   1.364  0.2083  0.5636  0.4254
 2525TIP3   OH229209   6.368   4.359   1.852  0.1574 -0.5416  0.3274
 2525TIP3    H129210   6.425   4.287   1.823  0.2901  0.3507 -1.8680
 2525TIP3    H229211   6.416   4.401   1.923  1.6001 -0.6774 -0.5308
 2526TIP3   OH229212   3.445   0.277   8.354  0.6878 -0.6776 -0.3435
 2526TIP3    H129213   3.377   0.314   8.410  0.1980 -1.9864 -0.0313
 2526TIP3    H229214   3.452   0.339   8.281 -1.1080 -0.6714 -0.5678
 2527TIP3   OH229215   6.945   5.297   1.789  0.0742  0.1508 -0.5904
 2527TIP3    H129216   7.018   5.291   1.850 -1.1375 -0.3754  0.8670
 2527TIP3    H229217   6.901   5.213   1.795 -1.0910  0.7130 -0.8795
 2528TIP3   OH229218   0.232   2.387   7.092  0.3015 -0.7138 -0.0901
 2528TIP3    H129219   0.212   2.465   7.144  1.1714 -0.9923  0.7057
 2528TIP3    H229220   0.197   2.406   7.005 -0.2354  0.2157  0.3137
 2529TIP3   OH229221   2.219   2.656   7.645  0.0443  0.2192 -0.6051
 2529TIP3    H129222   2.291   2.610   7.688  0.4786  0.6599 -0.8416
 2529TIP3    H229223   2.230   2.747   7.672  1.3265  0.8221 -2.9325
 2530TIP3   OH229224   1.409   6.565   0.377 -0.0432  0.1092  0.3300
 2530TIP3    H129225   1.441   6.617   0.303 -0.2995 -0.4825 -0.2147
 2530TIP3    H229226   1.380   6.483   0.337 -1.4887  0.3138  0.9119
 2531TIP3   OH229227   2.528   4.908   0.765 -0.0887  0.4099  0.1201
 2531TIP3    H129228   2.442   4.939   0.735 -0.1563  0.9742  0.8688
 2531TIP3    H229229   2.514   4.817   0.790 -0.7673  0.8400  1.3754
 2532TIP3   OH229230   1.276   1.916   7.978 -0.3582  0.1821  0.5434
 2532TIP3    H129231   1.243   1.829   7.957 -1.2098  0.3869  1.0036
 2532TIP3    H229232   1.261   1.926   8.072 -0.3073  0.8424  0.4873
 2533TIP3   OH229233   3.153   4.011   7.598 -0.5009  0.1347 -0.4217
 2533TIP3    H129234   3.122   4.037   7.512 -1.1276  0.8435  0.0044
 2533TIP3    H229235   3.076   3.976   7.642 -0.2057 -0.1511 -0.1219
 2534TIP3   OH229236   2.783   1.447   8.192  0.3712  0.2024  0.2178
 2534TIP3    H129237   2.839   1.383   8.235  0.6369 -0.9393 -1.7081
 2534TIP3    H229238   2.737   1.397   8.125 -1.4554  1.5143  0.4113
 2535TIP3   OH229239   3.864   6.506   1.692  0.2529 -1.0222  0.2449
 2535TIP3    H129240   3.889   6.589   1.732  3.0858 -1.2355 -0.8549
 2535TIP3    H229241   3.845   6.448   1.766  0.7657 -0.1207  1.1029
 2536TIP3   OH229242   1.849   3.823   2.845  0.6037  0.1476  0.1420
 2536TIP3    H129243   1.939   3.854   2.836  0.5537  0.1929 -0.2201
 2536TIP3    H229244   1.804   3.891   2.895  0.2906  1.0789 -1.3287
 2537TIP3   OH229245   5.488   0.035   1.598 -0.3722  0.1662  0.7176
 2537TIP3    H129246   5.470  -0.037   1.538 -1.2435  0.4145  0.6591
 2537TIP3    H229247   5.540   0.097   1.547  2.4103 -1.4029  1.4324
 2538TIP3   OH229248   4.410   1.752   0.929  0.4639 -0.0605  0.6538
 2538TIP3    H129249   4.484   1.810   0.950 -0.2626  0.5300  1.7016
 2538TIP3    H229250   4.408   1.690   1.002 -0.4522  0.3243  0.9635
 2539TIP3   OH229251   6.381   5.336   1.866 -0.2586 -0.2791 -0.4260
 2539TIP3    H129252   6.433   5.280   1.807  0.0891  2.5184 -2.9979
 2539TIP3    H229253   6.291   5.321   1.840 -0.2079 -0.1000 -0.7117
 2540TIP3   OH229254   6.633   3.277   1.573  0.0048 -0.2115  0.1308
 2540TIP3    H129255   6.607   3.284   1.481 -1.7486  0.6057  0.6496
 2540TIP3    H229256   6.640   3.367   1.603 -3.1814 -0.3541  1.7310
 2541TIP3   OH229257   4.564   5.296   1.402 -0.2122 -0.8232 -0.1562
 2541TIP3    H129258   4.616   5.376   1.392 -1.8227  0.4723  1.3342
 2541TIP3    H229259   4.549   5.289   1.496 -0.5181 -2.6535 -0.3049
 2542TIP3   OH229260   4.706   6.064   1.531  0.8509  0.0352 -0.5587
 2542TIP3    H129261   4.751   6.087   1.450  1.4224 -0.4894 -0.4026
 2542TIP3    H229262   4.673   5.976   1.516 -1.1315  0.8260 -1.0747
 2543TIP3   OH229263   5.896   6.917   1.908 -0.2446 -0.3266 -0.3482
 2543TIP3    H129264   5.820   6.974   1.920  0.3750  0.8632 -1.6369
 2543TIP3    H229265   5.971   6.977   1.910  0.5470 -1.2920 -0.3744
 2544TIP3   OH229266   5.006   6.583   1.678 -0.4805  0.8724 -0.3297
 2544TIP3    H129267   4.981   6.511   1.619  0.4736 -1.4862  1.9626
 2544TIP3    H229268   4.927   6.637   1.684 -2.6208 -2.1259  0.7869
 2545TIP3   OH229269   1.704   1.468   1.305  0.1527  0.3109 -0.8693
 2545TIP3    H129270   1.614   1.496   1.323  0.9568  2.5975  0.0397
 2545TIP3    H229271   1.752   1.550   1.291  1.9866 -0.8773 -1.9468
 2546TIP3   OH229272   3.327   1.123   1.561 -0.3596 -0.2930  0.2677
 2546TIP3    H129273   3.323   1.186   1.633 -1.1306 -2.4712  2.2619
 2546TIP3    H229274   3.236   1.113   1.533 -0.0828  0.4262 -0.9713
 2547TIP3   OH229275   6.678   1.912   0.410  0.2292  0.4638 -0.3862
 2547TIP3    H129276   6.746   1.867   0.360 -0.1017  0.2870 -0.6782
 2547TIP3    H229277   6.624   1.955   0.344 -0.0967  0.3899 -0.1669
 2548TIP3   OH229278   0.700   1.166   1.949 -0.1220 -0.5988 -0.0504
 2548TIP3    H129279   0.689   1.246   2.001  0.4856 -0.4516 -0.1403
 2548TIP3    H229280   0.623   1.163   1.893 -0.0835 -0.0031 -0.1382
 2549TIP3   OH229281   1.030   4.497   1.626 -0.4169 -0.4734  0.1605
 2549TIP3    H129282   1.106   4.552   1.644  1.4173 -2.9890  0.6855
 2549TIP3    H229283   0.999   4.525   1.540 -0.6415  2.4096  1.0853
 2550TIP3   OH229284   1.534   5.231   1.708  0.5460  0.3441  0.5909
 2550TIP3    H129285   1.541   5.140   1.677  2.9885  0.2265  1.3215
 2550TIP3    H229286   1.584   5.282   1.644 -1.1906  1.3131 -0.0756
 2551TIP3   OH229287   0.831   0.720   6.428  0.3199 -0.6133  0.3499
 2551TIP3    H129288   0.798   0.631   6.440  1.3070 -1.1006 -0.4530
 2551TIP3    H229289   0.926   0.710   6.425  0.4443  0.4860  0.3351
 2552TIP3   OH229290   0.355   5.249   2.001  0.0284 -0.3613  0.0579
 2552TIP3    H129291   0.443   5.243   2.039 -0.5481  1.0069  1.7148
 2552TIP3    H229292   0.340   5.162   1.964  3.0151  0.0278 -2.5446
 2553TIP3   OH229293   6.469   3.571   8.286 -0.4505 -0.0559  0.3644
 2553TIP3    H129294   6.443   3.661   8.268  1.5610  0.5197  0.1146
 2553TIP3    H229295   6.497   3.537   8.201  1.5199  0.0684  0.9122
 2554TIP3   OH229296   4.334   2.885   7.908 -0.2246 -0.7264  0.6917
 2554TIP3    H129297   4.240   2.895   7.891  0.3768  1.8581 -1.8789
 2554TIP3    H229298   4.349   2.933   7.989 -0.8032  1.0328 -0.1970
 2555TIP3   OH229299   1.467   3.441   2.810  0.1978 -0.5324 -0.2910
 2555TIP3    H129300   1.439   3.359   2.851 -0.3445  0.7883  2.1822
 2555TIP3    H229301   1.507   3.491   2.881  1.9173  0.7883 -2.0592
 2556TIP3   OH229302   0.367   0.151   1.567  0.4273  0.4132  0.3020
 2556TIP3    H129303   0.276   0.136   1.593  0.0458  0.6063 -0.8948
 2556TIP3    H229304   0.416   0.082   1.612 -0.4857 -0.5513 -0.1560
 2557TIP3   OH229305   5.828   4.379   0.204 -0.1914  0.0681  0.0184
 2557TIP3    H129306   5.788   4.365   0.290  1.4879  0.3262  0.8787
 2557TIP3    H229307   5.919   4.351   0.215  1.0527  3.4193 -0.6301
 2558TIP3   OH229308   2.916   1.172   8.209 -0.6544 -0.5457 -0.0558
 2558TIP3    H129309   2.885   1.081   8.209  0.5148 -0.9622 -0.9155
 2558TIP3    H229310   2.996   1.170   8.261  0.1177 -0.2950 -1.1938
 2559TIP3   OH229311   6.846   1.757   2.194 -0.0924 -0.1272  0.3137
 2559TIP3    H129312   6.909   1.712   2.250  0.3395 -0.7264 -0.6234
 2559TIP3    H229313   6.890   1.838   2.169  0.2611 -0.4691 -0.2064
 2560TIP3   OH229314   5.388   5.752   2.259  0.1818  0.1068 -0.3678
 2560TIP3    H129315   5.465   5.715   2.303 -1.2161  0.5937  2.7469
 2560TIP3    H229316   5.407   5.846   2.252  0.2692  0.0773 -0.5378
 2561TIP3   OH229317   1.387   1.564   7.577 -0.1435 -0.0761  0.1303
 2561TIP3    H129318   1.470   1.523   7.554  0.9418  1.7983  0.4938
 2561TIP3    H229319   1.361   1.614   7.499 -0.3938  0.1575  0.3563
 2562TIP3   OH229320   4.204   5.448   8.091 -0.2674  0.2122  0.0942
 2562TIP3    H129321   4.279   5.487   8.136  0.2330 -1.4651  0.7522
 2562TIP3    H229322   4.223   5.461   7.998  0.8459 -0.1708  0.2493
 2563TIP3   OH229323   5.906   3.271   2.996 -0.5349  0.4962 -0.6052
 2563TIP3    H129324   5.970   3.206   3.022 -1.2716 -0.3028 -0.7450
 2563TIP3    H229325   5.843   3.274   3.068 -0.7260  0.7563 -0.7762
 2564TIP3   OH229326   6.320   0.976   1.622  0.0421  0.2671 -0.1741
 2564TIP3    H129327   6.238   1.025   1.635 -0.3985 -0.2285 -0.9541
 2564TIP3    H229328   6.369   1.029   1.559 -0.2896 -0.1014 -0.7604
 2565TIP3   OH229329   4.185   4.656   7.870  0.2060 -0.3913 -0.0475
 2565TIP3    H129330   4.213   4.580   7.922  0.1249  1.2167  2.5128
 2565TIP3    H229331   4.110   4.624   7.820 -0.9624 -1.6074  2.2925
 2566TIP3   OH229332   3.410   6.737   7.655 -0.3252 -0.2118  0.6031
 2566TIP3    H129333   3.335   6.796   7.664 -0.4393 -0.4056  0.9494
 2566TIP3    H229334   3.382   6.672   7.591  0.0315  0.4629 -0.2469
 2567TIP3   OH229335   6.149   4.496   8.180  0.0094 -0.3954  0.2113
 2567TIP3    H129336   6.217   4.502   8.113 -0.7975 -1.9018 -0.7853
 2567TIP3    H229337   6.198   4.495   8.263  1.0763  0.4874 -0.3808
 2568TIP3   OH229338   6.824   3.139   7.539  0.3452  0.4292 -0.2774
 2568TIP3    H129339   6.847   3.118   7.449 -0.3438 -0.9046 -0.1626
 2568TIP3    H229340   6.729   3.130   7.543  0.5696 -3.8013  1.4926
 2569TIP3   OH229341   0.507   1.583   7.552 -0.0966  0.2110  0.0623
 2569TIP3    H129342   0.549   1.562   7.468  0.5147  0.8875  0.1920
 2569TIP3    H229343   0.493   1.497   7.593 -0.2550 -0.1156 -0.6537
 2570TIP3   OH229344   1.014   4.180   1.540 -0.0499 -0.2013 -0.0737
 2570TIP3    H129345   0.947   4.204   1.476  0.4945  1.5016 -0.0737
 2570TIP3    H229346   1.097   4.199   1.496  0.3773 -0.5725  0.5600
 2571TIP3   OH229347   5.874   6.793   1.072 -0.0303  0.3654  0.3928
 2571TIP3    H129348   5.783   6.821   1.070  0.3729  1.7287 -0.0409
 2571TIP3    H229349   5.881   6.724   1.007 -0.9138 -0.3063  0.9956
 2572TIP3   OH229350   0.878   6.032   0.455 -0.8670  0.3611 -1.0625
 2572TIP3    H129351   0.872   6.105   0.516 -1.6372  0.0723 -0.7858
 2572TIP3    H229352   0.879   5.954   0.511 -4.8520 -0.1447 -1.3800
 2573TIP3   OH229353   6.440   0.732   2.312 -0.0302  0.4155  0.1843
 2573TIP3    H129354   6.376   0.661   2.299 -1.5757  1.6251  0.8352
 2573TIP3    H229355   6.390   0.812   2.299  1.1095  1.4389  1.6943
 2574TIP3   OH229356   2.534   2.792   0.528 -0.0413 -0.3191 -0.6191
 2574TIP3    H129357   2.567   2.880   0.547 -0.9714 -0.1407  0.2305
 2574TIP3    H229358   2.579   2.735   0.590  0.5750 -0.4633 -1.1816
 2575TIP3   OH229359   3.341   2.132   7.947 -0.0702  0.3802  0.6047
 2575TIP3    H129360   3.305   2.101   8.030  2.0904 -1.2254  1.0451
 2575TIP3    H229361   3.350   2.052   7.894 -0.5389  1.2488 -0.8462
 2576TIP3   OH229362   4.172   1.119   7.175 -0.2217 -0.4064  0.4262
 2576TIP3    H129363   4.176   1.215   7.172 -0.8646 -0.3668  0.7220
 2576TIP3    H229364   4.238   1.091   7.112 -0.6638  0.2460 -0.3547
 2577TIP3   OH229365   6.204   5.038   8.383  0.1850 -0.0144  0.1361
 2577TIP3    H129366   6.130   5.043   8.444  0.7744 -1.5317  1.0663
 2577TIP3    H229367   6.267   4.980   8.427  1.7386  0.8557 -0.8265
 2578TIP3   OH229368   2.650   1.874   7.339  0.2566  0.6229 -0.3627
 2578TIP3    H129369   2.562   1.883   7.376 -0.7655  0.2517 -2.5479
 2578TIP3    H229370   2.672   1.781   7.351 -0.1760  0.4504 -0.8639
 2579TIP3   OH229371   1.279   3.028   1.358  0.5081 -0.1502  0.0710
 2579TIP3    H129372   1.221   3.104   1.351 -0.4741 -1.0430 -2.9820
 2579TIP3    H229373   1.353   3.049   1.302  1.0077 -0.8369  0.4580
 2580TIP3   OH229374   6.370   4.587   8.029  0.1134 -0.2617 -0.0562
 2580TIP3    H129375   6.437   4.654   8.045  0.9871 -0.9835 -0.5516
 2580TIP3    H229376   6.323   4.619   7.952  0.0181  0.1549  0.1714
 2581TIP3   OH229377   4.172   5.561   8.385  0.1139  0.1443  0.0318
 2581TIP3    H129378   4.189   5.552   8.479  1.5473  1.2790 -0.0856
 2581TIP3    H229379   4.252   5.531   8.343 -0.1918  0.4783 -0.8067
 2582TIP3   OH229380   0.395   3.234   0.091  0.2124  0.1127 -0.4790
 2582TIP3    H129381   0.389   3.271   0.003 -1.1799 -1.3938 -1.0608
 2582TIP3    H229382   0.319   3.268   0.136  0.3105 -0.0295 -0.2076
 2583TIP3   OH229383   4.869   1.337   0.135 -0.4371  0.0662  0.2656
 2583TIP3    H129384   4.872   1.243   0.153 -0.2822  0.1073  0.4559
 2583TIP3    H229385   4.790   1.368   0.180 -0.6033 -0.0080  0.0286
 2584TIP3   OH229386   6.754   0.043   8.136  0.2667 -0.2076  0.6628
 2584TIP3    H129387   6.719  -0.035   8.178 -0.5230  0.4529  1.2847
 2584TIP3    H229388   6.689   0.066   8.070  0.3454  0.0805  0.6827
 2585TIP3   OH229389   0.062   2.209   8.094  0.1203  0.0245 -0.2685
 2585TIP3    H129390   0.026   2.166   8.016 -1.3749 -1.5539  1.1899
 2585TIP3    H229391   0.118   2.142   8.134 -1.1564 -0.1553  1.3280
 2586TIP3   OH229392   3.782   1.580   8.480  0.0435 -0.1658 -0.4158
 2586TIP3    H129393   3.713   1.645   8.488  1.5612  1.2726  2.6332
 2586TIP3    H229394   3.842   1.616   8.415  1.0631  1.8102  1.5037
 2587TIP3   OH229395   4.492   4.749   7.591  0.2605  0.6014 -0.4713
 2587TIP3    H129396   4.471   4.670   7.641 -0.3986 -0.5904 -2.5232
 2587TIP3    H229397   4.482   4.820   7.654 -2.0393 -0.6714  0.7439
 2588TIP3   OH229398   3.021   2.889   2.031  0.9988  0.0047  0.3809
 2588TIP3    H129399   3.058   2.898   1.944  2.4347 -0.3960  0.9292
 2588TIP3    H229400   2.986   2.800   2.033  1.5828 -0.2295  0.4266
 2589TIP3   OH229401   2.756   0.135   0.398  0.0812  0.4539 -0.3596
 2589TIP3    H129402   2.727   0.054   0.440 -0.1243  0.6800 -0.0705
 2589TIP3    H229403   2.679   0.191   0.395  0.7583  1.5723  1.6171
 2590TIP3   OH229404   1.105   3.748   0.817  0.6454  0.2478 -0.0851
 2590TIP3    H129405   1.046   3.812   0.777  0.8279  0.5322  0.0992
 2590TIP3    H229406   1.101   3.672   0.759 -0.0574  0.1919  0.0297
 2591TIP3   OH229407   5.254   5.031   8.390  0.2100  0.1983  0.0268
 2591TIP3    H129408   5.276   5.122   8.372  0.3051  0.5097  1.5562
 2591TIP3    H229409   5.339   4.987   8.401  0.1514  0.0935  0.0657
 2592TIP3   OH229410   2.374   4.042   7.212 -0.1766 -0.5500 -0.5517
 2592TIP3    H129411   2.447   4.093   7.249 -0.6247  0.0757 -0.5152
 2592TIP3    H229412   2.340   4.097   7.141 -0.5151 -0.9102 -0.6697
 2593TIP3   OH229413   6.727   6.503   2.842 -0.1963  0.1154 -0.0467
 2593TIP3    H129414   6.640   6.519   2.806 -0.0594 -0.2611 -0.5598
 2593TIP3    H229415   6.752   6.418   2.807  0.7912  0.6558 -0.7265
 2594TIP3   OH229416   4.533   6.818   2.822  0.4151  0.3319  0.2152
 2594TIP3    H129417   4.471   6.747   2.838  0.2431  0.6540  1.0464
 2594TIP3    H229418   4.479   6.891   2.794  0.5959  0.1383 -0.6674
 2595TIP3   OH229419   2.715   4.253   3.164 -0.1260  0.0130  0.1447
 2595TIP3    H129420   2.735   4.343   3.136 -1.0647 -0.2502 -1.5767
 2595TIP3    H229421   2.623   4.242   3.141  0.3557 -1.8622 -1.1023
 2596TIP3   OH229422   4.648   5.774   7.296 -0.2956  0.1256  0.6248
 2596TIP3    H129423   4.615   5.711   7.359  3.2937 -0.7427  1.8560
 2596TIP3    H229424   4.720   5.818   7.341  0.3743  1.7412 -1.8058
 2597TIP3   OH229425   5.219   5.091   1.679 -0.0356  0.1243 -0.1609
 2597TIP3    H129426   5.163   5.164   1.651 -1.3873 -1.1781 -1.0373
 2597TIP3    H229427   5.213   5.028   1.607  0.8105 -1.0096  0.7278
 2598TIP3   OH229428   3.054   6.170   8.409 -0.2573  0.2534  0.4487
 2598TIP3    H129429   3.145   6.153   8.434 -0.6014  1.1275  2.4229
 2598TIP3    H229430   3.010   6.086   8.423 -0.2820  0.5228  2.1515
 2599TIP3   OH229431   1.077   5.783   0.394  0.5747  0.0151  0.0745
 2599TIP3    H129432   1.026   5.863   0.396  1.1182  0.3697  0.0152
 2599TIP3    H229433   1.051   5.735   0.472 -0.5101 -0.2326 -0.4291
 2600TIP3   OH229434   0.767   3.565   1.669  0.2055 -0.1455 -0.8126
 2600TIP3    H129435   0.799   3.539   1.583  0.2957 -1.6711 -0.3346
 2600TIP3    H229436   0.766   3.485   1.720 -1.0421  0.5085  0.2476
 2601TIP3   OH229437   1.695   0.950   0.663  0.2780 -0.4038 -0.5530
 2601TIP3    H129438   1.715   1.026   0.608  1.3533  0.8063  1.4007
 2601TIP3    H229439   1.756   0.883   0.634  0.6954  0.1507 -0.9833
 2602TIP3   OH229440   2.572   2.663   8.199 -0.6809  0.1565  0.5556
 2602TIP3    H129441   2.635   2.596   8.226  0.1870  0.9361  0.5204
 2602TIP3    H229442   2.580   2.732   8.265  0.3996  1.4166 -0.8202
 2603TIP3   OH229443   4.023   1.350   7.735 -0.4067 -0.6353  0.0697
 2603TIP3    H129444   4.039   1.298   7.657  0.1468  0.3885 -0.5193
 2603TIP3    H229445   4.073   1.431   7.721 -0.1073 -0.5290  1.5763
 2604TIP3   OH229446   1.153   3.269   7.348  0.0421 -0.1201 -0.2522
 2604TIP3    H129447   1.201   3.242   7.427 -1.1901  1.0182  0.9263
 2604TIP3    H229448   1.187   3.356   7.329 -1.2235  0.5297  0.3616
 2605TIP3   OH229449   4.319   1.254   6.280 -0.5531 -0.1259  0.1215
 2605TIP3    H129450   4.323   1.180   6.341 -2.9684  0.2086  0.7967
 2605TIP3    H229451   4.274   1.323   6.329  0.8440  1.5124 -0.8083
 2606TIP3   OH229452   5.191   5.048   2.812  0.2256 -0.5110  0.5314
 2606TIP3    H129453   5.286   5.046   2.822  0.4939 -1.1896 -1.5253
 2606TIP3    H229454   5.173   5.132   2.771  0.0510 -0.7123  0.1875
 2607TIP3   OH229455   3.687   5.580   1.053 -0.2870 -0.2833  0.3367
 2607TIP3    H129456   3.611   5.525   1.073 -1.2148  1.2823  1.2866
 2607TIP3    H229457   3.709   5.558   0.962  0.3774 -3.3323  1.1254
 2608TIP3   OH229458   0.641   4.811   0.942 -0.0973  0.0760  0.1853
 2608TIP3    H129459   0.573   4.809   1.010  0.6798 -0.5842  0.9596
 2608TIP3    H229460   0.613   4.881   0.882 -1.6592 -0.4451  0.2658
 2609TIP3   OH229461   1.289   2.011   1.649  0.0089 -0.3083  0.3360
 2609TIP3    H129462   1.288   1.960   1.730  1.2051  1.5757  1.6277
 2609TIP3    H229463   1.250   2.095   1.673 -1.5320 -0.3847 -1.6127
 2610TIP3   OH229464   0.022   3.243   0.853 -0.3174  0.1442  0.0787
 2610TIP3    H129465   0.103   3.194   0.863  0.0809  0.6654 -0.5701
 2610TIP3    H229466   0.037   3.324   0.902 -0.0255  0.7288 -0.9571
 2611TIP3   OH229467   5.297   4.146   7.797 -0.6737 -0.2739 -0.2566
 2611TIP3    H129468   5.385   4.119   7.820 -0.4975 -0.0573 -0.6774
 2611TIP3    H229469   5.275   4.095   7.719 -1.3440 -1.1517  0.4816
 2612TIP3   OH229470   3.256   2.596   0.144 -0.0741 -0.2147  0.2748
 2612TIP3    H129471   3.296   2.679   0.118 -3.2129  1.2267 -0.4719
 2612TIP3    H229472   3.260   2.597   0.239  1.8423 -0.3170  0.2405
 2613TIP3   OH229473   1.612   1.286   0.114  0.6080 -0.7609  0.1691
 2613TIP3    H129474   1.549   1.335   0.167  1.3537 -0.5139  0.8376
 2613TIP3    H229475   1.621   1.202   0.159 -0.0172 -1.1969 -0.4997
 2614TIP3   OH229476   3.366   0.419   7.714 -0.0663  0.2331  0.1880
 2614TIP3    H129477   3.276   0.443   7.735  0.2202  0.5647  1.0608
 2614TIP3    H229478   3.382   0.460   7.629 -0.3519  1.1987  0.5871
 2615TIP3   OH229479   6.145   2.413   0.508  0.1727  0.6971 -0.4296
 2615TIP3    H129480   6.218   2.418   0.569 -0.1322  1.0456 -0.0950
 2615TIP3    H229481   6.184   2.380   0.427  0.6723  0.7442 -0.2099
 2616TIP3   OH229482   5.986   0.884   7.472 -0.4330  0.3496  0.0648
 2616TIP3    H129483   5.910   0.942   7.484 -1.4211 -1.3361  3.1122
 2616TIP3    H229484   6.060   0.944   7.461 -1.9930  2.0569 -2.1500
 2617TIP3   OH229485   2.111   0.962   1.903 -0.1608  0.0931  0.0185
 2617TIP3    H129486   2.020   0.982   1.927 -0.9320 -2.2047 -0.6523
 2617TIP3    H229487   2.148   0.922   1.982 -1.2195 -3.0628 -0.9047
 2618TIP3   OH229488   1.957   2.672   7.735  0.0102 -0.3977  0.0058
 2618TIP3    H129489   2.046   2.676   7.698  0.8877 -0.5317  2.0138
 2618TIP3    H229490   1.930   2.581   7.722  0.4074 -0.5058 -0.0823
 2619TIP3   OH229491   3.609   1.587   0.923 -0.2008 -0.0419 -0.1660
 2619TIP3    H129492   3.572   1.538   0.997 -0.9332  2.5168  1.2904
 2619TIP3    H229493   3.704   1.586   0.940 -0.1749 -1.1316 -0.3117
 2620TIP3   OH229494   4.716   5.876   0.646  0.3150  0.4577 -0.2924
 2620TIP3    H129495   4.632   5.830   0.643  0.8659 -0.7802  1.4737
 2620TIP3    H229496   4.706   5.941   0.714  1.9298 -2.4599  3.0852
 2621TIP3   OH229497   3.159   3.692   8.229  0.7155 -0.1948 -0.2950
 2621TIP3    H129498   3.124   3.692   8.318  1.3572  0.6229 -0.0223
 2621TIP3    H229499   3.148   3.602   8.198 -0.1092 -0.3346  0.3656
 2622TIP3   OH229500   0.769   1.931   2.726 -0.5066  0.3948  0.9373
 2622TIP3    H129501   0.804   2.002   2.672  0.2762 -0.0263  0.8799
 2622TIP3    H229502   0.762   1.969   2.814  1.3169  0.1309  1.2352
 2623TIP3   OH229503   0.376   5.351   0.988 -0.0597  0.1070  0.6923
 2623TIP3    H129504   0.317   5.331   0.915 -0.6909 -0.9176  1.4571
 2623TIP3    H229505   0.428   5.425   0.957 -0.8008  0.1465 -0.5257
 2624TIP3   OH229506   5.950   0.121   8.434  0.5863  0.0503  0.4914
 2624TIP3    H129507   5.907   0.166   8.361  2.7185 -0.5710 -1.2336
 2624TIP3    H229508   5.983   0.192   8.490 -1.0044  0.5333  0.8677
 2625TIP3   OH229509   5.270   5.547   1.746  0.1592 -0.2285 -0.1692
 2625TIP3    H129510   5.220   5.596   1.811  0.3824 -1.2234  0.7780
 2625TIP3    H229511   5.327   5.489   1.797 -1.1209 -2.5533 -1.1982
 2626TIP3   OH229512   5.697   5.102   0.092 -0.2754 -0.1938 -0.1834
 2626TIP3    H129513   5.768   5.048   0.127 -0.3972 -1.5947 -1.9311
 2626TIP3    H229514   5.738   5.150   0.020 -0.6606  0.4964  0.0547
 2627TIP3   OH229515   1.314   2.540   7.703  0.1598 -0.2038 -0.3700
 2627TIP3    H129516   1.385   2.535   7.767  0.4881 -1.6102 -0.8157
 2627TIP3    H229517   1.357   2.526   7.619 -0.1735  2.2374 -1.0101
 2628TIP3   OH229518   5.073   4.172   0.666 -1.0856 -0.4856 -0.2226
 2628TIP3    H129519   5.144   4.228   0.697 -0.8178 -1.1391  0.3952
 2628TIP3    H229520   5.096   4.085   0.698 -0.6354 -1.2851 -2.5787
 2629TIP3   OH229521   0.819   3.616   8.258 -0.3691 -0.4466 -0.0171
 2629TIP3    H129522   0.828   3.700   8.212 -0.0537  0.3482  1.4439
 2629TIP3    H229523   0.730   3.586   8.237  0.2050 -0.7722 -2.1825
 2630TIP3   OH229524   5.024   2.914   2.174  0.2076  0.2340 -0.1421
 2630TIP3    H129525   5.077   2.945   2.100  2.5353 -1.0339  0.8953
 2630TIP3    H229526   5.070   2.947   2.251 -0.6285 -0.7812  0.8177
 2631TIP3   OH229527   0.835   0.924   6.642  0.2810 -0.2653 -0.2586
 2631TIP3    H129528   0.852   0.878   6.559  0.0759  0.1171 -0.5160
 2631TIP3    H229529   0.760   0.878   6.679  0.1257 -0.1905 -0.4767
 2632TIP3   OH229530   0.412   6.556   1.720  0.1198  0.2305  0.5988
 2632TIP3    H129531   0.451   6.561   1.633 -0.1714  1.1258  0.5130
 2632TIP3    H229532   0.402   6.462   1.736  0.9891  0.0328  0.0399
 2633TIP3   OH229533   4.319   4.705   1.086 -0.0232 -0.3656  0.8346
 2633TIP3    H129534   4.289   4.670   1.170  0.5386 -0.8977  0.8215
 2633TIP3    H229535   4.414   4.692   1.087 -0.2167 -2.4116 -0.7729
 2634TIP3   OH229536   6.870   3.305   2.408  0.5088 -0.2998  0.1902
 2634TIP3    H129537   6.831   3.343   2.329 -0.3525  0.0367  0.7640
 2634TIP3    H229538   6.799   3.255   2.448  0.1048  1.7292  2.1744
 2635TIP3   OH229539   5.035   0.500   7.985  0.1623 -0.5642 -0.2425
 2635TIP3    H129540   5.119   0.507   7.939  1.3218  0.0823  1.8534
 2635TIP3    H229541   5.054   0.446   8.062 -1.0646  0.4583  0.8300
 2636TIP3   OH229542   6.714   5.994   7.853  0.0835  0.1458  0.3893
 2636TIP3    H129543   6.760   5.918   7.817  1.9455  1.4497 -0.1845
 2636TIP3    H229544   6.647   6.015   7.788 -0.8763 -1.3439  0.8618
 2637TIP3   OH229545   0.231   4.596   2.338  0.1848  0.5088  0.3957
 2637TIP3    H129546   0.225   4.661   2.267  1.9645 -2.3615 -2.6480
 2637TIP3    H229547   0.287   4.638   2.403 -0.3946  2.7794 -0.4668
 2638TIP3   OH229548   2.174   6.741   7.709  0.1159 -0.7305  0.4795
 2638TIP3    H129549   2.173   6.705   7.620 -1.4469 -0.7467  0.4859
 2638TIP3    H229550   2.108   6.691   7.756  0.6445 -0.4452  1.5633
 2639TIP3   OH229551   4.734   0.094   1.542  0.0973 -0.3731  0.8266
 2639TIP3    H129552   4.681   0.128   1.615  0.7016 -0.0377  1.1200
 2639TIP3    H229553   4.674   0.090   1.468 -0.2242  0.4684  1.0289
 2640TIP3   OH229554   6.647   5.775   1.157  0.1731  0.0868 -0.0828
 2640TIP3    H129555   6.584   5.725   1.105 -5.5099  3.7029  2.3375
 2640TIP3    H229556   6.697   5.825   1.092 -2.8208  0.4543 -2.3495
 2641TIP3   OH229557   3.395   6.300   1.932  0.0476 -0.4200  0.1644
 2641TIP3    H129558   3.469   6.282   1.990  0.1598 -1.6511 -0.3402
 2641TIP3    H229559   3.392   6.396   1.927  0.8064 -0.3201  1.1976
 2642TIP3   OH229560   1.297   1.562   8.366  0.1482  1.0846 -0.0389
 2642TIP3    H129561   1.246   1.523   8.437 -1.3001 -0.6067 -1.8846
 2642TIP3    H229562   1.387   1.536   8.384 -0.2447  0.3413  0.9658
 2643TIP3   OH229563   4.276   3.468   7.095 -0.2063  0.0969 -0.0366
 2643TIP3    H129564   4.213   3.412   7.049 -1.0323  0.2408  0.8656
 2643TIP3    H229565   4.359   3.453   7.051 -0.8151 -0.3273 -1.0830
 2644TIP3   OH229566   1.775   0.741   6.267 -0.1791  0.1185 -0.0848
 2644TIP3    H129567   1.794   0.810   6.203 -0.3527 -0.4286 -0.7426
 2644TIP3    H229568   1.679   0.736   6.269 -0.1586 -0.7334 -0.7441
 2645TIP3   OH229569   3.894   2.713   7.107  1.0383 -0.0194 -0.3722
 2645TIP3    H129570   3.806   2.749   7.117  0.5257 -0.5698 -2.4220
 2645TIP3    H229571   3.952   2.789   7.110  0.3122  0.5702 -0.9115
 2646TIP3   OH229572   3.123   5.855   7.711 -0.1363  0.1411  0.1751
 2646TIP3    H129573   3.122   5.920   7.641  1.9255 -1.6112 -1.6306
 2646TIP3    H229574   3.166   5.779   7.672 -1.1690 -1.8229  2.6213
 2647TIP3   OH229575   5.051   1.415   2.431  0.3265  0.0483  0.2494
 2647TIP3    H129576   4.970   1.370   2.456 -0.1317  1.1573  0.8356
 2647TIP3    H229577   5.081   1.457   2.512  1.9459 -1.0149  0.2397
 2648TIP3   OH229578   1.044   0.668   2.605  0.3877  0.3444  0.3168
 2648TIP3    H129579   0.996   0.673   2.687  0.9553  1.7302  0.6003
 2648TIP3    H229580   1.126   0.625   2.628 -0.7567 -2.3288 -0.2329
 2649TIP3   OH229581   1.914   2.069   7.192 -0.2724 -0.3238 -0.2068
 2649TIP3    H129582   1.880   2.098   7.276 -0.7203 -0.6548 -0.2741
 2649TIP3    H229583   1.842   2.082   7.131 -0.7006 -2.1492 -0.1314
 2650TIP3   OH229584   4.978   5.596   8.516 -0.1561  0.2565 -0.0397
 2650TIP3    H129585   4.999   5.524   8.457 -0.8651 -1.3499  1.5674
 2650TIP3    H229586   4.902   5.565   8.566 -0.3357  2.0266  0.8681
 2651TIP3   OH229587   2.472   5.306   2.041  0.1785 -0.1511  0.0944
 2651TIP3    H129588   2.550   5.343   2.083  0.4601 -1.3075  0.6416
 2651TIP3    H229589   2.469   5.215   2.072  0.2770 -1.0293 -2.2543
 2652TIP3   OH229590   3.629   4.934   8.041 -0.3803  0.1139  0.2374
 2652TIP3    H129591   3.593   4.929   7.952 -0.6709 -0.2246  0.3734
 2652TIP3    H229592   3.559   4.971   8.094  0.5888  2.6869 -0.1012
 2653TIP3   OH229593   0.815   1.586   1.543  0.3444 -0.1818  0.2576
 2653TIP3    H129594   0.788   1.675   1.520  1.7905 -0.1993 -1.8242
 2653TIP3    H229595   0.741   1.532   1.517  0.5455  0.1811 -1.1813
 2654TIP3   OH229596   2.817   2.384   0.858 -0.0137 -0.8017  0.1985
 2654TIP3    H129597   2.776   2.450   0.914  0.4273 -0.8547  0.5958
 2654TIP3    H229598   2.744   2.340   0.815 -0.3461 -0.5345  0.4811
 2655TIP3   OH229599   3.778   4.209   1.076  0.0164 -0.2795  0.2604
 2655TIP3    H129600   3.707   4.171   1.026  2.1053 -2.4741 -1.2902
 2655TIP3    H229601   3.846   4.227   1.011  0.8435  1.9071  1.6334
 2656TIP3   OH229602   2.902   5.084   1.997  0.2453 -0.0076 -0.1980
 2656TIP3    H129603   2.972   5.019   1.982  0.4857  0.2672 -0.2783
 2656TIP3    H229604   2.860   5.093   1.911 -1.1361 -1.5805  0.2537
 2657TIP3   OH229605   3.994   0.253   0.279  0.0970 -0.0933 -0.1312
 2657TIP3    H129606   3.993   0.182   0.343 -1.9754 -0.6748 -0.7432
 2657TIP3    H229607   4.043   0.219   0.205 -0.0345 -0.5160 -0.0245
 2658TIP3   OH229608   0.778   0.170   2.169  0.4302  0.9303 -0.4507
 2658TIP3    H129609   0.825   0.245   2.205  0.4259  1.1807 -0.9582
 2658TIP3    H229610   0.756   0.117   2.246  1.2894  0.9489 -0.1822
 2659TIP3   OH229611   0.180   2.779   7.682 -0.0779 -0.4205  0.2802
 2659TIP3    H129612   0.136   2.863   7.676  1.4287  0.4522  0.8415
 2659TIP3    H229613   0.111   2.714   7.668 -1.7429  0.8136  2.2127
 2660TIP3   OH229614   5.065   2.095   0.652 -0.5756 -0.2226 -0.7646
 2660TIP3    H129615   5.149   2.140   0.644 -1.0906  0.8609 -0.2981
 2660TIP3    H229616   5.086   2.012   0.695  0.2752 -0.0305 -0.8066
 2661TIP3   OH229617   3.488   2.934   7.318 -0.0023  0.0768 -0.2128
 2661TIP3    H129618   3.399   2.902   7.310  0.2751 -0.4613 -1.2018
 2661TIP3    H229619   3.541   2.874   7.266  0.7253  1.2895 -0.9317
 2662TIP3   OH229620   5.103   2.126   1.471  0.3820 -0.3959 -0.4908
 2662TIP3    H129621   5.016   2.118   1.431  0.6100 -1.3940 -0.8212
 2662TIP3    H229622   5.164   2.113   1.398  0.8095  0.0145 -0.2098
 2663TIP3   OH229623   0.962   3.223   0.195  0.1874  0.0707 -0.2940
 2663TIP3    H129624   0.882   3.275   0.186  1.2208  1.4892 -1.7989
 2663TIP3    H229625   0.934   3.133   0.177 -1.5931  0.0163  2.0795
 2664TIP3   OH229626   1.082   3.372   1.179 -0.2640 -0.2071 -0.1014
 2664TIP3    H129627   1.125   3.445   1.223 -1.7304  1.2196 -0.9029
 2664TIP3    H229628   1.153   3.319   1.145  0.8562  0.4663  1.0901
 2665TIP3   OH229629   4.040   5.874   2.537 -0.2332  0.0691  0.1463
 2665TIP3    H129630   4.128   5.885   2.502 -0.4759  0.2681 -0.4137
 2665TIP3    H229631   4.052   5.866   2.632  0.6455 -2.7317 -0.1230
 2666TIP3   OH229632   1.710   2.340   7.949  0.5641 -0.2269 -0.0463
 2666TIP3    H129633   1.655   2.411   7.915  2.0628  0.2902 -1.5306
 2666TIP3    H229634   1.648   2.271   7.973 -0.7553  0.3319 -1.6507
 2667TIP3   OH229635   4.081   3.713   8.172 -0.2774  0.0974  0.1457
 2667TIP3    H129636   4.132   3.712   8.252  1.8723  1.3796 -1.0996
 2667TIP3    H229637   4.055   3.622   8.158  2.8858 -0.9238  0.1824
 2668TIP3   OH229638   2.568   2.436   7.613 -0.5505  0.0777  0.3286
 2668TIP3    H129639   2.586   2.343   7.622  0.3641  0.1017 -0.9620
 2668TIP3    H229640   2.477   2.446   7.640  0.0124 -0.7738  2.8335
 2669TIP3   OH229641   6.346   5.396   8.290 -0.2110 -0.2514 -0.2526
 2669TIP3    H129642   6.310   5.454   8.357 -0.5784 -2.1015  1.2107
 2669TIP3    H229643   6.273   5.340   8.264  0.8551 -2.1679  0.7038
 2670TIP3   OH229644   4.424   6.787   8.267  0.0102  0.1943  0.1410
 2670TIP3    H129645   4.381   6.806   8.184 -2.1131  0.9064  1.3101
 2670TIP3    H229646   4.434   6.692   8.268 -0.8568  0.0851 -0.5434
 2671TIP3   OH229647   5.434   4.546   8.107  0.2671 -0.4495  0.5268
 2671TIP3    H129648   5.429   4.562   8.013 -3.7380 -0.5869  0.5396
 2671TIP3    H229649   5.525   4.562   8.130  1.4815 -0.8031 -3.4092
 2672TIP3   OH229650   2.159   1.583   7.021  0.4230 -0.8320  0.4274
 2672TIP3    H129651   2.089   1.519   7.007  1.0525 -1.6725  0.9946
 2672TIP3    H229652   2.142   1.617   7.109 -0.2849  0.2852 -0.1218
 2673TIP3   OH229653   6.914   1.053   2.480  0.4046 -0.5806  0.0814
 2673TIP3    H129654   6.985   0.990   2.469 -0.4605 -1.5361 -0.2197
 2673TIP3    H229655   6.836   1.007   2.447 -0.2630  0.6173 -0.0579
 2674TIP3   OH229656   5.537   0.659   1.344 -0.3788 -0.3677 -0.4149
 2674TIP3    H129657   5.553   0.637   1.252 -0.4493  1.6592 -0.9586
 2674TIP3    H229658   5.516   0.752   1.343  0.0437 -0.2030  1.7230
 2675TIP3   OH229659   3.868   1.380   0.123  0.1407  0.0474 -0.4983
 2675TIP3    H129660   3.817   1.440   0.069  0.4544  0.2367 -0.5826
 2675TIP3    H229661   3.833   1.392   0.211  1.1846  1.4414 -0.2364
 2676TIP3   OH229662   0.794   3.966   7.718  0.0735  0.7344 -0.7056
 2676TIP3    H129663   0.813   3.942   7.627 -0.0279 -2.3804 -0.0374
 2676TIP3    H229664   0.835   4.051   7.730  2.2591  0.1258 -2.9990
 2677TIP3   OH229665   1.716   3.063   0.460 -0.8991 -0.2530  0.0552
 2677TIP3    H129666   1.739   3.140   0.409  0.5583 -1.5241 -1.2946
 2677TIP3    H229667   1.771   3.069   0.539 -0.7072  0.0232 -0.0988
 2678TIP3   OH229668   2.811   4.808   6.947  0.5034  0.5806 -0.0787
 2678TIP3    H129669   2.893   4.858   6.946  0.3942  0.8659  1.7826
 2678TIP3    H229670   2.786   4.801   6.855  1.8650  1.7345 -0.5710
 2679TIP3   OH229671   4.652   4.571   2.504  0.5588  0.3558  0.6851
 2679TIP3    H129672   4.703   4.571   2.423  1.8734 -1.1761  1.4549
 2679TIP3    H229673   4.694   4.637   2.558  0.0306  0.9828  0.3414
 2680TIP3   OH229674   5.836   3.205   0.953  0.5744  0.0609 -0.3495
 2680TIP3    H129675   5.776   3.133   0.971  1.3501  0.0386  2.5600
 2680TIP3    H229676   5.784   3.267   0.902 -1.6014 -0.4468  1.1382
 2681TIP3   OH229677   6.737   2.897   0.066 -0.4776 -0.3877  0.2613
 2681TIP3    H129678   6.783   2.833   0.121 -0.6418 -0.5203  0.2441
 2681TIP3    H229679   6.718   2.970   0.126  2.8760  1.2872 -0.4719
 2682TIP3   OH229680   6.687   0.633   7.232 -0.0001 -0.0689 -0.0310
 2682TIP3    H129681   6.776   0.645   7.266  0.4293 -0.8725 -0.7992
 2682TIP3    H229682   6.697   0.565   7.164 -1.0577  0.4119 -0.6954
 2683TIP3   OH229683   0.474   2.385   0.733  0.0135 -0.3148  0.3196
 2683TIP3    H129684   0.394   2.399   0.784 -0.6534 -1.9281 -0.1971
 2683TIP3    H229685   0.451   2.412   0.644 -0.3749 -1.8498 -0.0783
 2684TIP3   OH229686   6.915   2.314   2.362 -0.0026 -0.5446 -0.4105
 2684TIP3    H129687   6.886   2.279   2.278 -0.2571  0.9335 -0.9545
 2684TIP3    H229688   6.835   2.318   2.415  0.3305 -2.5639  0.3606
 2685TIP3   OH229689   4.965   6.245   1.681 -0.6869 -0.3832 -0.5740
 2685TIP3    H129690   5.033   6.290   1.731 -1.5730  1.5315 -1.0076
 2685TIP3    H229691   4.887   6.249   1.736 -0.8990 -1.0400 -0.8085
 2686TIP3   OH229692   2.977   1.232   0.684  0.0112 -0.3657  0.3075
 2686TIP3    H129693   3.023   1.173   0.624  0.0739  0.6372 -0.6615
 2686TIP3    H229694   3.000   1.320   0.654  0.2986  0.1914  2.0025
 2687TIP3   OH229695   5.362   5.098   0.569  0.3592 -0.2387  0.5841
 2687TIP3    H129696   5.298   5.144   0.515  1.3750  0.9423  0.3443
 2687TIP3    H229697   5.309   5.037   0.622 -1.1582  1.6714  1.4217
 2688TIP3   OH229698   2.121   4.500   7.667  0.3404 -0.6794  0.7161
 2688TIP3    H129699   2.197   4.551   7.695 -0.0690 -0.0368  0.7028
 2688TIP3    H229700   2.153   4.411   7.657  1.3107 -0.2530 -0.1623
 2689TIP3   OH229701   1.919   6.409   1.312  0.2117 -0.0625 -0.2209
 2689TIP3    H129702   1.979   6.336   1.300 -1.4784 -1.4026 -0.8217
 2689TIP3    H229703   1.928   6.433   1.404  0.4437 -1.3361  0.0998
 2690TIP3   OH229704   6.709   2.139   8.401 -0.3025  0.4129  0.3018
 2690TIP3    H129705   6.706   2.055   8.447 -2.6007 -0.7725 -1.7970
 2690TIP3    H229706   6.705   2.115   8.308  0.6952  2.8236 -0.4363
 2691TIP3   OH229707   4.236   2.630   0.648  0.0002 -0.3377 -0.3248
 2691TIP3    H129708   4.320   2.592   0.673  0.9989  0.5179 -2.1291
 2691TIP3    H229709   4.221   2.701   0.711  0.7804 -0.3097 -0.1678
 2692TIP3   OH229710   5.934   3.666   1.443 -0.2227  0.2379  0.0268
 2692TIP3    H129711   5.914   3.608   1.517 -0.6738  0.8502  0.4035
 2692TIP3    H229712   5.850   3.708   1.423 -0.4151 -0.8766 -1.7079
 2693TIP3   OH229713   2.132   3.721   1.920 -0.2356  0.0495 -0.3554
 2693TIP3    H129714   2.057   3.777   1.938 -0.7481 -0.3537 -1.1742
 2693TIP3    H229715   2.128   3.704   1.826  0.8082 -0.0890 -0.3959
 2694TIP3   OH229716   5.751   6.089   0.105  0.2528 -0.1139  0.3727
 2694TIP3    H129717   5.778   6.049   0.187  0.0722 -0.3943  0.2947
 2694TIP3    H229718   5.770   6.182   0.117 -0.4450 -0.0429  1.0122
 2695TIP3   OH229719   0.713   5.784   8.007 -0.3874  0.2779 -0.2058
 2695TIP3    H129720   0.745   5.861   7.960 -1.4868  1.2392  0.5591
 2695TIP3    H229721   0.785   5.761   8.066 -0.3754  1.2844  0.1955
 2696TIP3   OH229722   3.412   5.063   1.264 -0.2908 -0.1689  0.1880
 2696TIP3    H129723   3.465   5.011   1.204 -1.5293  1.1948 -2.2404
 2696TIP3    H229724   3.357   4.998   1.309  0.4057 -1.2016 -0.4037
 2697TIP3   OH229725   4.415   0.655   0.871  0.0339 -0.4049 -0.4568
 2697TIP3    H129726   4.390   0.574   0.826 -0.9188  0.0860 -0.8332
 2697TIP3    H229727   4.449   0.626   0.956 -0.5585 -1.1859 -0.4759
 2698TIP3   OH229728   4.519   5.746   0.934 -0.5866  0.2511  0.2583
 2698TIP3    H129729   4.496   5.744   0.841 -2.3751  1.0670  0.6413
 2698TIP3    H229730   4.602   5.698   0.939 -0.7912 -0.3987 -1.6510
 2699TIP3   OH229731   3.208   5.541   0.550 -0.5211  0.2913  0.5373
 2699TIP3    H129732   3.117   5.513   0.564 -0.1236 -0.6037  1.4732
 2699TIP3    H229733   3.258   5.495   0.617  0.4941  1.5703  0.7037
 2700TIP3   OH229734   5.777   5.419   1.912 -0.5331  0.0448 -0.2605
 2700TIP3    H129735   5.750   5.408   1.820 -1.6327 -0.0442  0.0550
 2700TIP3    H229736   5.824   5.502   1.913 -0.7094  0.1609 -0.8743
 2701TIP3   OH229737   2.949   0.441   0.363 -0.7133 -0.0145 -0.6500
 2701TIP3    H129738   2.858   0.470   0.357 -1.4838 -2.2907 -1.2539
 2701TIP3    H229739   2.943   0.347   0.383  1.5746  0.3821  2.7037
 2702TIP3   OH229740   4.230   4.802   0.840  0.0682  0.6710 -0.6705
 2702TIP3    H129741   4.258   4.755   0.919 -0.3935 -1.5689 -1.7438
 2702TIP3    H229742   4.307   4.801   0.783 -0.0224  0.9986 -0.7992
 2703TIP3   OH229743   0.975   0.673   7.346  0.1574  0.0453  0.0224
 2703TIP3    H129744   0.907   0.718   7.294 -1.4097 -1.5941  0.5510
 2703TIP3    H229745   1.039   0.644   7.281 -0.8103 -0.3360 -0.7914
 2704TIP3   OH229746   6.850   5.656   8.084  0.3304 -0.0442  0.2838
 2704TIP3    H129747   6.810   5.649   8.171 -1.5675  0.1209 -0.5289
 2704TIP3    H229748   6.929   5.708   8.099  0.1073 -0.1100  1.9334
 2705TIP3   OH229749   0.253   6.559   8.240  0.4750 -0.2105  0.0101
 2705TIP3    H129750   0.329   6.601   8.280  0.6025 -1.0535  0.6783
 2705TIP3    H229751   0.290   6.491   8.183  0.2207 -0.8641  0.6151
 2706TIP3   OH229752   6.603   4.224   8.397 -0.7702 -0.3428  0.1192
 2706TIP3    H129753   6.664   4.197   8.328  0.8071  0.6263  1.0774
 2706TIP3    H229754   6.637   4.308   8.427 -2.4138  0.0721  0.9384
 2707TIP3   OH229755   6.203   3.947   2.535 -0.1706  0.1238 -0.1648
 2707TIP3    H129756   6.220   4.019   2.596  0.2592  0.7132 -0.9647
 2707TIP3    H229757   6.111   3.925   2.550 -0.9413  2.2475 -1.3258
 2708TIP3   OH229758   1.084   5.835   7.493 -0.7226  0.1610  0.2962
 2708TIP3    H129759   1.089   5.741   7.476 -0.0504 -0.3024  2.6472
 2708TIP3    H229760   1.110   5.876   7.411  2.4160 -1.7686  0.1849
 2709TIP3   OH229761   2.802   6.678   0.103  0.3126  0.1471 -0.6401
 2709TIP3    H129762   2.732   6.671   0.038  0.0585  1.6151 -0.5605
 2709TIP3    H229763   2.864   6.740   0.064  0.3492  0.7450  0.3363
 2710TIP3   OH229764   5.369   3.164   2.758  0.0624  0.1497 -0.3962
 2710TIP3    H129765   5.414   3.091   2.800 -1.6461 -0.2564  0.8245
 2710TIP3    H229766   5.367   3.233   2.825  1.1035  1.1281 -1.3165
 2711TIP3   OH229767   6.169   3.384   0.405  0.1068  0.3302  0.3362
 2711TIP3    H129768   6.214   3.451   0.456  0.7441  0.8717 -0.9036
 2711TIP3    H229769   6.191   3.404   0.314 -0.3272 -1.0956 -0.1089
 2712TIP3   OH229770   0.592   4.776   1.442  0.0368  0.4779  0.0881
 2712TIP3    H129771   0.668   4.724   1.415 -1.0884 -1.4421  0.4384
 2712TIP3    H229772   0.619   4.866   1.427  2.3448 -0.1311  0.0983
 2713TIP3   OH229773   0.309   1.965   2.238  0.1050  0.2249  0.3703
 2713TIP3    H129774   0.221   1.975   2.203 -0.0045 -0.6454  0.3653
 2713TIP3    H229775   0.310   1.877   2.276  1.4010 -0.3549 -0.8991
 2714TIP3   OH229776   4.615   3.731   0.886 -0.7572  0.3958 -0.4985
 2714TIP3    H129777   4.656   3.766   0.965 -0.3413 -1.2138  0.0373
 2714TIP3    H229778   4.550   3.797   0.862 -0.6905  1.0631  1.0184
 2715TIP3   OH229779   3.319   0.137   0.463 -0.1139  0.3136  0.1895
 2715TIP3    H129780   3.234   0.124   0.505 -0.4589 -4.2436 -1.3055
 2715TIP3    H229781   3.298   0.163   0.374  0.0365 -0.3332 -0.0417
 2716TIP3   OH229782   3.041   2.773   1.766  0.0628 -0.1159 -0.2433
 2716TIP3    H129783   3.059   2.842   1.703 -1.6405  0.3213 -0.3159
 2716TIP3    H229784   2.957   2.737   1.739  0.0198 -0.9398  0.8935
 2717TIP3   OH229785   5.186   1.843   1.602 -0.8959 -0.2412 -0.0190
 2717TIP3    H129786   5.158   1.881   1.518 -0.6569  1.0273  0.4557
 2717TIP3    H229787   5.137   1.761   1.608 -0.7756 -0.4488 -1.4889
 2718TIP3   OH229788   2.145   5.826   7.914  0.0866  0.5511  0.2336
 2718TIP3    H129789   2.197   5.901   7.884  2.8742 -2.0444 -2.2078
 2718TIP3    H229790   2.087   5.806   7.840  1.2735 -1.1431 -0.3168
 2719TIP3   OH229791   5.130   0.470   7.642  0.3254 -0.2364  0.3940
 2719TIP3    H129792   5.206   0.455   7.585 -0.2100 -1.3676 -0.0474
 2719TIP3    H229793   5.166   0.520   7.716  0.8772  1.9780 -1.2678
 2720TIP3   OH229794   5.858   5.909   7.665  0.0220 -0.0658 -0.9534
 2720TIP3    H129795   5.915   5.957   7.725  2.0535 -2.6198 -0.6679
 2720TIP3    H229796   5.917   5.868   7.602 -1.7597 -0.5772 -2.3868
 2721TIP3   OH229797   5.918   4.926   0.814  0.2504  0.6120 -0.1362
 2721TIP3    H129798   5.903   4.968   0.729 -0.7140  1.0143  0.2228
 2721TIP3    H229799   5.903   4.833   0.798 -2.9053  0.9799  0.2056
 2722TIP3   OH229800   4.647   5.294   6.570 -0.0098  0.2767  0.3740
 2722TIP3    H129801   4.671   5.208   6.534  1.2243  1.1268 -0.9663
 2722TIP3    H229802   4.679   5.291   6.660 -1.1665 -1.1213  0.7710
 2723TIP3   OH229803   6.911   0.097   2.788 -0.1123 -0.3206 -0.0923
 2723TIP3    H129804   6.822   0.133   2.789 -1.8498 -4.0413 -1.6876
 2723TIP3    H229805   6.930   0.081   2.696  1.3585 -1.4908  0.3643
 2724TIP3   OH229806   5.428   3.984   8.149  0.2803  0.0734  0.9118
 2724TIP3    H129807   5.352   4.006   8.202 -1.0856  1.1709 -1.3780
 2724TIP3    H229808   5.464   4.068   8.121  1.5862 -0.4578  0.9239
 2725TIP3   OH229809   0.108   2.504   1.521 -0.1206  0.0115 -0.2938
 2725TIP3    H129810   0.197   2.520   1.490  0.0202  0.3164  0.2496
 2725TIP3    H229811   0.110   2.413   1.553 -0.2758 -0.3117 -1.1922
 2726TIP3   OH229812   6.464   6.284   8.167  0.3591 -0.0819  0.5655
 2726TIP3    H129813   6.530   6.234   8.215  1.1201  0.5605  0.2200
 2726TIP3    H229814   6.508   6.310   8.086 -0.6565 -0.4940 -0.1321
 2727TIP3   OH229815   5.283   1.536   2.258 -0.3230 -0.1096 -0.2702
 2727TIP3    H129816   5.265   1.629   2.241  0.1681  0.3495  1.4860
 2727TIP3    H229817   5.211   1.509   2.316  0.3285 -0.4075  0.4128
 2728TIP3   OH229818   0.936   5.174   0.407 -0.3334  0.4708  0.0816
 2728TIP3    H129819   1.010   5.147   0.460 -0.0561 -1.2131 -1.0967
 2728TIP3    H229820   0.964   5.257   0.367  0.4389  0.4442  0.5490
 2729TIP3   OH229821   4.873   0.127   6.755 -0.0397  0.5681  0.7715
 2729TIP3    H129822   4.961   0.111   6.719  0.5863  0.9116  2.0903
 2729TIP3    H229823   4.815   0.073   6.701  1.0738 -0.2462  0.3439
 2730TIP3   OH229824   6.317   6.469   0.731  0.4093  0.1228  0.3419
 2730TIP3    H129825   6.362   6.427   0.657  1.2154  2.1356 -0.3907
 2730TIP3    H229826   6.387   6.494   0.790 -0.1673 -0.6376  1.3742
 2731TIP3   OH229827   3.221   0.889   0.200 -0.5204 -0.7597 -0.0026
 2731TIP3    H129828   3.265   0.974   0.194 -0.5298 -0.7163  0.5206
 2731TIP3    H229829   3.191   0.884   0.291 -3.7784  0.2779 -0.9134
 2732TIP3   OH229830   4.964   4.469   2.618 -0.0190 -0.1416 -0.2710
 2732TIP3    H129831   5.004   4.493   2.534  0.1397 -0.6275 -0.3394
 2732TIP3    H229832   4.902   4.400   2.595  0.4454 -0.6850  0.0868
 2733TIP3   OH229833   5.838   0.505   7.332 -0.1901  0.1727 -0.0072
 2733TIP3    H129834   5.923   0.490   7.291  0.0103  0.1438  0.4189
 2733TIP3    H229835   5.813   0.420   7.368 -0.3862  0.1882 -0.1049
 2734TIP3   OH229836   2.433   6.917   1.419  0.1304 -1.1238  0.2778
 2734TIP3    H129837   2.479   6.999   1.406 -2.8979  0.7198  0.1564
 2734TIP3    H229838   2.488   6.867   1.480  1.3311  1.6510  1.6150
 2735TIP3   OH229839   5.806   1.084   7.254 -0.0900 -0.0829  0.0824
 2735TIP3    H129840   5.796   1.082   7.349  0.1634  0.2988  0.1182
 2735TIP3    H229841   5.723   1.119   7.221  0.4029  1.3446  0.2699
 2736TIP3   OH229842   0.059   0.237   8.376 -0.2320  0.0196  0.3051
 2736TIP3    H129843   0.041   0.217   8.467  0.2093 -1.8528  0.0122
 2736TIP3    H229844   0.149   0.270   8.376  0.4709 -1.8148  0.3402
 2737TIP3   OH229845   5.117   6.555   8.141 -0.0515 -0.2878 -0.4695
 2737TIP3    H129846   5.105   6.499   8.065 -0.1885 -0.7110 -0.1375
 2737TIP3    H229847   5.033   6.554   8.185  0.2917 -0.7869  0.1889
 2738TIP3   OH229848   1.313   6.055   1.746  0.0204  0.3924  0.7986
 2738TIP3    H129849   1.341   5.995   1.676 -2.5929 -1.5151  1.2460
 2738TIP3    H229850   1.346   6.015   1.826 -1.6694 -0.4745  1.0923
 2739TIP3   OH229851   5.292   6.539   1.234  0.6652  0.5404 -0.4457
 2739TIP3    H129852   5.320   6.464   1.286  1.0483 -0.3293 -1.8651
 2739TIP3    H229853   5.369   6.596   1.231  0.6016  0.6539  0.0371
 2740TIP3   OH229854   0.995   5.774   7.948 -0.6776 -0.2917  0.6970
 2740TIP3    H129855   1.042   5.701   7.907 -0.4917 -0.1668  0.6867
 2740TIP3    H229856   1.052   5.803   8.019  2.2541  3.6460 -2.7257
 2741TIP3   OH229857   6.282   0.383   1.589 -0.2246 -0.0617 -0.1899
 2741TIP3    H129858   6.318   0.354   1.672 -1.8097 -0.6876  0.3054
 2741TIP3    H229859   6.247   0.304   1.548  0.8595  0.1622 -1.6536
 2742TIP3   OH229860   5.846   6.036   0.907 -0.3501  0.8416  0.5981
 2742TIP3    H129861   5.822   6.114   0.856 -1.0051 -0.4799 -1.2399
 2742TIP3    H229862   5.939   6.024   0.889 -0.7475 -0.0768 -1.0453
 2743TIP3   OH229863   0.385   6.232   1.449 -0.8950 -0.4037 -0.1395
 2743TIP3    H129864   0.319   6.163   1.443 -1.0776 -0.5175  2.2587
 2743TIP3    H229865   0.336   6.313   1.440 -0.8770 -0.5156 -1.5053
 2744TIP3   OH229866   1.024   2.296   1.094  0.1251  0.2847  0.3602
 2744TIP3    H129867   0.979   2.239   1.032  0.3525  1.3339 -0.8174
 2744TIP3    H229868   1.107   2.318   1.050  0.7528  0.2216  1.4883
 2745TIP3   OH229869   4.350   5.708   1.752 -0.3416  0.0736 -0.3163
 2745TIP3    H129870   4.374   5.639   1.815 -2.6665 -0.9752 -0.4956
 2745TIP3    H229871   4.376   5.672   1.667  0.8423  0.5810 -0.1900
 2746TIP3   OH229872   6.032   6.085   8.393  0.1762  0.1749 -0.2562
 2746TIP3    H129873   5.987   6.166   8.417  0.3053  0.2296 -0.1981
 2746TIP3    H229874   6.120   6.112   8.370  0.1167  0.0957 -0.5879
 2747TIP3   OH229875   4.949   1.340   7.820 -0.1587  0.1372 -0.0238
 2747TIP3    H129876   4.957   1.361   7.727 -0.8348  0.0204 -0.1180
 2747TIP3    H229877   4.860   1.306   7.829 -0.3302  0.7670  0.7791
 2748TIP3   OH229878   2.740   6.896   1.870 -0.4686  0.2056  0.2822
 2748TIP3    H129879   2.734   6.975   1.923  0.4381  0.3201  0.2254
 2748TIP3    H229880   2.679   6.835   1.911 -2.7029  1.5726 -0.8623
 2749TIP3   OH229881   0.727   6.623   0.395  0.2579  0.0030  1.2116
 2749TIP3    H129882   0.757   6.533   0.382  0.9860  0.4554 -0.5764
 2749TIP3    H229883   0.806   6.672   0.415  0.3523  0.7017 -0.6475
 2750TIP3   OH229884   3.381   4.998   0.657  0.2631 -0.2372  0.0279
 2750TIP3    H129885   3.360   4.956   0.574  1.4874  0.4166 -0.6507
 2750TIP3    H229886   3.426   5.079   0.632  0.8482 -0.1347  1.3186
 2751TIP3   OH229887   2.656   3.028   1.213 -0.2623  0.0228  0.2593
 2751TIP3    H129888   2.720   3.095   1.188 -0.7930  1.3853  2.2909
 2751TIP3    H229889   2.639   3.044   1.306 -1.9925 -1.6286  0.2998
 2752TIP3   OH229890   1.544   3.019   7.016  0.5079 -0.5929 -0.1913
 2752TIP3    H129891   1.530   3.113   7.001 -0.1115 -0.5928  0.3251
 2752TIP3    H229892   1.593   3.016   7.099  0.7791 -0.7199 -0.3549
 2753TIP3   OH229893   2.285   4.718   0.609  0.7505  0.2142  0.2412
 2753TIP3    H129894   2.287   4.740   0.516 -0.1667 -0.6241 -0.0009
 2753TIP3    H229895   2.350   4.648   0.619  0.3532 -0.1875  0.0754
 2754TIP3   OH229896   2.350   4.632   7.392 -0.2186  0.4143 -0.6606
 2754TIP3    H129897   2.292   4.652   7.318  0.6603 -2.0874 -2.1260
 2754TIP3    H229898   2.405   4.560   7.362 -0.6287 -1.6279  2.8250
 2755TIP3   OH229899   2.300   4.397   6.741  0.0247  0.5035 -0.3996
 2755TIP3    H129900   2.390   4.391   6.773 -0.0817 -1.4892 -0.3349
 2755TIP3    H229901   2.247   4.363   6.812 -0.5372 -0.5680 -1.2915
 2756TIP3   OH229902   3.286   0.192   2.091 -0.2082  0.0898  0.3795
 2756TIP3    H129903   3.381   0.180   2.098 -0.1979 -1.6126 -1.8258
 2756TIP3    H229904   3.273   0.238   2.008 -1.3879 -1.1838 -0.1787
 2757TIP3   OH229905   3.982   3.327   0.367 -0.2433  0.0037  0.0036
 2757TIP3    H129906   4.040   3.250   0.368  1.5036  1.2580  1.1025
 2757TIP3    H229907   3.901   3.295   0.328  0.6162 -2.2566 -0.0962
 2758TIP3   OH229908   0.014   6.837   0.017  0.0844 -0.5288 -0.1476
 2758TIP3    H129909   0.068   6.911  -0.012  0.3828 -0.4581  0.5670
 2758TIP3    H229910   0.054   6.761  -0.026 -0.4698 -0.2436 -1.2152
 2759TIP3   OH229911   4.599   3.127   1.024  0.1895 -0.7298 -0.2723
 2759TIP3    H129912   4.588   3.046   0.974  1.3945 -0.7276 -0.5699
 2759TIP3    H229913   4.679   3.113   1.074  1.4144  0.9160 -1.6555
 2760TIP3   OH229914   5.881   4.587   0.037 -0.2788 -0.1682  0.1217
 2760TIP3    H129915   5.854   4.506   0.079  0.4121 -0.0385  0.8480
 2760TIP3    H229916   5.976   4.588   0.046 -0.2648  0.6319 -0.0359
 2761TIP3   OH229917   0.776   1.142   6.207  0.4807 -0.4254 -0.2794
 2761TIP3    H129918   0.803   1.051   6.219  2.3422 -0.1287 -1.8219
 2761TIP3    H229919   0.830   1.174   6.134  2.5653  2.9837  2.4681
 2762TIP3   OH229920   1.789   0.034   7.414  0.1455 -0.0389  0.2950
 2762TIP3    H129921   1.767   0.054   7.505 -0.4547 -0.3086  0.2130
 2762TIP3    H229922   1.717   0.071   7.363  0.4581  0.0744 -0.0654
 2763TIP3   OH229923   4.192   1.831   0.354 -0.1773  0.0487  0.0052
 2763TIP3    H129924   4.237   1.900   0.307  0.1814  0.0896  0.3986
 2763TIP3    H229925   4.154   1.776   0.286  1.1054 -0.4175 -0.3744
 2764TIP3   OH229926   0.053   5.664   1.152 -0.3660  0.1953  0.0063
 2764TIP3    H129927   0.064   5.617   1.070  1.7934 -3.3947  2.0905
 2764TIP3    H229928  -0.040   5.655   1.172 -0.2966 -2.0751 -0.4156
 2765TIP3   OH229929   5.440   5.791   1.169  0.4273 -0.3061  0.0871
 2765TIP3    H129930   5.494   5.819   1.244  0.6874 -0.1499 -0.1570
 2765TIP3    H229931   5.478   5.708   1.142 -0.2074 -0.8043  0.6712
 2766TIP3   OH229932   2.428   5.807   0.111  0.4596  0.0084 -0.8744
 2766TIP3    H129933   2.406   5.894   0.144 -1.9341 -0.9788  0.4518
 2766TIP3    H229934   2.424   5.751   0.189  1.4691 -1.3582 -1.7731
 2767TIP3   OH229935   1.458   3.765   6.978 -0.2337 -0.3200 -0.0550
 2767TIP3    H129936   1.495   3.818   7.049  0.0057  1.8306 -1.6854
 2767TIP3    H229937   1.417   3.690   7.023  0.6640  0.4732  2.2534
 2768TIP3   OH229938   6.485   3.761   1.565 -0.7283 -0.1362  0.2116
 2768TIP3    H129939   6.459   3.789   1.653  0.2110 -0.2938  0.5524
 2768TIP3    H229940   6.406   3.724   1.527 -0.9274 -0.9238  1.3423
 2769TIP3   OH229941   0.468   0.956   7.957 -0.4828  0.9594  0.3411
 2769TIP3    H129942   0.425   0.871   7.957  2.7080 -0.8403  1.6978
 2769TIP3    H229943   0.561   0.935   7.956  0.4488  4.4658  0.9960
 2770TIP3   OH229944   2.794   3.822   0.589  0.0400 -0.3951  0.5484
 2770TIP3    H129945   2.744   3.743   0.569 -0.2404 -0.5695  1.8181
 2770TIP3    H229946   2.834   3.804   0.674 -0.6644  1.1085  1.2541
 2771TIP3   OH229947   5.751   5.626   2.855  0.4700  0.0296  0.3102
 2771TIP3    H129948   5.668   5.590   2.888  1.7985 -0.4785  3.4811
 2771TIP3    H229949   5.726   5.678   2.779 -2.3279 -2.5805 -0.7597
 2772TIP3   OH229950   4.731   4.858   1.717  0.0727  0.5938 -0.1376
 2772TIP3    H129951   4.701   4.947   1.734  1.9144  1.0226  1.1547
 2772TIP3    H229952   4.825   4.860   1.736 -0.0216 -1.8501  0.9800
 2773TIP3   OH229953   3.268   6.001   0.234  0.2188 -0.4338  0.2144
 2773TIP3    H129954   3.184   6.047   0.226  0.4635  0.0479  0.3713
 2773TIP3    H229955   3.255   5.919   0.187 -0.5271 -0.6154  0.7346
 2774TIP3   OH229956   6.272   5.347   0.436 -0.3162  0.5646 -0.7141
 2774TIP3    H129957   6.336   5.398   0.387  0.7987  0.1771  0.2886
 2774TIP3    H229958   6.254   5.399   0.514 -0.0690 -0.0013 -0.2656
 2775TIP3   OH229959   2.688   1.843   0.627  0.0710  0.0710  0.2196
 2775TIP3    H129960   2.619   1.867   0.689  0.3616  1.4290  0.0498
 2775TIP3    H229961   2.668   1.753   0.602 -0.8550 -0.0134  1.2057
 2776TIP3   OH229962   3.372   6.784   2.723 -0.4243  0.1668 -0.1126
 2776TIP3    H129963   3.329   6.869   2.735  1.4756  1.1073  0.6222
 2776TIP3    H229964   3.452   6.805   2.674 -0.6577 -1.4510 -1.2501
 2777TIP3   OH229965   2.067   2.165   7.859 -0.3951  0.1373 -0.5936
 2777TIP3    H129966   2.027   2.123   7.935 -2.3687  0.9028 -1.1597
 2777TIP3    H229967   2.160   2.143   7.866 -0.7310 -0.8812  1.3208
 2778TIP3   OH229968   0.098   5.960   6.851 -0.7894  0.4169  0.2303
 2778TIP3    H129969   0.117   5.927   6.763  0.0610  4.1955 -1.1725
 2778TIP3    H229970   0.176   5.937   6.902  1.4027  2.9686 -1.6311
 2779TIP3   OH229971   2.621   3.357   1.637 -0.0248 -0.4233  0.2254
 2779TIP3    H129972   2.693   3.368   1.575 -1.5892  1.5402 -1.3790
 2779TIP3    H229973   2.579   3.443   1.640 -2.2880 -1.4890  1.1198
 2780TIP3   OH229974   3.368   5.749   1.669  0.6335  0.4903  0.2150
 2780TIP3    H129975   3.454   5.715   1.644  0.4157 -0.9949  1.3435
 2780TIP3    H229976   3.348   5.816   1.603  1.4829 -0.9741 -1.6286
 2781TIP3   OH229977   1.199   6.417   2.714  0.1377  0.5430  0.5665
 2781TIP3    H129978   1.238   6.361   2.781 -2.8350 -0.8020  1.3264
 2781TIP3    H229979   1.113   6.440   2.748 -0.4017  2.1226 -1.6042
 2782TIP3   OH229980   3.480   2.448   0.794 -0.0520  0.2343  0.1284
 2782TIP3    H129981   3.396   2.410   0.767  0.6984 -2.4209  1.1791
 2782TIP3    H229982   3.544   2.405   0.737  0.6826  1.9545 -0.4038
 2783TIP3   OH229983   3.554   3.232   7.892  0.2793  0.4902  0.3995
 2783TIP3    H129984   3.583   3.314   7.933  0.5751  0.7169 -0.2554
 2783TIP3    H229985   3.474   3.256   7.845  1.1371  0.7379 -0.9737
 2784TIP3   OH229986   2.159   0.706   7.941 -0.3465 -0.2556  0.0171
 2784TIP3    H129987   2.246   0.747   7.939 -0.1945 -0.6165 -1.1373
 2784TIP3    H229988   2.099   0.776   7.915 -0.3203 -0.2313  0.0206
 2785TIP3   OH229989   0.176   0.903   2.464  0.8345  0.3066 -0.0422
 2785TIP3    H129990   0.162   0.816   2.503 -1.9710 -0.6696 -2.7727
 2785TIP3    H229991   0.247   0.890   2.401  0.7396  0.1134 -0.1095
 2786TIP3   OH229992   0.396   1.335   1.557 -0.1625 -0.3710  0.0761
 2786TIP3    H129993   0.481   1.351   1.516  0.1545  0.5213  1.0357
 2786TIP3    H229994   0.335   1.392   1.511  0.1021  0.2845  0.5318
 2787TIP3   OH229995   2.331   6.655   1.047 -0.0401  0.0660 -0.9493
 2787TIP3    H129996   2.288   6.724   0.997 -0.2256 -0.2543 -1.2330
 2787TIP3    H229997   2.412   6.695   1.078 -0.6113  0.7273 -0.2646
 2788TIP3   OH229998   4.053   5.927   8.485  0.4892  0.2524 -0.2665
 2788TIP3    H129999   4.026   5.985   8.556  1.2449  0.4520 -0.1380
 2788TIP3    H230000   3.986   5.940   8.417  0.6816  1.3243 -0.2673
 2789TIP3   OH230001   1.898   0.989   2.715  0.2177 -0.5887 -0.0097
 2789TIP3    H130002   1.842   1.066   2.728  0.9961 -0.0393  0.1437
 2789TIP3    H230003   1.866   0.925   2.778 -0.5830 -0.4731 -0.2900
 2790TIP3   OH230004   6.710   0.735   6.900  0.1965 -0.4801 -0.1007
 2790TIP3    H130005   6.704   0.739   6.804  2.2976 -1.1747 -0.3099
 2790TIP3    H230006   6.702   0.642   6.920  1.6626 -0.5757  0.1848
 2791TIP3   OH230007   0.987   1.999   6.768  0.3534 -0.4234 -0.4379
 2791TIP3    H130008   1.067   1.997   6.821  0.7381 -0.0376 -0.9886
 2791TIP3    H230009   0.999   1.929   6.704  0.4381 -0.0923 -0.7860
 2792TIP3   OH230010   5.281   5.996   1.331 -0.0811  0.0844  0.1556
 2792TIP3    H130011   5.356   5.992   1.391 -0.0762  1.3734  0.2799
 2792TIP3    H230012   5.205   5.978   1.385  0.2345 -3.4557 -0.3772
 2793TIP3   OH230013   6.563   2.865   8.377 -0.7432 -0.8697 -0.1480
 2793TIP3    H130014   6.648   2.874   8.420 -0.6221 -1.5277 -0.2423
 2793TIP3    H230015   6.572   2.786   8.323 -1.2995 -0.7461 -0.4240
 2794TIP3   OH230016   2.007   3.531   8.379 -0.2697  0.1670 -0.1163
 2794TIP3    H130017   1.962   3.547   8.462 -1.9139  0.9047 -1.0955
 2794TIP3    H230018   2.057   3.450   8.393 -1.1463 -0.1452  1.3306
 2795TIP3   OH230019   2.066   5.375   0.383  0.1334 -0.0931  0.1759
 2795TIP3    H130020   2.009   5.298   0.393  0.7238 -0.7730 -1.4273
 2795TIP3    H230021   2.155   5.340   0.387  0.4271  0.6426  0.2854
 2796TIP3   OH230022   2.139   1.584   1.368  0.1940  0.0221 -0.1545
 2796TIP3    H130023   2.084   1.624   1.435  1.6775  0.9274  0.5624
 2796TIP3    H230024   2.135   1.490   1.387  1.8318  0.3595  2.2682
 2797TIP3   OH230025   5.648   5.235   2.338 -0.0870  0.5055 -0.0354
 2797TIP3    H130026   5.702   5.171   2.384 -1.7807 -1.5066 -0.6843
 2797TIP3    H230027   5.573   5.249   2.395 -0.5789  0.5409 -0.6742
 2798TIP3   OH230028   6.592   1.848   7.999  0.3010 -0.4039  0.2416
 2798TIP3    H130029   6.635   1.771   7.961  0.2222 -0.1777 -0.3107
 2798TIP3    H230030   6.651   1.877   8.069  1.1518  0.0270 -0.6433
 2799TIP3   OH230031   1.792   1.053   1.973  0.1361 -0.1928 -0.3962
 2799TIP3    H130032   1.783   0.976   2.028 -0.6074 -0.0607 -0.3200
 2799TIP3    H230033   1.844   1.114   2.025  0.3278 -0.4642 -0.2680
 2800TIP3   OH230034   6.253   4.511   1.111 -0.1830 -0.0707 -0.0162
 2800TIP3    H130035   6.222   4.538   1.024 -1.4219  1.4855  0.8760
 2800TIP3    H230036   6.287   4.591   1.151  1.8559 -1.0762  0.3763
 2801TIP3   OH230037   2.773   4.451   7.651  0.0043 -0.3513  0.3908
 2801TIP3    H130038   2.862   4.417   7.655 -0.1517 -1.7711 -3.6907
 2801TIP3    H230039   2.769   4.498   7.567 -2.4170  1.9694  1.6673
 2802TIP3   OH230040   2.440   2.503   7.047  0.2075  0.0727  0.5979
 2802TIP3    H130041   2.373   2.449   7.005 -0.4287  0.5403  0.9873
 2802TIP3    H230042   2.430   2.485   7.140 -0.7676  1.6651  0.8383
 2803TIP3   OH230043   2.490   1.692   1.366 -0.3261  0.3526 -0.6177
 2803TIP3    H130044   2.445   1.659   1.288 -1.7420 -1.1777  0.7624
 2803TIP3    H230045   2.419   1.721   1.423  0.6805  1.3137  0.1969
 2804TIP3   OH230046   4.366   2.930   2.817  0.5685  0.2505 -0.1268
 2804TIP3    H130047   4.333   2.842   2.798  1.3164 -0.0467 -0.0722
 2804TIP3    H230048   4.400   2.925   2.906 -0.0956  0.8111  0.1660
 2805TIP3   OH230049   5.501   5.373   0.402  0.5516 -0.5320 -0.6832
 2805TIP3    H130050   5.536   5.423   0.328  1.7842  0.0366  0.2621
 2805TIP3    H230051   5.456   5.438   0.456  1.4149 -0.5749  0.1045
 2806TIP3   OH230052   4.918   6.181   7.575 -0.4008  0.1788 -1.0554
 2806TIP3    H130053   4.899   6.194   7.668 -0.9370 -1.3070 -0.9191
 2806TIP3    H230054   5.002   6.225   7.561 -0.9676  1.6000 -0.2035
 2807TIP3   OH230055   2.010   6.636   7.912  0.2922  0.0092  0.6707
 2807TIP3    H130056   2.009   6.725   7.946 -0.7796  0.0101  0.6871
 2807TIP3    H230057   1.960   6.586   7.977  0.2003 -0.4403  0.2541
 2808TIP3   OH230058   1.904   0.543   2.298  0.2891  0.6462  0.2087
 2808TIP3    H130059   1.879   0.548   2.390  0.9448  2.3766  0.3335
 2808TIP3    H230060   1.939   0.455   2.287 -0.0951  0.3096  1.5269
 2809TIP3   OH230061   5.794   4.338   0.463 -0.0139 -0.4610  0.0338
 2809TIP3    H130062   5.867   4.281   0.483  1.0565  0.8594  0.0191
 2809TIP3    H230063   5.729   4.319   0.532  1.5338  0.3922  1.8066
 2810TIP3   OH230064   6.631   0.166   1.245 -0.1054 -0.3564  0.5034
 2810TIP3    H130065   6.538   0.153   1.227 -0.2863  0.7109  0.5827
 2810TIP3    H230066   6.676   0.122   1.173 -0.7524  1.5610 -1.1740
 2811TIP3   OH230067   0.575   3.096   7.593  0.2843  0.4065  0.0935
 2811TIP3    H130068   0.571   3.146   7.512  0.6979  1.4352  0.6829
 2811TIP3    H230069   0.613   3.012   7.568  0.6171  0.8001 -0.7366
 2812TIP3   OH230070   1.826   5.343   7.139 -0.0800 -0.1264 -0.2698
 2812TIP3    H130071   1.861   5.307   7.058 -0.0491 -2.3999  0.6608
 2812TIP3    H230072   1.744   5.295   7.153  1.6927 -2.6540  2.8356
 2813TIP3   OH230073   0.439   2.747   8.125 -0.5789 -0.6431  0.3156
 2813TIP3    H130074   0.393   2.786   8.051  0.6292 -1.3079 -0.8383
 2813TIP3    H230075   0.456   2.820   8.185 -0.3929  0.1760 -0.7030
 2814TIP3   OH230076   1.275   5.895   7.861 -0.1772  0.3229 -0.3842
 2814TIP3    H130077   1.365   5.923   7.881  0.3437 -1.7234  0.3477
 2814TIP3    H230078   1.252   5.837   7.934 -1.4295 -0.6067 -1.4893
 2815TIP3   OH230079   6.346   4.967   2.605 -0.3496 -0.4942 -0.4507
 2815TIP3    H130080   6.429   5.015   2.604 -0.2074 -0.7460 -0.6717
 2815TIP3    H230081   6.361   4.893   2.664 -1.4038  1.1963  2.1356
 2816TIP3   OH230082   6.721   2.188   0.498 -0.3184  0.0083 -0.4276
 2816TIP3    H130083   6.700   2.098   0.472  1.2713 -0.1047 -1.4585
 2816TIP3    H230084   6.749   2.180   0.589 -1.5906 -0.2929 -0.0427
 2817TIP3   OH230085   6.641   6.144   1.574  0.4383 -0.2304 -0.0289
 2817TIP3    H130086   6.730   6.123   1.603  0.7147  1.5046  0.4757
 2817TIP3    H230087   6.590   6.152   1.655  0.0869 -0.1131 -0.2597
 2818TIP3   OH230088   0.670   6.876   0.712 -0.0951 -0.1240 -0.0864
 2818TIP3    H130089   0.599   6.863   0.649 -0.6964 -0.7085  0.6772
 2818TIP3    H230090   0.750   6.860   0.662 -0.4874  0.6207 -0.9843
 2819TIP3   OH230091   5.897   5.012   7.744  0.0999 -1.0644 -0.1265
 2819TIP3    H130092   5.944   5.031   7.825 -0.7090  1.3626 -0.1380
 2819TIP3    H230093   5.960   4.965   7.689  1.6911 -0.0604  0.7682
 2820TIP3   OH230094   2.797   3.405   8.196  0.0087 -0.4044 -0.1115
 2820TIP3    H130095   2.721   3.385   8.249  0.5912  1.2767  1.4420
 2820TIP3    H230096   2.868   3.354   8.236  0.8832  2.3188  2.1158
 2821TIP3   OH230097   2.092   2.155   1.258  0.2620 -0.4437  0.0438
 2821TIP3    H130098   2.174   2.203   1.244 -0.8046  0.8514 -2.4311
 2821TIP3    H230099   2.039   2.213   1.312  0.4770 -0.6872  0.5196
 2822TIP3   OH230100   3.591   4.290   1.290 -0.1930  0.1503  0.2622
 2822TIP3    H130101   3.591   4.238   1.370 -0.7461  0.8940  0.7630
 2822TIP3    H230102   3.650   4.243   1.231 -0.2646 -0.7465  0.8794
 2823TIP3   OH230103   5.520   1.405   8.431 -0.2400  0.1235  0.3726
 2823TIP3    H130104   5.541   1.497   8.417 -0.1671  0.1361  0.5531
 2823TIP3    H230105   5.495   1.372   8.345 -0.9561  0.4913  0.4287
 2824TIP3   OH230106   2.980   3.188   7.965  0.1576  0.2634  0.0366
 2824TIP3    H130107   2.909   3.235   7.923  0.6900  0.7012 -0.3890
 2824TIP3    H230108   2.971   3.098   7.932 -0.1423  0.3363 -0.0854
 2825TIP3   OH230109   0.414   2.970   6.781 -0.1094 -0.7111 -0.4641
 2825TIP3    H130110   0.344   2.904   6.774 -1.0942  0.3875 -1.5124
 2825TIP3    H230111   0.371   3.046   6.819  0.3654  0.1486 -1.5915
 2826TIP3   OH230112   2.514   1.950   0.176  0.3451  0.2951 -0.0409
 2826TIP3    H130113   2.428   1.979   0.144 -1.2318 -2.1427  1.6581
 2826TIP3    H230114   2.574   1.969   0.103 -1.7639  1.2602 -1.6459
 2827TIP3   OH230115   4.707   1.247   7.782 -0.0172  0.8111  0.0061
 2827TIP3    H130116   4.654   1.264   7.704 -1.6247 -1.1411  0.6088
 2827TIP3    H230117   4.649   1.266   7.855  0.9260  0.9707  0.7356
 2828TIP3   OH230118   5.252   1.899   8.231 -0.3843 -0.3603 -0.1157
 2828TIP3    H130119   5.183   1.951   8.190  1.5822  3.5847  1.0853
 2828TIP3    H230120   5.223   1.886   8.321  0.1907  1.0672  0.3128
 2829TIP3   OH230121   1.152   1.466   0.828  0.2486 -0.4470  0.1310
 2829TIP3    H130122   1.150   1.464   0.733  0.7553 -1.9763  0.1330
 2829TIP3    H230123   1.074   1.516   0.853  0.4978  0.5814 -1.0850
 2830TIP3   OH230124   2.952   1.814   7.152 -0.3268  0.5402 -0.2614
 2830TIP3    H130125   2.987   1.833   7.065  1.3002  1.7233  0.6076
 2830TIP3    H230126   2.895   1.888   7.172 -2.7594 -0.9328 -1.2832
 2831TIP3   OH230127   5.332   1.332   0.119  0.4679 -0.0829  0.3179
 2831TIP3    H130128   5.373   1.389   0.054  0.8522  0.6216  1.1551
 2831TIP3    H230129   5.284   1.267   0.068  0.4991  0.6486 -0.6572
 2832TIP3   OH230130   5.449   2.498   1.219  0.0598 -0.2855 -0.1779
 2832TIP3    H130131   5.540   2.489   1.248 -0.0003 -0.9407 -0.1809
 2832TIP3    H230132   5.397   2.484   1.298 -0.0542 -0.5277 -0.2932
 2833TIP3   OH230133   3.500   4.612   0.735 -0.3502  0.1117 -0.6026
 2833TIP3    H130134   3.588   4.648   0.722  0.3759 -1.1853  0.4057
 2833TIP3    H230135   3.452   4.683   0.778  1.0314 -0.0395  1.3365
 2834TIP3   OH230136   1.165   5.020   8.383  0.1971  0.1763  0.1503
 2834TIP3    H130137   1.198   4.985   8.466  0.8378  0.1337 -0.1144
 2834TIP3    H230138   1.192   5.112   8.384 -1.2041  0.6095  0.7028
 2835TIP3   OH230139   0.925   3.191   1.016  0.9848 -0.5927 -0.2664
 2835TIP3    H130140   0.969   3.243   1.083  1.9246 -1.5726 -0.0920
 2835TIP3    H230141   0.842   3.166   1.055  0.5336  0.7195 -0.3420
 2836TIP3   OH230142   3.338   1.326   1.773 -0.2382 -0.2632 -0.3068
 2836TIP3    H130143   3.302   1.275   1.845  1.1449  1.0307  1.3877
 2836TIP3    H230144   3.287   1.407   1.772 -0.3510 -0.3364 -0.8824
 2837TIP3   OH230145   3.864   3.971   3.046  0.4289  0.2329  0.4029
 2837TIP3    H130146   3.782   3.923   3.034  0.7785  0.0321 -1.5012
 2837TIP3    H230147   3.836   4.062   3.059 -0.1388 -0.0883  1.5485
 2838TIP3   OH230148   3.093   6.290   7.353  0.3525 -0.0501 -0.0457
 2838TIP3    H130149   3.008   6.277   7.311 -0.2495  0.8920  0.8160
 2838TIP3    H230150   3.123   6.374   7.319  0.1160  0.4531  0.9282
 2839TIP3   OH230151   6.553   3.008   1.588 -0.0701  1.1186 -0.0444
 2839TIP3    H130152   6.580   3.098   1.567  0.0765  0.8220 -1.2153
 2839TIP3    H230153   6.476   2.993   1.533  1.3045 -0.2649 -1.7038
 2840TIP3   OH230154   1.005   4.990   6.770  0.5382 -0.4194 -0.4578
 2840TIP3    H130155   1.070   5.050   6.807  1.5907  0.1683 -3.0612
 2840TIP3    H230156   0.966   5.038   6.697 -1.4827 -1.4810 -0.1598
 2841TIP3   OH230157   5.326   2.775   0.246  0.1974 -0.1196 -0.1698
 2841TIP3    H130158   5.345   2.838   0.316  1.7051 -0.2410 -0.4381
 2841TIP3    H230159   5.335   2.826   0.166 -2.2282  0.1981 -0.3153
 2842TIP3   OH230160   3.637   4.037   7.810  0.1178 -0.0146  0.4408
 2842TIP3    H130161   3.583   3.970   7.767  0.2541 -2.3861  3.5974
 2842TIP3    H230162   3.606   4.120   7.773 -0.8773 -1.6596 -2.8528
 2843TIP3   OH230163   2.607   2.749   1.483  0.3607 -0.1094 -0.0820
 2843TIP3    H130164   2.636   2.707   1.402  0.7448 -1.4035  0.6906
 2843TIP3    H230165   2.665   2.825   1.493 -0.2405  0.5580 -1.4294
 2844TIP3   OH230166   6.526   6.136   0.854  0.3898 -0.6306  0.0743
 2844TIP3    H130167   6.593   6.192   0.816  0.3392 -1.2032 -0.8856
 2844TIP3    H230168   6.459   6.128   0.786 -0.9385  0.3782  1.2058
 2845TIP3   OH230169   0.993   3.734   2.627 -0.2171  0.1604 -0.1278
 2845TIP3    H130170   0.941   3.686   2.691 -0.5983 -1.0777 -1.2986
 2845TIP3    H230171   0.984   3.826   2.651 -0.6522 -0.2529  1.3404
 2846TIP3   OH230172   2.856   4.309   1.803  0.0566 -0.3852  0.7829
 2846TIP3    H130173   2.842   4.391   1.756 -1.2965 -0.0427  1.7140
 2846TIP3    H230174   2.943   4.317   1.840  0.4269  0.0967 -0.1634
 2847TIP3   OH230175   1.222   6.478   2.454  0.0371 -0.0815 -0.2173
 2847TIP3    H130176   1.224   6.440   2.542 -0.4899 -1.4940 -0.7952
 2847TIP3    H230177   1.281   6.554   2.460  1.8664 -1.4843  0.7627
 2848TIP3   OH230178   5.309   2.211   0.699 -0.3906 -0.1226  0.3839
 2848TIP3    H130179   5.354   2.155   0.763 -0.2572  1.0257  1.3469
 2848TIP3    H230180   5.378   2.240   0.640 -0.5187 -1.2174 -0.3384
 2849TIP3   OH230181   1.361   5.586   7.499  0.7168  0.2079 -0.0789
 2849TIP3    H130182   1.373   5.497   7.529 -0.9080  0.0902  0.3187
 2849TIP3    H230183   1.285   5.582   7.441 -0.1048  1.5048  0.8453
 2850TIP3   OH230184   0.498   3.571   8.182 -0.1744 -0.3726 -0.1875
 2850TIP3    H130185   0.441   3.645   8.166 -2.5639 -1.7636  1.2369
 2850TIP3    H230186   0.517   3.535   8.095 -1.1216  0.4008 -0.7280
 2851TIP3   OH230187   2.691   5.894   1.519  0.3728 -0.3056 -0.0299
 2851TIP3    H130188   2.742   5.894   1.600 -1.0456 -2.1051  0.9255
 2851TIP3    H230189   2.658   5.984   1.512  1.9940  0.3691  0.3485
 2852TIP3   OH230190   0.833   4.258   8.094  0.0157  0.3282 -0.3885
 2852TIP3    H130191   0.855   4.324   8.028  0.0039  1.8093  1.0276
 2852TIP3    H230192   0.915   4.211   8.109  0.3110  0.7625 -0.6290
 2853TIP3   OH230193   5.043   0.699   6.576 -0.2700 -0.0014  0.3365
 2853TIP3    H130194   5.104   0.765   6.541 -1.0635  0.4105 -0.3085
 2853TIP3    H230195   5.097   0.621   6.590  0.4436  0.4189 -0.0330
 2854TIP3   OH230196   3.715   0.252   1.708 -0.0562 -0.1974  0.1646
 2854TIP3    H130197   3.673   0.315   1.766 -0.4508 -1.1617  0.9623
 2854TIP3    H230198   3.797   0.294   1.682 -1.9179  2.2467 -2.3673
 2855TIP3   OH230199   5.977   0.332   8.205  0.6351  0.4322  0.7900
 2855TIP3    H130200   6.032   0.295   8.136 -0.0231 -0.1106  0.5451
 2855TIP3    H230201   5.899   0.363   8.159 -0.1868 -0.6963  1.3883
 2856TIP3   OH230202   6.009   4.030   1.096 -0.3338 -0.3798 -0.1103
 2856TIP3    H130203   5.920   3.998   1.113 -0.1521 -1.4678 -1.0976
 2856TIP3    H230204   6.066   3.969   1.142  0.0447 -1.9435 -2.4919
 2857TIP3   OH230205   2.129   5.472   2.714 -0.5875  0.2571 -0.5543
 2857TIP3    H130206   2.070   5.498   2.784  2.0727 -2.3143  2.9686
 2857TIP3    H230207   2.208   5.523   2.728  1.2434 -2.6531  0.6815
 2858TIP3   OH230208   0.101   3.979   7.618  0.5165  0.6461  0.7964
 2858TIP3    H130209   0.055   3.998   7.536  1.3802  0.5232  0.2710
 2858TIP3    H230210   0.032   3.950   7.677  0.1034 -1.1963 -0.4869
 2859TIP3   OH230211   4.057   2.643   8.423  0.6586 -0.6099  1.0070
 2859TIP3    H130212   4.138   2.629   8.471 -0.6558 -2.9132  2.7308
 2859TIP3    H230213   4.022   2.725   8.460  1.7327 -0.0510  0.8398
 2860TIP3   OH230214   5.005   2.628   7.006  0.1213 -0.1112  0.2318
 2860TIP3    H130215   4.995   2.539   7.039  1.4417  0.1047  1.2886
 2860TIP3    H230216   5.097   2.650   7.022  0.0036  1.1867 -0.6808
 2861TIP3   OH230217   0.483   2.900   0.619 -0.4283  0.1728 -0.3274
 2861TIP3    H130218   0.495   2.911   0.525 -1.2216 -0.8871 -0.5772
 2861TIP3    H230219   0.566   2.863   0.649 -0.2286  0.3628 -0.6406
 2862TIP3   OH230220   5.267   2.863   7.041  0.2207  0.3510  0.0584
 2862TIP3    H130221   5.343   2.905   7.082  0.4490 -1.7302  1.9400
 2862TIP3    H230222   5.304   2.809   6.971  0.1766  1.2690 -0.6948
 2863TIP3   OH230223   1.005   1.705   8.082  0.1938  0.4379 -0.2102
 2863TIP3    H130224   0.922   1.667   8.053  0.9241 -0.7770 -0.7651
 2863TIP3    H230225   1.037   1.646   8.150  1.2945  0.0864 -1.0071
 2864TIP3   OH230226   1.603   0.894   8.122 -0.3410  0.4207 -0.1266
 2864TIP3    H130227   1.530   0.897   8.184 -0.1072  1.6895  0.1083
 2864TIP3    H230228   1.604   0.803   8.091 -3.8266  0.9189 -2.3082
 2865TIP3   OH230229   3.996   5.984   0.257 -0.0230 -0.3040  0.6774
 2865TIP3    H130230   4.008   5.889   0.259 -0.2040 -0.3339  0.2920
 2865TIP3    H230231   3.902   5.997   0.256 -0.0973 -0.2203 -3.0777
 2866TIP3   OH230232   6.765   1.705   7.852  0.0725  0.6803  0.4536
 2866TIP3    H130233   6.840   1.657   7.817 -0.6415  0.8309 -1.4007
 2866TIP3    H230234   6.698   1.638   7.866  0.1056  0.7206  0.7929
 2867TIP3   OH230235   2.933   3.498   1.429  0.1651 -0.1785  0.2008
 2867TIP3    H130236   2.978   3.473   1.510  1.1380 -1.0970 -0.5974
 2867TIP3    H230237   3.003   3.501   1.363 -0.7162 -0.1368 -0.7550
 2868TIP3   OH230238   1.592   3.784   7.226  0.5509 -0.6100  0.1802
 2868TIP3    H130239   1.587   3.775   7.321  1.0822 -0.5795  0.2121
 2868TIP3    H230240   1.668   3.839   7.211  0.7001 -0.9403 -0.2862
 2869TIP3   OH230241   3.999   2.409   8.321 -0.2708 -0.0899  0.0757
 2869TIP3    H130242   4.041   2.490   8.349 -0.1152 -0.4472  0.9012
 2869TIP3    H230243   3.920   2.404   8.374  1.1136 -1.8749  2.1164
 2870TIP3   OH230244   5.268   4.409   8.466  0.6539 -0.4223  0.2678
 2870TIP3    H130245   5.307   4.492   8.495 -0.4895 -0.3827  1.7936
 2870TIP3    H230246   5.343   4.350   8.455  1.4625  0.7303 -0.6403
 2871TIP3   OH230247   6.101   4.276   1.547  0.0022 -0.3866  0.2017
 2871TIP3    H130248   6.063   4.189   1.541  0.9155 -0.7692 -0.2517
 2871TIP3    H230249   6.109   4.293   1.641  0.3459 -1.0335  0.2955
 2872TIP3   OH230250   2.585   6.170   0.416  0.4360 -0.1118  0.3814
 2872TIP3    H130251   2.569   6.197   0.506  1.9681  4.3236 -0.4060
 2872TIP3    H230252   2.681   6.167   0.408  0.3617  0.5435 -1.2889
 2873TIP3   OH230253   3.581   1.830   1.223  0.3225  0.2556  0.3911
 2873TIP3    H130254   3.661   1.824   1.275 -0.5260 -1.3236  1.5842
 2873TIP3    H230255   3.612   1.850   1.134  1.8948  1.5057  1.1662
 2874TIP3   OH230256   3.660   0.947   0.524 -0.3258 -0.3145  0.1145
 2874TIP3    H130257   3.632   0.862   0.491  1.8408 -1.5337  1.1786
 2874TIP3    H230258   3.749   0.932   0.555  0.6536  2.6983 -0.9370
 2875TIP3   OH230259   4.947   2.488   1.051 -0.0810  0.2724 -0.5765
 2875TIP3    H130260   4.965   2.408   1.001 -3.3388 -0.8497 -0.2188
 2875TIP3    H230261   4.921   2.552   0.985  0.0820  0.2531 -0.6611
 2876TIP3   OH230262   5.591   3.435   7.736 -0.0422 -0.2131  0.3230
 2876TIP3    H130263   5.629   3.457   7.651 -0.1683 -0.9219  0.0744
 2876TIP3    H230264   5.609   3.511   7.791 -2.7768  1.7249 -1.2060
 2877TIP3   OH230265   3.265   0.293   1.828  0.0958  0.4471 -0.3817
 2877TIP3    H130266   3.352   0.318   1.797 -0.2758  4.1917  1.1023
 2877TIP3    H230267   3.205   0.342   1.772 -0.8515  1.2112  1.2440
 2878TIP3   OH230268   3.532   1.126   0.160  0.1753 -0.2134 -0.0729
 2878TIP3    H130269   3.466   1.128   0.229 -1.6926 -1.1652 -1.7558
 2878TIP3    H230270   3.573   1.212   0.164  1.1302 -0.6889  3.0921
 2879TIP3   OH230271   6.444   6.595   1.691  0.3277 -0.1941  0.4332
 2879TIP3    H130272   6.373   6.532   1.678  0.5678 -0.1462 -1.3109
 2879TIP3    H230273   6.402   6.681   1.688  0.2453 -0.2093  1.0396
 2880TIP3   OH230274   1.995   1.833   1.856 -0.0402  0.4449 -0.3651
 2880TIP3    H130275   1.903   1.806   1.858  0.3855 -1.1018  0.1381
 2880TIP3    H230276   2.008   1.878   1.939 -0.6356  1.8299 -0.9875
 2881TIP3   OH230277   3.259   2.275   0.708  0.2775 -0.3879 -0.1620
 2881TIP3    H130278   3.171   2.285   0.670 -0.5873  0.6095  1.9368
 2881TIP3    H230279   3.253   2.198   0.763  0.5124  0.0337  0.4660
 2882TIP3   OH230280   3.330   0.032   8.361  0.4230 -0.2319  0.0521
 2882TIP3    H130281   3.367  -0.051   8.390 -0.8834 -0.2802  1.6856
 2882TIP3    H230282   3.385   0.098   8.401  0.5594 -0.3036 -0.0154
 2883TIP3   OH230283   3.850   0.892   7.450 -0.2893  0.1280  0.5310
 2883TIP3    H130284   3.850   0.887   7.545 -0.9647 -0.2866  0.5184
 2883TIP3    H230285   3.806   0.975   7.430 -1.1302 -0.2903  0.5776
 2884TIP3   OH230286   5.433   3.136   2.467  0.1150  0.3225  0.0118
 2884TIP3    H130287   5.446   3.051   2.509 -2.7501 -0.7491 -1.0272
 2884TIP3    H230288   5.435   3.199   2.539  1.6445 -0.6459  0.8816
 2885TIP3   OH230289   4.258   1.162   0.946 -0.1891  0.5970 -0.1159
 2885TIP3    H130290   4.314   1.184   1.021  1.8808 -2.0453 -0.6869
 2885TIP3    H230291   4.197   1.096   0.980  0.3494 -0.1520 -0.5537
 2886TIP3   OH230292   3.739   5.307   7.679  0.2738 -0.3392  0.0126
 2886TIP3    H130293   3.660   5.356   7.657  1.7043  1.6143 -1.1957
 2886TIP3    H230294   3.802   5.333   7.611  2.1882 -1.1896  1.3838
 2887TIP3   OH230295   0.160   1.150   7.511  0.1800  0.0200  0.0028
 2887TIP3    H130296   0.143   1.227   7.456  2.7579 -0.2587 -1.3630
 2887TIP3    H230297   0.128   1.175   7.598 -1.5274  1.5537 -0.9795
 2888TIP3   OH230298   0.551   6.852   6.837 -0.3138  0.3507  0.2852
 2888TIP3    H130299   0.636   6.847   6.793  0.2209 -1.5112  1.4274
 2888TIP3    H230300   0.552   6.936   6.883  1.8846 -0.5742  2.0856
 2889TIP3   OH230301   3.337   4.003   8.299 -0.0299  0.1523 -0.5462
 2889TIP3    H130302   3.284   3.985   8.377  0.7486 -0.2079 -0.0818
 2889TIP3    H230303   3.332   4.098   8.288 -0.6745  0.1356 -0.4510
 2890TIP3   OH230304   1.673   4.300   7.015 -0.1206 -0.1969  0.0470
 2890TIP3    H130305   1.685   4.394   7.006  1.7770  0.0077  3.2068
 2890TIP3    H230306   1.737   4.262   6.954 -0.8126  0.5172 -1.1565
 2891TIP3   OH230307   4.702   2.311   0.993  0.4332  0.0428  0.3507
 2891TIP3    H130308   4.739   2.397   1.014  1.6280 -0.0928 -1.0868
 2891TIP3    H230309   4.720   2.299   0.900  0.9336 -2.0793  0.6831
 2892TIP3   OH230310   4.726   5.588   0.221 -0.3010  0.3517 -0.0546
 2892TIP3    H130311   4.671   5.629   0.154 -0.7619 -1.0215 -0.5531
 2892TIP3    H230312   4.752   5.504   0.183  2.4904  1.0830 -0.0124
 2893TIP3   OH230313   5.568   0.682   1.961 -0.0974 -0.5119 -0.3727
 2893TIP3    H130314   5.515   0.630   1.900 -0.1906 -0.8994  0.0374
 2893TIP3    H230315   5.613   0.617   2.015 -3.0694 -0.2335  2.6917
 2894TIP3   OH230316   2.666   6.705   8.035  0.1149  0.2168  0.3346
 2894TIP3    H130317   2.604   6.726   7.965  1.2282 -1.6758 -1.3138
 2894TIP3    H230318   2.656   6.611   8.050  1.3893  0.1848  1.1952
 2895TIP3   OH230319   0.115   4.406   7.136 -1.2468  0.4066  0.0132
 2895TIP3    H130320   0.044   4.462   7.168 -2.3693 -0.3302 -1.0647
 2895TIP3    H230321   0.163   4.462   7.074 -0.6660  1.0042  0.9728
 2896TIP3   OH230322   3.133   3.951   8.511 -0.3291  1.0022  0.0782
 2896TIP3    H130323   3.087   3.909   8.437  0.3948  0.4180 -0.0541
 2896TIP3    H230324   3.063   3.979   8.569 -0.8983  1.0456 -0.6073
 2897TIP3   OH230325   1.434   6.855   7.617 -0.2244  0.6358 -0.1243
 2897TIP3    H130326   1.390   6.830   7.536 -2.2940  1.9234  0.5309
 2897TIP3    H230327   1.484   6.933   7.594 -1.4944  1.5170 -0.0315
 2898TIP3   OH230328   2.929   2.074   8.427  0.2888 -0.0058 -0.0442
 2898TIP3    H130329   2.983   2.152   8.433  1.9578 -0.8586 -2.5780
 2898TIP3    H230330   2.972   2.019   8.362 -2.7837 -1.4430 -1.0876
 2899TIP3   OH230331   3.558   5.700   8.050 -0.2792  0.0284  0.5034
 2899TIP3    H130332   3.506   5.677   7.973  0.3687  1.0034 -0.2414
 2899TIP3    H230333   3.543   5.627   8.111 -2.0049 -0.0342  0.0677
 2900TIP3   OH230334   0.380   2.540   0.421 -0.0151  0.3706 -0.4533
 2900TIP3    H130335   0.327   2.489   0.360  0.5195 -0.9792  0.1674
 2900TIP3    H230336   0.469   2.536   0.385  0.2683 -0.2786  0.3113
 2901TIP3   OH230337   3.286   3.149   0.194 -0.6108 -0.0961  0.1633
 2901TIP3    H130338   3.235   3.198   0.258 -1.4999  0.8548 -1.2147
 2901TIP3    H230339   3.243   3.168   0.110  1.9611  0.7093 -1.0610
 2902TIP3   OH230340   1.648   3.663   7.914  0.6129 -1.0722  0.4810
 2902TIP3    H130341   1.709   3.710   7.970  1.3228 -1.2330 -0.1435
 2902TIP3    H230342   1.566   3.662   7.963 -0.1613  2.8827 -0.4304
 2903TIP3   OH230343   3.904   0.968   2.352  0.0271 -0.2479  0.3358
 2903TIP3    H130344   3.874   1.005   2.435  1.5277  2.2133 -0.0920
 2903TIP3    H230345   4.000   0.971   2.357  0.2036  1.3628 -1.9489
 2904TIP3   OH230346   6.645   0.660   0.398  0.2342 -0.4744  0.2109
 2904TIP3    H130347   6.709   0.698   0.338  1.7456 -0.4847  1.7160
 2904TIP3    H230348   6.626   0.574   0.362  0.8647 -0.3632 -0.4059
 2905TIP3   OH230349   2.081   3.145   0.507 -0.2099  0.0460 -0.2416
 2905TIP3    H130350   2.022   3.200   0.456 -1.6350 -0.9269  0.2714
 2905TIP3    H230351   2.161   3.141   0.455 -0.6794  1.2046 -1.0996
 2906TIP3   OH230352   5.310   6.566   2.001 -0.2103 -0.0281 -0.2826
 2906TIP3    H130353   5.235   6.508   2.012  0.4638 -0.9858 -0.5361
 2906TIP3    H230354   5.381   6.522   2.048  0.1585  0.9301  0.0775
 2907TIP3   OH230355   1.663   0.865   7.297 -0.6164  0.6396 -0.2807
 2907TIP3    H130356   1.717   0.788   7.280 -1.0157  0.5574 -1.2472
 2907TIP3    H230357   1.671   0.880   7.391  0.2347 -0.0007 -0.2416
 2908TIP3   OH230358   2.659   2.002   1.855 -0.4140 -0.4627  0.2544
 2908TIP3    H130359   2.651   2.074   1.917 -1.2105 -0.5480  0.2587
 2908TIP3    H230360   2.604   2.027   1.781  1.2551  0.0815 -0.8743
 2909TIP3   OH230361   6.338   4.240   2.946 -0.4231  0.2040 -0.1274
 2909TIP3    H130362   6.317   4.220   2.855  2.3531 -1.2887 -0.5737
 2909TIP3    H230363   6.422   4.196   2.961  1.0446  3.3515  2.0645
 2910TIP3   OH230364   4.115   4.075   1.086 -0.3155  0.0425 -0.1061
 2910TIP3    H130365   4.080   4.086   1.175 -1.5311 -1.6316 -0.3309
 2910TIP3    H230366   4.178   4.003   1.094  0.0538  0.3180 -0.4969
 2911TIP3   OH230367   0.652   2.500   6.642  0.1112 -0.0553  0.1885
 2911TIP3    H130368   0.705   2.461   6.572 -0.5867 -0.2445 -0.2492
 2911TIP3    H230369   0.710   2.563   6.683 -0.0623  1.5963 -1.9132
 2912TIP3   OH230370   3.291   2.966   0.884 -0.5850  0.2042  0.0480
 2912TIP3    H130371   3.363   2.931   0.937  0.2674 -0.0363 -1.2172
 2912TIP3    H230372   3.327   3.046   0.845 -1.1931  0.3797 -0.1571
 2913TIP3   OH230373   1.870   6.481   7.673  0.4055  0.0498  0.2882
 2913TIP3    H130374   1.861   6.577   7.670  0.2418  0.0289  0.1311
 2913TIP3    H230375   1.906   6.457   7.588 -1.2875 -0.2124 -0.3976
 2914TIP3   OH230376   4.804   0.816   6.690 -0.3978 -0.5281 -0.0733
 2914TIP3    H130377   4.766   0.747   6.743 -0.2476 -1.8354 -1.6084
 2914TIP3    H230378   4.883   0.777   6.652  0.8797  1.1684  0.6697
 2915TIP3   OH230379   3.952   0.518   7.176 -0.0434  0.2068 -0.1401
 2915TIP3    H130380   3.878   0.561   7.219  1.6227  1.3169  1.7875
 2915TIP3    H230381   3.945   0.427   7.201 -1.2248  0.1128 -0.7324
 2916TIP3   OH230382   6.256   4.060   0.093  0.1064  0.5940 -0.1288
 2916TIP3    H130383   6.301   3.977   0.105  0.6497  0.7754 -0.8467
 2916TIP3    H230384   6.260   4.076  -0.002 -2.0943  0.2563 -0.3408
 2917TIP3   OH230385   3.516   4.672   2.570  0.5207  0.0325  0.0510
 2917TIP3    H130386   3.595   4.659   2.518  0.6661 -2.6236  0.8086
 2917TIP3    H230387   3.446   4.632   2.518  0.5620 -2.0800  1.5065
 2918TIP3   OH230388   5.244   2.476   0.532  0.3442  0.5191 -0.3936
 2918TIP3    H130389   5.240   2.526   0.451 -3.9314  1.5237  0.1803
 2918TIP3    H230390   5.223   2.540   0.600 -0.9033 -1.1890  0.9058
 2919TIP3   OH230391   5.937   4.313   0.829  0.0686  0.1673  0.3295
 2919TIP3    H130392   5.875   4.310   0.902 -1.1132 -0.4124 -0.6662
 2919TIP3    H230393   5.886   4.287   0.752  1.9238 -2.0111 -0.2778
 2920TIP3   OH230394   2.862   1.429   0.066  0.0514  0.1810  0.1250
 2920TIP3    H130395   2.957   1.435   0.066  0.1222 -0.7699 -0.1938
 2920TIP3    H230396   2.832   1.516   0.040  0.8446  0.3608 -0.2136
 2921TIP3   OH230397   4.067   2.716   7.879 -0.2067  0.2404  0.3527
 2921TIP3    H130398   4.139   2.663   7.844  1.3870  0.8846  2.3850
 2921TIP3    H230399   4.089   2.726   7.972 -1.9911  2.0160  0.6405
 2922TIP3   OH230400   4.181   4.384   2.343 -0.0877  0.1541 -0.1871
 2922TIP3    H130401   4.094   4.380   2.382  0.1616 -2.0769  0.2456
 2922TIP3    H230402   4.224   4.457   2.388 -1.7813  1.4992 -0.6243
 2923TIP3   OH230403   2.879   2.477   7.541  0.0723 -0.3839 -0.0819
 2923TIP3    H130404   2.898   2.428   7.621  2.6271 -0.6765 -0.7884
 2923TIP3    H230405   2.953   2.537   7.532 -1.0941  0.9502 -1.2763
 2924TIP3   OH230406   2.057   5.934   1.495  0.3606  0.1839  0.6340
 2924TIP3    H130407   2.114   5.878   1.549 -0.6718 -0.8302  0.7151
 2924TIP3    H230408   2.095   5.928   1.407  0.0235 -1.0581  0.5406
 2925TIP3   OH230409   2.404   1.987   8.379  0.0676 -0.1173 -0.2630
 2925TIP3    H130410   2.338   2.030   8.324  0.1917 -0.4875 -0.7106
 2925TIP3    H230411   2.432   1.911   8.328 -0.5832 -1.0790  0.7719
 2926TIP3   OH230412   6.592   2.293   0.094 -0.5444  0.0325  0.1931
 2926TIP3    H130413   6.640   2.263   0.017  0.0004  1.3612 -0.0077
 2926TIP3    H230414   6.654   2.349   0.141 -0.6092 -1.3323  2.0165
 2927TIP3   OH230415   1.857   5.355   0.688  0.0754 -0.6496  0.0982
 2927TIP3    H130416   1.807   5.433   0.712  1.8280 -0.4628  3.9427
 2927TIP3    H230417   1.794   5.283   0.696 -0.0989 -0.2721  3.3778
 2928TIP3   OH230418   4.759   6.942   0.147 -1.0859 -0.6004 -0.0169
 2928TIP3    H130419   4.799   6.885   0.081  1.2659  0.2625  0.5755
 2928TIP3    H230420   4.782   7.031   0.119 -1.2786 -0.1496  1.1853
 2929TIP3   OH230421   0.387   3.830   0.233 -0.2382 -0.0756 -0.5420
 2929TIP3    H130422   0.458   3.812   0.296  0.7851  0.0019 -1.6437
 2929TIP3    H230423   0.427   3.817   0.147 -1.1913  1.3280 -1.2368
 2930TIP3   OH230424   6.200   0.541   1.245  0.2610  0.2538 -1.0532
 2930TIP3    H130425   6.121   0.498   1.278  0.8218  0.8101  1.1694
 2930TIP3    H230426   6.272   0.494   1.289  1.0226  1.5094 -0.9274
 2931TIP3   OH230427   2.864   2.609   2.075  0.3402  0.1427  0.1601
 2931TIP3    H130428   2.817   2.529   2.049  0.5376  0.1478 -0.2246
 2931TIP3    H230429   2.939   2.579   2.125  0.8858  0.0360 -0.7110
 2932TIP3   OH230430   3.301   0.414   6.365 -0.8100  0.6253  0.6056
 2932TIP3    H130431   3.321   0.320   6.361 -0.4818  0.6476  1.4488
 2932TIP3    H230432   3.332   0.441   6.452 -0.4618  1.6204  0.1868
 2933TIP3   OH230433   5.649   1.472   1.467 -0.4976 -0.0347 -0.5366
 2933TIP3    H130434   5.584   1.476   1.537 -0.7898 -0.7159 -0.7581
 2933TIP3    H230435   5.714   1.410   1.498 -0.8960 -0.7418 -1.0724
 2934TIP3   OH230436   0.026   1.544   7.756 -0.9310 -0.0238 -0.1729
 2934TIP3    H130437  -0.012   1.457   7.759  0.5976 -0.7742  3.3293
 2934TIP3    H230438   0.072   1.548   7.672 -2.5681 -1.8190 -1.2258
 2935TIP3   OH230439   0.769   0.206   0.773 -0.1796  0.3311 -0.1452
 2935TIP3    H130440   0.730   0.137   0.718  0.8673  0.8890 -1.6645
 2935TIP3    H230441   0.739   0.287   0.732 -1.6067  0.8423  1.7777
 2936TIP3   OH230442   0.244   0.623   0.731  0.2449  0.0303  0.2103
 2936TIP3    H130443   0.301   0.551   0.703 -1.6428 -0.8262 -1.7404
 2936TIP3    H230444   0.224   0.604   0.823  2.4814 -0.0055  0.7394
 2937TIP3   OH230445   3.884   5.004   1.022 -0.2428 -0.4921 -0.1781
 2937TIP3    H130446   3.870   5.034   0.932 -1.7894 -0.4787  0.0512
 2937TIP3    H230447   3.912   4.913   1.012  1.8491  0.1587 -0.7491
 2938TIP3   OH230448   1.449   2.401   1.684  0.1491 -0.1186 -0.0967
 2938TIP3    H130449   1.363   2.411   1.724 -0.6069  1.5511 -1.9958
 2938TIP3    H230450   1.437   2.331   1.619  0.9736 -1.7443  1.4139
 2939TIP3   OH230451   1.780   5.361   2.865  0.0303  0.0716  0.9132
 2939TIP3    H130452   1.790   5.286   2.807  0.5852  2.0789 -1.7921
 2939TIP3    H230453   1.687   5.385   2.857  0.3383  1.0060 -0.0852
 2940TIP3   OH230454   3.109   4.544   0.684  0.0020  0.3335 -0.0061
 2940TIP3    H130455   3.060   4.604   0.628 -0.4676 -1.7052 -1.9002
 2940TIP3    H230456   3.197   4.541   0.645  0.7518  1.4926  1.4694
 2941TIP3   OH230457   2.050   0.243   6.849 -0.2435 -0.8054  0.7182
 2941TIP3    H130458   2.093   0.268   6.767  0.8808 -0.6159  1.3593
 2941TIP3    H230459   1.995   0.168   6.825  0.9583 -1.4909  0.0214
 2942TIP3   OH230460   5.704   1.136   7.940 -0.2437  0.1953 -0.6261
 2942TIP3    H130461   5.651   1.057   7.952 -0.3310  0.3852  0.3989
 2942TIP3    H230462   5.779   1.108   7.887 -1.3816 -0.0599 -2.1513
 2943TIP3   OH230463   1.430   3.780   1.399 -0.2966 -0.5224 -1.1121
 2943TIP3    H130464   1.444   3.841   1.471  0.7556 -1.2346 -0.6895
 2943TIP3    H230465   1.434   3.834   1.320  1.1164 -0.0857 -0.7725
 2944TIP3   OH230466   0.684   2.212   0.077  0.1867 -0.3716  0.1366
 2944TIP3    H130467   0.721   2.144   0.133 -0.9471 -0.2918  0.9986
 2944TIP3    H230468   0.643   2.164   0.004 -0.3881 -0.6056  0.6096
 2945TIP3   OH230469   2.451   2.939   7.272  0.1885 -0.2344  0.1546
 2945TIP3    H130470   2.382   2.985   7.225  1.0961  0.2620 -0.7535
 2945TIP3    H230471   2.458   2.986   7.356 -0.8337 -0.5548  0.4315
 2946TIP3   OH230472   3.917   4.839   7.066 -0.9454  0.4911  0.4288
 2946TIP3    H130473   3.960   4.917   7.032 -1.0833  0.9896  1.3836
 2946TIP3    H230474   3.952   4.827   7.154 -0.9151 -0.5334  0.2911
 2947TIP3   OH230475   5.510   3.793   2.765 -0.2456 -0.8614 -0.6187
 2947TIP3    H130476   5.527   3.853   2.837  1.6238 -2.4655  0.3788
 2947TIP3    H230477   5.479   3.713   2.807 -0.1132 -1.4919 -1.6768
 2948TIP3   OH230478   6.268   2.808   7.230  0.0534 -0.5937  0.4942
 2948TIP3    H130479   6.302   2.888   7.270  1.1229 -1.0627  0.5673
 2948TIP3    H230480   6.277   2.821   7.136  0.0486 -0.5554  0.4994
 2949TIP3   OH230481   0.373   6.443   7.804  0.7143  0.1587  0.1932
 2949TIP3    H130482   0.370   6.446   7.708  0.1353 -1.1756  0.1495
 2949TIP3    H230483   0.450   6.496   7.827  2.0557 -1.0983 -1.1165
 2950TIP3   OH230484   5.064   5.415   8.015  0.5551  0.4297 -0.1254
 2950TIP3    H130485   5.108   5.491   7.977  2.2128 -1.1341 -1.4902
 2950TIP3    H230486   5.128   5.344   8.007 -1.0954 -1.2255  0.7292
 2951TIP3   OH230487   5.972   4.047   1.573  0.0525  0.3164 -0.5386
 2951TIP3    H130488   6.056   4.003   1.590  0.7063  1.7275  0.0567
 2951TIP3    H230489   5.932   3.996   1.502  1.1827 -0.6745 -0.4953
 2952TIP3   OH230490   6.430   3.698   7.177  0.1878  0.0954  0.4479
 2952TIP3    H130491   6.431   3.604   7.157 -1.3265 -0.0490  0.9113
 2952TIP3    H230492   6.476   3.705   7.260  3.1716  0.2186 -1.1106
 2953TIP3   OH230493   0.308   5.353   0.513  0.6214 -0.0634 -0.5369
 2953TIP3    H130494   0.297   5.321   0.423  0.9626 -0.5484 -0.4118
 2953TIP3    H230495   0.396   5.391   0.513 -0.1991  1.9813 -1.0003
 2954TIP3   OH230496   2.390   4.271   7.053  0.2909  0.0066 -0.0256
 2954TIP3    H130497   2.319   4.254   6.991 -0.0393 -0.4800  0.4819
 2954TIP3    H230498   2.466   4.287   6.997 -0.3262  1.1058 -0.6010
 2955TIP3   OH230499   4.635   0.072   1.947 -0.3481 -0.0532 -0.0501
 2955TIP3    H130500   4.555   0.125   1.943 -0.0686  0.9221  3.5763
 2955TIP3    H230501   4.704   0.135   1.969  0.5412 -1.4697  1.3915
 2956TIP3   OH230502   3.424   5.319   2.181  0.9903  0.3734 -0.0515
 2956TIP3    H130503   3.499   5.336   2.125 -0.1382  1.2555 -1.3600
 2956TIP3    H230504   3.393   5.406   2.207 -1.2519  0.2062 -1.8779
 2957TIP3   OH230505   5.844   5.346   6.829 -0.0668  0.1478 -0.1643
 2957TIP3    H130506   5.757   5.335   6.791 -0.5712 -0.8785  1.2132
 2957TIP3    H230507   5.834   5.418   6.892  0.0331 -0.1061  0.1424
 2958TIP3   OH230508   2.067   3.983   0.508  0.7273  0.1964  0.1379
 2958TIP3    H130509   2.013   4.028   0.444  1.1058  0.9216  0.3231
 2958TIP3    H230510   2.025   4.001   0.593  1.4255  1.0434  0.3200
 2959TIP3   OH230511   0.776   4.396   6.965  0.4703 -0.3566  0.4895
 2959TIP3    H130512   0.856   4.390   6.913 -0.0710  0.3077 -0.4640
 2959TIP3    H230513   0.759   4.490   6.971 -1.6351 -0.5176 -1.5779
 2960TIP3   OH230514   6.604   5.666   7.950 -0.1108  0.1606 -0.1657
 2960TIP3    H130515   6.693   5.669   7.986  0.1433 -0.0549 -0.7731
 2960TIP3    H230516   6.564   5.589   7.992  0.0011  0.2354  0.0792
 2961TIP3   OH230517   6.683   0.123   0.327  0.1486  0.2099 -0.1731
 2961TIP3    H130518   6.673   0.183   0.401  0.8553  1.4783 -1.0673
 2961TIP3    H230519   6.652   0.172   0.251  2.2974  0.1198 -1.2023
 2962TIP3   OH230520   3.490   4.679   8.062  0.4474  0.0536 -0.5655
 2962TIP3    H130521   3.454   4.641   7.982  1.1872 -2.0603  0.0328
 2962TIP3    H230522   3.417   4.678   8.124  0.5788 -0.9317 -0.4073
 2963TIP3   OH230523   1.648   6.768   0.497 -0.2785  0.0789  0.0375
 2963TIP3    H130524   1.676   6.685   0.534  0.3919 -0.9206 -2.4955
 2963TIP3    H230525   1.727   6.806   0.460 -0.9973  0.6515 -0.9725
 2964TIP3   OH230526   5.720   0.914   0.038 -0.1970 -0.1707  0.1028
 2964TIP3    H130527   5.808   0.951   0.028  0.4433 -1.7518 -0.4647
 2964TIP3    H230528   5.710   0.903   0.133  0.4084 -0.4020  0.1460
 2965TIP3   OH230529   1.870   6.004   2.317 -0.2764  0.2755 -0.3910
 2965TIP3    H130530   1.907   6.019   2.230 -1.2020 -0.7045 -0.9699
 2965TIP3    H230531   1.910   5.921   2.345 -0.8983 -0.0331 -0.4061
 2966TIP3   OH230532   5.763   4.865   8.362 -0.0531  0.0838  0.2461
 2966TIP3    H130533   5.806   4.795   8.410 -0.3867  0.2147  0.7402
 2966TIP3    H230534   5.833   4.905   8.311  0.0052 -1.0630 -0.6111
 2967TIP3   OH230535   0.212   1.621   7.554 -0.4114 -0.5531 -0.5395
 2967TIP3    H130536   0.236   1.563   7.482 -0.7394 -0.8161 -0.4417
 2967TIP3    H230537   0.294   1.637   7.600 -0.1503 -0.1280 -1.1534
 2968TIP3   OH230538   1.449   2.857   0.140  0.4816  0.5083 -0.7160
 2968TIP3    H130539   1.376   2.827   0.085  0.0487  0.4873 -0.1477
 2968TIP3    H230540   1.416   2.848   0.230  1.3136  0.1815 -0.4367
 2969TIP3   OH230541   0.730   0.909   0.460 -0.3587  0.6442 -0.2719
 2969TIP3    H130542   0.638   0.917   0.435 -1.0617 -1.3623  1.3329
 2969TIP3    H230543   0.728   0.899   0.556  1.6553  1.7661 -0.0505
 2970TIP3   OH230544   0.237   2.042   0.050 -0.3539  0.0514  0.1632
 2970TIP3    H130545   0.303   2.020   0.116 -0.1175  2.1304  0.7126
 2970TIP3    H230546   0.165   2.080   0.100 -0.6254  0.6875 -0.6851
 2971TIP3   OH230547   6.054   6.072   0.268  0.4744 -0.1339 -0.1065
 2971TIP3    H130548   6.134   6.041   0.311  0.5405  0.3698  0.1447
 2971TIP3    H230549   5.990   6.002   0.284  1.0857 -0.9177 -1.0229
 2972TIP3   OH230550   2.384   6.804   1.783 -0.1164 -0.3181  0.9021
 2972TIP3    H130551   2.369   6.851   1.865  1.7892  0.6396  0.7670
 2972TIP3    H230552   2.469   6.836   1.752 -0.8934 -0.4362 -1.6017
 2973TIP3   OH230553   2.042   4.972   2.290 -0.1179  0.7404  0.2264
 2973TIP3    H130554   1.988   4.894   2.301  0.3796  0.5603  1.5344
 2973TIP3    H230555   2.090   4.980   2.372  0.1420  2.1992 -0.0383
 2974TIP3   OH230556   1.043   0.681   7.898 -0.2006  0.1877  0.3276
 2974TIP3    H130557   1.103   0.747   7.934 -0.3778  0.1935  0.6174
 2974TIP3    H230558   0.977   0.669   7.966  0.0774 -0.6211  0.4645
 2975TIP3   OH230559   0.847   5.999   7.929  0.2525 -0.3223  0.0135
 2975TIP3    H130560   0.922   5.943   7.911  0.9715  0.6934 -0.2249
 2975TIP3    H230561   0.835   6.051   7.849 -0.7896 -0.5601 -0.0039
 2976TIP3   OH230562   2.811   4.817   7.561 -0.0651 -0.0506 -0.4747
 2976TIP3    H130563   2.836   4.734   7.519 -3.4948 -0.9827 -0.9526
 2976TIP3    H230564   2.785   4.792   7.649 -1.4342  0.4214 -0.7285
 2977TIP3   OH230565   2.968   3.773   6.612 -0.2445 -0.4691 -0.0690
 2977TIP3    H130566   2.883   3.804   6.580  0.4779  0.0604 -1.6107
 2977TIP3    H230567   3.016   3.853   6.633  0.2206 -0.7183 -0.1825
 2978TIP3   OH230568   0.349   0.705   7.969 -0.4522 -0.5743 -0.0035
 2978TIP3    H130569   0.276   0.657   8.007  1.2711 -2.2328  1.3790
 2978TIP3    H230570   0.408   0.637   7.936  0.8466  0.6735 -0.3586
 2979TIP3   OH230571   0.775   4.683   6.958  0.0185  0.3205 -0.1251
 2979TIP3    H130572   0.796   4.706   6.868  0.9511  2.1165  0.4897
 2979TIP3    H230573   0.689   4.721   6.974  0.1098  0.5098 -0.0849
 2980TIP3   OH230574   4.032   0.521   8.238 -0.0753  0.4621  0.3108
 2980TIP3    H130575   3.997   0.520   8.327 -0.7885 -1.5704  0.0704
 2980TIP3    H230576   3.955   0.523   8.181  0.3418  0.6680 -0.2643
 2981TIP3   OH230577   3.659   3.438   8.021 -0.6143  0.1944 -0.1432
 2981TIP3    H130578   3.735   3.470   7.974  0.0738 -0.5655  0.4219
 2981TIP3    H230579   3.610   3.517   8.045 -0.8440  0.6172 -1.8498
 2982TIP3   OH230580   2.436   3.735   0.057 -0.3765 -0.2877  0.3982
 2982TIP3    H130581   2.356   3.695   0.022 -0.8525  0.9602  0.0175
 2982TIP3    H230582   2.434   3.825   0.025  1.2667 -0.2670  0.2677
 2983TIP3   OH230583   2.982   6.485   6.793  0.5869 -0.1232  0.1868
 2983TIP3    H130584   2.951   6.535   6.717  1.6827 -1.5764 -1.2968
 2983TIP3    H230585   3.069   6.519   6.811  1.0704 -1.0097 -0.4088
 2984TIP3   OH230586   6.871   5.622   2.346 -0.3994  0.1743  0.1206
 2984TIP3    H130587   6.840   5.536   2.317  0.2278  0.1528 -0.5200
 2984TIP3    H230588   6.811   5.647   2.416 -0.5485 -0.8145  0.3619
 2985TIP3   OH230589   1.185   3.886   7.883  0.3394 -0.2723 -0.4126
 2985TIP3    H130590   1.248   3.821   7.914  1.3447 -0.3123 -2.4093
 2985TIP3    H230591   1.238   3.954   7.843 -0.8187  0.6924 -0.3645
 2986TIP3   OH230592   3.033   5.894   1.309  0.0922  0.1223  0.0155
 2986TIP3    H130593   3.091   5.958   1.352  0.5518 -0.6460  0.5868
 2986TIP3    H230594   3.087   5.856   1.240  0.7940 -1.5768  1.4185
 2987TIP3   OH230595   0.362   6.833   7.158  0.1015  0.4338  0.1073
 2987TIP3    H130596   0.275   6.873   7.163 -0.0827  0.7023 -3.0544
 2987TIP3    H230597   0.357   6.773   7.083  2.3682 -0.3124  0.4580
 2988TIP3   OH230598   6.652   0.476   0.055  0.3724 -0.4903 -0.6828
 2988TIP3    H130599   6.566   0.489   0.096  0.2884 -0.7225 -0.7840
 2988TIP3    H230600   6.649   0.386   0.021  0.7082 -0.5493 -0.5572
 2989TIP3   OH230601   0.641   3.034   8.111 -0.3473  0.4810  0.1082
 2989TIP3    H130602   0.616   2.977   8.184 -0.7954 -0.0630 -0.4701
 2989TIP3    H230603   0.668   3.116   8.154 -0.7569  0.2271  0.8771
 2990TIP3   OH230604   3.644   0.353   7.566  0.1127 -0.5926  0.2054
 2990TIP3    H130605   3.618   0.333   7.656  0.3983 -0.6556  0.2743
 2990TIP3    H230606   3.689   0.437   7.572  0.0395 -0.5458  0.1054
 2991TIP3   OH230607   3.838   2.740   2.230 -0.4561  0.0481 -0.1108
 2991TIP3    H130608   3.929   2.768   2.237 -0.2233 -0.6945 -0.0038
 2991TIP3    H230609   3.844   2.644   2.223 -1.2517 -0.0431  0.3989
 2992TIP3   OH230610   4.769   1.715   1.463  0.5062  0.0224 -0.3116
 2992TIP3    H130611   4.808   1.800   1.442  0.1208  0.0289 -1.0300
 2992TIP3    H230612   4.675   1.731   1.462  0.4311 -0.4079 -0.4238
 2993TIP3   OH230613   5.864   1.474   0.375  0.5707  0.0046 -1.0743
 2993TIP3    H130614   5.898   1.513   0.294 -0.9218  1.1069 -1.2273
 2993TIP3    H230615   5.838   1.549   0.429 -1.5219 -0.7058 -0.9775
 2994TIP3   OH230616   3.349   0.182   2.522 -0.2217 -0.2315 -0.1955
 2994TIP3    H130617   3.261   0.171   2.486  0.0239  0.6657 -1.1360
 2994TIP3    H230618   3.403   0.119   2.474  0.0481  0.7590 -1.2596
 2995TIP3   OH230619   2.937   2.943   7.834 -0.1724  0.8353 -0.1110
 2995TIP3    H130620   2.848   2.946   7.798 -1.2292  0.6981  2.3015
 2995TIP3    H230621   2.991   2.914   7.761 -2.1369  0.6547 -1.5865
 2996TIP3   OH230622   4.302   1.606   0.136  0.2585 -0.8063  0.5106
 2996TIP3    H130623   4.360   1.616   0.060  0.9474  2.0105  1.2918
 2996TIP3    H230624   4.358   1.625   0.211 -1.1599 -0.2152  1.4599
 2997TIP3   OH230625   5.278   0.760   0.996 -0.1342  0.2683 -0.3979
 2997TIP3    H130626   5.239   0.730   1.079  2.1001  0.1090  0.6649
 2997TIP3    H230627   5.233   0.709   0.929 -0.7783 -0.8984  0.8536
 2998TIP3   OH230628   4.364   3.685   1.303  0.4137 -0.1312 -0.5043
 2998TIP3    H130629   4.400   3.600   1.278  0.4743 -0.4152  0.5019
 2998TIP3    H230630   4.389   3.696   1.395 -0.1871  0.6593 -0.4193
 2999TIP3   OH230631   3.235   6.374   7.672  0.3026  0.3442 -0.1457
 2999TIP3    H130632   3.256   6.311   7.741 -1.2220  1.1158  1.0903
 2999TIP3    H230633   3.274   6.337   7.593  3.9882  0.4940  1.4250
 3000TIP3   OH230634   1.811   5.413   1.064 -0.3804  0.2572  0.4880
 3000TIP3    H130635   1.846   5.493   1.023  0.4988  0.2333  1.1601
 3000TIP3    H230636   1.793   5.439   1.154  2.7443 -0.9983  1.6137
 3001TIP3   OH230637   2.567   6.785   1.093  0.3630  0.0959 -0.0626
 3001TIP3    H130638   2.593   6.877   1.091  0.9780 -0.0707  0.0681
 3001TIP3    H230639   2.634   6.742   1.146 -0.6587 -0.1919  1.0524
 3002TIP3   OH230640   5.309   2.270   7.635  0.0998 -0.4194  0.6465
 3002TIP3    H130641   5.353   2.186   7.647  0.1898 -0.7150 -1.4731
 3002TIP3    H230642   5.216   2.247   7.625  0.3300 -0.5218 -1.8291
 3003TIP3   OH230643   4.725   0.252   0.570  0.6091  0.5129  0.1955
 3003TIP3    H130644   4.769   0.170   0.589 -0.6258  0.0712  1.2971
 3003TIP3    H230645   4.689   0.280   0.654 -2.0607  0.3081 -0.7846
 3004TIP3   OH230646   3.216   1.879   7.235 -0.2971 -0.1814  0.0441
 3004TIP3    H130647   3.295   1.829   7.258 -0.1591  0.2617  0.5403
 3004TIP3    H230648   3.174   1.827   7.166  1.2737  0.3945 -1.4058
 3005TIP3   OH230649   3.347   3.896   1.593  0.1923  0.0152  0.3543
 3005TIP3    H130650   3.323   3.874   1.503  1.1118 -2.5230  0.6535
 3005TIP3    H230651   3.335   3.815   1.642  0.8067  1.0348  2.3031
 3006TIP3   OH230652   2.262   2.880   1.129  0.1373  0.5331 -0.6883
 3006TIP3    H130653   2.167   2.872   1.125  0.2510 -0.5283 -2.4073
 3006TIP3    H230654   2.279   2.974   1.127 -0.8798  0.8468  1.6795
 3007TIP3   OH230655   2.555   2.035   0.442  0.7894  0.1517  0.8231
 3007TIP3    H130656   2.596   1.970   0.500  0.5211 -1.2418 -0.4861
 3007TIP3    H230657   2.543   1.989   0.359 -0.7366  1.4441  0.2767
 3008TIP3   OH230658   4.020   4.103   0.295 -0.0179 -1.0542 -0.3439
 3008TIP3    H130659   3.939   4.115   0.343  0.2823  1.5599 -0.3621
 3008TIP3    H230660   4.035   4.008   0.297 -1.6590 -1.3464  1.9190
 3009TIP3   OH230661   5.812   1.917   8.139 -0.6071  0.3619 -0.3403
 3009TIP3    H130662   5.849   1.993   8.185 -1.5505 -0.2152  1.4332
 3009TIP3    H230663   5.724   1.907   8.174 -0.0195 -2.4360  0.6192
 3010TIP3   OH230664   1.590   0.672   0.247  0.1492 -0.0015  0.0676
 3010TIP3    H130665   1.649   0.670   0.322  0.3724  0.8464 -0.0725
 3010TIP3    H230666   1.518   0.614   0.271  1.5717 -2.0054 -0.2241
 3011TIP3   OH230667   5.206   4.056   7.552  0.2087  0.3151 -0.0155
 3011TIP3    H130668   5.171   4.094   7.471 -0.2170  0.6160  0.3097
 3011TIP3    H230669   5.263   3.986   7.522 -1.0172 -0.4876 -0.5418
 3012TIP3   OH230670   4.336   2.650   0.919 -0.2780  0.2459  0.3235
 3012TIP3    H130671   4.327   2.579   0.981  1.4883  0.3610  0.7652
 3012TIP3    H230672   4.247   2.682   0.905 -0.7747 -0.0893  2.4213
 3013TIP3   OH230673   0.123   3.768   0.158 -0.2435  0.3233 -0.0186
 3013TIP3    H130674   0.197   3.812   0.201  0.2663 -0.2152 -0.3202
 3013TIP3    H230675   0.164   3.702   0.102 -0.7800  1.9184 -2.4563
 3014TIP3   OH230676   0.839   1.112   0.880  0.1313  0.3583  0.1067
 3014TIP3    H130677   0.919   1.109   0.827 -1.0052  0.8227 -1.7218
 3014TIP3    H230678   0.829   1.204   0.904  0.7033  0.1336  1.2945
 3015TIP3   OH230679   1.195   6.784   2.021 -0.0082 -0.1762 -0.1316
 3015TIP3    H130680   1.133   6.846   2.059  0.1435 -0.7422  1.0735
 3015TIP3    H230681   1.184   6.704   2.072 -0.1744 -1.1581 -1.6398
 3016TIP3   OH230682   4.587   1.110   6.455 -0.2694 -0.0200 -0.5420
 3016TIP3    H130683   4.677   1.141   6.445  0.1276 -0.0772  2.1455
 3016TIP3    H230684   4.532   1.187   6.438  0.3103  0.2646 -1.1708
 3017TIP3   OH230685   1.934   4.770   7.725  0.2859  0.2218  0.2560
 3017TIP3    H130686   1.875   4.695   7.728 -0.0239  0.3456 -1.4907
 3017TIP3    H230687   1.974   4.765   7.638  0.7771  1.6902  0.3700
 3018TIP3   OH230688   2.071   6.170   1.296  0.3753 -0.1840 -0.0553
 3018TIP3    H130689   2.092   6.200   1.208  0.6262  1.3366  0.4779
 3018TIP3    H230690   2.147   6.195   1.349 -0.5366  0.6521  0.9210
 3019TIP3   OH230691   1.829   0.772   1.555 -0.2723 -0.4422 -0.1075
 3019TIP3    H130692   1.747   0.727   1.576 -0.5373  0.0092 -0.1620
 3019TIP3    H230693   1.895   0.727   1.608 -0.6709 -0.3564  0.4709
 3020TIP3   OH230694   0.417   6.043   2.561  0.3603 -0.5524 -0.1955
 3020TIP3    H130695   0.477   6.112   2.588 -1.7906  1.5299 -0.3603
 3020TIP3    H230696   0.378   6.011   2.643  0.2752 -0.5077 -0.2180
 3021TIP3   OH230697   2.206   1.190   2.524 -0.4836 -0.1968 -0.5253
 3021TIP3    H130698   2.173   1.124   2.464 -0.5879 -0.0365 -0.6449
 3021TIP3    H230699   2.227   1.142   2.604 -1.3138 -0.2528 -0.3300
 3022TIP3   OH230700   0.215   1.607   2.053 -0.0191 -0.4393 -0.1610
 3022TIP3    H130701   0.258   1.571   1.976 -0.3208 -2.4711  0.5610
 3022TIP3    H230702   0.133   1.644   2.019  0.2080 -0.6088 -0.9111
 3023TIP3   OH230703   3.380   0.896   7.775  0.3661  0.1777 -0.1636
 3023TIP3    H130704   3.348   0.986   7.781  0.2797  0.1012  0.5723
 3023TIP3    H230705   3.391   0.881   7.681 -0.8301  0.5286 -0.3752
 3024TIP3   OH230706   0.916   1.940   8.178  0.7352  0.2489  0.1702
 3024TIP3    H130707   0.991   1.998   8.181  0.0915  1.0579  2.4175
 3024TIP3    H230708   0.953   1.853   8.161  2.2860  0.5074  1.9129
 3025TIP3   OH230709   3.571   4.542   7.375 -0.0269  0.2822  0.1740
 3025TIP3    H130710   3.609   4.609   7.317 -1.2525 -0.0171 -1.0295
 3025TIP3    H230711   3.615   4.556   7.459 -0.4040  2.7635  0.0430
 3026TIP3   OH230712   5.930   1.144   0.224  0.1280 -0.0973 -0.3199
 3026TIP3    H130713   5.921   1.072   0.287  1.9234 -1.9994 -2.0891
 3026TIP3    H230714   6.003   1.196   0.257  0.1066 -0.2178 -0.0796
 3027TIP3   OH230715   2.260   2.681   0.198  0.1542 -0.4710 -0.2044
 3027TIP3    H130716   2.316   2.750   0.163  1.1303 -0.2592  1.6842
 3027TIP3    H230717   2.172   2.706   0.171  0.8418 -0.7758 -3.1902
 3028TIP3   OH230718   1.319   0.363   2.298 -0.7372  0.1799  0.4110
 3028TIP3    H130719   1.313   0.339   2.206  0.2090  0.6209  0.2199
 3028TIP3    H230720   1.302   0.282   2.346 -0.2868 -0.2654 -0.1727
 3029TIP3   OH230721   3.175   3.133   6.604  0.0554  0.6197 -0.0904
 3029TIP3    H130722   3.245   3.069   6.616  1.0276  1.7476  0.4221
 3029TIP3    H230723   3.103   3.082   6.565 -0.4849 -1.5278  3.3367
 3030TIP3   OH230724   5.090   3.622   1.769  0.4351  0.0294  0.1632
 3030TIP3    H130725   5.160   3.642   1.831  1.8152 -1.7600 -0.7175
 3030TIP3    H230726   5.045   3.547   1.807 -0.2354  0.4183  0.1404
 3031TIP3   OH230727   4.541   6.111   0.280  0.2339  0.3046  0.1895
 3031TIP3    H130728   4.594   6.038   0.247 -0.9837 -1.0007  1.0203
 3031TIP3    H230729   4.582   6.189   0.241  2.3191 -0.6805  0.2440
 3032TIP3   OH230730   2.437   1.139   2.070 -0.6504  0.2266 -0.2164
 3032TIP3    H130731   2.419   1.202   2.001 -0.6793 -0.3451 -0.7424
 3032TIP3    H230732   2.408   1.182   2.150 -1.1039  0.6943 -0.6246
 3033TIP3   OH230733   0.627   5.814   0.891 -0.4235 -0.1603  0.5829
 3033TIP3    H130734   0.563   5.756   0.849 -0.3817  0.6716 -0.6956
 3033TIP3    H230735   0.711   5.782   0.860 -0.3726  0.2821  0.2636
 3034TIP3   OH230736   2.924   6.386   7.922 -0.2442 -0.1137  0.3524
 3034TIP3    H130737   2.869   6.441   7.978  0.2883  1.9188 -1.0357
 3034TIP3    H230738   2.938   6.306   7.974  0.4842  1.7640  3.2589
 3035TIP3   OH230739   5.833   2.050   1.781  0.3353  0.2890 -1.1864
 3035TIP3    H130740   5.869   1.996   1.710  0.9633 -2.6393  1.1316
 3035TIP3    H230741   5.776   1.990   1.829 -3.1525  3.1880 -1.2751
 3036TIP3   OH230742   6.198   0.743   1.739  0.2448  0.0926  0.2406
 3036TIP3    H130743   6.209   0.748   1.834  3.5932  0.6153 -0.0640
 3036TIP3    H230744   6.253   0.813   1.705 -1.7146  0.6091 -2.1172
 3037TIP3   OH230745   6.467   0.794   7.132 -0.2051  0.3990  0.5219
 3037TIP3    H130746   6.447   0.765   7.043 -0.3407  0.6134  0.4808
 3037TIP3    H230747   6.531   0.731   7.165  0.3852  0.7260  0.0161
 3038TIP3   OH230748   2.496   1.421   0.031 -0.1701  0.3738 -0.4039
 3038TIP3    H130749   2.560   1.395  -0.036  0.4535 -0.5043  0.5017
 3038TIP3    H230750   2.525   1.508   0.059  0.5386  0.0490 -0.1129
 3039TIP3   OH230751   6.416   5.223   8.012  0.6640 -0.4183 -0.5457
 3039TIP3    H130752   6.434   5.134   7.983  0.0234 -0.9604  0.6395
 3039TIP3    H230753   6.421   5.218   8.108  0.5819  0.8132 -0.4597
 3040TIP3   OH230754   0.418   6.566   2.766  0.1578  0.6529 -0.8669
 3040TIP3    H130755   0.331   6.604   2.776 -0.4905  0.0477 -3.6043
 3040TIP3    H230756   0.476   6.630   2.806 -1.5504  0.5104  2.1730
 3041TIP3   OH230757   6.039   5.668   7.916 -0.5334  0.2140 -0.0857
 3041TIP3    H130758   6.061   5.672   8.009 -2.4790  0.1085  0.4141
 3041TIP3    H230759   5.950   5.635   7.913  0.1120 -1.6037 -2.1132
 3042TIP3   OH230760   4.200   6.839   0.025  0.0706  0.1561 -0.3032
 3042TIP3    H130761   4.130   6.883  -0.024  0.7180  0.3987 -1.0334
 3042TIP3    H230762   4.281   6.877  -0.010  0.5482  0.8342  1.4360
 3043TIP3   OH230763   6.442   1.313   0.302  0.2512 -0.0430 -0.5657
 3043TIP3    H130764   6.517   1.312   0.361 -0.1397  1.7682  0.0168
 3043TIP3    H230765   6.475   1.356   0.223 -0.2146  0.9930 -0.2111
 3044TIP3   OH230766   6.390   4.809   1.210 -0.1486 -0.3918  0.1260
 3044TIP3    H130767   6.459   4.849   1.157  0.1480  0.2758  0.9772
 3044TIP3    H230768   6.359   4.880   1.266  0.6886 -1.4217  1.9911
 3045TIP3   OH230769   2.027   0.904   7.807 -0.0611 -0.1346 -0.2345
 3045TIP3    H130770   2.051   0.913   7.715 -0.8896 -1.2211 -0.5853
 3045TIP3    H230771   2.011   0.993   7.837  0.0459  0.2191 -1.1971
 3046TIP3   OH230772   4.341   6.778   1.244  0.2083  0.3308  0.4550
 3046TIP3    H130773   4.430   6.742   1.252 -0.4569 -1.4661  0.1742
 3046TIP3    H230774   4.346   6.863   1.289  2.3180  0.7762 -0.4705
 3047TIP3   OH230775   1.808   6.552   0.313 -0.2222  0.2484 -0.1053
 3047TIP3    H130776   1.824   6.576   0.405 -1.9060 -0.8138  0.4987
 3047TIP3    H230777   1.880   6.594   0.265  1.7491 -0.6202  1.8905
 3048TIP3   OH230778   0.855   4.877   0.045 -0.2845  0.1780 -0.0386
 3048TIP3    H130779   0.893   4.830   0.119  0.5114 -0.9309 -1.1233
 3048TIP3    H230780   0.765   4.846   0.040 -0.1335 -0.2704  0.0357
 3049TIP3   OH230781   2.635   1.652   0.940 -0.0051 -0.4999 -0.4978
 3049TIP3    H130782   2.626   1.597   1.018 -0.5520  0.9008  0.4874
 3049TIP3    H230783   2.724   1.636   0.909  0.0652 -1.4296  0.1550
 3050TIP3   OH230784   6.092   5.667   0.286  0.1010  0.1608 -0.2705
 3050TIP3    H130785   6.014   5.720   0.305  0.0272  0.3762 -1.1319
 3050TIP3    H230786   6.154   5.729   0.249  0.1238 -0.2924 -1.0059
 3051TIP3   OH230787   6.196   0.910   2.550 -0.1260  0.4427 -0.4913
 3051TIP3    H130788   6.181   0.892   2.457 -1.9225 -1.8232  0.1337
 3051TIP3    H230789   6.143   0.987   2.568 -0.7487  0.1779 -1.1235
 3052TIP3   OH230790   3.015   0.624   2.250 -0.5733 -0.2104  0.5297
 3052TIP3    H130791   3.004   0.553   2.313 -0.7741 -0.8211 -0.1753
 3052TIP3    H230792   3.057   0.694   2.300 -2.2975 -0.0115  1.8008
 3053TIP3   OH230793   3.038   4.874   0.324  0.5944 -0.2796 -0.2268
 3053TIP3    H130794   2.981   4.884   0.248  0.2870  2.6193  0.2715
 3053TIP3    H230795   3.124   4.851   0.287  0.3326  0.5920 -1.4319
 3054TIP3   OH230796   6.414   4.129   2.139  0.0879 -0.0592  0.5149
 3054TIP3    H130797   6.463   4.200   2.098 -1.0179  1.2185  1.3075
 3054TIP3    H230798   6.481   4.069   2.172  1.0216 -0.3041 -1.6576
 3055TIP3   OH230799   6.760   1.614   7.565 -0.3574  0.1082 -0.2959
 3055TIP3    H130800   6.797   1.661   7.639  2.6471  0.0869 -1.6258
 3055TIP3    H230801   6.710   1.680   7.516  0.4014  0.9138  0.0098
 3056TIP3   OH230802   4.684   4.433   2.168 -0.1891  0.0498  0.3724
 3056TIP3    H130803   4.733   4.514   2.156  0.4233 -0.4497 -0.6654
 3056TIP3    H230804   4.679   4.395   2.080 -2.8911  0.3116  0.3260
 3057TIP3   OH230805   3.671   1.594   0.665  0.2018 -0.1192 -0.1169
 3057TIP3    H130806   3.757   1.635   0.677  0.1017 -0.0103  0.2684
 3057TIP3    H230807   3.640   1.579   0.755 -0.2216 -0.0695 -0.2534
 3058TIP3   OH230808   6.135   6.902   0.946  0.4038 -0.6090 -0.0517
 3058TIP3    H130809   6.106   6.869   0.861 -1.5653  1.5781 -0.3146
 3058TIP3    H230810   6.059   6.891   1.003  1.4013 -1.1939  1.2003
 3059TIP3   OH230811   3.313   1.368   7.292  0.0487 -0.1231 -0.0910
 3059TIP3    H130812   3.241   1.311   7.266  0.0561 -0.2326  0.1212
 3059TIP3    H230813   3.371   1.370   7.216  0.0826 -0.4555 -0.0766
 3060TIP3   OH230814   5.699   2.387   0.289  0.0422  0.0720  0.0703
 3060TIP3    H130815   5.621   2.419   0.334  0.1993 -0.6096  0.8608
 3060TIP3    H230816   5.772   2.434   0.330  0.0440  0.7989 -0.7519
 3061TIP3   OH230817   1.149   6.829   1.737  0.2779  0.6701 -0.3587
 3061TIP3    H130818   1.166   6.745   1.693 -0.5496  0.5147 -0.3893
 3061TIP3    H230819   1.174   6.812   1.828 -0.1485  0.2998 -0.3059
 3062TIP3   OH230820   0.937   1.382   7.351  0.0398  0.1514 -0.4930
 3062TIP3    H130821   0.995   1.406   7.423  0.0369 -1.4506  0.0833
 3062TIP3    H230822   0.970   1.431   7.276  0.7364  0.9842  0.3425
 3063TIP3   OH230823   3.216   6.159   1.714 -0.4263  0.0847 -0.5487
 3063TIP3    H130824   3.310   6.142   1.722 -0.5327 -0.1394  0.4222
 3063TIP3    H230825   3.188   6.108   1.638  0.5328  1.5021 -1.8921
 3064TIP3   OH230826   5.272   4.747   7.587 -0.5364  0.0667  0.3762
 3064TIP3    H130827   5.284   4.663   7.542  0.8626 -0.3590  1.4524
 3064TIP3    H230828   5.327   4.809   7.538  1.9820 -0.6579  2.0353
 3065TIP3   OH230829   0.287   0.024   8.024 -0.4974  0.1523 -0.6548
 3065TIP3    H130830   0.297  -0.071   8.029 -0.1898  0.2475  3.1895
 3065TIP3    H230831   0.198   0.040   8.057  0.4715  1.2581  1.6306
 3066TIP3   OH230832   0.584   3.133   2.416 -0.2099  0.3058 -0.2745
 3066TIP3    H130833   0.648   3.097   2.477 -0.1504 -2.5927 -1.8857
 3066TIP3    H230834   0.617   3.110   2.329 -1.2041  2.6865 -1.3888
 3067TIP3   OH230835   5.493   2.729   8.344  0.1763 -0.0328  0.3932
 3067TIP3    H130836   5.471   2.813   8.385  1.6228  0.4306  0.2714
 3067TIP3    H230837   5.508   2.670   8.417 -1.8176 -0.4970  0.4859
 3068TIP3   OH230838   2.925   1.886   7.836 -0.6152 -0.4441 -0.0123
 3068TIP3    H130839   2.973   1.806   7.858 -1.6148 -0.8394  0.7957
 3068TIP3    H230840   2.984   1.933   7.777  0.1142 -1.6362 -0.2809
 3069TIP3   OH230841   3.396   2.081   1.528 -0.1363  0.1991  0.2747
 3069TIP3    H130842   3.432   2.098   1.615  1.2853 -0.2486 -0.1915
 3069TIP3    H230843   3.348   1.998   1.538  0.9621 -0.4418  0.4056
 3070TIP3   OH230844   4.445   3.049   2.379 -0.6983 -0.2704  0.3269
 3070TIP3    H130845   4.476   2.979   2.320  0.8719  1.7957 -1.4948
 3070TIP3    H230846   4.374   3.090   2.331 -0.4471  0.4590  0.5698
 3071TIP3   OH230847   3.328   6.780   1.114 -0.8172  0.3060  0.2541
 3071TIP3    H130848   3.347   6.715   1.182 -0.3747  1.2003  1.0006
 3071TIP3    H230849   3.390   6.851   1.130  1.2720 -0.6395 -2.8287
 3072TIP3   OH230850   1.670   6.092   1.888  0.7060  0.1991 -0.4842
 3072TIP3    H130851   1.661   5.998   1.871  2.3208 -0.7575  2.9975
 3072TIP3    H230852   1.592   6.114   1.939  0.9551  0.4430 -0.2069
 3073TIP3   OH230853   6.748   1.890   8.230 -0.1643 -0.3330  0.0052
 3073TIP3    H130854   6.750   1.832   8.306 -0.1213  0.5092  0.6552
 3073TIP3    H230855   6.840   1.911   8.213 -0.1971 -0.2384 -0.0573
 3074TIP3   OH230856   4.972   2.613   1.563  0.0181  0.3061 -0.3941
 3074TIP3    H130857   4.953   2.633   1.471 -0.2968  0.6277 -0.2614
 3074TIP3    H230858   4.922   2.534   1.581  0.9631 -0.4081 -0.8113
 3075TIP3   OH230859   2.578   3.689   2.585 -0.1908 -0.5239 -0.3527
 3075TIP3    H130860   2.513   3.744   2.628 -0.0326 -1.4240  1.0996
 3075TIP3    H230861   2.659   3.739   2.589 -0.0230 -0.8732  1.0536
 3076TIP3   OH230862   2.642   0.810   1.934 -0.4405 -0.1853 -0.1296
 3076TIP3    H130863   2.613   0.719   1.943  0.5923 -0.4244  1.2575
 3076TIP3    H230864   2.732   0.809   1.967 -0.1681  1.2148 -0.7635
 3077TIP3   OH230865   6.185   4.691   1.373 -0.5315 -0.3422 -0.0404
 3077TIP3    H130866   6.211   4.604   1.403  0.7465 -0.3620 -1.1192
 3077TIP3    H230867   6.267   4.736   1.355 -1.1805  0.9864  0.1908
 3078TIP3   OH230868   2.063   3.815   1.625 -0.1243 -0.0017  0.1176
 3078TIP3    H130869   1.980   3.768   1.630  0.1101 -0.3005  1.5092
 3078TIP3    H230870   2.041   3.905   1.648 -0.2910  0.2406 -0.9343
 3079TIP3   OH230871   0.243   5.758   1.334 -0.0654  0.2123 -0.6908
 3079TIP3    H130872   0.181   5.745   1.405  0.6673 -3.0729 -0.4798
 3079TIP3    H230873   0.198   5.724   1.256  0.5697  0.0698 -1.0066
 3080TIP3   OH230874   4.998   4.042   8.453  0.4789 -0.6375 -0.0249
 3080TIP3    H130875   5.043   3.971   8.499 -1.0410 -1.0958  0.8240
 3080TIP3    H230876   4.986   4.009   8.364  1.4611 -0.6470 -0.1701
 3081TIP3   OH230877   0.191   0.377   0.360 -0.3184 -0.2395 -0.6022
 3081TIP3    H130878   0.276   0.361   0.402 -0.1730  0.8898 -0.4398
 3081TIP3    H230879   0.214   0.410   0.273 -0.3305  4.9330  1.0137
 3082TIP3   OH230880   4.069   3.055   0.455  0.0507 -0.0520 -0.2132
 3082TIP3    H130881   4.024   2.971   0.458 -0.4100  0.2124  1.0325
 3082TIP3    H230882   4.151   3.040   0.502 -1.3264  0.8597  2.7626
 3083TIP3   OH230883   3.525   5.362   1.028 -0.4046 -0.0642  0.0051
 3083TIP3    H130884   3.570   5.278   1.018  0.3360  0.5447 -2.3659
 3083TIP3    H230885   3.473   5.371   0.948 -0.4285  1.7513  0.1938
 3084TIP3   OH230886   1.430   2.774   0.451 -0.5507 -0.2508  0.0042
 3084TIP3    H130887   1.364   2.711   0.480 -0.5026 -1.1139 -1.6890
 3084TIP3    H230888   1.388   2.859   0.462 -1.4834 -0.7130  0.1217
 3085TIP3   OH230889   3.772   6.726   2.322  0.1775 -0.1964 -0.2481
 3085TIP3    H130890   3.781   6.697   2.412 -0.8195 -0.3364 -0.1809
 3085TIP3    H230891   3.826   6.805   2.316  1.0542 -0.7470  0.1876
 3086TIP3   OH230892   1.457   1.880   8.525 -0.2140 -0.3285  0.5060
 3086TIP3    H130893   1.414   1.871   8.610  2.5833  0.9026  2.1874
 3086TIP3    H230894   1.488   1.970   8.523 -1.0880  0.0029 -2.3384
 3087TIP3   OH230895   4.289   0.919   8.463 -0.0126  0.1475 -0.3872
 3087TIP3    H130896   4.254   0.842   8.418  1.4729  0.1157 -1.5541
 3087TIP3    H230897   4.216   0.950   8.516 -0.4390 -2.5069  0.7360
 3088TIP3   OH230898   2.853   5.989   8.039 -0.2418 -0.3118  0.0375
 3088TIP3    H130899   2.919   5.955   7.978  0.0507  0.0309  0.1562
 3088TIP3    H230900   2.896   6.064   8.080 -0.3418 -0.7008  0.8625
 3089TIP3   OH230901   5.947   1.879   2.407 -0.6658  0.1875 -0.2497
 3089TIP3    H130902   5.975   1.789   2.425  1.1576  0.7559 -0.0566
 3089TIP3    H230903   5.971   1.928   2.486  0.6145  1.2881 -1.2601
 3090TIP3   OH230904   2.197   0.203   0.431 -0.5483 -0.3786  0.1699
 3090TIP3    H130905   2.243   0.131   0.388 -2.0547 -1.1776 -0.1693
 3090TIP3    H230906   2.180   0.172   0.520 -2.2432 -0.9418 -0.3334
 3091TIP3   OH230907   5.798   1.977   7.556  0.2860 -0.8328  0.2842
 3091TIP3    H130908   5.732   1.941   7.616  0.4922 -1.7139 -0.0043
 3091TIP3    H230909   5.859   2.024   7.613  0.0820 -1.0490  0.6875
 3092TIP3   OH230910   0.629   2.023   7.299 -0.0382 -0.2036 -0.6999
 3092TIP3    H130911   0.605   1.934   7.271  0.1375 -1.8106  3.5090
 3092TIP3    H230912   0.547   2.071   7.299 -0.1989 -0.3875 -2.6946
 3093TIP3   OH230913   6.476   4.503   2.079  0.2961 -0.8108 -0.4576
 3093TIP3    H130914   6.547   4.475   2.136 -0.3221 -1.6053 -0.0442
 3093TIP3    H230915   6.408   4.535   2.139  0.5144  0.4683 -0.8737
 3094TIP3   OH230916   3.037   3.760   2.149  0.3691  0.5686 -0.4500
 3094TIP3    H130917   2.978   3.833   2.170 -0.5492  0.2465 -1.8177
 3094TIP3    H230918   2.995   3.684   2.189  0.6240  0.5712 -0.1762
 3095TIP3   OH230919   5.620   2.804   2.237  0.3634 -0.7816 -0.1932
 3095TIP3    H130920   5.622   2.766   2.325 -1.2408  0.9351  0.6655
 3095TIP3    H230921   5.697   2.862   2.234 -0.2183  0.0511  0.5496
 3096TIP3   OH230922   3.343   1.401   8.433  0.0633  0.1210 -0.0311
 3096TIP3    H130923   3.352   1.453   8.352 -0.7831 -0.6688 -0.6519
 3096TIP3    H230924   3.427   1.357   8.443 -0.1227 -0.4829 -0.9967
 3097TIP3   OH230925   5.301   5.613   0.082  0.1640 -0.1238 -0.1402
 3097TIP3    H130926   5.262   5.688   0.127 -0.3573 -1.4715  1.7729
 3097TIP3    H230927   5.287   5.630  -0.011 -1.6598  1.2130  0.3352
 3098TIP3   OH230928   0.672   3.029   6.717  0.0489 -0.3814  0.2688
 3098TIP3    H130929   0.587   2.986   6.719 -0.8996  1.4193  2.0819
 3098TIP3    H230930   0.660   3.108   6.769  2.6359  0.3241 -0.0795
 3099TIP3   OH230931   3.478   5.472   1.508  0.0860 -0.3009  0.0065
 3099TIP3    H130932   3.553   5.530   1.519 -0.8484  0.9754 -0.0918
 3099TIP3    H230933   3.419   5.520   1.450 -0.4061 -1.6770 -0.6765
 3100TIP3   OH230934   1.099   1.852   7.196  0.8054  0.0375  0.8263
 3100TIP3    H130935   1.125   1.893   7.113 -0.5354  2.1493  1.4010
 3100TIP3    H230936   1.017   1.894   7.220  0.2354 -1.7996  2.3783
 3101TIP3   OH230937   3.090   4.341   1.959  0.0789 -0.4881 -0.0386
 3101TIP3    H130938   3.078   4.263   2.012  0.1707 -1.0496 -0.8279
 3101TIP3    H230939   3.175   4.376   1.986  1.2106 -2.0399 -1.3721
 3102TIP3   OH230940   0.860   2.786   0.463  0.3266  0.1606  0.4131
 3102TIP3    H130941   0.865   2.721   0.393  2.4750 -1.3275  1.8368
 3102TIP3    H230942   0.951   2.807   0.483 -0.2606  1.3751  2.0141
 3103TIP3   OH230943   5.396   6.608   6.856 -0.0620 -0.8376  0.5725
 3103TIP3    H130944   5.345   6.679   6.818  1.6962 -0.1735 -0.6603
 3103TIP3    H230945   5.479   6.649   6.881  0.9453 -2.4055 -0.0512
 3104TIP3   OH230946   1.130   2.927   0.334  0.2316 -0.0565 -0.6514
 3104TIP3    H130947   1.109   2.963   0.420  0.2942  0.9680 -1.0434
 3104TIP3    H230948   1.059   2.957   0.278  0.1520 -0.7795 -0.9447
 3105TIP3   OH230949   2.359   4.649   7.669  0.1079 -0.0293  0.0667
 3105TIP3    H130950   2.424   4.719   7.681  0.3976 -0.4134  0.7335
 3105TIP3    H230951   2.359   4.634   7.574 -0.4796  1.3701 -0.1898
 3106TIP3   OH230952   1.641   2.696   0.281 -0.2573 -0.2896  0.6694
 3106TIP3    H130953   1.599   2.751   0.215  3.3060  1.8076 -0.1076
 3106TIP3    H230954   1.585   2.704   0.358 -2.1686  0.8406 -0.7527
 3107TIP3   OH230955   0.707   3.970   1.123  0.1518 -0.2684 -0.3437
 3107TIP3    H130956   0.747   3.925   1.049  0.8315  1.5803 -1.1622
 3107TIP3    H230957   0.647   4.033   1.083  1.8328  2.0024  0.5393
 3108TIP3   OH230958   1.302   4.274   2.344 -0.2035 -0.3964  0.0543
 3108TIP3    H130959   1.236   4.298   2.409 -0.5540 -0.6795 -0.1986
 3108TIP3    H230960   1.295   4.179   2.336  0.8985 -0.5537  0.7435
 3109TIP3   OH230961   4.307   3.530   7.561 -0.1312 -0.6162 -0.1805
 3109TIP3    H130962   4.255   3.525   7.642  0.9709  0.9470  0.6884
 3109TIP3    H230963   4.365   3.454   7.565  1.3508  0.5177  1.6219
 3110TIP3   OH230964   4.226   6.814   1.662 -0.2774  0.8228 -0.7379
 3110TIP3    H130965   4.232   6.901   1.701  0.0825 -0.1787  1.6858
 3110TIP3    H230966   4.221   6.755   1.738 -3.4568 -1.0981 -2.2295
 3111TIP3   OH230967   0.234   3.761   1.776 -0.4340 -0.3062 -0.3198
 3111TIP3    H130968   0.330   3.756   1.778 -0.3054  1.0748 -1.3505
 3111TIP3    H230969   0.212   3.756   1.683 -1.4182 -1.1263 -0.0623
 3112TIP3   OH230970   5.852   3.825   7.029  0.3529  0.1911  0.4189
 3112TIP3    H130971   5.791   3.894   7.003 -1.1229 -0.9174  0.7827
 3112TIP3    H230972   5.925   3.871   7.069 -0.1207  1.5875 -0.2606
 3113TIP3   OH230973   1.984   4.061   1.687  0.0315 -0.2073 -0.2189
 3113TIP3    H130974   2.027   4.082   1.770  1.3378 -1.7705 -0.4516
 3113TIP3    H230975   1.997   4.139   1.633 -0.0123  0.4668  0.7113
 3114TIP3   OH230976   1.562   0.764   2.353  0.1017 -0.0217  0.2750
 3114TIP3    H130977   1.622   0.700   2.391  0.6185 -0.2996 -0.9410
 3114TIP3    H230978   1.484   0.712   2.330 -0.2479  0.1632  1.0185
 3115TIP3   OH230979   3.764   5.633   0.555  0.2853 -0.1465  0.0297
 3115TIP3    H130980   3.702   5.704   0.537 -1.3143 -1.9499 -2.0524
 3115TIP3    H230981   3.850   5.672   0.536 -0.5793  1.1104 -1.5915
 3116TIP3   OH230982   5.041   6.837   7.546  0.7757 -0.0448  0.0850
 3116TIP3    H130983   5.028   6.888   7.627  0.3872  0.5498 -0.3433
 3116TIP3    H230984   5.110   6.885   7.500  1.0188 -0.4025  0.0791
 3117TIP3   OH230985   1.766   0.706   2.536  0.3050  0.0976 -0.1850
 3117TIP3    H130986   1.842   0.654   2.561  1.4087  0.5161 -2.4021
 3117TIP3    H230987   1.701   0.687   2.603  1.6134 -1.9626  0.6026
 3118TIP3   OH230988   3.673   2.301   2.098 -0.0194  0.1050 -0.2928
 3118TIP3    H130989   3.749   2.308   2.040 -1.9396  1.5721 -2.8728
 3118TIP3    H230990   3.671   2.385   2.144 -0.0190  0.0232 -0.1442
 3119TIP3   OH230991   0.010   4.877   1.937 -0.0201  0.1731  0.1582
 3119TIP3    H130992  -0.006   4.856   2.029 -0.7658 -0.5042 -0.1147
 3119TIP3    H230993  -0.029   4.804   1.889 -0.3461  0.9129 -0.7258
 3120TIP3   OH230994   5.987   6.338   6.673 -0.0196 -0.3427 -0.1470
 3120TIP3    H130995   5.948   6.251   6.671 -0.2975 -0.2043 -1.9406
 3120TIP3    H230996   5.981   6.370   6.583 -0.3130  1.7132  0.5409
 3121TIP3   OH230997   2.105   2.442   1.087  0.0512  0.2630 -0.0936
 3121TIP3    H130998   2.077   2.527   1.054 -1.4464 -0.7228 -1.4849
 3121TIP3    H230999   2.183   2.421   1.036 -0.3808  0.1889 -0.7260
 3122TIP3   OH231000   4.247   3.309   0.698 -0.3207 -0.2650  0.0910
 3122TIP3    H131001   4.189   3.247   0.654 -0.3614  0.5197 -0.9982
 3122TIP3    H231002   4.276   3.263   0.777 -1.5704 -1.0694  0.1033
 3123TIP3   OH231003   4.685   4.821   0.184  0.0163  0.5069 -0.8802
 3123TIP3    H131004   4.625   4.748   0.203  1.3003 -0.3667 -0.0202
 3123TIP3    H231005   4.736   4.790   0.110  1.1290  0.1548  0.0062
 3124TIP3   OH231006   1.106   0.202   8.130  0.0457 -0.3815  0.3132
 3124TIP3    H131007   1.050   0.146   8.183 -2.7620  0.5020 -1.4836
 3124TIP3    H231008   1.065   0.289   8.135  2.1832  0.7181  0.1337
 3125TIP3   OH231009   4.317   1.691   7.798  0.0749  0.5430 -0.2140
 3125TIP3    H131010   4.404   1.704   7.760  0.4704  0.1986  0.5714
 3125TIP3    H231011   4.332   1.676   7.891 -0.8820  1.2621  0.0768
 3126TIP3   OH231012   1.854   0.684   0.722 -0.6686 -0.3762 -0.3410
 3126TIP3    H131013   1.942   0.648   0.710  0.1149  1.0221  0.9165
 3126TIP3    H231014   1.808   0.618   0.774  0.4630 -0.0511  1.1605
 3127TIP3   OH231015   1.146   4.479   7.555 -1.1364 -0.8689  0.5372
 3127TIP3    H131016   1.170   4.515   7.469  3.2768  2.3428  2.6960
 3127TIP3    H231017   1.058   4.513   7.571 -0.3425  2.3022 -1.0088
 3128TIP3   OH231018   0.189   1.105   6.595 -0.1800 -0.0504 -0.0500
 3128TIP3    H131019   0.148   1.018   6.588 -0.2756  0.0072 -0.2058
 3128TIP3    H231020   0.269   1.089   6.644 -0.2030 -0.2265 -0.0671
 3129TIP3   OH231021   3.291   2.924   0.485  0.0006 -0.6271  0.0822
 3129TIP3    H131022   3.293   2.967   0.400  0.7580 -2.2028 -0.7429
 3129TIP3    H231023   3.320   2.990   0.547  0.2530  0.3023 -1.0039
 3130TIP3   OH231024   5.153   1.749   2.069 -0.0958 -0.1222  0.0056
 3130TIP3    H131025   5.172   1.832   2.114 -1.5783 -0.5907  1.6267
 3130TIP3    H231026   5.085   1.773   2.005  1.3385  0.3617 -1.4088
 3131TIP3   OH231027   4.612   1.602   7.339  0.5410 -0.6952  0.4061
 3131TIP3    H131028   4.662   1.596   7.258 -0.0251 -1.3992  0.0936
 3131TIP3    H231029   4.585   1.693   7.345 -0.7961 -0.9453 -1.0618
 3132TIP3   OH231030   1.304   0.170   1.910 -0.3266  0.6252  0.1867
 3132TIP3    H131031   1.229   0.165   1.850 -0.1096  0.6012 -0.0822
 3132TIP3    H231032   1.264   0.173   1.997 -0.8350  3.9100 -0.0196
 3133TIP3   OH231033   0.011   5.474   2.617  0.1616  0.3115 -0.0395
 3133TIP3    H131034   0.082   5.449   2.675 -1.4454  1.1948  2.4536
 3133TIP3    H231035  -0.031   5.391   2.593  2.4624 -0.3434 -2.3864
 3134TIP3   OH231036   3.178   6.854   1.379 -0.3055  0.2466  0.6826
 3134TIP3    H131037   3.120   6.781   1.356  0.7498 -1.3329  2.7301
 3134TIP3    H231038   3.256   6.840   1.326 -0.4933  0.4801  0.3403
 3135TIP3   OH231039   5.646   1.945   0.743 -0.5894  0.4627  0.8019
 3135TIP3    H131040   5.650   1.997   0.824 -0.8643  0.4474  0.8244
 3135TIP3    H231041   5.662   2.009   0.674  2.6009  0.0585  0.9871
 3136TIP3   OH231042   4.609   2.176   8.159 -0.7809  0.5892 -0.2390
 3136TIP3    H131043   4.520   2.143   8.172 -0.4723 -0.2718 -0.2276
 3136TIP3    H231044   4.625   2.234   8.234 -0.6777 -0.7019  0.7691
 3137TIP3   OH231045   0.992   1.683   0.792  0.0333 -0.1996 -0.0540
 3137TIP3    H131046   1.037   1.700   0.710  1.0855  1.8089  0.8549
 3137TIP3    H231047   0.932   1.757   0.802 -1.7377 -1.5651 -0.0394
 3138TIP3   OH231048   1.463   0.879   0.110 -0.0168  0.6213 -0.6483
 3138TIP3    H131049   1.519   0.919   0.177  0.1526  0.7289 -0.8537
 3138TIP3    H231050   1.505   0.795   0.090 -1.8629 -1.0308  1.8272
 3139TIP3   OH231051   6.134   6.417   0.953 -0.1125 -0.3806  0.6525
 3139TIP3    H131052   6.067   6.485   0.953  0.0090 -0.2440  2.1572
 3139TIP3    H231053   6.187   6.435   0.875 -1.0278  0.2894  0.1740
 3140TIP3   OH231054   6.550   1.680   0.087  0.8341 -0.1317 -0.0695
 3140TIP3    H131055   6.474   1.729   0.116  0.4421  1.1974 -3.0662
 3140TIP3    H231056   6.521   1.589   0.085 -0.0091  0.1083  0.7113
 3141TIP3   OH231057   3.106   0.938   1.120 -1.0142 -0.2900 -0.4077
 3141TIP3    H131058   3.015   0.912   1.109 -1.1874 -0.2123  0.7451
 3141TIP3    H231059   3.154   0.885   1.056 -1.7572 -1.0054 -0.3857
 3142TIP3   OH231060   5.096   1.551   7.993 -0.0122 -0.7139 -0.3894
 3142TIP3    H131061   5.108   1.479   7.931 -1.6635 -2.1678  0.8532
 3142TIP3    H231062   5.012   1.590   7.968 -0.5999 -1.1955  0.7705
 3143TIP3   OH231063   4.808   0.719   7.577 -0.4061 -0.5121 -0.5674
 3143TIP3    H131064   4.776   0.630   7.562  1.2535 -1.0680 -0.9712
 3143TIP3    H231065   4.729   0.774   7.572 -1.2914 -1.8134 -1.5369
 3144TIP3   OH231066   3.736   3.698   0.289  0.4224  0.1268 -0.3329
 3144TIP3    H131067   3.817   3.665   0.327 -1.0134 -1.7177  1.3383
 3144TIP3    H231068   3.701   3.758   0.355 -0.0113  0.2156 -0.6410
 3145TIP3   OH231069   6.169   3.142   0.162 -1.1007  0.0079  0.3201
 3145TIP3    H131070   6.152   3.236   0.154  0.4092  0.1740 -2.3758
 3145TIP3    H231071   6.149   3.107   0.075  1.7546 -1.4638  0.1296
 3146TIP3   OH231072   3.234   0.902   6.208 -0.0491  0.0043 -0.2325
 3146TIP3    H131073   3.258   0.809   6.203  0.1555  0.0511 -0.1261
 3146TIP3    H231074   3.313   0.945   6.238 -0.2502  0.1694  0.0668
 3147TIP3   OH231075   6.545   0.909   2.041  1.2136 -0.0012  0.5905
 3147TIP3    H131076   6.522   1.000   2.019 -0.9137 -0.7507 -0.6150
 3147TIP3    H231077   6.540   0.906   2.137  1.2350  1.1356  0.6432
 3148TIP3   OH231078   0.476   2.257   0.282  0.0531  0.6004  0.1409
 3148TIP3    H131079   0.488   2.179   0.336 -3.4242 -0.5704 -0.5474
 3148TIP3    H231080   0.550   2.255   0.221  0.8817 -1.2788  1.1107
 3149TIP3   OH231081   4.004   3.768   0.584  0.2502  0.1394  0.2384
 3149TIP3    H131082   3.984   3.699   0.522 -1.3049 -0.5157  1.3892
 3149TIP3    H231083   4.045   3.723   0.658  0.3478  0.6164  0.4789
 3150TIP3   OH231084   3.382   5.379   0.785  0.0088  0.2070 -0.4081
 3150TIP3    H131085   3.427   5.328   0.718  0.3153 -0.2119  0.1086
 3150TIP3    H231086   3.295   5.338   0.792  0.1929 -0.1393 -0.1182
 3151TIP3   OH231087   4.802   2.806   6.977  0.0076  0.5362  0.1260
 3151TIP3    H131088   4.871   2.741   6.988 -0.7434 -0.6752 -1.6782
 3151TIP3    H231089   4.839   2.870   6.916 -0.4805 -0.2289 -1.0122
 3152TIP3   OH231090   5.005   1.547   1.129 -0.4794 -0.7132  1.2881
 3152TIP3    H131091   4.952   1.627   1.121  0.1560 -0.3138  0.9633
 3152TIP3    H231092   4.951   1.478   1.090 -1.5322 -0.6949  2.6356
 3153TIP3   OH231093   2.621   2.422   1.511 -0.4650  0.2950 -0.1169
 3153TIP3    H131094   2.639   2.439   1.603 -1.8274 -0.4898  0.3227
 3153TIP3    H231095   2.649   2.331   1.497  0.5243  0.6752 -0.7074
 3154TIP3   OH231096   0.292   6.781   1.414 -0.1573  0.2584 -0.1944
 3154TIP3    H131097   0.356   6.709   1.410  0.7959  1.0853 -0.1994
 3154TIP3    H231098   0.259   6.778   1.504 -0.2149 -0.2673 -0.2305
 3155TIP3   OH231099   0.835   4.080   0.725  0.3412 -0.6123 -0.4697
 3155TIP3    H131100   0.802   4.000   0.765  0.0138 -0.7816 -1.0634
 3155TIP3    H231101   0.790   4.085   0.640  1.1382 -0.3443 -0.8853
 3156TIP3   OH231102   1.068   0.417   0.967 -0.0641 -0.1695  0.8584
 3156TIP3    H131103   1.145   0.474   0.968  0.4276 -0.7748 -0.1684
 3156TIP3    H231104   1.023   0.439   0.885 -2.2881  1.7901  2.4682
 3157TIP3   OH231105   1.205   5.028   7.301 -0.3761  0.0135 -0.0072
 3157TIP3    H131106   1.137   4.976   7.260 -0.4389 -0.9406  1.2413
 3157TIP3    H231107   1.208   5.109   7.250 -2.3873  0.0539 -0.1425
 3158TIP3   OH231108   5.306   0.770   1.602 -0.1443 -0.3598  0.0298
 3158TIP3    H131109   5.291   0.832   1.674 -0.5634 -0.0364 -0.3286
 3158TIP3    H231110   5.218   0.743   1.575 -0.0440  0.3321 -1.0521
 3159TIP3   OH231111   0.018   0.284   7.591 -0.3409 -0.0714  0.4180
 3159TIP3    H131112  -0.046   0.229   7.545  0.9235 -0.7168 -0.6366
 3159TIP3    H231113   0.082   0.222   7.626  1.1053  0.6868 -0.7709
 3160TIP3   OH231114   3.573   1.857   1.682  0.1898  0.6047 -0.1112
 3160TIP3    H131115   3.650   1.821   1.726  0.2579 -1.1730 -1.5465
 3160TIP3    H231116   3.518   1.780   1.664 -2.5171  1.9253  1.8656
 3161TIP3   OH231117   5.202   5.395   0.533 -0.4761 -0.2642  0.3144
 3161TIP3    H131118   5.277   5.454   0.524  0.5452 -1.4989  0.4663
 3161TIP3    H231119   5.160   5.396   0.446 -1.5252  1.9798  0.7790
 3162TIP3   OH231120   5.217   5.983   0.543  0.0671  0.4962 -0.3170
 3162TIP3    H131121   5.133   5.947   0.570  0.7528 -1.8152 -1.0162
 3162TIP3    H231122   5.256   5.914   0.489  2.6304  1.2718  0.4015
 3163TIP3   OH231123   4.244   6.745   0.300 -0.2217 -0.2300 -0.8983
 3163TIP3    H131124   4.328   6.701   0.286  1.5695  2.3682  0.7351
 3163TIP3    H231125   4.219   6.776   0.213  2.3413  1.8103 -1.0338
 3164TIP3   OH231126   5.025   1.111   7.960 -0.1792  0.0889  0.1375
 3164TIP3    H131127   4.941   1.068   7.940 -1.0384  1.7378  0.0327
 3164TIP3    H231128   5.028   1.185   7.900  1.7419 -0.3694 -0.3771
 3165TIP3   OH231129   5.524   0.128   8.015 -0.1602  0.1193 -0.1792
 3165TIP3    H131130   5.461   0.115   8.086 -1.0763  1.3027 -0.7402
 3165TIP3    H231131   5.569   0.044   8.007 -0.8866 -0.4058  0.9810
 3166TIP3   OH231132   6.590   5.458   8.153 -0.8735  0.6747  0.1529
 3166TIP3    H131133   6.595   5.534   8.211 -0.5442  0.6292  0.1855
 3166TIP3    H231134   6.518   5.406   8.189  0.7461 -0.4838  1.9143
 3167TIP3   OH231135   5.551   5.084   7.815  0.5968  0.3881 -0.3780
 3167TIP3    H131136   5.494   5.009   7.830  0.9942  0.0668 -0.4871
 3167TIP3    H231137   5.496   5.160   7.837 -0.7430  0.2534 -2.9362
 3168TIP3   OH231138   5.823   6.292   7.575  0.0503 -0.0615  0.4602
 3168TIP3    H131139   5.907   6.278   7.619 -0.4850 -2.7891  0.8054
 3168TIP3    H231140   5.758   6.260   7.638 -1.0473 -0.2146 -0.7236
 3169TIP3   OH231141   5.383   0.524   2.127  0.5660 -0.3115  0.2628
 3169TIP3    H131142   5.367   0.606   2.174  1.9444  0.6132 -0.7831
 3169TIP3    H231143   5.300   0.505   2.083 -0.5109 -0.7886  2.3613
 3170TIP3   OH231144   6.773   6.703   6.831  0.1823 -0.3950 -0.3634
 3170TIP3    H131145   6.836   6.757   6.783 -0.6923  1.6917  0.6753
 3170TIP3    H231146   6.827   6.642   6.882  1.1909 -0.9341 -2.0120
 3171TIP3   OH231147   0.500   6.395   8.305  0.4359  0.1526 -0.4781
 3171TIP3    H131148   0.447   6.398   8.226 -0.2974 -0.0709 -0.0040
 3171TIP3    H231149   0.589   6.380   8.274  0.1728  0.2027 -1.2640
 3172TIP3   OH231150   2.166   6.372   1.133  0.4082  0.1304 -0.7625
 3172TIP3    H131151   2.112   6.445   1.162  1.7806  1.0703 -0.5027
 3172TIP3    H231152   2.176   6.386   1.039  2.2016  1.3672 -0.4280
 3173TIP3   OH231153   3.765   6.201   8.372 -0.1538 -0.5477 -0.0424
 3173TIP3    H131154   3.827   6.261   8.330  1.2550 -2.1399 -0.3486
 3173TIP3    H231155   3.773   6.219   8.465  0.9167 -0.8477 -0.0640
 3174TIP3   OH231156   5.959   3.497   0.592 -0.1683  0.0287 -0.2663
 3174TIP3    H131157   6.000   3.421   0.550 -2.2977 -1.2520 -0.2018
 3174TIP3    H231158   6.024   3.528   0.654  1.3547 -0.7833 -1.3919
 3175TIP3   OH231159   3.153   1.180   8.342  0.2922  0.1831  0.5335
 3175TIP3    H131160   3.190   1.115   8.283 -0.0743  0.2109  0.2756
 3175TIP3    H231161   3.213   1.255   8.336  0.6004 -0.0478  0.6772
 3176TIP3   OH231162   3.657   1.564   7.339  0.5220 -0.6921  0.4234
 3176TIP3    H131163   3.721   1.632   7.316  0.6957 -0.8069  0.5729
 3176TIP3    H231164   3.683   1.488   7.287 -0.9897  0.0038 -1.5006
 3177TIP3   OH231165   2.474   0.003   7.678  0.0355 -0.1553  0.0551
 3177TIP3    H131166   2.526   0.015   7.758  0.5528 -0.0113 -0.3013
 3177TIP3    H231167   2.502  -0.081   7.644  0.4154  0.1545 -0.4136
 3178TIP3   OH231168   0.895   2.060   7.890  0.1570 -0.1053 -0.6603
 3178TIP3    H131169   0.961   2.011   7.841 -1.1983 -2.0950 -0.5920
 3178TIP3    H231170   0.900   2.149   7.854  2.2446 -0.4151 -1.2548
 3179TIP3   OH231171   0.536   2.256   1.671  0.0770  0.7562 -0.2148
 3179TIP3    H131172   0.535   2.193   1.599  0.0679  1.1979 -0.6080
 3179TIP3    H231173   0.582   2.211   1.742  0.5380  0.4992 -0.6698
 3180TIP3   OH231174   3.753   2.144   7.593 -0.6957 -0.6248  0.1815
 3180TIP3    H131175   3.728   2.143   7.686 -0.4892  1.0810  0.2934
 3180TIP3    H231176   3.747   2.053   7.566 -0.8310 -1.1597  1.8556
 3181TIP3   OH231177   6.342   2.567   0.665  0.0188 -0.3760 -0.5585
 3181TIP3    H131178   6.379   2.630   0.727  0.4666  1.5455 -2.6659
 3181TIP3    H231179   6.390   2.581   0.584 -0.8857 -2.4523 -1.5420
 3182TIP3   OH231180   5.341   2.852   2.157 -0.4597 -0.7096  0.7249
 3182TIP3    H131181   5.418   2.901   2.186 -0.1116 -1.2032  0.6555
 3182TIP3    H231182   5.346   2.770   2.205 -1.6051 -0.2700  1.6234
 3183TIP3   OH231183   3.518   3.679   7.865 -0.6007 -0.6220  0.1639
 3183TIP3    H131184   3.432   3.718   7.877 -0.7493 -0.5984 -0.8698
 3183TIP3    H231185   3.511   3.629   7.783  0.4754 -0.2986 -0.1497
 3184TIP3   OH231186   5.483   1.872   2.632 -0.1119 -0.3806  0.2009
 3184TIP3    H131187   5.478   1.838   2.722 -0.0224 -0.3387  0.2211
 3184TIP3    H231188   5.415   1.823   2.585 -0.3915 -0.1579  0.3715
 3185TIP3   OH231189   4.696   1.112   8.383 -0.3584  0.6953  0.6527
 3185TIP3    H131190   4.634   1.063   8.437 -0.0764 -0.1008  0.2705
 3185TIP3    H231191   4.668   1.204   8.392 -0.2667  0.6101  2.2127
 3186TIP3   OH231192   4.603   4.739   1.043 -0.2890  0.0786  0.2153
 3186TIP3    H131193   4.676   4.724   0.982 -0.1011  0.0447  0.4453
 3186TIP3    H231194   4.582   4.832   1.033 -1.4824 -0.3021 -1.2446
 3187TIP3   OH231195   6.145   5.394   7.685  0.1223  0.4136 -0.6789
 3187TIP3    H131196   6.214   5.328   7.689 -2.2935 -2.2497  0.1528
 3187TIP3    H231197   6.121   5.409   7.776 -1.0390  0.5440 -0.9898
 3188TIP3   OH231198   2.674   6.906   8.208  0.4626 -0.0965 -0.7404
 3188TIP3    H131199   2.582   6.928   8.221  0.4187 -0.3794 -0.5454
 3188TIP3    H231200   2.674   6.840   8.139  0.1796 -2.6320  1.5072
 3189TIP3   OH231201   6.285   4.976   8.127  0.5430 -0.2873  0.7404
 3189TIP3    H131202   6.240   4.891   8.118 -0.1149  0.1792 -0.8389
 3189TIP3    H231203   6.227   5.028   8.182 -0.3146 -0.0686 -0.3386
 3190TIP3   OH231204   3.787   3.750   0.026  0.0535 -0.2431 -0.0414
 3190TIP3    H131205   3.738   3.686  -0.025  0.2539 -0.7068  0.3356
 3190TIP3    H231206   3.756   3.737   0.116 -1.1915  1.3919 -0.1978
 3191TIP3   OH231207   1.463   2.203   0.795 -0.2177 -0.0166 -0.4571
 3191TIP3    H131208   1.448   2.273   0.732 -0.1006 -1.1090 -1.7553
 3191TIP3    H231209   1.436   2.240   0.879  0.5196  1.8071 -0.9683
 3192TIP3   OH231210   4.943   6.635   1.057  0.3580 -0.2945 -0.0818
 3192TIP3    H131211   4.880   6.568   1.084  0.0672 -0.2439 -0.6139
 3192TIP3    H231212   4.894   6.717   1.059  0.5688 -0.1716  0.0629
 3193TIP3   OH231213   0.967   6.905   1.252  0.4268  0.1561  0.8463
 3193TIP3    H131214   0.989   6.936   1.164 -1.6227 -2.0337 -0.5812
 3193TIP3    H231215   0.892   6.959   1.278 -1.4166 -1.5560 -0.5013
 3194TIP3   OH231216   2.025   2.812   2.022  0.1760 -0.4804 -0.1516
 3194TIP3    H131217   2.046   2.740   1.963  2.2923 -1.1030  1.2272
 3194TIP3    H231218   1.982   2.771   2.096 -3.0665  0.3746 -1.3932
 3195TIP3   OH231219   3.014   0.406   1.944  0.0668  0.2420 -0.2035
 3195TIP3    H131220   3.011   0.311   1.943 -2.8479  0.1866  1.2350
 3195TIP3    H231221   3.092   0.428   1.994 -0.8846 -1.5485  2.2355
 3196TIP3   OH231222   0.649   4.116   1.405 -0.4777 -0.3241 -0.0936
 3196TIP3    H131223   0.721   4.055   1.395  0.4780 -0.3942  4.9675
 3196TIP3    H231224   0.687   4.202   1.383  0.2512 -0.6906 -0.2897
 3197TIP3   OH231225   6.881   2.879   0.840 -0.3927  0.2354 -0.1646
 3197TIP3    H131226   6.845   2.857   0.926  0.3244 -1.4709 -0.2631
 3197TIP3    H231227   6.805   2.885   0.782 -0.7564 -0.1925  0.2612
 3198TIP3   OH231228   2.791   3.445   8.474 -0.1085  0.5793 -0.1663
 3198TIP3    H131229   2.859   3.513   8.473  0.7336 -0.1760 -3.0267
 3198TIP3    H231230   2.726   3.475   8.411 -1.3483  0.1708  0.8569
 3199TIP3   OH231231   0.332   5.590   7.322  0.3859 -0.3006 -0.3545
 3199TIP3    H131232   0.240   5.571   7.340  0.0623 -0.3507 -1.9113
 3199TIP3    H231233   0.365   5.511   7.280  1.9626 -1.4130  2.6807
 3200TIP3   OH231234   1.287   1.076   6.794  0.1720  0.2207 -0.5680
 3200TIP3    H131235   1.311   1.051   6.705 -1.9897 -0.2775 -1.0551
 3200TIP3    H231236   1.257   0.995   6.835  0.5585  0.5627  0.4440
 3201TIP3   OH231237   5.487   3.233   7.072 -0.4605  0.5257  0.4202
 3201TIP3    H131238   5.517   3.309   7.021 -0.9937  0.3209 -0.2049
 3201TIP3    H231239   5.426   3.270   7.136  0.8452  0.9022  1.4957
 3202TIP3   OH231240   6.348   3.152   2.362 -0.0897 -0.1187  0.1108
 3202TIP3    H131241   6.371   3.213   2.431  0.9724 -0.9854  0.5485
 3202TIP3    H231242   6.318   3.207   2.290  1.7056  0.9896  0.1549
 3203TIP3   OH231243   1.516   3.549   2.336  0.0667 -0.1401 -0.1067
 3203TIP3    H131244   1.540   3.471   2.286  3.3687  0.0762  0.9752
 3203TIP3    H231245   1.572   3.548   2.413 -0.5705  2.7238  0.5285
 3204TIP3   OH231246   0.321   2.436   1.704 -0.1120 -0.2005  0.4571
 3204TIP3    H131247   0.330   2.511   1.762  0.3871  2.2429 -2.5113
 3204TIP3    H231248   0.411   2.407   1.688 -0.2642 -1.0561  1.0960
 3205TIP3   OH231249   6.111   2.348   2.044 -0.4522  0.2376 -0.1208
 3205TIP3    H131250   6.026   2.389   2.059 -0.4598 -0.2307  1.3273
 3205TIP3    H231251   6.112   2.273   2.104  0.8819  0.0846 -0.2973
 3206TIP3   OH231252   2.196   2.252   0.034 -0.1360  0.2967  0.1139
 3206TIP3    H131253   2.214   2.294   0.118  2.7641 -0.9233  0.2482
 3206TIP3    H231254   2.260   2.290  -0.026  1.0029 -2.0969 -0.3207
 3207TIP3   OH231255   2.515   1.346   1.343  0.4816  0.0178 -0.3306
 3207TIP3    H131256   2.561   1.278   1.393 -0.3290 -1.3082 -1.3061
 3207TIP3    H231257   2.424   1.315   1.340 -0.0877  1.5886 -0.1042
 3208TIP3   OH231258   4.612   6.195   7.738 -0.2580  0.4180  0.0508
 3208TIP3    H131259   4.592   6.141   7.662 -0.3064  0.2194  0.2050
 3208TIP3    H231260   4.529   6.204   7.784  0.4070 -2.4913  2.0543
 3209TIP3   OH231261   0.757   5.811   8.422  0.1222  0.1915  0.1110
 3209TIP3    H131262   0.792   5.761   8.348 -3.0410  1.2043 -2.3022
 3209TIP3    H231263   0.746   5.747   8.492  4.1499 -0.6113  0.2119
 3210TIP3   OH231264   6.295   2.901   0.359 -0.2665 -0.2406 -0.2056
 3210TIP3    H131265   6.279   2.978   0.305 -1.4082 -0.3385 -0.0271
 3210TIP3    H231266   6.373   2.860   0.319  0.0322  0.7015 -0.6171
 3211TIP3   OH231267   3.702   5.340   7.258 -0.8566  0.5741  0.8282
 3211TIP3    H131268   3.664   5.421   7.290  0.3450  1.2659  0.5783
 3211TIP3    H231269   3.645   5.271   7.291 -1.7852  1.5087  1.2017
 3212TIP3   OH231270   3.364   3.187   1.246  0.7021  0.4836  0.0549
 3212TIP3    H131271   3.386   3.276   1.218 -1.3597  0.7111 -1.0116
 3212TIP3    H231272   3.407   3.130   1.181 -0.0803  0.8328 -0.7970
 3213TIP3   OH231273   4.104   5.130   0.824 -0.0934  0.2697 -0.2062
 3213TIP3    H131274   4.103   5.122   0.919 -0.7073 -0.6826 -0.2749
 3213TIP3    H231275   4.193   5.105   0.799 -0.9181 -3.2184 -0.1083
 3214TIP3   OH231276   3.792   4.587   2.096 -0.6697 -0.1687  0.2524
 3214TIP3    H131277   3.808   4.505   2.143 -0.7097 -0.0552  0.4659
 3214TIP3    H231278   3.853   4.585   2.023  1.6078  1.0323  1.9594
 3215TIP3   OH231279   0.692   3.918   1.935  0.0361  0.2270 -0.4600
 3215TIP3    H131280   0.628   3.905   2.005  1.1529 -1.8093  0.2775
 3215TIP3    H231281   0.642   3.958   1.864 -2.4011 -2.2277 -0.3309
 3216TIP3   OH231282   0.059   1.813   1.523 -0.3163  0.6621  0.3101
 3216TIP3    H131283   0.001   1.808   1.447 -1.9362  1.4690  1.4406
 3216TIP3    H231284   0.130   1.871   1.496  0.1877 -0.5836 -1.2056
 3217TIP3   OH231285   2.541   4.318   0.938 -0.0504  0.1181  0.2583
 3217TIP3    H131286   2.602   4.372   0.888 -1.4893  0.5108 -1.1856
 3217TIP3    H231287   2.537   4.235   0.889  0.0736 -0.2779  0.9107
 3218TIP3   OH231288   3.754   0.112   7.502  0.1849 -0.8665 -0.6858
 3218TIP3    H131289   3.705   0.190   7.527  1.7169  0.4442 -1.5875
 3218TIP3    H231290   3.688   0.052   7.467 -0.9000  0.3778 -0.8299
 3219TIP3   OH231291   5.267   5.217   7.726 -0.8686  0.0478  0.2136
 3219TIP3    H131292   5.332   5.277   7.762 -0.2663 -0.7688  0.5021
 3219TIP3    H231293   5.278   5.224   7.631  0.2731 -0.7550  0.2740
 3220TIP3   OH231294   5.252   2.344   2.175 -0.1035 -0.2247 -0.0271
 3220TIP3    H131295   5.190   2.416   2.165  2.2138  2.0108  0.5759
 3220TIP3    H231296   5.277   2.322   2.085  0.7667  1.2806 -0.1890
 3221TIP3   OH231297   2.589   4.478   7.857  0.4676  0.1113  0.3251
 3221TIP3    H131298   2.534   4.551   7.829  0.6184  0.8880  1.9175
 3221TIP3    H231299   2.648   4.462   7.783 -1.7806 -0.7036 -1.4024
 3222TIP3   OH231300   2.951   3.859   7.724 -0.0383 -0.1888 -1.0173
 3222TIP3    H131301   2.976   3.796   7.792  0.7803 -0.0136 -1.1524
 3222TIP3    H231302   2.880   3.815   7.677  0.1496 -0.7820 -0.7612
 3223TIP3   OH231303   4.901   1.734   0.932  0.1208  0.3317  0.5488
 3223TIP3    H131304   4.820   1.705   0.973 -0.0302 -0.2805 -0.1782
 3223TIP3    H231305   4.877   1.756   0.842  1.0507 -1.4250 -0.1733
 3224TIP3   OH231306   0.764   4.877   8.212  0.1069  0.7335  0.3288
 3224TIP3    H131307   0.673   4.861   8.238 -0.4838  0.3207 -1.8004
 3224TIP3    H231308   0.812   4.801   8.243 -0.8321 -0.4336 -0.9447
 3225TIP3   OH231309   4.196   0.071   1.225  0.3662 -0.0278  0.1433
 3225TIP3    H131310   4.127   0.124   1.185  1.5651  1.2257 -0.3284
 3225TIP3    H231311   4.160   0.044   1.310 -0.7312  0.5390 -0.1300
 3226TIP3   OH231312   6.909   2.289   0.017  0.2932 -0.5146 -0.4373
 3226TIP3    H131313   6.942   2.351  -0.048  0.9296  1.1109  1.3576
 3226TIP3    H231314   6.854   2.229  -0.034  1.2514  0.2840 -2.5599
 3227TIP3   OH231315   3.752   6.536   2.534 -0.0757  0.5353  0.3307
 3227TIP3    H131316   3.680   6.540   2.597 -0.0622 -0.2231  0.4079
 3227TIP3    H231317   3.772   6.443   2.527  0.7463  0.7177  0.1345
 3228TIP3   OH231318   4.494   3.069   1.330  0.5293  0.5164 -0.2684
 3228TIP3    H131319   4.458   3.155   1.308 -1.0530  0.2536  1.0685
 3228TIP3    H231320   4.428   3.007   1.298  0.3716 -0.0529  1.0855
 3229TIP3   OH231321   3.060   6.038   7.059  0.2657  0.2470  0.4788
 3229TIP3    H131322   3.060   5.947   7.030 -0.0597  0.0523  1.0768
 3229TIP3    H231323   2.985   6.077   7.015  0.1029  0.0962  0.6228
 3230TIP3   OH231324   0.346   3.607   1.039  0.1316 -0.6025  0.0321
 3230TIP3    H131325   0.401   3.541   1.081  0.9090 -0.7077 -1.1038
 3230TIP3    H231326   0.405   3.653   0.979 -0.3763  1.2164  0.8774
 3231TIP3   OH231327   0.236   2.420   8.044  0.1722 -0.0019  0.0753
 3231TIP3    H131328   0.303   2.424   8.113 -0.2925 -0.8043  0.5877
 3231TIP3    H231329   0.189   2.339   8.061 -0.1060 -0.0925 -1.0582
 3232TIP3   OH231330   2.778   6.044   1.260 -0.2781  0.3522 -0.0794
 3232TIP3    H131331   2.800   6.136   1.269 -1.2804  0.5212  0.8111
 3232TIP3    H231332   2.852   5.997   1.299 -0.9712  0.8803  1.9844
 3233TIP3   OH231333   4.210   5.178   7.265 -0.0256 -0.0097  0.4451
 3233TIP3    H131334   4.238   5.158   7.176  1.4376  0.5458  0.7602
 3233TIP3    H231335   4.257   5.116   7.320 -0.7660 -0.2151  0.8677
 3234TIP3   OH231336   0.929   0.890   2.020  0.3795  1.1654  0.4621
 3234TIP3    H131337   0.896   0.871   2.108 -0.7778  1.6310  0.1510
 3234TIP3    H231338   1.002   0.830   2.008 -1.8472 -1.7221  0.2958
 3235TIP3   OH231339   4.965   5.260   7.721  0.1757  0.6913 -0.0356
 3235TIP3    H131340   4.923   5.175   7.706  0.3281  0.7826 -1.0417
 3235TIP3    H231341   5.058   5.241   7.722  0.3387  1.0879 -2.2678
 3236TIP3   OH231342   0.412   2.268   1.241  0.1740  0.3253  0.0493
 3236TIP3    H131343   0.329   2.231   1.212  0.8563 -0.2875 -1.2079
 3236TIP3    H231344   0.389   2.353   1.278 -1.0121  0.1349 -0.2088
 3237TIP3   OH231345   5.964   3.538   7.725 -0.3084  0.1309  0.2943
 3237TIP3    H131346   6.036   3.515   7.666 -0.9311  2.2071 -1.4108
 3237TIP3    H231347   5.890   3.487   7.692 -0.2633  0.0531  0.3137
 3238TIP3   OH231348   2.512   6.921   7.110  0.6265 -0.0192 -0.0908
 3238TIP3    H131349   2.425   6.940   7.144  1.2911  1.7166  0.7616
 3238TIP3    H231350   2.534   6.997   7.056  1.7980 -0.1833  0.1134
 3239TIP3   OH231351   3.214   4.139   2.301 -0.0159 -0.1574 -0.1170
 3239TIP3    H131352   3.242   4.077   2.234  1.1696 -1.8017  1.7856
 3239TIP3    H231353   3.257   4.221   2.277  1.0931 -0.9265 -0.9028
 3240TIP3   OH231354   1.662   0.129   0.848 -0.0018  0.3298 -0.0157
 3240TIP3    H131355   1.574   0.111   0.882 -0.7596  1.8003 -1.0909
 3240TIP3    H231356   1.671   0.224   0.854  1.3748  0.2291 -0.2752
 3241TIP3   OH231357   0.626   5.788   2.684  0.1288  0.1025  0.2212
 3241TIP3    H131358   0.619   5.882   2.668 -0.3530 -0.1441 -1.1981
 3241TIP3    H231359   0.669   5.753   2.606  2.7562 -0.5672  1.8453
 3242TIP3   OH231360   0.143   0.895   8.018  0.7935 -0.5716 -0.1696
 3242TIP3    H131361   0.102   0.827   7.964 -0.1650  1.4747 -2.1895
 3242TIP3    H231362   0.237   0.879   8.009  0.6011 -1.3169 -1.0301
 3243TIP3   OH231363   2.022   1.654   2.523  1.0595  0.0502 -0.2643
 3243TIP3    H131364   2.090   1.592   2.550  0.5062 -1.4959 -2.2124
 3243TIP3    H231365   2.069   1.734   2.501  2.0808 -0.5346 -0.2370
 3244TIP3   OH231366   5.392   1.486   0.649  0.0589 -0.2394 -0.3909
 3244TIP3    H131367   5.368   1.415   0.590 -3.1226 -1.2383  1.8164
 3244TIP3    H231368   5.487   1.480   0.657 -0.0278 -4.0364 -0.6039
 3245TIP3   OH231369   3.902   4.493   1.835  0.3860  0.2140  0.5500
 3245TIP3    H131370   3.956   4.467   1.760  1.0402 -0.9697  1.4016
 3245TIP3    H231371   3.872   4.582   1.813 -0.3414 -0.4968 -1.5878
 3246TIP3   OH231372   2.171   0.462   0.237  0.2593 -0.8308  0.2481
 3246TIP3    H131373   2.198   0.549   0.207  1.2552 -0.5127  1.9711
 3246TIP3    H231374   2.207   0.403   0.171  1.9378 -0.1240  0.4899
 3247TIP3   OH231375   5.735   0.784   0.834  0.0593  0.5294  0.5871
 3247TIP3    H131376   5.692   0.801   0.918  1.2830  1.1519  1.1141
 3247TIP3    H231377   5.789   0.862   0.819  0.4452  0.0828 -0.4068
 3248TIP3   OH231378   2.375   3.951   8.319  0.0034 -0.5099 -0.1105
 3248TIP3    H131379   2.444   3.952   8.252  2.1201 -0.2349  1.9347
 3248TIP3    H231380   2.295   3.929   8.271  1.7393 -2.3113 -2.4222
 3249TIP3   OH231381   3.466   6.934   8.080 -0.1847  0.2854 -0.1516
 3249TIP3    H131382   3.424   6.848   8.075 -2.1778  1.2275 -0.8921
 3249TIP3    H231383   3.434   6.972   8.162  1.4445 -0.0200  0.6508
 3250TIP3   OH231384   3.266   1.780   7.566  0.2948  0.0265 -0.1242
 3250TIP3    H131385   3.321   1.755   7.492  0.3981  1.5395 -0.6011
 3250TIP3    H231386   3.200   1.838   7.528 -0.6017 -0.4081  0.7239
 3251TIP3   OH231387   4.446   0.660   0.520 -0.3842  0.4355  0.2185
 3251TIP3    H131388   4.466   0.680   0.429 -0.6085  0.3457  0.1505
 3251TIP3    H231389   4.351   0.663   0.526 -0.3580  0.7591  0.5238
 3252TIP3   OH231390   3.370   1.016   8.139  0.5413  0.0632 -0.2603
 3252TIP3    H131391   3.346   0.925   8.124  0.6348  0.0891 -0.5735
 3252TIP3    H231392   3.412   1.016   8.225 -0.1066 -0.0696  0.0628
 3253TIP3   OH231393   6.296   1.940   0.975 -0.6422 -0.0770 -0.7523
 3253TIP3    H131394   6.217   1.891   1.000  0.0063 -0.6408  0.2471
 3253TIP3    H231395   6.282   1.962   0.883 -1.7990 -0.5018 -0.6959
 3254TIP3   OH231396   5.917   0.742   6.958 -0.2445  0.3158  0.1291
 3254TIP3    H131397   5.893   0.774   7.044 -0.4883  0.7469 -0.0957
 3254TIP3    H231398   5.966   0.662   6.975 -1.2048 -0.1888  0.6261
 3255TIP3   OH231399   1.466   1.227   8.423  0.1090 -0.7420 -0.2543
 3255TIP3    H131400   1.507   1.223   8.336  0.3184  0.9713 -0.2667
 3255TIP3    H231401   1.537   1.252   8.482 -0.6427  1.1652 -0.1005
 3256TIP3   OH231402   4.008   0.728   1.720 -0.4613  0.4078 -0.4162
 3256TIP3    H131403   4.074   0.671   1.680 -0.7096  0.7680 -1.3773
 3256TIP3    H231404   3.927   0.677   1.714 -0.5230  0.5159 -0.4916
 3257TIP3   OH231405   6.615   0.972   2.376  0.3619 -0.2563  0.0893
 3257TIP3    H131406   6.599   1.056   2.333  1.1055 -0.4022 -0.5119
 3257TIP3    H231407   6.545   0.963   2.440 -1.1058 -0.2485 -1.4403
 3258TIP3   OH231408   0.688   3.833   1.523  0.0802  0.2654 -0.1211
 3258TIP3    H131409   0.753   3.874   1.467  0.8248  0.1307  0.6091
 3258TIP3    H231410   0.739   3.774   1.579 -0.7215 -0.1514  0.1935
 3259TIP3   OH231411   4.833   2.418   2.213  0.0232  0.1492 -0.0418
 3259TIP3    H131412   4.765   2.382   2.156  1.8850 -2.5895 -0.7515
 3259TIP3    H231413   4.909   2.427   2.156  0.9213  0.9976  1.2251
 3260TIP3   OH231414   5.714   6.464   2.643  0.5193  0.2379 -0.2694
 3260TIP3    H131415   5.772   6.399   2.682  0.4936 -0.0231 -0.6694
 3260TIP3    H231416   5.707   6.532   2.710  1.9442  0.6706 -0.5297
 3261TIP3   OH231417   0.989   0.793   0.332  0.3639  0.5572 -0.0241
 3261TIP3    H131418   0.905   0.823   0.367 -0.5676 -1.2152 -0.5881
 3261TIP3    H231419   0.994   0.834   0.245 -0.9848 -0.9683 -0.8724
 3262TIP3   OH231420   2.316   5.220   0.120  0.0347 -0.4072 -0.3605
 3262TIP3    H131421   2.317   5.216   0.215 -0.8530  0.3927 -0.3051
 3262TIP3    H231422   2.383   5.157   0.093 -0.8403 -1.8640  0.7275
 3263TIP3   OH231423   1.551   1.058   0.859 -0.1957 -0.0209 -0.4148
 3263TIP3    H131424   1.616   1.009   0.810  0.4485 -0.0060  0.4053
 3263TIP3    H231425   1.499   0.990   0.903  1.0419 -0.0139  1.1649
 3264TIP3   OH231426   4.828   4.024   0.232  0.0244 -0.3615  0.3282
 3264TIP3    H131427   4.898   4.027   0.297 -1.1003  1.6792  1.5245
 3264TIP3    H231428   4.767   4.093   0.258 -1.0452 -0.1968 -2.2585
 3265TIP3   OH231429   2.463   3.090   7.491  0.7879 -0.0968  0.4268
 3265TIP3    H131430   2.464   3.173   7.444  1.0153 -0.0665  0.4816
 3265TIP3    H231431   2.415   3.108   7.572 -0.6720 -0.4515 -0.3256
 3266TIP3   OH231432   6.822   5.809   0.616 -0.0932  0.5010  0.3587
 3266TIP3    H131433   6.905   5.760   0.609  1.2226  2.7012 -0.5195
 3266TIP3    H231434   6.831   5.859   0.697 -0.1936  1.3585 -0.1534
 3267TIP3   OH231435   3.275   0.540   2.042  0.2270 -0.4913  0.0720
 3267TIP3    H131436   3.269   0.510   2.132 -0.4412 -1.2930 -0.2300
 3267TIP3    H231437   3.268   0.635   2.048 -0.5846 -0.5858  0.7992
 3268TIP3   OH231438   5.379   1.978   7.905  0.5909 -0.0947 -0.4894
 3268TIP3    H131439   5.464   1.941   7.928  0.5193  0.7564  1.3186
 3268TIP3    H231440   5.385   2.069   7.933 -1.2220 -0.2479  0.4948
 3269TIP3   OH231441   1.637   4.781   7.832  0.3159 -0.3203 -0.5358
 3269TIP3    H131442   1.587   4.769   7.751  0.0288 -2.9605 -0.0611
 3269TIP3    H231443   1.623   4.873   7.856 -3.3737 -0.6004 -1.0674
 3270TIP3   OH231444   6.651   6.561   8.497  0.0059 -0.0922 -0.1851
 3270TIP3    H131445   6.582   6.627   8.501 -0.7548 -0.8788 -0.0087
 3270TIP3    H231446   6.690   6.573   8.410 -0.8549 -0.1255 -0.5884
 3271TIP3   OH231447   6.765   3.914   7.614  0.3511 -0.4011 -0.1179
 3271TIP3    H131448   6.749   3.843   7.676 -1.1048 -0.1252 -0.1432
 3271TIP3    H231449   6.807   3.871   7.540 -0.2371 -1.2021 -0.0065
 3272TIP3   OH231450   2.045   2.749   2.535  0.6157  0.4609 -0.4146
 3272TIP3    H131451   2.027   2.837   2.569  0.9292  0.4289 -0.1733
 3272TIP3    H231452   1.987   2.691   2.584  1.0201  0.4230  0.0196
 3273TIP3   OH231453   5.864   4.137   2.556  0.3341  0.2112  0.0648
 3273TIP3    H131454   5.903   4.051   2.568  0.0592 -0.0610 -0.8696
 3273TIP3    H231455   5.777   4.129   2.595  1.0905  0.7636  1.9824
 3274TIP3   OH231456   4.949   5.885   1.478 -0.3307 -0.3470  0.2894
 3274TIP3    H131457   4.952   5.979   1.461  1.1483 -0.3772  0.2561
 3274TIP3    H231458   5.031   5.866   1.523 -0.4757 -1.6675  0.0354
 3275TIP3   OH231459   6.661   6.430   7.639 -0.1859 -0.4728  0.0606
 3275TIP3    H131460   6.647   6.524   7.656 -1.4902 -0.6129 -0.1201
 3275TIP3    H231461   6.579   6.401   7.598  0.2181 -1.6895  0.0826
 3276TIP3   OH231462   1.916   3.833   0.808 -0.0759  0.4418  0.0869
 3276TIP3    H131463   1.917   3.917   0.762  0.4130  1.6457  2.1903
 3276TIP3    H231464   1.963   3.849   0.890  1.4558 -2.3041 -0.1096
 3277TIP3   OH231465   1.847   0.473   0.897  0.0596  0.0369  0.1896
 3277TIP3    H131466   1.936   0.489   0.926  0.2558 -0.2161 -0.2669
 3277TIP3    H231467   1.811   0.412   0.962  0.6904 -1.0033 -0.4199
 3278TIP3   OH231468   4.922   6.620   0.624 -0.2552  0.5492  0.0275
 3278TIP3    H131469   4.861   6.615   0.551  2.7699 -1.4477 -2.6467
 3278TIP3    H231470   4.929   6.714   0.644 -1.4910  1.1175 -2.0000
 3279TIP3   OH231471   0.084   6.667   1.177 -0.0099 -0.0317 -0.1375
 3279TIP3    H131472   0.032   6.648   1.255 -0.3533 -0.5564 -0.4890
 3279TIP3    H231473   0.155   6.723   1.208 -1.5923  1.9596  0.0971
 3280TIP3   OH231474   3.540   0.315   0.569 -0.2094  0.3395 -0.0523
 3280TIP3    H131475   3.608   0.333   0.504  0.4911  0.8884  0.8181
 3280TIP3    H231476   3.483   0.251   0.526  1.1435 -0.5304 -0.6221
 3281TIP3   OH231477   2.566   3.305   8.329 -0.0255  0.1787  0.2181
 3281TIP3    H131478   2.531   3.244   8.264  0.1738  0.6586 -0.3492
 3281TIP3    H231479   2.540   3.268   8.413  1.9650 -1.9195  0.0233
 3282TIP3   OH231480   6.427   5.860   1.742  0.2322 -0.0957 -0.2967
 3282TIP3    H131481   6.384   5.930   1.791  1.9824 -0.9888  2.7772
 3282TIP3    H231482   6.416   5.782   1.796  3.7292 -0.8132 -0.3324
 3283TIP3   OH231483   1.335   6.131   2.558 -0.4208 -0.0058 -0.1608
 3283TIP3    H131484   1.348   6.225   2.562 -0.7803  0.0253  0.4104
 3283TIP3    H231485   1.420   6.094   2.582 -1.1401  0.1885  3.1693
 3284TIP3   OH231486   5.835   5.796   1.609 -0.5194  0.0922  0.0314
 3284TIP3    H131487   5.838   5.883   1.568  1.3979  0.6820  1.3038
 3284TIP3    H231488   5.840   5.734   1.536 -0.2196  1.0671 -0.7970
 3285TIP3   OH231489   3.276   4.865   1.620  0.5740  0.1310 -0.5035
 3285TIP3    H131490   3.367   4.864   1.652  0.4534  1.1340 -0.0719
 3285TIP3    H231491   3.266   4.783   1.572  1.9412  0.3450 -1.1966
 3286TIP3   OH231492   5.335   5.772   8.373 -0.4168  0.2187 -0.0870
 3286TIP3    H131493   5.396   5.817   8.315  0.4149  1.0389  1.3745
 3286TIP3    H231494   5.248   5.802   8.345  0.0561  1.9098  0.1458
 3287TIP3   OH231495   1.512   0.150   7.556 -0.0335  0.6560 -0.3512
 3287TIP3    H131496   1.461   0.223   7.591  0.3626  1.0057 -0.4990
 3287TIP3    H231497   1.478   0.138   7.467 -1.5939 -0.7495  0.3834
 3288TIP3   OH231498   6.153   3.078   2.110 -0.2688  0.1295  0.2376
 3288TIP3    H131499   6.227   3.133   2.086 -0.0652 -0.3395 -0.1978
 3288TIP3    H231500   6.084   3.141   2.134  0.3952  0.5647  1.0686
 3289TIP3   OH231501   5.025   0.857   8.186 -0.0827  0.3978  0.0406
 3289TIP3    H131502   5.055   0.788   8.246  0.4124  0.0223 -0.6298
 3289TIP3    H231503   5.082   0.850   8.110 -1.5063  0.0194 -1.0502
 3290TIP3   OH231504   0.110   6.620   2.873  0.0349  0.2744  0.2045
 3290TIP3    H131505   0.031   6.673   2.883 -0.9196 -1.2673  1.0959
 3290TIP3    H231506   0.110   6.561   2.949  0.2185 -2.0648 -1.5119
 3291TIP3   OH231507   3.636   2.138   0.678 -0.3708  1.4193  0.0615
 3291TIP3    H131508   3.687   2.085   0.617 -1.1427  1.1229 -0.3470
 3291TIP3    H231509   3.654   2.229   0.652 -0.8359  1.2923 -0.7402
 3292TIP3   OH231510   6.315   5.022   1.352  0.1966 -0.1433  0.5689
 3292TIP3    H131511   6.377   5.093   1.366  1.7501 -1.6667  1.8806
 3292TIP3    H231512   6.249   5.033   1.420  1.1010 -0.6147  1.5459
 3293TIP3   OH231513   1.681   3.567   0.314 -0.0910  0.2999  0.4081
 3293TIP3    H131514   1.636   3.577   0.231  0.7010  0.2928 -0.0347
 3293TIP3    H231515   1.717   3.654   0.333  1.8491 -0.2274 -0.5334
 3294TIP3   OH231516   1.879   2.696   2.226 -0.2319 -0.2352 -0.1869
 3294TIP3    H131517   1.841   2.634   2.164 -1.6433 -1.1482  1.4849
 3294TIP3    H231518   1.894   2.644   2.306  0.8374  1.0396  0.4762
 3295TIP3   OH231519   0.294   5.535   0.042 -0.0920  0.0903 -0.0989
 3295TIP3    H131520   0.386   5.517   0.027  0.4513  3.1987 -1.0706
 3295TIP3    H231521   0.282   5.522   0.137  2.2110  2.8116  0.6850
 3296TIP3   OH231522   4.312   3.904   8.500  0.3881  0.1716 -0.1789
 3296TIP3    H131523   4.238   3.866   8.548 -0.2222  1.8759  0.3076
 3296TIP3    H231524   4.389   3.861   8.537 -0.3050 -1.1351 -0.2095
 3297TIP3   OH231525   4.517   3.109   2.659 -0.2582  0.1598  0.4781
 3297TIP3    H131526   4.490   3.103   2.568 -2.2384 -1.3307  1.0959
 3297TIP3    H231527   4.469   3.038   2.703  0.0157  1.3336  2.8100
 3298TIP3   OH231528   5.740   6.926   7.499 -0.2264 -0.0128  0.0977
 3298TIP3    H131529   5.830   6.958   7.493 -0.3163 -0.0090 -2.0177
 3298TIP3    H231530   5.746   6.847   7.553  0.8310  0.6319  0.9761
 3299TIP3   OH231531   6.869   1.363   2.030 -0.2298 -0.4993  0.7037
 3299TIP3    H131532   6.867   1.408   1.945  2.4685  0.6607  1.1591
 3299TIP3    H231533   6.908   1.278   2.010 -0.9108 -0.7883  0.5819
 3300TIP3   OH231534   0.440   4.811   1.127 -0.1198  0.1195 -0.7385
 3300TIP3    H131535   0.346   4.798   1.112 -0.2800 -0.0390  0.3467
 3300TIP3    H231536   0.460   4.756   1.203  0.1102  2.7437  1.2304
 3301TIP3   OH231537   1.480   1.729   0.631  0.3383 -0.5109  0.3682
 3301TIP3    H131538   1.491   1.686   0.716 -1.3444  0.3754  1.0757
 3301TIP3    H231539   1.492   1.822   0.649 -0.6004 -0.2624 -0.2468
 3302TIP3   OH231540   0.578   4.797   1.754 -0.3087  0.2059  0.0035
 3302TIP3    H131541   0.666   4.760   1.743 -0.5846 -0.4321 -0.0547
 3302TIP3    H231542   0.542   4.801   1.666 -1.4389 -2.2725  0.2883
 3303TIP3   OH231543   0.014   3.147   2.764  0.2940 -0.0145  0.4791
 3303TIP3    H131544   0.049   3.196   2.690 -0.1607 -0.5111 -0.0794
 3303TIP3    H231545   0.046   3.057   2.751 -2.5291 -0.9094 -1.0325
 3304TIP3   OH231546   3.395   0.056   7.493  0.6831  0.9231  0.6115
 3304TIP3    H131547   3.458   0.046   7.422  3.7565  0.9043  3.1413
 3304TIP3    H231548   3.407  -0.022   7.547 -0.4076  1.6650  1.9856
 3305TIP3   OH231549   5.682   1.548   1.044  0.5016  0.0624  0.0385
 3305TIP3    H131550   5.663   1.640   1.031  1.0827  0.2253  0.3126
 3305TIP3    H231551   5.600   1.503   1.023 -0.2763  0.7572  1.4731
 3306TIP3   OH231552   2.964   1.115   0.014 -0.3493  0.2173  0.4570
 3306TIP3    H131553   2.905   1.096  -0.060 -0.2138 -1.6221  0.7749
 3306TIP3    H231554   3.043   1.149  -0.027 -0.3423 -0.6159 -0.2744
 3307TIP3   OH231555   1.013   2.707   8.015 -0.4565  0.4449  0.0297
 3307TIP3    H131556   0.945   2.661   7.965 -0.7284  0.3429  0.4913
 3307TIP3    H231557   1.077   2.734   7.949  0.4751 -1.8942 -0.0936
 3308TIP3   OH231558   3.166   6.918   2.020 -0.6176  0.5181  0.2901
 3308TIP3    H131559   3.213   6.983   2.071 -1.0683  1.7303 -0.7753
 3308TIP3    H231560   3.234   6.873   1.969 -0.4152  0.9225  0.2044
 3309TIP3   OH231561   2.857   3.669   8.145  0.1414 -0.1557  0.2907
 3309TIP3    H131562   2.789   3.727   8.178  0.3511 -0.6637  1.6566
 3309TIP3    H231563   2.831   3.581   8.175  0.8407 -0.4983 -0.0738
 3310TIP3   OH231564   0.699   0.349   0.536  0.3127 -0.0927 -0.3613
 3310TIP3    H131565   0.628   0.285   0.542 -0.1964  0.2540 -2.1354
 3310TIP3    H231566   0.667   0.415   0.474  0.5678  2.2405  1.8142
 3311TIP3   OH231567   5.469   6.460   7.358  0.4464  0.1962  0.3963
 3311TIP3    H131568   5.553   6.420   7.337  0.9713  1.4625 -0.0125
 3311TIP3    H231569   5.421   6.459   7.275  1.0028  1.6286  0.0230
 3312TIP3   OH231570   4.658   5.992   8.022 -0.2647 -0.8887 -0.1593
 3312TIP3    H131571   4.600   6.028   8.088  1.2879 -0.4702  1.0452
 3312TIP3    H231572   4.601   5.939   7.966 -2.1136  0.9970 -0.2124
 3313TIP3   OH231573   4.452   3.397   1.561  0.3213  0.0582  0.5092
 3313TIP3    H131574   4.379   3.335   1.565  0.3834 -0.0289  0.2974
 3313TIP3    H231575   4.473   3.404   1.468 -0.3966  1.2360  0.4161
 3314TIP3   OH231576   0.330   6.289   1.744 -0.3414  0.0493 -0.1778
 3314TIP3    H131577   0.365   6.276   1.832  2.1892 -0.8063 -1.2107
 3314TIP3    H231578   0.319   6.200   1.709 -0.2705  0.3840 -1.0802
 3315TIP3   OH231579   4.534   5.527   7.781 -0.1429 -0.1539 -0.6822
 3315TIP3    H131580   4.495   5.565   7.702 -0.2095  1.2531  0.0022
 3315TIP3    H231581   4.628   5.535   7.767 -0.1585  0.9330 -0.2491
 3316TIP3   OH231582   5.403   1.980   7.634 -0.1540  0.6291 -0.2658
 3316TIP3    H131583   5.420   1.980   7.728  1.1444 -1.2792 -0.4508
 3316TIP3    H231584   5.421   1.890   7.606 -0.5929  1.1277 -2.3300
 3317TIP3   OH231585   6.398   5.866   1.282 -0.2010  0.6612  0.6774
 3317TIP3    H131586   6.454   5.883   1.207  0.2426 -0.8052  0.6400
 3317TIP3    H231587   6.457   5.870   1.358 -0.4106  0.9306  0.8298
 3318TIP3   OH231588   3.728   2.468   8.466 -0.8456 -0.1749  0.0663
 3318TIP3    H131589   3.742   2.538   8.530 -1.5111 -0.5770  0.6586
 3318TIP3    H231590   3.682   2.400   8.514 -0.8640 -0.7171 -0.7021
 3319TIP3   OH231591   0.129   6.095   1.463  0.1214  0.3137  0.0671
 3319TIP3    H131592   0.112   6.003   1.442  0.5958  0.3998 -0.7189
 3319TIP3    H231593   0.070   6.144   1.406 -0.6169  0.4999  0.9568
 3320TIP3   OH231594   1.647   5.499   0.111 -0.2448 -0.2873  0.2508
 3320TIP3    H131595   1.616   5.577   0.157 -1.2729 -1.4092  1.5425
 3320TIP3    H231596   1.742   5.501   0.121 -0.2150  1.0361 -0.1662
 3321TIP3   OH231597   1.066   5.374   7.603 -0.1040  0.0078  0.1043
 3321TIP3    H131598   1.006   5.312   7.643 -0.9659 -0.5300 -1.8976
 3321TIP3    H231599   1.151   5.355   7.643 -1.0727  0.3624  2.5223
 3322TIP3   OH231600   0.033   0.053   2.526  0.2359  0.0526  0.0996
 3322TIP3    H131601   0.065   0.142   2.533  0.5214  0.0411 -0.9106
 3322TIP3    H231602   0.083   0.004   2.591 -1.3729  0.9818  2.1519
 3323TIP3   OH231603   3.079   3.700   0.392  0.3339 -0.1596 -0.0725
 3323TIP3    H131604   3.142   3.711   0.320 -0.0615  0.0763 -0.3895
 3323TIP3    H231605   3.105   3.766   0.456 -0.7770  1.3151 -1.0699
 3324TIP3   OH231606   2.090   2.801   7.317  0.5332  0.4816 -0.0454
 3324TIP3    H131607   2.069   2.794   7.410 -0.2717  1.2113 -0.1535
 3324TIP3    H231608   2.099   2.895   7.302  1.7562  0.3055 -0.4835
 3325TIP3   OH231609   0.739   4.986   0.349 -0.2651 -0.4354  0.3842
 3325TIP3    H131610   0.790   5.066   0.368  0.1242 -0.9214  1.4735
 3325TIP3    H231611   0.806   4.920   0.329 -0.4476 -1.0648  1.7683
 3326TIP3   OH231612   3.905   5.221   0.542  0.1393  0.7032  1.0113
 3326TIP3    H131613   3.866   5.263   0.465 -1.3847 -0.7385  0.9379
 3326TIP3    H231614   3.907   5.128   0.520 -0.2648  0.2735  2.6902
 3327TIP3   OH231615   2.034   3.820   8.434  0.0779 -0.1312 -0.2042
 3327TIP3    H131616   2.074   3.739   8.402 -0.0868 -0.8460  1.3193
 3327TIP3    H231617   1.995   3.859   8.356 -0.3423 -1.8069 -0.8864
 3328TIP3   OH231618   3.913   1.468   1.702  0.0551 -0.1264 -0.1450
 3328TIP3    H131619   3.830   1.478   1.655  0.8075 -0.6593 -1.6509
 3328TIP3    H231620   3.890   1.481   1.794 -1.9743 -1.6309 -0.3545
 3329TIP3   OH231621   6.576   5.279   7.177  0.5325 -0.4913  0.8186
 3329TIP3    H131622   6.512   5.218   7.142  0.7355  0.0246 -0.5131
 3329TIP3    H231623   6.637   5.294   7.105  0.1427  1.7604  0.8770
 3330TIP3   OH231624   3.157   4.632   2.925 -0.2565 -0.1588  0.2143
 3330TIP3    H131625   3.163   4.543   2.960  0.8263 -1.0557 -2.0512
 3330TIP3    H231626   3.063   4.649   2.917 -0.4748 -0.9901  0.9453
 3331TIP3   OH231627   3.283   4.380   2.231  0.2262  0.0109 -0.7715
 3331TIP3    H131628   3.271   4.475   2.218 -0.5263  0.4955  2.6104
 3331TIP3    H231629   3.377   4.370   2.243  0.1336  0.6763  0.7203
 3332TIP3   OH231630   6.714   0.282   7.937 -0.7668 -0.7279  0.2323
 3332TIP3    H131631   6.777   0.317   8.000 -0.2781 -0.3486 -0.4506
 3332TIP3    H231632   6.717   0.343   7.864 -0.3772 -1.8368 -0.7108
 3333TIP3   OH231633   1.376   4.178   8.349  0.0593 -0.9968  0.1021
 3333TIP3    H131634   1.436   4.184   8.423  1.3683 -0.3263 -0.9799
 3333TIP3    H231635   1.430   4.193   8.272 -1.4270 -0.7402 -0.9505
 3334TIP3   OH231636   2.363   0.721   1.883  0.0556  0.3902 -0.0468
 3334TIP3    H131637   2.350   0.693   1.793 -1.0594  1.0400 -0.1116
 3334TIP3    H231638   2.366   0.639   1.933 -0.0133  0.0512 -0.5889
 3335TIP3   OH231639   4.931   6.882   0.715  0.2658 -0.4618  0.2506
 3335TIP3    H131640   4.850   6.912   0.756  0.6158  1.8049 -0.5795
 3335TIP3    H231641   4.960   6.956   0.661  2.3494 -1.5773 -0.2875
 3336TIP3   OH231642   0.723   2.735   0.675 -0.9940 -0.2750 -0.1645
 3336TIP3    H131643   0.810   2.747   0.712 -0.8366 -4.3275  1.2424
 3336TIP3    H231644   0.736   2.741   0.580  1.3269 -2.6644 -0.1123
 3337TIP3   OH231645   4.377   4.816   1.652 -0.7514 -0.0938 -0.1216
 3337TIP3    H131646   4.290   4.791   1.622 -0.4868  0.2043 -1.1951
 3337TIP3    H231647   4.433   4.803   1.575  0.2210 -0.6237  0.6436
 3338TIP3   OH231648   3.408   3.434   7.362 -0.8182  0.0490 -0.2466
 3338TIP3    H131649   3.333   3.376   7.374 -1.2687  0.7841  0.6041
 3338TIP3    H231650   3.401   3.463   7.271 -0.6428 -1.1196 -0.6593
 3339TIP3   OH231651   4.139   2.209   8.175 -0.0600 -0.7517 -0.1650
 3339TIP3    H131652   4.060   2.255   8.205 -0.4892 -2.2950  1.2362
 3339TIP3    H231653   4.158   2.247   8.090 -1.1553  1.0610  0.3411
 3340TIP3   OH231654   4.340   1.210   6.574  0.3354 -0.2147  0.0014
 3340TIP3    H131655   4.352   1.305   6.576 -0.4158 -0.1347  1.1655
 3340TIP3    H231656   4.390   1.178   6.649  0.7576 -0.7735 -0.5076
 3341TIP3   OH231657   6.423   1.009   1.008 -0.5261 -0.2593 -0.2365
 3341TIP3    H131658   6.500   0.974   0.964 -0.4122 -1.7956  1.1043
 3341TIP3    H231659   6.351   0.953   0.979 -0.6260 -0.6311  0.6911
 3342TIP3   OH231660   6.451   3.192   0.089 -0.1223  0.0039  0.0182
 3342TIP3    H131661   6.440   3.220  -0.001 -0.8487 -0.3008  0.0017
 3342TIP3    H231662   6.365   3.159   0.115 -0.1013  0.6763  1.0300
 3343TIP3   OH231663   3.979   4.953   7.640  0.1055 -0.0740  0.2592
 3343TIP3    H131664   4.034   5.025   7.609  0.5337  0.4060  1.9751
 3343TIP3    H231665   4.041   4.884   7.664 -0.1996 -0.4282  0.0322
 3344TIP3   OH231666   1.923   4.790   1.689  0.7689 -0.6061  0.6075
 3344TIP3    H131667   2.013   4.813   1.713  0.7878  0.6580 -0.5330
 3344TIP3    H231668   1.882   4.874   1.666  0.4357 -1.4758 -2.5161
 3345TIP3   OH231669   0.990   0.363   2.699 -0.5280 -0.6800  0.2788
 3345TIP3    H131670   1.048   0.398   2.767  0.7395 -1.8838 -0.1321
 3345TIP3    H231671   0.903   0.365   2.738 -0.6411  3.0102  0.2521
 3346TIP3   OH231672   0.831   0.851   0.750 -0.2248  0.0989 -0.0665
 3346TIP3    H131673   0.840   0.922   0.814  1.0551  2.9537 -3.1385
 3346TIP3    H231674   0.914   0.851   0.702 -0.5253 -2.9800 -0.7807
 3347TIP3   OH231675   2.355   6.833   0.041  0.0743 -0.5162  0.3532
 3347TIP3    H131676   2.369   6.889  -0.035 -1.8410  1.3082  1.2152
 3347TIP3    H231677   2.306   6.758   0.007  0.7585 -0.6048 -0.4693
 3348TIP3   OH231678   4.370   0.074   2.737  0.3021 -0.4577  0.0280
 3348TIP3    H131679   4.380   0.163   2.772  0.0601 -0.4568  0.0926
 3348TIP3    H231680   4.281   0.048   2.761 -0.5411  0.2304 -2.1594
 3349TIP3   OH231681   4.539   2.652   1.787  0.1343  0.6064 -0.5280
 3349TIP3    H131682   4.513   2.692   1.703  1.5880 -2.7678 -2.8087
 3349TIP3    H231683   4.620   2.698   1.811 -0.3043  1.6282 -0.9430
 3350TIP3   OH231684   4.474   1.279   0.093  0.2119 -0.1290  0.3520
 3350TIP3    H131685   4.397   1.326   0.124 -0.5109  0.7987 -2.5746
 3350TIP3    H231686   4.516   1.246   0.173 -1.6875  1.6704  2.2018
 3351TIP3   OH231687   0.539   2.348   6.849  0.1850 -0.2391 -0.5329
 3351TIP3    H131688   0.568   2.267   6.891 -1.3186 -0.9651 -0.8209
 3351TIP3    H231689   0.599   2.359   6.775  0.4002 -1.1149 -0.5085
 3352TIP3   OH231690   4.628   4.444   0.133 -0.7982  0.4510 -0.9568
 3352TIP3    H131691   4.720   4.417   0.139 -0.8454  0.5270  0.4098
 3352TIP3    H231692   4.582   4.365   0.105 -0.1524  0.8045 -3.2474
 3353TIP3   OH231693   1.968   4.414   7.461  0.5065  0.2383  0.0437
 3353TIP3    H131694   2.008   4.467   7.530 -0.8880 -0.7452  1.7022
 3353TIP3    H231695   1.926   4.341   7.508 -1.4011  0.0904 -1.7358
 3354TIP3   OH231696   0.066   6.189   7.064 -0.1149  0.1463  0.3147
 3354TIP3    H131697   0.099   6.133   6.993  1.6416 -0.3640  1.4583
 3354TIP3    H231698   0.117   6.269   7.057 -1.2526  0.8569 -0.1091
 3355TIP3   OH231699   3.505   6.349   8.112  0.4224 -0.6521  0.8587
 3355TIP3    H131700   3.411   6.365   8.125  0.5643  1.3140 -0.1087
 3355TIP3    H231701   3.524   6.274   8.167 -1.2228  0.3704  3.0042
 3356TIP3   OH231702   3.459   2.119   2.127 -0.0431 -0.7323 -0.1185
 3356TIP3    H131703   3.533   2.179   2.115 -0.2524 -0.5208 -0.3690
 3356TIP3    H231704   3.392   2.172   2.172 -0.1797 -0.8152 -0.2225
 3357TIP3   OH231705   3.022   3.641   7.935  0.1163  0.6112 -0.1845
 3357TIP3    H131706   3.037   3.550   7.909  0.5055  0.3607  0.8711
 3357TIP3    H231707   2.950   3.637   7.997  1.1626  0.8227  1.0735
 3358TIP3   OH231708   6.144   1.531   7.021  0.3979 -0.5773  0.8197
 3358TIP3    H131709   6.219   1.528   6.962 -0.5708  0.1435 -0.5127
 3358TIP3    H231710   6.159   1.609   7.074  0.4445 -0.2461  0.3301
 3359TIP3   OH231711   4.998   2.943   1.058 -0.1462  0.2761  0.4842
 3359TIP3    H131712   5.003   3.012   0.991 -1.1446 -1.2802 -1.3147
 3359TIP3    H231713   4.936   2.976   1.122 -1.7940  0.5008 -1.1354
 3360TIP3   OH231714   6.627   6.612   0.455 -0.2164 -0.4178  0.1939
 3360TIP3    H131715   6.667   6.632   0.540  0.5469 -0.7159 -0.0848
 3360TIP3    H231716   6.667   6.674   0.395 -0.7007 -0.2579  0.0366
 3361TIP3   OH231717   0.092   5.043   2.696  0.5405 -0.3732 -0.0971
 3361TIP3    H131718   0.038   4.967   2.673 -0.7213 -0.1546  1.8583
 3361TIP3    H231719   0.046   5.118   2.658  0.9335 -0.4375 -0.7014
 3362TIP3   OH231720   2.477   0.689   8.510  0.3902  0.3338  0.2917
 3362TIP3    H131721   2.410   0.674   8.444  0.7359  1.2708 -0.2755
 3362TIP3    H231722   2.532   0.759   8.475  2.3294 -1.1238  0.2380
 3363TIP3   OH231723   0.994   6.500   6.954  0.5733  0.5498  0.2101
 3363TIP3    H131724   0.963   6.458   6.874 -0.0451  0.5780  0.4323
 3363TIP3    H231725   0.967   6.591   6.946  0.2134  0.4791  0.5993
 3364TIP3   OH231726   5.999   6.276   7.952  0.0913  0.4229 -0.5029
 3364TIP3    H131727   6.020   6.188   7.920 -2.8284 -0.9260  0.8930
 3364TIP3    H231728   6.064   6.294   8.019  0.4376 -0.8966 -0.4601
 3365TIP3   OH231729   6.114   5.718   8.171  0.5728  0.4076  0.6067
 3365TIP3    H131730   6.209   5.708   8.163  0.6535  1.5704 -0.2106
 3365TIP3    H231731   6.095   5.691   8.261  2.1291  2.9100  1.8035
 3366TIP3   OH231732   2.189   2.046   0.721 -0.2576 -0.5701 -0.2745
 3366TIP3    H131733   2.252   1.986   0.683 -2.5327 -2.9869 -0.5569
 3366TIP3    H231734   2.210   2.048   0.815  1.3158  0.1879 -0.6105
 3367TIP3   OH231735   1.715   1.238   7.031 -0.4393 -0.0941 -0.2431
 3367TIP3    H131736   1.657   1.208   6.961  0.0475  1.4771 -1.3846
 3367TIP3    H231737   1.801   1.205   7.006 -0.1020  1.2238 -0.9095
 3368TIP3   OH231738   5.918   5.438   1.177  0.6410  0.1898  0.6547
 3368TIP3    H131739   5.984   5.373   1.152 -0.2296  0.3416 -2.3947
 3368TIP3    H231740   5.919   5.503   1.107 -0.3199  2.1364  2.3227
 3369TIP3   OH231741   5.355   3.234   0.524 -0.1142 -0.1919  0.7794
 3369TIP3    H131742   5.349   3.320   0.481 -1.8090  0.0841  1.5018
 3369TIP3    H231743   5.449   3.221   0.537  0.2485  1.0634 -0.3012
 3370TIP3   OH231744   0.612   2.596   0.312  0.2615  0.3913 -0.2839
 3370TIP3    H131745   0.622   2.540   0.235  1.7482  0.0549  0.1127
 3370TIP3    H231746   0.598   2.684   0.276  1.2981  0.3001 -0.9557
 3371TIP3   OH231747   0.645   3.682   6.824  0.4935  0.8444 -0.3916
 3371TIP3    H131748   0.702   3.636   6.886 -0.0134  0.5529 -0.1337
 3371TIP3    H231749   0.589   3.613   6.787 -0.8947  1.3621  0.6661
 3372TIP3   OH231750   6.210   3.888   7.975  0.5744  0.7448 -0.5552
 3372TIP3    H131751   6.284   3.890   7.914  0.1754  0.4133 -1.0582
 3372TIP3    H231752   6.191   3.795   7.987  1.2149  0.7712  0.7836
 3373TIP3   OH231753   1.473   2.778   7.586  0.6510  0.1701  0.0812
 3373TIP3    H131754   1.540   2.818   7.641  0.1623  2.5334 -0.8785
 3373TIP3    H231755   1.392   2.820   7.614  0.0674 -0.3029 -0.8618
 3374TIP3   OH231756   1.255   1.250   1.735 -0.6828  0.2772  0.0212
 3374TIP3    H131757   1.279   1.249   1.642 -1.6746 -1.7759 -0.2823
 3374TIP3    H231758   1.330   1.210   1.779 -1.3601 -1.4554 -0.3069
 3375TIP3   OH231759   5.388   0.248   7.256 -0.8013 -0.3279 -0.4464
 3375TIP3    H131760   5.419   0.164   7.292 -0.2044  0.0747 -0.0066
 3375TIP3    H231761   5.432   0.256   7.172  1.3379  0.8109  0.6885
 3376TIP3   OH231762   1.243   6.441   7.702 -0.0613  0.1709 -0.9926
 3376TIP3    H131763   1.312   6.506   7.689  0.5495 -0.6939 -2.4195
 3376TIP3    H231764   1.270   6.367   7.647  0.2114 -2.0600  1.9362
 3377TIP3   OH231765   6.151   1.044   7.744  0.0312  0.4880  0.0482
 3377TIP3    H131766   6.186   1.063   7.657  0.1063 -1.2081 -0.3225
 3377TIP3    H231767   6.193   0.961   7.769 -2.7415 -1.0016  0.1156
 3378TIP3   OH231768   1.029   6.261   7.504  0.0824 -0.6050  0.2857
 3378TIP3    H131769   0.987   6.200   7.444  0.9009 -1.1094  0.2118
 3378TIP3    H231770   1.067   6.205   7.572  1.8915 -0.2989 -0.4271
 3379TIP3   OH231771   2.819   4.560   1.271  0.9512 -0.2397  0.2426
 3379TIP3    H131772   2.745   4.527   1.323 -1.1013  0.0374 -2.3164
 3379TIP3    H231773   2.858   4.628   1.326  0.5477 -1.6398  2.4423
 3380TIP3   OH231774   5.486   4.893   8.474 -0.0258 -0.1127  0.1392
 3380TIP3    H131775   5.494   4.927   8.563  1.1757  2.7322 -0.9509
 3380TIP3    H231776   5.574   4.897   8.438 -0.6321 -0.3714 -1.4692
 3381TIP3   OH231777   3.752   4.793   7.512 -0.1698 -0.2276  0.2168
 3381TIP3    H131778   3.824   4.832   7.562  0.3279 -0.0479 -0.6275
 3381TIP3    H231779   3.734   4.711   7.558 -1.6181  1.1847  2.3529
 3382TIP3   OH231780   4.977   5.384   1.417 -0.6528  0.1732  0.5296
 3382TIP3    H131781   4.987   5.303   1.366 -0.1908  1.7543 -2.0665
 3382TIP3    H231782   5.046   5.379   1.483  0.0767 -1.0666 -0.2799
 3383TIP3   OH231783   6.434   3.636   0.321 -0.0599  0.1010 -0.2458
 3383TIP3    H131784   6.409   3.698   0.252 -0.5768 -0.0660 -0.2088
 3383TIP3    H231785   6.530   3.642   0.325 -0.0213  0.0808 -1.0088
 3384TIP3   OH231786   0.499   4.134   1.092 -0.8603  0.4860  1.0890
 3384TIP3    H131787   0.565   4.203   1.083 -0.6608  0.0683 -1.3374
 3384TIP3    H231788   0.456   4.153   1.175  0.6969  2.1914  1.5779
 3385TIP3   OH231789   3.126   4.353   3.003 -0.2455  0.3435  0.3072
 3385TIP3    H131790   3.041   4.309   2.993  0.1783  0.0378 -3.3514
 3385TIP3    H231791   3.190   4.287   2.976  1.0131  1.2086  1.0721
 3386TIP3   OH231792   0.931   0.930   6.292  0.5229  0.0122 -0.2787
 3386TIP3    H131793   1.018   0.892   6.284  0.5309 -0.1317  0.4279
 3386TIP3    H231794   0.878   0.861   6.333  0.1578  0.2206 -0.3888
 3387TIP3   OH231795   4.402   5.332   6.692  0.2487  0.4795  0.2845
 3387TIP3    H131796   4.484   5.294   6.661 -0.3015  0.4217 -1.1805
 3387TIP3    H231797   4.410   5.425   6.675 -0.5173  0.3043 -1.2150
 3388TIP3   OH231798   5.499   4.500   1.186  0.6516  0.1348 -0.4914
 3388TIP3    H131799   5.568   4.493   1.251 -0.6623 -1.4673  0.8301
 3388TIP3    H231800   5.470   4.591   1.191  1.8664  0.5166 -0.2330
 3389TIP3   OH231801   4.524   3.751   0.047 -0.8407 -0.1194  0.3634
 3389TIP3    H131802   4.614   3.778   0.025 -0.4423 -1.5416  0.1263
 3389TIP3    H231803   4.527   3.735   0.142 -0.6653 -0.7526  0.2571
 3390TIP3   OH231804   1.419   2.679   2.061 -0.1110 -0.1327  0.1475
 3390TIP3    H131805   1.443   2.640   2.145 -0.9666  1.7177  1.3176
 3390TIP3    H231806   1.498   2.671   2.007  0.6840 -0.7339  1.3580
 3391TIP3   OH231807   5.808   3.232   2.691 -0.0059 -0.0770  0.4331
 3391TIP3    H131808   5.773   3.278   2.767  0.0940 -1.8111  1.5808
 3391TIP3    H231809   5.803   3.140   2.715  0.3273 -0.6525 -1.5552
 3392TIP3   OH231810   6.184   5.851   1.105 -0.2279 -0.1661 -0.3912
 3392TIP3    H131811   6.178   5.942   1.079  0.1512  0.2328  0.8476
 3392TIP3    H231812   6.243   5.851   1.180  0.7454 -1.5971 -1.1146
 3393TIP3   OH231813   5.799   6.468   8.140  0.3733  0.2509  0.7562
 3393TIP3    H131814   5.794   6.495   8.049 -0.5160 -1.0250  0.3917
 3393TIP3    H231815   5.762   6.541   8.189  1.1461  1.0778  0.1419
 3394TIP3   OH231816   0.213   3.544   2.595 -0.3922 -0.2422 -0.5865
 3394TIP3    H131817   0.201   3.559   2.501  0.1295 -0.6838 -0.7293
 3394TIP3    H231818   0.174   3.458   2.610 -0.7870 -0.0188 -0.3300
 3395TIP3   OH231819   0.418   0.861   0.762 -0.4786  0.0653 -0.3287
 3395TIP3    H131820   0.369   0.923   0.708 -1.4740 -0.5911 -0.1906
 3395TIP3    H231821   0.359   0.787   0.774 -0.1270  0.0126  1.3217
 3396TIP3   OH231822   4.545   3.405   0.500  0.3883  0.0464 -0.6989
 3396TIP3    H131823   4.562   3.338   0.566  3.9093  0.6045 -0.8930
 3396TIP3    H231824   4.497   3.358   0.432  1.3336 -1.8938 -0.1150
 3397TIP3   OH231825   2.729   1.437   0.676  0.4985 -0.0757 -0.2364
 3397TIP3    H131826   2.660   1.394   0.626  0.4947 -0.9956  0.5330
 3397TIP3    H231827   2.731   1.527   0.642  1.3020 -0.9380 -2.7076
 3398TIP3   OH231828   1.700   3.249   1.005 -0.8402 -0.0091 -0.4117
 3398TIP3    H131829   1.675   3.157   1.020  1.4758 -0.5554  0.5385
 3398TIP3    H231830   1.781   3.259   1.054 -0.4837  2.2798 -1.3956
 3399TIP3   OH231831   1.379   5.630   8.415 -0.8622  0.4358 -0.7971
 3399TIP3    H131832   1.356   5.675   8.497  0.6965  0.5582 -0.4080
 3399TIP3    H231833   1.450   5.683   8.378  0.9833 -1.6117 -0.3725
 3400TIP3   OH231834   3.827   6.249   2.596 -0.2881  0.0890  0.4862
 3400TIP3    H131835   3.883   6.214   2.665 -0.4512 -0.0357  0.5562
 3400TIP3    H231836   3.814   6.177   2.536  2.6150  1.0508 -1.5246
 3401TIP3   OH231837   1.501   0.065   0.637 -0.2267 -0.0814  0.3995
 3401TIP3    H131838   1.543   0.122   0.701  1.5458  1.5561 -2.0478
 3401TIP3    H231839   1.565  -0.005   0.621 -0.2314  0.0640 -0.2757
 3402TIP3   OH231840   5.324   0.854   0.184 -0.2993 -0.2178 -0.4612
 3402TIP3    H131841   5.245   0.869   0.236  1.1873  0.8475  1.6144
 3402TIP3    H231842   5.357   0.942   0.164  1.3399 -0.6212  0.3088
 3403TIP3   OH231843   5.895   4.690   0.688 -0.3829  0.0762 -0.3548
 3403TIP3    H131844   5.841   4.663   0.762  0.7466  0.9827  0.8296
 3403TIP3    H231845   5.838   4.677   0.611 -0.9003 -2.8376  0.3970
 3404TIP3   OH231846   5.593   4.129   2.250  0.0603  0.4565 -0.0238
 3404TIP3    H131847   5.666   4.074   2.279  0.1774 -0.1457 -1.3717
 3404TIP3    H231848   5.614   4.216   2.285  0.2089 -0.1817  1.5878
 3405TIP3   OH231849   1.257   3.796   8.236 -0.8917 -0.1453 -0.2996
 3405TIP3    H131850   1.195   3.837   8.296 -0.9334  0.8486 -0.9903
 3405TIP3    H231851   1.242   3.702   8.246 -1.3247  0.0218  0.7726
 3406TIP3   OH231852   1.413   2.138   7.261 -0.0678 -0.1189  0.3391
 3406TIP3    H131853   1.356   2.215   7.264  1.7422  1.2559  2.3121
 3406TIP3    H231854   1.352   2.064   7.262 -1.8445  1.2341 -0.7505
 3407TIP3   OH231855   4.185   0.902   1.045 -0.1993 -0.4357 -0.4645
 3407TIP3    H131856   4.148   0.945   1.122 -2.1234  0.1459 -1.6382
 3407TIP3    H231857   4.112   0.850   1.010  0.0550  0.7060 -2.8655
 3408TIP3   OH231858   4.426   0.341   0.702  0.2972 -0.0579 -0.1022
 3408TIP3    H131859   4.514   0.366   0.731 -0.1248  1.3729 -0.0130
 3408TIP3    H231860   4.440   0.301   0.616  0.9674  0.7523 -0.3752
 3409TIP3   OH231861   0.245   4.481   0.974 -0.2285 -0.3776  0.1198
 3409TIP3    H131862   0.169   4.432   1.007 -0.6877  0.0899 -0.2334
 3409TIP3    H231863   0.270   4.435   0.894 -1.0224  0.2901 -0.5297
 3410TIP3   OH231864   1.095   2.233   0.671 -0.2756 -0.3510 -0.5438
 3410TIP3    H131865   1.149   2.237   0.592  0.5482 -0.2938  0.0005
 3410TIP3    H231866   1.054   2.319   0.677  1.4911  0.4995  0.3124
 3411TIP3   OH231867   4.528   0.215   1.645 -0.3648 -0.2988 -0.0258
 3411TIP3    H131868   4.491   0.276   1.581 -0.0547  0.3811  0.4382
 3411TIP3    H231869   4.583   0.269   1.701 -0.2872 -0.9659  0.5529
 3412TIP3   OH231870   0.180   0.097   7.711  0.0757  0.1330 -0.0254
 3412TIP3    H131871   0.254   0.140   7.753  2.2892 -0.4338 -2.9884
 3412TIP3    H231872   0.210   0.008   7.695 -2.6261 -1.2303  1.7051
 3413TIP3   OH231873   6.595   6.134   7.386 -0.5263 -0.2376 -0.6794
 3413TIP3    H131874   6.644   6.217   7.391 -0.0443 -0.5652  0.2476
 3413TIP3    H231875   6.526   6.152   7.322  0.7484  0.2559 -1.9825
 3414TIP3   OH231876   4.196   0.665   6.892 -0.3992 -0.1207  0.2933
 3414TIP3    H131877   4.216   0.681   6.799  0.9523 -0.9563  0.4205
 3414TIP3    H231878   4.279   0.678   6.937 -0.5569 -1.7920  1.1158
 3415TIP3   OH231879   3.189   6.361   1.393 -0.0270  0.0669  0.0042
 3415TIP3    H131880   3.271   6.313   1.384 -0.1582 -0.0201 -0.8680
 3415TIP3    H231881   3.125   6.295   1.418 -0.0672 -0.1004 -0.5138
 3416TIP3   OH231882   6.715   2.400   0.334  0.1160  0.3387 -0.1511
 3416TIP3    H131883   6.779   2.435   0.395  1.4197 -1.5837 -0.3312
 3416TIP3    H231884   6.673   2.329   0.383 -2.5633  2.0655  0.2729
 3417TIP3   OH231885   0.790   1.755   2.013 -0.3260 -0.5327  0.3107
 3417TIP3    H131886   0.822   1.735   1.926  0.9360  3.4386 -0.3782
 3417TIP3    H231887   0.867   1.750   2.069 -0.0813  1.3840  0.2109
 3418TIP3   OH231888   5.806   4.290   1.647  0.3966  0.3610 -0.0400
 3418TIP3    H131889   5.859   4.270   1.724  0.9531 -0.3642 -0.5909
 3418TIP3    H231890   5.825   4.219   1.586  0.1138  1.0209 -0.9195
 3419TIP3   OH231891   5.580   1.489   7.780 -0.3446  0.2757  0.2038
 3419TIP3    H131892   5.598   1.453   7.867 -0.8153 -1.7888 -0.5121
 3419TIP3    H231893   5.508   1.435   7.746  0.7456  0.1356 -2.0146
 3420TIP3   OH231894   6.641   3.147   2.191  0.4169 -0.2004 -0.4497
 3420TIP3    H131895   6.624   3.144   2.285 -1.5107 -0.4809 -0.7608
 3420TIP3    H231896   6.666   3.238   2.175  0.7049 -0.1343  0.3182
 3421TIP3   OH231897   5.385   5.582   7.719  0.0487 -0.1696  0.5172
 3421TIP3    H131898   5.478   5.603   7.721 -0.1110  0.7282 -0.5172
 3421TIP3    H231899   5.353   5.604   7.806  1.0598 -1.8848  1.3890
 3422TIP3   OH231900   4.160   1.430   8.287 -0.9693 -0.3608 -0.2895
 3422TIP3    H131901   4.183   1.355   8.341 -3.6957 -0.8688  0.3024
 3422TIP3    H231902   4.072   1.410   8.254 -0.5709  1.2363 -2.5835
 3423TIP3   OH231903   1.512   3.256   7.270 -0.3763 -0.1120 -0.2010
 3423TIP3    H131904   1.529   3.325   7.206 -1.7092 -0.7982 -1.3643
 3423TIP3    H231905   1.551   3.288   7.351  1.9139  0.5230 -1.4732
 3424TIP3   OH231906   3.817   6.626   7.397 -0.7101  0.4360  0.0272
 3424TIP3    H131907   3.864   6.685   7.337 -2.4448  0.8313 -1.0040
 3424TIP3    H231908   3.852   6.539   7.376 -0.3705  0.7307 -0.6739
 3425TIP3   OH231909   4.244   6.932   8.095  0.7545 -0.4858 -0.4969
 3425TIP3    H131910   4.157   6.902   8.068  0.9049 -2.1424  0.7109
 3425TIP3    H231911   4.244   7.026   8.075 -2.0038 -0.0228  1.1555
 3426TIP3   OH231912   4.494   5.923   1.880  0.1745  0.7427  0.0668
 3426TIP3    H131913   4.459   5.839   1.851  0.1786  0.3947  1.0396
 3426TIP3    H231914   4.588   5.908   1.891 -0.0182  0.4413  1.6109
 3427TIP3   OH231915   3.630   1.609   1.471 -0.0784 -0.1272  0.5685
 3427TIP3    H131916   3.553   1.610   1.414 -0.0091  0.1491  0.4793
 3427TIP3    H231917   3.643   1.516   1.491  0.2911 -0.2977 -0.4025
 3428TIP3   OH231918   0.942   3.099   2.742 -0.5461 -0.4464 -0.1120
 3428TIP3    H131919   1.003   3.042   2.695  0.0415  1.3370 -1.6443
 3428TIP3    H231920   0.997   3.146   2.804 -0.3409  1.0045 -1.3446
 3429TIP3   OH231921   3.286   2.099   8.222  0.8427 -0.0952 -0.1767
 3429TIP3    H131922   3.238   2.051   8.290  0.1429  1.0203  0.1312
 3429TIP3    H231923   3.290   2.189   8.254  2.7180 -0.0465 -0.4465
 3430TIP3   OH231924   0.602   0.379   6.834  0.2664 -0.1087  0.4978
 3430TIP3    H131925   0.520   0.329   6.833 -0.7678  1.4460  1.8972
 3430TIP3    H231926   0.665   0.323   6.789 -1.4042 -1.6246 -0.0662
 3431TIP3   OH231927   1.731   4.190   7.796 -0.5182 -0.2160  0.2046
 3431TIP3    H131928   1.672   4.124   7.832 -0.4226 -0.7432 -0.5731
 3431TIP3    H231929   1.699   4.273   7.830 -2.7590 -0.2874 -1.5126
 3432TIP3   OH231930   5.079   2.119   1.054  0.1430  0.3869 -0.1627
 3432TIP3    H131931   5.096   2.169   0.974 -0.1460 -0.6879 -0.9224
 3432TIP3    H231932   5.134   2.161   1.120  1.1170  0.7323 -1.1475
 3433TIP3   OH231933   6.656   3.126   7.870  0.3385 -0.1496  0.4977
 3433TIP3    H131934   6.698   3.072   7.938  0.3787  1.3291  1.7144
 3433TIP3    H231935   6.712   3.203   7.864  0.4600 -0.3400 -1.4317
 3434TIP3   OH231936   4.494   4.639   0.224  0.2515  0.2402 -0.2402
 3434TIP3    H131937   4.402   4.616   0.234  0.4349 -0.4018  0.0462
 3434TIP3    H231938   4.540   4.555   0.234  0.8104  0.4298 -1.1783
 3435TIP3   OH231939   1.922   5.147   6.974  0.4106 -0.2765 -0.2457
 3435TIP3    H131940   1.985   5.076   6.987  0.7852  0.3702  1.7607
 3435TIP3    H231941   1.838   5.102   6.963  0.2299 -1.1102  3.3428
 3436TIP3   OH231942   5.537   2.136   1.684  0.1904  0.1889  0.4771
 3436TIP3    H131943   5.567   2.210   1.631  0.4746 -0.4835 -0.3396
 3436TIP3    H231944   5.617   2.102   1.724  0.0838  0.2452  0.7336
 3437TIP3   OH231945   5.216   0.755   0.530  0.0905  0.0704 -0.5633
 3437TIP3    H131946   5.299   0.772   0.575  0.2495 -0.0397 -0.8140
 3437TIP3    H231947   5.206   0.827   0.469 -0.0577  0.1457 -0.4505
 3438TIP3   OH231948   2.064   1.699   8.390 -0.5382 -0.2845 -0.5735
 3438TIP3    H131949   2.092   1.723   8.302  1.3702  1.4440  0.4334
 3438TIP3    H231950   2.135   1.644   8.424 -0.7266 -0.0181  0.2805
 3439TIP3   OH231951   6.538   4.966   7.842  0.1098  0.0549  0.2264
 3439TIP3    H131952   6.628   4.956   7.809  0.2699  0.7415  0.4418
 3439TIP3    H231953   6.549   4.994   7.933 -0.3034 -3.1703  1.4096
 3440TIP3   OH231954   5.163   4.856   1.161 -0.3263  0.8916 -0.1672
 3440TIP3    H131955   5.104   4.926   1.132 -0.8831  0.3667 -0.3289
 3440TIP3    H231956   5.173   4.800   1.084  1.3740  1.6220 -0.5124
 3441TIP3   OH231957   6.334   0.745   0.345 -0.4378 -0.4719 -0.1636
 3441TIP3    H131958   6.381   0.823   0.316  1.6818 -1.6384 -0.0195
 3441TIP3    H231959   6.323   0.758   0.440 -1.1763  0.1659 -0.3240
 3442TIP3   OH231960   6.555   5.906   1.493 -0.1452 -0.0935  0.2479
 3442TIP3    H131961   6.498   5.885   1.566 -1.1799 -0.5688 -0.6626
 3442TIP3    H231962   6.586   5.995   1.511 -1.8198  0.4988  0.3894
 3443TIP3   OH231963   5.797   4.221   8.254 -0.0561  0.5030  0.6133
 3443TIP3    H131964   5.770   4.137   8.218  0.5286 -0.0426  1.3941
 3443TIP3    H231965   5.740   4.234   8.330 -0.6021  1.1516  0.1080
 3444TIP3   OH231966   1.358   1.370   7.911  0.1834 -0.0380 -0.1707
 3444TIP3    H131967   1.292   1.356   7.979  1.0537  0.2695  0.7717
 3444TIP3    H231968   1.366   1.285   7.867  0.1141 -0.4433  0.5868
 3445TIP3   OH231969   5.904   4.945   1.081  0.6143  0.0502  0.7449
 3445TIP3    H131970   5.920   4.935   0.987  0.3769 -0.1112  0.7223
 3445TIP3    H231971   5.967   4.886   1.123 -0.4778 -1.2387  0.6288
 3446TIP3   OH231972   1.136   1.950   1.909 -0.7226  0.1600  0.0694
 3446TIP3    H131973   1.091   2.026   1.945  0.7445  0.7641  0.7097
 3446TIP3    H231974   1.176   1.907   1.984 -0.1982 -0.3264 -0.4699
 3447TIP3   OH231975   6.753   3.340   1.146 -0.0373  0.3455 -0.1117
 3447TIP3    H131976   6.687   3.292   1.195  0.6550 -1.6985 -1.0795
 3447TIP3    H231977   6.834   3.326   1.196  0.6172 -1.5159 -1.6171
 3448TIP3   OH231978   3.657   6.260   1.534  0.4186  0.1120  0.0095
 3448TIP3    H131979   3.752   6.266   1.545  0.6953 -0.1758 -1.8979
 3448TIP3    H231980   3.645   6.222   1.447 -1.4631  0.4368  0.0820
 3449TIP3   OH231981   2.543   1.762   6.546 -0.2522 -0.1865  0.3220
 3449TIP3    H131982   2.547   1.855   6.521  0.0910  0.0098  1.0804
 3449TIP3    H231983   2.629   1.727   6.525 -0.3573 -0.3185  0.1071
 3450TIP3   OH231984   2.080   6.321   7.176 -0.1075  0.0715  0.0274
 3450TIP3    H131985   2.101   6.414   7.171  0.8435 -0.2170 -2.6745
 3450TIP3    H231986   2.110   6.285   7.093 -1.7304 -2.4149  0.4244
 3451TIP3   OH231987   3.191   5.311   1.447 -0.3397 -0.2157  0.2425
 3451TIP3    H131988   3.284   5.299   1.463 -0.0833 -0.5035 -1.3121
 3451TIP3    H231989   3.149   5.281   1.528  0.7920 -2.7012  0.0068
 3452TIP3   OH231990   2.203   6.000   0.945 -0.1604 -0.1003  0.3536
 3452TIP3    H131991   2.125   6.051   0.925  0.2728  0.4951  0.1482
 3452TIP3    H231992   2.190   5.917   0.898  0.0447  0.6025 -1.0028
 3453TIP3   OH231993   4.324   2.318   7.952 -0.5206  0.7640 -0.6169
 3453TIP3    H131994   4.321   2.404   7.910 -0.2367  2.6126  2.7731
 3453TIP3    H231995   4.360   2.335   8.039  0.6992 -3.0260 -0.1938
 3454TIP3   OH231996   2.441   1.066   1.732 -0.0828  0.1610  0.7181
 3454TIP3    H131997   2.525   1.075   1.687  0.2670  0.0567  1.3473
 3454TIP3    H231998   2.376   1.095   1.667  0.3668 -0.4680 -0.0283
 3455TIP3   OH231999   3.129   3.315   0.874 -0.2254  0.0724 -0.6148
 3455TIP3    H132000   3.070   3.390   0.886 -0.2706 -0.0235 -0.2419
 3455TIP3    H232001   3.197   3.348   0.814  0.1472  0.6373  0.1052
 3456TIP3   OH232002   1.950   2.639   1.397 -0.5824  0.1455  0.2951
 3456TIP3    H132003   2.041   2.667   1.386  0.2643 -0.6205  3.9122
 3456TIP3    H232004   1.906   2.717   1.432 -0.9611  0.0862 -0.0494
 3457TIP3   OH232005   6.054   6.778   0.212 -0.2988 -0.2227  0.2420
 3457TIP3    H132006   6.055   6.768   0.117 -0.5264 -0.8348  0.3018
 3457TIP3    H232007   6.021   6.867   0.226 -1.9781 -0.7417 -0.2148
 3458TIP3   OH232008   3.183   2.450   1.974 -0.0344 -0.1398  0.0117
 3458TIP3    H132009   3.152   2.389   1.907  0.3027 -0.0551 -0.2227
 3458TIP3    H232010   3.141   2.420   2.055 -0.1727 -0.4504 -0.1729
 3459TIP3   OH232011   5.167   1.664   0.648 -0.8756 -0.5021 -0.0522
 3459TIP3    H132012   5.252   1.623   0.658 -1.1487 -2.2150 -3.3730
 3459TIP3    H232013   5.170   1.707   0.563 -3.4855 -1.1751 -0.5932
 3460TIP3   OH232014   5.637   1.903   3.143 -0.1525  0.0711  0.0812
 3460TIP3    H132015   5.602   1.900   3.054  0.1748 -2.4903 -0.0367
 3460TIP3    H232016   5.717   1.955   3.135  0.3302 -0.8254 -1.3441
 3461TIP3   OH232017   2.484   0.968   6.948 -0.3352 -0.0686 -0.0787
 3461TIP3    H132018   2.409   1.027   6.953 -1.8755 -2.0167  2.7474
 3461TIP3    H232019   2.458   0.900   6.886 -0.8869 -0.5855  0.6842
 3462TIP3   OH232020   4.748   0.292   2.156  0.7512 -0.2659  0.2499
 3462TIP3    H132021   4.808   0.272   2.228 -0.2203 -1.1343  0.8392
 3462TIP3    H232022   4.688   0.356   2.193  0.1687 -0.8166  0.2644
 3463TIP3   OH232023   0.254   2.744   1.005  0.2627 -0.2684 -0.2159
 3463TIP3    H132024   0.306   2.822   0.989 -0.7702  0.6026  0.5117
 3463TIP3    H232025   0.196   2.768   1.077 -1.7918 -0.8421 -1.5753
 3464TIP3   OH232026   3.134   4.951   1.878 -0.4091  0.5528 -0.5146
 3464TIP3    H132027   3.178   5.030   1.910 -1.5240  0.8611  0.3434
 3464TIP3    H232028   3.186   4.923   1.803  1.3461  0.7810  0.5466
 3465TIP3   OH232029   5.255   4.420   1.114  0.0584  0.3231  0.6330
 3465TIP3    H132030   5.255   4.492   1.051 -1.8208  0.1243  0.3747
 3465TIP3    H232031   5.347   4.411   1.139  0.7374  1.0079 -1.3832
 3466TIP3   OH232032   5.893   3.397   0.081  0.1524 -0.2292  0.1576
 3466TIP3    H132033   5.970   3.441   0.116  0.6921 -1.3913  0.4884
 3466TIP3    H232034   5.918   3.370  -0.007 -0.8105  1.6783 -0.7665
 3467TIP3   OH232035   4.507   2.229   2.483  0.4766  0.0221  0.2641
 3467TIP3    H132036   4.549   2.259   2.564 -0.3657 -0.1362  0.7684
 3467TIP3    H232037   4.475   2.142   2.504  0.3254 -0.0494 -0.2702
 3468TIP3   OH232038   0.924   2.348   7.872  0.0474  0.0654  0.0418
 3468TIP3    H132039   0.961   2.317   7.789  1.6146 -2.8957  1.6547
 3468TIP3    H232040   0.997   2.394   7.914 -0.7519  1.5831 -0.1673
 3469TIP3   OH232041   3.979   2.295   1.646 -0.1606 -0.0936  0.1719
 3469TIP3    H132042   4.004   2.378   1.688  2.1389 -0.0355 -1.1350
 3469TIP3    H232043   4.038   2.287   1.571 -1.3663 -2.1919 -0.6574
 3470TIP3   OH232044   2.858   4.394   1.024  0.0243  0.3827 -0.5730
 3470TIP3    H132045   2.854   4.452   1.100  1.2799  0.9151 -0.8972
 3470TIP3    H232046   2.925   4.432   0.967 -0.2031 -0.5445 -1.5073
 3471TIP3   OH232047   4.424   0.171   0.475 -0.3113  0.0914  0.1946
 3471TIP3    H132048   4.502   0.175   0.420 -1.3714 -1.9673 -1.6115
 3471TIP3    H232049   4.358   0.220   0.425 -0.2922  1.6926  1.6325
 3472TIP3   OH232050   2.290   4.147   0.606  0.1249  0.0774 -0.5922
 3472TIP3    H132051   2.274   4.233   0.644  0.8707  0.6402 -1.5085
 3472TIP3    H232052   2.203   4.115   0.582 -0.0158  1.4972 -2.1578
 3473TIP3   OH232053   4.081   2.869   2.249 -0.3243  0.0626 -0.1075
 3473TIP3    H132054   4.115   2.909   2.329 -1.6891  0.9886  0.0389
 3473TIP3    H232055   4.149   2.884   2.184 -0.1130  1.2156  0.3596
 3474TIP3   OH232056   3.642   5.014   0.418  0.5573 -0.4809  0.0745
 3474TIP3    H132057   3.701   4.947   0.451  1.1637  0.2247  0.4390
 3474TIP3    H232058   3.674   5.034   0.330  1.0627  0.1136  0.3823
 3475TIP3   OH232059   4.085   3.116   7.850  0.1985 -0.2444  0.2627
 3475TIP3    H132060   4.032   3.074   7.918  1.2083 -2.1985 -0.1034
 3475TIP3    H232061   4.024   3.129   7.777 -0.4570  0.2375  0.8779
 3476TIP3   OH232062   0.744   6.828   7.291  0.1534 -0.0381 -0.2545
 3476TIP3    H132063   0.778   6.913   7.317 -1.6017  1.1096 -1.4248
 3476TIP3    H232064   0.663   6.819   7.341  0.8523 -1.5349  0.6468
 3477TIP3   OH232065   5.320   2.429   1.658 -0.5311 -0.1867 -0.3476
 3477TIP3    H132066   5.286   2.381   1.583 -1.9575  1.0643 -0.5507
 3477TIP3    H232067   5.403   2.467   1.628 -1.0494  0.2383 -1.2695
 3478TIP3   OH232068   1.409   4.574   7.719  0.5363  0.3870 -0.6060
 3478TIP3    H132069   1.336   4.531   7.672  0.6286 -1.5094  0.8330
 3478TIP3    H232070   1.439   4.642   7.660 -0.4446 -0.7812 -2.5525
 3479TIP3   OH232071   1.575   3.431   7.490  0.1692  0.0366  0.5685
 3479TIP3    H132072   1.549   3.391   7.573 -3.1304 -0.5753 -0.6190
 3479TIP3    H232073   1.568   3.526   7.506 -2.2630 -0.0816  0.5970
 3480TIP3   OH232074   6.679   1.000   8.220 -0.5043  0.1180  0.2830
 3480TIP3    H132075   6.695   0.933   8.287 -1.4022 -0.9314 -0.5233
 3480TIP3    H232076   6.590   0.985   8.191  0.2338 -0.2655 -2.0207
 3481TIP3   OH232077   1.573   0.719   0.739  0.5818 -0.0546  0.6274
 3481TIP3    H132078   1.634   0.788   0.712  0.1068  1.8216  3.8250
 3481TIP3    H232079   1.595   0.702   0.830 -2.0998 -1.0310  1.1845
 3482TIP3   OH232080   0.681   2.316   1.125  0.2779 -0.4154 -0.1122
 3482TIP3    H132081   0.590   2.317   1.154  0.2470  0.7212 -0.1898
 3482TIP3    H232082   0.708   2.225   1.132  0.2822 -0.2657  3.4367
 3483TIP3   OH232083   5.387   3.493   0.427 -0.3322 -0.2509  0.0560
 3483TIP3    H132084   5.301   3.499   0.387 -0.5813 -0.2396  0.5866
 3483TIP3    H232085   5.438   3.563   0.385 -0.5116 -0.4047 -0.4188
 3484TIP3   OH232086   0.495   3.779   1.727  0.1500 -0.0637  0.0997
 3484TIP3    H132087   0.532   3.827   1.652 -0.7953 -1.2563 -1.1697
 3484TIP3    H232088   0.572   3.754   1.778  0.8203  0.7868 -0.4420
 3485TIP3   OH232089   2.223   0.867   0.641 -0.4354 -0.4188  0.4511
 3485TIP3    H132090   2.273   0.818   0.576 -2.3813 -1.6206 -0.2227
 3485TIP3    H232091   2.282   0.937   0.669  1.0606 -0.8707 -1.3813
 3486TIP3   OH232092   0.501   5.643   1.511  0.3556  0.6272 -0.9160
 3486TIP3    H132093   0.418   5.601   1.531 -0.0429  1.1579 -1.4209
 3486TIP3    H232094   0.564   5.571   1.505  0.6468  0.4090  2.6984
 3487TIP3   OH232095   1.465   5.180   1.295  0.3934 -0.5625 -0.4045
 3487TIP3    H132096   1.409   5.103   1.304 -0.1489 -0.2929 -1.3255
 3487TIP3    H232097   1.550   5.145   1.271 -0.0337 -0.8506 -1.5494
 3488TIP3   OH232098   6.842   3.877   0.602 -0.2083  0.1061 -0.0262
 3488TIP3    H132099   6.764   3.933   0.600 -1.3926 -1.4743 -0.0683
 3488TIP3    H232100   6.845   3.844   0.692  0.4815  0.2211 -0.0012
 3489TIP3   OH232101   4.609   2.643   2.080  0.1620  0.5302  0.2091
 3489TIP3    H132102   4.606   2.731   2.118  1.5274  0.3165  0.8625
 3489TIP3    H232103   4.696   2.636   2.042  0.7728 -1.1427  1.7458
 3490TIP3   OH232104   4.739   6.422   7.588 -0.1270  0.1341 -0.2628
 3490TIP3    H132105   4.789   6.428   7.507  3.8261  0.1052  1.9102
 3490TIP3    H232106   4.711   6.330   7.592 -1.0368  0.3083 -1.8488
 3491TIP3   OH232107   5.640   3.654   7.933  0.1595  0.1576  0.0684
 3491TIP3    H132108   5.703   3.695   7.992 -0.2762  0.5601  0.2583
 3491TIP3    H232109   5.556   3.665   7.977 -0.2541  0.9575 -0.8879
 3492TIP3   OH232110   4.745   5.823   1.846 -0.0325 -0.0268  0.2866
 3492TIP3    H132111   4.741   5.804   1.753  0.0194  0.1548  0.2466
 3492TIP3    H232112   4.826   5.873   1.857  0.0898 -0.2582  0.4665
 3493TIP3   OH232113   2.476   5.095   6.874  0.4864 -0.1743 -0.1591
 3493TIP3    H132114   2.532   5.020   6.852  0.4743  0.4444 -2.5778
 3493TIP3    H232115   2.390   5.071   6.840  0.2992  0.6040 -0.2323
 3494TIP3   OH232116   2.216   4.012   6.891 -0.9437 -0.2053  0.1774
 3494TIP3    H132117   2.173   3.947   6.946  0.3746 -1.2767 -0.0143
 3494TIP3    H232118   2.241   3.964   6.812  2.2286 -0.1698  1.0140
 3495TIP3   OH232119   3.826   3.901   1.798  0.3907  0.5316  0.6960
 3495TIP3    H132120   3.849   3.809   1.787 -0.8892  0.3918 -1.2775
 3495TIP3    H232121   3.737   3.908   1.766  0.6824  2.5789  0.1805
 3496TIP3   OH232122   2.053   0.596   2.561  0.4559 -0.2005 -1.1962
 3496TIP3    H132123   2.045   0.501   2.571  0.1759 -0.0491  0.2939
 3496TIP3    H232124   2.133   0.618   2.609 -0.7972  0.5799  0.6345
 3497TIP3   OH232125   5.829   0.798   7.236  0.0421 -0.1002 -0.1267
 3497TIP3    H132126   5.843   0.888   7.264  1.6375 -0.3731  0.0817
 3497TIP3    H232127   5.841   0.746   7.316  0.1713 -0.5595 -0.4400
 3498TIP3   OH232128   6.842   2.333   7.779 -0.2524  0.6691  0.1434
 3498TIP3    H132129   6.761   2.324   7.829 -0.3401  1.1746  0.1066
 3498TIP3    H232130   6.839   2.263   7.714  0.7002 -1.1531  1.9366
 3499TIP3   OH232131   6.226   1.326   2.061  0.9355  0.0332 -0.2334
 3499TIP3    H132132   6.154   1.387   2.079  0.9935  0.3269 -0.9486
 3499TIP3    H232133   6.305   1.380   2.071  0.9933  0.0407 -0.7379
 3500TIP3   OH232134   0.571   2.678   0.941 -0.3005  0.3647 -0.1040
 3500TIP3    H132135   0.613   2.670   0.855  0.3239  1.4839  0.0807
 3500TIP3    H232136   0.519   2.759   0.935 -1.8111 -0.5706 -0.0613
 3501TIP3   OH232137   4.488   3.915   2.644  0.2813 -0.0863 -0.2400
 3501TIP3    H132138   4.519   3.827   2.622  3.5887  0.8466  0.0953
 3501TIP3    H232139   4.484   3.916   2.740  1.5627  0.4739 -0.1760
 3502TIP3   OH232140   2.604   6.763   0.811 -0.2222  1.0678  0.5858
 3502TIP3    H132141   2.570   6.741   0.898 -0.0440 -1.9385 -0.0139
 3502TIP3    H232142   2.680   6.707   0.800 -1.7200 -0.5737 -2.4656
 3503TIP3   OH232143   3.886   5.967   8.272  0.3169 -0.7851  0.2260
 3503TIP3    H132144   3.848   6.049   8.304 -0.5100 -0.5593 -1.2483
 3503TIP3    H232145   3.927   5.991   8.189  0.3913 -1.7995 -0.0401
 3504TIP3   OH232146   6.472   0.157   7.911  0.1641 -0.0319  0.2062
 3504TIP3    H132147   6.478   0.156   8.006 -0.9957  2.3980  0.3576
 3504TIP3    H232148   6.557   0.192   7.882  0.3119 -0.2561  0.3651
 3505TIP3   OH232149   6.085   5.693   2.079 -0.3603  0.3781  0.2895
 3505TIP3    H132150   6.087   5.757   2.008 -1.6673  3.2798  2.6362
 3505TIP3    H232151   5.996   5.660   2.080  0.1600 -1.1633 -0.5457
 3506TIP3   OH232152   6.330   4.169   6.959 -0.3962  0.0827 -0.4401
 3506TIP3    H132153   6.319   4.107   6.887  1.0791  0.1376 -0.7489
 3506TIP3    H232154   6.401   4.133   7.012 -0.5677  0.7219  0.2475
 3507TIP3   OH232155   2.999   2.954   8.185  0.3735  0.4167  0.0161
 3507TIP3    H132156   2.982   3.031   8.239  1.1692  0.0513  0.8270
 3507TIP3    H232157   2.973   2.979   8.097 -3.4065  0.2172  0.9069
 3508TIP3   OH232158   6.059   3.177   0.757  0.6350 -0.5194 -0.0887
 3508TIP3    H132159   6.098   3.264   0.769 -0.3298  0.0269 -0.7544
 3508TIP3    H232160   6.016   3.159   0.841  0.6624 -0.2573 -0.0177
 3509TIP3   OH232161   1.361   5.058   7.838  0.3994 -0.1843 -0.2137
 3509TIP3    H132162   1.332   5.047   7.747  1.3261 -0.4292 -0.4883
 3509TIP3    H232163   1.287   5.025   7.890 -0.2172  0.1300 -0.8656
 3510TIP3   OH232164   3.137   1.533   0.037  0.4059 -0.3957  0.1729
 3510TIP3    H132165   3.123   1.624   0.008 -1.7589 -1.4903 -2.7427
 3510TIP3    H232166   3.213   1.504  -0.012 -0.2748 -0.7889 -0.6735
 3511TIP3   OH232167   2.642   0.117   6.841  0.5809  0.5671  0.2900
 3511TIP3    H132168   2.687   0.032   6.838  1.4199  1.0198 -0.7288
 3511TIP3    H232169   2.570   0.109   6.779  0.4756  0.4987  0.4213
 3512TIP3   OH232170   4.788   4.019   0.639  0.0447  0.4290  0.3453
 3512TIP3    H132171   4.782   3.982   0.551  0.6845 -1.7343  1.1391
 3512TIP3    H232172   4.699   4.046   0.660 -0.3643 -0.1970 -0.5070
 3513TIP3   OH232173   1.649   1.694   6.756 -0.0953 -0.6917 -1.0030
 3513TIP3    H132174   1.587   1.628   6.724  0.3149 -1.2099 -0.7459
 3513TIP3    H232175   1.722   1.690   6.694  0.3578 -1.1601 -0.4535
 3514TIP3   OH232176   5.887   6.091   6.640 -0.3383  0.1180  0.1544
 3514TIP3    H132177   5.881   5.996   6.644  1.5871 -0.0192  0.7246
 3514TIP3    H232178   5.800   6.122   6.666 -1.2268 -1.4630 -0.7643
 3515TIP3   OH232179   0.576   3.316   1.926 -0.4766 -0.3802 -0.4550
 3515TIP3    H132180   0.592   3.410   1.939 -5.1335  0.4441  1.1356
 3515TIP3    H232181   0.641   3.273   1.982  0.5602  1.9681  0.2661
 3516TIP3   OH232182   3.093   2.652   7.601 -0.5517  0.4494  0.1226
 3516TIP3    H132183   3.078   2.745   7.586 -0.1944  0.7659  1.6120
 3516TIP3    H232184   3.051   2.634   7.685 -0.3416 -0.6618  0.0032
 3517TIP3   OH232185   5.034   0.446   0.985  0.2361 -0.4153 -0.0291
 3517TIP3    H132186   5.129   0.452   0.975  0.3136 -0.8147  0.4442
 3517TIP3    H232187   5.021   0.427   1.078 -0.3648  0.8982  0.1740
 3518TIP3   OH232188   6.347   6.432   2.329 -0.2271 -0.9354 -0.9486
 3518TIP3    H132189   6.395   6.404   2.407 -0.3040 -1.4814 -1.0940
 3518TIP3    H232190   6.267   6.473   2.364  1.1743  1.7648 -0.6192
 3519TIP3   OH232191   0.844   3.012   1.514  0.2502 -0.4858  0.6773
 3519TIP3    H132192   0.901   2.968   1.576 -0.9090 -0.9264  1.4626
 3519TIP3    H232193   0.794   3.075   1.567  0.6775  0.5793 -0.1493
 3520TIP3   OH232194   3.621   6.195   2.078 -0.7993  0.1035  0.8622
 3520TIP3    H132195   3.652   6.104   2.077  2.2164  1.0161  0.9101
 3520TIP3    H232196   3.591   6.208   2.168 -1.2469 -0.8234  0.8626
 3521TIP3   OH232197   0.561   6.187   7.964  0.0265 -0.3529 -0.2809
 3521TIP3    H132198   0.630   6.122   7.981 -0.0477 -0.3014  0.2610
 3521TIP3    H232199   0.486   6.135   7.935  0.1656 -0.4520 -0.4621
 3522TIP3   OH232200   4.552   1.881   0.523  0.2267 -0.8783  0.2689
 3522TIP3    H132201   4.484   1.825   0.561  0.3789 -1.1536  0.1467
 3522TIP3    H232202   4.586   1.932   0.596 -0.4124 -0.4258  0.2483
 3523TIP3   OH232203   0.659   4.009   0.508 -0.3534 -0.3860  0.2244
 3523TIP3    H132204   0.650   4.016   0.413 -0.8526 -2.2002  0.0950
 3523TIP3    H232205   0.586   3.954   0.535  0.9820 -1.6786  1.3686
 3524TIP3   OH232206   6.444   2.467   1.329 -0.3432 -0.2983 -0.0467
 3524TIP3    H132207   6.392   2.405   1.381  0.6923 -2.2196 -1.1837
 3524TIP3    H232208   6.398   2.470   1.244 -1.6696  2.3217  0.6675
 3525TIP3   OH232209   0.650   6.411   0.757 -0.0687 -0.0475 -0.2012
 3525TIP3    H132210   0.702   6.330   0.753  1.8722  1.1338 -0.1709
 3525TIP3    H232211   0.705   6.477   0.716 -0.8534  1.6551  1.3287
 3526TIP3   OH232212   6.865   3.418   7.614 -0.8206  0.0419  0.2514
 3526TIP3    H132213   6.865   3.339   7.560  0.5670  0.2156 -0.0344
 3526TIP3    H232214   6.954   3.451   7.609 -1.2225  1.2963  0.8767
 3527TIP3   OH232215   2.649   1.144   1.502 -0.0954 -0.6653  0.8689
 3527TIP3    H132216   2.725   1.170   1.554  0.5692  2.1655 -1.3295
 3527TIP3    H232217   2.684   1.086   1.434 -0.0239 -0.0165  0.3466
 3528TIP3   OH232218   0.421   5.721   8.087  0.6006  0.4095  0.4405
 3528TIP3    H132219   0.363   5.741   8.161  0.1826 -1.3103  0.6209
 3528TIP3    H232220   0.509   5.730   8.123  0.4037  0.1038  1.0133
 3529TIP3   OH232221   4.527   4.742   1.865  0.4572 -0.1376  0.0345
 3529TIP3    H132222   4.621   4.752   1.849  0.6452  1.0857  1.5825
 3529TIP3    H232223   4.488   4.737   1.778  1.9795 -1.0994 -0.6424
 3530TIP3   OH232224   6.734   4.834   8.419 -0.7068  0.1450  0.4799
 3530TIP3    H132225   6.680   4.886   8.360 -1.7367 -1.7570 -0.3630
 3530TIP3    H232226   6.672   4.782   8.470  0.2581 -0.7705  0.7680
 3531TIP3   OH232227   3.260   0.616   1.507 -0.0370 -0.3817  0.1399
 3531TIP3    H132228   3.252   0.521   1.507 -0.1656 -0.3819 -0.6300
 3531TIP3    H232229   3.178   0.647   1.468  0.4618 -0.0123 -0.6326
 3532TIP3   OH232230   4.535   4.957   6.812  0.3681 -0.5842 -0.2248
 3532TIP3    H132231   4.508   4.901   6.884  1.5966  0.0755  0.7918
 3532TIP3    H232232   4.612   4.913   6.775  3.0892  1.5980  2.3148
 3533TIP3   OH232233   5.518   1.591   6.609  0.5115  0.1853 -0.1110
 3533TIP3    H132234   5.601   1.624   6.641  0.0077  1.0348  0.3441
 3533TIP3    H232235   5.490   1.655   6.544  0.1254 -0.0077 -0.1373
 3534TIP3   OH232236   6.350   4.124   8.368 -0.5601 -0.6170 -0.2705
 3534TIP3    H132237   6.431   4.173   8.380 -1.6271  0.7017  2.3487
 3534TIP3    H232238   6.330   4.132   8.275  1.4259  0.4532 -0.6535
 3535TIP3   OH232239   6.061   1.782   1.045 -0.0173  0.0557  0.7620
 3535TIP3    H132240   6.044   1.746   0.958 -1.8115  0.9228  0.7017
 3535TIP3    H232241   6.052   1.708   1.104 -0.4122 -0.2349  0.3469
 3536TIP3   OH232242   1.782   0.029   0.074  0.3515  0.5150  0.1348
 3536TIP3    H132243   1.831   0.070   0.146 -0.0665 -0.6912  1.1458
 3536TIP3    H232244   1.699   0.003   0.114  0.0644 -0.0734 -0.8252
 3537TIP3   OH232245   5.650   3.338   0.192  0.3488  0.4994 -0.0218
 3537TIP3    H132246   5.666   3.344   0.287 -1.0331 -0.7928  0.3306
 3537TIP3    H232247   5.734   3.363   0.152  1.6517 -1.0582  1.5852
 3538TIP3   OH232248   2.902   4.704   1.570  0.2356  0.1217 -0.1590
 3538TIP3    H132249   2.870   4.781   1.524  1.6095 -0.3135 -1.9847
 3538TIP3    H232250   2.833   4.638   1.560  0.5251  0.0186 -1.7282
 3539TIP3   OH232251   6.393   4.083   1.067  0.0113  0.5139 -0.3328
 3539TIP3    H132252   6.431   4.169   1.085 -0.2518  0.1929  2.1127
 3539TIP3    H232253   6.326   4.100   1.001 -2.0442  2.7975  2.0660
 3540TIP3   OH232254   2.518   5.288   7.070  0.8648  0.3196 -0.1369
 3540TIP3    H132255   2.502   5.225   7.000 -2.2001 -1.3679  1.8909
 3540TIP3    H232256   2.478   5.370   7.039  0.7992 -0.0072 -0.9249
 3541TIP3   OH232257   2.410   4.614   6.992 -0.6866 -0.2652  0.1490
 3541TIP3    H132258   2.417   4.523   6.961 -0.7217  0.1803 -1.2460
 3541TIP3    H232259   2.316   4.631   6.992 -0.6135  0.7033 -2.6392
 3542TIP3   OH232260   2.904   5.450   7.488 -0.1752  0.6201  0.5228
 3542TIP3    H132261   2.859   5.380   7.441 -1.8120  1.4526  0.7653
 3542TIP3    H232262   2.963   5.406   7.548 -1.8796 -0.5912  1.3669
 3543TIP3   OH232263   6.596   0.731   8.118 -0.4163 -0.6197 -0.1455
 3543TIP3    H132264   6.620   0.779   8.038  2.0598 -1.1362  0.2026
 3543TIP3    H232265   6.593   0.798   8.186  0.0040 -0.5185 -0.2228
 3544TIP3   OH232266   5.114   1.789   8.493  0.1473  0.3487 -0.1209
 3544TIP3    H132267   5.125   1.703   8.533  0.7009  1.2171  1.7403
 3544TIP3    H232268   5.028   1.818   8.521  0.3094  0.7397 -0.0125
 3545TIP3   OH232269   1.484   5.879   1.913 -0.8140 -0.1520 -0.1494
 3545TIP3    H132270   1.410   5.839   1.869 -0.6289  0.9453 -1.5082
 3545TIP3    H232271   1.526   5.806   1.960 -1.7806 -1.0865 -0.6936
 3546TIP3   OH232272   5.411   0.083   0.281 -0.4335 -0.2128  0.1282
 3546TIP3    H132273   5.352   0.064   0.353  1.5053 -0.1148  1.8295
 3546TIP3    H232274   5.433   0.176   0.290 -0.3206 -0.1463 -0.7049
 3547TIP3   OH232275   1.361   6.030   0.818  0.6281 -0.3442  0.1666
 3547TIP3    H132276   1.289   5.993   0.765  1.5093 -1.8613 -0.0315
 3547TIP3    H232277   1.345   5.997   0.906 -0.8937  2.2633  0.9925
 3548TIP3   OH232278   4.404   2.792   3.081 -0.2061 -0.5360  0.1733
 3548TIP3    H132279   4.330   2.740   3.049 -0.3992 -0.1035 -0.0956
 3548TIP3    H232280   4.476   2.730   3.090 -0.3169 -0.7720 -0.5375
 3549TIP3   OH232281   1.993   6.041   7.766 -0.0992 -0.3478 -0.0775
 3549TIP3    H132282   1.928   5.990   7.718 -0.1294 -0.9553  0.5819
 3549TIP3    H232283   1.947   6.121   7.792 -0.6513 -0.8614  0.5518
 3550TIP3   OH232284   5.732   6.380   7.340 -0.1145  0.1483  0.5127
 3550TIP3    H132285   5.758   6.360   7.431  0.8857  0.7369  0.3782
 3550TIP3    H232286   5.780   6.316   7.287  0.9546  1.1163  0.2726
 3551TIP3   OH232287   6.536   6.580   7.211 -0.0345  0.7471  0.8890
 3551TIP3    H132288   6.533   6.659   7.158  0.6652  0.5612  0.5636
 3551TIP3    H232289   6.574   6.513   7.153  1.5808  0.7601  1.8809
 3552TIP3   OH232290   0.776   5.722   7.570 -0.0909  0.1337 -0.0433
 3552TIP3    H132291   0.851   5.779   7.558 -0.7715  0.9345 -0.5757
 3552TIP3    H232292   0.722   5.767   7.636 -0.4953 -0.0336 -0.2560
 3553TIP3   OH232293   6.586   4.655   8.230 -0.2061 -0.0752  0.3309
 3553TIP3    H132294   6.508   4.604   8.252 -1.1883  0.1862 -2.2174
 3553TIP3    H232295   6.569   4.741   8.267 -2.0617  0.5313 -1.7452
 3554TIP3   OH232296   5.133   0.245   7.056  0.4134 -0.2515  0.6585
 3554TIP3    H132297   5.138   0.315   6.991 -0.2476  0.6175  1.5099
 3554TIP3    H232298   5.153   0.288   7.139  0.2545 -1.1281  1.1647
 3555TIP3   OH232299   4.069   6.536   0.744 -0.1912  0.4632  0.2759
 3555TIP3    H132300   4.073   6.467   0.810 -0.1260  1.1619  1.0243
 3555TIP3    H232301   4.009   6.503   0.677 -1.1989  0.2284  1.2635
 3556TIP3   OH232302   6.821   4.324   1.242  0.0993  1.0826 -0.0808
 3556TIP3    H132303   6.812   4.357   1.332  1.0791  0.3623  0.2916
 3556TIP3    H232304   6.866   4.240   1.251 -0.7137  0.5028 -1.1712
 3557TIP3   OH232305   2.069   3.457   0.982 -0.2503 -0.1268  0.0477
 3557TIP3    H132306   2.079   3.505   0.900  0.9629  0.4904  0.5338
 3557TIP3    H232307   2.059   3.366   0.955  1.0541 -0.0589 -0.7785
 3558TIP3   OH232308   0.704   6.940   7.949 -0.1664  0.3839  0.4191
 3558TIP3    H132309   0.800   6.937   7.949 -0.1038  1.6770 -0.3755
 3558TIP3    H232310   0.682   6.988   8.029 -0.1766 -0.2150  0.7819
 3559TIP3   OH232311   0.285   0.463   2.146 -0.2704 -0.3281 -0.2355
 3559TIP3    H132312   0.228   0.510   2.207 -1.1354 -1.2669 -0.2814
 3559TIP3    H232313   0.331   0.399   2.201  0.8715  0.5188 -0.1760
 3560TIP3   OH232314   3.891   5.041   8.485 -0.2506  0.1712  0.3582
 3560TIP3    H132315   3.899   4.995   8.402 -0.8965  2.0357 -0.8096
 3560TIP3    H232316   3.980   5.064   8.510 -0.1114  0.3288 -0.2769
 3561TIP3   OH232317   0.812   6.752   2.294  0.1914  0.2017 -0.0481
 3561TIP3    H132318   0.884   6.693   2.317 -0.2676 -0.2403  0.2513
 3561TIP3    H232319   0.736   6.695   2.284 -0.1143  0.6632 -0.4084
 3562TIP3   OH232320   0.797   1.325   7.637 -0.2481 -0.2448 -0.1784
 3562TIP3    H132321   0.767   1.269   7.708 -1.2300 -1.5971 -1.5832
 3562TIP3    H232322   0.851   1.268   7.582  0.5789  0.7932 -0.4758
 3563TIP3   OH232323   4.633   5.423   7.029  0.1941  0.1542  0.3867
 3563TIP3    H132324   4.632   5.504   6.978  1.9943 -0.0065  0.0411
 3563TIP3    H232325   4.655   5.355   6.966  1.0027 -0.2538  1.0895
 3564TIP3   OH232326   3.633   5.694   8.437 -0.5390 -0.6218  0.2402
 3564TIP3    H132327   3.638   5.787   8.420  0.5005 -0.7853 -0.4139
 3564TIP3    H232328   3.577   5.659   8.368 -0.3130 -0.5793  0.0327
 3565TIP3   OH232329   3.850   1.960   0.159 -0.2141 -0.0449 -0.1359
 3565TIP3    H132330   3.902   1.885   0.131 -0.9260 -0.4140 -0.4962
 3565TIP3    H232331   3.808   1.991   0.079 -2.8686 -1.5785  0.5662
 3566TIP3   OH232332   2.104   6.761   0.924  0.1855 -0.1799 -0.3660
 3566TIP3    H132333   2.035   6.819   0.892  0.3054  0.3943  0.3778
 3566TIP3    H232334   2.057   6.693   0.973 -0.0781 -1.6035 -2.4456
 3567TIP3   OH232335   3.150   0.140   7.392  0.4059  0.3139  0.3092
 3567TIP3    H132336   3.184   0.155   7.303  0.3749 -1.5379 -0.0682
 3567TIP3    H232337   3.228   0.122   7.444  0.2331 -2.0617 -0.1465
 3568TIP3   OH232338   1.682   1.482   8.465 -0.0435  0.1303  0.1093
 3568TIP3    H132339   1.658   1.428   8.540 -0.6748  1.1123  0.6346
 3568TIP3    H232340   1.777   1.475   8.460  0.1427  1.0293  1.7732
 3569TIP3   OH232341   4.177   5.886   2.179  0.0653  0.0525 -0.3264
 3569TIP3    H132342   4.191   5.926   2.265 -0.7319  1.6048 -0.8924
 3569TIP3    H232343   4.240   5.814   2.177 -0.2154 -0.3123  1.7285
 3570TIP3   OH232344   3.284   4.527   1.281 -0.0325 -0.7029  0.0599
 3570TIP3    H132345   3.230   4.454   1.251  0.6630 -1.5276  0.7652
 3570TIP3    H232346   3.250   4.548   1.367 -0.2668 -0.1390 -0.1626
 3571TIP3   OH232347   3.007   5.492   0.249  0.1099 -0.3182 -0.2768
 3571TIP3    H132348   3.051   5.512   0.166 -0.5649 -0.5352 -0.6966
 3571TIP3    H232349   3.051   5.413   0.281  0.0933 -0.4789 -0.6414
 3572TIP3   OH232350   0.624   6.428   0.037  0.5443  0.1488  0.0160
 3572TIP3    H132351   0.717   6.407   0.035  0.2866 -1.0261 -1.3924
 3572TIP3    H232352   0.596   6.423  -0.054 -1.2896 -1.4842  0.6014
 3573TIP3   OH232353   4.577   6.344   1.602 -0.0770 -0.2721  0.0735
 3573TIP3    H132354   4.646   6.324   1.664  0.6108 -0.5724 -0.7629
 3573TIP3    H232355   4.537   6.424   1.635  1.0912  0.2646  0.2377
 3574TIP3   OH232356   0.556   1.230   7.475 -0.2976  0.8439 -0.4437
 3574TIP3    H132357   0.517   1.260   7.558 -0.3752  0.5568 -0.3768
 3574TIP3    H232358   0.633   1.180   7.501 -1.1776 -0.5669 -0.4647
 3575TIP3   OH232359   0.096   5.243   7.519  0.3591  0.7708  0.4563
 3575TIP3    H132360   0.040   5.269   7.446 -1.1452 -2.2293  0.4150
 3575TIP3    H232361   0.035   5.212   7.586  1.8720 -0.2159  1.4326
 3576TIP3   OH232362   3.468   6.461   1.505  0.4564 -0.1700  0.5195
 3576TIP3    H132363   3.549   6.414   1.525  0.3000 -0.8004 -0.2728
 3576TIP3    H232364   3.406   6.393   1.479 -0.7956  0.1389  2.4926
 3577TIP3   OH232365   0.854   6.033   8.224 -0.0075 -0.1628  0.3038
 3577TIP3    H132366   0.911   5.982   8.281  1.0717  1.2730  0.5846
 3577TIP3    H232367   0.862   5.992   8.138  0.1784 -0.9476  0.6887
 3578TIP3   OH232368   0.777   2.194   6.761 -0.2227 -0.9757  0.4605
 3578TIP3    H132369   0.793   2.270   6.704 -0.3518 -1.0087  0.3810
 3578TIP3    H232370   0.861   2.148   6.762 -0.5668 -1.6815 -0.7481
 3579TIP3   OH232371   6.680   4.178   0.304 -0.1723  0.5316  0.1579
 3579TIP3    H132372   6.601   4.201   0.255 -0.0421  2.6173  0.8483
 3579TIP3    H232373   6.747   4.167   0.237 -0.9683 -1.1172 -0.4256
 3580TIP3   OH232374   6.804   0.360   1.343  0.6804 -0.1490  0.2192
 3580TIP3    H132375   6.712   0.336   1.334  0.2893  1.1128  0.6586
 3580TIP3    H232376   6.844   0.333   1.260 -0.2301 -0.0801 -0.2575
 3581TIP3   OH232377   1.960   2.251   8.416  0.0269 -0.4041  0.2780
 3581TIP3    H132378   2.038   2.269   8.469  0.7398  1.2059 -1.2281
 3581TIP3    H232379   1.918   2.336   8.405 -0.9802 -0.9674 -0.4023
 3582TIP3   OH232380   5.767   6.629   7.208  0.9610 -0.0025  0.0352
 3582TIP3    H132381   5.798   6.601   7.122 -0.8594 -0.1509 -0.6042
 3582TIP3    H232382   5.747   6.547   7.254 -0.5814  0.1064 -0.3896
 3583TIP3   OH232383   5.598   5.450   1.325 -0.0339 -0.1339  0.0503
 3583TIP3    H132384   5.609   5.356   1.341  1.2910  0.0723  0.4303
 3583TIP3    H232385   5.518   5.473   1.372 -1.8804 -1.5647 -2.1855
 3584TIP3   OH232386   5.253   6.736   7.243 -0.4647 -0.2178  0.6945
 3584TIP3    H132387   5.348   6.752   7.238 -0.7735  1.7679  0.1610
 3584TIP3    H232388   5.226   6.729   7.151 -1.0427  0.7523  0.7815
 3585TIP3   OH232389   3.259   5.756   0.111  0.0008  0.2827 -0.0200
 3585TIP3    H132390   3.218   5.677   0.075 -0.9687  0.4979  0.5674
 3585TIP3    H232391   3.296   5.800   0.034 -1.2767  0.3008 -0.6557
 3586TIP3   OH232392   0.134   3.672   2.834 -0.2087  0.0447  0.0576
 3586TIP3    H132393   0.226   3.678   2.860 -0.0691 -0.0301 -0.4091
 3586TIP3    H232394   0.135   3.624   2.751 -0.5254  1.4082 -0.7553
 3587TIP3   OH232395   6.662   2.773   1.483 -0.1639  0.1929 -0.0995
 3587TIP3    H132396   6.757   2.777   1.477 -0.1551 -0.7215 -0.7738
 3587TIP3    H232397   6.635   2.864   1.500  0.6571  0.9702 -2.5209
 3588TIP3   OH232398   2.607   5.691   1.791  0.2229 -0.2657  0.2886
 3588TIP3    H132399   2.545   5.744   1.741 -0.2799  0.1922  1.3470
 3588TIP3    H232400   2.553   5.625   1.835  0.5100 -0.0816  0.9420
 3589TIP3   OH232401   1.470   1.602   1.315 -0.0545 -0.3247 -0.0606
 3589TIP3    H132402   1.384   1.562   1.299 -0.5446  0.5151  0.4120
 3589TIP3    H232403   1.453   1.671   1.379  1.2176 -1.1222  1.2009
 3590TIP3   OH232404   3.156   5.491   7.299 -0.6711  0.2136  0.1439
 3590TIP3    H132405   3.225   5.557   7.288 -1.0844  0.7712  0.8709
 3590TIP3    H232406   3.197   5.422   7.350 -0.4603  0.2557  0.0336
 3591TIP3   OH232407   2.410   6.027   1.768 -0.0185 -0.1429 -0.4455
 3591TIP3    H132408   2.475   6.097   1.773 -0.0430 -0.0390 -1.4673
 3591TIP3    H232409   2.389   6.008   1.860  0.4653  0.7296 -0.1392
 3592TIP3   OH232410   6.362   3.459   1.697  0.3718 -0.6888  0.5186
 3592TIP3    H132411   6.451   3.490   1.681  0.2806 -1.2045 -1.2732
 3592TIP3    H232412   6.306   3.520   1.647 -0.1087 -1.4313  0.1279
 3593TIP3   OH232413   2.576   0.858   7.373  0.4785  0.3063 -0.0239
 3593TIP3    H132414   2.605   0.873   7.283  0.5834  0.3623  0.0198
 3593TIP3    H232415   2.481   0.849   7.367  0.3906  1.2179 -0.0149
 3594TIP3   OH232416   4.451   1.245   1.163 -0.6439 -0.2429 -0.5950
 3594TIP3    H132417   4.508   1.312   1.202 -0.1007 -0.4529 -1.0167
 3594TIP3    H232418   4.449   1.175   1.228 -0.2283 -0.3337 -0.6774
 3595TIP3   OH232419   0.565   1.291   2.301 -0.0780 -0.2023  0.5737
 3595TIP3    H132420   0.512   1.359   2.259  1.7276  1.3862  0.6999
 3595TIP3    H232421   0.608   1.337   2.373  0.8828 -1.6062  0.9171
 3596TIP3   OH232422   4.057   1.848   1.835 -0.2305  0.0910 -0.5212
 3596TIP3    H132423   4.116   1.866   1.761 -1.8166 -2.2026 -2.4956
 3596TIP3    H232424   4.107   1.790   1.892  0.4414  0.5794 -0.5984
 3597TIP3   OH232425   4.082   1.291   2.637  0.4248  0.1418  0.5045
 3597TIP3    H132426   4.057   1.301   2.545  0.3476  0.5069  0.5643
 3597TIP3    H232427   4.164   1.243   2.635  0.2642 -0.1235  0.2569
 3598TIP3   OH232428   2.756   1.131   7.534  0.0384 -0.0993  0.1020
 3598TIP3    H132429   2.788   1.213   7.497 -0.6810  0.1507  0.0200
 3598TIP3    H232430   2.785   1.064   7.473  2.1181 -0.1225  1.0346
 3599TIP3   OH232431   3.885   0.727   0.242 -0.0253 -0.1573 -0.3371
 3599TIP3    H132432   3.825   0.802   0.239 -0.6494 -0.6729 -1.4240
 3599TIP3    H232433   3.865   0.678   0.163  2.2082 -0.0872 -0.9890
 3600TIP3   OH232434   3.576   3.845   7.629 -0.0648  0.0233 -0.4292
 3600TIP3    H132435   3.628   3.912   7.586  0.3901  0.2021  0.4020
 3600TIP3    H232436   3.578   3.770   7.568  0.5783  0.2691 -0.7092
 3601TIP3   OH232437   5.629   2.707   2.484  1.2584 -0.1315  0.2624
 3601TIP3    H132438   5.566   2.635   2.476 -0.7645  1.4880  0.6481
 3601TIP3    H232439   5.683   2.683   2.558  1.7651 -2.0203 -0.6439
 3602TIP3   OH232440   1.262   6.870   1.160  0.1761 -0.1791  0.3916
 3602TIP3    H132441   1.304   6.857   1.245 -1.4086  1.4349  1.4769
 3602TIP3    H232442   1.237   6.782   1.132  1.8338 -0.8738  0.9730
 3603TIP3   OH232443   3.603   3.752   0.556 -0.0142  0.2273 -0.2721
 3603TIP3    H132444   3.631   3.825   0.611 -2.3611 -0.3766  1.9438
 3603TIP3    H232445   3.635   3.674   0.601 -0.2683 -0.2219 -0.8475
 3604TIP3   OH232446   3.048   1.901   8.263 -0.0216 -0.3697 -0.1702
 3604TIP3    H132447   2.961   1.868   8.240 -0.9324  0.7616  1.4308
 3604TIP3    H232448   3.098   1.896   8.181 -2.3467  1.2246 -1.8253
 3605TIP3   OH232449   1.662   4.004   2.971  0.5073 -0.2972 -0.2522
 3605TIP3    H132450   1.656   4.086   2.921  1.6416 -1.3587 -2.2648
 3605TIP3    H232451   1.580   4.001   3.021  0.5806  2.1884  0.1686
 3606TIP3   OH232452   4.773   2.335   0.736 -0.0317  0.1770 -0.6306
 3606TIP3    H132453   4.701   2.318   0.676  0.4283  0.2377 -1.1987
 3606TIP3    H232454   4.821   2.408   0.697 -0.5978  1.2177  0.5642
 3607TIP3   OH232455   6.303   3.434   7.080 -0.1391 -0.5644  0.1691
 3607TIP3    H132456   6.354   3.353   7.070  0.3206 -0.1701 -0.9138
 3607TIP3    H232457   6.214   3.410   7.053 -0.0691 -0.7823  0.1292
 3608TIP3   OH232458   3.924   6.772   1.533 -0.1589  0.2203 -0.4940
 3608TIP3    H132459   3.892   6.741   1.617 -1.3772 -1.7536 -1.5991
 3608TIP3    H232460   3.851   6.820   1.495  0.5619  1.5583 -0.2478
 3609TIP3   OH232461   1.198   1.992   6.922  0.5994  0.0373 -0.2228
 3609TIP3    H132462   1.283   1.981   6.880  1.8009  3.2503  1.0498
 3609TIP3    H232463   1.191   2.086   6.938 -2.5209 -0.3028  1.1558
 3610TIP3   OH232464   0.472   2.377   7.589 -0.2364  0.1744 -0.3270
 3610TIP3    H132465   0.541   2.316   7.616  0.3298  1.7974  2.2256
 3610TIP3    H232466   0.399   2.356   7.647 -0.3718  1.2418 -0.0974
 3611TIP3   OH232467   0.402   0.265   7.245  0.0789 -0.1062 -0.3473
 3611TIP3    H132468   0.407   0.230   7.333 -0.1930 -1.8731 -0.9965
 3611TIP3    H232469   0.314   0.244   7.215  0.9054 -1.7585 -1.8669
 3612TIP3   OH232470   0.024   4.388   0.372  0.5333  0.0424 -1.1382
 3612TIP3    H132471   0.082   4.464   0.378 -1.3389  1.5832 -1.5517
 3612TIP3    H232472   0.007   4.378   0.279  1.1083 -1.1822 -1.1234
 3613TIP3   OH232473   1.761   2.294   1.620 -0.0675  0.3177  0.2275
 3613TIP3    H132474   1.715   2.273   1.701 -0.5479  0.8823  0.1064
 3613TIP3    H232475   1.742   2.386   1.604 -0.6149  0.0210 -0.9328
 3614TIP3   OH232476   0.469   5.811   8.488  0.4055  0.1862  0.1536
 3614TIP3    H132477   0.557   5.799   8.453  0.3134 -1.7882  0.5101
 3614TIP3    H232478   0.416   5.743   8.447 -0.8977  1.1247  0.2024
 3615TIP3   OH232479   3.288   0.422   2.306 -0.7614 -0.5205 -0.1378
 3615TIP3    H132480   3.282   0.465   2.391  3.1805  1.1586 -0.5340
 3615TIP3    H232481   3.287   0.328   2.327 -2.0178 -0.1937  1.4792
 3616TIP3   OH232482   6.945   4.649   7.938 -0.1374 -0.6547 -0.0627
 3616TIP3    H132483   6.855   4.625   7.960 -1.4052  1.7134 -2.1102
 3616TIP3    H232484   6.949   4.643   7.843  1.4405  0.5915 -0.1232
 3617TIP3   OH232485   2.558   3.829   1.912 -0.2251  0.6852  0.0471
 3617TIP3    H132486   2.469   3.860   1.901 -0.7921 -1.5845 -3.2739
 3617TIP3    H232487   2.548   3.737   1.939  1.1699  0.7761  0.9821
 3618TIP3   OH232488   6.402   2.060   1.229 -0.0097 -0.0419  0.2534
 3618TIP3    H132489   6.490   2.099   1.230  0.1141 -0.3113  0.1587
 3618TIP3    H232490   6.398   2.014   1.145 -0.7197  1.0378 -0.3359
 3619TIP3   OH232491   1.782   1.327   1.905  0.1399 -0.6057 -0.3649
 3619TIP3    H132492   1.868   1.351   1.872  0.1231  1.3038  0.8070
 3619TIP3    H232493   1.780   1.232   1.900  1.8715 -0.6360 -1.4512
 3620TIP3   OH232494   1.610   5.970   2.262 -0.8630 -0.0907  0.6666
 3620TIP3    H132495   1.599   5.875   2.270  1.7376 -0.6923 -1.3491
 3620TIP3    H232496   1.704   5.984   2.277 -1.5034  2.5287  3.1685
 3621TIP3   OH232497   3.630   0.594   0.849 -0.2259 -0.7029  0.3445
 3621TIP3    H132498   3.552   0.613   0.798  0.0446  0.2184  0.2487
 3621TIP3    H232499   3.689   0.549   0.789 -0.3695 -0.6705  0.1816
 3622TIP3   OH232500   4.776   3.787   1.671  0.0430  0.3463 -0.7953
 3622TIP3    H132501   4.741   3.875   1.680  1.4514  0.9901 -1.3780
 3622TIP3    H232502   4.871   3.798   1.665  0.4392 -1.3635  1.0575
 3623TIP3   OH232503   4.021   5.003   1.674  0.2372 -0.0166  0.3211
 3623TIP3    H132504   4.040   5.041   1.760  0.4636  0.1922  0.1777
 3623TIP3    H232505   3.944   5.051   1.643 -0.1235 -0.3967  0.5993
 3624TIP3   OH232506   6.475   1.833   0.540  0.1298 -0.4845  0.0836
 3624TIP3    H132507   6.548   1.878   0.498 -0.5217  0.3481 -0.1885
 3624TIP3    H232508   6.509   1.747   0.561  1.4417  0.1656  0.7117
 3625TIP3   OH232509   1.158   1.397   0.561  0.8223  0.1104 -0.1716
 3625TIP3    H132510   1.185   1.352   0.481 -0.1801  1.8341 -1.5467
 3625TIP3    H232511   1.063   1.389   0.563  0.9265 -1.6812  2.0252
 3626TIP3   OH232512   5.563   1.927   2.207 -0.3047 -0.2986 -0.4836
 3626TIP3    H132513   5.537   1.921   2.115 -0.5653  1.2225 -0.5419
 3626TIP3    H232514   5.525   2.009   2.237 -1.5919 -1.5339  1.4571
 3627TIP3   OH232515   5.528   1.088   8.219 -0.4704 -0.2697 -0.0085
 3627TIP3    H132516   5.474   1.164   8.194  0.9519  0.4776 -0.9298
 3627TIP3    H232517   5.464   1.022   8.246 -1.9167  0.2839 -1.8422
 3628TIP3   OH232518   5.391   4.647   8.494  0.2248 -0.1816 -0.2183
 3628TIP3    H132519   5.302   4.679   8.477  0.1512 -1.2551 -2.1808
 3628TIP3    H232520   5.446   4.724   8.483 -0.2345 -0.0360 -1.7915
 3629TIP3   OH232521   1.572   4.162   0.034  0.2753  0.2839 -0.3413
 3629TIP3    H132522   1.658   4.122   0.051 -0.0324 -0.5047 -0.6200
 3629TIP3    H232523   1.557   4.219   0.109  0.4180 -0.6429  0.4023
 3630TIP3   OH232524   0.192   5.831   7.256  0.1087 -0.0853  0.8909
 3630TIP3    H132525   0.236   5.746   7.253  1.3503  0.5579 -0.0409
 3630TIP3    H232526   0.200   5.864   7.167 -0.4156  0.9819  1.2368
 3631TIP3   OH232527   6.773   5.458   1.527  0.6162 -0.4562  0.3264
 3631TIP3    H132528   6.867   5.472   1.540  1.2116 -2.9229 -0.7710
 3631TIP3    H232529   6.735   5.463   1.615  1.9461 -0.4868  0.9205
 3632TIP3   OH232530   4.248   1.967   1.639  0.6622  0.0086  0.1330
 3632TIP3    H132531   4.274   1.982   1.548 -2.2437  0.2272 -0.7784
 3632TIP3    H232532   4.248   2.055   1.678 -0.1457  0.2102 -0.3024
 3633TIP3   OH232533   4.248   6.337   1.604  0.0585  0.0035  0.5593
 3633TIP3    H132534   4.336   6.308   1.628  0.3096  1.0625  0.9531
 3633TIP3    H232535   4.262   6.420   1.557 -0.8478  1.5450  2.8308
 3634TIP3   OH232536   2.668   6.638   1.309  0.3311 -0.2842  0.1412
 3634TIP3    H132537   2.591   6.628   1.365 -1.1240  3.2087 -0.9619
 3634TIP3    H232538   2.735   6.674   1.367 -0.2216  0.5114  0.3106
 3635TIP3   OH232539   6.080   0.890   2.286 -0.1926  0.1999 -0.3192
 3635TIP3    H132540   6.002   0.916   2.237 -1.5141  1.0572  2.0391
 3635TIP3    H232541   6.068   0.797   2.303 -0.4623  0.2256 -0.3697
 3636TIP3   OH232542   1.382   6.292   8.059  0.3697 -0.3726 -0.4346
 3636TIP3    H132543   1.363   6.385   8.073  0.4614 -0.4097 -0.0563
 3636TIP3    H232544   1.305   6.259   8.013  0.6085  0.0298 -1.1465
 3637TIP3   OH232545   3.920   0.125   7.086  0.7142  0.3711 -0.1237
 3637TIP3    H132546   3.919   0.050   7.026 -0.1384  0.8395 -0.7104
 3637TIP3    H232547   3.863   0.189   7.045  0.3242  0.8064  1.0722
 3638TIP3   OH232548   2.125   5.800   0.766  0.3632  0.4304 -0.1002
 3638TIP3    H132549   2.082   5.722   0.732 -1.0940  1.2013 -0.1110
 3638TIP3    H232550   2.089   5.872   0.715  0.6324  1.2595  0.8352
 3639TIP3   OH232551   1.955   1.243   0.672  0.2421  0.3312  0.4352
 3639TIP3    H132552   1.899   1.244   0.594 -0.8254  1.9232  1.1788
 3639TIP3    H232553   1.894   1.253   0.745  0.7894 -4.3104  1.8685
 3640TIP3   OH232554   1.107   3.957   1.262  0.1096  0.0424 -0.2776
 3640TIP3    H132555   1.181   3.915   1.217 -0.3412  0.2104 -1.1980
 3640TIP3    H232556   1.147   4.016   1.325  0.7623 -0.3405 -0.3301
 3641TIP3   OH232557   6.085   0.667   0.085 -0.2665 -0.1738 -0.2618
 3641TIP3    H132558   6.068   0.673   0.179 -1.0837  0.1751 -0.4240
 3641TIP3    H232559   5.999   0.658   0.045 -0.0258  0.7817 -1.0532
 3642TIP3   OH232560   6.828   6.854   0.260 -0.6070  0.0980 -0.2188
 3642TIP3    H132561   6.753   6.913   0.260  0.3640  1.3727 -0.4991
 3642TIP3    H232562   6.868   6.865   0.173  0.6020  0.3807  0.3476
 3643TIP3   OH232563   2.628   5.646   6.780  0.2172 -0.0966 -0.7540
 3643TIP3    H132564   2.655   5.681   6.695  1.7038  0.2183 -0.1820
 3643TIP3    H232565   2.596   5.722   6.828  0.9142  0.0264 -0.4693
 3644TIP3   OH232566   6.581   0.726   6.661  0.2662 -0.2675  0.4040
 3644TIP3    H132567   6.487   0.730   6.681  0.2588 -0.0857  0.3413
 3644TIP3    H232568   6.599   0.810   6.618 -0.1763 -1.5114 -2.3992
 3645TIP3   OH232569   6.238   0.035   7.851  0.2521 -0.0751 -0.1983
 3645TIP3    H132570   6.327   0.071   7.852 -0.2064  1.2795 -1.9557
 3645TIP3    H232571   6.240  -0.030   7.781  0.3446 -1.5154  1.1059
 3646TIP3   OH232572   4.228   6.159   7.842  0.8607 -0.3852  0.0717
 3646TIP3    H132573   4.291   6.204   7.899  0.5650  0.7225 -0.4402
 3646TIP3    H232574   4.143   6.196   7.867  0.7180  0.0692 -1.0284
 3647TIP3   OH232575   4.766   6.416   0.491  0.2953  0.4569  0.0779
 3647TIP3    H132576   4.678   6.410   0.529 -0.3455  1.0590 -1.2308
 3647TIP3    H232577   4.804   6.330   0.504  0.5827  0.9149  3.0823
 3648TIP3   OH232578   5.105   5.284   0.756  0.4630  0.0045 -0.1217
 3648TIP3    H132579   5.139   5.323   0.675  0.2484  0.5638  0.0547
 3648TIP3    H232580   5.180   5.283   0.815  0.4649  0.1798 -0.1191
 3649TIP3   OH232581   1.671   1.547   2.008 -0.1188  0.4362 -0.5853
 3649TIP3    H132582   1.718   1.466   1.989 -1.5369 -0.1512 -1.7312
 3649TIP3    H232583   1.691   1.604   1.934  0.6038  1.0562  0.0556
 3650TIP3   OH232584   4.881   4.757   8.514 -0.3690 -0.4116 -0.2955
 3650TIP3    H132585   4.930   4.714   8.445  1.1502  0.2110  0.3518
 3650TIP3    H232586   4.917   4.846   8.518  0.8447 -0.9328  2.4204
 3651TIP3   OH232587   1.551   2.057   1.531  0.0825  0.3451  0.6769
 3651TIP3    H132588   1.582   1.966   1.531 -1.4141 -0.2508 -1.5839
 3651TIP3    H232589   1.463   2.052   1.567 -0.2512  0.7864 -0.0568
 3652TIP3   OH232590   2.069   3.875   7.772 -0.3244  0.3740  0.3590
 3652TIP3    H132591   2.043   3.914   7.856  0.9181  1.4294  0.2895
 3652TIP3    H232592   2.145   3.927   7.745  0.5918 -1.3074 -0.3890
 3653TIP3   OH232593   2.592   4.885   6.760  0.6658 -0.4245 -0.1710
 3653TIP3    H132594   2.570   4.869   6.669 -2.3488  0.9087  0.2300
 3653TIP3    H232595   2.520   4.848   6.810  1.9346 -0.5634  1.6863
 3654TIP3   OH232596   5.668   6.054   7.519 -0.2644 -0.2934  0.0048
 3654TIP3    H132597   5.763   6.044   7.509 -0.5722 -1.5061 -2.3181
 3654TIP3    H232598   5.656   6.076   7.611  2.3007  0.3757  0.2468
 3655TIP3   OH232599   5.362   6.778   1.849  0.4453 -0.4437  0.0349
 3655TIP3    H132600   5.349   6.708   1.913 -1.1589 -0.5132 -0.3434
 3655TIP3    H232601   5.319   6.748   1.770 -1.1162  1.3236  0.1355
 3656TIP3   OH232602   0.315   1.501   0.712 -0.2213 -0.0927 -0.0865
 3656TIP3    H132603   0.276   1.455   0.638 -0.3991 -0.5744  0.3021
 3656TIP3    H232604   0.261   1.476   0.787 -1.0370  1.6369 -0.0448
 3657TIP3   OH232605   5.198   6.120   7.943 -0.0238 -0.2276 -0.3721
 3657TIP3    H132606   5.224   6.030   7.962  1.5494  0.4012  0.6623
 3657TIP3    H232607   5.105   6.114   7.920 -0.4256 -1.8913  1.4290
 3658TIP3   OH232608   4.704   5.287   2.154  0.0787  0.0845 -0.2896
 3658TIP3    H132609   4.695   5.374   2.192 -0.3437 -0.3142  0.5605
 3658TIP3    H232610   4.624   5.241   2.179 -1.0015  0.2698 -3.0740
 3659TIP3   OH232611   3.062   6.779   1.067  0.5783 -0.2630  0.1431
 3659TIP3    H132612   3.033   6.708   1.124 -0.2641 -0.3780 -0.4207
 3659TIP3    H232613   3.157   6.766   1.060  0.2246 -2.5369 -1.5310
 3660TIP3   OH232614   3.168   3.153   2.409  0.1961  0.2775  0.1770
 3660TIP3    H132615   3.184   3.201   2.490  1.2127 -0.0680  0.2031
 3660TIP3    H232616   3.243   3.176   2.353 -0.7533  0.9269 -0.8731
 3661TIP3   OH232617   3.243   3.967   0.854  0.0289 -0.1841  0.2376
 3661TIP3    H132618   3.312   4.034   0.857 -0.6186  0.5312 -0.2906
 3661TIP3    H232619   3.165   4.011   0.888 -0.5152 -0.5137 -0.5351
 3662TIP3   OH232620   4.028   3.348   7.619  0.4581  0.7659 -0.4145
 3662TIP3    H132621   4.119   3.361   7.594  0.4176  0.9955 -0.4504
 3662TIP3    H232622   3.984   3.325   7.538  0.1794  2.2809 -0.7309
 3663TIP3   OH232623   0.761   3.628   0.691 -0.1525 -0.2736 -0.4215
 3663TIP3    H132624   0.705   3.627   0.613 -0.8413 -0.9524  0.0842
 3663TIP3    H232625   0.850   3.637   0.655 -0.4174 -1.0950 -1.3136
 3664TIP3   OH232626   1.331   5.530   6.466 -0.1261  0.4952 -0.4848
 3664TIP3    H132627   1.249   5.531   6.517 -1.3450 -0.8798 -2.2944
 3664TIP3    H232628   1.363   5.440   6.474  1.3837  1.0877  0.4083
 3665TIP3   OH232629   1.553   1.305   1.536  0.4349  0.5572  0.1734
 3665TIP3    H132630   1.579   1.235   1.477  1.3016  0.3057  0.8398
 3665TIP3    H232631   1.463   1.324   1.511 -0.1797 -1.4945  0.6560
 3666TIP3   OH232632   6.123   1.187   1.682 -0.0149 -0.0920 -0.1583
 3666TIP3    H132633   6.101   1.133   1.757  1.5904  0.3744  0.6862
 3666TIP3    H232634   6.080   1.271   1.699  2.0549  0.7401  1.3697
 3667TIP3   OH232635   1.842   0.466   7.815 -0.7220 -0.0763  0.0650
 3667TIP3    H132636   1.881   0.407   7.750 -1.1116 -0.2326 -0.0336
 3667TIP3    H232637   1.748   0.461   7.797 -0.8161  0.0288  0.5183
 3668TIP3   OH232638   3.769   2.353   1.484 -0.0997 -0.0695  0.6428
 3668TIP3    H132639   3.844   2.319   1.532  0.1184  0.5399  0.7354
 3668TIP3    H232640   3.713   2.276   1.470 -0.6314 -0.1080  2.7051
 3669TIP3   OH232641   1.768   4.210   7.288 -0.3976  0.0292  0.2196
 3669TIP3    H132642   1.730   4.244   7.207  1.2676 -0.7044 -0.9258
 3669TIP3    H232643   1.854   4.252   7.293 -0.5819  0.2642  1.7696
 3670TIP3   OH232644   1.267   0.264   0.675 -0.7782 -0.2867  0.0784
 3670TIP3    H132645   1.342   0.210   0.701  1.7714  3.3367  0.9889
 3670TIP3    H232646   1.260   0.250   0.580  1.6915 -0.0881 -0.2129
 3671TIP3   OH232647   2.761   4.799   7.852  0.4507  0.1552  0.7020
 3671TIP3    H132648   2.789   4.720   7.899  1.0130  0.2861  0.5869
 3671TIP3    H232649   2.695   4.838   7.910 -2.8076 -2.4250 -0.8984
 3672TIP3   OH232650   4.133   5.520   1.354 -0.8387 -0.3941 -0.3677
 3672TIP3    H132651   4.110   5.563   1.272 -0.0498 -0.7855 -0.8034
 3672TIP3    H232652   4.189   5.583   1.399 -2.0143  0.2089  0.3143
 3673TIP3   OH232653   5.531   1.108   7.669 -0.1696 -0.0959 -0.1067
 3673TIP3    H132654   5.529   1.083   7.762  0.9429 -0.4863 -0.1751
 3673TIP3    H232655   5.444   1.145   7.652 -0.4129 -0.0939  1.0700
 3674TIP3   OH232656   2.502   5.226   2.464 -0.3272  0.5046  0.5878
 3674TIP3    H132657   2.528   5.134   2.466 -2.3752 -0.1139  0.9281
 3674TIP3    H232658   2.573   5.272   2.510 -0.3880 -1.2020  2.5284
 3675TIP3   OH232659   0.917   0.645   2.350 -0.4465 -0.2656  0.4192
 3675TIP3    H132660   0.977   0.665   2.422 -0.2231 -0.7434  0.3730
 3675TIP3    H232661   0.915   0.724   2.297  2.3092 -1.0906 -1.1173
 3676TIP3   OH232662   6.896   5.972   7.520  0.0046 -0.5487 -0.2827
 3676TIP3    H132663   6.945   6.003   7.595  0.9632  0.4938 -1.2976
 3676TIP3    H232664   6.926   6.027   7.447 -1.2100 -1.2236 -1.3386
 3677TIP3   OH232665   1.515   1.912   0.409  0.4712 -0.7197  0.3906
 3677TIP3    H132666   1.520   1.995   0.455 -0.0287 -1.7184  2.3259
 3677TIP3    H232667   1.596   1.908   0.357  0.3762  1.0519  0.0650
 3678TIP3   OH232668   2.746   5.316   2.560 -0.5282 -0.3523  0.4596
 3678TIP3    H132669   2.756   5.229   2.599 -1.6782 -0.4468  0.5697
 3678TIP3    H232670   2.698   5.366   2.626 -2.2900 -0.4435 -0.6913
 3679TIP3   OH232671   6.424   5.879   7.384  0.2550  0.0860 -0.5973
 3679TIP3    H132672   6.387   5.887   7.296  2.1650 -0.0416 -1.4689
 3679TIP3    H232673   6.503   5.933   7.382  0.5961 -0.3077  0.8822
 3680TIP3   OH232674   6.320   6.125   0.669 -0.4360 -0.0450  0.2303
 3680TIP3    H132675   6.235   6.084   0.654 -0.4453  0.4699 -1.2414
 3680TIP3    H232676   6.323   6.198   0.608  1.3349 -0.4414 -0.2284
 3681TIP3   OH232677   5.558   3.497   1.917  0.0365  0.0332 -0.5582
 3681TIP3    H132678   5.529   3.472   2.005 -0.1457 -0.3598 -0.7264
 3681TIP3    H232679   5.632   3.555   1.932  0.7958 -1.0052 -0.1509
 3682TIP3   OH232680   0.177   0.823   7.023 -0.5406  0.0488 -0.2934
 3682TIP3    H132681   0.243   0.818   6.954  0.4280 -0.5110  0.6474
 3682TIP3    H232682   0.182   0.738   7.067 -1.2821  0.3278  0.3602
 3683TIP3   OH232683   4.352   6.111   1.361  0.8890  0.1082  0.5508
 3683TIP3    H132684   4.403   6.191   1.351  1.4604  0.4666  4.4538
 3683TIP3    H232685   4.377   6.078   1.447 -1.4221 -2.7568  0.2751
 3684TIP3   OH232686   4.356   2.064   1.112 -0.5727 -0.2141  0.6477
 3684TIP3    H132687   4.342   2.156   1.134  0.2834 -0.0692  0.6513
 3684TIP3    H232688   4.279   2.039   1.062 -0.9724  0.4095  0.9301
 3685TIP3   OH232689   2.119   2.671   0.937  0.4732 -0.0240 -0.3017
 3685TIP3    H132690   2.188   2.626   0.889 -0.9081 -1.1767 -1.2654
 3685TIP3    H232691   2.064   2.710   0.869  0.8633  2.0105  0.4742
 3686TIP3   OH232692   2.732   5.416   0.749 -0.3433  0.8351  0.0471
 3686TIP3    H132693   2.734   5.512   0.746 -0.6874  0.8112 -1.8759
 3686TIP3    H232694   2.721   5.396   0.842  0.5894  2.6284  0.6061
 3687TIP3   OH232695   3.189   3.721   7.324 -0.0387 -0.6712 -0.3478
 3687TIP3    H132696   3.251   3.666   7.275 -0.2316 -0.6914 -0.5692
 3687TIP3    H232697   3.240   3.754   7.398 -0.1833 -1.8910  0.3057
 3688TIP3   OH232698   3.838   2.947   8.400 -0.3052 -0.3325 -0.1513
 3688TIP3    H132699   3.867   2.988   8.482 -0.9498 -0.1961  0.0111
 3688TIP3    H232700   3.773   3.008   8.364 -0.5488 -0.7412 -0.4053
 3689TIP3   OH232701   6.275   6.513   7.192  0.6577 -0.0333 -0.2790
 3689TIP3    H132702   6.370   6.523   7.197  0.6992  0.4335 -1.6326
 3689TIP3    H232703   6.261   6.455   7.118 -0.1519  0.5916 -0.6276
 3690TIP3   OH232704   4.662   5.452   7.295  0.1701 -0.0559 -0.0618
 3690TIP3    H132705   4.645   5.442   7.201 -0.3849  0.5907 -0.0357
 3690TIP3    H232706   4.631   5.370   7.333  0.5228 -0.3767 -0.4552
 3691TIP3   OH232707   4.943   5.489   8.252 -0.9266 -0.2459  0.1530
 3691TIP3    H132708   4.857   5.447   8.252 -0.6547 -0.8175 -0.1984
 3691TIP3    H232709   4.990   5.446   8.181 -0.6184  0.6228 -0.1741
 3692TIP3   OH232710   3.046   0.491   7.132  0.4389 -0.2332 -0.3320
 3692TIP3    H132711   3.124   0.440   7.109  1.1538  1.0683 -0.8686
 3692TIP3    H232712   3.055   0.573   7.084 -1.0232  0.1455 -0.0087
 3693TIP3   OH232713   0.510   3.803   8.505  0.1297  0.0569  0.0219
 3693TIP3    H132714   0.539   3.713   8.518  1.3963  0.4182 -0.2526
 3693TIP3    H232715   0.554   3.832   8.425  0.7444  1.3260  0.7895
 3694TIP3   OH232716   3.020   4.117   0.902 -0.1693 -0.5459 -0.2707
 3694TIP3    H132717   2.934   4.093   0.938 -0.7948  1.0632 -0.5848
 3694TIP3    H232718   3.051   4.186   0.961  1.0354 -1.2638 -0.0331
 3695TIP3   OH232719   4.215   1.240   0.227 -0.2323 -0.0019 -0.4759
 3695TIP3    H132720   4.151   1.250   0.157 -2.3022 -0.3689  1.2680
 3695TIP3    H232721   4.183   1.296   0.297  0.1231 -1.8805  1.2748
 3696TIP3   OH232722   3.981   1.198   1.706  0.4619 -0.2371  0.1279
 3696TIP3    H132723   4.002   1.166   1.794  1.0271  0.0859  0.1116
 3696TIP3    H232724   3.957   1.290   1.719 -0.2714 -0.4128  0.0520
 3697TIP3   OH232725   2.543   1.588   8.314  0.2824 -0.7643 -0.1070
 3697TIP3    H132726   2.469   1.572   8.255  1.3325 -0.8664 -1.4363
 3697TIP3    H232727   2.609   1.524   8.288  1.5200  0.4710 -0.1421
 3698TIP3   OH232728   6.418   1.102   1.387  0.3114  0.5953 -0.5053
 3698TIP3    H132729   6.506   1.136   1.375  0.8729 -1.1267 -1.6361
 3698TIP3    H232730   6.415   1.023   1.334 -2.0295  0.7697 -0.7642
 3699TIP3   OH232731   2.444   1.811   1.886  0.6291  0.0874  0.3779
 3699TIP3    H132732   2.482   1.775   1.966  0.5689  0.3793  0.5401
 3699TIP3    H232733   2.512   1.868   1.851  0.7053 -0.1408  0.1482
 3700TIP3   OH232734   3.056   3.934   2.431 -0.1585 -0.0292  0.0590
 3700TIP3    H132735   3.103   4.016   2.417 -0.9201  0.0773 -2.1558
 3700TIP3    H232736   3.119   3.879   2.479  0.5556  1.6132  1.0977
 3701TIP3   OH232737   0.495   4.784   8.235 -0.4049 -0.1014 -0.0435
 3701TIP3    H132738   0.498   4.695   8.201 -1.0087 -0.0726 -0.1768
 3701TIP3    H232739   0.404   4.797   8.262 -1.1366  1.5621 -2.9181
 3702TIP3   OH232740   4.037   6.756   8.062 -0.5702 -0.2500 -0.4321
 3702TIP3    H132741   4.013   6.695   7.992  0.1997 -2.5263  1.1320
 3702TIP3    H232742   3.999   6.717   8.141  1.9175 -0.0157  0.9878
 3703TIP3   OH232743   3.891   5.140   7.809 -0.6022 -0.0882  0.4916
 3703TIP3    H132744   3.835   5.191   7.750 -1.0555 -0.1025  0.9077
 3703TIP3    H232745   3.903   5.057   7.764  0.8309  0.6581 -0.5950
 3704TIP3   OH232746   1.580   4.622   1.527 -0.2809  0.1402  0.3332
 3704TIP3    H132747   1.516   4.561   1.565  0.0872 -0.1702  0.4628
 3704TIP3    H232748   1.661   4.604   1.574  0.0768  0.0473 -0.3091
 3705TIP3   OH232749   5.724   4.282   2.024  0.0252  0.0737  0.1650
 3705TIP3    H132750   5.814   4.251   2.014 -1.2852 -3.4980 -3.3477
 3705TIP3    H232751   5.690   4.233   2.098  0.4450 -0.0542  0.2765
 3706TIP3   OH232752   1.395   5.889   1.049 -0.7475  0.0065  0.2885
 3706TIP3    H132753   1.428   5.800   1.061 -0.6195  0.0294  0.1210
 3706TIP3    H232754   1.415   5.934   1.131  0.1010  0.1605  0.0105
 3707TIP3   OH232755   1.376   1.156   7.055  0.2680  0.0196  0.0964
 3707TIP3    H132756   1.411   1.222   6.995  2.4643 -1.0144  0.1615
 3707TIP3    H232757   1.326   1.097   6.998  0.3271  0.3797 -0.3364
 3708TIP3   OH232758   2.487   4.436   7.259 -0.5730  0.4538  0.7763
 3708TIP3    H132759   2.525   4.358   7.301  1.7586  0.6751 -0.7304
 3708TIP3    H232760   2.453   4.403   7.176 -0.5687  0.8480  0.6193
 3709TIP3   OH232761   3.186   5.405   6.698 -0.1550  0.1243  0.8985
 3709TIP3    H132762   3.170   5.455   6.618  1.1251 -1.5143 -0.4643
 3709TIP3    H232763   3.280   5.411   6.712 -0.1189 -1.0161  1.2683
 3710TIP3   OH232764   0.662   6.761   2.795  0.1111  0.0679  0.3317
 3710TIP3    H132765   0.724   6.746   2.724 -1.9837 -0.5865 -1.4677
 3710TIP3    H232766   0.712   6.745   2.875  2.2540 -0.3208 -1.0215
 3711TIP3   OH232767   6.412   1.826   8.336  0.6089  0.0518 -0.0655
 3711TIP3    H132768   6.456   1.748   8.304  1.6119  0.5831 -0.0340
 3711TIP3    H232769   6.482   1.891   8.346 -0.4459  1.6366 -2.0865
 3712TIP3   OH232770   4.643   1.107   0.797  0.0334  0.1447 -0.6165
 3712TIP3    H132771   4.562   1.061   0.818 -0.2756  0.3185 -1.3843
 3712TIP3    H232772   4.703   1.083   0.867 -0.9050  0.6062  0.3744
 3713TIP3   OH232773   3.494   2.537   7.373  0.1058 -0.2686  0.2737
 3713TIP3    H132774   3.552   2.597   7.327  0.3754 -0.7134  0.0288
 3713TIP3    H232775   3.551   2.468   7.406  0.0073  0.3210  1.7786
 3714TIP3   OH232776   1.764   1.590   2.459  0.4103 -0.1121 -0.6169
 3714TIP3    H132777   1.858   1.600   2.472  0.2260 -0.0106  0.8599
 3714TIP3    H232778   1.738   1.524   2.524 -0.9389  1.8185  0.9554
 3715TIP3   OH232779   5.045   4.405   8.287 -0.3326  0.4920 -0.2547
 3715TIP3    H132780   5.015   4.495   8.293  2.1573  1.3538  0.2799
 3715TIP3    H232781   5.119   4.399   8.349 -0.6511 -2.0165  0.0163
 3716TIP3   OH232782   6.272   0.798   1.997  0.4780  0.0090  0.7736
 3716TIP3    H132783   6.356   0.828   2.034  1.0058  0.5772 -0.7830
 3716TIP3    H232784   6.238   0.736   2.061  1.1430  1.2224  2.3789
 3717TIP3   OH232785   0.042   5.160   0.207  0.4390 -0.1813 -0.6250
 3717TIP3    H132786  -0.024   5.161   0.276  2.5137 -0.3322  1.4681
 3717TIP3    H232787  -0.006   5.131   0.129 -1.5111 -2.5631  1.2842
 3718TIP3   OH232788   0.448   5.906   1.101  0.3663  0.5312  0.0180
 3718TIP3    H132789   0.468   6.000   1.094  3.1585  0.0794  0.7732
 3718TIP3    H232790   0.503   5.865   1.034 -1.0421 -0.5750 -0.5053
 3719TIP3   OH232791   2.414   2.479   0.503 -0.3906 -0.5780 -0.1674
 3719TIP3    H132792   2.450   2.392   0.522  1.2174  0.4649  2.0769
 3719TIP3    H232793   2.376   2.507   0.586 -1.1657  0.7344 -0.9469
 3720TIP3   OH232794   6.478   4.885   8.317  0.0652  0.8051 -0.1001
 3720TIP3    H132795   6.429   4.914   8.240 -0.1684 -1.1999 -0.7730
 3720TIP3    H232796   6.413   4.881   8.387 -0.6283 -0.9808 -0.7746
 3721TIP3   OH232797   1.380   0.895   7.286  0.0994  0.5642  0.3086
 3721TIP3    H132798   1.471   0.879   7.259 -0.6292 -0.5125 -1.7769
 3721TIP3    H232799   1.352   0.813   7.325 -0.4211  0.3290 -0.5255
 3722TIP3   OH232800   3.466   3.245   1.519 -0.3024  0.2912  0.3193
 3722TIP3    H132801   3.431   3.158   1.537 -0.5214  0.0513 -1.1633
 3722TIP3    H232802   3.470   3.250   1.423 -0.2974  1.9058  0.3806
 3723TIP3   OH232803   5.920   0.290   1.200 -0.2222  0.1946 -0.0347
 3723TIP3    H132804   5.837   0.241   1.201  0.6020 -1.4610 -2.5238
 3723TIP3    H232805   5.897   0.376   1.167 -1.0995  0.0915  0.2795
 3724TIP3   OH232806   2.636   4.177   8.415  0.1102  0.6114 -0.2994
 3724TIP3    H132807   2.553   4.197   8.370 -2.7524 -0.6353  3.8118
 3724TIP3    H232808   2.663   4.262   8.451 -0.5883  0.7045  0.0423
 3725TIP3   OH232809   6.296   2.857   2.113  0.0831 -0.0484 -0.1846
 3725TIP3    H132810   6.361   2.862   2.043 -2.0100 -0.7359 -2.3195
 3725TIP3    H232811   6.238   2.932   2.097 -0.8683 -0.6567  0.3556
 3726TIP3   OH232812   2.032   1.160   7.473 -0.1635 -0.4293 -0.8833
 3726TIP3    H132813   2.033   1.170   7.378 -0.2129  0.5091 -0.7979
 3726TIP3    H232814   2.120   1.127   7.494  1.0919  2.5217 -0.9852
 3727TIP3   OH232815   5.690   5.894   7.083  0.5416 -0.1007 -0.0198
 3727TIP3    H132816   5.769   5.936   7.048  0.7911 -1.1994 -0.8218
 3727TIP3    H232817   5.692   5.914   7.176  0.9933  1.1053 -0.2662
 3728TIP3   OH232818   0.116   1.660   2.323  0.3338  0.5435  0.4025
 3728TIP3    H132819   0.168   1.652   2.243 -0.0190 -1.6621  0.3162
 3728TIP3    H232820   0.178   1.638   2.393  0.2448  0.8677  0.5824
 3729TIP3   OH232821   3.274   2.516   7.764 -0.2088  0.1148  0.5702
 3729TIP3    H132822   3.184   2.500   7.792 -0.5156 -0.9890 -0.8860
 3729TIP3    H232823   3.278   2.610   7.746 -1.9463 -0.1877 -1.9948
 3730TIP3   OH232824   1.139   0.734   6.286  0.2089  0.1691  0.2890
 3730TIP3    H132825   1.134   0.646   6.249 -0.9192  1.3238 -2.5823
 3730TIP3    H232826   1.233   0.753   6.288  0.3757 -0.3030 -1.2764
 3731TIP3   OH232827   4.933   3.878   0.830  0.0335 -0.4212  0.0501
 3731TIP3    H132828   4.875   3.922   0.768 -0.3888 -0.8414  0.1408
 3731TIP3    H232829   5.014   3.864   0.782  0.4474  1.1180  0.2475
 3732TIP3   OH232830   0.702   4.311   1.037  0.1404  0.3073  0.2090
 3732TIP3    H132831   0.671   4.358   0.959 -1.6939 -2.1155 -0.6656
 3732TIP3    H232832   0.776   4.363   1.068 -0.6549  2.7762 -1.6248
 3733TIP3   OH232833   3.684   0.513   0.129 -0.5715 -0.5687  0.4183
 3733TIP3    H132834   3.607   0.529   0.074  0.2441  1.2028 -0.2799
 3733TIP3    H232835   3.725   0.436   0.090 -1.4179 -0.9029  0.1633
 3734TIP3   OH232836   2.596   4.435   6.442 -0.4052 -0.0458  0.1020
 3734TIP3    H132837   2.633   4.351   6.417  0.7754  0.9532 -1.7761
 3734TIP3    H232838   2.638   4.456   6.525  0.0133 -0.8817  0.1164
 3735TIP3   OH232839   2.323   0.830   1.076  0.1783 -0.5817  0.5658
 3735TIP3    H132840   2.275   0.912   1.083 -0.4396 -0.6633 -1.8305
 3735TIP3    H232841   2.389   0.835   1.145  0.9670  2.4824 -0.2624
 3736TIP3   OH232842   1.666   0.287   1.988  0.1253 -0.7576  0.2796
 3736TIP3    H132843   1.751   0.326   1.966  0.6128 -1.2162  1.2991
 3736TIP3    H232844   1.666   0.282   2.083 -3.0591  3.7266  0.8007
 3737TIP3   OH232845   1.578   6.660   0.192  0.5736 -0.1809  0.2867
 3737TIP3    H132846   1.641   6.618   0.251 -0.1673 -0.8237  0.6477
 3737TIP3    H232847   1.595   6.619   0.107  0.6359 -0.3660  0.3859
 3738TIP3   OH232848   5.563   0.174   8.463  0.4547 -0.7645  0.5655
 3738TIP3    H132849   5.585   0.267   8.465  3.3524 -1.3835  1.4957
 3738TIP3    H232850   5.467   0.173   8.469  0.1047  2.1795 -2.0008
 3739TIP3   OH232851   1.751   3.734   8.358  0.5289  0.0627  0.0446
 3739TIP3    H132852   1.667   3.766   8.325  0.2722  0.4412  1.0192
 3739TIP3    H232853   1.767   3.787   8.437  0.4100 -1.7656  1.3541
 3740TIP3   OH232854   0.806   1.911   0.136 -0.0499 -0.1023  0.3110
 3740TIP3    H132855   0.797   1.817   0.147  0.2197 -0.1627  0.0093
 3740TIP3    H232856   0.810   1.945   0.225  1.1926 -0.5035  0.4269
 3741TIP3   OH232857   1.217   1.394   2.583 -0.7499 -0.3542 -0.1553
 3741TIP3    H132858   1.275   1.448   2.530 -1.4718  0.8180  0.2282
 3741TIP3    H232859   1.137   1.387   2.531 -1.5404  0.9705  0.8382
 3742TIP3   OH232860   5.843   1.083   0.889  0.3637  0.4123 -0.2213
 3742TIP3    H132861   5.913   1.138   0.853  1.0565 -1.9001 -2.7287
 3742TIP3    H232862   5.782   1.145   0.930  0.9757  3.0742 -2.9999
 3743TIP3   OH232863   4.793   5.775   8.058 -0.0301 -0.1063  0.2050
 3743TIP3    H132864   4.735   5.702   8.078 -0.0441 -0.6143 -1.4845
 3743TIP3    H232865   4.738   5.853   8.066 -0.2875 -0.3616  0.9837
 3744TIP3   OH232866   2.647   4.447   0.008  0.4835  0.3474 -0.3194
 3744TIP3    H132867   2.624   4.527   0.055 -1.1910  0.2571 -0.9035
 3744TIP3    H232868   2.729   4.418   0.047 -1.1498 -0.1214  3.1123
 3745TIP3   OH232869   4.417   2.188   6.839 -0.2691 -0.0985  0.2565
 3745TIP3    H132870   4.332   2.210   6.876 -0.9182  0.8566 -1.6550
 3745TIP3    H232871   4.465   2.271   6.839  0.3518 -0.4484  0.5198
 3746TIP3   OH232872   6.838   3.947   2.459 -0.6613  0.6732  0.1246
 3746TIP3    H132873   6.835   3.947   2.555  0.7337 -0.5582  0.2096
 3746TIP3    H232874   6.825   3.855   2.435  0.3840  0.7442 -0.7769
 3747TIP3   OH232875   1.283   4.821   0.825  0.1711  0.6517 -0.5072
 3747TIP3    H132876   1.200   4.785   0.856  0.6643  0.5480  0.7434
 3747TIP3    H232877   1.305   4.889   0.889  1.4338  0.1384 -0.3796
 3748TIP3   OH232878   5.966   4.008   8.448 -0.2933 -0.4147 -0.1768
 3748TIP3    H132879   5.972   3.954   8.526 -0.3045  0.4855  0.4597
 3748TIP3    H232880   5.894   4.070   8.467 -0.1625 -0.0572 -0.8086
 3749TIP3   OH232881   0.771   6.336   0.346 -0.4788 -0.5611 -0.3599
 3749TIP3    H132882   0.831   6.320   0.419 -1.6315 -0.3715  0.6651
 3749TIP3    H232883   0.770   6.254   0.297  0.7512 -0.4981 -0.5083
 3750TIP3   OH232884   5.582   3.856   1.187  0.5293 -0.1397 -0.8583
 3750TIP3    H132885   5.506   3.910   1.165  0.6054  0.4729  0.3320
 3750TIP3    H232886   5.545   3.781   1.234  0.6832  0.2789 -0.0693
 3751TIP3   OH232887   1.996   2.324   1.469 -0.1014 -0.0416 -0.0781
 3751TIP3    H132888   1.947   2.320   1.551  0.0085 -0.7650 -0.0381
 3751TIP3    H232889   2.009   2.417   1.453 -1.2465  0.1541  0.0563
 3752TIP3   OH232890   0.090   4.344   7.671 -0.3464  0.0325 -0.2298
 3752TIP3    H132891   0.020   4.278   7.677 -0.7725  0.5464  0.9982
 3752TIP3    H232892   0.167   4.295   7.643 -1.1216 -0.6133 -1.2967
 3753TIP3   OH232893   0.477   4.517   8.193 -0.1248 -0.1543 -0.0395
 3753TIP3    H132894   0.484   4.423   8.178 -0.0641  0.0239 -1.2586
 3753TIP3    H232895   0.389   4.539   8.162  0.3703  0.4084 -1.0886
 3754TIP3   OH232896   0.742   3.344   7.593  0.3424  0.0747  0.4291
 3754TIP3    H132897   0.755   3.325   7.686 -0.1935 -0.6817  0.3595
 3754TIP3    H232898   0.664   3.400   7.591  0.3573  0.0956  0.4401
 3755TIP3   OH232899   5.299   5.748   1.920  0.2717 -0.0885 -0.7624
 3755TIP3    H132900   5.378   5.733   1.972  0.3812 -1.6068 -1.3173
 3755TIP3    H232901   5.327   5.805   1.849  0.2816  1.4221  0.3935
 3756TIP3   OH232902   0.824   4.667   1.745  0.0754  0.1141  0.6802
 3756TIP3    H132903   0.884   4.634   1.679 -0.1792  0.2966  0.3582
 3756TIP3    H232904   0.873   4.735   1.790 -0.3922  1.3132 -0.5698
 3757TIP3   OH232905   3.370   1.665   1.750  0.3217  0.1781 -0.4838
 3757TIP3    H132906   3.419   1.632   1.825  1.0279 -0.4936 -1.2137
 3757TIP3    H232907   3.281   1.678   1.783 -0.1741 -3.0138 -0.2384
 3758TIP3   OH232908   3.799   2.167   1.020 -0.4288 -0.6934  0.0778
 3758TIP3    H132909   3.839   2.216   0.949  0.1981 -0.1362  0.7979
 3758TIP3    H232910   3.803   2.226   1.095  0.9724 -2.0542  1.1468
 3759TIP3   OH232911   6.328   0.650   7.454  0.2084  0.3200  0.2313
 3759TIP3    H132912   6.400   0.712   7.448  1.5653 -1.2713 -1.0370
 3759TIP3    H232913   6.270   0.673   7.382  0.3885  0.4993  0.1435
 3760TIP3   OH232914   0.680   5.664   1.240 -0.1624  0.0413 -0.3235
 3760TIP3    H132915   0.758   5.719   1.252  0.5952 -0.5278 -2.2998
 3760TIP3    H232916   0.714   5.577   1.220 -1.2886 -0.1663 -1.4835
 3761TIP3   OH232917   3.415   3.690   0.064  0.1994  0.1506 -0.6353
 3761TIP3    H132918   3.447   3.740  -0.011 -0.9172  0.3910 -0.9757
 3761TIP3    H232919   3.387   3.758   0.127 -0.0953 -0.0474 -0.5515
 3762TIP3   OH232920   3.169   5.621   0.910  0.0008 -0.1378 -0.1070
 3762TIP3    H132921   3.241   5.632   0.973 -0.1901 -0.0344  0.0933
 3762TIP3    H232922   3.112   5.556   0.950  0.6830 -1.2579 -0.9006
 3763TIP3   OH232923   0.129   5.320   1.112 -0.0993  0.2829  0.1903
 3763TIP3    H132924   0.217   5.288   1.090 -0.1375  0.5681 -0.3938
 3763TIP3    H232925   0.143   5.382   1.183  0.1392  0.0908  0.3110
 3764TIP3   OH232926   0.598   2.086   0.909 -0.0860 -0.6586 -0.4685
 3764TIP3    H132927   0.639   2.109   0.826  1.1450 -2.2383 -0.3394
 3764TIP3    H232928   0.519   2.038   0.884  1.2550 -2.8293 -0.8179
 3765TIP3   OH232929   4.466   2.393   1.898  0.3552 -0.5506  0.6745
 3765TIP3    H132930   4.373   2.417   1.902 -0.1181 -1.6873 -1.8379
 3765TIP3    H232931   4.510   2.473   1.867  0.4419  0.2965  2.7791
 3766TIP3   OH232932   3.675   3.404   1.953  0.4708  0.2847  0.5205
 3766TIP3    H132933   3.590   3.440   1.976  0.9490  1.7206  0.1770
 3766TIP3    H232934   3.738   3.473   1.977  1.6415 -1.1347  1.6874
 3767TIP3   OH232935   5.690   6.407   6.953 -0.5138  0.1788 -0.5721
 3767TIP3    H132936   5.700   6.349   6.878 -1.9394 -0.3283 -0.3832
 3767TIP3    H232937   5.728   6.490   6.924  0.0084 -0.3435 -1.4322
 3768TIP3   OH232938   0.027   2.112   1.124  0.3711 -0.0274 -0.3508
 3768TIP3    H132939   0.085   2.161   1.066  0.1490  0.0830 -0.4814
 3768TIP3    H232940   0.032   2.159   1.208 -2.2745  2.1893 -1.2876
 3769TIP3   OH232941   3.220   2.881   7.306  0.3148 -0.0514 -0.4481
 3769TIP3    H132942   3.145   2.903   7.361 -0.7005 -0.2019 -1.7517
 3769TIP3    H232943   3.225   2.951   7.242  1.0493 -0.2572 -0.6336
 3770TIP3   OH232944   5.082   4.813   7.789 -0.2120 -0.0523 -0.1552
 3770TIP3    H132945   5.145   4.812   7.717  0.7723 -0.4201  0.6820
 3770TIP3    H232946   5.002   4.776   7.752  0.0697  0.3744 -1.2254
 3771TIP3   OH232947   1.621   4.685   1.269  0.1279  0.1925  0.5147
 3771TIP3    H132948   1.683   4.752   1.297 -2.3439  2.3866  1.1494
 3771TIP3    H232949   1.586   4.649   1.350 -1.2479  0.8749  0.2707
 3772TIP3   OH232950   4.685   1.031   1.291 -0.1975 -0.0207 -0.1517
 3772TIP3    H132951   4.743   1.044   1.366 -0.0103 -2.8217  0.3081
 3772TIP3    H232952   4.597   1.049   1.325  0.1341  1.9197 -0.2133
 3773TIP3   OH232953   4.596   1.680   7.713  0.4013  0.3962  0.1715
 3773TIP3    H132954   4.641   1.668   7.630 -1.8267  1.1558 -1.2441
 3773TIP3    H232955   4.665   1.677   7.779  1.9102 -3.8843 -1.2661
 3774TIP3   OH232956   3.679   0.183   1.118 -0.3603  0.1640 -0.3003
 3774TIP3    H132957   3.612   0.251   1.123  0.2549  0.7328  0.8076
 3774TIP3    H232958   3.715   0.191   1.030  0.1086  1.7138 -0.0008
 3775TIP3   OH232959   6.207   3.405   0.818 -0.1253  0.3086 -0.4606
 3775TIP3    H132960   6.196   3.409   0.913  0.2543 -0.0319 -0.4010
 3775TIP3    H232961   6.299   3.426   0.804 -0.0972  0.0122 -0.7271
 3776TIP3   OH232962   5.941   0.788   1.578 -0.3730  0.3383  0.3555
 3776TIP3    H132963   5.995   0.759   1.651  0.6947 -1.4420 -1.0761
 3776TIP3    H232964   6.001   0.799   1.505 -1.5962  0.7233 -0.6417
 3777TIP3   OH232965   3.033   2.604   8.476  0.8763 -0.2062 -0.5907
 3777TIP3    H132966   3.048   2.670   8.408 -0.0008  0.8505  0.1984
 3777TIP3    H232967   3.121   2.580   8.505  1.2263  1.1123 -0.4566
 3778TIP3   OH232968   0.284   0.561   2.914  0.0072 -0.1925  0.0857
 3778TIP3    H132969   0.196   0.593   2.893  0.2230 -0.6630 -1.7203
 3778TIP3    H232970   0.271   0.500   2.986 -1.2988 -0.9121 -0.7184
 3779TIP3   OH232971   3.432   1.081   7.277 -0.1015 -0.1991 -0.6120
 3779TIP3    H132972   3.516   1.126   7.282 -0.7856  1.2013 -1.3310
 3779TIP3    H232973   3.390   1.116   7.199 -1.7026 -0.2561  0.1880
 3780TIP3   OH232974   0.114   1.025   1.269  0.2322 -0.5511 -0.5933
 3780TIP3    H132975   0.204   0.997   1.253  1.1034  0.3928  2.1433
 3780TIP3    H232976   0.077   0.956   1.323 -0.5079 -0.6064 -1.1557
 3781TIP3   OH232977   1.002   6.596   1.360 -0.0866 -0.0673  0.6281
 3781TIP3    H132978   1.093   6.568   1.351  0.0702  0.3449  0.9224
 3781TIP3    H232979   1.000   6.684   1.321  0.0879  0.7704  2.4235
 3782TIP3   OH232980   4.715   6.714   7.650  0.1968  0.4471  0.7292
 3782TIP3    H132981   4.776   6.745   7.582  0.8658  2.2191  2.0508
 3782TIP3    H232982   4.711   6.619   7.637  0.3498  0.7065 -1.7163
 3783TIP3   OH232983   1.825   6.904   1.199  0.0512 -0.1427  0.0501
 3783TIP3    H132984   1.861   6.824   1.237  1.5941 -0.2229 -1.4441
 3783TIP3    H232985   1.732   6.886   1.188  0.4116 -1.8525 -0.4809
 3784TIP3   OH232986   6.699   2.678   1.984 -1.0023 -0.1497  0.3178
 3784TIP3    H132987   6.657   2.684   1.898  0.9056 -0.6896 -0.7019
 3784TIP3    H232988   6.774   2.737   1.978 -0.5837 -0.5430  1.4585
 3785TIP3   OH232989   2.909   0.752   0.757  0.1258 -0.3005 -0.0717
 3785TIP3    H132990   2.979   0.706   0.710  1.5141  1.4644  0.1479
 3785TIP3    H232991   2.954   0.824   0.802 -1.4370 -0.7244  2.3621
 3786TIP3   OH232992   1.305   3.817   1.783  0.1361  0.1147 -0.4486
 3786TIP3    H132993   1.373   3.863   1.735 -0.8995  0.0002 -2.1191
 3786TIP3    H232994   1.224   3.838   1.736 -1.1155  0.8282  1.8822
 3787TIP3   OH232995   3.961   5.865   2.025 -0.1985  0.0087 -0.9399
 3787TIP3    H132996   4.020   5.841   2.096 -0.3812  0.8152 -0.5036
 3787TIP3    H232997   4.019   5.883   1.951  0.0758  0.3635 -0.6402
 3788TIP3   OH232998   3.319   4.200   1.701  0.1248 -0.1224  0.5370
 3788TIP3    H132999   3.252   4.131   1.702  0.2833 -0.3467 -1.0106
 3788TIP3    H233000   3.372   4.183   1.779  0.9052 -2.5409 -0.4236
 3789TIP3   OH233001   3.082   1.133   1.835 -0.9669  0.1465  0.4688
 3789TIP3    H133002   3.140   1.057   1.832 -0.7631  0.3079  0.3671
 3789TIP3    H233003   3.057   1.141   1.927  1.0920  1.5404  0.9649
 3790TIP3   OH233004   2.684   0.266   0.951  0.3557 -0.0873  0.3739
 3790TIP3    H133005   2.680   0.228   0.863 -1.5161  1.8956 -0.4912
 3790TIP3    H233006   2.731   0.349   0.938 -0.4107  0.4803  1.1225
 3791TIP3   OH233007   5.704   0.847   8.132 -0.1298  0.4434 -0.2051
 3791TIP3    H133008   5.629   0.857   8.074 -1.0294 -2.0633  0.3857
 3791TIP3    H233009   5.696   0.920   8.194 -1.0937  1.1888 -1.1609
 3792TIP3   OH233010   1.454   5.425   7.900  0.8384 -0.2868  0.3105
 3792TIP3    H133011   1.392   5.393   7.965 -0.8670 -0.4656 -1.3375
 3792TIP3    H233012   1.463   5.518   7.920  0.5639 -0.3934  0.9615
 3793TIP3   OH233013   0.935   1.106   0.458 -0.2687 -0.3306 -0.0853
 3793TIP3    H133014   0.975   1.049   0.524 -1.0779  0.3015  0.9853
 3793TIP3    H233015   0.856   1.059   0.431  0.5055 -0.9951 -1.2777
 3794TIP3   OH233016   0.096   2.812   1.220 -0.6940  0.1930 -0.0807
 3794TIP3    H133017   0.054   2.898   1.225 -1.5224 -0.1952 -0.0394
 3794TIP3    H233018   0.111   2.787   1.311  0.3728  0.6725 -0.1161
 3795TIP3   OH233019   1.252   3.601   2.287  0.4484 -0.0193 -0.0021
 3795TIP3    H133020   1.213   3.532   2.341  0.4250  0.9434  1.2416
 3795TIP3    H233021   1.343   3.573   2.275  0.7012  0.1791  1.3011
 3796TIP3   OH233022   0.495   1.168   1.767 -0.4462 -0.8669  0.1897
 3796TIP3    H133023   0.468   1.236   1.705 -1.0160 -1.1138  0.1549
 3796TIP3    H233024   0.415   1.118   1.784  0.2032 -2.2688 -0.6937
 3797TIP3   OH233025   0.360   2.699   1.767 -0.4633 -0.1130 -0.4993
 3797TIP3    H133026   0.424   2.724   1.833  0.3505 -2.2034 -0.4046
 3797TIP3    H233027   0.388   2.744   1.687 -0.7802  1.5046  0.2719
 3798TIP3   OH233028   2.873   6.753   1.489  0.2584 -0.7574  0.0708
 3798TIP3    H133029   2.893   6.696   1.563  0.0586 -1.2866 -0.2834
 3798TIP3    H233030   2.942   6.819   1.491  1.5145 -2.0081 -0.5507
 3799TIP3   OH233031   6.452   3.491   0.748 -0.2899 -0.2400  0.3780
 3799TIP3    H133032   6.476   3.407   0.708 -0.1227 -0.3846  0.7750
 3799TIP3    H233033   6.476   3.557   0.682  0.0374 -0.4703  0.2652
 3800TIP3   OH233034   4.637   5.576   6.771  1.1183  0.4033 -0.0747
 3800TIP3    H133035   4.546   5.587   6.744  1.0412 -1.2048 -0.5392
 3800TIP3    H233036   4.688   5.584   6.690  1.2564 -0.1569 -0.0491
 3801TIP3   OH233037   0.923   3.314   8.407  0.5925 -0.0965 -0.2918
 3801TIP3    H133038   0.992   3.368   8.368  0.4131  0.9832  0.8050
 3801TIP3    H233039   0.923   3.339   8.499 -1.2401 -0.0835 -0.2544
 3802TIP3   OH233040   3.730   2.385   0.616 -0.7971  0.9332 -0.3374
 3802TIP3    H133041   3.796   2.419   0.677  1.5420 -1.5241 -1.2870
 3802TIP3    H233042   3.771   2.393   0.530 -2.6928  1.3072 -1.2408
 3803TIP3   OH233043   0.037   4.083   8.365  0.2584  0.0328 -0.3281
 3803TIP3    H133044   0.118   4.134   8.359  1.7041 -2.2122 -1.2006
 3803TIP3    H233045   0.066   3.992   8.370 -2.1727 -0.7448  2.1389
 3804TIP3   OH233046   5.909   6.011   1.461 -0.3206  0.1221  0.3159
 3804TIP3    H133047   5.888   5.967   1.378  0.1035  0.1749  0.1812
 3804TIP3    H233048   5.874   6.099   1.451  0.2189  0.2990 -0.0210
 3805TIP3   OH233049   5.049   0.708   6.953 -0.5539 -0.0346  0.2866
 3805TIP3    H133050   5.110   0.782   6.950  0.0517 -0.5526 -0.1960
 3805TIP3    H233051   4.962   0.749   6.953 -0.2425  0.7718  2.4734
 3806TIP3   OH233052   6.563   4.638   0.052  0.6090  0.0991  0.4697
 3806TIP3    H133053   6.645   4.592   0.071 -0.2296 -1.2471  1.0244
 3806TIP3    H233054   6.552   4.699   0.125  1.6643  1.1293 -0.1986
 3807TIP3   OH233055   2.882   4.624   2.893 -0.2161  0.2209  0.5844
 3807TIP3    H133056   2.848   4.569   2.963  0.7420 -1.5793 -0.2951
 3807TIP3    H233057   2.812   4.624   2.827 -0.3087  0.2407  0.6827
 3808TIP3   OH233058   4.058   4.035   2.213  0.5115  0.0261  0.6954
 3808TIP3    H133059   4.145   4.066   2.241  0.0900  1.0806  0.8902
 3808TIP3    H233060   4.001   4.111   2.225 -0.5728 -0.8419  1.1735
 3809TIP3   OH233061   0.546   0.578   8.248  0.2311  0.7063  0.5958
 3809TIP3    H133062   0.511   0.489   8.243  1.3529  0.1068  2.2759
 3809TIP3    H233063   0.629   0.573   8.199  1.3928  0.1609  2.4851
 3810TIP3   OH233064   1.684   5.295   7.923  0.1907 -0.4795  0.6379
 3810TIP3    H133065   1.737   5.373   7.903 -0.2274 -0.6246 -1.2519
 3810TIP3    H233066   1.594   5.328   7.923  0.0319 -0.9050  0.0884
 3811TIP3   OH233067   0.763   6.024   1.021 -0.0726 -0.4344 -0.1439
 3811TIP3    H133068   0.772   5.978   1.104 -2.1777  0.1476  0.4746
 3811TIP3    H233069   0.710   5.965   0.966 -0.2529 -0.0328 -0.4086
 3812TIP3   OH233070   0.692   0.761   7.896 -0.6222  0.8710  0.0065
 3812TIP3    H133071   0.740   0.738   7.976 -2.0420  0.8611  0.9001
 3812TIP3    H233072   0.756   0.807   7.842  1.3450 -2.0474 -0.3604
 3813TIP3   OH233073   3.123   3.152   1.097 -0.4278 -0.1391  0.1203
 3813TIP3    H133074   3.116   3.175   1.004 -0.4335  0.5406  0.2837
 3813TIP3    H233075   3.201   3.198   1.128  0.5068 -1.6345  0.0969
 3814TIP3   OH233076   3.465   5.301   0.146 -0.0412  0.3591 -0.0328
 3814TIP3    H133077   3.391   5.333   0.094  0.0933  1.1346  0.2432
 3814TIP3    H233078   3.532   5.369   0.138 -0.3697  0.9607  1.9157
 3815TIP3   OH233079   1.382   0.858   6.275 -0.0615  0.2947 -0.1560
 3815TIP3    H133080   1.443   0.900   6.213  0.7555 -0.5537  0.0449
 3815TIP3    H233081   1.380   0.917   6.350 -0.6858  1.0922 -0.7792
 3816TIP3   OH233082   2.247   0.717   0.180 -0.0760 -0.7314 -0.0403
 3816TIP3    H133083   2.316   0.729   0.115 -0.6813 -0.8389 -0.7186
 3816TIP3    H233084   2.183   0.785   0.160  0.2635 -0.0051  1.1892
 3817TIP3   OH233085   2.748   3.563   1.930  0.1369  0.1884 -0.0560
 3817TIP3    H133086   2.663   3.588   1.895 -0.4500 -0.1585  1.0970
 3817TIP3    H233087   2.730   3.488   1.986  1.3894 -0.7410 -0.8231
 3818TIP3   OH233088   0.117   6.098   7.353  0.0563 -0.0635 -0.0366
 3818TIP3    H133089   0.164   6.017   7.336  3.1811  1.2551  1.5057
 3818TIP3    H233090   0.143   6.156   7.281  1.7008  0.9763  1.3208
 3819TIP3   OH233091   5.724   5.806   0.802 -0.2964 -0.1233  0.3383
 3819TIP3    H133092   5.746   5.882   0.856  1.0762  0.7450 -1.3370
 3819TIP3    H233093   5.649   5.835   0.749 -0.7817 -0.4980  0.8158
 3820TIP3   OH233094   1.765   3.192   1.343 -0.0139  0.1596 -0.1500
 3820TIP3    H133095   1.772   3.155   1.431  1.0575  0.0246 -0.2768
 3820TIP3    H233096   1.856   3.201   1.314 -0.3555  0.2896 -1.2080
 3821TIP3   OH233097   4.001   0.578   0.016 -0.4696  0.0565 -0.3343
 3821TIP3    H133098   3.950   0.498   0.031 -0.6222  0.4591  1.5863
 3821TIP3    H233099   4.069   0.576   0.083  1.3028  0.1807 -2.0433
 3822TIP3   OH233100   3.275   4.285   0.154  0.7942  0.6582  0.1586
 3822TIP3    H133101   3.252   4.218   0.218  0.1240  0.7402  0.0189
 3822TIP3    H233102   3.339   4.340   0.198  1.9741 -0.5472 -0.0153
 3823TIP3   OH233103   0.562   1.488   2.720  0.3839  0.0133  0.1870
 3823TIP3    H133104   0.467   1.479   2.716  0.4207 -1.4066  1.5887
 3823TIP3    H233105   0.576   1.569   2.770 -0.0431  0.9078 -1.0854
 3824TIP3   OH233106   4.914   6.151   0.510 -0.0815 -0.4456 -0.1389
 3824TIP3    H133107   4.869   6.067   0.508 -1.3182  0.2018 -0.7106
 3824TIP3    H233108   4.997   6.135   0.465  0.1452 -1.5857  0.6461
 3825TIP3   OH233109   6.393   0.711   2.615 -0.2499  0.2196 -0.3918
 3825TIP3    H133110   6.350   0.683   2.696  0.5958 -1.9348 -0.6276
 3825TIP3    H233111   6.334   0.777   2.578 -2.7364 -1.6559 -0.0405
 3826TIP3   OH233112   2.481   2.085   1.673 -0.2362  0.1695 -0.3543
 3826TIP3    H133113   2.536   2.057   1.600  0.8236 -1.8783  1.1447
 3826TIP3    H233114   2.391   2.081   1.639  0.2540 -0.5538 -1.5951
 3827TIP3   OH233115   4.072   4.765   1.537  0.9388  0.0425 -0.0573
 3827TIP3    H133116   4.064   4.839   1.597 -1.6059 -0.1874 -0.0318
 3827TIP3    H233117   4.063   4.688   1.593  1.2551 -0.2405 -0.3910
 3828TIP3   OH233118   5.522   3.567   0.706  0.5607 -0.1608 -0.3010
 3828TIP3    H133119   5.446   3.567   0.764  1.0680  1.5378  0.4202
 3828TIP3    H233120   5.491   3.526   0.625 -0.9690  0.0525  0.1557
 3829TIP3   OH233121   4.503   1.777   1.499  0.1006  0.2089 -0.3745
 3829TIP3    H133122   4.448   1.702   1.519 -0.4054  0.4294 -0.9164
 3829TIP3    H233123   4.452   1.829   1.437 -0.2873  1.8384  1.1953
 3830TIP3   OH233124   1.612   4.575   1.998  0.6527 -0.2082 -0.1971
 3830TIP3    H133125   1.699   4.578   2.038  0.1060  1.1857  1.0027
 3830TIP3    H233126   1.557   4.626   2.058 -1.0500 -1.2457 -0.7978
 3831TIP3   OH233127   1.097   1.369   6.990 -0.2810  0.3544  0.6072
 3831TIP3    H133128   1.134   1.358   6.902 -0.8677 -0.9968  0.5000
 3831TIP3    H233129   1.008   1.335   6.983  0.2296 -1.4737  2.1129
 3832TIP3   OH233130   2.055   3.582   0.733 -0.3959  0.3201  0.5093
 3832TIP3    H133131   2.048   3.673   0.762  1.1379 -0.2234  2.9309
 3832TIP3    H233132   2.125   3.582   0.668  0.8382  0.6774  1.7895
 3833TIP3   OH233133   5.172   0.797   7.971 -0.4784 -0.7542 -0.3269
 3833TIP3    H133134   5.118   0.807   7.893 -1.1849 -0.5035  0.1882
 3833TIP3    H233135   5.225   0.718   7.954 -0.1888 -0.3571 -1.2975
 3834TIP3   OH233136   2.264   2.854   7.851 -0.1608  0.4235 -0.2487
 3834TIP3    H133137   2.201   2.885   7.916 -1.7813  0.0016 -1.5338
 3834TIP3    H233138   2.321   2.794   7.899  0.0828  1.8055  1.2333
 3835TIP3   OH233139   0.100   0.728   1.800  0.3296 -0.3606 -0.2698
 3835TIP3    H133140   0.110   0.696   1.711 -0.5989 -0.1207 -0.4677
 3835TIP3    H233141   0.162   0.675   1.851 -1.5657 -2.9567 -0.4745
 3836TIP3   OH233142   3.687   1.353   1.561 -0.0074 -0.5529 -0.5975
 3836TIP3    H133143   3.710   1.298   1.486  2.2106 -0.0148 -0.3776
 3836TIP3    H233144   3.702   1.296   1.637  0.9667 -0.0819 -0.4309
 3837TIP3   OH233145   3.452   1.256   8.018  0.1758 -0.5687 -0.1377
 3837TIP3    H133146   3.505   1.253   7.938  1.2174  0.6012  0.4638
 3837TIP3    H233147   3.434   1.164   8.038  0.5946 -0.9175 -1.2512
 3838TIP3   OH233148   6.887   0.949   6.967 -0.4752  0.2231  0.1495
 3838TIP3    H133149   6.828   0.875   6.952  0.0936  0.1094 -1.8462
 3838TIP3    H233150   6.973   0.907   6.979 -0.3892  0.4963  0.4786
 3839TIP3   OH233151   1.516   2.559   7.874 -0.2863  0.0839 -0.1995
 3839TIP3    H133152   1.537   2.587   7.962 -1.0582  1.3984 -0.4010
 3839TIP3    H233153   1.587   2.592   7.820 -0.9284  1.2676 -0.3604
 3840TIP3   OH233154   4.647   0.240   0.853 -0.4425 -0.0642 -0.0530
 3840TIP3    H133155   4.664   0.146   0.850 -0.3312 -0.0632  0.4248
 3840TIP3    H233156   4.697   0.271   0.930 -0.4848  0.3795 -0.2008
 3841TIP3   OH233157   6.586   3.959   7.998  0.0666  0.3963  0.4256
 3841TIP3    H133158   6.655   3.893   8.001  0.3274  0.6848  1.1156
 3841TIP3    H233159   6.532   3.936   7.922  1.4138  0.6583 -0.6429
 3842TIP3   OH233160   3.454   6.647   1.697 -0.2663 -0.1444 -0.7888
 3842TIP3    H133161   3.445   6.578   1.632  0.4278 -0.2457 -0.7878
 3842TIP3    H233162   3.506   6.607   1.767 -0.4544  0.1633 -0.4693
 3843TIP3   OH233163   2.584   6.143   0.695  0.6638  0.2096  0.1507
 3843TIP3    H133164   2.668   6.102   0.678  0.7579  0.9315 -1.2774
 3843TIP3    H233165   2.606   6.224   0.741  0.6660 -0.1120  0.7181
 3844TIP3   OH233166   5.902   5.220   0.869 -1.1080 -0.1619  0.3945
 3844TIP3    H133167   5.921   5.142   0.817 -1.4086 -1.0914  1.6347
 3844TIP3    H233168   5.837   5.267   0.817  0.0204 -0.0562 -0.9808
 3845TIP3   OH233169   4.385   0.297   8.399 -0.0667  0.0613  0.1248
 3845TIP3    H133170   4.316   0.275   8.336 -0.1657  1.7796 -0.4124
 3845TIP3    H233171   4.454   0.232   8.384  0.8549  1.6235 -3.2686
 3846TIP3   OH233172   5.489   1.362   2.241 -0.3034  0.4762 -0.9866
 3846TIP3    H133173   5.465   1.282   2.288 -1.0452  1.9500  1.2470
 3846TIP3    H233174   5.411   1.417   2.244  1.1387  2.6219  0.4952
 3847TIP3   OH233175   2.150   3.044   2.414 -0.5211  0.1293 -0.2342
 3847TIP3    H133176   2.176   3.091   2.493  0.7876  2.8487 -2.1280
 3847TIP3    H233177   2.055   3.050   2.413 -0.6103 -0.4753  1.3676
 3848TIP3   OH233178   1.054   6.616   3.229  0.1866  0.4787  0.0365
 3848TIP3    H133179   1.025   6.546   3.171  1.3851  1.1680 -1.4518
 3848TIP3    H233180   1.139   6.642   3.195 -0.6085  3.2829 -0.0538
 3849TIP3   OH233181   4.014   6.138   2.799 -0.1965  0.0480  0.1658
 3849TIP3    H133182   4.069   6.211   2.827  0.2624 -0.2181 -0.0455
 3849TIP3    H233183   4.074   6.075   2.760 -0.8036  0.4130 -1.4537
 3850TIP3   OH233184   5.946   0.465   7.812 -0.1495  0.0488  0.1611
 3850TIP3    H133185   6.004   0.467   7.888  0.7245  0.0830 -0.4846
 3850TIP3    H233186   5.952   0.553   7.775  0.7135 -0.4125 -0.8608
 3851TIP3   OH233187   3.533   4.087   8.098 -0.1326  0.4939 -0.1935
 3851TIP3    H133188   3.497   4.025   8.161  0.7887  0.5609  0.4216
 3851TIP3    H233189   3.523   4.043   8.013 -0.0990 -0.2178  0.1590
 3852TIP3   OH233190   1.465   5.973   1.295  0.7216  0.0322  0.3244
 3852TIP3    H133191   1.537   6.036   1.283 -0.8923  2.3474  2.0009
 3852TIP3    H233192   1.473   5.945   1.386 -1.1765  1.3586  0.9681
 3853TIP3   OH233193   0.731   0.174   1.887  0.4144  0.2083  0.1543
 3853TIP3    H133194   0.739   0.178   1.983  0.1749  0.3721  0.1686
 3853TIP3    H233195   0.775   0.093   1.863  1.0677  0.4914  0.3438
 3854TIP3   OH233196   4.221   5.874   7.941  0.0375 -0.0287  0.1600
 3854TIP3    H133197   4.184   5.835   8.020 -1.5742  1.5857  0.2580
 3854TIP3    H233198   4.215   5.968   7.956  0.9469  0.2934 -1.3379
 3855TIP3   OH233199   3.741   2.878   1.862 -0.2866 -0.1040 -0.2101
 3855TIP3    H133200   3.686   2.955   1.844 -0.1955 -0.1525 -0.7125
 3855TIP3    H233201   3.825   2.914   1.889 -0.3336 -0.0277 -0.1648
 3856TIP3   OH233202   1.375   3.852   0.850  0.3799  0.3059  0.1622
 3856TIP3    H133203   1.291   3.811   0.828  0.8102 -0.4432 -0.1341
 3856TIP3    H233204   1.372   3.938   0.808  1.3575 -1.2167 -3.3388
 3857TIP3   OH233205   3.253   2.775   7.866  0.1241  0.4323  0.5210
 3857TIP3    H133206   3.251   2.869   7.848  0.4180  0.5669  1.1580
 3857TIP3    H233207   3.163   2.754   7.892 -0.1675  0.3458 -0.5314
 3858TIP3   OH233208   4.329   5.118   0.161 -0.1249  0.1686  0.2521
 3858TIP3    H133209   4.251   5.162   0.125 -0.0546  1.1134  1.2032
 3858TIP3    H233210   4.303   5.026   0.166 -1.1115  0.4326  0.3522
 3859TIP3   OH233211   3.870   6.836   7.232 -0.0108 -0.0825  0.0666
 3859TIP3    H133212   3.837   6.796   7.152 -0.6970  0.9919 -0.2051
 3859TIP3    H233213   3.905   6.920   7.205  1.9578 -0.6972  0.5378
 3860TIP3   OH233214   5.682   6.478   1.907  0.5787  1.3179  0.4982
 3860TIP3    H133215   5.763   6.518   1.938  0.7966  0.8262  0.5797
 3860TIP3    H233216   5.639   6.446   1.987 -0.2524  2.5611  0.5828
 3861TIP3   OH233217   5.921   0.955   2.775  0.0918  1.0665  0.0796
 3861TIP3    H133218   5.939   0.864   2.751 -0.6590  0.7032  0.8474
 3861TIP3    H233219   5.997   0.981   2.827  0.3806  0.9393 -0.2699
 3862TIP3   OH233220   3.852   6.316   2.289 -0.2910 -0.2233  0.3574
 3862TIP3    H133221   3.931   6.360   2.320 -0.1873  0.2397 -0.5531
 3862TIP3    H233222   3.859   6.227   2.324  1.7255 -0.8723 -1.4935
 3863TIP3   OH233223   5.197   4.750   2.626 -0.2545 -0.1334  0.2373
 3863TIP3    H133224   5.160   4.704   2.702 -0.0598 -3.2611 -1.4254
 3863TIP3    H233225   5.292   4.740   2.636 -0.2384 -0.9015 -0.5703
 3864TIP3   OH233226   0.298   1.182   2.538  0.0894  0.5359  0.8495
 3864TIP3    H133227   0.249   1.115   2.490  1.2777  0.8497 -0.8980
 3864TIP3    H233228   0.388   1.151   2.539  0.2578  1.0032  2.0957
 3865TIP3   OH233229   4.269   5.951   2.462  0.1604 -0.0064  0.3383
 3865TIP3    H133230   4.279   6.006   2.540 -0.9224 -2.4150  2.3299
 3865TIP3    H233231   4.358   5.927   2.437  0.7075  2.9943 -0.9664
 3866TIP3   OH233232   6.066   2.989   7.527  0.6805  0.4134 -0.2159
 3866TIP3    H133233   5.976   2.991   7.493  1.0316  0.5953 -1.1838
 3866TIP3    H233234   6.080   2.899   7.555  0.4687  0.1781 -0.8499
 3867TIP3   OH233235   3.365   2.494   6.802 -0.5771 -1.1164  0.4833
 3867TIP3    H133236   3.278   2.472   6.834 -0.6606 -1.5864 -0.0712
 3867TIP3    H233237   3.400   2.553   6.869 -1.5841 -0.3637  0.3663
 3868TIP3   OH233238   5.639   4.345   3.138 -0.0383  0.8767 -0.2403
 3868TIP3    H133239   5.693   4.308   3.208 -0.8511  0.5956  0.2622
 3868TIP3    H233240   5.671   4.304   3.058 -0.0473  0.0961  0.1493
 3869TIP3   OH233241   0.452   5.487   6.806  0.0904  0.3375 -0.3925
 3869TIP3    H133242   0.440   5.563   6.863 -1.7886 -0.4652  0.3897
 3869TIP3    H233243   0.546   5.476   6.799  0.4177  0.7293  2.2540
 3870TIP3   OH233244   2.013   3.458   1.268 -0.0899 -0.0637 -0.6042
 3870TIP3    H133245   2.016   3.434   1.175  0.8854 -0.0716 -0.5801
 3870TIP3    H233246   1.933   3.510   1.276  0.2640  0.6878 -1.6489
 3871TIP3   OH233247   6.294   6.345   1.690  0.1822  0.3169 -0.2225
 3871TIP3    H133248   6.374   6.311   1.732  0.6503  0.6236 -0.8486
 3871TIP3    H233249   6.293   6.304   1.604 -1.0408 -0.6947  0.2400
 3872TIP3   OH233250   4.233   0.452   1.219 -0.5519 -0.3459  0.1138
 3872TIP3    H133251   4.187   0.472   1.137 -1.7476  0.1813  0.8716
 3872TIP3    H233252   4.165   0.458   1.286  0.7354  1.0191  1.3758
 3873TIP3   OH233253   5.622   1.828   7.928 -0.1122  0.0120 -0.4145
 3873TIP3    H133254   5.588   1.833   8.018 -1.6038  0.2306 -0.9624
 3873TIP3    H233255   5.698   1.887   7.928 -1.1078  1.3666  0.2904
 3874TIP3   OH233256   4.522   2.984   0.357  0.5257 -0.0143  0.2480
 3874TIP3    H133257   4.456   2.954   0.419 -0.9611  0.1879 -1.1599
 3874TIP3    H233258   4.503   2.936   0.276 -0.5485  2.9281 -1.4210
 3875TIP3   OH233259   6.832   2.512   1.727 -0.5167  0.5960 -0.4581
 3875TIP3    H133260   6.758   2.529   1.785 -0.0899 -0.2284  0.3555
 3875TIP3    H233261   6.889   2.588   1.736 -0.4643  0.4826  0.1998
 3876TIP3   OH233262   5.847   3.058   8.385  0.3066 -0.2046  0.2758
 3876TIP3    H133263   5.842   2.968   8.354 -0.1827  0.2645 -1.0911
 3876TIP3    H233264   5.842   3.051   8.481  0.8830 -1.6462  0.2220
 3877TIP3   OH233265   1.623   5.044   0.045  0.1127  0.5394 -0.0370
 3877TIP3    H133266   1.577   5.054   0.129  1.6263  1.4182  0.7215
 3877TIP3    H233267   1.608   5.126  -0.001 -2.7334 -0.7931 -1.7586
 3878TIP3   OH233268   3.301   4.647   2.415 -0.3951 -1.1624 -0.2816
 3878TIP3    H133269   3.327   4.711   2.349  0.5681 -1.0204  0.2219
 3878TIP3    H233270   3.240   4.695   2.472  1.2483 -0.2783  0.8164
 3879TIP3   OH233271   6.631   5.126   1.342 -0.0334 -0.0455  0.6353
 3879TIP3    H133272   6.681   5.207   1.335 -0.6423  0.4029  1.2756
 3879TIP3    H233273   6.676   5.075   1.409 -2.1532  1.7360  3.6624
 3880TIP3   OH233274   6.701   5.943   0.003 -0.2384 -0.3240 -0.1478
 3880TIP3    H133275   6.700   5.922   0.096 -0.7152 -0.8792 -0.2666
 3880TIP3    H233276   6.778   5.896  -0.031  0.9850  1.2960  0.2507
 3881TIP3   OH233277   2.285   6.613   1.306 -0.6105 -0.0600 -0.0947
 3881TIP3    H133278   2.288   6.620   1.210  2.4189  2.8376 -0.0047
 3881TIP3    H233279   2.237   6.691   1.334 -0.0382  0.0052  0.7385
 3882TIP3   OH233280   4.742   2.777   0.162 -0.3487 -0.5963 -0.3264
 3882TIP3    H133281   4.749   2.732   0.078 -1.5302 -1.7063  0.1241
 3882TIP3    H233282   4.832   2.790   0.190  0.0637  0.0779 -1.8953
 3883TIP3   OH233283   5.583   5.662   2.005  0.1682 -0.3560 -0.0706
 3883TIP3    H133284   5.616   5.739   2.051  0.8616  0.0630 -1.2389
 3883TIP3    H233285   5.615   5.672   1.915 -0.4135 -1.6005 -0.4333
 3884TIP3   OH233286   3.140   0.139   2.338  0.3906  0.4995  0.0914
 3884TIP3    H133287   3.180   0.181   2.261 -0.1949  2.5654  0.8390
 3884TIP3    H233288   3.068   0.088   2.303  0.5570  0.8567 -0.8068
 3885TIP3   OH233289   2.268   0.343   8.104  0.1651 -0.0053  0.4593
 3885TIP3    H133290   2.233   0.271   8.157 -2.5122  0.0706 -1.0683
 3885TIP3    H233291   2.333   0.300   8.047  1.8514 -0.3601  2.4913
 3886TIP3   OH233292   0.956   4.867   2.755  0.1027  0.2946  0.3354
 3886TIP3    H133293   0.886   4.837   2.812  1.0370  0.3231  1.5634
 3886TIP3    H233294   0.912   4.912   2.684 -1.1035  2.2135  2.1718
 3887TIP3   OH233295   1.473   3.314   2.561 -0.2792 -0.9397  0.0980
 3887TIP3    H133296   1.474   3.394   2.614 -0.0997 -0.0559 -1.1960
 3887TIP3    H233297   1.418   3.253   2.611 -0.6815  0.0937  0.9585
 3888TIP3   OH233298   0.759   2.350   1.468  0.3876 -0.1289 -0.1918
 3888TIP3    H133299   0.784   2.266   1.429  0.6135 -0.1821  0.0583
 3888TIP3    H233300   0.758   2.333   1.562  1.5561  0.4277 -0.0565
 3889TIP3   OH233301   1.146   4.211   0.983  0.0970  0.4725 -0.3529
 3889TIP3    H133302   1.240   4.228   0.976  0.4026  0.0653  2.0167
 3889TIP3    H233303   1.131   4.134   0.927  1.1282  0.6502 -0.8868
 3890TIP3   OH233304   5.124   6.469   0.879 -0.5218 -0.2819  0.9122
 3890TIP3    H133305   5.114   6.549   0.829  0.6031  0.7261  2.1985
 3890TIP3    H233306   5.048   6.467   0.937 -1.5494 -1.1791 -0.4031
 3891TIP3   OH233307   3.892   2.044   1.689 -0.4341  0.1108 -0.1955
 3891TIP3    H133308   3.956   1.981   1.723 -1.8905 -2.0868 -1.2645
 3891TIP3    H233309   3.938   2.128   1.691  1.4184 -0.8367  1.8627
 3892TIP3   OH233310   2.186   1.301   1.413 -0.0560 -0.0128  0.4058
 3892TIP3    H133311   2.175   1.251   1.494 -2.0986  1.3703  1.0612
 3892TIP3    H233312   2.152   1.243   1.345 -0.3679 -0.3392  0.8314
 3893TIP3   OH233313   5.188   2.964   8.187  0.1751  0.0176 -0.2873
 3893TIP3    H133314   5.105   3.006   8.163  0.4157  0.0760 -1.0407
 3893TIP3    H233315   5.254   3.033   8.177  0.6330 -0.6091 -1.9234
 3894TIP3   OH233316   2.014   0.675   6.356  0.2360  0.2842  0.2049
 3894TIP3    H133317   1.921   0.675   6.334  0.0636 -0.1782  0.8683
 3894TIP3    H233318   2.047   0.593   6.319  0.7486  1.1832 -1.4070
 3895TIP3   OH233319   0.474   6.504   0.264  0.1812 -0.2013 -0.3904
 3895TIP3    H133320   0.537   6.473   0.199  1.2420  1.2097 -0.0861
 3895TIP3    H233321   0.528   6.531   0.339 -0.2690  4.4809 -1.4187
 3896TIP3   OH233322   1.033   2.208   7.148 -0.1493  0.0067 -0.2624
 3896TIP3    H133323   1.051   2.276   7.213  2.8928 -0.8532 -0.0290
 3896TIP3    H233324   1.089   2.231   7.073  1.2955 -2.3312 -0.0143
 3897TIP3   OH233325   6.636   6.759   2.608 -0.3265 -0.1140 -0.1867
 3897TIP3    H133326   6.700   6.764   2.679 -1.1594 -3.1325  0.9328
 3897TIP3    H233327   6.563   6.709   2.645 -0.8013 -1.8322 -3.1397
 3898TIP3   OH233328   2.488   4.024   1.550 -0.6879  0.2507  0.2058
 3898TIP3    H133329   2.457   4.060   1.634 -1.4358  0.0261  0.0328
 3898TIP3    H233330   2.420   3.962   1.524 -1.2819  1.4743 -1.3492
 3899TIP3   OH233331   6.000   4.007   0.186 -0.0548 -0.0332 -0.4588
 3899TIP3    H133332   6.057   3.974   0.256 -0.1816  1.0603  0.1888
 3899TIP3    H233333   6.061   4.045   0.122 -0.0165  1.8929  0.6273
 3900TIP3   OH233334   4.827   5.757   6.879 -0.2219  0.3727  0.2067
 3900TIP3    H133335   4.783   5.697   6.820  1.8238 -1.6545  0.5945
 3900TIP3    H233336   4.883   5.810   6.821 -1.9671  1.9371 -0.1260
 3901TIP3   OH233337   0.465   2.936   7.204  0.1015 -0.0511  0.7450
 3901TIP3    H133338   0.416   2.880   7.264 -0.9534  0.6569  0.5666
 3901TIP3    H233339   0.419   3.020   7.206 -1.0419 -0.4762 -2.3401
 3902TIP3   OH233340   1.909   5.021   7.800 -0.2427 -0.3030  0.2561
 3902TIP3    H133341   1.820   5.024   7.835 -0.6613  0.1325 -0.8086
 3902TIP3    H233342   1.919   4.932   7.766 -0.1470 -0.4542  0.6743
 3903TIP3   OH233343   6.642   1.053   0.076 -0.6136  0.3778  0.2977
 3903TIP3    H133344   6.663   1.146   0.078 -0.4001  0.3468 -0.2645
 3903TIP3    H233345   6.558   1.046   0.122 -0.4882  0.8050  0.5919
 3904TIP3   OH233346   2.287   4.982   0.686 -0.0749  0.0878 -0.2486
 3904TIP3    H133347   2.200   5.019   0.700 -0.9218 -2.1236  0.8229
 3904TIP3    H233348   2.272   4.888   0.678  1.9842 -0.1485 -2.5297
 3905TIP3   OH233349   1.533   3.073   1.252  0.1050  0.3357  0.3139
 3905TIP3    H133350   1.600   3.122   1.300  1.0161 -0.0004 -0.5660
 3905TIP3    H233351   1.571   3.060   1.165 -0.8186 -0.4764  0.0134
 3906TIP3   OH233352   5.601   5.380   8.071 -0.3491 -0.0794 -0.5047
 3906TIP3    H133353   5.560   5.337   7.996  0.3490  0.2631 -1.1071
 3906TIP3    H233354   5.542   5.452   8.093  0.1537  0.7561 -1.7187
 3907TIP3   OH233355   4.470   6.079   8.245  0.0657 -0.0239 -0.1538
 3907TIP3    H133356   4.449   5.986   8.250  1.2851 -0.3237 -0.4158
 3907TIP3    H233357   4.389   6.123   8.270  0.0963 -1.1575  2.1812
 3908TIP3   OH233358   1.572   3.726   2.131 -0.6682  0.0172 -0.4349
 3908TIP3    H133359   1.654   3.773   2.146 -0.7417 -0.2636  0.9145
 3908TIP3    H233360   1.559   3.672   2.209 -2.2148  0.1589 -0.5515
 3909TIP3   OH233361   2.448   3.627   0.309 -0.0375  0.2329  0.4814
 3909TIP3    H133362   2.461   3.646   0.216  1.9229  0.3300  0.7430
 3909TIP3    H233363   2.387   3.695   0.338  0.3287  0.9987 -0.4671
 3910TIP3   OH233364   1.616   6.940   2.355  0.1629  0.5091 -0.0919
 3910TIP3    H133365   1.587   6.945   2.446 -0.4712 -0.7691 -0.2144
 3910TIP3    H233366   1.542   6.904   2.307  1.5055 -1.8249 -0.5851
 3911TIP3   OH233367   0.391   0.199   7.838 -0.4050 -0.5644 -0.7082
 3911TIP3    H133368   0.380   0.127   7.900 -0.4669  1.2391  1.4918
 3911TIP3    H233369   0.485   0.203   7.823 -0.2025 -0.0278  0.5758
 3912TIP3   OH233370   6.074   1.341   7.191 -0.4674  0.0446 -0.2369
 3912TIP3    H133371   6.033   1.400   7.254 -1.5450 -0.9834  0.0459
 3912TIP3    H233372   6.093   1.397   7.115 -1.4956  0.7515  0.0101
 3913TIP3   OH233373   1.438   5.443   1.346  0.1839  0.4481 -0.5165
 3913TIP3    H133374   1.407   5.451   1.436 -1.8436  2.2143 -1.2962
 3913TIP3    H233375   1.446   5.349   1.332 -0.2801  0.1057  1.2327
 3914TIP3   OH233376   3.233   5.760   1.181  0.0370  0.0234  0.1408
 3914TIP3    H133377   3.228   5.664   1.179  0.2882  0.0153 -0.6877
 3914TIP3    H233378   3.313   5.780   1.131  0.8860  0.6096  1.6630
 3915TIP3   OH233379   2.273   5.211   1.212  0.0702 -0.0367 -0.6527
 3915TIP3    H133380   2.363   5.190   1.237  0.5723  1.0989 -1.4084
 3915TIP3    H233381   2.219   5.151   1.264  1.2651 -0.9729 -0.4352
 3916TIP3   OH233382   1.606   4.427   7.871  0.1926 -0.0146 -0.2343
 3916TIP3    H133383   1.670   4.488   7.907 -1.5592  0.8217  1.6729
 3916TIP3    H233384   1.548   4.482   7.818  0.3029 -0.5421 -0.9117
 3917TIP3   OH233385   1.179   1.592   7.370  0.7170 -0.0182 -0.0875
 3917TIP3    H133386   1.147   1.627   7.287 -0.3081 -0.2148  0.2122
 3917TIP3    H233387   1.130   1.640   7.437 -0.3857 -1.6514  0.3358
 3918TIP3   OH233388   5.052   0.285   8.201 -0.1134  0.2602  0.6363
 3918TIP3    H133389   4.978   0.246   8.155  0.9229 -0.9276 -0.0959
 3918TIP3    H233390   5.016   0.315   8.284 -1.0755 -1.8574  1.0434
 3919TIP3   OH233391   3.085   5.241   1.681 -0.1363 -0.4890  0.7655
 3919TIP3    H133392   2.991   5.231   1.669  0.0918 -1.5387 -0.4231
 3919TIP3    H233393   3.094   5.307   1.749 -1.7242 -0.1931  0.7270
 3920TIP3   OH233394   6.401   0.497   0.899 -0.1859 -0.0280 -0.1253
 3920TIP3    H133395   6.352   0.577   0.919 -1.5682 -1.4903  3.0952
 3920TIP3    H233396   6.436   0.469   0.983  2.1400 -1.7012 -1.5316
 3921TIP3   OH233397   6.218   2.579   8.371 -0.0300  0.1680 -0.0336
 3921TIP3    H133398   6.182   2.640   8.435  1.3655 -0.0075  0.9720
 3921TIP3    H233399   6.176   2.495   8.391  0.2597  0.1567  0.5552
 3922TIP3   OH233400   6.722   2.323   2.539 -0.1148  0.1693  0.1287
 3922TIP3    H133401   6.728   2.261   2.612 -1.3294 -0.8887 -0.6454
 3922TIP3    H233402   6.723   2.409   2.582  2.7299 -0.2529  1.1590
 3923TIP3   OH233403   2.084   2.008   1.009 -0.2867  0.1678  0.1400
 3923TIP3    H133404   2.088   2.087   1.062 -0.4157  0.2297  0.0607
 3923TIP3    H233405   1.994   2.008   0.974  0.0936  0.6665 -0.8853
 3924TIP3   OH233406   1.164   5.951   0.018 -0.4072 -0.1471 -0.0373
 3924TIP3    H133407   1.216   5.987   0.090  0.1393 -0.4595 -0.2787
 3924TIP3    H233408   1.199   5.993  -0.060 -2.6257  2.1500  0.0530
 3925TIP3   OH233409   1.203   4.916   0.115 -0.1868 -0.2195 -0.0115
 3925TIP3    H133410   1.234   4.826   0.105  0.9567 -0.1052  1.9325
 3925TIP3    H233411   1.179   4.923   0.207  0.6984  1.7285  0.1345
 3926TIP3   OH233412   0.983   3.056   7.529  0.3736 -0.5603  0.1703
 3926TIP3    H133413   0.919   2.995   7.566  2.1981 -1.8035  1.4438
 3926TIP3    H233414   1.021   3.100   7.605 -0.3562  1.6882 -0.6865
 3927TIP3   OH233415   0.504   1.061   0.104 -0.4609  0.0894 -0.0536
 3927TIP3    H133416   0.596   1.083   0.099 -0.3379 -0.0880  1.1237
 3927TIP3    H233417   0.487   1.010   0.025  1.1416 -2.2588  0.9907
 3928TIP3   OH233418   1.186   2.741   1.925 -0.2746 -0.0467 -0.3453
 3928TIP3    H133419   1.233   2.743   2.008 -2.3273 -0.0069  0.8988
 3928TIP3    H233420   1.188   2.832   1.894  1.9176 -0.3414 -1.2693
 3929TIP3   OH233421   2.446   5.457   0.180  0.2281 -0.2246 -0.1562
 3929TIP3    H133422   2.420   5.371   0.149 -0.2795 -0.8128  1.7543
 3929TIP3    H233423   2.364   5.497   0.212  0.6412  0.4841  0.0466
 3930TIP3   OH233424   4.054   5.478   7.636 -0.0560  0.1200 -0.0792
 3930TIP3    H133425   4.025   5.388   7.620 -0.7079  0.4922 -1.0655
 3930TIP3    H233426   4.114   5.497   7.564  1.5945 -0.1519  1.1668
 3931TIP3   OH233427   4.574   1.442   2.256  0.0682  0.6082  0.2294
 3931TIP3    H133428   4.488   1.408   2.278  0.0975  1.3536  1.5929
 3931TIP3    H233429   4.590   1.511   2.320  2.8823 -1.3918  1.9047
 3932TIP3   OH233430   3.947   1.790   0.501 -0.3253  0.1056 -0.1945
 3932TIP3    H133431   3.932   1.795   0.595  1.4517  0.6904  0.0891
 3932TIP3    H233432   4.016   1.725   0.490 -0.6412 -0.0937 -1.1129
 3933TIP3   OH233433   5.266   4.379   1.834 -0.6780 -0.4221 -0.0188
 3933TIP3    H133434   5.326   4.413   1.900 -0.0330 -4.2217  1.6178
 3933TIP3    H233435   5.300   4.414   1.751 -0.4319  3.0197  1.3896
 3934TIP3   OH233436   1.840   1.851   8.471 -0.0228 -0.4083  0.6164
 3934TIP3    H133437   1.919   1.800   8.455 -0.0727  0.1282 -1.6084
 3934TIP3    H233438   1.769   1.796   8.438 -0.3919 -0.1106  0.9043
 3935TIP3   OH233439   3.338   4.271   8.256  0.1153 -0.0515 -0.0125
 3935TIP3    H133440   3.289   4.329   8.314 -0.7124  0.6110 -1.3250
 3935TIP3    H233441   3.422   4.315   8.245 -0.3532  0.7066 -0.6631
 3936TIP3   OH233442   6.706   6.620   1.916  0.8246  0.0685  0.1210
 3936TIP3    H133443   6.747   6.570   1.987  3.1946  0.6930 -0.7286
 3936TIP3    H233444   6.767   6.614   1.843 -1.8674 -1.1838 -2.2277
 3937TIP3   OH233445   4.740   2.324   0.285 -0.0456  0.3541  0.2813
 3937TIP3    H133446   4.804   2.277   0.338 -0.6257 -0.7291  0.0592
 3937TIP3    H233447   4.683   2.368   0.348 -0.5074 -0.6214  0.5526
 3938TIP3   OH233448   0.398   2.202   7.148 -0.2045  0.3724  0.5617
 3938TIP3    H133449   0.337   2.260   7.103  1.9451  3.2628  1.0905
 3938TIP3    H233450   0.469   2.190   7.085  0.7268  0.7253  1.5256
 3939TIP3   OH233451   2.272   1.985   8.000  0.6981  0.2317 -0.2826
 3939TIP3    H133452   2.349   1.933   8.025 -0.7846 -2.1151 -0.2826
 3939TIP3    H233453   2.263   2.049   8.071  0.5304 -1.8816  1.7140
 3940TIP3   OH233454   0.888   5.431   0.975 -0.0073  0.9826 -0.2861
 3940TIP3    H133455   0.854   5.406   1.060  0.7596  0.2095 -0.1933
 3940TIP3    H233456   0.962   5.371   0.959 -0.5409  0.6607 -1.7794
 3941TIP3   OH233457   0.165   2.665   0.545 -0.0992 -0.1265  0.0215
 3941TIP3    H133458   0.165   2.620   0.629 -1.5119 -0.6070 -0.2189
 3941TIP3    H233459   0.233   2.620   0.494 -2.7885 -3.4875 -0.9427
 3942TIP3   OH233460   6.189   2.908   1.713 -0.3230 -0.2687  0.5549
 3942TIP3    H133461   6.224   2.824   1.744  0.4352  0.3347  1.3494
 3942TIP3    H233462   6.263   2.969   1.719 -0.6590  0.3001 -0.7136
 3943TIP3   OH233463   6.273   5.327   1.587 -0.3140  0.2051  0.4493
 3943TIP3    H133464   6.362   5.292   1.588 -0.7051 -0.9964 -1.2018
 3943TIP3    H233465   6.281   5.412   1.543 -0.1015 -0.4050 -0.7324
 3944TIP3   OH233466   5.044   2.781   8.368  0.2169 -0.1754  0.1641
 3944TIP3    H133467   5.111   2.821   8.313 -1.7699  1.2680 -1.3206
 3944TIP3    H233468   5.015   2.851   8.427 -0.7051 -0.4544  0.0658
 3945TIP3   OH233469   3.581   4.012   1.463 -0.2160  0.0619  0.6421
 3945TIP3    H133470   3.582   3.922   1.432 -2.7311  0.1671  0.0895
 3945TIP3    H233471   3.505   4.017   1.521  0.8512  1.4331  2.0055
 3946TIP3   OH233472   4.403   0.118   6.289  0.1334 -0.2028 -1.0382
 3946TIP3    H133473   4.451   0.135   6.370  0.9779  1.4750 -1.8320
 3946TIP3    H233474   4.324   0.172   6.296 -0.5324 -1.1983 -0.7157
 3947TIP3   OH233475   5.812   2.118   0.507  0.4144 -0.6855  0.1137
 3947TIP3    H133476   5.758   2.069   0.445 -0.4625  0.4685 -0.0678
 3947TIP3    H233477   5.862   2.179   0.451 -2.1844  2.1321  0.5679
 3948TIP3   OH233478   1.715   3.956   1.369  0.4734  0.2849  0.0164
 3948TIP3    H133479   1.645   4.016   1.342  1.9311  2.2095  0.2865
 3948TIP3    H233480   1.718   3.966   1.464  2.9107  2.4669 -0.1825
 3949TIP3   OH233481   4.167   5.870   7.642 -0.1736 -0.4014  0.1971
 3949TIP3    H133482   4.079   5.845   7.669 -0.7325  0.2293 -0.9867
 3949TIP3    H233483   4.178   5.959   7.676 -0.4406 -0.0464 -0.6213
 3950TIP3   OH233484   3.304   0.933   0.834  0.3076  0.2618 -0.5181
 3950TIP3    H133485   3.383   0.973   0.872 -0.3852  1.0679  0.1180
 3950TIP3    H233486   3.319   0.839   0.841  0.8072  0.4016  0.4933
 3951TIP3   OH233487   3.408   0.633   0.663 -0.5460  0.1946  0.0566
 3951TIP3    H133488   3.371   0.712   0.623 -0.4080 -0.1624 -0.8055
 3951TIP3    H233489   3.437   0.581   0.588  0.9496  0.0943  0.6793
 3952TIP3   OH233490   0.981   4.139   2.404  0.0439 -0.3690 -0.5073
 3952TIP3    H133491   0.978   4.110   2.495  0.4083 -0.6543 -0.5849
 3952TIP3    H233492   0.922   4.214   2.401  0.5404  0.0619  0.1181
 3953TIP3   OH233493   5.552   5.227   2.076  0.2556  0.5733  0.3872
 3953TIP3    H133494   5.531   5.317   2.049 -0.4230  0.4941  0.6191
 3953TIP3    H233495   5.561   5.233   2.171 -0.0623  0.3464  0.4323
 3954TIP3   OH233496   3.441   2.176   0.412  0.3586  0.4471  0.2700
 3954TIP3    H133497   3.487   2.156   0.493  1.6238 -1.9867 -0.9257
 3954TIP3    H233498   3.453   2.271   0.400  1.4433  0.5897  2.1239
 3955TIP3   OH233499   4.396   0.466   6.403 -0.0982  0.6152  0.3056
 3955TIP3    H133500   4.334   0.408   6.360  1.1637 -1.9428  1.7229
 3955TIP3    H233501   4.380   0.552   6.363 -1.9907 -0.6689 -1.9543
 3956TIP3   OH233502   0.649   4.550   8.435 -0.0205 -0.6298 -0.1820
 3956TIP3    H133503   0.660   4.463   8.473  1.0974 -0.1240  0.7054
 3956TIP3    H233504   0.574   4.541   8.376  0.2341 -2.2533 -0.3085
 3957TIP3   OH233505   5.491   5.353   7.812 -0.2902  0.2983 -0.3231
 3957TIP3    H133506   5.526   5.345   7.724 -0.4707 -1.1671 -0.2959
 3957TIP3    H233507   5.444   5.436   7.812 -0.4860  0.2114 -1.6788
 3958TIP3   OH233508   4.586   3.696   1.474  0.2232 -0.4458 -0.0787
 3958TIP3    H133509   4.631   3.713   1.557  1.1949  2.1748 -1.0505
 3958TIP3    H233510   4.654   3.663   1.415  0.3513  1.0751 -0.8172
 3959TIP3   OH233511   0.237   2.924   0.733 -0.4838  0.0391  0.2039
 3959TIP3    H133512   0.316   2.908   0.681  0.0094 -1.4598  1.3205
 3959TIP3    H233513   0.171   2.866   0.695 -0.8500  0.7436 -0.2596
 3960TIP3   OH233514   4.229   0.392   6.630 -0.0972  0.1265 -0.4407
 3960TIP3    H133515   4.298   0.420   6.569  0.5951 -1.9497 -0.7069
 3960TIP3    H233516   4.151   0.385   6.575  0.0779  0.0862 -0.6877
 3961TIP3   OH233517   6.713   3.418   8.376 -0.1038  0.5165 -0.9894
 3961TIP3    H133518   6.681   3.329   8.362  0.8542  0.1478 -0.9118
 3961TIP3    H233519   6.634   3.472   8.382 -0.7367 -0.5019  0.2072
 3962TIP3   OH233520   6.654   4.630   1.417 -0.2992  0.4857 -0.0721
 3962TIP3    H133521   6.702   4.559   1.461  1.3131  1.1706 -0.6345
 3962TIP3    H233522   6.587   4.656   1.480  1.4863  0.9649  1.7343
 3963TIP3   OH233523   0.953   0.518   1.715  0.2625 -0.2291 -0.3715
 3963TIP3    H133524   1.005   0.595   1.735 -2.0431  1.6489 -1.1024
 3963TIP3    H233525   0.938   0.476   1.799  1.2457  0.3045  0.0831
 3964TIP3   OH233526   0.993   2.168   2.020 -0.1635 -0.2439  0.6479
 3964TIP3    H133527   1.039   2.164   2.104 -1.0337 -1.6703  1.0830
 3964TIP3    H233528   0.900   2.165   2.043 -0.4012 -1.8344 -0.3818
 3965TIP3   OH233529   1.592   1.492   1.044 -0.1177 -0.1582  0.2576
 3965TIP3    H133530   1.649   1.471   1.118 -0.5309  2.1170  1.2962
 3965TIP3    H233531   1.512   1.441   1.059  0.9914 -2.2752 -0.4664
 3966TIP3   OH233532   0.717   1.953   8.386  0.4866  0.0223  0.5777
 3966TIP3    H133533   0.778   1.915   8.323  0.0206 -0.1140  0.2119
 3966TIP3    H233534   0.744   1.917   8.471  0.0643 -1.1117  0.2424
 3967TIP3   OH233535   6.555   2.616   7.428 -0.1905  0.2413 -0.3338
 3967TIP3    H133536   6.532   2.708   7.443 -1.5984 -0.3398  1.4963
 3967TIP3    H233537   6.514   2.594   7.344 -0.0441  1.2176 -0.6710
 3968TIP3   OH233538   1.964   6.161   0.879  0.3236  0.0229 -0.4029
 3968TIP3    H133539   1.982   6.218   0.804  1.0084 -0.5789 -0.6985
 3968TIP3    H233540   1.868   6.162   0.886  0.3166  3.0943  1.0631
 3969TIP3   OH233541   6.088   4.788   2.123  0.3600  0.1177 -0.1174
 3969TIP3    H133542   6.072   4.707   2.074 -0.7240 -0.1936  0.7179
 3969TIP3    H233543   6.173   4.773   2.165  0.4887 -0.3085 -0.5221
 3970TIP3   OH233544   4.943   6.297   6.452  0.4532 -0.6911  0.0034
 3970TIP3    H133545   4.930   6.244   6.373 -0.1159 -1.5174  0.6307
 3970TIP3    H233546   5.000   6.368   6.424 -0.1746 -0.6679 -1.2853
 3971TIP3   OH233547   0.889   5.156   1.633  0.8951  0.1278  0.1128
 3971TIP3    H133548   0.966   5.204   1.602 -0.3614  1.7447 -0.6263
 3971TIP3    H233549   0.861   5.105   1.557  0.9630 -0.1194  0.2509
 3972TIP3   OH233550   1.424   5.155   7.445  0.6189 -0.1191  0.2853
 3972TIP3    H133551   1.363   5.082   7.435 -0.1977  0.5473  0.2219
 3972TIP3    H233552   1.402   5.214   7.372  1.1806  0.2387  0.4019
 3973TIP3   OH233553   1.314   6.565   8.329 -0.2710 -0.4282 -0.1036
 3973TIP3    H133554   1.285   6.560   8.420  1.0377 -0.5454  0.3291
 3973TIP3    H233555   1.236   6.593   8.280 -0.9036 -0.0347  1.0966
 3974TIP3   OH233556   0.546   1.762   0.382 -1.1576 -0.2561 -0.0015
 3974TIP3    H133557   0.618   1.700   0.390  0.1865  1.4304  2.6785
 3974TIP3    H233558   0.509   1.768   0.470 -2.5574  1.2115 -0.6338
 3975TIP3   OH233559   2.110   0.336   1.712  0.6084  0.1967 -0.6626
 3975TIP3    H133560   2.158   0.255   1.694 -1.0025 -0.9546 -0.0182
 3975TIP3    H233561   2.173   0.390   1.760  0.9812 -1.7262  1.2146
 3976TIP3   OH233562   6.890   0.299   0.808  0.1192  0.0126  0.3126
 3976TIP3    H133563   6.797   0.279   0.805 -0.0930  0.4446  2.4732
 3976TIP3    H233564   6.901   0.372   0.747 -0.8583 -0.2911 -0.2499
 3977TIP3   OH233565   6.756   5.761   1.391  0.1235 -0.0552  0.1004
 3977TIP3    H133566   6.699   5.825   1.435 -0.4227  0.2584 -1.0335
 3977TIP3    H233567   6.721   5.755   1.302  0.6237 -1.3979 -0.0229
 3978TIP3   OH233568   2.402   2.197   0.945 -0.3076  0.3094 -0.3225
 3978TIP3    H133569   2.374   2.214   1.035 -0.9415 -1.9054 -0.0444
 3978TIP3    H233570   2.450   2.115   0.950 -0.3653  0.1378 -2.0245
 3979TIP3   OH233571   4.538   6.246   0.535  0.6964  0.3557 -0.3022
 3979TIP3    H133572   4.551   6.190   0.612 -0.0412 -1.4225 -1.3944
 3979TIP3    H233573   4.581   6.199   0.463  1.2913  1.9237 -1.0318
 3980TIP3   OH233574   2.725   0.141   7.452  0.1195  0.2542  0.2566
 3980TIP3    H133575   2.776   0.076   7.500  3.0231  1.0897 -1.4298
 3980TIP3    H233576   2.643   0.096   7.431  1.1933 -2.1595  0.8569
 3981TIP3   OH233577   6.040   0.322   7.599 -0.5463  0.0421 -0.0534
 3981TIP3    H133578   5.970   0.363   7.649  0.1931  2.8251 -1.1073
 3981TIP3    H233579   6.117   0.326   7.656 -0.6893 -0.8479  0.2148
 3982TIP3   OH233580   5.645   3.038   3.010  0.2619 -0.1455 -0.3233
 3982TIP3    H133581   5.651   2.975   3.082  0.0220  2.4092  2.0908
 3982TIP3    H233582   5.555   3.029   2.979  0.4676 -1.5271 -0.5903
 3983TIP3   OH233583   2.251   2.958   0.171 -0.2341 -0.4571 -0.2235
 3983TIP3    H133584   2.262   3.003   0.255 -0.3026 -1.2237  0.1986
 3983TIP3    H233585   2.340   2.949   0.137 -0.2491  0.3717 -0.5225
 3984TIP3   OH233586   2.313   1.177   6.645  0.0900  0.3002 -0.3109
 3984TIP3    H133587   2.356   1.260   6.626 -0.9606  0.6292 -1.4343
 3984TIP3    H233588   2.305   1.175   6.740  0.1207  1.5058 -0.2671
 3985TIP3   OH233589   5.731   0.045   2.866 -0.1916 -0.2305 -0.2702
 3985TIP3    H133590   5.649   0.091   2.845  0.0353 -0.2228 -1.2160
 3985TIP3    H233591   5.799   0.107   2.842  0.0983  0.0927  1.3235
 3986TIP3   OH233592   1.192   1.596   0.320  0.0118  0.5596 -0.0014
 3986TIP3    H133593   1.252   1.521   0.324  0.9887  1.2188 -1.4140
 3986TIP3    H233594   1.162   1.607   0.410 -0.9244 -2.1007  0.1241
 3987TIP3   OH233595   1.618   4.671   0.101 -0.0438  0.7848 -0.3718
 3987TIP3    H133596   1.612   4.581   0.068 -0.6686  1.2255 -1.5110
 3987TIP3    H233597   1.706   4.677   0.137 -0.3959 -0.6550  0.8704
 3988TIP3   OH233598   3.668   2.123   7.845  0.7653 -0.4474 -0.3222
 3988TIP3    H133599   3.586   2.166   7.868  0.5299 -1.1707  0.2199
 3988TIP3    H233600   3.645   2.032   7.830  1.2482 -0.3933 -1.5460
 3989TIP3   OH233601   4.733   6.543   0.241  0.2012 -0.2740 -0.1956
 3989TIP3    H133602   4.762   6.502   0.323  1.1726  2.1037  0.7233
 3989TIP3    H233603   4.770   6.487   0.173  0.6976 -1.4435  0.9746
 3990TIP3   OH233604   1.700   3.275   8.423  0.9325  0.1729 -0.7879
 3990TIP3    H133605   1.676   3.217   8.495  1.0467 -0.5237 -1.3006
 3990TIP3    H233606   1.772   3.328   8.458 -1.1829  2.2152  0.7362
 3991TIP3   OH233607   3.222   0.209   7.867  0.1426 -0.7165 -0.0228
 3991TIP3    H133608   3.302   0.260   7.855  0.0432 -0.7089 -0.7535
 3991TIP3    H233609   3.162   0.245   7.802 -0.2977 -1.0336  0.2063
 3992TIP3   OH233610   2.528   0.793   1.262 -0.0462 -0.0050 -0.1994
 3992TIP3    H133611   2.616   0.792   1.225 -0.3725 -1.6175 -1.0078
 3992TIP3    H233612   2.537   0.749   1.347  1.1420  5.5192  3.0591
 3993TIP3   OH233613   2.496   4.887   8.384  0.1637  0.5279 -0.2567
 3993TIP3    H133614   2.408   4.851   8.396  0.6507 -0.7183 -0.3460
 3993TIP3    H233615   2.481   4.972   8.342 -1.0886  1.1239  1.2756
 3994TIP3   OH233616   5.950   1.825   7.900  0.1921  0.0923 -0.3491
 3994TIP3    H133617   5.885   1.807   7.968  0.5167 -0.2480 -0.1259
 3994TIP3    H233618   5.992   1.906   7.928  1.2212 -0.7108  0.5621
 3995TIP3   OH233619   1.487   4.226   6.803  0.2701  0.5088 -0.4419
 3995TIP3    H133620   1.537   4.305   6.781  0.8653  0.2908  0.0794
 3995TIP3    H233621   1.397   4.257   6.813  0.1849  0.8027 -1.9888
 3996TIP3   OH233622   6.037   1.861   2.160 -0.3707 -0.2528  0.2076
 3996TIP3    H133623   5.995   1.942   2.128 -0.6966  0.3018  1.9181
 3996TIP3    H233624   6.015   1.859   2.253  1.7475 -1.0199  0.7335
 3997TIP3   OH233625   6.731   3.402   2.202  0.4383  0.5844  1.0055
 3997TIP3    H133626   6.645   3.436   2.230 -0.4265  1.0261 -1.8496
 3997TIP3    H233627   6.769   3.473   2.151  1.4270 -0.4943  0.1967
 3998TIP3   OH233628   5.509   6.854   8.349 -0.0407  0.3523 -0.1704
 3998TIP3    H133629   5.423   6.858   8.308 -1.0597 -1.5911  1.5844
 3998TIP3    H233630   5.524   6.943   8.382 -0.7694  1.0298 -1.6086
 3999TIP3   OH233631   1.297   2.960   7.130  0.1282  0.1832 -0.3848
 3999TIP3    H133632   1.357   2.977   7.058 -0.5874  1.6607 -0.6652
 3999TIP3    H233633   1.353   2.926   7.200  0.8985 -0.8497 -1.4574
 4000TIP3   OH233634   2.355   3.130   7.735  0.5775 -0.6810  0.1533
 4000TIP3    H133635   2.322   3.059   7.789 -1.7238  0.7158  0.6993
 4000TIP3    H233636   2.374   3.200   7.797 -0.0063  0.1838 -0.6279
 4001TIP3   OH233637   1.554   6.560   7.483  0.0121  0.1456  0.1856
 4001TIP3    H133638   1.527   6.629   7.422 -2.0805 -1.5259 -0.9124
 4001TIP3    H233639   1.600   6.496   7.428  2.8952  1.0655  1.3679
 4002TIP3   OH233640   2.501   5.193   0.852 -0.4869  0.0179  0.0063
 4002TIP3    H133641   2.436   5.166   0.917 -0.4156 -0.8619 -0.2888
 4002TIP3    H233642   2.524   5.113   0.805  0.5374  0.3888 -0.1448
 4003TIP3   OH233643   5.334   0.389   7.476 -0.3227  0.1664 -0.1619
 4003TIP3    H133644   5.376   0.475   7.476  0.0099  0.0262  1.0520
 4003TIP3    H233645   5.345   0.357   7.386  0.3412  1.0147 -0.3969
 4004TIP3   OH233646   0.675   3.769   0.316 -0.1992 -0.0381 -0.3047
 4004TIP3    H133647   0.691   3.832   0.245  1.3884 -0.7305 -0.5851
 4004TIP3    H233648   0.762   3.743   0.346 -0.6889 -3.4862 -1.4245
 4005TIP3   OH233649   2.027   0.735   8.424 -0.5047  0.0318  0.5053
 4005TIP3    H133650   1.937   0.704   8.440 -0.2338 -0.7356  0.6174
 4005TIP3    H233651   2.043   0.797   8.495 -1.7161  1.9146 -0.7880
 4006TIP3   OH233652   4.329   4.115   8.001  0.9383 -0.0172 -0.0624
 4006TIP3    H133653   4.311   4.083   8.089  1.4594 -2.0725 -0.6528
 4006TIP3    H233654   4.424   4.104   7.990  0.7829 -0.4553 -1.1158
 4007TIP3   OH233655   6.186   0.197   8.064  0.0818 -0.4389 -0.2906
 4007TIP3    H133656   6.182   0.144   7.984 -1.9569 -0.6464 -0.1161
 4007TIP3    H233657   6.274   0.182   8.099  0.3111 -1.9580 -1.4251
 4008TIP3   OH233658   1.164   1.779   0.591 -0.2812  0.3043 -0.3790
 4008TIP3    H133659   1.187   1.871   0.584  0.3831  0.0299 -2.3574
 4008TIP3    H233660   1.248   1.734   0.604 -0.5191 -0.0935 -0.1865
 4009TIP3   OH233661   1.259   3.962   0.549 -0.2400  0.5602  0.3233
 4009TIP3    H133662   1.345   4.003   0.538  0.5742 -1.0722  0.2671
 4009TIP3    H233663   1.272   3.871   0.519 -1.6752 -0.0470  1.4395
 4010TIP3   OH233664   1.619   1.338   2.232  0.1368 -0.2955 -0.0011
 4010TIP3    H133665   1.525   1.317   2.234 -0.2548  1.3833  1.1996
 4010TIP3    H233666   1.629   1.398   2.159  0.4157 -0.9736 -0.5321
 4011TIP3   OH233667   4.454   1.343   7.156 -0.7629  0.0739 -0.0244
 4011TIP3    H133668   4.492   1.423   7.117  0.8005 -1.5524 -2.1118
 4011TIP3    H233669   4.362   1.347   7.132 -0.6058  1.0229 -0.5693
 4012TIP3   OH233670   4.003   6.355   8.064 -0.0364 -0.4891  0.9700
 4012TIP3    H133671   3.965   6.391   8.144 -1.8515 -0.1165 -0.0111
 4012TIP3    H233672   3.986   6.422   7.998  1.3877 -0.8203  0.2334
 4013TIP3   OH233673   2.757   6.377   6.885  0.0024  0.5243  0.3982
 4013TIP3    H133674   2.835   6.399   6.835 -1.0865  2.1471 -0.7337
 4013TIP3    H233675   2.775   6.292   6.924  2.2113  0.7537 -0.0062
 4014TIP3   OH233676   3.165   2.806   0.714 -0.3709  0.1701 -0.1782
 4014TIP3    H133677   3.226   2.861   0.763  1.7825 -1.3567 -0.9939
 4014TIP3    H233678   3.194   2.813   0.623  0.1870 -2.4544 -0.2902
 4015TIP3   OH233679   1.123   4.419   0.808  0.0853 -0.7564  0.6312
 4015TIP3    H133680   1.116   4.383   0.719  1.7011 -0.7343  0.4712
 4015TIP3    H233681   1.133   4.341   0.863 -0.7394 -0.7596  0.7847
 4016TIP3   OH233682   3.094   0.300   1.593  0.7584 -0.1507  0.2613
 4016TIP3    H133683   3.173   0.295   1.539  1.0732  0.4816  0.6558
 4016TIP3    H233684   3.063   0.209   1.597  2.1113 -0.6141  1.0388
 4017TIP3   OH233685   3.151   4.328   1.018  0.0765  0.4949 -0.5047
 4017TIP3    H133686   3.110   4.354   1.101  0.5618 -1.3422  0.3741
 4017TIP3    H233687   3.237   4.295   1.043  0.2296 -0.1117 -1.7460
 4018TIP3   OH233688   1.411   2.384   2.650 -0.3173  0.4225  0.4213
 4018TIP3    H133689   1.330   2.384   2.700 -0.2271  1.0023  0.5792
 4018TIP3    H233690   1.413   2.470   2.607  1.1101  1.2284  1.9448
 4019TIP3   OH233691   4.424   0.175   7.893 -0.2074 -0.3642  0.7270
 4019TIP3    H133692   4.358   0.230   7.851 -1.4733 -0.6490  2.2304
 4019TIP3    H233693   4.448   0.111   7.826  2.2385  2.5991 -1.5205
 4020TIP3   OH233694   3.761   5.524   0.804 -0.8353  0.0657 -0.3955
 4020TIP3    H133695   3.774   5.583   0.730 -0.1903  2.3228  1.4098
 4020TIP3    H233696   3.847   5.488   0.822 -1.1110 -0.9932 -1.0917
 4021TIP3   OH233697   3.038   2.097   7.222 -0.1163 -0.2449  0.7460
 4021TIP3    H133698   3.081   2.016   7.197 -0.1454 -0.4187  1.2561
 4021TIP3    H233699   3.101   2.141   7.280  0.5248  0.7843 -0.6465
 4022TIP3   OH233700   0.111   5.816   0.399 -0.5504  0.2688  0.4522
 4022TIP3    H133701   0.114   5.756   0.324  1.5337  0.5127  0.2784
 4022TIP3    H233702   0.156   5.770   0.469 -0.2551  1.0392  0.7838
 4023TIP3   OH233703   0.454   4.091   1.851 -0.0474  0.1988 -0.2667
 4023TIP3    H133704   0.467   4.063   1.760  3.2862  0.2175  0.0599
 4023TIP3    H233705   0.473   4.185   1.849  0.6390  0.0893  0.4963
 4024TIP3   OH233706   5.789   6.166   8.082  0.0664  0.2301 -0.4334
 4024TIP3    H133707   5.854   6.236   8.071  0.0910  0.6866  2.0600
 4024TIP3    H233708   5.841   6.090   8.111 -0.2377 -0.1148 -0.7859
 4025TIP3   OH233709   1.230   2.183   0.039  0.1100  0.2024  0.4305
 4025TIP3    H133710   1.230   2.153   0.130 -0.2732  2.4309  1.2097
 4025TIP3    H233711   1.323   2.186   0.015  0.2360  0.0852  0.8963
 4026TIP3   OH233712   0.466   4.387   1.918  0.6348  0.0481 -0.2350
 4026TIP3    H133713   0.495   4.355   2.003 -1.9079 -1.6366  0.1060
 4026TIP3    H233714   0.438   4.477   1.935  0.6954 -0.0787  0.5663
 4027TIP3   OH233715   1.341   4.187   2.043 -0.0114  0.5701  0.5349
 4027TIP3    H133716   1.350   4.138   1.961  1.3448  0.7598  0.5406
 4027TIP3    H233717   1.321   4.120   2.109 -3.9550  0.7046 -0.3216
 4028TIP3   OH233718   2.089   5.625   1.021  0.0595 -0.4515 -0.3455
 4028TIP3    H133719   2.137   5.700   0.986 -0.5031  1.4815  2.6860
 4028TIP3    H233720   1.998   5.642   0.998  0.0984 -1.0494 -0.9799
 4029TIP3   OH233721   5.188   0.306   1.945 -0.1991  0.2866 -0.3939
 4029TIP3    H133722   5.098   0.271   1.944 -0.6944  1.3346  1.9979
 4029TIP3    H233723   5.242   0.232   1.917 -1.6796 -0.7609 -0.6270
 4030TIP3   OH233724   5.507   2.524   0.445  0.1816 -0.1085  0.4251
 4030TIP3    H133725   5.428   2.479   0.474  0.0511  0.2994  0.7005
 4030TIP3    H233726   5.531   2.581   0.518  0.0562  0.6485 -0.1206
 4031TIP3   OH233727   5.955   1.535   7.757  0.0600  0.1297  0.5705
 4031TIP3    H133728   5.967   1.582   7.675  0.3806 -0.4897  0.2607
 4031TIP3    H233729   5.942   1.605   7.822  1.4583  0.7124  0.2832
 4032TIP3   OH233730   2.397   2.330   8.327 -0.3990  0.2702 -0.0665
 4032TIP3    H133731   2.336   2.359   8.259 -0.1086 -0.4639 -0.6549
 4032TIP3    H233732   2.473   2.297   8.278 -0.3310 -0.5991  0.6044
 4033TIP3   OH233733   3.784   5.181   1.685  0.1329  0.1067  0.5312
 4033TIP3    H133734   3.791   5.273   1.712  0.2277  0.0998  0.5307
 4033TIP3    H233735   3.740   5.138   1.758 -0.6487  0.3070  0.1873
 4034TIP3   OH233736   3.705   6.161   0.975  0.1949  0.2792 -0.3052
 4034TIP3    H133737   3.691   6.222   0.903  2.2706  1.4239  0.1959
 4034TIP3    H233738   3.721   6.077   0.932 -0.6697  0.4782 -1.0665
 4035TIP3   OH233739   4.182   5.083   7.858  0.0316 -0.7257 -0.2705
 4035TIP3    H133740   4.099   5.102   7.814 -0.4693 -0.1491  0.8869
 4035TIP3    H233741   4.230   5.166   7.854 -0.7665 -0.0880  1.8059
 4036TIP3   OH233742   4.392   4.655   6.978 -0.1354 -0.0683  0.0335
 4036TIP3    H133743   4.417   4.571   7.015 -0.1318  0.3726  1.0796
 4036TIP3    H233744   4.453   4.669   6.905 -0.9639 -1.5384 -0.9726
 4037TIP3   OH233745   2.020   0.078   7.670 -0.4190 -1.1131  0.5037
 4037TIP3    H133746   1.976   0.036   7.596 -0.2508 -2.1145  0.9590
 4037TIP3    H233747   1.952   0.090   7.736 -0.1240 -2.3549  1.0759
 4038TIP3   OH233748   5.190   4.115   2.964 -0.4418  0.5652  0.4674
 4038TIP3    H133749   5.275   4.147   2.936  0.2116  0.1488  1.8674
 4038TIP3    H233750   5.127   4.167   2.915  0.6127  1.7835  0.3556
 4039TIP3   OH233751   5.683   1.652   7.427  0.2167 -0.2137  0.4181
 4039TIP3    H133752   5.704   1.688   7.513  0.2829  0.7641  0.0149
 4039TIP3    H233753   5.766   1.654   7.379 -0.1272  0.7495 -0.1724
 4040TIP3   OH233754   6.042   4.285   7.745  0.0870  0.1900  0.0285
 4040TIP3    H133755   6.023   4.341   7.820  1.5563 -0.0611  0.6246
 4040TIP3    H233756   5.985   4.209   7.756 -0.0850  0.3974  0.6046
 4041TIP3   OH233757   4.086   3.822   1.583  0.1221  0.0879 -0.3531
 4041TIP3    H133758   4.160   3.857   1.633 -0.9308  2.3195 -0.2406
 4041TIP3    H233759   4.032   3.777   1.648  0.3873  0.1681 -0.0766
 4042TIP3   OH233760   5.784   2.959   2.491  0.1602  0.1361  0.8650
 4042TIP3    H133761   5.737   2.986   2.569 -3.3789  1.5108 -1.4887
 4042TIP3    H233762   5.778   2.863   2.490  0.0231  0.1200  2.0758
 4043TIP3   OH233763   0.395   4.636   1.959  0.0978  0.2230  0.1999
 4043TIP3    H133764   0.343   4.685   2.022  1.5136  0.1547  1.4819
 4043TIP3    H233765   0.440   4.704   1.907  1.7081  0.3558  1.6776
 4044TIP3   OH233766   5.140   0.531   7.272  0.5485 -0.2775  0.1872
 4044TIP3    H133767   5.116   0.443   7.301  2.3818 -0.6670  0.6944
 4044TIP3    H233768   5.071   0.588   7.305  0.2227 -1.3180  1.3627
 4045TIP3   OH233769   4.414   3.675   8.300  0.6158 -0.3620  0.7575
 4045TIP3    H133770   4.421   3.655   8.393  1.0650 -1.4556  0.5088
 4045TIP3    H233771   4.352   3.748   8.295  1.1738  0.2259  1.9645
 4046TIP3   OH233772   2.046   0.744   1.226  0.1438  0.1720  0.0903
 4046TIP3    H133773   2.001   0.788   1.154 -0.5923  1.8386  1.4802
 4046TIP3    H233774   2.117   0.695   1.185  0.5435  2.0902 -1.6456
 4047TIP3   OH233775   0.226   4.273   8.211  0.1504  0.2772  0.2776
 4047TIP3    H133776   0.136   4.305   8.203  0.2537  0.3514 -0.7630
 4047TIP3    H233777   0.266   4.293   8.126  0.3618 -2.1784 -0.2873
 4048TIP3   OH233778   2.995   2.173   1.409  0.3465  0.6351 -0.0644
 4048TIP3    H133779   3.072   2.227   1.424 -0.4922  1.8602 -0.0497
 4048TIP3    H233780   3.030   2.088   1.382  1.6854  1.3246 -0.5854
 4049TIP3   OH233781   4.961   1.822   1.861 -0.5193  0.1697  0.0887
 4049TIP3    H133782   4.941   1.896   1.804  1.4785 -1.3164 -2.8283
 4049TIP3    H233783   4.911   1.749   1.824  0.1013 -0.6553  0.8234
 4050TIP3   OH233784   0.730   1.405   2.086  0.5879 -0.1255  0.0157
 4050TIP3    H133785   0.651   1.451   2.059  0.2243 -0.9599 -0.3880
 4050TIP3    H233786   0.796   1.430   2.021  0.5735  0.3186  0.1681
 4051TIP3   OH233787   6.277   0.432   2.793  0.6598 -0.3117  0.5558
 4051TIP3    H133788   6.207   0.479   2.839 -2.1684 -0.7087 -2.9123
 4051TIP3    H233789   6.246   0.341   2.790  0.8679 -0.3626 -1.6727
 4052TIP3   OH233790   4.287   1.568   1.407 -0.3017 -0.0710  0.4839
 4052TIP3    H133791   4.253   1.522   1.484  0.8219 -0.1913  0.9345
 4052TIP3    H233792   4.214   1.623   1.378 -0.8428 -0.2323  1.4785
 4053TIP3   OH233793   6.916   6.595   1.748  0.2404  0.9409  0.0631
 4053TIP3    H133794   6.991   6.585   1.807  0.1044  2.0765  0.4539
 4053TIP3    H233795   6.924   6.523   1.686  0.7498  0.0862  1.0841
 4054TIP3   OH233796   3.881   6.856   1.148 -0.3251  0.1856 -0.2119
 4054TIP3    H133797   3.872   6.945   1.181 -1.6885 -0.0762  0.1430
 4054TIP3    H233798   3.821   6.851   1.074  1.3985  0.2239 -1.7107
 4055TIP3   OH233799   2.390   5.767   0.414 -0.5671 -0.3119 -0.3351
 4055TIP3    H133800   2.483   5.758   0.394 -0.3724  2.8173 -1.4479
 4055TIP3    H233801   2.387   5.811   0.499 -1.0011 -0.0859 -0.4616
 4056TIP3   OH233802   5.250   0.132   6.290 -0.2411 -0.2704 -0.1666
 4056TIP3    H133803   5.178   0.119   6.229 -0.2468  1.0054 -0.4563
 4056TIP3    H233804   5.317   0.178   6.239 -1.0570  2.7869  1.2348
 4057TIP3   OH233805   1.152   6.398   3.026 -0.4088  0.3965  0.4194
 4057TIP3    H133806   1.219   6.363   3.086 -1.5833  0.1977  1.6779
 4057TIP3    H233807   1.096   6.323   3.008 -0.0796  0.4641 -0.9593
 4058TIP3   OH233808   3.044   5.874   0.825 -0.1651  0.0249  0.7428
 4058TIP3    H133809   3.080   5.892   0.738  1.5066 -0.5388  1.2738
 4058TIP3    H233810   3.083   5.789   0.849  0.0597  0.5671  2.3748
 4059TIP3   OH233811   3.506   3.000   1.056  0.4848 -0.5112  0.2690
 4059TIP3    H133812   3.601   3.007   1.046  0.5614 -1.7617  0.0478
 4059TIP3    H233813   3.491   2.913   1.093 -0.7100 -1.3590 -2.0273
 4060TIP3   OH233814   5.893   4.808   7.472  0.9067  0.2166  0.0208
 4060TIP3    H133815   5.974   4.820   7.520  0.6208  2.1270  0.1133
 4060TIP3    H233816   5.916   4.825   7.381  0.9567 -1.0754 -0.2359
 4061TIP3   OH233817   6.372   1.201   7.915 -0.1462 -0.2947  0.9153
 4061TIP3    H133818   6.435   1.129   7.920 -0.1875 -0.3383  0.8073
 4061TIP3    H233819   6.344   1.203   7.823  0.7985  0.6815  0.6381
 4062TIP3   OH233820   5.691   3.013   0.430  0.2238 -0.2538 -0.2389
 4062TIP3    H133821   5.752   3.026   0.503  1.9979  0.7640 -1.8078
 4062TIP3    H233822   5.696   2.920   0.411 -1.2596 -0.7972  1.7044
 4063TIP3   OH233823   2.851   0.021   2.641  0.8406 -0.8154 -0.3615
 4063TIP3    H133824   2.853   0.101   2.694  0.8853  1.6938 -3.7597
 4063TIP3    H233825   2.940  -0.012   2.643  0.5545 -1.6178  2.0990
 4064TIP3   OH233826   6.094   4.763   0.377  0.4480 -0.0782  0.2858
 4064TIP3    H133827   6.144   4.757   0.459  2.2114  0.1986 -0.7250
 4064TIP3    H233828   6.114   4.683   0.330  0.6768  0.4463 -0.5283
 4065TIP3   OH233829   1.531   0.651   8.324 -0.1065  0.2137  1.2553
 4065TIP3    H133830   1.503   0.582   8.383  1.6852 -0.8371  0.9324
 4065TIP3    H233831   1.622   0.631   8.304 -0.9051 -0.2896 -2.9056
 4066TIP3   OH233832   6.837   2.566   6.956 -0.3031  0.3896 -0.0583
 4066TIP3    H133833   6.921   2.607   6.976  0.0891 -0.0755 -0.7067
 4066TIP3    H233834   6.790   2.565   7.039  0.3134  0.6977  0.2993
 4067TIP3   OH233835   6.312   4.211   2.665 -0.4142 -0.1464  0.0908
 4067TIP3    H133836   6.220   4.218   2.688 -0.5357 -0.2015 -0.3594
 4067TIP3    H233837   6.321   4.265   2.586 -0.0137  0.0382  0.2579
 4068TIP3   OH233838   3.985   5.389   0.757 -0.3804 -0.0679 -0.5674
 4068TIP3    H133839   4.030   5.307   0.776 -0.9098 -0.0889  0.6356
 4068TIP3    H233840   3.944   5.375   0.672 -1.3806 -1.4471  0.1180
 4069TIP3   OH233841   6.239   1.612   8.394  0.2172 -0.3743 -0.6844
 4069TIP3    H133842   6.305   1.669   8.355 -0.3622  0.5160 -0.3832
 4069TIP3    H233843   6.159   1.630   8.346 -0.6172  1.0509  1.1145
 4070TIP3   OH233844   5.123   2.686   1.060 -0.8384  0.4287  0.1909
 4070TIP3    H133845   5.071   2.611   1.088 -0.7846 -0.0709 -1.0014
 4070TIP3    H233846   5.061   2.741   1.011 -0.4443  0.2525 -0.5069
 4071TIP3   OH233847   6.704   3.816   2.961  0.4301 -0.1065  0.0206
 4071TIP3    H133848   6.784   3.806   2.909 -0.3574  0.4223 -1.3563
 4071TIP3    H233849   6.657   3.734   2.948 -0.2122  0.3942 -0.9227
 4072TIP3   OH233850   1.447   4.623   2.763  0.1220 -0.0076 -0.3972
 4072TIP3    H133851   1.355   4.646   2.777  0.0521  0.1628 -1.0951
 4072TIP3    H233852   1.492   4.651   2.843 -0.7301 -1.8896  0.8344
 4073TIP3   OH233853   4.947   4.646   7.387 -0.1860 -0.2701  0.6819
 4073TIP3    H133854   4.976   4.564   7.427 -0.6177  0.0606  1.7057
 4073TIP3    H233855   4.892   4.619   7.314  1.7422 -0.8984 -0.6193
 4074TIP3   OH233856   1.504   1.105   1.190 -0.3086  0.0269  0.9916
 4074TIP3    H133857   1.585   1.141   1.227  0.4792  0.3749 -0.9541
 4074TIP3    H233858   1.530   1.022   1.150 -0.4992  0.9085 -1.0985
 4075TIP3   OH233859   3.586   0.744   7.887  0.5055 -0.2339 -0.1567
 4075TIP3    H133860   3.577   0.667   7.831 -0.5218 -2.8562  3.2212
 4075TIP3    H233861   3.507   0.796   7.870  0.0891 -1.0885 -0.9253
 4076TIP3   OH233862   2.406   4.951   1.059 -0.1509 -0.4955  0.4033
 4076TIP3    H133863   2.461   4.884   1.018 -1.3046 -0.1267 -1.9245
 4076TIP3    H233864   2.450   4.971   1.141  0.6916 -3.4768  0.8089
 4077TIP3   OH233865   3.797   3.698   7.853  0.2281  0.1493 -0.1551
 4077TIP3    H133866   3.705   3.684   7.833  0.5985 -0.5010 -1.5756
 4077TIP3    H233867   3.842   3.627   7.808  1.5547  1.4399 -0.9694
 4078TIP3   OH233868   5.932   2.899   2.175 -0.1754 -0.4661  0.1108
 4078TIP3    H133869   5.960   2.859   2.257  2.2018  0.1516 -0.3155
 4078TIP3    H233870   5.991   2.973   2.163 -3.9398  2.9372  0.5306
 4079TIP3   OH233871   0.054   0.424   7.352 -0.1059 -0.4902 -0.2376
 4079TIP3    H133872   0.105   0.358   7.304 -0.2500  1.1000 -2.7574
 4079TIP3    H233873   0.103   0.436   7.434  1.4481 -1.7408 -0.9132
 4080TIP3   OH233874   0.561   1.756   7.290  0.3990  0.1908  0.1000
 4080TIP3    H133875   0.495   1.775   7.223  1.1181  1.2896 -0.3194
 4080TIP3    H233876   0.583   1.664   7.276 -1.4113 -0.3491  0.5892
 4081TIP3   OH233877   6.070   3.687   1.860 -0.2425  0.3007 -0.3617
 4081TIP3    H133878   6.028   3.625   1.800 -0.8202  2.1614 -2.0070
 4081TIP3    H233879   6.111   3.752   1.803 -0.5230  1.9886  1.2551
 4082TIP3   OH233880   5.763   1.219   8.359 -0.5791 -0.1500  0.3773
 4082TIP3    H133881   5.682   1.195   8.313 -0.9822 -0.0853  1.0492
 4082TIP3    H233882   5.734   1.249   8.445  0.2279 -1.1354  1.0158
 4083TIP3   OH233883   1.899   2.976   1.791 -0.0483 -0.1414  0.1998
 4083TIP3    H133884   1.907   2.902   1.851  0.3909 -1.1931 -1.0917
 4083TIP3    H233885   1.806   2.996   1.790 -0.5757 -2.2559 -1.1707
 4084TIP3   OH233886   1.174   3.166   2.454  0.0940 -0.0466 -0.2424
 4084TIP3    H133887   1.116   3.242   2.459 -0.6803 -0.6069 -0.5388
 4084TIP3    H233888   1.225   3.170   2.536 -1.2359 -0.2266  0.6304
 4085TIP3   OH233889   0.759   6.717   1.527  0.1307 -0.2911 -0.0985
 4085TIP3    H133890   0.709   6.693   1.449 -0.2538 -0.6888  0.2666
 4085TIP3    H233891   0.850   6.696   1.506 -0.1157 -1.4801 -0.0207
 4086TIP3   OH233892   0.967   5.742   1.239  0.1262 -0.0233 -0.5516
 4086TIP3    H133893   1.033   5.677   1.261  0.2396 -0.1517 -1.2462
 4086TIP3    H233894   1.003   5.788   1.163  0.0854  0.9081 -0.0131
 4087TIP3   OH233895   0.979   3.728   1.065  0.8688 -0.5635  0.3720
 4087TIP3    H133896   1.006   3.819   1.066 -1.3827  0.2217 -1.2418
 4087TIP3    H233897   1.035   3.686   1.000  2.0245 -0.4118  1.2440
 4088TIP3   OH233898   2.752   2.169   1.539  0.3546  0.1527  0.2838
 4088TIP3    H133899   2.835   2.162   1.492  0.0488 -1.0683 -0.1070
 4088TIP3    H233900   2.776   2.176   1.631  0.8859  0.0509  0.1530
 4089TIP3   OH233901   2.848   6.314   7.199  0.0470  0.3491 -0.1064
 4089TIP3    H133902   2.761   6.350   7.180 -0.9054 -0.4819  2.2143
 4089TIP3    H233903   2.906   6.353   7.134 -1.9633  1.3768 -1.3703
 4090TIP3   OH233904   0.427   0.450   0.647 -0.2170  0.1553  0.6599
 4090TIP3    H133905   0.435   0.422   0.556 -0.2511  0.7203  0.4773
 4090TIP3    H233906   0.508   0.497   0.665  0.8658 -1.9816  1.6739
 4091TIP3   OH233907   1.558   3.577   1.554  0.1452 -0.1302  0.1455
 4091TIP3    H133908   1.506   3.640   1.504  2.8612  1.9551 -0.3172
 4091TIP3    H233909   1.532   3.491   1.519 -1.4686  0.9273 -1.4509
 4092TIP3   OH233910   5.924   5.350   7.299 -0.3113 -0.0067 -0.2674
 4092TIP3    H133911   5.925   5.434   7.252  0.7594 -0.4151 -1.0188
 4092TIP3    H233912   5.935   5.284   7.230  1.3100 -0.6250  0.5415
 4093TIP3   OH233913   6.210   1.083   8.087 -0.0420  0.5468  0.4562
 4093TIP3    H133914   6.118   1.095   8.110  0.0322  0.0003  1.0737
 4093TIP3    H233915   6.225   1.144   8.015 -1.0849  0.1074 -0.1546
 4094TIP3   OH233916   2.675   1.319   7.992  0.6446 -0.3386  0.7368
 4094TIP3    H133917   2.719   1.251   7.942 -0.6576 -0.8847  0.2853
 4094TIP3    H233918   2.582   1.303   7.978  0.2832  2.1793 -0.2510
 4095TIP3   OH233919   6.215   2.236   7.518 -0.1997 -0.6586  0.3482
 4095TIP3    H133920   6.135   2.264   7.474 -0.3054 -2.0356 -0.3881
 4095TIP3    H233921   6.280   2.232   7.449 -0.0179 -1.5095  0.5606
 4096TIP3   OH233922   6.486   3.815   1.855  0.1918 -0.1603  0.9256
 4096TIP3    H133923   6.570   3.862   1.853  0.2863 -0.2399 -2.7091
 4096TIP3    H233924   6.423   3.881   1.886  0.9277  1.2783 -0.4925
 4097TIP3   OH233925   3.957   1.285   2.370 -0.0168 -0.0692  0.1892
 4097TIP3    H133926   3.905   1.273   2.449 -0.8346 -2.7906 -0.6764
 4097TIP3    H233927   3.939   1.208   2.317  1.6101  0.9837 -2.0547
 4098TIP3   OH233928   3.507   3.002   0.170 -0.2100 -0.1041 -0.5748
 4098TIP3    H133929   3.556   3.016   0.252  0.8039 -3.4821 -0.4311
 4098TIP3    H233930   3.426   3.052   0.182  1.2897  2.1715  1.0418
 4099TIP3   OH233931   3.213   2.026   0.839  0.4695  0.2531  0.2145
 4099TIP3    H133932   3.165   2.045   0.920 -0.3217  0.5789 -0.3182
 4099TIP3    H233933   3.160   1.960   0.795  2.3296 -2.0888  1.2436
 4100TIP3   OH233934   4.475   3.879   7.781  0.4453  0.2637  0.0605
 4100TIP3    H133935   4.462   3.794   7.822 -1.0184  0.0421 -0.7985
 4100TIP3    H233936   4.461   3.864   7.688 -0.3792  1.5351 -0.0502
 4101TIP3   OH233937   5.752   4.376   1.017 -0.8196 -0.2746 -0.3668
 4101TIP3    H133938   5.727   4.344   1.104 -1.6676 -1.4670 -1.0080
 4101TIP3    H233939   5.728   4.469   1.019 -1.1136 -0.3495  0.5738
 4102TIP3   OH233940   0.307   5.892   7.488  0.5099  0.4131  0.2683
 4102TIP3    H133941   0.300   5.807   7.532 -1.5175  0.6869  0.5600
 4102TIP3    H233942   0.266   5.877   7.402 -0.5323  1.2530  0.6022
 4103TIP3   OH233943   2.047   6.006   8.218 -0.3084 -0.0533  0.0027
 4103TIP3    H133944   2.071   6.092   8.182 -0.7165 -0.3105 -0.9143
 4103TIP3    H233945   2.128   5.972   8.255 -0.1365  0.7129  0.3510
 4104TIP3   OH233946   5.888   0.541   1.938  0.3577 -0.0320 -1.0683
 4104TIP3    H133947   5.966   0.488   1.919 -0.1752 -0.7691 -1.2315
 4104TIP3    H233948   5.874   0.530   2.032  1.8088  1.9995 -0.5368
 4105TIP3   OH233949   4.409   5.718   2.219  0.2918 -0.0010 -0.3332
 4105TIP3    H133950   4.459   5.637   2.227  0.8043  0.3714  0.2510
 4105TIP3    H233951   4.461   5.784   2.263 -0.6510  0.4227  0.1862
 4106TIP3   OH233952   2.291   0.485   7.454 -0.2332 -0.1718 -0.4774
 4106TIP3    H133953   2.362   0.508   7.514  0.1100 -0.9113 -0.5876
 4106TIP3    H233954   2.332   0.478   7.368 -0.0713 -2.2917 -0.2729
 4107TIP3   OH233955   5.629   5.791   7.775 -0.1608  0.4171  0.1375
 4107TIP3    H133956   5.700   5.847   7.745  1.2920 -0.6800  1.3687
 4107TIP3    H233957   5.613   5.819   7.865 -2.1262  1.4098 -0.4556
 4108TIP3   OH233958   1.984   1.512   1.073  0.4034 -0.0189  0.2956
 4108TIP3    H133959   1.998   1.578   1.005 -3.3533 -0.6641 -1.3991
 4108TIP3    H233960   2.058   1.453   1.065  0.7912  0.6783 -2.4215
 4109TIP3   OH233961   4.672   1.765   2.901  0.0612  0.2663 -0.4758
 4109TIP3    H133962   4.728   1.786   2.826  1.8314 -0.7424  0.5150
 4109TIP3    H233963   4.617   1.843   2.912  0.3575  0.7670 -2.2740
 4110TIP3   OH233964   2.843   4.785   2.210  0.1331  0.4946 -0.5089
 4110TIP3    H133965   2.890   4.867   2.226 -0.3160  0.8122 -0.8174
 4110TIP3    H233966   2.912   4.721   2.193  0.4748  0.8652 -0.5242
 4111TIP3   OH233967   5.108   6.214   1.089 -0.1154  0.3185  0.3083
 4111TIP3    H133968   5.190   6.164   1.093 -0.1432  0.2301 -0.2115
 4111TIP3    H233969   5.124   6.281   1.022 -0.4115  0.4059  0.3244
 4112TIP3   OH233970   4.316   0.457   7.535 -0.1748 -0.1429 -0.0620
 4112TIP3    H133971   4.282   0.528   7.480 -0.5048 -1.0229 -1.0236
 4112TIP3    H233972   4.312   0.380   7.479  1.6889 -0.6259  0.4160
 4113TIP3   OH233973   3.789   0.691   6.625  0.1389  0.1946 -0.0433
 4113TIP3    H133974   3.873   0.734   6.637 -0.6245  1.0027  3.2282
 4113TIP3    H233975   3.746   0.742   6.556  1.3159  1.3859  0.0559
 4114TIP3   OH233976   6.187   2.638   0.262  0.3307 -0.8254 -0.5025
 4114TIP3    H133977   6.247   2.563   0.260  0.6424 -0.6289  0.6267
 4114TIP3    H233978   6.223   2.695   0.330 -2.2911 -1.6819  1.8065
 4115TIP3   OH233979   6.413   0.968   8.196  0.1775  0.1683  0.4382
 4115TIP3    H133980   6.331   1.002   8.158 -0.2906 -0.7172  0.6219
 4115TIP3    H233981   6.385   0.895   8.252  1.1549 -0.6744 -0.1270
 4116TIP3   OH233982   1.625   3.143   6.703 -0.1619 -0.2427  0.5740
 4116TIP3    H133983   1.659   3.056   6.720 -1.5954 -0.7356  1.0652
 4116TIP3    H233984   1.539   3.128   6.664 -1.2498  0.9438  2.4030
 4117TIP3   OH233985   2.132   5.843   2.331  0.4706  0.2823  0.0644
 4117TIP3    H133986   2.191   5.796   2.273  0.9043  0.7224  0.1433
 4117TIP3    H233987   2.064   5.779   2.353  0.9495 -0.2525  0.0236
 4118TIP3   OH233988   2.104   3.918   1.340  0.1582  0.6040 -0.3238
 4118TIP3    H133989   2.021   3.894   1.380 -0.0959 -0.2042 -1.3121
 4118TIP3    H233990   2.170   3.894   1.406 -0.3681  1.1094  0.3965
 4119TIP3   OH233991   1.167   6.147   0.400  0.0766  0.6191  0.0879
 4119TIP3    H133992   1.224   6.223   0.408 -1.4929  2.4467 -3.5387
 4119TIP3    H233993   1.079   6.184   0.395 -1.2778 -1.8616  2.4969
 4120TIP3   OH233994   5.320   2.305   1.092 -0.0198  0.1357  0.0337
 4120TIP3    H133995   5.261   2.342   1.026 -3.1128  1.9497  3.4770
 4120TIP3    H233996   5.380   2.377   1.112  0.0287  0.0523  0.1868
 4121TIP3   OH233997   6.234   4.945   0.781 -0.8336 -0.0203  0.4083
 4121TIP3    H133998   6.209   5.000   0.707  1.0230  0.1943 -0.1266
 4121TIP3    H233999   6.217   4.999   0.858  2.4737  2.1477 -0.1610
 4122TIP3   OH234000   5.856   1.344   1.010  0.4848 -0.3797  0.2209
 4122TIP3    H134001   5.880   1.312   1.097  0.6719 -0.5962  0.0888
 4122TIP3    H234002   5.795   1.416   1.027  1.5801  0.4876  0.5770
 4123TIP3   OH234003   4.852   5.066   2.080  0.3599 -0.1034 -0.1441
 4123TIP3    H134004   4.829   5.157   2.097 -1.0478 -0.3597 -0.4706
 4123TIP3    H234005   4.944   5.058   2.105  0.0095  0.9570  1.6435
 4124TIP3   OH234006   0.699   2.285   8.033 -0.2383 -0.0754  0.2561
 4124TIP3    H134007   0.692   2.379   8.021 -1.8928 -0.2245 -0.1745
 4124TIP3    H234008   0.761   2.256   7.966  2.5919  1.0069  2.2302
 4125TIP3   OH234009   0.824   6.802   0.939 -0.2761  0.0146  0.1604
 4125TIP3    H134010   0.795   6.838   0.856 -0.6383 -3.8617 -1.6263
 4125TIP3    H234011   0.909   6.842   0.955 -0.9061  2.0116 -1.2027
 4126TIP3   OH234012   5.460   2.892   2.575  0.1807  0.6634 -0.4503
 4126TIP3    H134013   5.466   2.872   2.669 -2.7605  1.3878  0.0142
 4126TIP3    H234014   5.506   2.821   2.532  2.1333  0.6286  1.5404
 4127TIP3   OH234015   4.684   2.382   7.821  0.1598 -0.0647  0.6605
 4127TIP3    H134016   4.618   2.314   7.806  0.4565 -0.2258  0.0300
 4127TIP3    H234017   4.767   2.340   7.799  0.4989  0.0826  1.6347
 4128TIP3   OH234018   3.950   3.301   8.501  0.2762  0.0128 -1.0137
 4128TIP3    H134019   3.869   3.319   8.549  1.5881  0.4391  1.1256
 4128TIP3    H234020   3.980   3.216   8.534  2.2766  1.2478  0.5638
 4129TIP3   OH234021   3.042   2.410   8.196 -0.0755 -0.0501 -0.1396
 4129TIP3    H134022   2.992   2.410   8.277  2.3305  0.8730  1.4392
 4129TIP3    H234023   3.049   2.502   8.172 -0.9855 -0.3273 -1.5931
 4130TIP3   OH234024   6.119   0.115   1.223  0.4847  0.1236  0.6627
 4130TIP3    H134025   6.089   0.024   1.230 -0.1071  0.4084  2.1077
 4130TIP3    H234026   6.038   0.165   1.208  0.7640  0.4551  0.2431
 4131TIP3   OH234027   4.666   1.448   0.305  0.3295 -0.7907  0.2156
 4131TIP3    H134028   4.674   1.365   0.351 -0.3474 -1.0526 -0.1299
 4131TIP3    H234029   4.585   1.486   0.338 -0.0618 -0.8879 -0.6107
 4132TIP3   OH234030   3.449   1.458   2.206  0.4768 -0.4101 -0.4415
 4132TIP3    H134031   3.356   1.466   2.226  0.4312 -2.7983  0.6248
 4132TIP3    H234032   3.455   1.475   2.112 -1.0103 -0.1587 -0.5065
 4133TIP3   OH234033   2.971   6.282   7.664  0.3067  0.2263  0.0826
 4133TIP3    H134034   3.059   6.279   7.627  1.4114  0.0570  2.5248
 4133TIP3    H234035   2.974   6.354   7.726 -1.6200  0.8350 -0.4710
 4134TIP3   OH234036   5.728   4.145   8.511 -0.1195  0.1195  0.1610
 4134TIP3    H134037   5.735   4.175   8.602 -0.1746 -0.8956  0.5114
 4134TIP3    H234038   5.636   4.120   8.501  0.0445 -0.4559  0.0479
 4135TIP3   OH234039   0.151   4.416   1.422  0.2581 -0.1655  0.1277
 4135TIP3    H134040   0.220   4.364   1.380  1.1790  2.2182 -1.5514
 4135TIP3    H234041   0.086   4.431   1.354 -0.1248  0.6236  0.6453
 4136TIP3   OH234042   4.635   5.104   1.898 -0.0416  0.2376  0.2258
 4136TIP3    H134043   4.607   5.188   1.934 -0.1976 -0.4595  1.8729
 4136TIP3    H234044   4.706   5.076   1.956 -0.9704 -1.4218  0.6414
 4137TIP3   OH234045   3.277   0.699   6.796 -0.4397  0.5149 -0.5807
 4137TIP3    H134046   3.336   0.766   6.829  0.4193 -0.0941 -0.8139
 4137TIP3    H234047   3.219   0.678   6.869 -0.2423  0.9942 -0.2895
 4138TIP3   OH234048   2.461   6.603   1.512 -0.2244 -0.0345  0.4120
 4138TIP3    H134049   2.404   6.621   1.586 -1.0821  3.2963 -0.8916
 4138TIP3    H234050   2.403   6.605   1.436  1.0875 -0.2478 -0.6281
 4139TIP3   OH234051   4.076   2.089   0.345  0.0297 -0.1373 -0.2009
 4139TIP3    H134052   4.170   2.089   0.364 -0.0580  0.1869  0.2669
 4139TIP3    H234053   4.047   2.001   0.368 -0.4146  0.7372  3.0902
 4140TIP3   OH234054   4.451   6.461   8.334  0.0389  0.6697 -0.3652
 4140TIP3    H134055   4.405   6.413   8.265  1.6490  0.3757 -1.3031
 4140TIP3    H234056   4.409   6.434   8.415  0.3317 -1.7368 -0.9259
 4141TIP3   OH234057   4.324   3.031   0.564  0.3784  0.6617 -0.0221
 4141TIP3    H134058   4.344   3.031   0.657  1.0363  1.3099 -0.1562
 4141TIP3    H234059   4.352   3.117   0.533 -1.5325  1.1900 -0.4721
 4142TIP3   OH234060   0.757   1.373   0.354  0.0306  0.1333  0.4331
 4142TIP3    H134061   0.787   1.300   0.300  0.6465 -0.3950  1.4722
 4142TIP3    H234062   0.662   1.365   0.354  0.1028 -0.8667  0.7985
 4143TIP3   OH234063   4.348   0.557   8.479 -0.6593  0.2066  0.0507
 4143TIP3    H134064   4.347   0.475   8.431  0.7505  0.0360  0.2712
 4143TIP3    H234065   4.366   0.532   8.569  1.0718  0.8120 -0.0908
 4144TIP3   OH234066   5.518   3.747   0.289 -0.5148 -0.3351  0.0887
 4144TIP3    H134067   5.495   3.816   0.352 -1.4725 -0.9619  0.4345
 4144TIP3    H234068   5.612   3.733   0.304 -0.0913  1.4684 -0.5698
 4145TIP3   OH234069   5.284   3.460   8.056 -0.5482 -0.0492 -0.4735
 4145TIP3    H134070   5.294   3.477   7.962  1.7664 -2.4873 -0.7701
 4145TIP3    H234071   5.308   3.543   8.097  0.9651  0.3232 -1.9895
 4146TIP3   OH234072   2.131   6.252   8.152 -0.0952 -0.0851  0.8442
 4146TIP3    H134073   2.167   6.341   8.160 -0.4847 -0.0544  2.5595
 4146TIP3    H234074   2.044   6.264   8.115  0.0470  0.1947  0.5951
 4147TIP3   OH234075   0.134   1.663   8.288 -0.3308  0.1779 -0.2903
 4147TIP3    H134076   0.214   1.617   8.263 -1.1840 -1.0712 -0.8753
 4147TIP3    H234077   0.085   1.600   8.340  0.3853  1.9802  2.8010
 4148TIP3   OH234078   1.835   6.252   7.807  0.9803 -0.2671 -0.1110
 4148TIP3    H134079   1.834   6.322   7.743  1.0149 -0.0601  0.1124
 4148TIP3    H234080   1.744   6.241   7.833  0.7579 -1.3613 -1.2797
 4149TIP3   OH234081   5.795   4.616   0.441  0.1435 -0.1466  0.2655
 4149TIP3    H134082   5.761   4.528   0.454  0.6129 -0.3815 -0.0610
 4149TIP3    H234083   5.830   4.616   0.352 -0.1799  0.4814  0.1307
 4150TIP3   OH234084   5.970   6.346   2.627 -0.0120  0.2639  0.5389
 4150TIP3    H134085   6.007   6.260   2.648 -2.7078 -0.5856  2.3953
 4150TIP3    H234086   6.040   6.392   2.582  2.5843 -1.7758  2.2137
 4151TIP3   OH234087   5.283   4.794   2.356  0.9856  0.3257  0.7067
 4151TIP3    H134088   5.333   4.870   2.386 -0.2545  1.1974  0.6517
 4151TIP3    H234089   5.226   4.773   2.430 -0.6464  1.2183 -0.2458
 4152TIP3   OH234090   5.971   0.980   6.755 -0.4016  0.2421 -0.0956
 4152TIP3    H134091   5.938   0.978   6.665  1.2105 -0.7329 -0.7049
 4152TIP3    H234092   5.917   0.916   6.801 -1.4245  0.9512 -0.2882
 4153TIP3   OH234093   2.175   5.157   7.822 -0.0997 -0.1263 -0.1923
 4153TIP3    H134094   2.093   5.111   7.842 -0.6074  0.7910 -0.1454
 4153TIP3    H234095   2.149   5.225   7.760  0.5325  0.5252  0.2546
 4154TIP3   OH234096   5.673   2.369   1.923 -0.0216 -0.2109 -0.2759
 4154TIP3    H134097   5.659   2.462   1.939  0.9896  0.3951 -2.4802
 4154TIP3    H234098   5.590   2.328   1.944 -0.8051  1.3319 -0.2180
 4155TIP3   OH234099   2.628   6.559   1.743 -0.0680 -0.0822  0.1402
 4155TIP3    H134100   2.721   6.575   1.729 -0.1388  3.4313  2.3869
 4155TIP3    H234101   2.584   6.617   1.681 -0.7393 -0.6141  0.1142
 4156TIP3   OH234102   2.793   0.449   0.024  0.3671  0.2251  0.1900
 4156TIP3    H134103   2.727   0.493   0.078  0.3865  1.6780 -0.9017
 4156TIP3    H234104   2.781   0.356   0.042 -1.8265  0.4643  0.2385
 4157TIP3   OH234105   5.660   1.961   8.417 -0.0978  0.4083 -0.5048
 4157TIP3    H134106   5.753   1.962   8.442 -0.1386 -1.7875 -0.0992
 4157TIP3    H234107   5.613   1.977   8.498 -0.1000 -0.8067 -0.2504
 4158TIP3   OH234108   2.963   2.297   7.740  0.0082  0.2097 -0.2909
 4158TIP3    H134109   3.020   2.321   7.813 -0.8588 -1.9967  1.2342
 4158TIP3    H234110   2.994   2.210   7.713  0.1734  0.8847 -2.4496
 4159TIP3   OH234111   4.056   5.737   0.566 -0.0429  0.2629  0.6834
 4159TIP3    H134112   4.025   5.786   0.641  1.2323  0.3822  1.1539
 4159TIP3    H234113   4.107   5.800   0.515 -1.6276  0.4291 -0.7843
 4160TIP3   OH234114   2.145   1.883   2.425 -0.3130  0.2632 -0.0085
 4160TIP3    H134115   2.180   1.879   2.337 -1.5800  0.9320 -0.5757
 4160TIP3    H234116   2.192   1.956   2.466  0.9228 -0.6212  0.1949
 4161TIP3   OH234117   3.591   6.326   0.797 -0.1043  0.0765  0.2322
 4161TIP3    H134118   3.501   6.294   0.809 -0.0063 -0.7255 -1.0190
 4161TIP3    H234119   3.600   6.337   0.702  0.7738  1.2279  0.4293
 4162TIP3   OH234120   0.141   0.577   2.351  0.4929  0.3289  0.5187
 4162TIP3    H134121   0.112   0.652   2.299  0.4276  0.4724  0.7580
 4162TIP3    H234122   0.148   0.612   2.440  1.9037  0.4349  0.3823
 4163TIP3   OH234123   1.792   2.105   1.272 -0.0082  0.0346  0.7687
 4163TIP3    H134124   1.770   2.018   1.239  0.8795  0.8398 -2.2861
 4163TIP3    H234125   1.810   2.091   1.366 -1.3993 -2.7340  0.7376
 4164TIP3   OH234126   4.354   6.934   7.223  0.0235  0.3835 -0.4795
 4164TIP3    H134127   4.340   6.933   7.318  2.7448  0.9540  0.0112
 4164TIP3    H234128   4.367   6.843   7.200 -0.5260  0.2537 -0.3067
 4165TIP3   OH234129   0.263   6.773   0.816 -0.5470  0.7325 -0.3828
 4165TIP3    H134130   0.276   6.714   0.741  0.9802  0.4342  0.0909
 4165TIP3    H234131   0.170   6.764   0.837 -0.8614  0.3099 -1.8076
 4166TIP3   OH234132   6.146   3.883   8.269  0.1066 -0.1304 -0.5060
 4166TIP3    H134133   6.077   3.904   8.332 -1.0668 -0.8064 -1.5062
 4166TIP3    H234134   6.103   3.892   8.184  1.5295  0.3483 -1.2009
 4167TIP3   OH234135   4.169   3.613   0.106  0.0377 -0.0471  0.5736
 4167TIP3    H134136   4.110   3.611   0.030  1.1337  0.4695 -0.3148
 4167TIP3    H234137   4.239   3.551   0.083 -0.7291 -1.5637  2.1323
 4168TIP3   OH234138   3.365   2.131   7.616  0.0181  0.6448 -0.5552
 4168TIP3    H134139   3.355   2.102   7.707 -1.4272 -1.6697 -1.3645
 4168TIP3    H234140   3.429   2.070   7.578  1.0283  1.9332 -0.9907
 4169TIP3   OH234141   6.281   4.979   0.353 -0.0927  0.0822 -0.3316
 4169TIP3    H134142   6.255   5.020   0.436 -1.5430  0.1176 -0.7802
 4169TIP3    H234143   6.199   4.951   0.313  0.6720 -0.8621 -1.2904
 4170TIP3   OH234144   6.368   5.117   7.110  0.5311  0.1700 -0.4846
 4170TIP3    H134145   6.390   5.048   7.173 -0.3293  0.1886 -0.1426
 4170TIP3    H234146   6.290   5.084   7.065 -1.2549  1.7873  1.1960
 4171TIP3   OH234147   4.405   4.057   0.237 -0.8383 -0.2777 -0.0788
 4171TIP3    H134148   4.363   4.140   0.261 -0.4026 -0.1350  0.2018
 4171TIP3    H234149   4.334   4.003   0.203 -1.5781 -0.6551  1.9664
 4172TIP3   OH234150   6.167   4.694   7.239 -0.0810  1.0316  0.5402
 4172TIP3    H134151   6.219   4.705   7.159 -0.8996  1.9068  0.1189
 4172TIP3    H234152   6.118   4.775   7.248 -0.6688  0.5939  1.4553
 4173TIP3   OH234153   4.285   2.197   7.225  0.4757 -0.2383  0.0852
 4173TIP3    H134154   4.269   2.282   7.266 -0.5887 -0.1096 -0.5670
 4173TIP3    H234155   4.236   2.201   7.143 -0.0632 -1.7114  0.3161
 4174TIP3   OH234156   1.220   2.386   2.108  1.4707  0.1688 -1.0394
 4174TIP3    H134157   1.226   2.296   2.139 -2.1046  0.4828  1.1759
 4174TIP3    H234158   1.264   2.438   2.175 -0.9842  0.3569  0.5492
 4175TIP3   OH234159   1.103   5.887   8.185  0.7770  0.0330  0.0835
 4175TIP3    H134160   1.139   5.976   8.188  0.5748  0.0948  1.8847
 4175TIP3    H234161   1.178   5.830   8.202  0.5112  0.0307  1.4016
 4176TIP3   OH234162   0.998   4.484   8.503 -0.2650  0.5147 -0.1404
 4176TIP3    H134163   0.928   4.438   8.456 -1.1341 -0.0369  1.6074
 4176TIP3    H234164   0.986   4.458   8.594  2.1708  0.5059  0.2326
 4177TIP3   OH234165   0.036   4.170   7.216 -0.0308  0.1134 -0.1350
 4177TIP3    H134166   0.078   4.246   7.177 -0.5523  0.3065 -0.3355
 4177TIP3    H234167  -0.042   4.155   7.163 -1.0953  0.7609  1.1674
 4178TIP3   OH234168   4.967   5.990   7.942 -0.0621 -0.0184  0.1621
 4178TIP3    H134169   4.923   5.967   7.860  1.0240 -2.5322  0.1885
 4178TIP3    H234170   4.905   5.965   8.010  0.8282 -2.4432  0.1661
 4179TIP3   OH234171   1.519   4.226   8.096  0.2356 -0.3400  0.2797
 4179TIP3    H134172   1.575   4.285   8.045 -0.9790 -0.2061 -0.9598
 4179TIP3    H234173   1.580   4.172   8.145  1.4208  0.7335  0.0519
 4180TIP3   OH234174   2.131   4.281   6.915  0.5841  0.5437 -0.4750
 4180TIP3    H134175   2.162   4.191   6.909 -2.8737 -1.1995  2.9286
 4180TIP3    H234176   2.041   4.277   6.881 -1.0342  1.5925  3.2174
 4181TIP3   OH234177   3.530   1.967   7.190 -0.6173  0.1610  0.2662
 4181TIP3    H134178   3.488   1.969   7.104 -1.5850 -0.6796  0.6868
 4181TIP3    H234179   3.622   1.952   7.171 -0.3146  2.7415 -0.7185
 4182TIP3   OH234180   2.577   3.569   2.326 -0.5822 -0.6094  0.1187
 4182TIP3    H134181   2.610   3.596   2.412 -3.0841  2.1319  0.3925
 4182TIP3    H234182   2.563   3.475   2.335  3.7878 -1.3953  0.9577
 4183TIP3   OH234183   2.683   4.980   0.253 -0.0159 -0.2443 -0.3645
 4183TIP3    H134184   2.766   4.988   0.206  0.4751 -1.4637  0.2722
 4183TIP3    H234185   2.697   5.029   0.334  0.7452 -1.9765  0.5845
 4184TIP3   OH234186   1.076   1.504   7.797  0.5059 -0.0965  0.6403
 4184TIP3    H134187   1.041   1.470   7.879  2.5930 -0.5024  1.4415
 4184TIP3    H234188   1.101   1.427   7.747  1.6658  0.1668  0.7836
 4185TIP3   OH234189   4.764   2.523   8.052 -0.2992  0.0011  0.8397
 4185TIP3    H134190   4.829   2.462   8.088 -0.1678  0.2839  1.0809
 4185TIP3    H234191   4.749   2.491   7.963 -0.1372 -0.3116  0.9203
 4186TIP3   OH234192   3.906   5.905   7.112  0.3683  0.0867 -0.4267
 4186TIP3    H134193   3.890   5.932   7.022  0.6969  1.4836 -0.0913
 4186TIP3    H234194   4.002   5.898   7.118  0.3048 -1.0465 -0.4534
 4187TIP3   OH234195   4.003   5.110   7.076  0.1733 -0.2515 -0.5490
 4187TIP3    H134196   4.074   5.124   7.013  0.5487 -2.4846 -0.6840
 4187TIP3    H234197   4.044   5.123   7.162  0.2943  0.1852 -0.6664
 4188TIP3   OH234198   2.250   3.056   2.152 -0.1842 -0.3946 -0.0422
 4188TIP3    H134199   2.183   3.036   2.218 -0.0652  2.0258  0.9074
 4188TIP3    H234200   2.331   3.064   2.201  0.4283 -1.2000 -0.8894
 4189TIP3   OH234201   0.155   4.780   6.693 -0.2230 -0.0104 -0.7517
 4189TIP3    H134202   0.229   4.722   6.675 -0.9784 -0.6143 -1.9847
 4189TIP3    H234203   0.140   4.769   6.787  0.0145 -1.3730 -0.8522
 4190TIP3   OH234204   5.848   0.522   1.087  0.0980 -0.4063 -0.1343
 4190TIP3    H134205   5.790   0.583   1.043 -2.3135 -0.7332  2.3233
 4190TIP3    H234206   5.908   0.578   1.137  0.3773 -0.0671 -0.8397
 4191TIP3   OH234207   0.505   1.224   7.930 -0.1738 -0.2668  0.0689
 4191TIP3    H134208   0.590   1.209   7.972 -0.3643 -1.0344  0.1921
 4191TIP3    H234209   0.464   1.138   7.928 -1.9261  0.4440  2.0789
 4192TIP3   OH234210   6.405   0.400   1.338  0.2237  0.1827  0.3406
 4192TIP3    H134211   6.441   0.335   1.277  2.0390  0.0618  1.4479
 4192TIP3    H234212   6.397   0.353   1.421  1.4919  1.3027  1.1480
 4193TIP3   OH234213   0.068   1.292   0.672 -0.5226  0.5021  0.3744
 4193TIP3    H134214   0.093   1.210   0.713  0.6801  1.3841  1.5047
 4193TIP3    H234215  -0.021   1.310   0.704  0.4995  1.3425  3.0214
 4194TIP3   OH234216   6.382   4.770   2.794  0.3671 -0.0954  0.4655
 4194TIP3    H134217   6.343   4.695   2.838 -0.9941 -1.2190 -2.4057
 4194TIP3    H234218   6.472   4.772   2.825  0.6255 -3.2873  0.2779
 4195TIP3   OH234219   3.942   2.502   7.288  0.5116 -0.4246 -0.3686
 4195TIP3    H134220   3.915   2.577   7.234 -1.8717  0.1257  1.3776
 4195TIP3    H234221   3.872   2.438   7.275 -0.0919 -0.2982  1.9088
 4196TIP3   OH234222   6.780   3.891   8.500  0.7815  0.1286  0.1091
 4196TIP3    H134223   6.835   3.870   8.575  2.8890  1.8178 -0.8470
 4196TIP3    H234224   6.837   3.879   8.424 -1.7765 -3.3212 -1.5352
 4197TIP3   OH234225   4.936   4.044   1.878  0.5378 -0.4200 -0.6073
 4197TIP3    H134226   4.943   4.130   1.919  1.3853  0.2167 -2.0264
 4197TIP3    H234227   4.921   3.984   1.951 -2.5431  1.1640  0.2399
 4198TIP3   OH234228   0.348   4.091   0.299  0.1335 -0.3394  0.2330
 4198TIP3    H134229   0.420   4.057   0.245  1.6352  0.5352  1.5933
 4198TIP3    H234230   0.307   4.013   0.336  1.5240 -0.8237  0.8281
 4199TIP3   OH234231   3.703   6.179   1.258 -0.6522  0.2410  0.5092
 4199TIP3    H134232   3.679   6.167   1.166 -2.3427 -0.9107  1.0495
 4199TIP3    H234233   3.756   6.259   1.259 -0.6019  0.2823 -1.4443
 4200TIP3   OH234234   3.394   5.869   7.832 -0.2569 -0.0179 -0.1350
 4200TIP3    H134235   3.411   5.943   7.889 -1.2679 -1.0436  1.5610
 4200TIP3    H234236   3.364   5.908   7.750 -1.5201  1.4496  0.9725
 4201TIP3   OH234237   4.739   3.011   7.899  0.3506 -0.3512 -0.4061
 4201TIP3    H134238   4.668   3.074   7.911  0.1366 -0.5358 -0.7032
 4201TIP3    H234239   4.706   2.930   7.939  0.3661 -0.4555 -0.6034
 4202TIP3   OH234240   4.374   2.980   8.177 -0.3656  0.8119  0.5357
 4202TIP3    H134241   4.295   2.928   8.192  0.0428  0.2056  0.6241
 4202TIP3    H234242   4.429   2.961   8.252  0.3941  0.2212 -0.1489
 4203TIP3   OH234243   2.491   0.568   8.178  0.3333  0.0347 -0.0506
 4203TIP3    H134244   2.549   0.586   8.252  1.1213 -2.0313 -0.0890
 4203TIP3    H234245   2.403   0.584   8.212  0.6828 -0.8281  1.3555
 4204TIP3   OH234246   3.897   1.337   0.489 -0.2247  0.2377 -0.3237
 4204TIP3    H134247   3.946   1.363   0.567  0.7801  0.5785 -1.0457
 4204TIP3    H234248   3.828   1.403   0.481  0.8411  1.3612 -0.7767
 4205TIP3   OH234249   1.332   4.675   0.105 -0.8883 -0.0418 -0.5852
 4205TIP3    H134250   1.427   4.680   0.094 -0.7638  3.3860  0.7588
 4205TIP3    H234251   1.319   4.609   0.173  0.7352  0.6721  0.4891
 4206TIP3   OH234252   1.039   2.074   0.901 -0.2929 -0.3455  0.1710
 4206TIP3    H134253   1.127   2.045   0.923  0.2561  0.9661 -0.1932
 4206TIP3    H234254   1.052   2.146   0.839 -1.6366 -0.4593 -0.2840
 4207TIP3   OH234255   5.335   1.888   0.102  0.1211 -0.6402 -0.2934
 4207TIP3    H134256   5.273   1.836   0.051  0.4693  0.5538 -2.0275
 4207TIP3    H234257   5.312   1.979   0.082  1.2251 -0.1561  0.5310
 4208TIP3   OH234258   4.005   1.984   2.828 -0.3830  0.1561 -0.0667
 4208TIP3    H134259   3.948   2.046   2.875 -0.8765 -0.5266  0.2474
 4208TIP3    H234260   4.092   2.000   2.864 -0.7859 -0.4926  1.2526
 4209TIP3   OH234261   1.688   4.905   2.226  0.2412  0.0217 -0.6359
 4209TIP3    H134262   1.741   4.878   2.301  0.3799  2.2296  0.1316
 4209TIP3    H234263   1.609   4.850   2.232  1.2462 -1.4301 -0.2364
 4210TIP3   OH234264   5.726   6.586   0.336 -0.3068 -0.4363 -0.0033
 4210TIP3    H134265   5.779   6.516   0.299 -2.3899 -1.9484 -0.3164
 4210TIP3    H234266   5.678   6.623   0.262  1.5000  2.1238 -0.0280
 4211TIP3   OH234267   2.132   4.997   1.333  0.2696  0.3641  0.3304
 4211TIP3    H134268   2.163   4.970   1.420 -0.2609  0.3742  0.5253
 4211TIP3    H234269   2.188   4.948   1.272 -0.5606 -1.0623  0.6806
 4212TIP3   OH234270   5.426   1.524   7.088 -0.1640  0.6359 -0.0183
 4212TIP3    H134271   5.462   1.525   7.176  0.0418  0.9380 -0.1028
 4212TIP3    H234272   5.451   1.609   7.051 -0.5417  0.6514 -0.2464
 4213TIP3   OH234273   4.157   1.430   7.208  0.0437  0.7603  0.2170
 4213TIP3    H134274   4.089   1.454   7.270 -0.6704 -1.3885  0.3514
 4213TIP3    H234275   4.110   1.408   7.127  0.8069  1.7445 -0.5194
 4214TIP3   OH234276   3.385   4.177   1.158  0.3090  0.5656 -0.3897
 4214TIP3    H134277   3.397   4.179   1.063 -1.7820  1.6714 -0.6690
 4214TIP3    H234278   3.450   4.238   1.191  0.6952  0.5849 -1.1454
 4215TIP3   OH234279   1.066   0.277   2.430  1.1801  0.1621 -0.3107
 4215TIP3    H134280   1.152   0.241   2.455  0.6103 -1.7025 -0.8556
 4215TIP3    H234281   1.019   0.286   2.513  1.9705  1.4525  0.0220
 4216TIP3   OH234282   6.816   1.750   0.235 -0.5221 -0.1548 -0.4383
 4216TIP3    H134283   6.892   1.777   0.184 -1.5701  1.4847 -1.2245
 4216TIP3    H234284   6.755   1.714   0.170 -1.1524  0.2755 -0.0928
 4217TIP3   OH234285   2.474   3.527   6.821  0.0348 -0.1051 -0.0370
 4217TIP3    H134286   2.532   3.576   6.763  3.7437 -1.0085  2.5053
 4217TIP3    H234287   2.465   3.441   6.779 -2.6056  1.0521 -2.1636
 4218TIP3   OH234288   0.750   5.408   1.215  0.3189  0.2954 -0.3922
 4218TIP3    H134289   0.829   5.403   1.270 -1.2371  5.5081  2.9962
 4218TIP3    H234290   0.692   5.341   1.252  0.8426  0.9005  1.6921
 4219TIP3   OH234291   4.525   0.852   6.566 -0.3446 -0.4043  0.4449
 4219TIP3    H134292   4.518   0.933   6.516 -1.1771 -1.9579 -2.1852
 4219TIP3    H234293   4.596   0.867   6.628  1.5389  1.3520 -1.9715
 4220TIP3   OH234294   0.733   5.008   1.405  0.3171  0.5695 -0.5722
 4220TIP3    H134295   0.818   4.971   1.431  0.7881  3.0046  1.8316
 4220TIP3    H234296   0.755   5.073   1.338  0.7435  2.6251  1.4408
 4221TIP3   OH234297   1.845   3.597   1.663  0.4573  0.3902  0.1000
 4221TIP3    H134298   1.792   3.605   1.743 -0.8153  1.8458 -0.8417
 4221TIP3    H234299   1.781   3.582   1.593  1.0204  3.5761 -1.2798
 4222TIP3   OH234300   0.062   3.363   1.893 -0.4562 -0.5064  0.3611
 4222TIP3    H134301   0.137   3.367   1.951  2.9529  1.4411 -3.6647
 4222TIP3    H234302   0.083   3.293   1.831 -1.9848  0.0648 -0.8745
 4223TIP3   OH234303   4.059   0.002   6.500  0.2617 -0.0549 -0.6223
 4223TIP3    H134304   4.013   0.035   6.423  0.6825  0.5745 -0.6140
 4223TIP3    H234305   4.033  -0.090   6.507 -1.2972  0.3811 -0.3777
 4224TIP3   OH234306   3.141   4.137   7.872 -0.7747 -0.5214 -0.2659
 4224TIP3    H134307   3.097   4.205   7.820 -0.8825 -1.1676 -1.0416
 4224TIP3    H234308   3.078   4.115   7.940 -0.1316  1.2516  0.9805
 4225TIP3   OH234309   2.804   2.947   0.629 -0.2129  0.3013  0.2552
 4225TIP3    H134310   2.860   3.024   0.621 -0.0821  0.1079 -0.9589
 4225TIP3    H234311   2.849   2.879   0.578 -1.7831  0.2846 -1.2070
 4226TIP3   OH234312   3.572   5.264   1.341  0.5757 -0.1715  0.3551
 4226TIP3    H134313   3.512   5.197   1.306 -0.4325  1.7159 -1.8361
 4226TIP3    H234314   3.519   5.312   1.404  0.8321 -0.5085  0.8304
 4227TIP3   OH234315   1.267   0.855   7.044 -0.0438 -0.0522  0.5923
 4227TIP3    H134316   1.287   0.882   7.133 -0.0562 -1.1309  0.9415
 4227TIP3    H234317   1.172   0.861   7.038 -0.2708 -2.0311  1.3912
 4228TIP3   OH234318   3.677   6.608   7.629 -0.4333  0.1263 -0.1270
 4228TIP3    H134319   3.719   6.603   7.543  1.5713  0.3383  0.7823
 4228TIP3    H234320   3.602   6.665   7.615  2.8428  4.9078 -0.7324
 4229TIP3   OH234321   2.014   0.269   6.551  0.9026  0.3503 -0.0930
 4229TIP3    H134322   2.013   0.310   6.464 -0.5707  0.4361 -0.0637
 4229TIP3    H234323   2.105   0.274   6.579  1.4587  0.0446 -1.7579
 4230TIP3   OH234324   0.048   2.417   8.339 -0.0774  0.3574  0.3170
 4230TIP3    H134325   0.022   2.483   8.274 -0.4890  0.4008  0.5236
 4230TIP3    H234326   0.048   2.335   8.290  0.2232  0.4776  0.1113
 4231TIP3   OH234327   1.448   1.489   2.455  0.1114 -0.6011  0.9129
 4231TIP3    H134328   1.479   1.428   2.522  1.0763 -1.3446 -0.1826
 4231TIP3    H234329   1.527   1.527   2.419 -0.4632  0.9390  1.2171
 4232TIP3   OH234330   3.199   2.207   6.648 -0.0795 -0.0861  0.2453
 4232TIP3    H134331   3.248   2.247   6.576  0.2076 -0.1208  0.4217
 4232TIP3    H234332   3.107   2.212   6.620  0.0443 -0.2488 -0.1999
 4233TIP3   OH234333   6.804   2.005   7.758  0.5027  0.6380  0.1078
 4233TIP3    H134334   6.891   2.034   7.783 -0.1166  1.1274  1.8387
 4233TIP3    H234335   6.788   1.928   7.812  0.9192 -1.2081 -2.2328
 4234TIP3   OH234336   6.928   1.713   7.260 -0.1134 -0.3135  0.3472
 4234TIP3    H134337   6.885   1.796   7.282 -0.8039 -0.6718  0.4008
 4234TIP3    H234338   6.857   1.658   7.227 -0.0913 -1.5872  2.2435
 4235TIP3   OH234339   2.766   2.059   8.011 -0.2742  0.3458 -0.4583
 4235TIP3    H134340   2.841   2.017   7.969  0.2835  2.7913 -2.0712
 4235TIP3    H234341   2.697   2.057   7.944 -0.7256  0.6425 -0.0109
 4236TIP3   OH234342   1.532   5.929   2.644 -0.4031 -0.2928 -0.4348
 4236TIP3    H134343   1.612   5.876   2.643 -1.0330 -1.2730 -1.0280
 4236TIP3    H234344   1.468   5.876   2.597 -1.2483  0.7297 -0.4721
 4237TIP3   OH234345   1.378   0.668   6.837 -0.3588 -0.0556 -0.2167
 4237TIP3    H134346   1.359   0.716   6.918 -1.8302  0.3609 -0.7635
 4237TIP3    H234347   1.401   0.736   6.773 -3.0583  0.0830 -1.1648
 4238TIP3   OH234348   5.130   2.524   2.982  0.2543  0.1180 -0.4120
 4238TIP3    H134349   5.076   2.493   3.055 -0.3952 -0.6689 -1.1975
 4238TIP3    H234350   5.146   2.616   3.002 -0.6683  0.1464  0.2794
 4239TIP3   OH234351   0.272   6.039   7.934  0.6586  0.4202  0.1230
 4239TIP3    H134352   0.288   5.950   7.901  1.2875  0.4795  0.2680
 4239TIP3    H234353   0.205   6.074   7.875 -2.1623 -1.3233  2.0121
 4240TIP3   OH234354   0.843   6.171   6.950 -0.4771 -0.1729  0.4983
 4240TIP3    H134355   0.885   6.239   6.898  0.4511 -0.2328  1.1420
 4240TIP3    H234356   0.870   6.089   6.910  2.3614 -0.3543  2.4704
 4241TIP3   OH234357   3.960   6.173   1.130 -0.4358 -0.0725  0.2012
 4241TIP3    H134358   3.875   6.130   1.135 -0.7632  0.3780 -1.0783
 4241TIP3    H234359   3.940   6.267   1.130  0.0508  0.0377 -0.2331
 4242TIP3   OH234360   1.867   6.925   0.891 -0.2087  0.0683 -0.3001
 4242TIP3    H134361   1.798   6.989   0.877 -0.2164  0.2684  0.5879
 4242TIP3    H234362   1.850   6.890   0.978  0.5779 -0.1714 -0.2325
 4243TIP3   OH234363   5.641   5.142   1.603 -0.1851 -0.0789  0.0902
 4243TIP3    H134364   5.559   5.103   1.635 -0.1753 -0.9491 -0.8914
 4243TIP3    H234365   5.633   5.141   1.508  1.9904 -2.5979 -0.1818
 4244TIP3   OH234366   0.826   0.317   8.515  0.0648  0.3771  0.4174
 4244TIP3    H134367   0.776   0.399   8.514  0.7570  0.8373  1.6646
 4244TIP3    H234368   0.910   0.341   8.554  0.4750 -0.8275  0.2993
 4245TIP3   OH234369   5.762   6.218   7.127  0.2951 -0.0902  0.1939
 4245TIP3    H134370   5.819   6.168   7.068 -0.5370 -0.4582 -0.3149
 4245TIP3    H234371   5.730   6.291   7.073  1.2708  0.8635  0.8466
 4246TIP3   OH234372   2.924   2.917   2.537  0.1882  0.1673 -0.4650
 4246TIP3    H134373   3.000   2.878   2.582 -0.1200  1.7678  1.5563
 4246TIP3    H234374   2.850   2.862   2.562  0.2722  0.1275 -0.3032
 4247TIP3   OH234375   5.050   3.961   2.590  0.2785  0.4236 -0.4736
 4247TIP3    H134376   5.041   3.869   2.614  0.1601  0.7647  0.8553
 4247TIP3    H234377   5.143   3.972   2.571  0.4942  0.2678  0.4505
 4248TIP3   OH234378   3.467   5.099   2.487  0.1131  0.2267  0.1667
 4248TIP3    H134379   3.528   5.068   2.420 -0.6928 -0.4398 -0.2753
 4248TIP3    H234380   3.487   5.046   2.565 -1.6963 -2.0050 -0.7684
 4249TIP3   OH234381   3.318   2.856   0.010 -0.2736  0.5235 -0.0102
 4249TIP3    H134382   3.293   2.912  -0.063 -0.3507 -2.7118 -2.6812
 4249TIP3    H234383   3.383   2.907   0.058  0.1159  2.6401 -2.5517
 4250TIP3   OH234384   4.620   5.816   0.387 -0.0446 -0.3173  0.1630
 4250TIP3    H134385   4.656   5.825   0.298  1.2315 -0.9229  0.5929
 4250TIP3    H234386   4.691   5.845   0.444 -0.0563 -1.9743  1.0662
 4251TIP3   OH234387   2.104   1.028   0.896  0.2471 -0.0514  0.6088
 4251TIP3    H134388   2.092   1.122   0.910 -0.9279  0.0136 -0.6024
 4251TIP3    H234389   2.164   1.022   0.822  1.1223 -0.2862  1.3215
 4252TIP3   OH234390   6.197   3.167   7.370 -0.0785 -0.3313 -0.0552
 4252TIP3    H134391   6.165   3.104   7.434  0.2496 -0.6965 -0.2443
 4252TIP3    H234392   6.276   3.126   7.334  0.2366  0.2638 -0.0541
 4253TIP3   OH234393   0.492   0.903   1.118 -0.6591  0.1373  0.2266
 4253TIP3    H134394   0.581   0.931   1.099 -0.6318 -0.1301 -0.0726
 4253TIP3    H234395   0.479   0.921   1.211 -0.3828  0.4121  0.2123
 4254TIP3   OH234396   2.680   4.495   3.050 -0.2692 -0.2560  0.2075
 4254TIP3    H134397   2.643   4.423   2.999 -1.0757 -1.0418  1.8285
 4254TIP3    H234398   2.625   4.571   3.028  0.6653 -0.0644 -1.6076
 4255TIP3   OH234399   0.095   0.830   7.448 -0.1239 -0.1875  0.2157
 4255TIP3    H134400   0.090   0.926   7.446 -1.7455 -0.2327  0.6192
 4255TIP3    H234401   0.139   0.810   7.531 -0.7534  0.1900  0.6443
 4256TIP3   OH234402   5.538   6.220   0.324  0.2939 -0.3976 -0.1512
 4256TIP3    H134403   5.570   6.294   0.376 -0.9210  0.4594 -0.5743
 4256TIP3    H234404   5.588   6.224   0.243  1.8376 -1.4359  0.6866
 4257TIP3   OH234405   6.356   3.129   2.967 -0.1412  0.1696  0.2450
 4257TIP3    H134406   6.443   3.098   2.992 -0.5216 -0.7077  0.4932
 4257TIP3    H234407   6.369   3.166   2.879  0.3998 -0.3480  0.0982
 4258TIP3   OH234408   6.180   6.149   7.594 -0.2965 -0.1917 -0.3672
 4258TIP3    H134409   6.229   6.161   7.676  2.2149 -0.0011 -1.7995
 4258TIP3    H234410   6.188   6.056   7.574 -0.0155 -0.0592 -0.8966
 4259TIP3   OH234411   3.692   0.049   0.512 -0.3425 -0.5886  0.3944
 4259TIP3    H134412   3.711   0.087   0.598  2.6204 -0.1904 -0.3577
 4259TIP3    H234413   3.762   0.080   0.456 -1.2727 -2.2219 -1.7955
 4260TIP3   OH234414   1.982   0.308   8.071  0.0190  0.1734 -0.2340
 4260TIP3    H134415   2.033   0.232   8.100  0.1655  0.9637  1.7777
 4260TIP3    H234416   1.891   0.278   8.075  0.1629 -0.5078 -1.5097
 4261TIP3   OH234417   1.395   1.863   6.743  0.1534 -0.4914  0.1077
 4261TIP3    H134418   1.347   1.810   6.679  1.7633 -1.1660 -0.5933
 4261TIP3    H234419   1.481   1.823   6.748 -0.0112 -0.7323  3.0743
 4262TIP3   OH234420   2.815   1.352   2.578  0.3381  0.0577  0.4334
 4262TIP3    H134421   2.878   1.313   2.517 -0.1124 -0.1968  0.1269
 4262TIP3    H234422   2.759   1.279   2.606  0.1025  0.3017  0.6076
 4263TIP3   OH234423   4.021   4.883   1.288  0.4530 -0.0010  0.4398
 4263TIP3    H134424   4.021   4.841   1.374 -3.0223 -2.0876 -0.3722
 4263TIP3    H234425   4.068   4.821   1.232 -2.3743 -1.7159 -0.2168
 4264TIP3   OH234426   0.021   3.301   1.321 -0.2942  0.0698 -0.1628
 4264TIP3    H134427  -0.004   3.371   1.381 -0.0709  0.9170 -1.0338
 4264TIP3    H234428   0.098   3.335   1.276 -0.5054 -0.5186 -0.9790
 4265TIP3   OH234429   6.708   4.502   8.041  0.3981 -0.0499 -0.1254
 4265TIP3    H134430   6.628   4.462   8.005  0.1492  1.4079 -1.2460
 4265TIP3    H234431   6.675   4.572   8.098  0.8744  0.3483 -0.3399
 4266TIP3   OH234432   0.452   5.899   0.501 -0.5923 -0.6708  0.2292
 4266TIP3    H134433   0.438   5.897   0.406 -0.5752 -1.4880  0.2363
 4266TIP3    H234434   0.500   5.981   0.516 -1.0222 -0.2922 -0.4021
 4267TIP3   OH234435   1.044   3.086   7.177 -0.3173  0.2380  0.0557
 4267TIP3    H134436   1.086   3.140   7.244  0.9234  0.9962 -1.2833
 4267TIP3    H234437   1.115   3.034   7.140 -1.2568 -1.2896  0.3404
 4268TIP3   OH234438   1.311   0.898   0.957 -0.1416  0.4180  0.4739
 4268TIP3    H134439   1.274   0.956   0.890 -0.0339  0.6077  0.5759
 4268TIP3    H234440   1.258   0.914   1.035  0.0406  0.5594  0.5704
 4269TIP3   OH234441   5.395   6.185   7.001 -0.1097 -0.3712 -0.1429
 4269TIP3    H134442   5.450   6.145   6.935  1.2944  1.7237 -0.3365
 4269TIP3    H234443   5.413   6.136   7.081  1.8121  0.0527 -0.2830
 4270TIP3   OH234444   3.486   6.145   0.385 -0.1117 -0.0745 -0.2369
 4270TIP3    H134445   3.398   6.111   0.369 -0.4363  0.4394  0.4151
 4270TIP3    H234446   3.472   6.223   0.439  0.6889  0.4397 -0.7410
 4271TIP3   OH234447   2.004   4.051   7.346 -0.2777 -0.8809  0.2930
 4271TIP3    H134448   2.022   4.131   7.297 -2.4787 -0.4408  0.0890
 4271TIP3    H234449   1.950   4.080   7.420  1.2844 -1.8143  1.8687
 4272TIP3   OH234450   4.011   4.140   0.845  0.0734 -0.5334 -0.4721
 4272TIP3    H134451   4.023   4.081   0.770  4.8659 -0.3907 -0.0858
 4272TIP3    H234452   4.044   4.092   0.920 -0.6090  0.8936  0.8013
 4273TIP3   OH234453   1.731   6.009   0.334 -0.7510  0.7136  0.0461
 4273TIP3    H134454   1.759   6.098   0.313  0.5154  0.4452  0.4710
 4273TIP3    H234455   1.754   5.999   0.427  0.2260 -0.4256 -0.2925
 4274TIP3   OH234456   5.807   0.402   2.358 -0.0585  0.1284  0.0253
 4274TIP3    H134457   5.756   0.390   2.278 -1.2640  0.3813  0.7336
 4274TIP3    H234458   5.808   0.316   2.399 -1.0175  0.3817  0.6269
 4275TIP3   OH234459   3.902   6.646   8.298 -0.3265 -0.5184  0.3809
 4275TIP3    H134460   3.836   6.579   8.315  0.8262 -1.4708  1.2255
 4275TIP3    H234461   3.972   6.629   8.362  0.2312  1.1720  0.2789
 4276TIP3   OH234462   5.389   2.061   0.947 -0.1656  0.3739  0.4550
 4276TIP3    H134463   5.353   2.146   0.975 -2.8227 -0.6345  0.4095
 4276TIP3    H234464   5.388   2.008   1.027 -0.2427 -0.1436  0.1138
 4277TIP3   OH234465   0.387   1.614   1.374  0.4901 -0.1451  0.6817
 4277TIP3    H134466   0.309   1.564   1.399  0.1826 -0.3901 -0.6765
 4277TIP3    H234467   0.415   1.575   1.291  1.6201  0.4396  0.7620
 4278TIP3   OH234468   5.492   2.969   7.125 -0.4186  0.4791  0.2173
 4278TIP3    H134469   5.539   2.976   7.208  2.9225  0.0907 -1.4730
 4278TIP3    H234470   5.490   3.058   7.091  1.7313  0.1238 -0.9723
 4279TIP3   OH234471   2.255   6.114   7.876  0.4848  0.0763 -0.4327
 4279TIP3    H134472   2.247   6.202   7.839  0.4373 -0.5057 -1.8632
 4279TIP3    H234473   2.171   6.098   7.919  0.5007  0.7308 -0.1492
 4280TIP3   OH234474   3.181   3.324   2.636 -0.1862 -0.0638  0.1405
 4280TIP3    H134475   3.271   3.352   2.651  0.0276 -0.4790 -0.3509
 4280TIP3    H234476   3.140   3.327   2.723  0.3399 -0.0318  0.3885
 4281TIP3   OH234477   6.703   1.168   7.055  0.5748  0.0079  0.2077
 4281TIP3    H134478   6.744   1.106   6.995  3.1838  0.2285  1.6249
 4281TIP3    H234479   6.692   1.119   7.137 -0.5946  0.4311  0.3240
 4282TIP3   OH234480   3.459   2.625   2.492 -0.1628 -0.9886  0.6029
 4282TIP3    H134481   3.372   2.602   2.524 -0.5041 -1.5143 -0.6659
 4282TIP3    H234482   3.455   2.719   2.476 -0.5604 -1.0493  0.3479
 4283TIP3   OH234483   3.104   5.309   0.776  0.0218  0.0592  0.4898
 4283TIP3    H134484   3.032   5.292   0.715  1.3586  0.3323 -1.2152
 4283TIP3    H234485   3.061   5.348   0.853 -1.7276 -0.4966 -0.1636
 4284TIP3   OH234486   1.838   2.467   2.079  0.3304 -0.6129  0.1931
 4284TIP3    H134487   1.793   2.426   2.153  0.2710 -1.4750 -0.3013
 4284TIP3    H234488   1.931   2.452   2.097  0.4717  1.1430  1.1996
 4285TIP3   OH234489   2.626   1.036   0.085  0.4900 -0.0539 -0.2436
 4285TIP3    H134490   2.620   0.988   0.168 -0.8609 -0.9905 -0.8422
 4285TIP3    H234491   2.537   1.035   0.050  1.2103 -0.5852 -2.1973
 4286TIP3   OH234492   4.034   3.668   7.198 -0.3688  0.4242 -0.3579
 4286TIP3    H134493   4.124   3.679   7.229 -0.3384  0.0974 -0.3272
 4286TIP3    H234494   4.037   3.693   7.105 -0.0740 -0.3474 -0.5676
 4287TIP3   OH234495   4.451   4.510   7.752 -0.1504 -0.2346  0.0010
 4287TIP3    H134496   4.368   4.464   7.760 -0.2139  0.0727  1.3228
 4287TIP3    H234497   4.467   4.547   7.839 -0.0667  2.1568 -0.9557
 4288TIP3   OH234498   4.798   2.659   8.436 -0.1024 -0.0459 -0.1226
 4288TIP3    H134499   4.810   2.570   8.468  0.5000 -0.3447 -1.1484
 4288TIP3    H234500   4.885   2.688   8.411 -0.4077  0.5488 -0.5158
 4289TIP3   OH234501   3.894   2.412   6.884  0.7013  0.7831 -0.2679
 4289TIP3    H134502   3.984   2.412   6.851  0.5629 -0.4012 -0.6866
 4289TIP3    H234503   3.860   2.326   6.861  0.2938  0.2223  2.1776
 4290TIP3   OH234504   2.726   5.479   7.016 -0.0332 -0.1322 -0.6000
 4290TIP3    H134505   2.661   5.540   7.051  1.0805  1.3657 -1.0495
 4290TIP3    H234506   2.799   5.484   7.077  0.1895 -0.8129 -0.8049
 4291TIP3   OH234507   4.968   0.572   1.869 -0.3540 -0.0485  0.2289
 4291TIP3    H134508   5.063   0.563   1.884 -0.1046  0.4070 -0.9452
 4291TIP3    H234509   4.945   0.494   1.818 -0.5080  0.0821  0.0962
 4292TIP3   OH234510   2.572   6.889   0.555 -0.2953 -0.0990  0.3294
 4292TIP3    H134511   2.590   6.841   0.636  0.7807  0.3972  0.3984
 4292TIP3    H234512   2.549   6.821   0.491 -1.4022 -0.4727  1.1047
 4293TIP3   OH234513   1.766   6.143   7.259  0.3558 -0.1696  0.4604
 4293TIP3    H134514   1.854   6.177   7.250 -0.4027  1.4840 -1.4196
 4293TIP3    H234515   1.743   6.110   7.172 -0.9309 -0.4144  0.8661
 4294TIP3   OH234516   2.190   6.652   2.250  0.2805 -0.0613  0.4716
 4294TIP3    H134517   2.185   6.572   2.197 -1.4597  0.7225 -0.6299
 4294TIP3    H234518   2.223   6.623   2.335 -0.5004 -1.9804  0.1630
 4295TIP3   OH234519   5.270   0.117   8.181  0.2126  0.1506 -0.1453
 4295TIP3    H134520   5.225   0.034   8.170 -0.7194  0.6660 -0.3292
 4295TIP3    H234521   5.200   0.182   8.183  0.9819  1.0252 -0.9377
 4296TIP3   OH234522   1.930   2.006   1.618  0.6676  0.0122 -0.2218
 4296TIP3    H134523   1.951   1.990   1.710 -0.8155 -0.5330  0.0525
 4296TIP3    H234524   1.887   2.091   1.618  3.9477  1.8558 -0.9826
 4297TIP3   OH234525   6.889   4.927   0.650 -0.2699 -0.1361  0.1770
 4297TIP3    H134526   6.926   4.839   0.641 -0.9015 -0.3054 -0.9086
 4297TIP3    H234527   6.851   4.928   0.738 -0.1274 -0.8973  0.2558
 4298TIP3   OH234528   2.785   5.881   0.443  0.0753 -0.2371  0.4547
 4298TIP3    H134529   2.861   5.851   0.392  0.7489  0.8787  0.7647
 4298TIP3    H234530   2.721   5.810   0.435  1.1540 -1.2127  0.1924
 4299TIP3   OH234531   6.151   0.864   1.399 -0.0793  0.1523 -0.0377
 4299TIP3    H134532   6.173   0.954   1.373  0.0733 -0.1289 -0.9163
 4299TIP3    H234533   6.225   0.811   1.370 -0.1405 -0.2585  0.5315
 4300TIP3   OH234534   0.494   6.899   2.620  0.1372  0.3628  0.3758
 4300TIP3    H134535   0.525   6.989   2.630 -0.3224  0.8620 -2.0189
 4300TIP3    H234536   0.553   6.847   2.674  1.9304  1.8626 -0.0393
 4301TIP3   OH234537   1.913   0.730   7.244 -0.5012  0.0300  0.2867
 4301TIP3    H134538   1.961   0.742   7.325 -2.5203  0.6370  1.4665
 4301TIP3    H234539   1.936   0.807   7.191 -0.0778  0.2470  0.7777
 4302TIP3   OH234540   3.608   3.176   7.341  0.1256 -1.0584  0.2578
 4302TIP3    H134541   3.600   3.215   7.254 -0.3821 -0.9466  0.3559
 4302TIP3    H234542   3.577   3.086   7.330 -2.3241 -0.3389  0.8556
 4303TIP3   OH234543   6.047   4.577   1.860 -0.2165 -0.2414  0.3887
 4303TIP3    H134544   6.045   4.482   1.852  0.3544 -0.5447  2.8885
 4303TIP3    H234545   6.126   4.604   1.812  0.7388 -1.2813  1.3222
 4304TIP3   OH234546   4.507   5.725   7.085  0.5802 -0.0119  0.5645
 4304TIP3    H134547   4.415   5.733   7.109  0.5372  0.0494  0.3780
 4304TIP3    H234548   4.553   5.714   7.168  0.3773 -0.2977  0.6397
 4305TIP3   OH234549   1.910   2.001   6.331 -0.5558 -0.6210 -0.3545
 4305TIP3    H134550   1.992   2.050   6.324 -0.3482 -0.6976  1.1780
 4305TIP3    H234551   1.919   1.930   6.267  1.5260 -1.8666  1.1788
 4306TIP3   OH234552   1.701   0.422   2.617  0.3504 -0.2987  0.0131
 4306TIP3    H134553   1.636   0.459   2.557 -0.5688 -0.3836  0.9335
 4306TIP3    H234554   1.734   0.497   2.666  1.9306 -0.0580 -1.3270
 4307TIP3   OH234555   6.305   6.235   1.430  0.5609 -0.2379  0.5387
 4307TIP3    H134556   6.285   6.158   1.376 -2.1429  0.6749  0.0956
 4307TIP3    H234557   6.323   6.304   1.366  0.1932  0.1587  0.8618
 4308TIP3   OH234558   4.460   3.489   0.820 -1.0873  0.5673 -0.1450
 4308TIP3    H134559   4.522   3.559   0.844 -1.0162  0.5871 -0.3890
 4308TIP3    H234560   4.436   3.508   0.730  0.3462 -0.7562 -0.8574
 4309TIP3   OH234561   3.609   4.973   2.288  0.0741 -0.2627  0.3554
 4309TIP3    H134562   3.663   4.894   2.281  2.1477  0.8111  2.4896
 4309TIP3    H234563   3.647   5.033   2.224  2.0828  0.7533  2.3642
 4310TIP3   OH234564   0.012   1.705   1.929 -0.1169  0.8574 -0.6347
 4310TIP3    H134565  -0.045   1.642   1.885  0.1022  0.6930 -0.6805
 4310TIP3    H234566  -0.045   1.781   1.945  0.0007  1.2624 -1.9671
 4311TIP3   OH234567   3.325   6.425   8.468 -0.3978  0.3602  0.1726
 4311TIP3    H134568   3.264   6.420   8.541 -0.8019 -0.0271 -0.1925
 4311TIP3    H234569   3.386   6.353   8.483 -0.3679  0.3964  0.2272
 4312TIP3   OH234570   5.279   0.565   7.860 -0.2309 -0.3748  0.1989
 4312TIP3    H134571   5.343   0.508   7.902 -1.0427 -0.8011  0.8964
 4312TIP3    H234572   5.331   0.622   7.804  0.8908  0.1823  1.7500
 4313TIP3   OH234573   0.175   4.541   1.827  0.3852  0.5080 -0.8139
 4313TIP3    H134574   0.217   4.460   1.854 -0.0381  0.6443  0.2818
 4313TIP3    H234575   0.232   4.611   1.858 -0.4496  0.6841  0.3879
 4314TIP3   OH234576   1.391   1.662   1.744 -0.1452 -0.7868 -0.2721
 4314TIP3    H134577   1.365   1.667   1.836  0.1951 -0.2028 -0.1963
 4314TIP3    H234578   1.438   1.579   1.736  0.5736 -0.4429  0.2872
 4315TIP3   OH234579   1.502   0.316   8.336  0.0171 -0.5339  0.0687
 4315TIP3    H134580   1.474   0.257   8.266  1.6446 -1.0902 -0.1610
 4315TIP3    H234581   1.588   0.283   8.363 -0.2856  0.0507  1.9017
 4316TIP3   OH234582   4.662   0.309   7.326 -0.1799  0.2999  0.0263
 4316TIP3    H134583   4.661   0.377   7.394  0.6027  0.9695 -0.6063
 4316TIP3    H234584   4.752   0.310   7.292 -0.3273 -0.6120 -0.4447
 4317TIP3   OH234585   0.052   5.955   2.506 -0.2121 -0.0750  0.1477
 4317TIP3    H134586   0.059   6.045   2.475  1.2506  0.6566  2.4213
 4317TIP3    H234587  -0.034   5.951   2.549  0.1689  0.5571  0.9780
 4318TIP3   OH234588   6.104   2.931   0.977  0.1159  0.1017 -0.0618
 4318TIP3    H134589   6.129   2.858   0.919 -1.0147  0.8212 -1.5267
 4318TIP3    H234590   6.181   2.988   0.977 -0.0845  0.4009 -1.3974
 4319TIP3   OH234591   4.088   5.296   0.158  0.0278  0.8385  0.0526
 4319TIP3    H134592   4.079   5.269   0.067  0.9973 -0.9280  0.4403
 4319TIP3    H234593   3.999   5.289   0.194 -0.0954  0.0803 -0.3898
 4320TIP3   OH234594   0.356   4.862   6.959 -0.1758 -0.4267  0.4553
 4320TIP3    H134595   0.427   4.798   6.972 -0.4760 -1.1050 -1.1013
 4320TIP3    H234596   0.276   4.811   6.968 -0.4557  0.0896  0.9261
 4321TIP3   OH234597   3.098   5.344   2.719  0.4602  0.2775 -0.2486
 4321TIP3    H134598   3.046   5.351   2.639  0.5643  1.5129 -0.2310
 4321TIP3    H234599   3.048   5.393   2.784  1.1779  0.6849  0.0096
 4322TIP3   OH234600   0.804   3.643   7.505 -0.0079 -0.0775  0.5312
 4322TIP3    H134601   0.724   3.592   7.519  0.1992 -0.7836 -0.7036
 4322TIP3    H234602   0.772   3.731   7.486 -0.5042 -0.3607  0.0139
 4323TIP3   OH234603   1.660   5.442   7.621 -0.0639 -0.2773  0.3604
 4323TIP3    H134604   1.644   5.357   7.663 -0.2309 -0.6222 -0.3675
 4323TIP3    H234605   1.734   5.425   7.562  0.4677  0.3118  0.8392
 4324TIP3   OH234606   3.968   3.615   2.310 -0.5527 -0.0451  0.2153
 4324TIP3    H134607   3.960   3.573   2.395 -4.2676  0.6787  0.3899
 4324TIP3    H234608   4.059   3.599   2.284 -0.0149 -2.5900  3.0568
 4325TIP3   OH234609   2.458   4.241   8.207 -0.4780  0.1803  0.2218
 4325TIP3    H134610   2.514   4.274   8.137  0.6302 -1.6036  0.2110
 4325TIP3    H234611   2.385   4.198   8.162  0.2052 -0.9174  0.1437
 4326TIP3   OH234612   1.362   2.998   1.631 -0.4659 -0.4246 -0.0736
 4326TIP3    H134613   1.372   3.001   1.536 -1.3495  3.2821 -0.1909
 4326TIP3    H234614   1.271   3.023   1.647  0.5182  2.4430  1.7473
 4327TIP3   OH234615   3.589   6.199   7.234 -0.1723 -0.1179  0.3730
 4327TIP3    H134616   3.600   6.143   7.158  0.3476  1.2694 -0.6114
 4327TIP3    H234617   3.673   6.196   7.279 -0.3735 -0.6683  0.7310
 4328TIP3   OH234618   3.646   1.004   1.920  0.3123 -0.0098 -0.0540
 4328TIP3    H134619   3.656   1.098   1.906  0.6824  0.1441  1.0723
 4328TIP3    H234620   3.581   0.977   1.856  0.5388  0.9244 -0.7081
 4329TIP3   OH234621   4.463   1.612   2.035  0.1638 -1.1084 -0.5055
 4329TIP3    H134622   4.484   1.546   2.101 -0.6913 -0.2815  0.6414
 4329TIP3    H234623   4.537   1.672   2.036 -0.5928 -0.1250  1.0239
 4330TIP3   OH234624   2.124   5.522   7.418 -0.6511 -0.1499  0.0667
 4330TIP3    H134625   2.209   5.535   7.460 -0.3775  3.2205 -1.2185
 4330TIP3    H234626   2.131   5.570   7.335 -3.7691  0.1729 -0.1256
 4331TIP3   OH234627   2.249   4.964   1.592  0.5687 -0.4560 -0.3901
 4331TIP3    H134628   2.276   4.922   1.674  1.8144  2.0410  0.5619
 4331TIP3    H234629   2.321   5.022   1.569  0.2668 -1.0534 -3.3222
 4332TIP3   OH234630   4.266   1.691   8.311  0.5081  0.2702  0.0790
 4332TIP3    H134631   4.270   1.622   8.245  0.5378  0.3933 -0.0486
 4332TIP3    H234632   4.175   1.693   8.339  0.8898 -1.2909  1.6482
 4333TIP3   OH234633   6.838   3.574   1.039 -0.2769 -0.2492  0.4416
 4333TIP3    H134634   6.784   3.496   1.055 -3.7876  1.5953 -1.3471
 4333TIP3    H234635   6.813   3.635   1.109 -2.6509  1.5354 -1.7775
 4334TIP3   OH234636   3.506   2.190   8.381  0.1526 -0.3257  0.4386
 4334TIP3    H134637   3.556   2.226   8.454 -1.9118 -1.5237  2.5951
 4334TIP3    H234638   3.439   2.257   8.363 -0.0823 -0.5489  0.4720
 4335TIP3   OH234639   4.412   2.286   0.813  0.7067 -0.0418 -0.1847
 4335TIP3    H134640   4.379   2.312   0.899 -1.0834  1.6019 -1.2794
 4335TIP3    H234641   4.334   2.275   0.759  1.7308 -1.8837 -1.4342
 4336TIP3   OH234642   2.702   5.241   7.416 -0.2231 -0.4701 -0.0361
 4336TIP3    H134643   2.628   5.239   7.477 -0.6818 -1.6238 -0.6042
 4336TIP3    H234644   2.713   5.151   7.387  1.0472 -0.2245 -0.4155
 4337TIP3   OH234645   2.419   5.430   1.374  0.4091 -0.0071 -0.3394
 4337TIP3    H134646   2.407   5.335   1.372 -1.6486  0.2269 -1.1651
 4337TIP3    H234647   2.514   5.442   1.366  0.8804 -2.0016  1.2970
 4338TIP3   OH234648   1.341   2.205   0.287  0.1449 -0.7190  0.0578
 4338TIP3    H134649   1.299   2.279   0.330  0.0301 -0.4139 -0.5684
 4338TIP3    H234650   1.434   2.226   0.287  0.3180 -1.3356  1.3300
 4339TIP3   OH234651   5.278   0.782   7.684 -0.3530 -0.1213  0.2157
 4339TIP3    H134652   5.183   0.780   7.692 -0.4337  0.8683 -0.4349
 4339TIP3    H234653   5.301   0.875   7.681  0.4179 -0.3167 -2.0095
 4340TIP3   OH234654   0.271   1.730   1.723 -0.0111  0.5295  0.6372
 4340TIP3    H134655   0.179   1.754   1.718 -0.5478 -1.4996 -0.3738
 4340TIP3    H234656   0.271   1.639   1.754  1.7190  0.8213  1.6678
 4341TIP3   OH234657   5.852   2.543   7.284 -0.4412  0.0050 -0.2230
 4341TIP3    H134658   5.835   2.623   7.233 -1.2953 -0.0881 -0.0934
 4341TIP3    H234659   5.929   2.565   7.337 -2.4075  1.8561  2.0888
 4342TIP3   OH234660   2.499   3.571   8.068 -0.2086 -0.4703 -0.6090
 4342TIP3    H134661   2.547   3.505   8.118 -0.6181 -2.4049 -2.6013
 4342TIP3    H234662   2.427   3.597   8.126  1.0522 -0.3149  0.9531
 4343TIP3   OH234663   2.488   2.673   7.314 -0.0187 -0.5478 -0.0364
 4343TIP3    H134664   2.397   2.643   7.318 -0.0519 -0.6477 -1.3179
 4343TIP3    H234665   2.483   2.761   7.277  0.4789 -0.9387 -1.0545
 4344TIP3   OH234666   2.487   5.461   1.072 -0.1247  0.1980 -0.2611
 4344TIP3    H134667   2.429   5.413   1.012 -2.0480  0.8038  1.0206
 4344TIP3    H234668   2.447   5.449   1.158  2.3348 -0.2976  0.8820
 4345TIP3   OH234669   2.848   6.560   1.134  0.4720  0.1491  0.5287
 4345TIP3    H134670   2.791   6.578   1.210  2.9753 -0.2737  2.6540
 4345TIP3    H234671   2.853   6.465   1.130  4.1717  0.0269  3.1408
 4346TIP3   OH234672   0.734   1.696   0.624  0.8489 -0.2060 -0.2968
 4346TIP3    H134673   0.792   1.768   0.649  0.3936  0.5255 -1.2956
 4346TIP3    H234674   0.648   1.721   0.659  0.3981  0.4084 -1.7875
 4347TIP3   OH234675   4.328   6.159   2.690  0.5388 -0.8742  0.2090
 4347TIP3    H134676   4.420   6.162   2.718  0.6240  0.2079 -0.1480
 4347TIP3    H234677   4.317   6.237   2.637 -0.5396 -1.1250  0.0521
 4348TIP3   OH234678   6.622   2.713   1.734 -0.4128 -0.0701 -0.1935
 4348TIP3    H134679   6.641   2.749   1.647 -2.5265  1.6214 -0.0571
 4348TIP3    H234680   6.526   2.715   1.739 -0.3267  0.5760  2.4402
 4349TIP3   OH234681   4.296   4.090   1.314 -0.4921  0.0628 -0.0087
 4349TIP3    H134682   4.370   4.047   1.356  0.7322 -0.2170 -2.3148
 4349TIP3    H234683   4.219   4.046   1.349  0.4323 -0.2507  1.7581
 4350TIP3   OH234684   3.067   1.932   1.737 -0.0622 -0.0452 -0.1383
 4350TIP3    H134685   2.987   1.983   1.750  0.3631  1.3851 -2.5859
 4350TIP3    H234686   3.132   1.975   1.792 -0.4199  0.1233  0.1655
 4351TIP3   OH234687   6.182   0.079   1.811  0.1575  0.3338 -0.1148
 4351TIP3    H134688   6.258   0.136   1.819  0.2778  0.3450 -1.2723
 4351TIP3    H234689   6.108   0.139   1.800 -0.1959  0.3686  1.9140
 4352TIP3   OH234690   3.927   5.279   6.678 -0.4988 -0.4047 -0.5323
 4352TIP3    H134691   3.845   5.309   6.641 -0.0357  0.9992 -0.4532
 4352TIP3    H234692   3.978   5.248   6.603 -0.3739  0.4834 -0.8206
 4353TIP3   OH234693   5.150   4.734   0.703  0.0047  0.2335  0.4802
 4353TIP3    H134694   5.076   4.675   0.695 -0.3629  0.8820 -1.8283
 4353TIP3    H234695   5.113   4.817   0.732 -0.1504  0.4642 -0.3492
 4354TIP3   OH234696   4.996   2.778   7.854  0.1360  0.5630  0.5453
 4354TIP3    H134697   5.068   2.756   7.795 -0.9637 -1.6055 -0.0775
 4354TIP3    H234698   5.025   2.749   7.940 -0.2207 -0.9015  0.1865
 4355TIP3   OH234699   2.368   1.981   7.323  0.0441  0.2845  0.2245
 4355TIP3    H134700   2.288   1.945   7.284  0.8225 -1.7903  0.4175
 4355TIP3    H234701   2.370   2.071   7.292 -2.0615  0.2302 -0.2617
 4356TIP3   OH234702   5.720   3.326   0.461 -0.7971  0.2833  0.3069
 4356TIP3    H134703   5.783   3.256   0.445 -1.0132  0.1496  0.0506
 4356TIP3    H234704   5.668   3.295   0.536  0.5836  1.1565  1.6777
 4357TIP3   OH234705   6.902   0.388   2.317 -0.1975  0.5577 -0.0468
 4357TIP3    H134706   6.923   0.325   2.248  0.0297 -1.6553  1.9136
 4357TIP3    H234707   6.975   0.450   2.317 -2.1215  3.2784 -4.4454
 4358TIP3   OH234708   4.225   5.440   7.249 -0.4037  0.1783 -0.1671
 4358TIP3    H134709   4.234   5.346   7.262  2.3189  0.5383  1.3680
 4358TIP3    H234710   4.249   5.455   7.158  1.1611 -0.4469  0.1208
 4359TIP3   OH234711   2.015   5.092   0.701 -0.1257 -0.6070  0.1654
 4359TIP3    H134712   1.932   5.063   0.738  0.2061 -1.8131  0.0038
 4359TIP3    H234713   2.002   5.185   0.683 -0.9305 -0.4367  1.5237
 4360TIP3   OH234714   4.235   6.593   1.480  0.4216 -0.1627 -0.2803
 4360TIP3    H134715   4.199   6.668   1.528 -1.7086 -1.3074  0.0505
 4360TIP3    H234716   4.263   6.630   1.396 -0.1319  1.1052  0.0664
 4361TIP3   OH234717   4.833   1.640   7.930  0.7557  0.0688  0.2265
 4361TIP3    H134718   4.869   1.700   7.995  1.2547 -0.1538  0.1567
 4361TIP3    H234719   4.785   1.575   7.981 -1.4687  1.5953  0.2227
 4362TIP3   OH234720   4.585   5.249   7.792  0.4534  0.8707 -0.6692
 4362TIP3    H134721   4.567   5.343   7.793 -1.8796  0.5803  3.0559
 4362TIP3    H234722   4.667   5.239   7.839  1.5482  1.0526 -2.4503
 4363TIP3   OH234723   3.525   1.090   0.895 -0.0442  0.0106 -0.4974
 4363TIP3    H134724   3.542   1.138   0.976  2.0306 -0.3699 -0.6389
 4363TIP3    H234725   3.596   1.116   0.837  0.5999 -2.4152 -0.9158
 4364TIP3   OH234726   6.404   2.813   0.126 -0.4691  0.2313 -0.0075
 4364TIP3    H134727   6.350   2.773   0.058  2.4858 -1.9969 -1.2880
 4364TIP3    H234728   6.459   2.877   0.080 -0.8692  1.3170  0.9646
 4365TIP3   OH234729   2.384   4.491   2.418  0.8694 -0.1120  0.0089
 4365TIP3    H134730   2.423   4.472   2.503 -0.1992 -0.5818  0.4077
 4365TIP3    H234731   2.338   4.574   2.431 -1.5321 -1.4585  0.6988
 4366TIP3   OH234732   4.611   4.884   8.062 -0.4517 -0.3411  0.2588
 4366TIP3    H134733   4.604   4.822   8.135  1.3510 -1.5706 -0.5365
 4366TIP3    H234734   4.535   4.865   8.008  0.3190 -2.3216 -0.2433
 4367TIP3   OH234735   4.154   1.103   1.921  0.0266  0.1108  0.4269
 4367TIP3    H134736   4.235   1.071   1.883 -1.1075  0.5940 -2.6781
 4367TIP3    H234737   4.102   1.024   1.937 -0.3718 -0.0281 -1.3529
 4368TIP3   OH234738   1.085   3.174   7.764  0.1549  0.2597 -0.0732
 4368TIP3    H134739   1.022   3.163   7.836 -1.2440 -1.2608 -1.4464
 4368TIP3    H234740   1.151   3.233   7.800  1.4272 -3.0123  3.7312
 4369TIP3   OH234741   3.904   3.049   8.069  0.2221  0.0100 -0.0847
 4369TIP3    H134742   3.822   3.010   8.098  0.8948 -1.1916  0.2405
 4369TIP3    H234743   3.971   3.003   8.118  1.3074 -1.0518 -2.4464
 4370TIP3   OH234744   2.843   1.218   1.180  0.0877  0.2200 -0.3387
 4370TIP3    H134745   2.788   1.295   1.188  0.8916  0.6030  3.9795
 4370TIP3    H234746   2.919   1.247   1.130 -0.9219  1.3124 -1.3007
 4371TIP3   OH234747   5.901   1.886   1.557  0.4000 -0.1651 -0.1786
 4371TIP3    H134748   5.854   1.939   1.493 -0.1608 -0.2299  0.1657
 4371TIP3    H234749   5.890   1.796   1.526 -1.5015 -0.3877  0.9852
 4372TIP3   OH234750   4.706   1.969   2.396 -0.1678  0.3295 -0.0410
 4372TIP3    H134751   4.760   2.047   2.383  0.2590  0.0469  0.0033
 4372TIP3    H234752   4.740   1.930   2.477  1.5500 -1.4462 -1.5062
 4373TIP3   OH234753   4.592   2.457   0.493  0.3091  0.0566 -0.3619
 4373TIP3    H134754   4.580   2.478   0.586  1.9734 -0.9201  0.1205
 4373TIP3    H234755   4.512   2.488   0.451  0.7708  3.4157  0.8852
 4374TIP3   OH234756   1.056   2.444   8.131 -0.3106  0.6591  0.0673
 4374TIP3    H134757   1.116   2.413   8.063 -0.3868  0.0508  0.2696
 4374TIP3    H234758   1.043   2.536   8.111 -1.0834  0.2789 -1.3090
 4375TIP3   OH234759   4.597   6.465   7.153  0.4872  0.5015  0.2421
 4375TIP3    H134760   4.578   6.385   7.104 -2.0912  1.5764 -0.6536
 4375TIP3    H234761   4.567   6.446   7.242  0.2849  0.3316  0.1385
 4376TIP3   OH234762   5.180   1.232   8.138 -0.1937  0.1965 -0.1198
 4376TIP3    H134763   5.164   1.145   8.101  2.1581 -0.5459  0.4118
 4376TIP3    H234764   5.094   1.264   8.162 -1.0977 -2.2914  0.2934
 4377TIP3   OH234765   0.068   0.429   0.615  0.4424 -0.2177 -0.1837
 4377TIP3    H134766   0.146   0.472   0.650  1.2748 -0.4592 -1.6773
 4377TIP3    H234767   0.077   0.434   0.520 -1.3320 -0.3300 -0.4079
 4378TIP3   OH234768   6.909   5.229   7.771  0.1290  0.3530 -0.0219
 4378TIP3    H134769   6.996   5.229   7.811 -0.7299 -0.9214  2.0327
 4378TIP3    H234770   6.852   5.266   7.838 -0.9973  0.8105 -1.1873
 4379TIP3   OH234771   0.197   5.057   0.692 -0.1581  0.2388 -0.4983
 4379TIP3    H134772   0.219   5.150   0.699  2.2897 -0.3546  0.8123
 4379TIP3    H234773   0.104   5.052   0.713 -0.3184  2.3787 -0.5462
 4380TIP3   OH234774   1.302   0.047   1.581 -0.2131  0.0548 -0.4141
 4380TIP3    H134775   1.228   0.064   1.522 -0.3056  0.6624 -0.1260
 4380TIP3    H234776   1.264  -0.005   1.652 -0.6546  1.4185  0.3791
 4381TIP3   OH234777   1.332   4.338   0.543  0.3648 -0.2429  0.1063
 4381TIP3    H134778   1.240   4.346   0.519  0.3095  0.0093  0.4003
 4381TIP3    H234779   1.344   4.401   0.615  0.4880 -1.0829  0.8433
 4382TIP3   OH234780   5.187   1.599   0.916 -0.7237 -0.0098 -0.1073
 4382TIP3    H134781   5.177   1.642   0.831  1.4286  0.5218 -0.1399
 4382TIP3    H234782   5.106   1.548   0.927 -1.6040  0.9353 -1.8598
 4383TIP3   OH234783   3.509   4.935   7.792 -0.0315  0.5693 -0.2843
 4383TIP3    H134784   3.519   4.874   7.719  0.5139 -2.6253  2.2298
 4383TIP3    H234785   3.427   4.908   7.834  1.8962 -0.9147  2.8825
 4384TIP3   OH234786   0.212   2.066   0.425  0.4210  0.0332 -0.2226
 4384TIP3    H134787   0.210   1.970   0.426 -1.2055  0.0430 -0.2726
 4384TIP3    H234788   0.125   2.091   0.397  0.0277  1.5634  2.0962
 4385TIP3   OH234789   4.553   4.190   0.831 -0.2041  0.7717  0.4677
 4385TIP3    H134790   4.483   4.212   0.892 -0.8038  1.7504 -0.5505
 4385TIP3    H234791   4.633   4.205   0.881 -0.6933  0.0841  1.4926
 4386TIP3   OH234792   3.573   4.901   7.355 -0.3338  0.1703  0.0643
 4386TIP3    H134793   3.600   4.853   7.277  1.1088 -1.3415  1.4089
 4386TIP3    H234794   3.623   4.861   7.426 -2.0641  1.0458  1.8807
 4387TIP3   OH234795   4.503   2.309   8.410  0.3699 -0.3358  0.2618
 4387TIP3    H134796   4.543   2.260   8.481  0.3355  1.5566  1.6483
 4387TIP3    H234797   4.546   2.395   8.412 -0.5322  0.1898 -1.1821
 4388TIP3   OH234798   6.598   0.210   0.061  0.4587  0.1557 -0.0274
 4388TIP3    H134799   6.511   0.209   0.022  0.4165  0.3870  0.0582
 4388TIP3    H234800   6.645   0.138   0.019 -0.2813 -1.0343  1.1112
 4389TIP3   OH234801   6.032   4.475   2.208 -0.1861  0.1260  0.1190
 4389TIP3    H134802   6.031   4.455   2.302  0.2816 -2.9986 -0.4327
 4389TIP3    H234803   5.979   4.406   2.168  1.7600 -0.1911 -2.1314
 4390TIP3   OH234804   1.240   5.237   2.537  0.2201  0.0846 -0.2128
 4390TIP3    H134805   1.157   5.202   2.505  0.0229 -0.0506  0.4159
 4390TIP3    H234806   1.262   5.181   2.612  1.5570 -0.7055 -1.1595
 4391TIP3   OH234807   2.161   5.374   8.306 -0.5303  0.5093  0.4488
 4391TIP3    H134808   2.073   5.343   8.326 -1.3987  1.6960 -1.3556
 4391TIP3    H234809   2.166   5.461   8.346  0.2293  0.0288  1.4484
 4392TIP3   OH234810   1.729   6.076   7.520  0.6413 -0.0092  0.5166
 4392TIP3    H134811   1.633   6.071   7.513  0.4239  1.8540  1.4299
 4392TIP3    H234812   1.755   6.131   7.446  1.4294 -3.0392 -1.6364
 4393TIP3   OH234813   0.095   5.262   1.535  0.4882 -0.9260 -0.2151
 4393TIP3    H134814   0.182   5.252   1.574 -0.1221 -0.9295  1.1825
 4393TIP3    H234815   0.035   5.268   1.610 -0.3818  2.5567 -0.9747
 4394TIP3   OH234816   2.743   5.099   1.772  0.2693  0.4219 -0.2650
 4394TIP3    H134817   2.703   5.013   1.777  0.3584  0.4685  2.6382
 4394TIP3    H234818   2.670   5.161   1.782  0.3653  0.6765 -1.0400
 4395TIP3   OH234819   0.258   4.274   1.680  0.0913 -0.4582 -0.0341
 4395TIP3    H134820   0.314   4.206   1.718  1.7395  1.5053  1.2624
 4395TIP3    H234821   0.298   4.293   1.595  0.3593 -0.2940  0.1259
 4396TIP3   OH234822   4.192   1.528   6.845  0.1232  0.2281  0.2067
 4396TIP3    H134823   4.257   1.597   6.859 -1.0647  1.5646 -0.6051
 4396TIP3    H234824   4.112   1.563   6.883 -0.2885 -1.1167  0.6134
 4397TIP3   OH234825   2.583   4.678   1.125 -0.4812 -0.1332 -0.2131
 4397TIP3    H134826   2.678   4.690   1.130 -0.6362  0.9131  0.7750
 4397TIP3    H234827   2.568   4.591   1.161  0.0029  0.2692  1.0148
 4398TIP3   OH234828   3.426   4.541   7.819  0.0131  0.0854  0.1939
 4398TIP3    H134829   3.355   4.512   7.877  0.2578 -1.4210 -0.2217
 4398TIP3    H234830   3.502   4.491   7.848 -0.0397 -1.3332 -1.8858
 4399TIP3   OH234831   3.213   4.791   2.690 -0.1440  0.5387 -0.0655
 4399TIP3    H134832   3.269   4.866   2.708 -2.1645  1.8881  0.9316
 4399TIP3    H234833   3.220   4.737   2.769 -0.5688  0.9303  0.2451
 4400TIP3   OH234834   2.936   6.763   7.030  0.1399  0.8520  0.5562
 4400TIP3    H134835   2.863   6.701   7.037  2.1079 -1.8582 -1.1201
 4400TIP3    H234836   2.944   6.780   6.936  3.1843 -1.0340  0.3579
 4401TIP3   OH234837   2.889   1.632   6.844 -0.0956 -0.2122  0.1184
 4401TIP3    H134838   2.968   1.620   6.792 -0.7754  0.7379 -1.1917
 4401TIP3    H234839   2.884   1.727   6.858 -0.9347 -0.2779  0.2826
 4402TIP3   OH234840   2.661   6.230   7.737  0.1720  0.0094 -0.3508
 4402TIP3    H134841   2.621   6.190   7.814  1.7367  0.7899  0.9223
 4402TIP3    H234842   2.755   6.232   7.756  0.5711  0.5315 -2.1361
 4403TIP3   OH234843   0.102   1.767   7.892 -0.0676  0.3540 -0.1500
 4403TIP3    H134844   0.079   1.679   7.864 -1.2441  0.4669  0.3973
 4403TIP3    H234845   0.181   1.755   7.945 -0.3336 -0.4102  0.0967
 4404TIP3   OH234846   4.052   5.261   8.197  0.1606 -0.3023  0.0475
 4404TIP3    H134847   3.965   5.278   8.161 -0.4352  1.1205  2.0217
 4404TIP3    H234848   4.100   5.342   8.184  0.6800 -0.5544  0.3690
 4405TIP3   OH234849   5.592   6.812   1.012 -0.0844 -0.1980  0.3166
 4405TIP3    H134850   5.569   6.790   1.102  0.4221  1.2531  0.8302
 4405TIP3    H234851   5.511   6.848   0.975  0.6193  2.9986  1.5009
 4406TIP3   OH234852   5.197   2.669   0.744  0.2891 -0.5393  0.0620
 4406TIP3    H134853   5.227   2.740   0.800 -0.6397 -0.6406  0.7139
 4406TIP3    H234854   5.138   2.710   0.681  0.5603 -0.5731 -0.2131
 4407TIP3   OH234855   4.520   6.623   1.716 -0.4658  0.2751  0.4133
 4407TIP3    H134856   4.471   6.701   1.740  0.0404  0.7690 -0.1236
 4407TIP3    H234857   4.607   6.655   1.693  0.3498 -0.6589  2.0072
 4408TIP3   OH234858   1.397   0.194   8.112  0.5478 -0.7952 -0.2642
 4408TIP3    H134859   1.308   0.227   8.116  0.7372 -0.3481  0.4021
 4408TIP3    H234860   1.433   0.232   8.032  0.4343 -0.2198 -0.0480
 4409TIP3   OH234861   2.293   4.220   2.310  0.7830 -0.4047  0.8020
 4409TIP3    H134862   2.349   4.185   2.379 -1.8595 -0.4171  3.1140
 4409TIP3    H234863   2.289   4.314   2.328  2.1335  0.0641 -1.0234
 4410TIP3   OH234864   5.232   3.806   7.838 -0.3920 -0.1443 -0.1697
 4410TIP3    H134865   5.157   3.750   7.819 -2.1229  2.5219 -1.9651
 4410TIP3    H234866   5.201   3.866   7.905  1.2979 -0.9695  1.4481
 4411TIP3   OH234867   3.319   6.692   8.403 -0.2453  0.1501 -0.2282
 4411TIP3    H134868   3.235   6.699   8.357 -0.1470 -0.2014 -0.4630
 4411TIP3    H234869   3.336   6.598   8.407  0.1568  0.2225 -0.2151
 4412TIP3   OH234870   0.434   1.699   8.450  0.5223 -0.4760  0.5236
 4412TIP3    H134871   0.380   1.769   8.414 -0.2041 -0.5599  1.4030
 4412TIP3    H234872   0.439   1.634   8.380  0.3676  0.0077  0.0551
 4413TIP3   OH234873   3.456   3.378   2.669 -0.3188  0.8906  0.5245
 4413TIP3    H134874   3.511   3.456   2.670 -1.2767  1.5971  2.0155
 4413TIP3    H234875   3.500   3.316   2.728  0.2076  0.4634 -0.3073
 4414TIP3   OH234876   6.644   5.442   7.712 -0.3220  0.0360  0.4549
 4414TIP3    H134877   6.678   5.388   7.783  2.1338  1.2032  0.2899
 4414TIP3    H234878   6.630   5.528   7.753  0.5977  0.5707 -0.3040
 4415TIP3   OH234879   3.140   6.635   8.115 -0.0761  0.3505  0.3412
 4415TIP3    H134880   3.101   6.585   8.186 -0.5027  1.3423  0.8193
 4415TIP3    H234881   3.108   6.724   8.127 -1.8987  0.1729 -2.3424
 4416TIP3   OH234882   0.056   3.451   8.037 -0.6150  0.8333  0.1557
 4416TIP3    H134883   0.142   3.452   7.994 -1.1761 -0.1415 -1.0387
 4416TIP3    H234884   0.053   3.367   8.083 -1.2053  0.5486 -0.3951
 4417TIP3   OH234885   1.496   3.370   0.156  0.4460  0.4122 -0.4502
 4417TIP3    H134886   1.450   3.383   0.073 -1.5058 -0.3152  0.4600
 4417TIP3    H234887   1.487   3.276   0.173  1.4581  0.4288  0.2435
 4418TIP3   OH234888   5.260   2.786   1.523  0.2295 -0.6401  0.0409
 4418TIP3    H134889   5.225   2.831   1.446  0.1276  1.4291  1.2321
 4418TIP3    H234890   5.182   2.755   1.570  0.2386 -0.8114 -0.0562
 4419TIP3   OH234891   2.912   3.572   0.663 -0.2624  0.0637  0.0605
 4419TIP3    H134892   2.978   3.613   0.607 -0.7183  0.8008  0.0544
 4419TIP3    H234893   2.834   3.565   0.608 -0.1183 -1.0744 -0.0271
 4420TIP3   OH234894   0.935   1.337   8.509  0.2978  0.5099  0.2060
 4420TIP3    H134895   0.956   1.427   8.485 -0.2220  0.5861  0.0172
 4420TIP3    H234896   0.903   1.297   8.428 -0.7853  0.5601  0.5960
 4421TIP3   OH234897   3.091   4.871   7.543 -0.5275 -0.1639  0.1510
 4421TIP3    H134898   3.077   4.794   7.487 -1.5200  0.5364 -0.6078
 4421TIP3    H234899   3.003   4.897   7.571 -0.2085  0.6592  0.4344
 4422TIP3   OH234900   5.589   5.998   0.487 -0.0459  0.5176  0.3855
 4422TIP3    H134901   5.576   6.085   0.449  0.5720  0.4673  0.0370
 4422TIP3    H234902   5.669   5.966   0.446  0.5077  0.3507  1.5414
 4423TIP3   OH234903   5.015   6.422   1.329 -0.2003  0.3858 -0.1449
 4423TIP3    H134904   5.104   6.403   1.301 -0.1787  1.7428 -1.1277
 4423TIP3    H234905   4.976   6.337   1.347  1.9483 -0.1727  2.5785
 4424TIP3   OH234906   3.055   5.888   2.605  0.2729 -0.0396 -0.2385
 4424TIP3    H134907   3.113   5.824   2.645 -0.7640 -1.4882 -0.9560
 4424TIP3    H234908   3.098   5.973   2.620  2.0641 -0.9536  0.0777
 4425TIP3   OH234909   2.292   1.118   8.418 -0.2814 -0.2087 -0.0778
 4425TIP3    H134910   2.234   1.066   8.362 -0.2788 -0.6773  0.3500
 4425TIP3    H234911   2.360   1.149   8.359 -1.6227  1.3909 -0.8496
 4426TIP3   OH234912   3.219   3.201   2.009  0.2472 -0.4285 -0.2096
 4426TIP3    H134913   3.172   3.149   1.944 -1.2396 -1.1599  1.3369
 4426TIP3    H234914   3.307   3.165   2.010 -0.2715 -1.7763 -0.4284
 4427TIP3   OH234915   4.807   1.102   7.274 -0.0420  0.4605  0.0549
 4427TIP3    H134916   4.837   1.169   7.213  1.7602  0.9201  1.3927
 4427TIP3    H234917   4.784   1.150   7.354  0.4530 -0.4123  0.7389
 4428TIP3   OH234918   2.260   4.945   7.610 -0.0020  0.1347 -0.4349
 4428TIP3    H134919   2.351   4.914   7.605 -0.4145 -1.1468 -0.3436
 4428TIP3    H234920   2.232   4.925   7.699 -1.0179 -1.4411 -1.0588
 4429TIP3   OH234921   2.222   1.280   0.639 -0.2255 -0.7044  0.0968
 4429TIP3    H134922   2.150   1.246   0.691 -0.0378 -1.2419  0.0111
 4429TIP3    H234923   2.290   1.213   0.645 -0.7595 -1.5378 -2.0977
 4430TIP3   OH234924   6.889   6.341   7.884 -0.1877 -0.9335  0.2074
 4430TIP3    H134925   6.834   6.414   7.854  1.4416  0.1010 -0.4104
 4430TIP3    H234926   6.902   6.358   7.978  0.3688 -0.2588  0.0236
 4431TIP3   OH234927   3.582   6.806   1.529 -0.5224 -0.1577 -0.0924
 4431TIP3    H134928   3.603   6.728   1.478 -0.4425 -0.7594  0.8273
 4431TIP3    H234929   3.514   6.776   1.590  0.0955  0.2658  0.8228
 4432TIP3   OH234930   5.784   1.073   7.551 -0.3453 -0.2116 -0.2676
 4432TIP3    H134931   5.728   1.042   7.623  1.0721 -1.1972  0.4813
 4432TIP3    H234932   5.787   1.168   7.562  0.6063 -0.3985  1.6482
 4433TIP3   OH234933   5.264   2.012   1.972  0.2800 -0.3719  0.3162
 4433TIP3    H134934   5.262   2.032   1.879  1.0237  0.6699  0.5103
 4433TIP3    H234935   5.192   2.063   2.009 -1.8279 -2.8464 -0.0066
 4434TIP3   OH234936   0.459   1.757   0.675 -0.4461  0.6465  0.3489
 4434TIP3    H134937   0.424   1.829   0.728  0.9488 -0.4394  2.9614
 4434TIP3    H234938   0.394   1.687   0.683 -0.3705  0.5810  0.3930
 4435TIP3   OH234939   6.469   4.241   0.144  0.7315 -0.2817 -0.0635
 4435TIP3    H134940   6.374   4.240   0.128  0.6926 -0.2594  0.1588
 4435TIP3    H234941   6.508   4.229   0.058  0.5393  1.0286 -0.3566
 4436TIP3   OH234942   5.513   2.695   2.810 -0.5724  0.5093  0.1398
 4436TIP3    H134943   5.592   2.666   2.764  0.3088  1.2068  1.1541
 4436TIP3    H234944   5.461   2.615   2.822  1.3927 -0.5783  2.1357
 4437TIP3   OH234945   6.851   3.772   2.749  0.2292  0.0839  0.2712
 4437TIP3    H134946   6.945   3.771   2.764  0.5039  0.4865 -1.2450
 4437TIP3    H234947   6.834   3.693   2.698 -0.4347 -0.5342  1.4162
 4438TIP3   OH234948   6.688   1.538   2.920  0.7613 -0.2782 -0.2854
 4438TIP3    H134949   6.611   1.513   2.870 -0.4683  0.8494  0.9914
 4438TIP3    H234950   6.690   1.477   2.994 -0.8173  1.6194  1.4517
 4439TIP3   OH234951   1.057   3.461   0.884 -0.4141 -0.3892  0.0320
 4439TIP3    H134952   0.978   3.438   0.836 -1.3563  0.3240  1.1863
 4439TIP3    H234953   1.037   3.439   0.975  0.8204 -0.4505  0.3131
 4440TIP3   OH234954   2.395   1.100   0.733  0.8409  0.1159 -0.0467
 4440TIP3    H134955   2.466   1.155   0.767 -0.2838  0.7243  1.4058
 4440TIP3    H234956   2.429   1.011   0.740  1.2750  0.3588  1.1559
 4441TIP3   OH234957   1.186   4.941   0.408 -0.0949 -0.0015  0.3447
 4441TIP3    H134958   1.195   4.853   0.443 -1.8945 -0.6194 -0.6313
 4441TIP3    H234959   1.177   4.997   0.486 -0.3434 -0.8685  0.9517
 4442TIP3   OH234960   5.030   5.927   7.625  0.0993  0.0684 -0.0557
 4442TIP3    H134961   4.945   5.935   7.667  0.2186 -1.0794  0.4358
 4442TIP3    H234962   5.041   6.010   7.577 -0.8221  0.6588  0.7108
 4443TIP3   OH234963   2.986   4.430   7.966 -0.3193  0.1758 -0.2881
 4443TIP3    H134964   3.079   4.431   7.991 -0.3464  0.6936 -0.2080
 4443TIP3    H234965   2.983   4.371   7.890  0.2254  0.8778 -0.8679
 4444TIP3   OH234966   6.688   4.332   0.896 -0.2543  0.3788  0.4193
 4444TIP3    H134967   6.720   4.242   0.896 -1.5137 -0.1152  1.4847
 4444TIP3    H234968   6.661   4.348   0.806  2.0025  0.4963 -0.2879
 4445TIP3   OH234969   4.478   1.208   6.824 -0.0903  0.1125  0.1500
 4445TIP3    H134970   4.458   1.151   6.899  0.0902  0.2621  0.3126
 4445TIP3    H234971   4.550   1.263   6.855  0.6984 -0.5328 -0.4840
 4446TIP3   OH234972   3.369   1.382   1.417  0.4529 -0.2875 -0.8385
 4446TIP3    H134973   3.354   1.292   1.446  1.8054 -0.1150  0.5075
 4446TIP3    H234974   3.370   1.433   1.498 -1.0195  1.0810 -1.6223
 4447TIP3   OH234975   3.915   4.183   8.501  0.2260 -0.5155  0.0661
 4447TIP3    H134976   3.843   4.219   8.552  0.5355 -0.6508  0.6057
 4447TIP3    H234977   3.879   4.105   8.458 -0.0947 -0.2748 -0.1025
 4448TIP3   OH234978   5.065   4.507   8.000  0.0887  0.6907 -0.6688
 4448TIP3    H134979   5.017   4.481   7.921 -0.8129  2.5695 -0.7876
 4448TIP3    H234980   5.040   4.443   8.066  0.0919 -0.3352 -1.6415
 4449TIP3   OH234981   6.379   1.109   1.918  0.1431  0.1921  0.0728
 4449TIP3    H134982   6.317   1.037   1.910  0.3632  0.0464 -0.3471
 4449TIP3    H234983   6.331   1.177   1.965 -1.2202  1.0747 -2.3877
 4450TIP3   OH234984   4.610   3.432   0.141  0.4408  0.5006 -0.1652
 4450TIP3    H134985   4.688   3.454   0.192  0.2412  0.0577  0.3370
 4450TIP3    H234986   4.616   3.337   0.127  0.4821  0.6112 -0.9524
 4451TIP3   OH234987   1.169   4.712   2.817  0.5551  0.2869 -0.0872
 4451TIP3    H134988   1.131   4.638   2.863 -0.7644  0.4392 -0.8598
 4451TIP3    H234989   1.097   4.775   2.810  1.3779  1.2336 -0.2833
 4452TIP3   OH234990   6.526   1.572   0.601 -0.3778 -0.0139  0.3448
 4452TIP3    H134991   6.442   1.528   0.611  0.7175 -2.8556 -1.7308
 4452TIP3    H234992   6.534   1.625   0.680 -3.8246 -0.0562  0.8768
 4453TIP3   OH234993   3.307   5.054   0.912  0.2743 -0.2441 -0.2188
 4453TIP3    H134994   3.394   5.041   0.951  0.1624  0.0837  0.1425
 4453TIP3    H234995   3.313   5.012   0.826  0.7433 -0.3580 -0.1329
 4454TIP3   OH234996   1.465   0.882   6.658  0.0160  0.3170 -0.2282
 4454TIP3    H134997   1.508   0.805   6.620  0.4959  0.5045 -0.0729
 4454TIP3    H234998   1.418   0.922   6.585  1.4462  1.0369 -0.7865
 4455TIP3   OH234999   6.706   3.605   7.535 -0.0176  0.4338 -0.2115
 4455TIP3    H135000   6.758   3.530   7.566  1.6528  1.8512  0.6332
 4455TIP3    H235001   6.734   3.617   7.444 -1.1882 -0.6728 -0.7382
 4456TIP3   OH235002   1.872   1.696   1.250 -0.2179  0.3315  0.4181
 4456TIP3    H135003   1.952   1.731   1.291  0.0220  3.6893 -2.3981
 4456TIP3    H235004   1.904   1.635   1.184 -0.2364 -0.5934  1.2404
 4457TIP3   OH235005   0.352   3.893   7.491 -0.2353  0.1781 -0.1212
 4457TIP3    H135006   0.277   3.931   7.536 -0.7381  0.6737 -1.3318
 4457TIP3    H235007   0.319   3.870   7.404  1.0160  0.3920 -0.6743
 4458TIP3   OH235008   2.531   4.858   7.634 -0.0442  0.0305  0.2164
 4458TIP3    H135009   2.577   4.844   7.551 -0.1069 -0.9576  0.3425
 4458TIP3    H235010   2.566   4.942   7.666  1.1875 -0.3706 -0.0180
 4459TIP3   OH235011   0.055   5.683   2.096 -0.4006 -0.3118 -0.4166
 4459TIP3    H135012   0.078   5.591   2.091 -1.7319 -0.6258 -1.2044
 4459TIP3    H235013  -0.015   5.687   2.162 -0.3335  0.1327 -0.3667
 4460TIP3   OH235014   2.672   5.630   7.610  1.0341 -0.0961 -0.4020
 4460TIP3    H135015   2.747   5.684   7.633  1.6029 -0.2912 -1.7037
 4460TIP3    H235016   2.699   5.584   7.530 -0.9590  0.8617 -1.6989
 4461TIP3   OH235017   1.884   6.837   8.174  0.3533 -0.3969  0.4986
 4461TIP3    H135018   1.881   6.811   8.266 -0.6991 -0.4295  0.4739
 4461TIP3    H235019   1.959   6.896   8.168 -0.1684  0.4204  1.6026
 4462TIP3   OH235020   2.858   4.213   7.486  0.1295 -0.7660 -0.9351
 4462TIP3    H135021   2.924   4.156   7.448 -0.3348 -1.0126 -1.3830
 4462TIP3    H235022   2.854   4.288   7.427 -0.5183 -1.1008 -1.3328
 4463TIP3   OH235023   5.330   1.832   2.354 -0.6222  0.1270  0.3424
 4463TIP3    H135024   5.403   1.862   2.300 -0.7014  1.8737  1.1199
 4463TIP3    H235025   5.370   1.770   2.416 -0.1034 -0.1209 -0.2351
 4464TIP3   OH235026   3.189   4.101   2.927  0.5652  0.5929  0.1990
 4464TIP3    H135027   3.216   4.016   2.893  1.5333  0.4753  1.1898
 4464TIP3    H235028   3.099   4.088   2.958  0.8808 -0.2175  0.8039
 4465TIP3   OH235029   6.183   0.937   0.555  0.2113 -0.3093 -0.9973
 4465TIP3    H135030   6.118   0.986   0.505  0.0725 -0.1911 -0.7056
 4465TIP3    H235031   6.256   0.997   0.565 -0.8087  0.6844  1.2417
 4466TIP3   OH235032   5.333   6.035   1.785 -0.3956 -0.1262  0.1251
 4466TIP3    H135033   5.397   5.968   1.805 -1.4046 -0.7743  1.3613
 4466TIP3    H235034   5.358   6.110   1.840  0.3923  0.3272 -0.8239
 4467TIP3   OH235035   3.413   4.582   7.107  0.0991 -0.1133 -0.1593
 4467TIP3    H135036   3.490   4.549   7.060  1.1594 -0.5463  1.7947
 4467TIP3    H235037   3.446   4.607   7.193 -1.1304  3.6646 -0.5725
 4468TIP3   OH235038   2.654   3.583   0.548 -0.2757 -0.1046  0.5393
 4468TIP3    H135039   2.587   3.613   0.486 -0.0989  0.5221  0.6533
 4468TIP3    H235040   2.610   3.516   0.600 -0.3893 -0.7532 -0.3556
 4469TIP3   OH235041   0.183   4.636   1.578 -0.4279  0.2837 -0.2178
 4469TIP3    H135042   0.204   4.556   1.530 -0.5420 -0.4342  0.8883
 4469TIP3    H235043   0.144   4.606   1.660 -0.6586  1.4800  0.1395
 4470TIP3   OH235044   5.912   3.712   7.362  0.0312  0.3114 -0.0505
 4470TIP3    H135045   5.914   3.803   7.391  0.6497  0.2713  0.0506
 4470TIP3    H235046   5.923   3.716   7.267  0.4475  0.3256 -0.0028
 4471TIP3   OH235047   6.686   1.227   1.620  0.1307 -0.3271 -0.1011
 4471TIP3    H135048   6.597   1.252   1.644  0.2105  1.4559 -1.5181
 4471TIP3    H235049   6.685   1.225   1.524  1.7697  0.3818 -0.1532
 4472TIP3   OH235050   3.511   0.912   6.706 -0.0423  0.3197  0.0733
 4472TIP3    H135051   3.561   0.971   6.762  0.9451 -1.2260  0.9026
 4472TIP3    H235052   3.565   0.902   6.628 -0.1727  0.4465 -0.0338
 4473TIP3   OH235053   4.372   6.950   1.481 -0.1124 -0.3366 -0.2470
 4473TIP3    H135054   4.342   6.872   1.527  0.2523 -0.1953  0.2380
 4473TIP3    H235055   4.413   7.004   1.549  1.2897 -0.5561 -0.8908
 4474TIP3   OH235056   3.227   0.035   0.886 -0.4660  0.0469  0.2017
 4474TIP3    H135057   3.133   0.025   0.872 -0.1787 -0.2005 -1.9267
 4474TIP3    H235058   3.262  -0.054   0.882 -0.3563 -0.2250  3.7639
 4475TIP3   OH235059   3.033   0.992   0.820  0.4148 -0.2642 -0.5769
 4475TIP3    H135060   3.015   1.083   0.797  0.1055 -0.0714  0.3826
 4475TIP3    H235061   3.127   0.990   0.838  0.0204  0.5310  2.0879
 4476TIP3   OH235062   4.878   4.718   7.649  0.1369  0.4138 -0.0006
 4476TIP3    H135063   4.870   4.705   7.555  1.3554  0.5179 -0.1339
 4476TIP3    H235064   4.846   4.637   7.688  1.6989 -0.5090 -0.5946
 4477TIP3   OH235065   3.622   6.091   7.855  0.4971  0.6472 -0.3393
 4477TIP3    H135066   3.657   6.048   7.934 -1.1156  0.0914  0.0944
 4477TIP3    H235067   3.633   6.027   7.786 -0.1796  0.2403 -0.0792
 4478TIP3   OH235068   0.196   0.947   0.081  0.0767 -0.0143 -0.3105
 4478TIP3    H135069   0.187   0.973  -0.011  0.3882  0.5021 -0.1985
 4478TIP3    H235070   0.209   1.029   0.128 -1.1469 -0.1658  0.3391
 4479TIP3   OH235071   0.997   0.616   6.835 -0.0451 -0.1704  0.3552
 4479TIP3    H135072   0.910   0.606   6.798  0.2618 -2.3631  0.0818
 4479TIP3    H235073   1.056   0.610   6.761  0.4093 -0.8667  0.7581
 4480TIP3   OH235074   3.920   1.556   8.219  0.1666 -0.0914 -0.2591
 4480TIP3    H135075   3.973   1.557   8.139 -0.6237  0.3434 -0.7924
 4480TIP3    H235076   3.848   1.495   8.199 -1.5255  1.9782 -0.9128
 4481TIP3   OH235077   1.211   5.247   1.672 -0.3119 -0.0248 -0.5307
 4481TIP3    H135078   1.180   5.238   1.762  0.1260  0.2939 -0.3415
 4481TIP3    H235079   1.286   5.306   1.678 -0.1181 -0.2049 -1.0725
 4482TIP3   OH235080   4.952   1.226   8.319  0.1313  0.1165  0.5329
 4482TIP3    H135081   4.873   1.210   8.371  0.7924  0.6368  1.7425
 4482TIP3    H235082   4.955   1.321   8.308 -0.2583 -0.0254 -0.9000
 4483TIP3   OH235083   0.561   1.560   1.801  0.3385  0.5033 -0.1311
 4483TIP3    H135084   0.506   1.573   1.878  1.1439 -0.5352  0.6305
 4483TIP3    H235085   0.651   1.570   1.832  0.7078 -0.7204 -0.7641
 4484TIP3   OH235086   1.218   0.195   0.410 -0.3289 -0.4624  0.1091
 4484TIP3    H135087   1.251   0.125   0.355 -0.6872  0.5779 -1.5107
 4484TIP3    H235088   1.125   0.201   0.388 -0.3062  0.5072  0.2148
 4485TIP3   OH235089   4.776   4.250   2.655  0.4747 -0.4820 -0.0468
 4485TIP3    H135090   4.687   4.272   2.628  1.3157  1.0076 -1.8141
 4485TIP3    H235091   4.780   4.275   2.748 -0.1061  2.3585 -0.6924
 4486TIP3   OH235092   4.163   2.714   8.162 -0.3366  0.3364 -0.2074
 4486TIP3    H135093   4.144   2.792   8.214 -1.8964  0.1806 -0.4925
 4486TIP3    H235094   4.207   2.655   8.224 -0.6005  0.8128  0.4537
 4487TIP3   OH235095   5.900   3.238   2.183 -0.1332  0.2430  0.6373
 4487TIP3    H135096   5.919   3.331   2.177  1.4165  0.2411  3.7709
 4487TIP3    H235097   5.820   3.232   2.235  0.0812 -0.1707  0.9333
 4488TIP3   OH235098   4.375   4.446   0.421  0.3231 -0.4014 -0.3058
 4488TIP3    H135099   4.366   4.376   0.357  1.1732 -0.0611 -0.8243
 4488TIP3    H235100   4.464   4.436   0.455  0.4068  0.3342 -0.2890
 4489TIP3   OH235101   4.906   0.184   1.959 -0.3898  0.7614  0.2645
 4489TIP3    H135102   4.929   0.106   2.009 -0.8747  0.2497 -0.2889
 4489TIP3    H235103   4.861   0.241   2.022 -1.1107  0.0677  0.3980
 4490TIP3   OH235104   2.551   3.105   1.456 -0.1396 -0.0109  1.1440
 4490TIP3    H135105   2.494   3.081   1.530  0.1307 -3.2118  0.4881
 4490TIP3    H235106   2.590   3.188   1.482 -2.8672  0.8755  2.9008
 4491TIP3   OH235107   0.293   4.465   0.460  0.2232  0.2513  0.3265
 4491TIP3    H135108   0.291   4.421   0.545 -1.1331  1.8497  1.1772
 4491TIP3    H235109   0.292   4.558   0.481 -0.4862  0.6850 -1.4477
 4492TIP3   OH235110   5.142   4.969   1.444 -0.0837  0.5365  0.2305
 4492TIP3    H135111   5.053   4.939   1.429 -0.6615  1.6063  1.2664
 4492TIP3    H235112   5.193   4.936   1.370 -1.5372  0.7290 -0.8836
 4493TIP3   OH235113   3.398   6.076   1.073 -0.7248 -0.5503 -0.8328
 4493TIP3    H135114   3.303   6.082   1.072 -0.9057 -2.4118  0.5880
 4493TIP3    H235115   3.418   5.991   1.035  0.2686 -0.8889  0.3735
 4494TIP3   OH235116   0.656   0.593   7.679  0.1275 -0.1476  0.3738
 4494TIP3    H135117   0.661   0.660   7.747  0.0683  0.5923 -0.3403
 4494TIP3    H235118   0.665   0.641   7.597  3.8635 -1.4038 -0.1049
 4495TIP3   OH235119   4.426   0.071   1.070 -0.7516 -0.2473  0.0094
 4495TIP3    H135120   4.436   0.001   1.006 -2.9495 -0.7366  0.1308
 4495TIP3    H235121   4.332   0.083   1.078 -0.4515  1.8213  0.9958
 4496TIP3   OH235122   6.652   5.103   2.721 -0.4971 -0.1255  0.0276
 4496TIP3    H135123   6.605   5.100   2.804 -0.3309 -0.3868  0.1134
 4496TIP3    H235124   6.602   5.165   2.668  0.5621  1.6660  1.0212
 4497TIP3   OH235125   5.711   1.223   2.111  0.1602  0.1184  0.0971
 4497TIP3    H135126   5.649   1.159   2.077  0.9748  0.6416 -2.5734
 4497TIP3    H235127   5.658   1.285   2.160 -0.9703 -1.1539  0.5375
 4498TIP3   OH235128   0.024   6.269   8.216  0.0400  0.0056  0.4551
 4498TIP3    H135129   0.104   6.221   8.195 -0.2504  0.2151 -1.3066
 4498TIP3    H235130  -0.047   6.208   8.195 -0.4354  1.6903 -3.9436
 4499TIP3   OH235131   1.351   5.356   7.643  0.1708  0.0497 -0.0773
 4499TIP3    H135132   1.376   5.272   7.604 -0.9537  0.3869 -1.6274
 4499TIP3    H235133   1.416   5.371   7.711  1.2561 -1.3834 -0.7372
 4500TIP3   OH235134   2.519   4.289   0.492  0.8523 -0.2621  0.0275
 4500TIP3    H135135   2.515   4.223   0.562  1.1547  1.0872  1.3595
 4500TIP3    H235136   2.612   4.293   0.469  0.8686 -0.1158  0.1217
 4501TIP3   OH235137   5.091   5.341   1.684  0.1611 -0.0949  0.5805
 4501TIP3    H135138   5.165   5.401   1.692 -0.4069  0.7195 -0.1112
 4501TIP3    H235139   5.038   5.358   1.762  1.1481 -1.3525  1.5734
 4502TIP3   OH235140   4.652   4.747   7.390 -0.8149  0.2923  0.5009
 4502TIP3    H135141   4.606   4.686   7.332  0.0284 -0.0487  0.1644
 4502TIP3    H235142   4.593   4.759   7.464 -1.6816  0.3185 -0.1840
 4503TIP3   OH235143   3.972   2.511   0.942  0.1712 -0.2467  0.4743
 4503TIP3    H135144   4.061   2.476   0.947 -0.3025 -1.4642  0.8060
 4503TIP3    H235145   3.961   2.535   0.850 -0.2538 -3.2502 -0.3714
 4504TIP3   OH235146   2.209   6.873   7.441  0.1797 -0.2048  0.3881
 4504TIP3    H135147   2.219   6.928   7.363  0.2199  0.1584  0.6459
 4504TIP3    H235148   2.169   6.793   7.409 -0.9049  0.4051  0.1793
 4505TIP3   OH235149   3.496   4.584   1.592 -0.1574  0.1663  0.1234
 4505TIP3    H135150   3.529   4.601   1.504  1.7072  0.2012  0.7975
 4505TIP3    H235151   3.504   4.668   1.637 -2.4482  0.5418 -0.0186
 4506TIP3   OH235152   5.338   2.891   0.560  0.0506 -0.2723  0.4624
 4506TIP3    H135153   5.293   2.970   0.530 -1.1434 -0.7525  0.9182
 4506TIP3    H235154   5.290   2.866   0.639  1.2382 -0.7204  1.0640
 4507TIP3   OH235155   6.453   5.727   0.499  0.6837  0.3082 -0.5367
 4507TIP3    H135156   6.476   5.800   0.557  0.7032 -0.6787  0.7561
 4507TIP3    H235157   6.357   5.725   0.500  0.6943 -0.1172  0.0099
 4508TIP3   OH235158   2.892   0.663   2.009 -0.4112  0.3276  0.1468
 4508TIP3    H135159   2.942   0.582   1.996 -2.2998 -1.2464  1.9250
 4508TIP3    H235160   2.904   0.684   2.102 -0.8570  1.4656 -0.0356
 4509TIP3   OH235161   1.982   2.818   1.153 -0.0691 -0.2590  0.2350
 4509TIP3    H135162   2.033   2.747   1.114  2.0386  1.7942 -0.9533
 4509TIP3    H235163   1.897   2.813   1.109  0.5968 -1.0189 -1.0158
 4510TIP3   OH235164   1.731   0.118   1.501  0.5404  0.0335 -0.0970
 4510TIP3    H135165   1.647   0.163   1.489  0.0267 -1.1158 -0.9921
 4510TIP3    H235166   1.715   0.029   1.470  1.7277 -0.5810  0.9928
 4511TIP3   OH235167   4.371   4.166   1.770  0.5177  0.2652  0.0077
 4511TIP3    H135168   4.373   4.258   1.743  1.3703  0.3913  0.4758
 4511TIP3    H235169   4.347   4.169   1.862  2.5332  0.1689  0.5728
 4512TIP3   OH235170   1.180   3.620   2.020 -0.2975 -0.0135 -0.0440
 4512TIP3    H135171   1.226   3.598   1.940 -0.4860 -0.9771  0.0952
 4512TIP3    H235172   1.249   3.623   2.087 -0.1413  0.7855 -0.2233
 4513TIP3   OH235173   6.126   2.507   7.090  0.6991 -0.0304  0.3229
 4513TIP3    H135174   6.048   2.460   7.058  0.4724 -0.3852  1.3618
 4513TIP3    H235175   6.195   2.483   7.028  0.4917 -1.4326  0.6010
 4514TIP3   OH235176   0.495   4.613   7.516  0.7027  0.6278 -0.1965
 4514TIP3    H135177   0.464   4.577   7.599 -0.7174  1.2194 -0.4457
 4514TIP3    H235178   0.511   4.536   7.460 -0.0880  0.2987  0.0244
 4515TIP3   OH235179   3.568   0.006   2.506  0.3983 -0.6013  0.1355
 4515TIP3    H135180   3.627   0.049   2.443  0.3254  1.4974  1.3905
 4515TIP3    H235181   3.626  -0.050   2.558  1.0909  0.4233  0.4982
 4516TIP3   OH235182   2.282   4.243   1.419 -0.2486  0.1651  0.2856
 4516TIP3    H135183   2.300   4.289   1.337 -0.9870  0.5618  0.3400
 4516TIP3    H235184   2.359   4.187   1.432  0.9957  1.8892  0.5958
 4517TIP3   OH235185   6.454   1.032   2.599 -0.3560  0.5908 -0.3959
 4517TIP3    H135186   6.536   1.039   2.649  0.4016  0.0102 -1.4932
 4517TIP3    H235187   6.397   0.979   2.654  0.2473  0.4403  0.1011
 4518TIP3   OH235188   4.913   6.166   7.160  0.9438 -0.3149  0.0539
 4518TIP3    H135189   5.001   6.129   7.151  0.9971 -0.5709  1.3881
 4518TIP3    H235190   4.862   6.096   7.200  0.3802  0.1650  0.1886
 4519TIP3   OH235191   2.640   4.839   1.494 -0.0779  0.3148 -0.1989
 4519TIP3    H135192   2.611   4.905   1.431  1.5176  0.8617 -0.3995
 4519TIP3    H235193   2.634   4.882   1.579 -2.4167 -0.4859  0.1081
 4520TIP3   OH235194   4.029   2.418   7.776  0.6647 -0.1218  0.2002
 4520TIP3    H135195   4.123   2.404   7.771  0.5266 -0.7944 -1.5255
 4520TIP3    H235196   3.999   2.407   7.685 -1.1907 -0.8757  0.8556
 4521TIP3   OH235197   1.293   4.224   7.530 -0.3410 -0.0171 -0.1547
 4521TIP3    H135198   1.255   4.309   7.552  0.5798  0.0085  1.4793
 4521TIP3    H235199   1.386   4.243   7.514 -0.4077 -0.5100 -1.2101
 4522TIP3   OH235200   2.828   5.550   1.868  0.3327 -0.2545  0.5081
 4522TIP3    H135201   2.869   5.611   1.928  1.2777 -0.1306 -0.2391
 4522TIP3    H235202   2.765   5.603   1.818  0.2197 -0.1682  0.7414
 4523TIP3   OH235203   4.569   0.066   1.302  0.5369  0.6498  0.1491
 4523TIP3    H135204   4.503   0.038   1.365  0.8921 -0.4638  0.0493
 4523TIP3    H235205   4.520   0.090   1.223  0.2686 -0.5713 -0.0667
 4524TIP3   OH235206   0.145   3.914   0.486 -0.0522 -0.5881  0.4909
 4524TIP3    H135207   0.067   3.863   0.508 -0.7061  0.4881  0.7277
 4524TIP3    H235208   0.117   4.005   0.492  1.4143 -0.1475  1.3805
 4525TIP3   OH235209   1.356   1.219   2.220 -0.1932  0.1079  0.3942
 4525TIP3    H135210   1.403   1.151   2.267  1.0272 -0.9738 -2.1801
 4525TIP3    H235211   1.275   1.177   2.191  1.0667 -0.7646 -2.1756
 4526TIP3   OH235212   5.852   3.156   7.863  0.1500  0.0279  0.5360
 4526TIP3    H135213   5.863   3.122   7.952  0.2687 -0.1261  0.4627
 4526TIP3    H235214   5.803   3.238   7.875  1.3661  0.7320  0.8775
 4527TIP3   OH235215   3.176   6.532   7.249 -0.0068 -0.4867  0.2891
 4527TIP3    H135216   3.183   6.488   7.165  3.9483 -0.1749  0.2824
 4527TIP3    H235217   3.158   6.624   7.228  1.4550 -0.3165 -0.3018
 4528TIP3   OH235218   5.653   0.233   1.175  0.7450 -0.6072 -0.0702
 4528TIP3    H135219   5.602   0.313   1.165 -1.6136 -1.7892  1.4492
 4528TIP3    H235220   5.650   0.191   1.089  0.3262  0.0173 -0.3647
 4529TIP3   OH235221   6.280   2.229   2.351 -0.0589 -0.3015 -0.1243
 4529TIP3    H135222   6.271   2.142   2.389 -1.6022  0.7257  2.1145
 4529TIP3    H235223   6.311   2.283   2.424 -4.6398  2.1243  0.4220
 4530TIP3   OH235224   3.353   4.627   8.508  0.7396  0.2009 -0.4238
 4530TIP3    H135225   3.348   4.539   8.471 -1.4272 -0.9528  2.2786
 4530TIP3    H235226   3.425   4.622   8.571 -0.6992 -0.3947  1.2657
 4531TIP3   OH235227   1.232   6.638   7.121 -0.0774 -0.1695  0.2115
 4531TIP3    H135228   1.163   6.705   7.122  0.6892  0.6818 -1.2516
 4531TIP3    H235229   1.305   6.679   7.168 -0.0590 -0.4872  0.4578
 4532TIP3   OH235230   4.334   2.062   0.400  0.2401 -0.2299 -0.2632
 4532TIP3    H135231   4.383   2.035   0.323 -0.4992  0.3281 -0.9483
 4532TIP3    H235232   4.373   2.012   0.472  0.4931 -1.2847 -1.0980
 4533TIP3   OH235233   6.391   2.811   0.815 -0.8448  0.2027  0.6729
 4533TIP3    H135234   6.465   2.872   0.815  0.4567 -1.2644  0.0092
 4533TIP3    H235235   6.319   2.859   0.774  0.5171  0.9088 -1.0384
 4534TIP3   OH235236   4.443   5.469   1.846 -0.1801 -0.1408  0.4779
 4534TIP3    H135237   4.479   5.459   1.934 -0.2531  0.5702  0.5920
 4534TIP3    H235238   4.357   5.426   1.851 -0.7816  1.0920  1.1499
 4535TIP3   OH235239   4.022   3.658   1.786 -0.0554  0.3596  0.4155
 4535TIP3    H135240   4.112   3.642   1.760 -0.5909 -0.1839 -1.2446
 4535TIP3    H235241   4.028   3.705   1.869  1.7930  2.1938 -0.6747
 4536TIP3   OH235242   0.253   6.776   1.679 -0.2274 -0.5173 -0.6575
 4536TIP3    H135243   0.298   6.694   1.701 -0.3527 -0.3566  0.2169
 4536TIP3    H235244   0.276   6.836   1.750 -2.3071 -0.6077  0.1517
 4537TIP3   OH235245   4.195   0.678   0.708  0.6484 -0.7447 -0.2728
 4537TIP3    H135246   4.268   0.721   0.753  1.5598 -1.1153 -1.3656
 4537TIP3    H235247   4.124   0.742   0.711  0.7627 -0.6487  1.4232
 4538TIP3   OH235248   1.948   6.601   1.090 -0.5693  0.1169 -0.1930
 4538TIP3    H135249   1.925   6.509   1.076  1.3562 -0.3779 -0.3584
 4538TIP3    H235250   1.921   6.619   1.180 -1.0439 -0.5831 -0.1887
 4539TIP3   OH235251   5.241   3.339   1.938  0.1595 -0.1421 -0.1022
 4539TIP3    H135252   5.177   3.336   2.009  0.0925 -0.8439 -0.1833
 4539TIP3    H235253   5.267   3.431   1.932  1.1334 -0.2609  1.6931
 4540TIP3   OH235254   0.957   0.938   0.115 -0.4193  0.1653 -0.1001
 4540TIP3    H135255   0.979   0.886   0.037  0.9036 -3.3281  2.3838
 4540TIP3    H235256   1.034   0.992   0.131  0.7165 -1.5895  0.5889
 4541TIP3   OH235257   3.081   3.137   1.751  0.4757 -0.2350  0.2978
 4541TIP3    H135258   3.107   3.225   1.724 -0.7722 -0.0326 -0.3247
 4541TIP3    H235259   3.096   3.083   1.673 -0.2833 -0.2352  0.1362
 4542TIP3   OH235260   2.780   5.176   7.109  0.0749  0.4214  0.4957
 4542TIP3    H135261   2.752   5.105   7.167 -1.0748 -0.1794 -0.7357
 4542TIP3    H235262   2.702   5.231   7.100  0.3978  0.8003 -0.0314
 4543TIP3   OH235263   5.807   1.569   0.108  0.2853  0.0816  0.3427
 4543TIP3    H135264   5.732   1.578   0.167  0.6985 -2.9269  1.5108
 4543TIP3    H235265   5.788   1.490   0.056  0.9279  1.4412 -2.1324
 4544TIP3   OH235266   0.104   2.886   2.774 -0.0615 -0.4287 -0.2512
 4544TIP3    H135267   0.124   2.793   2.761  0.9217 -0.2122 -0.3621
 4544TIP3    H235268   0.039   2.887   2.844 -2.5078 -1.3931 -2.3514
 4545TIP3   OH235269   2.933   3.179   0.613  0.3391 -0.0002 -0.2449
 4545TIP3    H135270   3.020   3.218   0.620  0.2557 -0.0793  1.5727
 4545TIP3    H235271   2.889   3.232   0.546  1.6174  0.3387 -0.8461
 4546TIP3   OH235272   1.946   5.161   1.037 -0.2012  0.0925 -0.3929
 4546TIP3    H135273   2.038   5.187   1.026 -0.3588  1.0823  0.5274
 4546TIP3    H235274   1.897   5.243   1.031 -0.7302  0.0564  2.2570
 4547TIP3   OH235275   0.103   4.656   7.447 -0.1143 -0.4649  0.1605
 4547TIP3    H135276   0.046   4.600   7.395  0.5012 -0.0665 -0.9833
 4547TIP3    H235277   0.065   4.743   7.439  2.2058  0.4236 -3.1655
 4548TIP3   OH235278   3.251   5.181   2.351 -0.2620  0.4384  0.0649
 4548TIP3    H135279   3.308   5.128   2.407 -1.2400  0.7827  1.4486
 4548TIP3    H235280   3.311   5.236   2.301  0.7106 -0.9769 -0.3915
 4549TIP3   OH235281   3.693   1.919   0.992 -0.4943 -0.0992  0.3573
 4549TIP3    H135282   3.776   1.967   0.988 -0.8924  0.7023  1.2878
 4549TIP3    H235283   3.628   1.981   0.960 -0.5995 -1.1618 -1.6531
 4550TIP3   OH235284   4.031   6.090   8.079 -0.5419 -0.1100 -0.3411
 4550TIP3    H135285   3.980   6.054   8.006 -0.8315  0.1668 -0.2806
 4550TIP3    H235286   4.002   6.181   8.085 -1.1869 -0.3612  0.6833
 4551TIP3   OH235287   5.244   1.332   7.857  1.0474  0.1861 -0.4843
 4551TIP3    H135288   5.225   1.317   7.949 -1.9240  1.5829 -0.7321
 4551TIP3    H235289   5.235   1.247   7.815  0.6751 -0.1513  0.2808
 4552TIP3   OH235290   5.384   6.443   7.080  0.5092 -0.2169 -0.3914
 4552TIP3    H135291   5.375   6.350   7.062 -1.6626 -0.4072  1.3140
 4552TIP3    H235292   5.399   6.483   6.994  0.6101 -2.0132 -1.2431
 4553TIP3   OH235293   6.152   2.136   1.634 -0.6479  0.5073 -0.2013
 4553TIP3    H135294   6.144   2.102   1.723  1.1945 -0.1131 -0.2194
 4553TIP3    H235295   6.232   2.095   1.600  0.5188  3.1791 -0.9874
 4554TIP3   OH235296   3.173   1.046   2.293 -0.2535  0.4410  0.0170
 4554TIP3    H135297   3.184   0.951   2.301 -0.9883  0.0424 -2.5872
 4554TIP3    H235298   3.249   1.075   2.243 -1.4276  0.6950 -1.7084
 4555TIP3   OH235299   0.399   3.913   0.597 -0.2475  0.5784  0.1231
 4555TIP3    H135300   0.419   3.820   0.610 -1.3796  0.0948 -1.3212
 4555TIP3    H235301   0.304   3.917   0.593 -0.2554  1.9469  0.9795
 4556TIP3   OH235302   3.069   2.304   8.495  0.2515 -0.3072  0.1677
 4556TIP3    H135303   3.060   2.399   8.486  0.1233 -0.3165  0.1907
 4556TIP3    H235304   3.124   2.293   8.573  0.3610 -0.2504  0.0984
 4557TIP3   OH235305   6.834   1.502   0.656  0.1345 -0.0899  0.3856
 4557TIP3    H135306   6.838   1.552   0.738 -0.9277 -0.9246  0.9595
 4557TIP3    H235307   6.854   1.567   0.588 -0.1216  0.8705  1.2025
 4558TIP3   OH235308   1.243   1.101   8.412  0.2758 -0.5062  0.2388
 4558TIP3    H135309   1.228   1.065   8.500 -0.6086 -1.7745 -0.3934
 4558TIP3    H235310   1.314   1.164   8.423  0.1151 -0.5704  1.8766
 4559TIP3   OH235311   2.198   5.370   0.996  0.1498  0.3530 -0.4332
 4559TIP3    H135312   2.154   5.454   1.008 -0.9376 -0.0850 -1.1396
 4559TIP3    H235313   2.191   5.327   1.081  1.2552  1.1957  0.1153
 4560TIP3   OH235314   5.168   0.858   7.243 -0.0395  0.5489  0.1804
 4560TIP3    H135315   5.184   0.908   7.163  0.6960  0.4637  0.2669
 4560TIP3    H235316   5.199   0.770   7.222 -0.2054  0.4300  0.4330
 4561TIP3   OH235317   0.234   2.863   2.061  0.8218 -0.3847  0.1423
 4561TIP3    H135318   0.199   2.775   2.048  0.7732 -0.3492  0.0369
 4561TIP3    H235319   0.199   2.915   1.989  0.8479 -0.2772  0.2055
 4562TIP3   OH235320   1.069   4.365   0.510 -0.4787  0.1901  0.2188
 4562TIP3    H135321   1.049   4.279   0.473 -0.8026  0.8471 -1.1864
 4562TIP3    H235322   1.028   4.427   0.450  0.1833  1.3521  0.9386
 4563TIP3   OH235323   0.809   1.172   2.229 -0.2485  0.5103  0.0905
 4563TIP3    H135324   0.826   1.232   2.157 -1.1088  0.5141 -0.1186
 4563TIP3    H235325   0.734   1.209   2.275 -1.3014 -0.8009 -0.5150
 4564TIP3   OH235326   5.244   2.807   7.729 -0.3664 -0.0379 -0.5382
 4564TIP3    H135327   5.325   2.757   7.724  0.0286  0.6004 -0.5750
 4564TIP3    H235328   5.259   2.883   7.673 -1.3952 -0.4589 -1.4308
 4565TIP3   OH235329   1.120   5.833   2.120 -0.0743 -0.0921  0.0094
 4565TIP3    H135330   1.184   5.877   2.176  0.0438 -0.5231  0.2233
 4565TIP3    H235331   1.104   5.894   2.048  3.0718 -1.1809 -1.8547
 4566TIP3   OH235332   2.009   3.318   0.320 -0.3914 -0.2037  0.5861
 4566TIP3    H135333   1.920   3.347   0.299  0.1218  1.1885  0.2260
 4566TIP3    H235334   2.063   3.349   0.247  0.0381 -3.4586 -0.6676
 4567TIP3   OH235335   4.221   0.711   8.303  0.0343  0.0333  0.0567
 4567TIP3    H135336   4.158   0.641   8.285  1.9003 -1.1580 -2.4924
 4567TIP3    H235337   4.287   0.671   8.359  0.0355  0.3862  0.3110
 4568TIP3   OH235338   6.398   4.705   7.101 -0.5346 -0.2499  0.4190
 4568TIP3    H135339   6.368   4.622   7.064  0.5868 -0.9147  0.9675
 4568TIP3    H235340   6.486   4.687   7.133 -0.4532  1.0303  0.9722
 4569TIP3   OH235341   0.671   5.538   0.359 -0.7493  0.5706 -0.2605
 4569TIP3    H135342   0.583   5.565   0.330  0.1442  1.9435 -1.9148
 4569TIP3    H235343   0.727   5.555   0.283  0.8111 -1.1810  0.4257
 4570TIP3   OH235344   2.325   4.459   7.976 -0.0902 -0.6903  0.0514
 4570TIP3    H135345   2.257   4.409   8.022 -0.0908  0.2430  1.1059
 4570TIP3    H235346   2.333   4.416   7.891 -0.4304 -2.1835  0.7354
 4571TIP3   OH235347   0.783   2.563   7.220 -0.5635  0.2217 -0.3630
 4571TIP3    H135348   0.689   2.576   7.233 -0.6901 -1.8119  1.3040
 4571TIP3    H235349   0.802   2.479   7.262  2.0779  0.7366 -0.3350
 4572TIP3   OH235350   0.878   2.155   1.306 -0.3347 -0.1798 -0.6884
 4572TIP3    H135351   0.876   2.112   1.221  2.9562  1.9174 -2.0185
 4572TIP3    H235352   0.968   2.146   1.336 -0.8766  1.0029  1.5698
 4573TIP3   OH235353   1.571   2.092   7.701  0.1295  0.2029 -0.6371
 4573TIP3    H135354   1.614   2.151   7.639  0.2315 -1.6775 -2.4426
 4573TIP3    H235355   1.536   2.021   7.647  0.4026 -1.6521  1.4836
 4574TIP3   OH235356   4.153   4.674   0.438  0.3989  0.4055 -0.2791
 4574TIP3    H135357   4.179   4.611   0.371  0.2307 -1.0377  0.9602
 4574TIP3    H235358   4.229   4.731   0.449  1.5604 -1.2155  0.4033
 4575TIP3   OH235359   4.047   3.437   7.327 -0.1071  0.2834  0.1012
 4575TIP3    H135360   3.998   3.378   7.269  1.9231  0.3436 -1.8032
 4575TIP3    H235361   4.042   3.522   7.283  1.9632  0.2061 -0.3827
 4576TIP3   OH235362   0.299   4.921   8.495 -0.3349 -0.3798 -0.8701
 4576TIP3    H135363   0.253   4.900   8.576 -1.8156 -1.2477 -1.8736
 4576TIP3    H235364   0.311   4.836   8.452 -1.0572  0.1886 -2.2819
 4577TIP3   OH235365   1.965   4.430   8.511  0.3013  0.3048 -0.6258
 4577TIP3    H135366   1.976   4.513   8.557 -1.2023  0.2122 -0.0588
 4577TIP3    H235367   1.993   4.364   8.574  1.0886  0.3430 -0.9253
 4578TIP3   OH235368   6.515   3.371   0.358  0.2384  0.4460 -0.8692
 4578TIP3    H135369   6.455   3.446   0.364 -0.6015 -0.2554  0.0063
 4578TIP3    H235370   6.507   3.341   0.268 -2.0314 -0.6039 -0.4119
 4579TIP3   OH235371   6.256   4.361   0.532  0.5087 -0.2094  0.4469
 4579TIP3    H135372   6.285   4.445   0.497  0.1855  0.0681  0.8474
 4579TIP3    H235373   6.313   4.344   0.607  1.0983 -0.7321 -0.1049
 4580TIP3   OH235374   5.996   5.473   0.118 -0.1673 -0.7458  0.2609
 4580TIP3    H135375   5.907   5.449   0.144 -0.5402  0.0364 -0.2288
 4580TIP3    H235376   6.022   5.540   0.181 -0.4646  0.0069 -0.3927
 4581TIP3   OH235377   1.926   6.713   1.372  0.0029 -0.2558  0.0218
 4581TIP3    H135378   1.852   6.741   1.426 -0.1073  0.4753 -0.4990
 4581TIP3    H235379   2.003   6.734   1.425 -0.1151  0.1665  0.0240
 4582TIP3   OH235380   3.251   1.854   1.546  0.1603  0.5842 -0.0157
 4582TIP3    H135381   3.187   1.907   1.593  0.3739  1.1865 -0.3849
 4582TIP3    H235382   3.283   1.791   1.611 -1.1970 -0.0879  0.0201
 4583TIP3   OH235383   5.261   0.210   1.334  0.1890  0.1364  0.3109
 4583TIP3    H135384   5.231   0.291   1.375  2.1836  0.7182  0.7348
 4583TIP3    H235385   5.196   0.145   1.360 -0.0339  1.0449  2.2539
 4584TIP3   OH235386   4.887   5.726   0.398 -0.2734  0.3087  0.3079
 4584TIP3    H135387   4.948   5.724   0.324  0.8828 -0.9740  1.2433
 4584TIP3    H235388   4.812   5.675   0.369 -0.4363  0.9530 -0.4507
 4585TIP3   OH235389   2.588   6.943   2.519 -0.2754 -0.1976 -0.0407
 4585TIP3    H135390   2.545   6.858   2.531 -1.0442  0.1876 -0.0326
 4585TIP3    H235391   2.662   6.942   2.580 -0.8966 -0.4421  0.7188
 4586TIP3   OH235392   6.073   4.282   0.262  0.1804  0.3345  0.0188
 4586TIP3    H135393   6.093   4.313   0.350  2.6372 -0.1801 -0.2827
 4586TIP3    H235394   6.070   4.187   0.270 -1.8318  0.3415 -0.0904
 4587TIP3   OH235395   3.117   1.812   0.430  0.3225  0.2654  0.5918
 4587TIP3    H135396   3.088   1.862   0.354 -0.1382  0.8191  1.1202
 4587TIP3    H235397   3.212   1.806   0.420  0.1826 -0.3960 -0.4578
 4588TIP3   OH235398   0.812   5.516   1.857 -0.7796  0.6399  0.4343
 4588TIP3    H135399   0.737   5.561   1.896 -1.9384 -2.1327  1.6123
 4588TIP3    H235400   0.882   5.527   1.921 -1.2043  0.3637  0.9574
 4589TIP3   OH235401   5.140   6.699   2.264 -0.4045  0.0806  0.3070
 4589TIP3    H135402   5.188   6.760   2.319 -0.0887 -1.9388  2.3985
 4589TIP3    H235403   5.053   6.693   2.304 -0.8625  0.1231 -0.6445
 4590TIP3   OH235404   4.819   4.158   0.890  0.2885 -0.6395 -0.0500
 4590TIP3    H135405   4.795   4.108   0.812 -0.1109 -0.4351 -0.0615
 4590TIP3    H235406   4.906   4.192   0.871  0.0493 -0.2880 -0.5630
 4591TIP3   OH235407   1.837   6.751   8.432  0.2810  0.8073 -0.3721
 4591TIP3    H135408   1.849   6.820   8.497 -2.4457  1.1141 -0.0766
 4591TIP3    H235409   1.773   6.691   8.472  0.0492 -0.0744 -1.9659
 4592TIP3   OH235410   4.076   2.049   1.124 -0.0302 -0.0625 -0.0683
 4592TIP3    H135411   3.996   2.062   1.175 -1.6119 -2.5557 -1.7112
 4592TIP3    H235412   4.066   2.105   1.048  0.4903  0.6984  0.4115
 4593TIP3   OH235413   5.471   1.839   1.937 -0.0210 -0.7392 -0.7491
 4593TIP3    H135414   5.409   1.908   1.962  0.8103 -0.7462  1.5533
 4593TIP3    H235415   5.471   1.841   1.841  0.6605  3.1257 -0.8334
 4594TIP3   OH235416   2.821   3.336   6.499 -0.1960 -0.1173 -0.3721
 4594TIP3    H135417   2.761   3.267   6.473  0.3376 -0.4343 -0.7749
 4594TIP3    H235418   2.871   3.298   6.571  0.4832 -0.3616 -0.9601
 4595TIP3   OH235419   5.803   6.253   2.417  0.0664  0.2146  0.4306
 4595TIP3    H135420   5.826   6.290   2.503  0.6743  1.1858 -0.1308
 4595TIP3    H235421   5.794   6.330   2.360  2.8171 -0.5145 -1.1638
 4596TIP3   OH235422   5.085   5.605   2.047  0.3457 -0.2155  0.6567
 4596TIP3    H135423   5.111   5.573   2.133 -1.2132 -2.2059  0.4603
 4596TIP3    H235424   5.166   5.638   2.008  1.6619 -1.9474  1.7755
 4597TIP3   OH235425   1.995   2.821   8.325  0.0944  0.2721 -1.2280
 4597TIP3    H135426   1.911   2.807   8.281  0.3481  0.1731 -1.6906
 4597TIP3    H235427   2.008   2.743   8.379  0.1135  0.0726 -1.5210
 4598TIP3   OH235428   4.357   3.873   1.106  0.3048 -0.4393  0.0401
 4598TIP3    H135429   4.366   3.806   1.173  1.1444  0.6490  1.0708
 4598TIP3    H235430   4.392   3.953   1.147 -0.6110  0.6220 -1.1480
 4599TIP3   OH235431   4.026   1.031   1.214  0.0355  0.6185  0.5374
 4599TIP3    H135432   3.939   1.020   1.175  0.3931 -1.7505  0.2233
 4599TIP3    H235433   4.012   1.089   1.289 -2.0410 -0.5217  1.1041
 4600TIP3   OH235434   1.371   5.709   0.176  0.1873 -0.1287 -0.4954
 4600TIP3    H135435   1.319   5.770   0.229  1.3246  0.2069  0.2712
 4600TIP3    H235436   1.458   5.749   0.172  0.3875 -0.6423 -1.8129
 4601TIP3   OH235437   5.007   0.126   1.365  0.0468  0.0796 -0.4674
 4601TIP3    H135438   4.922   0.085   1.350 -0.6140  1.3335 -0.3439
 4601TIP3    H235439   5.002   0.159   1.455 -0.2745  2.1830 -1.1868
 4602TIP3   OH235440   2.420   5.724   7.987  0.3888  0.3648 -0.5092
 4602TIP3    H135441   2.478   5.787   7.944  0.8733  1.1406  1.2114
 4602TIP3    H235442   2.338   5.771   8.000  0.6455  0.5628  0.4885
 4603TIP3   OH235443   3.421   0.479   1.287  0.0766 -0.3852 -0.3919
 4603TIP3    H135444   3.328   0.465   1.269  0.4738 -2.1920 -1.2577
 4603TIP3    H235445   3.461   0.486   1.201  0.5468  2.3572 -0.0468
 4604TIP3   OH235446   1.210   1.063   0.146 -0.2266 -0.2010  0.3342
 4604TIP3    H135447   1.217   1.138   0.204  1.4372  0.4909 -0.6861
 4604TIP3    H235448   1.259   0.993   0.189  0.0264 -0.0426  0.3040
 4605TIP3   OH235449   2.497   3.758   7.236  0.1084 -0.1244  0.4468
 4605TIP3    H135450   2.581   3.790   7.202  0.2482  0.0246  0.9305
 4605TIP3    H235451   2.433   3.819   7.200  0.2041 -0.2527  0.0558
 4606TIP3   OH235452   1.980   5.535   2.924 -0.0765 -0.2854  0.4626
 4606TIP3    H135453   1.916   5.463   2.919 -0.1435 -0.4301  2.5762
 4606TIP3    H235454   1.927   5.612   2.942  0.0337  0.2891 -1.4491
 4607TIP3   OH235455   2.394   4.951   0.376  0.2138 -0.0364  0.4934
 4607TIP3    H135456   2.432   4.929   0.461  0.2428 -0.5748  0.3404
 4607TIP3    H235457   2.470   4.971   0.321  0.4824 -3.0907 -0.4011
 4608TIP3   OH235458   1.457   3.452   8.147  0.2419 -0.0038  0.1801
 4608TIP3    H135459   1.438   3.421   8.058 -0.1726  1.0149 -0.1002
 4608TIP3    H235460   1.552   3.450   8.153  0.2962  0.3058 -0.4400
 4609TIP3   OH235461   1.441   6.124   2.074  0.5094  0.0383  0.1324
 4609TIP3    H135462   1.417   6.131   2.166  0.6970 -0.5302  0.2264
 4609TIP3    H235463   1.443   6.030   2.056  0.3563  0.1465 -0.4832
 4610TIP3   OH235464   5.412   4.364   1.589  0.1029 -0.1049 -0.4703
 4610TIP3    H135465   5.439   4.293   1.648 -3.0095 -0.8703  0.2376
 4610TIP3    H235466   5.473   4.436   1.608  1.0320 -1.3336  1.5288
 4611TIP3   OH235467   6.298   4.448   1.426  0.5590  0.7546  0.0765
 4611TIP3    H135468   6.387   4.419   1.405  1.1437  0.2559  2.8863
 4611TIP3    H235469   6.257   4.371   1.465  0.2937  2.0472  2.5357
 4612TIP3   OH235470   4.551   0.086   8.383  0.0112  0.1134 -0.1946
 4612TIP3    H135471   4.620   0.051   8.441  0.2072 -0.4288 -0.7427
 4612TIP3    H235472   4.535   0.015   8.320  0.5829  1.0980 -1.4918
 4613TIP3   OH235473   3.419   1.451   0.165 -0.3527  0.3377  0.2268
 4613TIP3    H135474   3.381   1.413   0.086  0.3114 -0.0429  0.0856
 4613TIP3    H235475   3.463   1.531   0.135 -1.6104  1.1596  0.4978
 4614TIP3   OH235476   1.938   5.280   7.643  0.5630 -0.1617  0.1872
 4614TIP3    H135477   1.890   5.326   7.574 -1.9077  1.3318  2.6805
 4614TIP3    H235478   1.881   5.208   7.668  1.6627 -1.0014  0.3605
 4615TIP3   OH235479   2.983   0.536   2.500  0.0950  1.0116  0.0249
 4615TIP3    H135480   3.074   0.558   2.519 -0.0970  1.1716  0.8164
 4615TIP3    H235481   2.933   0.608   2.540 -0.4260  0.3739  0.5436
 4616TIP3   OH235482   3.661   2.909   8.157 -0.0041 -0.0522  0.2563
 4616TIP3    H135483   3.646   2.852   8.081  2.0659  0.5465 -0.6769
 4616TIP3    H235484   3.626   2.859   8.231  1.3603 -2.4297 -0.5751
 4617TIP3   OH235485   5.680   4.989   7.525  0.7873  0.0702  0.2496
 4617TIP3    H135486   5.611   4.951   7.470 -0.8341 -0.6523  2.6370
 4617TIP3    H235487   5.755   4.930   7.512  0.5001 -0.0225 -1.2093
 4618TIP3   OH235488   0.218   2.092   8.290  0.6118  0.3551 -0.1550
 4618TIP3    H135489   0.166   2.023   8.250  0.6755  0.4352 -0.3735
 4618TIP3    H235490   0.228   2.063   8.381  0.3931  0.2205 -0.1720
 4619TIP3   OH235491   3.334   5.879   1.418 -0.0313 -0.1499  0.0090
 4619TIP3    H135492   3.292   5.837   1.343  2.1074 -2.9248  0.1915
 4619TIP3    H235493   3.426   5.889   1.391  0.8014 -1.2065  2.1882
 4620TIP3   OH235494   5.411   3.846   7.616  0.9103  0.6135  0.8591
 4620TIP3    H135495   5.359   3.830   7.695 -0.3337 -1.8738 -0.3588
 4620TIP3    H235496   5.499   3.865   7.649  0.5859 -0.9930  2.8579
 4621TIP3   OH235497   5.391   2.678   1.785 -0.4386  0.5483 -0.1400
 4621TIP3    H135498   5.406   2.742   1.716 -2.3128  0.3640 -0.7783
 4621TIP3    H235499   5.332   2.613   1.746 -1.3116  0.2722  1.5240
 4622TIP3   OH235500   5.524   5.459   0.804  0.0238 -0.1519 -0.0654
 4622TIP3    H135501   5.528   5.552   0.781 -0.7863 -0.1860 -0.3478
 4622TIP3    H235502   5.563   5.455   0.892  2.3643  0.0893 -1.0054
 4623TIP3   OH235503   6.815   5.242   0.909 -0.3189 -0.5862  0.7140
 4623TIP3    H135504   6.729   5.207   0.888 -0.2230 -0.8943  0.8248
 4623TIP3    H235505   6.853   5.266   0.825  0.1319 -1.9718  0.4980
 4624TIP3   OH235506   0.597   2.840   0.185  0.6323  0.6426  0.3334
 4624TIP3    H135507   0.562   2.892   0.257  0.8916  0.0193  0.9234
 4624TIP3    H235508   0.542   2.864   0.109 -0.0007  0.8979  0.8605
 4625TIP3   OH235509   3.576   5.720   2.024 -0.1662 -0.1285  0.5106
 4625TIP3    H135510   3.571   5.673   2.108  1.7867 -1.5037 -0.0637
 4625TIP3    H235511   3.578   5.651   1.958  0.3988  0.8653 -0.5449
 4626TIP3   OH235512   6.419   3.158   2.025  0.4782 -0.9518  0.1140
 4626TIP3    H135513   6.501   3.166   2.073  0.7404  0.8806 -0.5752
 4626TIP3    H235514   6.433   3.086   1.963  0.4786 -2.6685  2.0178
 4627TIP3   OH235515   1.257   3.408   7.847 -0.0521 -0.0960  0.0185
 4627TIP3    H135516   1.352   3.402   7.838 -0.0197 -0.1972  0.4380
 4627TIP3    H235517   1.230   3.464   7.773  0.3268 -0.0854 -0.1150
 4628TIP3   OH235518   4.448   2.393   7.583  0.3069 -0.5707 -0.0867
 4628TIP3    H135519   4.515   2.450   7.547 -1.4087  1.4802 -0.1865
 4628TIP3    H235520   4.445   2.318   7.524  1.5857 -0.0722 -0.8111
 4629TIP3   OH235521   1.088   3.909   1.623  0.0205 -0.2874 -0.5238
 4629TIP3    H135522   1.090   4.003   1.606  0.9424 -0.1965  0.0352
 4629TIP3    H235523   1.024   3.898   1.693  0.7011  0.0578  0.1611
 4630TIP3   OH235524   6.343   6.221   0.133  0.0568 -0.7330  0.2087
 4630TIP3    H135525   6.263   6.232   0.184 -0.5700 -0.9307 -0.7066
 4630TIP3    H235526   6.407   6.279   0.175 -1.0453  0.7354 -0.0451
 4631TIP3   OH235527   3.558   0.690   0.361 -0.1201  0.0064  0.4459
 4631TIP3    H135528   3.608   0.664   0.284 -0.6590  1.8616 -0.6150
 4631TIP3    H235529   3.474   0.720   0.325  0.1097  2.1781  1.5493
 4632TIP3   OH235530   4.559   0.616   8.182  0.0126  0.1348  0.1921
 4632TIP3    H135531   4.508   0.535   8.172 -0.9136  0.7798 -0.5294
 4632TIP3    H235532   4.644   0.596   8.142 -0.6991 -0.0557 -1.2755
 4633TIP3   OH235533   4.304   0.214   7.385  0.0318  0.2240  0.1338
 4633TIP3    H135534   4.271   0.228   7.296  2.6644  1.2146 -0.7696
 4633TIP3    H235535   4.260   0.134   7.414 -1.7868  0.5241 -1.5685
 4634TIP3   OH235536   0.323   3.682   7.697  0.2059 -0.1295 -0.1361
 4634TIP3    H135537   0.352   3.712   7.784 -1.4968  0.3717  0.2958
 4634TIP3    H235538   0.325   3.761   7.643  0.9523 -0.3767 -0.4783
 4635TIP3   OH235539   3.858   6.779   1.904 -0.1505 -0.6776  0.3570
 4635TIP3    H135540   3.853   6.738   1.990  1.1284 -0.7007  0.4415
 4635TIP3    H235541   3.805   6.859   1.912 -2.4301 -2.0992  0.2791
 4636TIP3   OH235542   5.025   0.877   2.808  0.3683 -0.5718  0.0028
 4636TIP3    H135543   5.101   0.897   2.754  0.7520 -2.2611 -0.1166
 4636TIP3    H235544   5.050   0.905   2.896  1.7881 -2.5557  0.2801
 4637TIP3   OH235545   6.729   6.413   7.349 -0.5503  0.1487  0.0006
 4637TIP3    H135546   6.657   6.420   7.412 -0.7451  0.1255 -0.2192
 4637TIP3    H235547   6.687   6.418   7.263 -0.0674  2.7014 -0.1635
 4638TIP3   OH235548   5.056   1.922   1.269  0.0180  0.2087 -0.2034
 4638TIP3    H135549   5.103   1.843   1.298 -1.0821 -0.2765  0.3294
 4638TIP3    H235550   5.112   1.959   1.201  0.8358 -0.7222 -0.0720
 4639TIP3   OH235551   4.257   6.510   7.486 -0.1459 -0.0041  0.4863
 4639TIP3    H135552   4.237   6.574   7.418  1.7095  1.1826  0.9846
 4639TIP3    H235553   4.181   6.451   7.486 -2.2433  2.4895  0.3771
 4640TIP3   OH235554   5.680   4.291   7.700  0.5098  0.8183  0.3471
 4640TIP3    H135555   5.652   4.206   7.732  1.1176  0.1982 -0.7056
 4640TIP3    H235556   5.683   4.346   7.778 -0.3161  0.0031  0.9748
 4641TIP3   OH235557   4.818   2.608   7.697  0.1704  0.4409  0.0542
 4641TIP3    H135558   4.764   2.553   7.754  0.5750 -1.0237 -0.9009
 4641TIP3    H235559   4.878   2.653   7.756  0.2043 -0.5957  0.8307
 4642TIP3   OH235560   4.522   1.965   0.251 -0.0088 -0.4476 -0.5557
 4642TIP3    H135561   4.531   1.896   0.185  1.6232  0.0629 -0.9014
 4642TIP3    H235562   4.538   1.922   0.334  1.4568 -0.4200 -0.8074
 4643TIP3   OH235563   0.524   0.110   0.555 -0.4974  0.7388  0.2557
 4643TIP3    H135564   0.440   0.124   0.598 -0.4653  0.0804  0.5343
 4643TIP3    H235565   0.515   0.027   0.508 -0.7141  1.6954 -1.4785
 4644TIP3   OH235566   6.619   1.339   0.483 -0.4267 -0.5008  0.5096
 4644TIP3    H135567   6.604   1.422   0.527  0.1327 -0.3058  0.3414
 4644TIP3    H235568   6.693   1.300   0.530  3.0819  1.5939 -2.7243
 4645TIP3   OH235569   6.384   1.277   1.697  0.7007  0.5978 -0.3746
 4645TIP3    H135570   6.290   1.296   1.699  1.2042  3.6501  1.4867
 4645TIP3    H235571   6.396   1.212   1.766 -0.0898 -0.4166 -1.1546
 4646TIP3   OH235572   3.927   5.797   8.046 -0.3037 -0.3622 -0.7686
 4646TIP3    H135573   3.914   5.702   8.050 -0.2738 -0.3729 -0.9196
 4646TIP3    H235574   3.997   5.814   8.108  0.1352 -0.5206 -1.2075
 4647TIP3   OH235575   4.025   6.329   8.362 -0.4642  0.2855 -0.2818
 4647TIP3    H135576   4.040   6.407   8.415  0.4641 -1.3092  1.9469
 4647TIP3    H235577   4.113   6.291   8.350 -0.8377 -0.2086 -1.7336
 4648TIP3   OH235578   3.917   4.411   7.457  0.1861 -0.1865 -0.1955
 4648TIP3    H135579   3.872   4.334   7.422 -1.6580  1.0145 -0.6145
 4648TIP3    H235580   3.890   4.482   7.400  1.2835  0.9242  0.6103
 4649TIP3   OH235581   1.246   3.637   1.264 -0.5345 -0.0278  0.2867
 4649TIP3    H135582   1.241   3.709   1.200 -0.5672 -0.7588 -0.5554
 4649TIP3    H235583   1.307   3.668   1.331  3.2411 -0.9719 -2.4126
 4650TIP3   OH235584   2.014   6.146   0.191  0.9443 -0.1724 -0.0592
 4650TIP3    H135585   2.089   6.160   0.248  1.0507 -2.0810  0.3482
 4650TIP3    H235586   2.032   6.062   0.149 -0.1920  0.1365 -1.2093
 4651TIP3   OH235587   3.873   5.609   2.117 -0.7860  0.1634 -0.1675
 4651TIP3    H135588   3.857   5.693   2.073 -2.3713  0.0939  0.2262
 4651TIP3    H235589   3.907   5.633   2.203 -1.6840  0.4184  0.1177
 4652TIP3   OH235590   3.847   5.043   7.328  0.3548  0.1505  0.1344
 4652TIP3    H135591   3.762   5.019   7.365 -0.6373 -0.0248 -2.1071
 4652TIP3    H235592   3.901   4.964   7.340 -0.6765 -0.7429 -0.8420
 4653TIP3   OH235593   1.684   2.132   0.526 -0.3229  0.5386 -0.3379
 4653TIP3    H135594   1.779   2.125   0.528 -0.2379  1.5066 -0.2555
 4653TIP3    H235595   1.666   2.192   0.453 -0.7615  1.5349  0.5468
 4654TIP3   OH235596   4.784   5.322   8.004 -0.3854 -0.2025 -0.5737
 4654TIP3    H135597   4.869   5.358   7.982 -0.4443  0.2241 -0.1172
 4654TIP3    H235598   4.803   5.240   8.050 -0.0128  1.9593  3.5342
 4655TIP3   OH235599   6.683   5.084   8.075  0.0682  0.3400  0.0955
 4655TIP3    H135600   6.747   5.021   8.041 -0.6487  0.0359 -0.7411
 4655TIP3    H235601   6.698   5.086   8.169  1.2978  0.2642 -0.0830
 4656TIP3   OH235602   5.020   6.898   2.067  0.0350 -0.6575  0.3258
 4656TIP3    H135603   4.960   6.845   2.013 -0.6902 -0.1195  0.5922
 4656TIP3    H235604   5.000   6.873   2.157 -0.0217 -0.2339  0.4320
 4657TIP3   OH235605   1.877   6.638   2.472  0.9206  0.8759 -0.3288
 4657TIP3    H135606   1.824   6.566   2.507  0.9416  0.6877 -0.6770
 4657TIP3    H235607   1.965   6.622   2.507  1.1428  0.1948 -1.1455
 4658TIP3   OH235608   5.383   6.105   1.048  0.1900 -0.2614  0.1728
 4658TIP3    H135609   5.462   6.091   1.101  1.8506 -1.3748 -2.4415
 4658TIP3    H235610   5.398   6.188   1.003 -0.4299 -0.1887  0.0857
 4659TIP3   OH235611   1.332   3.496   1.831  0.1285  0.1144 -0.2369
 4659TIP3    H135612   1.319   3.580   1.788  0.4603  0.8201  0.9801
 4659TIP3    H235613   1.250   3.448   1.817 -0.1326  0.7057 -0.7762
 4660TIP3   OH235614   1.757   6.102   0.602 -0.7027  0.1937 -0.4263
 4660TIP3    H135615   1.785   6.051   0.678  1.7256 -0.1972 -1.4904
 4660TIP3    H235616   1.770   6.193   0.628 -1.3076  0.1321  0.1191
 4661TIP3   OH235617   6.761   1.985   7.095  0.6578 -0.1431 -0.3397
 4661TIP3    H135618   6.850   1.951   7.084  1.0590  0.3580  1.1301
 4661TIP3    H235619   6.706   1.925   7.044  1.7526 -0.8328 -0.7504
 4662TIP3   OH235620   4.312   2.564   7.826  0.4936 -0.3213  0.3082
 4662TIP3    H135621   4.339   2.541   7.737  0.2152  0.4274  0.0228
 4662TIP3    H235622   4.380   2.623   7.857 -0.9927  2.0481 -0.6260
 4663TIP3   OH235623   4.511   3.277   8.292  0.6867  0.1029 -0.0681
 4663TIP3    H135624   4.579   3.343   8.278 -0.6912  1.8574  0.9749
 4663TIP3    H235625   4.539   3.229   8.369  1.7450 -0.5993 -0.8773
 4664TIP3   OH235626   0.030   4.128   7.949  0.0402  0.2652 -0.2080
 4664TIP3    H135627   0.000   4.164   8.033  0.7725  0.3263  0.0269
 4664TIP3    H235628  -0.050   4.121   7.897 -0.3774  0.5095  0.3891
 4665TIP3   OH235629   3.076   5.957   1.585  0.2208 -0.4810  0.0479
 4665TIP3    H135630   3.076   5.875   1.537 -1.0414  0.1342 -1.0414
 4665TIP3    H235631   3.027   5.938   1.665  1.6958 -1.3075  0.7961
 4666TIP3   OH235632   5.955   1.037   8.509 -0.4504 -0.0953 -0.4162
 4666TIP3    H135633   5.948   1.064   8.601 -1.6873 -0.8930 -0.2462
 4666TIP3    H235634   5.904   1.102   8.461  1.2260  1.0501 -0.7311
 4667TIP3   OH235635   6.116   4.767   8.149 -0.4085  0.2797 -0.1822
 4667TIP3    H135636   6.084   4.757   8.060  0.5339  2.5771 -0.8547
 4667TIP3    H235637   6.130   4.677   8.180  1.4660 -0.6070 -3.1904
 4668TIP3   OH235638   5.305   0.192   8.468  0.4544  0.1531 -0.2686
 4668TIP3    H135639   5.227   0.219   8.517  0.0505  1.7346 -1.7147
 4668TIP3    H235640   5.281   0.108   8.430  0.1495 -0.2667  0.8057
 4669TIP3   OH235641   5.702   3.989   8.115 -0.0380  0.2116 -0.3782
 4669TIP3    H135642   5.610   3.968   8.133  0.2541 -0.1330  0.7457
 4669TIP3    H235643   5.750   3.912   8.143  0.6757  0.7092 -0.2158
 4670TIP3   OH235644   3.578   1.674   0.157 -0.6578  0.2506  0.2771
 4670TIP3    H135645   3.552   1.727   0.232  2.4102  1.1802  0.8025
 4670TIP3    H235646   3.598   1.737   0.088 -3.2822 -0.5830 -1.3897
 4671TIP3   OH235647   5.639   3.785   2.171  0.4846  0.4541  0.3625
 4671TIP3    H135648   5.696   3.799   2.246  0.6018 -0.6015  0.4805
 4671TIP3    H235649   5.559   3.834   2.193  0.4130 -0.0535  1.3026
 4672TIP3   OH235650   4.164   5.153   7.578 -0.9432 -0.4691  0.3432
 4672TIP3    H135651   4.202   5.212   7.644  1.2188 -2.7577  1.2830
 4672TIP3    H235652   4.239   5.120   7.529 -2.1691 -1.7323 -0.7693
 4673TIP3   OH235653   5.560   2.467   7.205 -0.3925  0.1730  0.5555
 4673TIP3    H135654   5.469   2.464   7.173 -0.5576  0.2507  1.0185
 4673TIP3    H235655   5.588   2.557   7.188 -0.6594  0.3648  1.1180
 4674TIP3   OH235656   6.165   1.127   1.431 -0.1946  0.0270 -0.3335
 4674TIP3    H135657   6.257   1.148   1.417  0.5352 -2.5988 -0.0705
 4674TIP3    H235658   6.143   1.171   1.513  0.6156  1.2095 -0.7288
 4675TIP3   OH235659   4.551   5.734   0.062 -0.2767 -0.0301 -0.0363
 4675TIP3    H135660   4.457   5.722   0.071 -0.0981 -1.7305 -0.1680
 4675TIP3    H235661   4.574   5.693  -0.021  0.6615 -0.2655  0.3151
 4676TIP3   OH235662   4.882   2.635   2.377  0.4539 -0.5217 -0.1649
 4676TIP3    H135663   4.828   2.597   2.446 -0.9311  0.9415 -0.3935
 4676TIP3    H235664   4.884   2.568   2.309 -0.9302 -0.6887 -0.0631
 4677TIP3   OH235665   5.306   0.916   8.331  0.4046  0.2240 -0.1430
 4677TIP3    H135666   5.354   0.883   8.407  1.0968 -0.4969 -0.8809
 4677TIP3    H235667   5.283   0.838   8.281 -2.5467  0.4297  0.7273
 4678TIP3   OH235668   4.602   1.642   8.322 -0.5297 -0.4951  0.8216
 4678TIP3    H135669   4.563   1.687   8.247 -1.3958 -0.9878  0.9605
 4678TIP3    H235670   4.548   1.564   8.334 -0.1917 -0.6042  1.7406
 4679TIP3   OH235671   2.844   1.011   1.357  0.2452 -0.3110  0.1835
 4679TIP3    H135672   2.842   0.938   1.295  0.3907 -1.3809  1.3992
 4679TIP3    H235673   2.859   1.088   1.302  3.3209 -1.5177 -0.8862
 4680TIP3   OH235674   5.455   0.917   1.306  0.5724 -0.6493 -0.3358
 4680TIP3    H135675   5.488   0.921   1.216  0.0800 -0.0602 -0.4963
 4680TIP3    H235676   5.478   1.002   1.344  0.3316 -0.7051 -0.0631
 4681TIP3   OH235677   2.382   0.608   0.899 -0.0030 -1.0627 -0.4779
 4681TIP3    H135678   2.343   0.674   0.957  1.4370 -0.1269 -0.5234
 4681TIP3    H235679   2.404   0.535   0.957 -1.6905 -1.5871 -0.4398
 4682TIP3   OH235680   4.105   2.190   0.899 -0.8689  0.3319  0.5428
 4682TIP3    H135681   4.131   2.254   0.965  2.6905 -0.8561  0.5180
 4682TIP3    H235682   4.148   2.219   0.819 -2.5442  0.0402 -0.5222
 4683TIP3   OH235683   6.130   5.814   2.347 -0.2022 -0.3577 -0.0451
 4683TIP3    H135684   6.195   5.876   2.315  0.2812 -0.8146  0.0373
 4683TIP3    H235685   6.096   5.772   2.268  1.0671 -1.5614  0.0132
 4684TIP3   OH235686   0.767   4.357   1.484 -0.5081 -0.2791 -0.4761
 4684TIP3    H135687   0.829   4.416   1.442  0.3114 -1.1183 -0.4764
 4684TIP3    H235688   0.719   4.413   1.546 -0.4745  0.5897 -1.2089
 4685TIP3   OH235689   3.776   2.001   0.444  0.8121 -0.0543  0.7750
 4685TIP3    H135690   3.867   1.975   0.460  0.4140 -0.6350  2.3012
 4685TIP3    H235691   3.779   2.051   0.363  2.6024  0.5501  1.1679
 4686TIP3   OH235692   5.918   5.181   2.003 -0.2852  0.0146 -0.0689
 4686TIP3    H135693   5.950   5.211   2.089  0.0106  1.2627 -0.5886
 4686TIP3    H235694   5.843   5.238   1.985  1.8704  2.4068 -2.2763
 4687TIP3   OH235695   6.616   6.265   7.938 -0.6389  0.3958 -0.2387
 4687TIP3    H135696   6.623   6.171   7.922  1.1577  0.2800  0.9326
 4687TIP3    H235697   6.698   6.302   7.907 -0.4646  1.2689  1.1262
 4688TIP3   OH235698   6.528   3.730   0.635 -0.4602 -0.0624  0.1152
 4688TIP3    H135699   6.573   3.719   0.551 -2.5165  1.2058 -1.2325
 4688TIP3    H235700   6.577   3.799   0.680 -0.2057  0.2977 -0.7047
 4689TIP3   OH235701   0.559   6.310   1.189 -0.0828 -0.0348  0.3630
 4689TIP3    H135702   0.500   6.244   1.225 -0.0683  0.3914  1.1736
 4689TIP3    H235703   0.510   6.348   1.116  0.2040 -1.4544 -0.6069
 4690TIP3   OH235704   1.906   0.868   2.147  0.4373  0.4857 -0.6001
 4690TIP3    H135705   1.895   0.859   2.241 -0.8238  0.4999 -0.7263
 4690TIP3    H235706   1.908   0.778   2.114  3.4288  0.3538 -0.3578
 4691TIP3   OH235707   5.346   6.896   1.331 -0.2150  0.0168  0.4819
 4691TIP3    H135708   5.262   6.861   1.303 -0.4414  0.1261  1.0087
 4691TIP3    H235709   5.343   6.989   1.305  0.0082 -0.1278 -0.0778
 4692TIP3   OH235710   1.823   2.005   0.901 -0.0187 -0.5755  0.2964
 4692TIP3    H135711   1.836   1.918   0.864 -2.3907 -1.6321  1.7566
 4692TIP3    H235712   1.728   2.016   0.905  0.1746  1.0063  2.5135
 4693TIP3   OH235713   1.803   3.315   6.977 -0.8541 -0.1071  0.5602
 4693TIP3    H135714   1.709   3.311   6.960 -0.7758  0.6185 -0.1223
 4693TIP3    H235715   1.817   3.403   7.014 -0.1982  0.5569 -1.1300
 4694TIP3   OH235716   1.754   2.543   7.346 -0.2329 -0.6200  0.2520
 4694TIP3    H135717   1.727   2.570   7.258 -0.7439 -1.7294  0.0402
 4694TIP3    H235718   1.846   2.520   7.337  0.1361  0.7606  0.3786
 4695TIP3   OH235719   5.484   0.786   8.495  0.2894 -0.1941 -0.4892
 4695TIP3    H135720   5.451   0.822   8.577 -1.5360  0.9589 -1.6612
 4695TIP3    H235721   5.571   0.825   8.485 -0.5461  1.8043 -0.3743
 4696TIP3   OH235722   2.460   4.577   1.620  0.7052 -0.0940  0.2050
 4696TIP3    H135723   2.501   4.663   1.609  0.9723 -0.3048 -0.4821
 4696TIP3    H235724   2.530   4.522   1.655  0.5246 -0.0269  0.6776
 4697TIP3   OH235725   2.549   5.324   6.704 -0.7599 -0.3777 -0.1098
 4697TIP3    H135726   2.565   5.290   6.616 -0.6917 -0.4099 -0.0855
 4697TIP3    H235727   2.526   5.247   6.756  3.4229 -1.1928  0.9546
 4698TIP3   OH235728   5.727   3.006   1.147 -1.1061 -0.3297 -0.0182
 4698TIP3    H135729   5.642   3.043   1.170 -0.6733  0.2964  0.5979
 4698TIP3    H235730   5.778   3.011   1.228 -0.5484 -0.8866 -0.3296
 4699TIP3   OH235731   3.834   5.643   7.531  0.3611 -0.2941 -0.3895
 4699TIP3    H135732   3.879   5.629   7.614  0.2813  0.6603 -0.1698
 4699TIP3    H235733   3.901   5.625   7.464  1.6932  2.7421 -0.0571
 4700TIP3   OH235734   3.010   1.571   7.271 -0.2793  0.0277 -0.8568
 4700TIP3    H135735   3.016   1.509   7.198  0.6820 -0.7228 -0.1544
 4700TIP3    H235736   3.006   1.657   7.228 -0.8266 -0.4523 -1.8152
 4701TIP3   OH235737   4.719   0.669   2.206  0.4835 -0.3113  0.2014
 4701TIP3    H135738   4.658   0.597   2.222  0.7263 -0.8349 -1.0849
 4701TIP3    H235739   4.797   0.646   2.257  0.1772 -0.4074  0.6349
 4702TIP3   OH235740   1.549   4.343   7.571 -0.3496  0.6833  0.4433
 4702TIP3    H135741   1.607   4.269   7.588 -0.4763  0.4598 -0.0938
 4702TIP3    H235742   1.608   4.415   7.549 -0.2986  0.1359 -1.3506
 4703TIP3   OH235743   3.589   4.303   2.186  0.2300  0.2645  0.3947
 4703TIP3    H135744   3.613   4.292   2.094  1.1573  0.8059  0.5506
 4703TIP3    H235745   3.657   4.362   2.221 -0.1438  0.1125  1.4052
 4704TIP3   OH235746   6.133   1.832   1.691 -0.1049 -0.5043 -0.3066
 4704TIP3    H135747   6.109   1.778   1.766  0.5200 -0.9199 -0.4006
 4704TIP3    H235748   6.050   1.845   1.644 -0.7922  1.0793  1.2742
 4705TIP3   OH235749   3.119   1.247   7.172  0.4625  0.2202  0.0100
 4705TIP3    H135750   3.098   1.316   7.108  0.7413 -0.4577 -0.8174
 4705TIP3    H235751   3.090   1.166   7.130  0.3581 -0.2006  0.8813
 4706TIP3   OH235752   0.902   4.512   0.308 -0.3806  0.3732  0.1941
 4706TIP3    H135753   0.844   4.547   0.377  0.7671 -0.4588  1.6424
 4706TIP3    H235754   0.844   4.458   0.254 -0.8852 -1.2389  2.1724
 4707TIP3   OH235755   6.719   6.908   1.915 -0.1254 -1.0126  0.2863
 4707TIP3    H135756   6.693   6.824   1.877 -0.6637 -1.5046  1.6814
 4707TIP3    H235757   6.670   6.913   1.997 -0.8211  1.0926 -0.1975
 4708TIP3   OH235758   5.202   5.878   1.585 -0.2859  0.1645 -0.3448
 4708TIP3    H135759   5.273   5.814   1.579  0.5711  1.0668 -0.0892
 4708TIP3    H235760   5.240   5.951   1.634 -1.1996  0.9318 -0.7596
 4709TIP3   OH235761   1.199   5.531   1.035 -0.3169  0.2213  0.3922
 4709TIP3    H135762   1.193   5.439   1.008 -0.7535  0.2039  0.5386
 4709TIP3    H235763   1.208   5.579   0.953  0.1509  0.0310  0.3281
 4710TIP3   OH235764   0.823   3.904   8.176  0.2818  0.7838  0.2764
 4710TIP3    H135765   0.879   3.977   8.150 -0.7233  1.2096 -0.8067
 4710TIP3    H235766   0.828   3.842   8.103  0.9247 -0.1367  1.0762
 4711TIP3   OH235767   3.958   1.117   2.111 -0.1235  0.4063  0.2080
 4711TIP3    H135768   4.046   1.090   2.087 -0.1130 -0.0602  0.7406
 4711TIP3    H235769   3.945   1.200   2.066  1.2852  1.4309  1.5837
 4712TIP3   OH235770   0.380   6.813   6.442 -0.2933  0.5165  0.4403
 4712TIP3    H135771   0.410   6.745   6.502  3.6261  1.7258  0.0924
 4712TIP3    H235772   0.441   6.808   6.368 -3.1738  0.9768 -2.1595
 4713TIP3   OH235773   6.286   1.939   0.691 -0.2546 -0.3962 -0.6066
 4713TIP3    H135774   6.348   1.984   0.634  0.0200 -1.3030 -1.0291
 4713TIP3    H235775   6.227   1.894   0.631 -0.6769 -0.4119 -0.1856
 4714TIP3   OH235776   0.532   1.316   8.514  0.6002  0.8002  0.1702
 4714TIP3    H135777   0.458   1.255   8.509  0.9234  0.4589 -0.6820
 4714TIP3    H235778   0.542   1.334   8.608  0.6894 -0.7155  0.4825
 4715TIP3   OH235779   4.439   6.348   1.235 -0.2322 -0.2313  0.7249
 4715TIP3    H135780   4.372   6.416   1.223  0.3717  0.4128  0.9739
 4715TIP3    H235781   4.416   6.282   1.170  0.5061  1.2717 -1.1680
 4716TIP3   OH235782   1.738   4.264   1.665  0.3035 -0.2805 -0.6549
 4716TIP3    H135783   1.698   4.246   1.580 -0.7916 -0.4743 -0.1202
 4716TIP3    H235784   1.779   4.350   1.655  1.3547 -0.8865 -1.7732
 4717TIP3   OH235785   6.351   6.257   7.808 -0.5080  0.3004  0.1212
 4717TIP3    H135786   6.375   6.337   7.856  0.4447  0.5658 -0.7508
 4717TIP3    H235787   6.435   6.222   7.778 -1.0713  0.2377 -1.4960
 4718TIP3   OH235788   2.034   1.877   7.452  0.0107  0.3449 -0.1389
 4718TIP3    H135789   1.996   1.903   7.536  0.0551  3.1580 -0.8867
 4718TIP3    H235790   1.960   1.844   7.402 -0.9067  2.5122 -0.3544
 4719TIP3   OH235791   3.358   0.858   7.458  0.1108  0.0832  0.0422
 4719TIP3    H135792   3.322   0.917   7.392 -1.5125 -1.1952 -0.2743
 4719TIP3    H235793   3.425   0.808   7.412  0.5732  0.7473 -0.0229
 4720TIP3   OH235794   6.692   2.830   0.620  0.3592  0.2564 -0.1621
 4720TIP3    H135795   6.678   2.830   0.525  0.9110  2.9850 -0.3247
 4720TIP3    H235796   6.639   2.903   0.652  2.9710  1.8022  1.0575
 4721TIP3   OH235797   5.196   5.938   7.370  0.2305 -0.7436 -0.4247
 4721TIP3    H135798   5.159   5.875   7.432 -1.5188 -0.4699 -1.1190
 4721TIP3    H235799   5.218   6.014   7.423 -0.3669 -0.8662  0.0150
 4722TIP3   OH235800   1.812   1.638   1.773  0.7226  0.2725  0.2924
 4722TIP3    H135801   1.903   1.646   1.747 -0.0014  1.7463 -2.0873
 4722TIP3    H235802   1.787   1.550   1.745  1.1822  0.1865  0.1420
 4723TIP3   OH235803   6.730   5.524   0.555  0.2789  0.2535  0.1740
 4723TIP3    H135804   6.713   5.507   0.462  1.2303 -2.8534  0.4717
 4723TIP3    H235805   6.805   5.584   0.554  1.7782 -1.5138 -1.1584
 4724TIP3   OH235806   3.256   0.315   7.153  0.1197  0.0155 -0.1667
 4724TIP3    H135807   3.307   0.299   7.074  0.1086  0.0089 -0.1724
 4724TIP3    H235808   3.321   0.338   7.220  0.1788 -0.4560 -0.0541
 4725TIP3   OH235809   6.816   4.179   7.688 -0.1329  0.5457  0.3303
 4725TIP3    H135810   6.779   4.096   7.658 -0.6431 -0.3678  3.1725
 4725TIP3    H235811   6.740   4.234   7.706  0.0230  0.3235  1.7974
 4726TIP3   OH235812   1.743   2.344   7.548  0.2706  0.2204 -0.1495
 4726TIP3    H135813   1.745   2.430   7.505  0.5903  1.1412  1.6124
 4726TIP3    H235814   1.797   2.355   7.626  0.0950 -1.5264  0.2583
 4727TIP3   OH235815   5.293   1.538   1.881 -0.1358 -0.1573  0.3637
 4727TIP3    H135816   5.328   1.488   1.955  0.3814  1.8755  1.5929
 4727TIP3    H235817   5.237   1.604   1.922  0.0618  0.9536 -1.0734
 4728TIP3   OH235818   5.969   4.987   8.217  0.3247 -0.2436  0.0475
 4728TIP3    H135819   5.970   5.019   8.127 -2.3361  0.0410  0.0406
 4728TIP3    H235820   6.029   4.912   8.217  1.1127  0.3439 -1.6852
 4729TIP3   OH235821   5.216   1.100   2.050 -0.5539 -0.2652 -0.3615
 4729TIP3    H135822   5.136   1.128   2.095 -0.1047  1.8259 -0.7733
 4729TIP3    H235823   5.203   1.006   2.035 -2.6370 -0.1097  0.1370
 4730TIP3   OH235824   0.067   3.077   0.127  0.5203 -0.4747  0.3568
 4730TIP3    H135825  -0.010   3.062   0.071  0.8613  0.5344 -0.4150
 4730TIP3    H235826   0.107   2.991   0.137 -0.4999 -0.9493  0.4527
 4731TIP3   OH235827   3.064   5.207   0.116 -0.2835  0.0638 -0.5270
 4731TIP3    H135828   3.009   5.264   0.062 -2.7392 -0.2208  1.4777
 4731TIP3    H235829   3.010   5.129   0.130  0.2638  0.1059  2.2235
 4732TIP3   OH235830   0.420   3.032   0.273  0.2365  0.1361 -0.0075
 4732TIP3    H135831   0.427   3.113   0.222 -0.2114  0.2533  0.1144
 4732TIP3    H235832   0.376   3.058   0.354 -0.1565 -0.2785 -0.0832
 4733TIP3   OH235833   6.360   1.212   2.380 -0.6106 -0.2126  0.1354
 4733TIP3    H135834   6.384   1.155   2.453 -0.5137 -1.1768 -0.6284
 4733TIP3    H235835   6.444   1.236   2.339 -0.5706  1.3499  1.0674
 4734TIP3   OH235836   4.119   5.899   1.783  0.1412  0.3115  0.3367
 4734TIP3    H135837   4.076   5.851   1.712  1.0687  1.4110 -1.0378
 4734TIP3    H235838   4.208   5.864   1.785  1.0436  2.2916 -1.1403
 4735TIP3   OH235839   1.173   2.627   0.665 -0.0940 -0.6508 -0.4178
 4735TIP3    H135840   1.102   2.566   0.682 -0.9675  0.0307 -1.5010
 4735TIP3    H235841   1.134   2.714   0.677  1.0519 -0.2716  0.8199
 4736TIP3   OH235842   2.815   0.632   7.251 -0.3104 -0.1015  0.5108
 4736TIP3    H135843   2.743   0.641   7.312 -1.1519  1.9590 -0.6702
 4736TIP3    H235844   2.890   0.673   7.295 -0.9784  1.6246  0.1310
 4737TIP3   OH235845   4.193   1.701   2.061 -0.7648  0.2817  0.3837
 4737TIP3    H135846   4.283   1.680   2.035 -0.8451  0.7882 -0.3025
 4737TIP3    H235847   4.201   1.728   2.153 -0.0517  1.4562 -0.0123
 4738TIP3   OH235848   5.956   3.373   2.529 -0.1466 -0.2031  0.3279
 4738TIP3    H135849   5.890   3.322   2.577 -0.6438 -0.5107 -0.6642
 4738TIP3    H235850   6.040   3.335   2.556 -0.4527 -0.7820  0.4793
 4739TIP3   OH235851   2.547   4.502   1.349 -0.3516  0.0948 -0.0533
 4739TIP3    H135852   2.483   4.456   1.296  0.9564 -3.7713  1.3737
 4739TIP3    H235853   2.495   4.562   1.403 -2.7162 -2.0822  0.2873
 4740TIP3   OH235854   4.984   1.106   1.083 -0.3529 -0.5772  0.4907
 4740TIP3    H135855   5.020   1.144   1.163 -0.6367  0.0988  0.3056
 4740TIP3    H235856   5.057   1.056   1.045 -0.0336 -0.3829  0.8426
 4741TIP3   OH235857   6.108   5.269   8.245  0.3958 -0.6436  0.1271
 4741TIP3    H135858   6.025   5.303   8.210  1.2176  1.1554 -0.2187
 4741TIP3    H235859   6.085   5.186   8.287 -1.6386 -0.0100  0.3670
 4742TIP3   OH235860   3.830   2.245   0.197  0.6269  0.2647  0.2371
 4742TIP3    H135861   3.863   2.156   0.182  1.3539  0.7015 -0.8609
 4742TIP3    H235862   3.899   2.302   0.164  0.0243  1.2416  0.6253
 4743TIP3   OH235863   5.412   3.163   7.434  0.0706  0.1960  0.2518
 4743TIP3    H135864   5.388   3.226   7.367  1.6465  2.6494  1.8250
 4743TIP3    H235865   5.475   3.105   7.392 -1.7492 -0.7337 -1.3576
 4744TIP3   OH235866   5.869   3.024   8.112 -0.4728  0.1171 -0.2733
 4744TIP3    H135867   5.830   3.066   8.189  0.4769  1.2679 -0.3844
 4744TIP3    H235868   5.882   2.933   8.138  1.0637  0.7729  1.4296
 4745TIP3   OH235869   1.738   0.221   2.251  0.0089  0.5011  0.3007
 4745TIP3    H135870   1.715   0.300   2.300  0.4544  0.5816  0.3834
 4745TIP3    H235871   1.677   0.154   2.283 -0.8805  0.9917 -0.3183
 4746TIP3   OH235872   6.489   2.229   1.995 -0.0647  1.4218 -0.1287
 4746TIP3    H135873   6.502   2.251   1.902  2.7319  0.3507 -0.0946
 4746TIP3    H235874   6.480   2.313   2.038  0.8520  2.0660 -1.1288
 4747TIP3   OH235875   4.098   2.974   1.059  0.0766  0.0368  0.2369
 4747TIP3    H135876   4.155   3.051   1.052  1.4805 -0.8918  1.0069
 4747TIP3    H235877   4.064   2.978   1.148  0.7549 -0.6236  0.5333
 4748TIP3   OH235878   3.763   3.603   2.140  0.0021 -0.1756  0.2203
 4748TIP3    H135879   3.853   3.589   2.171 -0.0707 -0.3216  0.3669
 4748TIP3    H235880   3.734   3.683   2.184  0.0949 -0.0743  0.0970
 4749TIP3   OH235881   0.880   0.696   1.112 -0.7555  0.0512  0.4082
 4749TIP3    H135882   0.813   0.672   1.047 -0.7699  1.4718 -0.1319
 4749TIP3    H235883   0.911   0.612   1.146 -1.9636 -0.6731 -0.1971
 4750TIP3   OH235884   2.903   3.481   7.597 -0.5624  0.2883 -0.0184
 4750TIP3    H135885   2.865   3.567   7.576 -0.0753  0.0910 -1.9474
 4750TIP3    H235886   2.998   3.494   7.587 -0.3935 -0.2070  0.8261
 4751TIP3   OH235887   2.154   0.019   1.736  0.2002 -0.0762 -0.1748
 4751TIP3    H135888   2.219  -0.031   1.686 -0.9201 -0.0446 -1.7493
 4751TIP3    H235889   2.199   0.042   1.817  2.0962 -0.1765 -1.1351
 4752TIP3   OH235890   5.198   1.687   1.291 -0.4957 -0.3671  0.2251
 4752TIP3    H135891   5.134   1.640   1.239  0.1971 -0.5216 -0.5084
 4752TIP3    H235892   5.237   1.620   1.347  1.7720 -1.1282 -2.0767
 4753TIP3   OH235893   6.536   4.262   8.006  0.4721  0.3299 -0.0879
 4753TIP3    H135894   6.601   4.211   8.054  0.2872  1.4399  1.3687
 4753TIP3    H235895   6.452   4.236   8.044  0.4109  2.0878  1.0844
 4754TIP3   OH235896   3.024   2.567   7.860  0.2688  0.1375  0.1958
 4754TIP3    H135897   2.929   2.566   7.850  0.2184  1.5816  0.3663
 4754TIP3    H235898   3.038   2.576   7.954  0.6279 -1.9045  0.3886
 4755TIP3   OH235899   1.503   5.653   2.137  0.4352 -0.3112 -0.3568
 4755TIP3    H135900   1.520   5.659   2.231  0.3512 -0.3353 -0.3400
 4755TIP3    H235901   1.419   5.607   2.131  0.6157 -0.6231 -0.4554
 4756TIP3   OH235902   2.150   4.170   7.724 -0.2463 -0.0839 -0.2526
 4756TIP3    H135903   2.240   4.201   7.719 -0.5404  0.6260 -2.1552
 4756TIP3    H235904   2.129   4.172   7.817  1.8051 -0.6251  0.2679
 4757TIP3   OH235905   2.861   6.375   0.273 -0.3402  0.4911  0.2029
 4757TIP3    H135906   2.814   6.375   0.189 -0.9597 -0.3762  0.5412
 4757TIP3    H235907   2.796   6.406   0.336 -0.1291  0.3319  0.4985
 4758TIP3   OH235908   3.178   5.007   1.368  0.0482  0.4656  0.0759
 4758TIP3    H135909   3.149   5.089   1.407 -2.4088 -0.5764  0.5952
 4758TIP3    H235910   3.191   4.948   1.442 -1.2252 -0.4857 -0.4148
 4759TIP3   OH235911   2.892   4.367   0.149  0.6370 -0.1610  0.2853
 4759TIP3    H135912   2.896   4.272   0.137 -0.7981 -0.3518  1.0513
 4759TIP3    H235913   2.955   4.386   0.219  0.5315 -0.6345  0.5108
 4760TIP3   OH235914   2.361   0.448   7.179  0.3808  0.1451 -0.1661
 4760TIP3    H135915   2.357   0.450   7.083 -0.5387 -0.0277 -0.1483
 4760TIP3    H235916   2.444   0.406   7.199  0.7454  0.5039 -0.8837
 4761TIP3   OH235917   4.552   5.015   1.044  0.7711 -0.0619  0.6183
 4761TIP3    H135918   4.557   5.097   1.094  0.5759 -0.5044  1.3908
 4761TIP3    H235919   4.497   5.036   0.969  1.6869  0.8207  0.1798
 4762TIP3   OH235920   2.334   2.482   8.065 -0.7808 -0.0951  0.0333
 4762TIP3    H135921   2.377   2.555   8.020  0.5217 -1.2438 -0.6755
 4762TIP3    H235922   2.341   2.409   8.004 -1.1610 -1.0664  1.1198
 4763TIP3   OH235923   0.967   4.895   7.747  0.2971 -0.2848 -0.1376
 4763TIP3    H135924   0.910   4.820   7.730  0.7123 -0.5586 -0.3469
 4763TIP3    H235925   0.954   4.915   7.839  0.4690 -0.8574  0.0154
 4764TIP3   OH235926   0.067   5.377   6.816  1.0691  0.2408 -0.4024
 4764TIP3    H135927  -0.022   5.413   6.821  0.9986 -0.0537  0.6298
 4764TIP3    H235928   0.113   5.434   6.755  0.1022  0.2512 -1.1371
 4765TIP3   OH235929   5.201   2.309   8.201 -0.2073 -0.0864 -0.2850
 4765TIP3    H135930   5.185   2.265   8.285 -3.6208 -0.8784 -1.1967
 4765TIP3    H235931   5.226   2.398   8.225 -0.1128 -0.5796  1.5758
 4766TIP3   OH235932   1.872   5.103   2.785  0.2950 -0.3268  0.1532
 4766TIP3    H135933   1.811   5.030   2.774  2.4420 -2.1816 -0.3723
 4766TIP3    H235934   1.918   5.083   2.866  3.2041 -1.5097 -1.6076
 4767TIP3   OH235935   6.044   4.363   2.501 -0.2202  0.1448  0.0411
 4767TIP3    H135936   5.984   4.306   2.549 -0.1474  0.1619  0.1534
 4767TIP3    H235937   6.100   4.303   2.452 -1.4678  0.1520 -1.4771
 4768TIP3   OH235938   3.310   0.858   1.294 -0.1094 -0.3621 -0.0697
 4768TIP3    H135939   3.226   0.898   1.273  0.1565 -0.8749 -2.3773
 4768TIP3    H235940   3.293   0.805   1.372 -1.4089  1.0600  0.6647
 4769TIP3   OH235941   6.598   3.181   1.320  0.1076 -0.5497  0.1831
 4769TIP3    H135942   6.535   3.247   1.288  0.4657 -1.1084 -1.8465
 4769TIP3    H235943   6.566   3.099   1.284  0.7780 -1.1840  1.0084
 4770TIP3   OH235944   1.031   5.905   1.457 -0.2651  0.2168 -0.9515
 4770TIP3    H135945   0.980   5.848   1.399 -1.4626  0.4204 -0.1376
 4770TIP3    H235946   1.055   5.849   1.531 -0.1501  0.3684 -0.8737
 4771TIP3   OH235947   3.532   6.913   1.244  0.6735  0.2785  0.7344
 4771TIP3    H135948   3.545   6.992   1.191 -1.0391  0.8853  1.1491
 4771TIP3    H235949   3.569   6.934   1.329  0.3722  0.5685  0.7926
 4772TIP3   OH235950   5.473   5.808   1.521 -0.1114  0.4650  0.0445
 4772TIP3    H135951   5.532   5.771   1.586  0.8456  0.1503 -0.9750
 4772TIP3    H235952   5.508   5.895   1.504 -0.7291  0.7908  0.3955
 4773TIP3   OH235953   0.980   2.555   1.663 -0.5871 -0.3042 -0.1160
 4773TIP3    H135954   1.025   2.554   1.578 -2.2971  0.0132 -1.0709
 4773TIP3    H235955   0.977   2.463   1.690  1.1356 -0.2800  0.2873
 4774TIP3   OH235956   2.947   1.837   7.470  0.4852  0.0152  0.1053
 4774TIP3    H135957   2.864   1.795   7.494 -0.1872  0.7620 -0.8412
 4774TIP3    H235958   2.963   1.808   7.381  0.5694  0.9075 -0.1751
 4775TIP3   OH235959   5.768   1.450   2.300 -0.4802  0.0162  0.0759
 4775TIP3    H135960   5.709   1.521   2.276 -0.3136 -0.3163 -1.4630
 4775TIP3    H235961   5.710   1.379   2.326 -0.7724 -0.1334 -0.9250
 4776TIP3   OH235962   6.012   4.394   1.311 -0.1075  0.0133  0.2487
 4776TIP3    H135963   6.072   4.402   1.237 -1.1057  0.6766 -0.5198
 4776TIP3    H235964   6.069   4.393   1.388  0.9353 -0.4123 -0.5019
 4777TIP3   OH235965   2.199   2.634   2.360  0.0805 -0.1891 -0.7980
 4777TIP3    H135966   2.252   2.626   2.439 -0.5905 -1.7406 -0.4571
 4777TIP3    H235967   2.116   2.671   2.390  0.4776  0.9920 -1.1110
 4778TIP3   OH235968   5.209   4.635   1.594 -0.2924 -0.5050 -0.0702
 4778TIP3    H135969   5.246   4.601   1.512 -1.0398  0.6901 -0.9492
 4778TIP3    H235970   5.163   4.714   1.567 -1.4833 -0.6856  1.3544
 4779TIP3   OH235971   3.922   5.530   0.023 -0.2685 -0.0158 -0.1057
 4779TIP3    H135972   4.008   5.501   0.054 -0.5873 -0.2251  0.6095
 4779TIP3    H235973   3.902   5.607   0.077  0.2632  1.1518 -1.5134
 4780TIP3   OH235974   2.895   6.184   1.011 -0.3084  1.1064  0.3133
 4780TIP3    H135975   2.861   6.231   1.088 -1.6560  1.4659 -0.4761
 4780TIP3    H235976   2.839   6.107   1.003  0.4340  0.5579  0.2229
 4781TIP3   OH235977   5.054   3.941   1.073  0.2629 -0.1170  0.1470
 4781TIP3    H135978   4.988   3.925   1.005  1.0674 -2.3974 -0.1753
 4781TIP3    H235979   5.010   3.917   1.154  0.3943 -0.7196  0.0405
 4782TIP3   OH235980   3.817   2.831   2.500 -0.0153  0.3612 -0.3630
 4782TIP3    H135981   3.821   2.788   2.415  0.5652 -0.7772  0.2048
 4782TIP3    H235982   3.752   2.900   2.490  0.1671  0.3428 -1.7650
 4783TIP3   OH235983   5.400   5.919   0.109  0.0950  0.3503  0.1993
 4783TIP3    H135984   5.374   5.859   0.039  1.0424 -0.5483  0.5873
 4783TIP3    H235985   5.410   6.004   0.066 -1.0430  0.1888 -0.4087
 4784TIP3   OH235986   5.924   0.675   2.565  0.6059  0.0329  0.6279
 4784TIP3    H135987   5.841   0.628   2.572  0.7044 -0.0595  1.2639
 4784TIP3    H235988   5.972   0.630   2.496  0.5271 -0.5447  0.9430
 4785TIP3   OH235989   1.495   3.819   0.218 -0.4671 -0.3281 -0.1935
 4785TIP3    H135990   1.423   3.858   0.168 -0.3361 -1.0761 -0.9919
 4785TIP3    H235991   1.452   3.770   0.288 -0.7065 -0.1798 -0.2341
 4786TIP3   OH235992   1.804   0.579   2.826  0.8142 -0.2978  0.0985
 4786TIP3    H135993   1.806   0.672   2.849  0.7418 -0.7042  1.9316
 4786TIP3    H235994   1.852   0.536   2.897 -0.5644 -1.8185  0.1717
 4787TIP3   OH235995   6.422   3.839   7.806 -0.0751 -0.1590  0.2214
 4787TIP3    H135996   6.494   3.775   7.805 -0.1878 -0.2965  0.7876
 4787TIP3    H235997   6.363   3.810   7.737 -1.4009 -2.1420  2.0806
 4788TIP3   OH235998   0.149   3.290   2.559 -0.6573 -0.1123 -0.1936
 4788TIP3    H135999   0.084   3.312   2.492 -1.1042  0.8653  0.5427
 4788TIP3    H236000   0.219   3.246   2.511 -1.0903  0.3386 -1.2650
 4789TIP3   OH236001   3.134   3.420   2.314 -0.1641 -0.0051 -0.2820
 4789TIP3    H136002   3.045   3.453   2.318 -0.0529  0.1304  1.6788
 4789TIP3    H236003   3.139   3.352   2.380  0.9010 -0.7936 -1.1233
 4790TIP3   OH236004   1.084   3.441   7.589  0.0314  0.5902 -0.3234
 4790TIP3    H136005   1.081   3.490   7.507 -1.3617 -1.1527 -1.3816
 4790TIP3    H236006   1.145   3.369   7.572 -1.0961 -0.4181 -0.2512
 4791TIP3   OH236007   1.522   3.585   0.652 -0.0629  0.4356 -0.2285
 4791TIP3    H136008   1.448   3.539   0.690 -0.0007  0.1497 -0.4425
 4791TIP3    H236009   1.597   3.527   0.666  0.6397  1.8137  2.2286
 4792TIP3   OH236010   4.597   2.016   0.756 -0.1115 -0.3833 -0.0306
 4792TIP3    H136011   4.680   2.037   0.800 -0.4630 -0.7761  0.8377
 4792TIP3    H236012   4.541   2.091   0.774  0.0650 -0.0801 -0.6874
 4793TIP3   OH236013   5.318   2.714   8.119 -0.1246  0.5522  0.2343
 4793TIP3    H136014   5.279   2.801   8.111  1.7796  1.5899  1.5524
 4793TIP3    H236015   5.392   2.726   8.178  1.1966 -1.6519 -0.8458
 4794TIP3   OH236016   4.609   6.383   0.955 -0.4092 -0.6127  0.5571
 4794TIP3    H136017   4.683   6.359   0.899  0.9450  0.6406  1.7271
 4794TIP3    H236018   4.628   6.344   1.040  0.5082  2.1615  1.7287
 4795TIP3   OH236019   5.383   4.316   0.225  0.2328 -0.4881  0.2378
 4795TIP3    H136020   5.355   4.345   0.311 -1.0920  1.2478 -0.7212
 4795TIP3    H236021   5.307   4.269   0.189 -0.3659  1.3778 -1.0918
 4796TIP3   OH236022   4.003   1.611   6.509 -0.2656 -0.0247  0.2438
 4796TIP3    H136023   4.023   1.702   6.532 -0.0724 -0.1005  0.3834
 4796TIP3    H236024   3.936   1.617   6.442 -0.2018  0.2240  0.2017
 4797TIP3   OH236025   0.963   2.483   2.044 -0.3058 -0.0878 -0.6581
 4797TIP3    H136026   1.028   2.423   2.081 -1.1683 -1.5398 -1.3844
 4797TIP3    H236027   1.004   2.516   1.964 -0.3058 -0.7285 -0.9308
 4798TIP3   OH236028   1.201   1.938   7.441  0.2285 -0.6446 -0.5407
 4798TIP3    H136029   1.184   1.931   7.347 -1.1488  0.0437 -0.3661
 4798TIP3    H236030   1.162   1.859   7.478 -1.5045  0.2819 -0.2939
 4799TIP3   OH236031   4.006   2.929   1.318 -0.7376  0.3827 -0.5892
 4799TIP3    H136032   4.002   2.834   1.319 -2.9799  0.4249 -0.3464
 4799TIP3    H236033   4.047   2.953   1.401 -1.9777 -0.3602  0.2664
 4800TIP3   OH236034   1.938   5.941   1.211 -0.2243 -0.5996  0.0671
 4800TIP3    H136035   2.019   5.891   1.227 -0.1688 -0.1803  1.2445
 4800TIP3    H236036   1.963   6.032   1.225 -1.0444 -0.5186  1.1622
 4801TIP3   OH236037   6.918   0.390   8.159  0.1864 -0.1813 -0.1213
 4801TIP3    H136038   6.848   0.442   8.198  1.7202  1.9944 -0.0951
 4801TIP3    H236039   6.922   0.310   8.212 -0.2191  1.0536  1.8472
 4802TIP3   OH236040   5.897   4.465   8.263  0.0056 -0.7275  0.2600
 4802TIP3    H136041   5.856   4.379   8.271  1.9400 -2.1202 -2.7507
 4802TIP3    H236042   5.991   4.446   8.263  0.4711  1.0487 -2.7607
 4803TIP3   OH236043   1.284   5.659   0.784  0.2038 -0.1598 -0.6604
 4803TIP3    H136044   1.342   5.606   0.728 -1.6520 -1.9529 -0.9982
 4803TIP3    H236045   1.270   5.739   0.734 -0.2306 -1.1080 -2.1172
 4804TIP3   OH236046   2.187   3.429   8.141 -0.4205 -0.1599  0.2932
 4804TIP3    H136047   2.098   3.466   8.143 -0.4009 -0.0468 -0.4793
 4804TIP3    H236048   2.193   3.387   8.055  0.3771  0.0890  0.2212
 4805TIP3   OH236049   2.452   0.775   7.867 -0.1628 -0.0340  0.5197
 4805TIP3    H136050   2.469   0.705   7.803 -0.0324  0.0179  0.4976
 4805TIP3    H236051   2.479   0.855   7.823  2.3737 -0.2339  1.5314
 4806TIP3   OH236052   0.499   2.777   2.003  0.5829 -0.1040  0.3507
 4806TIP3    H136053   0.425   2.830   2.032  2.2527  2.8141 -0.3739
 4806TIP3    H236054   0.523   2.725   2.080 -1.9646 -0.9025  0.6776
 4807TIP3   OH236055   4.136   4.687   7.536 -0.0166 -0.8159 -0.1182
 4807TIP3    H136056   4.214   4.717   7.583  0.2629 -1.2322 -0.3115
 4807TIP3    H236057   4.097   4.622   7.594 -1.4125  0.8717  0.9573
 4808TIP3   OH236058   5.135   4.014   7.971 -0.0701  0.8263  0.1862
 4808TIP3    H136059   5.063   4.051   8.022 -0.2720 -1.0034  1.3220
 4808TIP3    H236060   5.153   4.080   7.903 -3.2953  1.0440 -0.6227
 4809TIP3   OH236061   0.727   0.517   7.059  0.5234  0.0061  0.5313
 4809TIP3    H136062   0.703   0.465   6.983 -0.4289 -0.0018  0.8173
 4809TIP3    H236063   0.810   0.558   7.036 -1.1551  2.4817 -1.8242
 4810TIP3   OH236064   2.337   3.118   0.400  0.4306  0.1258 -0.2973
 4810TIP3    H136065   2.348   3.211   0.420 -1.4474  0.2385  0.3927
 4810TIP3    H236066   2.362   3.073   0.481  0.4556  0.0786 -0.3311
 4811TIP3   OH236067   5.259   4.381   7.642  0.4918 -0.3351  0.4014
 4811TIP3    H136068   5.306   4.438   7.703  1.3564 -1.2177  0.5662
 4811TIP3    H236069   5.254   4.297   7.686  0.0911 -0.6704 -0.2686
 4812TIP3   OH236070   1.730   3.408   1.995 -0.0274  1.1183 -0.1211
 4812TIP3    H136071   1.686   3.493   1.992  0.9549  1.6555  0.4074
 4812TIP3    H236072   1.718   3.377   2.085 -0.1003  0.8366 -0.2235
 4813TIP3   OH236073   0.000   0.766   2.196  0.6837  1.0097 -0.3777
 4813TIP3    H136074   0.061   0.829   2.158  0.5239  1.4891  0.1509
 4813TIP3    H236075  -0.039   0.721   2.121 -0.5516  2.7924 -0.8395
 4814TIP3   OH236076   0.500   2.819   1.582  0.1399  0.2032 -0.5730
 4814TIP3    H136077   0.547   2.892   1.623 -0.9497  0.7303 -0.2295
 4814TIP3    H236078   0.563   2.781   1.521  2.5638 -1.8225  2.8591
 4815TIP3   OH236079   0.568   3.774   1.262 -0.3979  0.6870  0.6144
 4815TIP3    H136080   0.594   3.840   1.197 -0.0392  0.1830  0.2375
 4815TIP3    H236081   0.598   3.809   1.345  0.2677  0.7500  0.3495
 4816TIP3   OH236082   1.851   2.342   1.121  0.2304  0.4380 -0.3342
 4816TIP3    H136083   1.844   2.251   1.153  1.1134 -0.1780 -1.7993
 4816TIP3    H236084   1.945   2.356   1.108  0.1478  1.7582  0.3708
 4817TIP3   OH236085   0.802   0.133   7.457  0.2872 -0.4853 -0.2578
 4817TIP3    H136086   0.726   0.080   7.482  1.2671 -2.9265 -2.0696
 4817TIP3    H236087   0.768   0.194   7.392 -0.3506 -0.6385 -0.0766
 4818TIP3   OH236088   1.534   6.379   8.298  0.3017 -0.2692  0.0891
 4818TIP3    H136089   1.451   6.426   8.303  0.4689  0.2063 -1.2511
 4818TIP3    H236090   1.540   6.350   8.207  0.6713 -2.0606  0.6454
 4819TIP3   OH236091   6.347   3.668   2.057  0.0873  0.5744  0.1257
 4819TIP3    H136092   6.328   3.583   2.017  1.0024  0.5713 -0.3186
 4819TIP3    H236093   6.408   3.710   1.997 -1.0118  1.9170 -0.1036
 4820TIP3   OH236094   4.751   1.485   8.150  0.1979  0.5882  0.4325
 4820TIP3    H136095   4.706   1.534   8.218 -0.3148 -0.3552  0.8036
 4820TIP3    H236096   4.835   1.462   8.189 -0.0966  0.0447  0.7647
 4821TIP3   OH236097   0.493   5.448   1.815 -0.6857  0.1485  0.2253
 4821TIP3    H136098   0.543   5.454   1.897  0.2913 -0.6149 -0.2989
 4821TIP3    H236099   0.423   5.512   1.826 -0.4139  0.2632  1.5494
 4822TIP3   OH236100   6.149   6.599   8.352 -0.1622 -0.2530  0.4747
 4822TIP3    H136101   6.139   6.693   8.367 -0.7646  0.1163 -1.9013
 4822TIP3    H236102   6.235   6.577   8.390  0.6539  1.5657 -0.2384
 4823TIP3   OH236103   4.870   6.589   8.261 -0.0934  0.6699 -0.2477
 4823TIP3    H136104   4.828   6.530   8.324  0.5575  2.0307  1.5438
 4823TIP3    H236105   4.821   6.575   8.179 -2.0459 -0.0049  0.9518
 4824TIP3   OH236106   1.483   6.604   7.737  0.0453  0.0734 -0.5278
 4824TIP3    H136107   1.462   6.676   7.678  0.3041 -0.1314 -0.8705
 4824TIP3    H236108   1.506   6.531   7.679 -3.4559 -1.3689 -0.3539
 4825TIP3   OH236109   5.070   4.752   2.123 -0.3328  0.5907 -0.3471
 4825TIP3    H136110   5.138   4.716   2.065  0.1140  0.8745 -0.0101
 4825TIP3    H236111   5.111   4.830   2.162 -0.3290 -0.0367  0.9619
 4826TIP3   OH236112   3.085   6.609   1.312 -0.3628  0.2039 -0.6333
 4826TIP3    H136113   3.024   6.541   1.284 -0.0349 -1.2814  1.9391
 4826TIP3    H236114   3.153   6.561   1.359  0.3566  2.2415  0.4921
 4827TIP3   OH236115   4.997   3.171   1.986 -0.1940 -0.0688 -0.2202
 4827TIP3    H136116   4.937   3.178   1.911 -0.5397 -1.1535 -0.0668
 4827TIP3    H236117   5.066   3.112   1.955 -0.9111 -1.4164  0.6394
 4828TIP3   OH236118   5.034   0.299   7.388  0.2748 -0.0176 -0.3153
 4828TIP3    H136119   5.057   0.329   7.476 -2.9486 -0.5606  0.8486
 4828TIP3    H236120   5.052   0.205   7.390  3.1160  0.3951 -1.3978
 4829TIP3   OH236121   6.706   3.697   0.399 -0.2393 -0.3517  0.1981
 4829TIP3    H136122   6.769   3.707   0.470  2.2900  0.2659 -1.9634
 4829TIP3    H236123   6.738   3.755   0.330 -2.0966 -1.4930 -1.7572
 4830TIP3   OH236124   6.748   4.125   8.190  0.2632  0.1045  0.1158
 4830TIP3    H136125   6.828   4.085   8.224 -0.1321 -0.6358  0.2057
 4830TIP3    H236126   6.702   4.053   8.147 -0.1199  0.6331 -0.3737
 4831TIP3   OH236127   4.688   6.155   8.436 -0.1276 -0.4877  0.5694
 4831TIP3    H136128   4.726   6.239   8.411  0.1058 -0.3912  1.2279
 4831TIP3    H236129   4.622   6.137   8.369  1.5773 -1.0127 -1.0647
 4832TIP3   OH236130   5.484   6.768   0.168 -0.4641  0.4323  1.0217
 4832TIP3    H136131   5.415   6.826   0.137 -0.2920 -0.0699 -0.3668
 4832TIP3    H236132   5.564   6.822   0.165 -0.5585  0.5836  1.2369
 4833TIP3   OH236133   0.247   3.430   0.705  0.0210  0.7006 -0.0172
 4833TIP3    H136134   0.223   3.425   0.798  1.6931 -0.6517  0.3982
 4833TIP3    H236135   0.166   3.452   0.660 -1.2231 -0.3241  1.6114
 4834TIP3   OH236136   3.631   6.852   7.372  0.1203 -0.5754  0.1921
 4834TIP3    H136137   3.725   6.838   7.358  0.4218  2.1086 -1.0195
 4834TIP3    H236138   3.588   6.790   7.314  1.1200 -1.7325  0.6501
 4835TIP3   OH236139   6.085   3.586   7.985  0.2784 -0.0008  0.3458
 4835TIP3    H136140   6.027   3.554   7.915 -1.9223 -1.5167  2.6821
 4835TIP3    H236141   6.155   3.521   7.990 -0.1014 -0.4282  0.1867
 4836TIP3   OH236142   1.356   0.917   8.252  0.3192  0.1777 -0.2479
 4836TIP3    H136143   1.313   0.990   8.297  2.6052  0.8185  1.0707
 4836TIP3    H236144   1.349   0.844   8.314  2.2733  0.6830  0.6355
 4837TIP3   OH236145   2.606   2.349   7.334  0.2933 -0.3678  0.0176
 4837TIP3    H136146   2.649   2.272   7.369  0.6602  0.0915  0.5862
 4837TIP3    H236147   2.531   2.314   7.285  0.7256 -1.1037 -0.1303
 4838TIP3   OH236148   0.822   2.736   7.844 -0.0890  0.3102  0.9798
 4838TIP3    H136149   0.759   2.808   7.839  0.1999  0.5267  0.1297
 4838TIP3    H236150   0.869   2.740   7.760 -0.1583 -0.9531  0.8578
 4839TIP3   OH236151   5.816   6.260   1.469 -0.0506 -0.3043 -0.0419
 4839TIP3    H136152   5.828   6.326   1.538 -0.8375  0.7884 -0.9172
 4839TIP3    H236153   5.819   6.310   1.388  1.9229 -1.6959 -0.9037
 4840TIP3   OH236154   6.841   4.345   7.383  0.5748  0.0802  0.4067
 4840TIP3    H136155   6.910   4.298   7.336 -0.3832  0.5152 -1.5151
 4840TIP3    H236156   6.835   4.430   7.339 -3.5067 -1.1572 -1.9328
 4841TIP3   OH236157   2.691   0.162   2.012 -0.3329 -0.2194  0.1749
 4841TIP3    H136158   2.708   0.250   1.977  0.2414  0.3863  1.8828
 4841TIP3    H236159   2.613   0.172   2.067  0.4988 -0.4570  1.4334
 4842TIP3   OH236160   1.045   6.816   7.171 -0.0031  0.5523  0.4385
 4842TIP3    H136161   1.109   6.806   7.241 -1.1876 -2.5451  1.2498
 4842TIP3    H236162   0.961   6.826   7.217 -0.3353  2.9997 -0.5929
 4843TIP3   OH236163   4.032   1.388   6.676 -0.1340  0.0307  0.0769
 4843TIP3    H136164   4.083   1.447   6.731 -0.7113  1.4560 -0.8471
 4843TIP3    H236165   4.024   1.435   6.593  0.0057 -1.6899 -0.9475
 4844TIP3   OH236166   4.522   3.316   2.102 -0.0700 -0.1789  0.3873
 4844TIP3    H136167   4.460   3.389   2.093 -1.5139 -1.5019 -1.0664
 4844TIP3    H236168   4.559   3.305   2.014 -0.0443 -1.3074  0.5225
 4845TIP3   OH236169   1.030   5.736   0.116  0.3283 -0.3141  0.0644
 4845TIP3    H136170   1.084   5.807   0.084  1.0177 -0.9576 -0.2249
 4845TIP3    H236171   1.034   5.743   0.211  1.1542 -0.5288  0.0490
 4846TIP3   OH236172   6.541   5.339   1.026  0.0421 -0.1259 -0.1807
 4846TIP3    H136173   6.535   5.367   0.934  0.1629 -1.8041 -0.7312
 4846TIP3    H236174   6.629   5.364   1.053  0.0041  0.3865 -0.5161
 4847TIP3   OH236175   5.980   6.710   1.759  0.4248  0.0695  0.7153
 4847TIP3    H136176   5.935   6.770   1.818 -2.2235 -0.5506 -0.5553
 4847TIP3    H236177   5.995   6.761   1.679  1.0868 -0.0472  0.7543
 4848TIP3   OH236178   0.138   1.162   8.056  0.2100  0.8987  0.3327
 4848TIP3    H136179   0.049   1.181   8.086  0.6012  1.6021  1.0999
 4848TIP3    H236180   0.142   1.067   8.052 -0.5658  0.8611  0.3228
 4849TIP3   OH236181   0.202   0.046   2.920 -0.3222  0.1283  0.5494
 4849TIP3    H136182   0.121   0.081   2.882  0.6508  0.0771 -1.6957
 4849TIP3    H236183   0.270   0.109   2.895  1.0610 -2.0277 -1.5174
 4850TIP3   OH236184   1.382   1.302   1.059  0.2688 -0.1064 -0.3354
 4850TIP3    H136185   1.305   1.321   1.112  1.1373 -0.0616  0.9453
 4850TIP3    H236186   1.417   1.220   1.096  1.1591  0.1807 -0.5156
 4851TIP3   OH236187   3.584   2.726   0.941  0.3313 -0.3798 -0.1470
 4851TIP3    H136188   3.527   2.656   0.911  0.3613 -0.6387  0.3931
 4851TIP3    H236189   3.628   2.757   0.861 -1.6442  0.8415 -0.8313
 4852TIP3   OH236190   1.942   1.806   6.135 -0.1434  0.1101 -0.6244
 4852TIP3    H136191   1.956   1.728   6.189  1.4138  1.8285  1.6092
 4852TIP3    H236192   1.847   1.811   6.125 -0.2888 -2.0742 -0.9233
 4853TIP3   OH236193   0.044   5.774   1.799 -0.6215  0.7085  0.4662
 4853TIP3    H136194  -0.050   5.761   1.813 -0.3970 -1.2099  0.5556
 4853TIP3    H236195   0.083   5.755   1.885 -0.1531  1.7352  0.4915
 4854TIP3   OH236196   4.747   3.819   1.126 -0.2989  0.3076  0.5548
 4854TIP3    H136197   4.713   3.906   1.107  0.1575  0.6499  1.2899
 4854TIP3    H236198   4.757   3.816   1.221 -0.6782 -0.6890  0.5834
 4855TIP3   OH236199   2.368   1.639   6.738 -0.3430 -0.3021  0.0023
 4855TIP3    H136200   2.275   1.615   6.731 -1.6449  3.8335  0.3108
 4855TIP3    H236201   2.397   1.648   6.647 -0.7086 -0.1958 -0.1065
 4856TIP3   OH236202   0.518   2.528   7.153  0.0436  0.6022 -0.3326
 4856TIP3    H136203   0.484   2.575   7.078  1.2173  1.2381 -0.4966
 4856TIP3    H236204   0.511   2.436   7.128 -1.8680  0.6742 -0.1836
 4857TIP3   OH236205   4.340   4.909   0.428  0.1814 -1.1235  0.0700
 4857TIP3    H136206   4.421   4.906   0.378  2.5163  0.4670  3.4390
 4857TIP3    H236207   4.305   4.997   0.414  1.2761 -0.3847  1.7146
 4858TIP3   OH236208   6.119   1.450   0.994 -0.2628 -0.3411  0.0412
 4858TIP3    H136209   6.049   1.397   0.956 -0.8861 -0.4616  1.2825
 4858TIP3    H236210   6.096   1.456   1.087  0.2964  1.3278  0.1066
 4859TIP3   OH236211   3.231   0.188   6.876 -1.0835  0.2181 -0.6465
 4859TIP3    H136212   3.245   0.137   6.796 -0.9114 -1.1461  0.2171
 4859TIP3    H236213   3.162   0.141   6.923  0.6614 -0.6207  1.2599
 4860TIP3   OH236214   0.883   4.223   8.396  0.1887 -0.1949 -0.4389
 4860TIP3    H136215   0.872   4.130   8.417 -0.0440  0.0288  0.4919
 4860TIP3    H236216   0.950   4.224   8.328  1.9803 -0.9119  1.2067
 4861TIP3   OH236217   1.127   3.483   2.515 -0.8666  0.5984  0.0871
 4861TIP3    H136218   1.065   3.432   2.568 -1.9943  1.8413  0.0372
 4861TIP3    H236219   1.111   3.574   2.541  2.5002  0.8807  1.6920
 4862TIP3   OH236220   0.842   6.743   3.024  0.0641  0.2129 -0.1137
 4862TIP3    H136221   0.768   6.781   3.070  1.7318  0.5645  2.4731
 4862TIP3    H236222   0.857   6.659   3.068 -0.1116 -0.9107 -2.0703
 4863TIP3   OH236223   4.024   2.747   7.601 -0.3873 -0.1462  0.0414
 4863TIP3    H136224   4.012   2.765   7.694  0.3050  1.4158 -0.1389
 4863TIP3    H236225   3.936   2.731   7.568 -0.6599 -0.5203  0.9055
 4864TIP3   OH236226   1.489   5.387   8.429  0.6719 -0.4653 -0.2686
 4864TIP3    H136227   1.443   5.469   8.412 -2.6470 -2.2009 -0.6109
 4864TIP3    H236228   1.547   5.407   8.502 -2.3580  1.5323  1.8560
 4865TIP3   OH236229   2.653   5.705   0.743  0.2526 -0.3580 -0.0794
 4865TIP3    H136230   2.563   5.694   0.771  0.4078 -2.1761 -0.1470
 4865TIP3    H236231   2.699   5.738   0.820 -0.5842  1.3488 -0.2731
 4866TIP3   OH236232   4.632   0.449   1.761 -0.6508  0.2373 -0.3750
 4866TIP3    H136233   4.704   0.484   1.708 -0.0554  1.6444  1.2682
 4866TIP3    H236234   4.561   0.512   1.750 -1.2131 -0.4774 -0.9752
 4867TIP3   OH236235   3.408   1.912   7.770  0.6961  0.5019 -0.4198
 4867TIP3    H136236   3.369   1.854   7.704 -1.0205 -0.4697  1.3134
 4867TIP3    H236237   3.492   1.871   7.791 -0.1095 -0.9495  0.1498
 4868TIP3   OH236238   3.072   4.077   1.733 -0.4233  0.2407 -0.5422
 4868TIP3    H136239   3.018   4.104   1.807 -2.7699 -0.9296 -1.7167
 4868TIP3    H236240   3.055   3.983   1.724  0.8335  0.0988 -1.7546
 4869TIP3   OH236241   1.889   3.535   7.122 -0.0997 -0.0078  0.6272
 4869TIP3    H136242   1.889   3.607   7.058 -1.0006  0.1289  0.7649
 4869TIP3    H236243   1.956   3.559   7.186  1.9935 -0.9225 -1.0880
 4870TIP3   OH236244   4.445   1.805   8.110 -0.4133  0.3222  0.2542
 4870TIP3    H136245   4.436   1.899   8.125  1.6395  0.3681  1.4940
 4870TIP3    H236246   4.363   1.768   8.142 -0.3857  1.5060  1.8192
 4871TIP3   OH236247   4.266   2.690   1.879 -0.1773 -0.2117 -0.3510
 4871TIP3    H136248   4.353   2.730   1.874 -0.0451 -0.5306 -0.6881
 4871TIP3    H236249   4.254   2.648   1.793 -0.6380 -0.2201 -0.2849
 4872TIP3   OH236250   3.016   0.090   7.012 -0.0327  0.3433 -0.4226
 4872TIP3    H136251   2.984   0.003   7.034  2.1211  0.1869  2.7145
 4872TIP3    H236252   2.970   0.149   7.071  2.3861  0.5697  1.3601
 4873TIP3   OH236253   0.746   2.382   0.479 -0.1590 -0.8404  0.7189
 4873TIP3    H136254   0.656   2.351   0.465 -0.2783 -0.0501 -0.3818
 4873TIP3    H236255   0.753   2.460   0.424  1.4796 -1.3856  0.0879
 4874TIP3   OH236256   4.092   1.803   1.018 -0.0587  0.5037  0.0370
 4874TIP3    H136257   4.184   1.792   0.993 -0.1830 -0.7968  0.0705
 4874TIP3    H236258   4.089   1.887   1.064  1.6157 -0.5939  2.3532
 4875TIP3   OH236259   5.010   5.581   2.354  0.0227 -0.2686  0.1221
 4875TIP3    H136260   4.943   5.551   2.415 -1.1754  0.9522 -0.5243
 4875TIP3    H236261   5.036   5.503   2.306 -0.4752 -0.8780  0.8296
 4876TIP3   OH236262   2.723   2.145   1.086  0.2802  0.4133 -0.0047
 4876TIP3    H136263   2.709   2.065   1.036 -0.7908  1.2057 -1.0261
 4876TIP3    H236264   2.785   2.196   1.035  1.4948 -0.0256  0.9840
 4877TIP3   OH236265   5.965   4.165   2.017  0.0527 -0.0272  0.0040
 4877TIP3    H136266   5.977   4.072   1.999 -2.0088 -0.3593  0.1018
 4877TIP3    H236267   5.952   4.170   2.112 -0.5082  0.2561 -0.0795
 4878TIP3   OH236268   0.742   6.099   7.699 -0.4211  0.1289  0.3592
 4878TIP3    H136269   0.672   6.041   7.668 -1.0861  0.8813  0.4129
 4878TIP3    H236270   0.822   6.059   7.666 -0.8577 -0.8493  0.4447
 4879TIP3   OH236271   3.724   3.514   1.330 -0.3978  0.3249  0.1194
 4879TIP3    H136272   3.712   3.426   1.367 -0.8294  0.4289  0.2245
 4879TIP3    H236273   3.760   3.498   1.243  1.3503  0.0881  0.8273
 4880TIP3   OH236274   6.739   5.363   2.262 -0.0111  0.2454  0.2587
 4880TIP3    H136275   6.759   5.278   2.302 -1.6869 -0.6004 -0.5751
 4880TIP3    H236276   6.646   5.377   2.282  0.0301  1.4855 -0.3363
 4881TIP3   OH236277   1.388   3.701   7.978 -0.3194  0.2944 -0.6503
 4881TIP3    H136278   1.383   3.785   8.023  0.2303  1.2860 -2.3492
 4881TIP3    H236279   1.388   3.636   8.048 -1.4769  1.6616  0.6849
 4882TIP3   OH236280   3.679   6.696   8.021 -0.1703  0.2639  0.6631
 4882TIP3    H136281   3.730   6.766   7.980 -0.1811 -0.4496 -0.6512
 4882TIP3    H236282   3.588   6.716   7.997 -0.1777 -0.1647  0.3276
 4883TIP3   OH236283   4.078   1.936   8.145 -0.5372  0.1374 -0.0454
 4883TIP3    H136284   4.025   1.930   8.066 -1.7670 -0.0606  0.7731
 4883TIP3    H236285   4.077   2.028   8.168 -1.5182 -0.0324  0.6212
 4884TIP3   OH236286   6.273   6.903   0.091  0.2078 -0.4758  0.2869
 4884TIP3    H136287   6.245   6.900  -0.000  1.0899 -0.1300 -0.0034
 4884TIP3    H236288   6.317   6.819   0.105  1.0555 -0.0794  0.0595
 4885TIP3   OH236289   1.717   4.571   7.429  0.0147 -0.7252  0.1930
 4885TIP3    H136290   1.707   4.630   7.354  1.4669  0.8316  1.1351
 4885TIP3    H236291   1.809   4.544   7.426  0.1058 -0.6199  1.3889
 4886TIP3   OH236292   2.140   5.673   8.130 -0.0571 -0.0298  0.2046
 4886TIP3    H136293   2.120   5.744   8.069 -1.3672 -0.5023  0.0581
 4886TIP3    H236294   2.166   5.599   8.074 -1.4782 -0.5336  0.1744
 4887TIP3   OH236295   5.146   0.234   6.531  0.1187 -0.0528  0.3297
 4887TIP3    H136296   5.123   0.154   6.578  1.3861 -1.3647 -1.1570
 4887TIP3    H236297   5.156   0.206   6.440  1.5587  1.5979 -0.0653
 4888TIP3   OH236298   5.125   1.904   7.849 -0.0766 -0.3344 -0.0703
 4888TIP3    H136299   5.094   1.917   7.939 -1.6588  1.7178 -0.8259
 4888TIP3    H236300   5.219   1.924   7.853  0.0484 -1.0767  1.2445
 4889TIP3   OH236301   2.758   6.601   8.312 -0.4754 -0.4575  0.1895
 4889TIP3    H136302   2.848   6.595   8.281 -0.8261 -1.4620 -0.6807
 4889TIP3    H236303   2.705   6.602   8.233 -1.1820  2.0033  0.6159
 4890TIP3   OH236304   3.963   3.004   1.986 -0.6242 -0.0892 -0.2065
 4890TIP3    H136305   4.005   3.034   1.905 -0.3465 -1.6079 -0.6606
 4890TIP3    H236306   4.021   2.935   2.019 -1.3594 -0.3283  0.6370
 4891TIP3   OH236307   5.666   5.165   0.429  0.0499 -0.0792 -0.4298
 4891TIP3    H136308   5.612   5.086   0.428  1.6868 -1.2634 -0.3760
 4891TIP3    H236309   5.608   5.234   0.398 -2.0405 -0.8635  1.5033
 4892TIP3   OH236310   1.953   2.127   0.575  0.0291 -0.4199  0.2094
 4892TIP3    H136311   2.035   2.099   0.615 -0.4373 -1.5996  0.3769
 4892TIP3    H236312   1.933   2.210   0.617  0.9340 -0.3145  0.4540
 4893TIP3   OH236313   4.623   2.965   2.067  0.4272  0.1064 -0.1852
 4893TIP3    H136314   4.702   2.921   2.099  0.5988  1.0834  0.7962
 4893TIP3    H236315   4.637   3.057   2.088 -1.0523  0.2799  0.1750
 4894TIP3   OH236316   3.283   3.876   0.209 -0.0759 -0.4020 -0.9103
 4894TIP3    H136317   3.267   3.942   0.277 -1.6960 -2.4719  0.8670
 4894TIP3    H236318   3.264   3.921   0.127  0.7862  1.8532  0.0479
 4895TIP3   OH236319   3.834   1.210   8.422 -0.6257  0.2390  0.3056
 4895TIP3    H136320   3.912   1.171   8.384 -0.2844 -0.7892  1.9727
 4895TIP3    H236321   3.861   1.239   8.509 -1.9506  0.3680  0.6977
 4896TIP3   OH236322   2.333   2.232   7.650  0.0338 -0.3291 -0.0871
 4896TIP3    H136323   2.314   2.144   7.616 -0.0790 -0.7183  0.9472
 4896TIP3    H236324   2.281   2.291   7.594  0.7991 -0.8272 -1.3562
 4897TIP3   OH236325   4.419   0.527   0.211  0.1619  0.3800 -0.2784
 4897TIP3    H136326   4.509   0.495   0.216  0.2116 -0.2712 -3.2527
 4897TIP3    H236327   4.369   0.467   0.265  1.2256 -0.6296 -0.3756
 4898TIP3   OH236328   0.872   6.639   7.910 -0.1113  0.0994 -0.2164
 4898TIP3    H136329   0.809   6.606   7.846 -0.9863 -0.9788  1.1304
 4898TIP3    H236330   0.922   6.561   7.937 -0.8274  0.2028  1.5314
 4899TIP3   OH236331   6.239   3.629   0.513  0.3763 -0.8610  0.0353
 4899TIP3    H136332   6.261   3.662   0.600  0.7436 -2.2913  0.5114
 4899TIP3    H236333   6.304   3.669   0.456  0.5479 -0.4301  0.5209
 4900TIP3   OH236334   1.047   4.502   2.918  0.2657 -0.1487  0.2242
 4900TIP3    H136335   0.960   4.470   2.892 -0.0219  0.5012  0.3634
 4900TIP3    H236336   1.079   4.437   2.980 -0.6179  0.1880  1.0673
 4901TIP3   OH236337   5.503   4.473   1.994 -0.0628  0.7950 -0.2844
 4901TIP3    H136338   5.581   4.425   2.021 -0.3847 -0.2323 -1.1096
 4901TIP3    H236339   5.450   4.480   2.073 -0.6301 -1.4391 -0.3898
 4902TIP3   OH236340   2.584   3.177   7.123 -0.2745  0.2887  0.4596
 4902TIP3    H136341   2.493   3.164   7.096 -0.1013  0.2625 -0.1282
 4902TIP3    H236342   2.634   3.115   7.069  0.0001 -0.3547  1.4313
 4903TIP3   OH236343   0.599   0.568   1.470  0.1771  0.1217  0.9385
 4903TIP3    H136344   0.674   0.628   1.479 -0.4325  0.8320  1.4613
 4903TIP3    H236345   0.610   0.528   1.384  1.8577 -0.7625  1.5181
 4904TIP3   OH236346   3.933   4.432   8.291  0.2014  0.5725 -0.1443
 4904TIP3    H136347   3.955   4.427   8.384  1.6884  1.3045 -0.4325
 4904TIP3    H236348   3.966   4.351   8.254 -0.2067  0.3743 -0.0838
 4905TIP3   OH236349   3.141   1.102   7.790  0.2417  0.4182 -0.0637
 4905TIP3    H136350   3.122   1.008   7.787 -1.2380  0.6906 -0.3541
 4905TIP3    H236351   3.157   1.127   7.699 -2.2554  0.9296 -0.4438
 4906TIP3   OH236352   4.450   1.092   7.825 -0.7412  1.1108  0.2114
 4906TIP3    H136353   4.511   1.029   7.787 -0.7673  1.0007  0.3529
 4906TIP3    H236354   4.462   1.083   7.919 -0.6886  1.3730  0.2311
 4907TIP3   OH236355   0.695   2.397   1.939  0.4748 -0.2099 -0.0541
 4907TIP3    H136356   0.672   2.459   1.870 -0.2417  0.8260  1.0726
 4907TIP3    H236357   0.783   2.421   1.966 -0.3643  1.4137  1.4521
 4908TIP3   OH236358   0.728   1.611   8.178  0.0376 -0.1724 -0.4353
 4908TIP3    H136359   0.719   1.516   8.177  1.2790 -0.3274  0.8380
 4908TIP3    H236360   0.722   1.635   8.270 -0.5917  1.0379 -0.7692
 4909TIP3   OH236361   0.574   6.056   8.253  0.7323 -0.0769 -0.4691
 4909TIP3    H136362   0.662   6.019   8.255  0.0093 -1.8731  1.2250
 4909TIP3    H236363   0.561   6.094   8.340  0.5177  2.0561 -1.3623
 4910TIP3   OH236364   5.923   0.120   6.516 -0.2414  0.3351  0.0696
 4910TIP3    H136365   5.995   0.070   6.555 -0.0826  0.7800  0.3550
 4910TIP3    H236366   5.917   0.200   6.569  1.0363  1.7273 -1.7715
 4911TIP3   OH236367   1.419   1.551   0.835  0.6147  0.3847  0.5356
 4911TIP3    H136368   1.468   1.477   0.871  0.3614 -0.2875 -0.4547
 4911TIP3    H236369   1.329   1.518   0.825  0.1718  1.2798  1.3863
 4912TIP3   OH236370   2.697   1.435   1.690 -0.3140 -0.7525 -0.0702
 4912TIP3    H136371   2.609   1.433   1.653  0.4340 -0.2358 -1.9781
 4912TIP3    H236372   2.723   1.527   1.685  0.4581 -0.9488  0.1854
 4913TIP3   OH236373   6.081   1.175   2.556  0.0923  0.4658 -0.0801
 4913TIP3    H136374   6.158   1.209   2.512 -0.4438 -0.8829 -2.1975
 4913TIP3    H236375   6.016   1.165   2.487 -1.5394  0.2630  1.4079
 4914TIP3   OH236376   0.458   1.875   1.145  0.4274 -0.4053  0.5871
 4914TIP3    H136377   0.464   1.785   1.178  1.1028 -0.1555  1.1791
 4914TIP3    H236378   0.548   1.909   1.153  0.9098 -0.6650 -2.5292
 4915TIP3   OH236379   4.037   0.236   1.029 -0.0874 -0.2756 -0.3380
 4915TIP3    H136380   4.009   0.194   0.948 -0.3432  0.5959 -0.7214
 4915TIP3    H236381   4.072   0.321   1.001 -2.2266  1.0075  0.6145
 4916TIP3   OH236382   6.088   5.386   2.109 -0.6404  0.2925  0.4582
 4916TIP3    H136383   6.092   5.478   2.135  1.5728  0.1242  0.8550
 4916TIP3    H236384   6.120   5.384   2.019  1.1334 -0.2534  1.0518
 4917TIP3   OH236385   1.230   6.602   1.061  0.3300 -0.2025 -0.4725
 4917TIP3    H136386   1.260   6.552   1.137  0.3866  1.2781  0.5157
 4917TIP3    H236387   1.142   6.569   1.044  0.1810 -0.3268  0.4615
 4918TIP3   OH236388   4.375   2.186   3.110  0.2833 -0.0059  0.2319
 4918TIP3    H136389   4.346   2.203   3.020  0.7427 -2.3600 -0.4327
 4918TIP3    H236390   4.300   2.208   3.164 -0.0726  1.2639 -0.7332
 4919TIP3   OH236391   2.469   6.428   0.618 -0.2223 -0.0888  0.0273
 4919TIP3    H136392   2.419   6.489   0.673 -0.4476 -1.3108  1.2386
 4919TIP3    H236393   2.552   6.418   0.664  0.6381  0.8404 -1.2418
 4920TIP3   OH236394   0.039   4.288   2.037  0.1564  0.5634  0.2937
 4920TIP3    H136395  -0.016   4.321   2.108 -1.1890 -1.9914  0.5576
 4920TIP3    H236396   0.123   4.267   2.080 -1.4035 -3.3824  1.9784
 4921TIP3   OH236397   1.610   1.424   0.575 -0.4345 -0.4814  0.1130
 4921TIP3    H136398   1.669   1.470   0.635 -0.5689 -0.1408 -0.0147
 4921TIP3    H236399   1.530   1.409   0.626 -0.3874 -0.5878  0.1574
 4922TIP3   OH236400   1.732   6.362   0.775 -0.2419 -0.2021  0.3982
 4922TIP3    H136401   1.775   6.446   0.794 -0.8738  0.2668 -0.1581
 4922TIP3    H236402   1.652   6.365   0.828 -1.4882  0.6476 -1.4238
 4923TIP3   OH236403   4.579   4.014   1.701  0.3120  0.1007 -0.3776
 4923TIP3    H136404   4.592   3.985   1.791 -2.1070 -1.7300 -0.5140
 4923TIP3    H236405   4.530   4.096   1.709  1.0548  0.5156 -0.0321
 4924TIP3   OH236406   3.760   4.093   0.382  0.3694 -0.9173  0.4969
 4924TIP3    H136407   3.718   4.174   0.412  0.3674 -0.4874 -0.6120
 4924TIP3    H236408   3.693   4.051   0.327 -0.0651 -2.2831  1.9834
 4925TIP3   OH236409   0.886   6.024   0.034 -0.3448  0.2345 -0.1060
 4925TIP3    H136410   0.973   5.994   0.061 -0.2804  0.1378 -0.4214
 4925TIP3    H236411   0.850   5.951  -0.016 -0.0312  0.8275 -1.2113
 4926TIP3   OH236412   0.539   2.191   8.289  0.2012 -0.0827  0.1475
 4926TIP3    H136413   0.447   2.184   8.263  0.4730 -0.6585 -0.7396
 4926TIP3    H236414   0.541   2.260   8.354 -0.9707 -0.5445  0.7004
 4927TIP3   OH236415   3.530   5.088   1.838  0.2017  0.0990 -0.0500
 4927TIP3    H136416   3.486   5.104   1.921 -2.5857 -3.9461 -0.4598
 4927TIP3    H236417   3.472   5.125   1.772 -0.5676 -1.5759 -0.3728
 4928TIP3   OH236418   3.323   0.885   0.516 -0.1448  0.0260  0.0502
 4928TIP3    H136419   3.229   0.902   0.507 -0.4282 -0.5136  1.6414
 4928TIP3    H236420   3.358   0.961   0.563  0.1216  0.0151 -0.1288
 4929TIP3   OH236421   6.586   6.883   7.554  0.1579  0.0556  0.0365
 4929TIP3    H136422   6.668   6.931   7.565  0.0755 -0.1884  2.1923
 4929TIP3    H236423   6.521   6.951   7.536  0.5034  0.4613  0.2916
 4930TIP3   OH236424   0.264   4.340   0.704 -0.0865 -0.2824  0.0550
 4930TIP3    H136425   0.333   4.282   0.673 -0.8707 -0.6922 -0.9858
 4930TIP3    H236426   0.191   4.282   0.725 -0.8940  0.2975 -1.0197
 4931TIP3   OH236427   5.930   4.124   0.581  0.2462 -0.0655 -0.1761
 4931TIP3    H136428   5.936   4.029   0.593 -0.1906 -0.1221 -0.3717
 4931TIP3    H236429   5.967   4.161   0.661 -0.9085 -0.4122  0.5436
 4932TIP3   OH236430   1.877   0.807   2.939  0.0515 -0.1000  0.5669
 4932TIP3    H136431   1.834   0.805   3.024 -0.2569  0.9233  0.4543
 4932TIP3    H236432   1.969   0.787   2.958 -0.1748 -0.7664  1.0100
 4933TIP3   OH236433   6.436   6.275   6.893  0.3040  0.0690 -0.1702
 4933TIP3    H136434   6.410   6.185   6.910  0.1430  0.0597 -0.4534
 4933TIP3    H236435   6.381   6.302   6.819  0.3199  0.4121 -0.0593
 4934TIP3   OH236436   2.740   2.923   0.279  0.2901 -0.3736  0.4494
 4934TIP3    H136437   2.761   2.981   0.206 -1.2732 -0.4196 -0.0836
 4934TIP3    H236438   2.791   2.843   0.262  0.8811  0.0697  0.0939
 4935TIP3   OH236439   0.291   3.737   1.497 -0.3183 -0.4086  0.1478
 4935TIP3    H136440   0.350   3.673   1.537  1.9507  1.4287 -0.0409
 4935TIP3    H236441   0.279   3.706   1.407 -0.8157 -1.5342  0.5826
 4936TIP3   OH236442   2.688   5.404   1.664 -0.0470 -1.2029 -0.0338
 4936TIP3    H136443   2.725   5.477   1.713 -0.3031 -1.8300  1.1402
 4936TIP3    H236444   2.701   5.427   1.573  1.1974 -0.3716  0.3273
 4937TIP3   OH236445   2.447   3.525   7.097 -0.6420  0.2718  0.2682
 4937TIP3    H136446   2.459   3.525   7.002  1.9176 -0.9889  0.5142
 4937TIP3    H236447   2.432   3.617   7.119 -0.8185  0.6487 -1.3043
 4938TIP3   OH236448   6.331   6.723   8.051  0.3536  0.1326 -0.1859
 4938TIP3    H136449   6.405   6.743   8.108  0.3635 -0.3395 -0.0290
 4938TIP3    H236450   6.301   6.808   8.021  1.6945  0.2911 -1.1883
 4939TIP3   OH236451   6.639   0.329   1.719  0.0756 -0.5598 -0.3547
 4939TIP3    H136452   6.652   0.407   1.665 -1.6470  0.9104  1.2658
 4939TIP3    H236453   6.667   0.257   1.662  0.6119  1.0975 -2.3253
 4940TIP3   OH236454   4.625   1.644   2.400 -0.4290 -0.1698  0.2982
 4940TIP3    H136455   4.710   1.669   2.437  0.4650  1.9294 -2.7414
 4940TIP3    H236456   4.561   1.690   2.454  0.7989  2.7435 -0.5208
 4941TIP3   OH236457   1.142   4.464   8.220  0.0871  0.2048 -0.1134
 4941TIP3    H136458   1.091   4.512   8.155  0.6423 -1.3065 -1.7673
 4941TIP3    H236459   1.121   4.372   8.203  2.7143 -0.4342 -0.3674
 4942TIP3   OH236460   4.349   5.608   0.344 -0.0093  0.0458 -0.2218
 4942TIP3    H136461   4.442   5.615   0.321 -0.6217  1.3568 -2.6061
 4942TIP3    H236462   4.327   5.692   0.383 -0.2310 -0.2103  0.2107
 4943TIP3   OH236463   1.105   5.235   1.030  0.3423  0.1863  0.1622
 4943TIP3    H136464   1.128   5.187   0.950  1.6382 -0.5927  0.9720
 4943TIP3    H236465   1.106   5.168   1.098  0.3773  1.0528  1.0188
 4944TIP3   OH236466   1.877   6.946   1.706  0.2905  0.0310  0.2146
 4944TIP3    H136467   1.866   6.997   1.626 -1.0753 -2.3307 -1.1925
 4944TIP3    H236468   1.966   6.912   1.701 -0.4913 -1.9290 -1.5087
 4945TIP3   OH236469   4.591   1.922   7.859 -0.1324  0.2240 -0.2204
 4945TIP3    H136470   4.519   1.975   7.827 -0.0713  0.0537 -0.6480
 4945TIP3    H236471   4.576   1.835   7.821 -1.1566 -0.5487  1.7777
 4946TIP3   OH236472   2.364   5.718   1.091 -0.3834  0.0272  0.2767
 4946TIP3    H136473   2.355   5.727   0.996 -2.9096 -0.4472  0.4098
 4946TIP3    H236474   2.420   5.641   1.103  0.8228  0.6976 -0.7796
 4947TIP3   OH236475   1.494   6.528   1.573  0.0973  0.1469  0.4638
 4947TIP3    H136476   1.487   6.435   1.553  0.1058 -0.0486  1.3348
 4947TIP3    H236477   1.564   6.534   1.638  0.1831  0.7755  0.3214
 4948TIP3   OH236478   4.332   2.486   7.296  0.1322 -0.4147  0.1811
 4948TIP3    H136479   4.293   2.522   7.216  2.3573 -0.9080 -1.2140
 4948TIP3    H236480   4.296   2.539   7.367  0.3583  2.0626 -1.4425
 4949TIP3   OH236481   2.275   0.868   2.112 -0.0331  0.3326  0.0710
 4949TIP3    H136482   2.216   0.793   2.118  1.2532 -1.0472 -2.6659
 4949TIP3    H236483   2.359   0.835   2.147 -0.2486  1.5972  1.9195
 4950TIP3   OH236484   6.082   5.979   1.724  0.0655 -0.0607 -0.3782
 4950TIP3    H136485   6.086   5.883   1.727  1.1811 -0.0078  0.1263
 4950TIP3    H236486   6.049   5.999   1.636  2.2466 -0.8479 -1.4315
 4951TIP3   OH236487   0.883   6.044   7.396  0.1966 -0.0375 -0.3863
 4951TIP3    H136488   0.802   6.048   7.345  0.8725 -1.4497 -1.6347
 4951TIP3    H236489   0.952   6.039   7.330  1.3073  0.9135  0.6664
 4952TIP3   OH236490   3.849   4.598   7.287 -0.1838  0.2554  0.5524
 4952TIP3    H136491   3.822   4.597   7.195  2.8480 -0.4196 -0.4538
 4952TIP3    H236492   3.895   4.681   7.298  1.1634 -0.5031  0.8550
 4953TIP3   OH236493   4.901   1.556   0.607 -0.0287 -0.1341 -0.7650
 4953TIP3    H136494   4.888   1.549   0.513  0.0033 -2.6555 -0.6597
 4953TIP3    H236495   4.995   1.574   0.617 -0.3893  2.2797 -1.1993
 4954TIP3   OH236496   3.841   3.764   1.061  0.0410 -0.3273  0.1745
 4954TIP3    H136497   3.823   3.671   1.075 -1.7627 -0.0203  0.0533
 4954TIP3    H236498   3.935   3.773   1.077  0.3297 -2.2491 -0.2969
 4955TIP3   OH236499   3.828   3.351   0.593 -0.1761 -0.0222 -0.2642
 4955TIP3    H136500   3.875   3.290   0.649  0.0443 -2.7702 -3.1410
 4955TIP3    H236501   3.878   3.352   0.511 -2.0723  1.3730 -1.4952
 4956TIP3   OH236502   3.479   3.979   3.007 -0.2966 -0.4930 -0.2845
 4956TIP3    H136503   3.427   3.963   2.928  1.3749 -0.5465 -1.4457
 4956TIP3    H236504   3.513   3.893   3.031 -0.5956 -0.4361  0.3409
 4957TIP3   OH236505   5.775   4.824   7.940 -0.1013 -0.4839  0.1391
 4957TIP3    H136506   5.766   4.784   7.854  3.3146 -0.1695 -0.5222
 4957TIP3    H236507   5.749   4.915   7.927 -1.2651 -0.8302 -0.0767
 4958TIP3   OH236508   1.454   1.872   7.498  0.2584 -0.4722  0.1459
 4958TIP3    H136509   1.364   1.904   7.485 -0.1765 -1.6358  0.2053
 4958TIP3    H236510   1.479   1.836   7.413  1.1343  0.9088 -0.2184
 4959TIP3   OH236511   1.658   4.032   6.884  0.0441  0.2165 -0.5436
 4959TIP3    H136512   1.599   3.970   6.927  0.4160 -0.7062 -1.3355
 4959TIP3    H236513   1.600   4.102   6.852 -0.2870  0.7378  1.0766
 4960TIP3   OH236514   4.234   3.240   0.140 -0.3930 -0.8347 -0.6039
 4960TIP3    H136515   4.143   3.263   0.123 -0.2331 -0.8476 -1.5208
 4960TIP3    H236516   4.265   3.201   0.058  0.8768  0.5345 -0.8335
 4961TIP3   OH236517   4.213   2.768   0.387 -0.2142  0.1654  0.2416
 4961TIP3    H136518   4.262   2.739   0.465 -0.6315  0.9999  0.8222
 4961TIP3    H236519   4.121   2.762   0.413 -0.3846 -0.1268 -0.4031
 4962TIP3   OH236520   2.676   2.747   7.600  0.6278 -0.6808  0.5011
 4962TIP3    H136521   2.688   2.714   7.689 -2.3976  0.5700  1.5243
 4962TIP3    H236522   2.667   2.842   7.611 -1.5931 -0.6729 -0.8262
 4963TIP3   OH236523   5.314   3.281   3.026  0.1347 -0.0399 -0.1906
 4963TIP3    H136524   5.286   3.205   3.078  0.5135  0.0940  0.2086
 4963TIP3    H236525   5.256   3.352   3.055 -0.7022 -0.3399 -1.0759
 4964TIP3   OH236526   5.353   6.297   1.320  0.0948  0.0033 -0.0919
 4964TIP3    H136527   5.350   6.274   1.413  0.5290  0.1958 -0.0300
 4964TIP3    H236528   5.336   6.214   1.275  0.7340 -0.2663  0.1465
 4965TIP3   OH236529   3.155   3.215   7.570  0.7339 -0.8843 -0.1067
 4965TIP3    H136530   3.203   3.223   7.487 -0.5495 -1.3443 -0.9239
 4965TIP3    H236531   3.173   3.297   7.616  0.0512  0.1932 -1.6463
 4966TIP3   OH236532   4.917   5.204   7.271 -0.4270  0.0377 -0.2885
 4966TIP3    H136533   4.893   5.124   7.319  0.9451 -0.0689  0.2362
 4966TIP3    H236534   4.964   5.258   7.334  1.4029 -0.0940 -1.4698
 4967TIP3   OH236535   2.983   5.691   7.348  0.4797 -0.1208  0.5804
 4967TIP3    H136536   3.045   5.661   7.282  1.8877  0.5225  1.5574
 4967TIP3    H236537   2.956   5.611   7.394  0.5909 -0.4028  0.1599
 4968TIP3   OH236538   1.268   5.224   2.250 -0.1214  0.3021 -0.0658
 4968TIP3    H136539   1.252   5.223   2.344 -0.8569 -0.9251 -0.1912
 4968TIP3    H236540   1.233   5.141   2.218  1.1388  0.1864 -1.2581
 4969TIP3   OH236541   2.247   1.603   0.285 -0.3647  0.6796 -0.1704
 4969TIP3    H136542   2.215   1.668   0.348 -3.2502  0.0769 -0.8427
 4969TIP3    H236543   2.192   1.526   0.301  3.4576 -2.0454  1.1726
 4970TIP3   OH236544   2.773   5.532   8.230  0.5970  0.2465 -0.0903
 4970TIP3    H136545   2.839   5.577   8.282  2.2935 -1.7636 -0.3626
 4970TIP3    H236546   2.700   5.516   8.290 -0.0802  3.1921  0.0115
 4971TIP3   OH236547   4.014   5.132   1.916 -0.0035 -0.4516  0.1741
 4971TIP3    H136548   3.991   5.223   1.937 -0.6522 -0.9169  1.5383
 4971TIP3    H236549   4.035   5.092   2.000  1.3074 -1.3148 -0.5300
 4972TIP3   OH236550   3.828   6.264   7.706  0.1956 -0.0356 -0.1541
 4972TIP3    H136551   3.781   6.181   7.715  0.4548 -0.0635  1.2487
 4972TIP3    H236552   3.778   6.325   7.761 -1.8111  1.6308 -3.4742
 4973TIP3   OH236553   3.056   0.905   7.364 -0.5494  0.2837  0.0168
 4973TIP3    H136554   3.095   0.856   7.292 -0.3826 -1.6121  1.3186
 4973TIP3    H236555   2.969   0.930   7.332  0.1889  1.0354 -1.4513
 4974TIP3   OH236556   2.272   4.496   2.841  0.0298 -0.3407  0.5431
 4974TIP3    H136557   2.225   4.551   2.778  0.3086 -1.4268 -0.6503
 4974TIP3    H236558   2.351   4.468   2.794 -0.8417 -3.0041  0.5019
 4975TIP3   OH236559   6.492   5.663   2.184 -0.4798 -0.1425 -0.4436
 4975TIP3    H136560   6.455   5.737   2.232 -1.3198 -0.3734 -0.7037
 4975TIP3    H236561   6.480   5.588   2.243  0.5875 -0.0323 -0.0827
 4976TIP3   OH236562   6.175   0.788   6.723  0.2225  0.5794 -0.2359
 4976TIP3    H136563   6.150   0.717   6.665  0.0681 -0.4846  1.0976
 4976TIP3    H236564   6.092   0.828   6.750  0.3307  1.7907 -1.5597
 4977TIP3   OH236565   4.917   4.359   0.506  0.2132 -0.7996 -0.6630
 4977TIP3    H136566   4.998   4.371   0.456  1.2801  0.7601  1.2799
 4977TIP3    H236567   4.943   4.306   0.581  0.1742  1.8851  1.3966
 4978TIP3   OH236568   6.629   3.542   1.653 -0.5241  0.0909  0.1725
 4978TIP3    H136569   6.626   3.637   1.643 -1.0756  0.1120  0.5267
 4978TIP3    H236570   6.681   3.527   1.732  0.2060  0.0626 -0.2957
 4979TIP3   OH236571   0.981   0.096   7.903  0.0471  0.3758  0.4356
 4979TIP3    H136572   0.981   0.156   7.829 -0.5548  0.1866  0.2747
 4979TIP3    H236573   1.028   0.143   7.972  0.9358  0.4042 -0.1758
 4980TIP3   OH236574   1.666   4.033   2.036 -0.2875  0.2757 -0.1528
 4980TIP3    H136575   1.692   4.055   2.125 -2.4819  1.1097  0.3495
 4980TIP3    H236576   1.655   4.118   1.992 -1.5592 -0.0197 -0.4585
 4981TIP3   OH236577   0.854   6.459   1.726  0.1296 -0.3855 -0.6701
 4981TIP3    H136578   0.835   6.472   1.633 -0.2912 -1.2935 -0.7161
 4981TIP3    H236579   0.806   6.530   1.770 -0.8617 -0.8058 -1.0385
 4982TIP3   OH236580   1.368   0.945   1.481  0.3876  0.3208  0.0513
 4982TIP3    H136581   1.462   0.959   1.490  0.1706  2.6932 -0.6913
 4982TIP3    H236582   1.357   0.850   1.484  2.6587  0.0389  1.3538
 4983TIP3   OH236583   0.060   1.901   8.171 -0.1675 -0.0346  0.1175
 4983TIP3    H136584   0.099   1.819   8.202  1.9624  0.7875 -0.2236
 4983TIP3    H236585   0.061   1.893   8.075 -0.8286  0.0329  0.0997
 4984TIP3   OH236586   2.513   3.048   0.639 -0.1534  0.2775  0.5601
 4984TIP3    H136587   2.474   3.135   0.651  1.1824  0.6554  2.6934
 4984TIP3    H236588   2.607   3.063   0.640  0.0982 -1.0662 -0.4378
 4985TIP3   OH236589   1.476   2.785   1.330 -0.4201 -0.4991 -0.4518
 4985TIP3    H136590   1.486   2.879   1.316 -0.3145 -0.7806 -2.6406
 4985TIP3    H236591   1.534   2.745   1.265 -2.7204 -2.0721 -1.6772
 4986TIP3   OH236592   1.132   4.443   1.203  0.4149 -0.6371  0.7858
 4986TIP3    H136593   1.046   4.478   1.225  0.6207 -1.0406  2.3935
 4986TIP3    H236594   1.114   4.360   1.158 -0.0387 -0.2589  0.2683
 4987TIP3   OH236595   3.477   3.114   2.056 -0.9510 -0.1314 -0.0766
 4987TIP3    H136596   3.479   3.105   2.151 -2.7588 -0.6311 -0.0461
 4987TIP3    H236597   3.481   3.024   2.024 -0.2089  0.0411 -0.4940
 4988TIP3   OH236598   1.299   2.331   0.989 -0.3903  0.2728 -0.4201
 4988TIP3    H136599   1.293   2.426   0.999  1.7920  0.6274 -2.0122
 4988TIP3    H236600   1.342   2.302   1.069 -0.8385  0.6284 -0.0373
 4989TIP3   OH236601   0.565   3.531   7.931 -0.0656  0.3227 -0.0318
 4989TIP3    H136602   0.637   3.476   7.901  1.7522  1.4917  1.8985
 4989TIP3    H236603   0.597   3.621   7.917 -1.8820  0.9147 -0.6863
 4990TIP3   OH236604   4.627   4.412   1.026  0.4425 -0.0748 -0.4536
 4990TIP3    H136605   4.547   4.374   1.063 -0.2011  0.9122 -0.7816
 4990TIP3    H236606   4.696   4.387   1.087 -0.1542 -0.7803 -0.0553
 4991TIP3   OH236607   1.203   0.459   7.939  0.4532 -0.5495 -0.1330
 4991TIP3    H136608   1.222   0.485   8.030  0.1873 -0.9609  0.0435
 4991TIP3    H236609   1.149   0.530   7.905 -2.1037 -1.7866  1.0132
 4992TIP3   OH236610   0.047   4.284   1.021 -0.0630  0.2384  0.1845
 4992TIP3    H136611   0.036   4.239   1.104  0.0849 -1.4455 -0.6670
 4992TIP3    H236612   0.049   4.214   0.956 -0.4923  1.5329 -1.2730
 4993TIP3   OH236613   4.016   3.556   8.409 -0.3174 -0.0571 -0.2960
 4993TIP3    H136614   3.941   3.588   8.360 -1.2033 -3.5759 -1.5428
 4993TIP3    H236615   3.984   3.480   8.456  1.9866 -0.3990  0.8938
 4994TIP3   OH236616   5.677   6.619   1.470 -0.3664 -0.2340  0.1890
 4994TIP3    H136617   5.623   6.583   1.540 -1.0345  0.7272  0.1890
 4994TIP3    H236618   5.717   6.543   1.428 -0.3055 -0.8490  1.3253
 4995TIP3   OH236619   2.207   6.552   7.495 -0.1126  0.4001  0.1748
 4995TIP3    H136620   2.116   6.529   7.508 -0.5271  1.6593 -0.2928
 4995TIP3    H236621   2.256   6.473   7.516 -1.4360 -0.9914 -1.6496
 4996TIP3   OH236622   0.699   0.575   0.279 -0.6962  0.2697  0.0644
 4996TIP3    H136623   0.785   0.610   0.302  0.9776 -1.3453 -3.0875
 4996TIP3    H236624   0.680   0.613   0.194 -2.2561 -0.8336 -0.1167
 4997TIP3   OH236625   1.267   3.505   0.256 -0.1448  0.3348 -0.2538
 4997TIP3    H136626   1.348   3.458   0.238  0.5893  0.8858  1.4239
 4997TIP3    H236627   1.264   3.574   0.189 -0.2349 -0.8412 -1.5055
 4998TIP3   OH236628   5.798   6.000   2.516  0.5443  0.4487  0.5816
 4998TIP3    H136629   5.704   5.987   2.513  0.6779 -0.3950 -0.5460
 4998TIP3    H236630   5.811   6.086   2.477  0.2382  0.5966  0.8018
 4999TIP3   OH236631   6.914   1.413   1.574 -0.4433 -0.3309  0.3713
 4999TIP3    H136632   6.871   1.491   1.537 -0.2994  0.7028  2.2244
 4999TIP3    H236633   6.850   1.343   1.563 -1.9803  0.8100  1.5638
 5000TIP3   OH236634   0.934   6.584   1.066 -0.0853 -0.9360 -1.0230
 5000TIP3    H136635   0.885   6.510   1.101 -0.7204  0.5355  1.4672
 5000TIP3    H236636   0.868   6.647   1.039  0.2778  0.5189  1.1423
 5001TIP3   OH236637   2.561   4.000   8.121  0.0456  0.2404  0.2099
 5001TIP3    H136638   2.601   4.076   8.079  0.6083 -0.0562  0.2039
 5001TIP3    H236639   2.594   3.925   8.071 -0.4607 -0.0132  0.2500
 5002TIP3   OH236640   3.310   4.575   2.008 -0.2159  0.7187  0.1707
 5002TIP3    H136641   3.310   4.553   1.914 -0.9773  0.5984  0.1957
 5002TIP3    H236642   3.389   4.628   2.020 -0.3057  1.0447 -0.6168
 5003TIP3   OH236643   4.506   3.398   1.291  0.5204  0.0137  0.0412
 5003TIP3    H136644   4.435   3.409   1.228 -0.6415 -0.8143  1.1408
 5003TIP3    H236645   4.577   3.358   1.241  0.5635  1.6843 -1.2839
 5004TIP3   OH236646   1.462   1.528   6.623  0.1524  0.1396  0.0047
 5004TIP3    H136647   1.378   1.571   6.608  0.9638  2.4297  1.4261
 5004TIP3    H236648   1.448   1.437   6.599 -2.6116  0.5392 -0.1351
 5005TIP3   OH236649   1.980   5.893   1.894 -0.3565 -0.5838  0.5413
 5005TIP3    H136650   2.074   5.878   1.906  0.2739  2.3034 -0.1718
 5005TIP3    H236651   1.938   5.829   1.952  2.0251 -1.7242  1.1330
 5006TIP3   OH236652   5.416   0.488   0.817  0.8596  0.2998  0.1374
 5006TIP3    H136653   5.507   0.507   0.798  0.5925  1.7874  0.2165
 5006TIP3    H236654   5.416   0.398   0.850  2.2714  0.2553  0.0474
 5007TIP3   OH236655   2.894   1.160   1.663 -0.0876  0.8039  0.0030
 5007TIP3    H136656   2.887   1.080   1.612  1.1571  0.0163  1.0250
 5007TIP3    H236657   2.981   1.157   1.701 -0.2625  2.3283  0.5976
 5008TIP3   OH236658   0.296   0.061   1.292  0.2652 -0.6090  0.1115
 5008TIP3    H136659   0.316  -0.028   1.319  1.0464 -0.4957 -0.0948
 5008TIP3    H236660   0.315   0.115   1.369 -1.5517 -0.7528  0.7256
 5009TIP3   OH236661   6.244   3.385   1.939 -1.0775  0.3492  0.1246
 5009TIP3    H136662   6.294   3.416   1.864 -1.3910  0.0517 -0.2166
 5009TIP3    H236663   6.301   3.322   1.982 -0.2147  1.7696  1.1474
 5010TIP3   OH236664   6.810   4.516   0.090  0.1141 -0.0424 -0.3365
 5010TIP3    H136665   6.827   4.516  -0.004 -0.8718  1.1211 -0.5424
 5010TIP3    H236666   6.882   4.565   0.128 -0.8612  1.8299 -0.8090
 5011TIP3   OH236667   5.582   0.487   0.427  0.2657  0.4389  0.2845
 5011TIP3    H136668   5.505   0.452   0.383  0.9738  0.7423 -1.2357
 5011TIP3    H236669   5.601   0.423   0.495  1.5832 -2.2916 -2.4435
 5012TIP3   OH236670   0.502   6.786   7.380 -0.2499  0.5996  0.3724
 5012TIP3    H136671   0.450   6.838   7.440 -2.3394 -0.7763 -0.1436
 5012TIP3    H236672   0.461   6.799   7.295 -0.0290 -0.8233  0.0150
 5013TIP3   OH236673   4.119   1.269   7.999 -0.4215  0.2926 -0.0875
 5013TIP3    H136674   4.050   1.203   7.997 -2.2686  2.0714  0.7010
 5013TIP3    H236675   4.098   1.328   7.926  1.1988  0.0441 -0.8016
 5014TIP3   OH236676   4.264   2.951   2.029  0.0901  0.2314 -0.5931
 5014TIP3    H136677   4.263   2.858   2.006 -0.8743  0.0133  0.2778
 5014TIP3    H236678   4.328   2.989   1.968 -0.7254 -0.7015 -2.0990
 5015TIP3   OH236679   4.782   3.596   1.299 -0.0810 -0.4217  0.9720
 5015TIP3    H136680   4.736   3.554   1.226 -0.4920 -1.4754  1.8197
 5015TIP3    H236681   4.849   3.650   1.257  1.4881 -3.0711 -0.1706
 5016TIP3   OH236682   5.370   1.725   7.512 -0.7492  0.0050  0.0553
 5016TIP3    H136683   5.386   1.668   7.437 -2.6389 -1.2034  0.4998
 5016TIP3    H236684   5.341   1.665   7.582 -2.7542  1.4510  0.5655
 5017TIP3   OH236685   1.751   4.958   0.801 -0.1813 -0.7928 -0.1327
 5017TIP3    H136686   1.784   4.875   0.836 -1.7436 -0.6045  1.9579
 5017TIP3    H236687   1.674   4.932   0.750 -0.0911 -0.7037 -0.3152
 5018TIP3   OH236688   4.047   4.524   1.114 -0.2491 -0.2345  0.2468
 5018TIP3    H136689   4.024   4.506   1.205 -0.3505 -0.7695  0.1179
 5018TIP3    H236690   4.100   4.449   1.087 -0.3718 -0.1667 -0.1945
 5019TIP3   OH236691   1.106   5.542   7.857 -0.1474 -0.2126 -0.2490
 5019TIP3    H136692   1.152   5.474   7.905 -1.0237 -1.0182 -0.5025
 5019TIP3    H236693   1.119   5.520   7.765 -1.6376 -0.9186 -0.3269
 5020TIP3   OH236694   1.782   3.527   0.814 -0.7181  0.2515  0.0495
 5020TIP3    H136695   1.864   3.564   0.780 -0.5043 -0.5326 -0.3127
 5020TIP3    H236696   1.795   3.432   0.810 -2.1503  0.0782 -1.3039
 5021TIP3   OH236697   2.400   5.903   0.658  0.1526 -0.0366 -0.0921
 5021TIP3    H136698   2.456   5.977   0.680  0.9571 -0.8172  0.5378
 5021TIP3    H236699   2.311   5.939   0.656  0.5435  0.9503  0.1405
 5022TIP3   OH236700   2.268   0.590   8.367  0.3510  0.1284 -0.1610
 5022TIP3    H136701   2.182   0.608   8.404  0.4380 -0.1296  0.1818
 5022TIP3    H236702   2.297   0.510   8.412  1.0607  0.5931  0.2377
 5023TIP3   OH236703   4.242   5.770   1.429  0.5188  0.0688  0.4899
 5023TIP3    H136704   4.311   5.785   1.493  0.6571  1.2289  0.0811
 5023TIP3    H236705   4.274   5.809   1.348  0.0814 -0.8425 -0.1463
 5024TIP3   OH236706   1.760   0.287   1.075 -0.6783 -0.6512 -0.0942
 5024TIP3    H136707   1.751   0.192   1.080 -1.6723 -0.5019  1.8438
 5024TIP3    H236708   1.785   0.313   1.163 -0.7115  0.9285 -0.5296
 5025TIP3   OH236709   4.995   0.823   7.732  0.2377 -0.5699  0.0503
 5025TIP3    H136710   4.952   0.786   7.655 -1.3459 -1.0221  1.0927
 5025TIP3    H236711   4.924   0.865   7.781  1.2448 -0.0667  1.1401
 5026TIP3   OH236712   4.489   0.333   1.093  0.0324  0.1250  0.7479
 5026TIP3    H136713   4.419   0.389   1.125 -0.5340  0.0993 -0.4085
 5026TIP3    H236714   4.445   0.253   1.064  0.8479 -1.0829  2.6429
 5027TIP3   OH236715   4.036   2.648   1.235 -0.4392  0.1515 -0.4180
 5027TIP3    H136716   3.957   2.628   1.184 -0.4123  0.8896 -0.7682
 5027TIP3    H236717   4.106   2.601   1.191 -0.7345 -0.8576  0.1413
 5028TIP3   OH236718   3.302   0.663   0.901 -0.0597 -0.8206 -0.6642
 5028TIP3    H136719   3.321   0.616   0.820  1.3193 -0.2982 -0.6690
 5028TIP3    H236720   3.231   0.614   0.942 -0.0876 -1.6668 -1.7010
 5029TIP3   OH236721   2.464   3.585   1.929  0.4210  0.3902 -0.1143
 5029TIP3    H136722   2.377   3.552   1.907  0.8458 -0.7293 -0.1629
 5029TIP3    H236723   2.504   3.515   1.981  0.4434  1.8278  1.9315
 5030TIP3   OH236724   4.833   5.140   8.378 -0.8337 -0.3874  0.1522
 5030TIP3    H136725   4.901   5.096   8.430  0.2327  1.3320  0.2810
 5030TIP3    H236726   4.848   5.108   8.289 -0.2058 -0.4510  0.2685
 5031TIP3   OH236727   0.567   5.697   7.737 -0.1353 -0.1485  0.3193
 5031TIP3    H136728   0.602   5.684   7.826 -1.7911  1.1848  1.2079
 5031TIP3    H236729   0.472   5.695   7.748 -0.3792 -0.8301 -1.5890
 5032TIP3   OH236730   5.171   5.374   1.122 -0.0223  0.1476  0.0783
 5032TIP3    H136731   5.243   5.322   1.087  0.2721  1.9587 -2.2015
 5032TIP3    H236732   5.116   5.311   1.169  2.4132 -1.4586  0.9155
 5033TIP3   OH236733   1.040   2.467   7.596  0.2117  0.1415  0.2660
 5033TIP3    H136734   1.131   2.450   7.622 -0.0905 -1.0864  0.5424
 5033TIP3    H236735   0.997   2.382   7.600 -0.6635  0.4962 -1.0656
 5034TIP3   OH236736   2.844   3.924   2.231 -0.0615  0.0793 -0.7449
 5034TIP3    H136737   2.752   3.936   2.256 -0.5132 -1.3833 -1.5866
 5034TIP3    H236738   2.884   3.885   2.309 -0.4061 -0.2561 -0.7316
 5035TIP3   OH236739   6.918   5.077   1.103  0.6111  0.0844 -0.7320
 5035TIP3    H136740   6.989   5.130   1.140  1.9559 -1.0373 -1.6131
 5035TIP3    H236741   6.881   5.132   1.034  0.4437  0.7739 -0.1085
 5036TIP3   OH236742   3.273   3.677   6.954  0.4678 -0.0914 -0.6376
 5036TIP3    H136743   3.229   3.754   6.918  0.9875  0.0880 -0.9017
 5036TIP3    H236744   3.247   3.605   6.897 -1.1834 -0.4194  0.4403
 5037TIP3   OH236745   4.795   5.136   1.508 -0.1219 -0.3505 -0.0363
 5037TIP3    H136746   4.767   5.178   1.590 -2.5372 -0.0026 -0.9367
 5037TIP3    H236747   4.776   5.202   1.441 -0.4432 -1.5049 -1.1028
 5038TIP3   OH236748   1.354   2.269   8.153 -0.3248 -0.3625 -0.2561
 5038TIP3    H136749   1.339   2.245   8.062 -2.9604 -0.0812  0.0268
 5038TIP3    H236750   1.393   2.190   8.192 -0.6901 -1.0604 -1.2688
 5039TIP3   OH236751   1.986   6.289   0.610 -0.4977 -0.3978 -0.0905
 5039TIP3    H136752   2.052   6.277   0.541  0.9630  1.0779  0.9773
 5039TIP3    H236753   1.925   6.353   0.574 -0.1985 -0.2392 -0.3176
 5040TIP3   OH236754   2.211   2.021   0.376 -0.0162  0.5042  0.3435
 5040TIP3    H136755   2.154   1.954   0.415 -1.1168  1.6298  0.7316
 5040TIP3    H236756   2.211   2.000   0.283 -0.6997  0.2035  0.4011
 5041TIP3   OH236757   5.020   4.301   1.268  0.4538 -0.0186 -0.1694
 5041TIP3    H136758   5.089   4.350   1.224 -1.0111  2.1442 -0.2209
 5041TIP3    H236759   5.063   4.258   1.341  1.7482  1.9231  0.2850
 5042TIP3   OH236760   5.291   0.490   0.087  0.4446 -0.2293  0.3543
 5042TIP3    H136761   5.221   0.552   0.069  2.1169  2.0793  1.2337
 5042TIP3    H236762   5.338   0.482   0.004  1.7431  1.8173  0.8292
 5043TIP3   OH236763   0.396   6.284   2.019 -0.3585 -0.3713 -0.1554
 5043TIP3    H136764   0.491   6.295   2.016 -0.2154 -1.7057 -1.3452
 5043TIP3    H236765   0.377   6.268   2.112  0.0782  3.4286  0.7409
 5044TIP3   OH236766   4.024   1.596   7.989 -0.0788  0.2064  0.3360
 5044TIP3    H136767   4.030   1.690   7.975  2.8703  0.0477 -0.1644
 5044TIP3    H236768   3.982   1.562   7.910 -1.2047  1.0667  0.5434
 5045TIP3   OH236769   6.925   2.758   1.505  0.0333 -0.0337  0.3807
 5045TIP3    H136770   6.946   2.676   1.549  0.9965 -0.7532 -1.3159
 5045TIP3    H236771   6.990   2.820   1.537 -0.8727  0.1681  1.8863
 5046TIP3   OH236772   0.362   6.388   8.068  0.0652 -0.0751  0.8627
 5046TIP3    H136773   0.366   6.292   8.073 -1.0533 -0.2103 -0.2401
 5046TIP3    H236774   0.371   6.408   7.975 -1.0669  0.7918  0.9137
 5047TIP3   OH236775   2.147   4.915   0.939  0.0582  0.8024 -0.6905
 5047TIP3    H136776   2.241   4.908   0.954  0.1196  2.5993 -0.0117
 5047TIP3    H236777   2.124   5.004   0.966 -2.5420 -0.7160  2.8233
 5048TIP3   OH236778   3.181   4.950   8.301  0.3408  0.4308  0.2698
 5048TIP3    H136779   3.201   4.947   8.208  0.9168 -2.2766  0.3977
 5048TIP3    H236780   3.085   4.948   8.305  0.2907  1.3619 -0.2450
 5049TIP3   OH236781   3.996   3.599   0.367 -0.1425  0.0491  0.5567
 5049TIP3    H136782   4.049   3.625   0.291 -1.4665  0.9620 -0.0918
 5049TIP3    H236783   4.007   3.504   0.373  0.9060  0.1144 -0.0599
 5050TIP3   OH236784   0.222   5.187   8.423 -0.0630  0.5345  0.4422
 5050TIP3    H136785   0.131   5.176   8.451 -0.1129 -0.3586 -0.0305
 5050TIP3    H236786   0.262   5.100   8.435  1.2010  1.2829  2.2240
 5051TIP3   OH236787   0.212   0.528   8.135 -0.3799 -0.1904  0.4031
 5051TIP3    H136788   0.288   0.469   8.140 -0.3139 -0.0109  1.9363
 5051TIP3    H236789   0.137   0.473   8.159 -0.6294 -0.1533 -0.2613
 5052TIP3   OH236790   3.606   3.633   7.478  0.5632 -0.5008 -0.1917
 5052TIP3    H136791   3.645   3.671   7.399  0.5528 -1.7762 -0.8335
 5052TIP3    H236792   3.534   3.579   7.446 -0.6811  0.4402  0.8467
 5053TIP3   OH236793   1.826   2.473   8.188  0.1229  0.3125  0.0947
 5053TIP3    H136794   1.758   2.438   8.132  0.2803  2.0055 -1.2511
 5053TIP3    H236795   1.831   2.566   8.165  1.2179  0.7623  1.8854
 5054TIP3   OH236796   0.904   2.004   2.370 -0.2964 -0.6217 -0.0097
 5054TIP3    H136797   0.968   1.938   2.395 -0.2942 -0.8457 -0.5988
 5054TIP3    H236798   0.889   2.055   2.450 -0.0612 -1.1331  0.3610
 5055TIP3   OH236799   0.667   6.340   2.015 -0.3028  0.0343  0.1545
 5055TIP3    H136800   0.725   6.400   2.061 -0.2095  0.0932 -0.0354
 5055TIP3    H236801   0.719   6.310   1.940 -0.1054 -0.8065  0.6126
 5056TIP3   OH236802   5.183   2.958   1.927  0.6840 -0.0060 -0.2696
 5056TIP3    H136803   5.241   3.000   1.864  0.8965 -0.0997 -0.1371
 5056TIP3    H236804   5.236   2.889   1.967  0.4104 -0.2416 -0.3119
 5057TIP3   OH236805   2.890   1.974   0.796 -0.2243  0.0977  0.1397
 5057TIP3    H136806   2.891   2.017   0.882 -0.3675 -2.1879  1.3614
 5057TIP3    H236807   2.798   1.954   0.780 -0.2183  0.6560 -0.6400
 5058TIP3   OH236808   4.242   4.555   0.180  0.1018 -0.7989 -0.1664
 5058TIP3    H136809   4.173   4.580   0.119  0.9129  0.7186 -0.5107
 5058TIP3    H236810   4.232   4.460   0.191 -1.7709 -0.6757 -0.5031
 5059TIP3   OH236811   6.418   2.972   2.680 -0.0020  0.2961  0.7516
 5059TIP3    H136812   6.422   2.971   2.775  0.0668 -0.3608  0.7469
 5059TIP3    H236813   6.502   2.936   2.652  1.3917  3.4679  0.3640
 5060TIP3   OH236814   6.205   5.723   2.758  0.0739  0.0523 -0.1683
 5060TIP3    H136815   6.151   5.728   2.837  0.2465 -0.2999 -0.0255
 5060TIP3    H236816   6.146   5.749   2.687 -0.4369 -0.8098 -0.0788
 5061TIP3   OH236817   5.309   5.890   8.017 -0.1050 -0.2583  0.5356
 5061TIP3    H136818   5.401   5.915   8.025 -0.8732  3.1858  0.1127
 5061TIP3    H236819   5.295   5.884   7.923 -0.5151  0.1865  0.5660
 5062TIP3   OH236820   1.976   0.108   1.978  0.3116 -0.0987 -0.0968
 5062TIP3    H136821   1.983   0.064   1.893 -1.0057  0.2301 -0.4000
 5062TIP3    H236822   2.025   0.189   1.968  2.4926 -1.2787  0.3617
 5063TIP3   OH236823   3.820   4.768   2.307 -0.3193  0.2457  0.0398
 5063TIP3    H136824   3.795   4.723   2.226 -0.0650 -1.1809  0.7136
 5063TIP3    H236825   3.910   4.795   2.293 -0.9791  2.0873 -0.9965
 5064TIP3   OH236826   0.439   6.531   0.610  0.0493 -0.3362 -0.2516
 5064TIP3    H136827   0.361   6.479   0.631 -0.3686  0.5938  0.5835
 5064TIP3    H236828   0.511   6.485   0.652 -0.4228  0.1127  1.1204
 5065TIP3   OH236829   5.596   1.840   2.882 -0.1846  0.0545 -0.2788
 5065TIP3    H136830   5.679   1.876   2.849  0.9124 -1.4937  0.6278
 5065TIP3    H236831   5.599   1.748   2.857 -2.6402  0.3780 -2.0510
 5066TIP3   OH236832   3.377   5.300   6.419  0.2772  0.4202 -0.1288
 5066TIP3    H136833   3.386   5.327   6.511  0.7820 -1.1364  0.3001
 5066TIP3    H236834   3.449   5.344   6.374 -0.8521  2.4112 -0.1006
 5067TIP3   OH236835   0.779   1.070   7.500  0.8700 -0.8792 -0.2527
 5067TIP3    H136836   0.789   0.983   7.539 -0.1639 -1.3371 -0.9717
 5067TIP3    H236837   0.814   1.061   7.411  2.8123  0.0476  0.3447
 5068TIP3   OH236838   2.500   0.573   6.758  0.4220 -0.6283  0.1356
 5068TIP3    H136839   2.584   0.616   6.770  0.2324  0.7643 -2.7816
 5068TIP3    H236840   2.518   0.502   6.696 -0.4073 -0.8853  0.1753
 5069TIP3   OH236841   0.947   6.453   2.779  0.0309 -0.3373 -0.1142
 5069TIP3    H136842   0.931   6.444   2.873 -2.2508 -1.3052 -0.5469
 5069TIP3    H236843   0.936   6.365   2.744  0.9681 -0.0093 -1.3088
 5070TIP3   OH236844   5.110   2.386   0.854 -0.0454 -0.2487 -0.0322
 5070TIP3    H136845   5.164   2.335   0.795  2.0560  1.8426 -0.0569
 5070TIP3    H236846   5.122   2.477   0.825 -0.6967  0.6257  2.2477
 5071TIP3   OH236847   0.478   4.915   2.188 -0.1579 -0.3712 -0.7746
 5071TIP3    H136848   0.494   4.947   2.277 -2.2267  0.6581 -0.7186
 5071TIP3    H236849   0.552   4.948   2.137  0.5264 -0.1147  0.3457
 5072TIP3   OH236850   2.877   1.638   0.455  0.7058 -0.0099  1.1888
 5072TIP3    H136851   2.801   1.593   0.419 -0.9730  2.6749  1.0280
 5072TIP3    H236852   2.952   1.600   0.410 -0.9316  0.1439 -1.8994
 5073TIP3   OH236853   6.641   4.275   1.993  0.0905 -0.4660  0.0706
 5073TIP3    H136854   6.691   4.229   2.060 -0.9232  1.1577  2.0577
 5073TIP3    H236855   6.706   4.324   1.943  0.7809 -0.9383  0.4974
 5074TIP3   OH236856   4.932   0.084   0.487  0.1523 -0.1454  0.1137
 5074TIP3    H136857   4.978   0.157   0.445 -1.8461  0.9288 -0.3256
 5074TIP3    H236858   4.934   0.014   0.422 -0.5748  0.5823 -0.7195
 5075TIP3   OH236859   1.307   6.310   1.506 -0.4817  0.0036  0.2744
 5075TIP3    H136860   1.398   6.282   1.497 -0.7644 -0.7433 -0.3994
 5075TIP3    H236861   1.291   6.312   1.600 -0.3977 -2.0134  0.3691
 5076TIP3   OH236862   0.029   0.202   2.123 -0.2574  0.4026 -0.2261
 5076TIP3    H136863   0.062   0.112   2.113 -0.6748  0.1876  0.3219
 5076TIP3    H236864  -0.053   0.202   2.075  0.2986  0.8195 -1.2136
 5077TIP3   OH236865   2.863   2.701   0.186  0.2363 -0.4456  0.6233
 5077TIP3    H136866   2.899   2.673   0.270 -1.1048 -1.1824  0.9913
 5077TIP3    H236867   2.914   2.653   0.120  0.1140 -1.2676  1.1132
 5078TIP3   OH236868   2.232   2.327   0.341  0.1644  0.1447 -0.4609
 5078TIP3    H136869   2.260   2.332   0.433  1.7808  0.9348 -0.9559
 5078TIP3    H236870   2.176   2.249   0.337 -0.2758  0.3246  1.2612
 5079TIP3   OH236871   5.699   4.614   8.133  0.0565 -0.4215  0.4777
 5079TIP3    H136872   5.769   4.571   8.182 -0.3331 -2.4231 -0.6261
 5079TIP3    H236873   5.735   4.698   8.108  0.8113  0.0338  2.8487
 5080TIP3   OH236874   1.391   0.530   7.171 -0.5460 -0.3456  0.1056
 5080TIP3    H136875   1.483   0.510   7.155 -0.4523 -0.1514  0.4035
 5080TIP3    H236876   1.391   0.585   7.249 -1.0901 -2.2394  1.5269
 5081TIP3   OH236877   6.135   0.233   0.956 -0.4361  0.1316 -0.0385
 5081TIP3    H136878   6.123   0.142   0.929  0.7381 -0.7629  2.1542
 5081TIP3    H236879   6.101   0.236   1.046  0.5993  1.5403  0.3495
 5082TIP3   OH236880   3.815   1.355   7.576  0.6931  0.3307  0.0637
 5082TIP3    H136881   3.812   1.446   7.547  1.3817 -0.0567 -1.3065
 5082TIP3    H236882   3.867   1.357   7.656  1.3770  1.0540 -0.3828
 5083TIP3   OH236883   2.625   6.568   6.766  0.1804 -0.5565 -0.2798
 5083TIP3    H136884   2.665   6.509   6.830 -0.4221 -1.4157 -0.6745
 5083TIP3    H236885   2.633   6.522   6.683 -1.3565 -0.6207 -0.4154
 5084TIP3   OH236886   0.391   1.082   1.312  0.3959 -0.0697  0.2844
 5084TIP3    H136887   0.479   1.098   1.345 -0.3583  0.1443  2.3045
 5084TIP3    H236888   0.333   1.107   1.384 -1.4610  2.0547 -1.7459
 5085TIP3   OH236889   2.440   6.488   8.388  0.3786  0.6083 -0.3062
 5085TIP3    H136890   2.394   6.571   8.375 -0.4274  0.7807  2.8618
 5085TIP3    H236891   2.527   6.513   8.418 -0.3091  0.4394  2.0475
 5086TIP3   OH236892   2.308   1.661   1.162  0.5002  1.2119 -0.1121
 5086TIP3    H136893   2.245   1.623   1.223  1.5159  1.1082  0.8892
 5086TIP3    H236894   2.288   1.618   1.078  2.0123 -2.1471  1.0844
 5087TIP3   OH236895   3.642   5.668   1.602 -0.1164 -0.0535 -0.1807
 5087TIP3    H136896   3.728   5.649   1.565  0.0357 -0.7980  0.4972
 5087TIP3    H236897   3.644   5.762   1.622  0.3838  0.0167 -0.5486
 5088TIP3   OH236898   1.327   3.024   7.896  0.3048  0.2767  0.2025
 5088TIP3    H136899   1.307   3.007   7.803  0.5135  2.1558 -0.2150
 5088TIP3    H236900   1.251   2.991   7.943 -0.3984  0.4970 -0.7525
 5089TIP3   OH236901   3.576   0.075   6.485 -0.5401 -0.1696 -0.3255
 5089TIP3    H136902   3.603   0.140   6.549 -0.2571 -1.2203  0.6569
 5089TIP3    H236903   3.482   0.091   6.473 -0.6074  0.0267  0.3850
 5090TIP3   OH236904   6.910   0.361   6.663  0.1338  0.2593 -0.6230
 5090TIP3    H136905   6.819   0.390   6.664 -0.5357 -1.7038  0.4493
 5090TIP3    H236906   6.960   0.440   6.644 -1.6793  1.6912  0.2583
 5091TIP3   OH236907   6.401   0.567   0.139 -0.4366  0.0119 -0.0480
 5091TIP3    H136908   6.393   0.630   0.211  0.4727  1.6649 -1.3155
 5091TIP3    H236909   6.326   0.587   0.082  0.6322  0.9804 -1.1733
 5092TIP3   OH236910   0.712   2.514   1.719  0.0100 -0.4334  0.2548
 5092TIP3    H136911   0.797   2.555   1.702  0.1934 -0.1698  1.6622
 5092TIP3    H236912   0.664   2.523   1.637  1.6232 -1.3463 -0.8602
 5093TIP3   OH236913   6.226   3.659   1.512  0.7236 -0.1945  0.0760
 5093TIP3    H136914   6.205   3.740   1.559  0.5783 -0.8542  1.1936
 5093TIP3    H236915   6.144   3.636   1.467  1.1042  0.8907 -1.2335
 5094TIP3   OH236916   3.093   1.454   0.306 -0.0822 -0.2902  0.3778
 5094TIP3    H136917   3.102   1.517   0.234 -0.9787  0.7195  1.1251
 5094TIP3    H236918   3.182   1.439   0.337  0.1844  0.2494 -0.1122
 5095TIP3   OH236919   3.446   1.761   8.068 -0.2686 -0.3955 -0.2515
 5095TIP3    H136920   3.522   1.788   8.017  1.5559  2.3767  3.4608
 5095TIP3    H236921   3.470   1.674   8.101  0.6852 -0.1225 -0.1968
 5096TIP3   OH236922   1.210   0.718   8.510 -0.6765 -0.0031  0.2207
 5096TIP3    H136923   1.223   0.623   8.504 -1.9438 -0.3137  1.7581
 5096TIP3    H236924   1.298   0.753   8.522 -0.1990 -0.9885 -0.2609
 5097TIP3   OH236925   6.132   5.698   1.744  0.0294 -0.0743 -0.0723
 5097TIP3    H136926   6.202   5.679   1.807 -0.0568  0.6882  0.2685
 5097TIP3    H236927   6.171   5.678   1.659  0.4264 -0.3322  0.1630
 5098TIP3   OH236928   1.416   4.339   1.222  0.1721 -0.1556  0.3400
 5098TIP3    H136929   1.337   4.389   1.201  0.4683  0.6694  1.1370
 5098TIP3    H236930   1.487   4.392   1.188  0.3632 -1.3211 -1.1765
 5099TIP3   OH236931   1.589   4.042   0.851  0.2438 -0.4313  0.2228
 5099TIP3    H136932   1.590   3.953   0.816  0.8114  0.1783 -1.4139
 5099TIP3    H236933   1.671   4.048   0.901 -0.4812 -1.2468  1.5937
 5100TIP3   OH236934   6.317   4.521   2.884  0.0527  0.0738 -0.0414
 5100TIP3    H136935   6.284   4.433   2.905  0.0083  0.2773  0.7615
 5100TIP3    H236936   6.402   4.525   2.927  0.7765 -0.1366 -1.3970
 5101TIP3   OH236937   6.207   4.191   2.358  0.4638  0.2397 -0.2460
 5101TIP3    H136938   6.211   4.111   2.411  0.3699  0.5776  0.2744
 5101TIP3    H236939   6.263   4.173   2.283 -1.8142 -1.4595 -1.6892
 5102TIP3   OH236940   1.695   0.251   3.036 -0.4623 -0.0685  0.2887
 5102TIP3    H136941   1.687   0.159   3.062 -1.7484 -1.0582 -3.1237
 5102TIP3    H236942   1.613   0.291   3.065 -0.3777 -0.2650  0.8079
 5103TIP3   OH236943   4.605   0.394   1.326 -0.6223 -0.7243  0.2761
 5103TIP3    H136944   4.566   0.338   1.260  0.0131 -1.1863  0.2827
 5103TIP3    H236945   4.615   0.479   1.282 -0.2189 -1.0234 -0.2199
 5104TIP3   OH236946   1.683   5.174   7.615  0.0088  0.5352 -0.1090
 5104TIP3    H136947   1.730   5.114   7.558 -1.1518 -1.4245  0.8888
 5104TIP3    H236948   1.591   5.164   7.589 -0.3908  0.5753  1.2046
 5105TIP3   OH236949   4.626   3.615   2.301  0.6159 -0.0037  0.2343
 5105TIP3    H136950   4.575   3.541   2.336  0.9273  0.3065  1.3527
 5105TIP3    H236951   4.574   3.692   2.324  0.6501  0.1869 -0.3125
 5106TIP3   OH236952   0.949   5.029   0.819 -0.1847 -0.1003 -0.0658
 5106TIP3    H136953   0.892   4.982   0.758 -0.0620 -0.0057 -0.2553
 5106TIP3    H236954   1.031   4.979   0.819 -0.6710 -0.9509  1.1518
 5107TIP3   OH236955   0.635   6.478   2.364  0.7481  0.6146  0.1316
 5107TIP3    H136956   0.704   6.439   2.418 -0.7583 -1.4071  0.7236
 5107TIP3    H236957   0.555   6.465   2.415 -0.5084  0.1007 -1.8604
 5108TIP3   OH236958   3.069   0.282   7.642  0.0092 -0.1115 -0.1745
 5108TIP3    H136959   2.986   0.238   7.626  0.7050 -0.8671 -1.9939
 5108TIP3    H236960   3.108   0.293   7.555  1.1870  1.4830  0.5129
 5109TIP3   OH236961   2.175   1.118   1.603  0.0919  0.5273 -0.1414
 5109TIP3    H136962   2.183   1.086   1.693  1.5025 -0.4476 -0.5662
 5109TIP3    H236963   2.141   1.043   1.554  0.5257  0.6428 -0.6288
 5110TIP3   OH236964   1.915   3.866   1.977  0.0610 -0.0280 -0.1078
 5110TIP3    H136965   1.840   3.925   1.971  0.8670  0.9034 -1.8735
 5110TIP3    H236966   1.927   3.853   2.071 -1.3925  0.9903  0.2629
 5111TIP3   OH236967   0.581   4.178   7.845  0.3009  0.0326  0.4181
 5111TIP3    H136968   0.649   4.114   7.824 -0.9213 -1.5155  0.9421
 5111TIP3    H236969   0.578   4.236   7.770  1.0544 -0.8968 -0.3559
 5112TIP3   OH236970   1.750   3.288   0.255 -0.3663  0.6326  0.8248
 5112TIP3    H136971   1.710   3.218   0.202  0.1858  0.9410 -0.0234
 5112TIP3    H236972   1.682   3.355   0.262 -0.7585  0.1953  1.2954
 5113TIP3   OH236973   2.621   2.231   0.760 -0.0117  0.1205 -0.0328
 5113TIP3    H136974   2.599   2.232   0.667  1.9583 -1.3720 -0.5697
 5113TIP3    H236975   2.536   2.226   0.805 -1.0854  2.4520 -1.6273
 5114TIP3   OH236976   5.667   4.205   7.202  0.3243  0.1148 -0.4963
 5114TIP3    H136977   5.616   4.155   7.265  0.2022 -0.8857 -1.3679
 5114TIP3    H236978   5.724   4.260   7.256 -0.9946  0.5748  0.4897
 5115TIP3   OH236979   5.518   6.707   1.256 -0.0265 -0.1510 -0.6062
 5115TIP3    H136980   5.457   6.772   1.289  0.8031  0.2601  0.1753
 5115TIP3    H236981   5.574   6.686   1.331  1.3536  0.1568 -1.4973
 5116TIP3   OH236982   0.329   6.817   7.622 -0.0787 -0.4082  0.2952
 5116TIP3    H136983   0.414   6.805   7.666 -0.4749  1.7716  1.7901
 5116TIP3    H236984   0.275   6.745   7.655  0.4128 -0.2930  1.3766
 5117TIP3   OH236985   5.975   2.095   2.008 -0.0109  0.3948 -0.7201
 5117TIP3    H136986   5.915   2.082   1.935 -0.6097 -0.8892 -0.0464
 5117TIP3    H236987   6.061   2.075   1.972 -0.4777 -1.9146 -0.7200
 5118TIP3   OH236988   4.752   2.034   1.663  0.0139 -0.4977 -0.4330
 5118TIP3    H136989   4.777   1.985   1.585 -1.6241  1.4394 -2.3159
 5118TIP3    H236990   4.661   2.008   1.679  0.2014 -0.5618  0.5997
 5119TIP3   OH236991   5.605   0.185   0.645  0.1185 -0.5107  0.3024
 5119TIP3    H136992   5.658   0.133   0.585  0.3769  0.0548  0.0286
 5119TIP3    H236993   5.515   0.163   0.621  0.2251 -0.8171  0.1753
 5120TIP3   OH236994   0.577   3.831   2.692  0.5043  0.1833 -0.8029
 5120TIP3    H136995   0.620   3.777   2.758 -1.2132  0.1599  0.3572
 5120TIP3    H236996   0.645   3.846   2.626  1.6720 -1.5439 -0.0833
 5121TIP3   OH236997   0.916   5.166   7.703 -0.7129 -0.3430 -0.4678
 5121TIP3    H136998   0.940   5.075   7.719 -1.8166 -0.6377 -0.3712
 5121TIP3    H236999   0.892   5.200   7.789  0.5348  0.3180 -0.3607
 5122TIP3   OH237000   3.839   0.469   1.609 -0.4575  0.8075 -0.4267
 5122TIP3    H137001   3.823   0.451   1.517  0.0209  0.1816 -0.3961
 5122TIP3    H237002   3.795   0.552   1.626 -0.6141  0.8845 -1.1974
 5123TIP3   OH237003   6.279   2.305   6.992  0.3015 -0.2107  0.1336
 5123TIP3    H137004   6.353   2.244   6.990  0.1892 -0.3897  1.0123
 5123TIP3    H237005   6.207   2.255   7.030 -0.4271 -0.1856 -1.1565
 5124TIP3   OH237006   0.094   0.654   1.538 -0.3122 -0.1223  0.0497
 5124TIP3    H137007   0.023   0.662   1.475  0.1181  1.5026 -0.2893
 5124TIP3    H237008   0.127   0.565   1.526 -1.1014 -0.2846 -1.0899
 5125TIP3   OH237009   1.598   5.671   1.316 -0.3352  0.2080  0.7757
 5125TIP3    H137010   1.555   5.587   1.331 -0.4997  0.0996 -0.1999
 5125TIP3    H237011   1.547   5.734   1.366 -1.0694 -0.0616  0.3707
 5126TIP3   OH237012   0.785   4.373   7.307 -0.3819 -0.7120  0.1116
 5126TIP3    H137013   0.699   4.378   7.265 -0.3726 -1.8174 -0.0525
 5126TIP3    H237014   0.766   4.376   7.401 -0.6137 -1.1257  0.0801
 5127TIP3   OH237015   2.808   5.976   1.793 -0.6050  0.6596 -0.0960
 5127TIP3    H137016   2.723   5.967   1.836 -0.2516 -1.3267  0.2663
 5127TIP3    H237017   2.862   6.020   1.858 -0.3943 -1.3011  1.1272
 5128TIP3   OH237018   4.869   1.648   2.521  0.2113  0.3908 -0.4273
 5128TIP3    H137019   4.924   1.596   2.580  0.6174 -1.0179 -1.9936
 5128TIP3    H237020   4.930   1.687   2.459  0.0391  3.5900  1.2045
 5129TIP3   OH237021   3.903   6.063   2.402 -0.0248 -0.2078 -0.2874
 5129TIP3    H137022   3.952   6.001   2.456  2.4156  1.0401 -0.9431
 5129TIP3    H237023   3.917   6.034   2.312 -0.7642  0.0147 -0.4854
 5130TIP3   OH237024   0.483   5.790   1.746 -0.1638  0.3743  0.2574
 5130TIP3    H137025   0.482   5.734   1.668 -0.3967  0.7801 -0.0359
 5130TIP3    H237026   0.443   5.737   1.815  3.7123 -1.6241  1.2623
 5131TIP3   OH237027   0.789   0.123   7.033  0.1741  0.1678 -0.0626
 5131TIP3    H137028   0.775   0.127   6.939  0.3115  2.0009 -0.0350
 5131TIP3    H237029   0.705   0.092   7.068  0.2313 -0.8509 -0.7881
 5132TIP3   OH237030   5.896   0.411   0.335 -0.3840 -0.7801  0.1905
 5132TIP3    H137031   5.964   0.473   0.360  0.5045 -1.2233 -1.0223
 5132TIP3    H237032   5.817   0.464   0.327 -0.2891 -0.3164  1.9236
 5133TIP3   OH237033   5.041   6.883   8.175  0.3175  0.0171  0.1731
 5133TIP3    H137034   4.989   6.956   8.139  0.4271 -0.2831 -0.6117
 5133TIP3    H237035   5.046   6.820   8.103  0.3352 -0.7118  0.8093
 5134TIP3   OH237036   6.805   1.051   6.709  0.4899 -0.1445 -0.7510
 5134TIP3    H137037   6.836   1.033   6.797 -1.2457 -2.0996 -0.4664
 5134TIP3    H237038   6.875   1.021   6.651  1.1354  0.0496 -0.0755
 5135TIP3   OH237039   4.784   1.347   2.521 -0.3818  0.4788 -0.1176
 5135TIP3    H137040   4.702   1.299   2.526 -0.2952  0.4701  2.1202
 5135TIP3    H237041   4.758   1.435   2.495 -1.1287  0.4760  0.5651
 5136TIP3   OH237042   5.754   3.483   2.393  0.3779 -0.1386  0.6096
 5136TIP3    H137043   5.683   3.439   2.441  0.9555  0.2515  1.8503
 5136TIP3    H237044   5.834   3.446   2.429  0.8766  1.6173  1.4100
 5137TIP3   OH237045   4.296   4.124   2.340 -0.6442 -0.4389 -0.3070
 5137TIP3    H137046   4.391   4.130   2.344 -0.4957  1.0326 -3.0586
 5137TIP3    H237047   4.266   4.215   2.348 -1.7472 -0.7735 -0.4454
 5138TIP3   OH237048   4.045   0.976   0.049  1.1293 -0.2049 -0.3239
 5138TIP3    H137049   3.988   0.926  -0.010  1.7459 -1.0843 -0.1817
 5138TIP3    H237050   3.990   0.994   0.126 -0.1327  2.0896 -1.6251
 5139TIP3   OH237051   5.980   2.484   0.172 -0.2079  0.4970  0.3944
 5139TIP3    H137052   5.906   2.541   0.149 -0.5062 -0.4466 -1.0827
 5139TIP3    H237053   6.045   2.544   0.208 -0.9707  1.6020 -0.0053
 5140TIP3   OH237054   5.527   4.839   7.353 -0.4618 -0.3236 -0.5612
 5140TIP3    H137055   5.515   4.764   7.412 -0.2413 -0.2548 -0.4288
 5140TIP3    H237056   5.467   4.822   7.281 -1.5055  0.0933  0.1798
 5141TIP3   OH237057   5.971   3.235   1.210  0.0972  0.1223 -0.4186
 5141TIP3    H137058   5.908   3.221   1.139 -0.8955  0.7709  0.3060
 5141TIP3    H237059   5.998   3.146   1.235  0.6158 -0.1073 -1.7118
 5142TIP3   OH237060   0.316   3.091   2.437  0.4902  0.4783  0.3828
 5142TIP3    H137061   0.406   3.122   2.427 -0.0822  1.5531 -2.8043
 5142TIP3    H237062   0.321   2.997   2.418  0.8843  0.6986 -0.7336
 5143TIP3   OH237063   6.255   2.548   2.757  0.0999 -0.1558 -0.4076
 5143TIP3    H137064   6.328   2.578   2.703  1.3074  0.0049  1.2180
 5143TIP3    H237065   6.178   2.591   2.720  1.1356  1.3557 -0.9171
 5144TIP3   OH237066   4.315   4.469   2.092 -0.1546  0.2620 -0.5028
 5144TIP3    H137067   4.235   4.418   2.108 -0.1592 -0.1863 -1.7695
 5144TIP3    H237068   4.339   4.447   2.002  1.8364 -0.2044  0.0879
 5145TIP3   OH237069   6.161   5.587   8.436  0.0503 -0.1165 -0.2236
 5145TIP3    H137070   6.127   5.522   8.497 -0.3929 -1.4362 -1.7927
 5145TIP3    H237071   6.137   5.672   8.474 -1.4271 -0.9280  0.7218
 5146TIP3   OH237072   1.630   4.285   1.926  0.1734 -0.0342 -0.2597
 5146TIP3    H137073   1.689   4.274   1.851  3.9912  0.1153  2.4222
 5146TIP3    H237074   1.640   4.377   1.951 -0.3075 -0.2911  0.9499
 5147TIP3   OH237075   3.795   2.057   8.448 -0.7744  0.6502  0.0816
 5147TIP3    H137076   3.753   2.143   8.452  0.2067  1.1547 -0.0906
 5147TIP3    H237077   3.844   2.058   8.366 -0.0355  0.2767  0.5122
 5148TIP3   OH237078   4.348   2.547   8.308  0.2376  0.1409  0.1430
 5148TIP3    H137079   4.356   2.550   8.403 -1.3677 -0.8202  0.3394
 5148TIP3    H237080   4.438   2.537   8.276  0.7620  0.1850  1.5642
 5149TIP3   OH237081   6.609   3.512   8.061 -0.0023  0.6593  0.1999
 5149TIP3    H137082   6.682   3.571   8.079  1.2885  0.0886 -2.5662
 5149TIP3    H237083   6.635   3.465   7.982 -2.8000 -0.5828 -0.1168
 5150TIP3   OH237084   4.724   1.320   7.418 -0.6165  0.0468 -0.3396
 5150TIP3    H137085   4.720   1.401   7.368 -0.7540  0.4383  0.2935
 5150TIP3    H237086   4.643   1.320   7.470 -0.1835 -0.0541  0.3360
 5151TIP3   OH237087   0.063   2.827   7.341 -0.1374 -0.2809 -0.3049
 5151TIP3    H137088   0.133   2.877   7.383  1.3740 -1.4250 -1.4137
 5151TIP3    H237089   0.013   2.893   7.292 -0.6099  0.7284  1.4363
 5152TIP3   OH237090   6.289   4.560   8.426 -0.1536 -0.0823  0.3626
 5152TIP3    H137091   6.246   4.556   8.511 -0.0205  2.7343  0.6692
 5152TIP3    H237092   6.382   4.566   8.446 -0.0080 -0.8591 -0.0556
 5153TIP3   OH237093   0.666   3.218   0.157  0.0635 -0.2172  0.4078
 5153TIP3    H137094   0.664   3.220   0.253  2.3695  3.0896  0.5946
 5153TIP3    H237095   0.574   3.215   0.130 -0.6371 -1.0641  2.6845
 5154TIP3   OH237096   5.113   1.922   3.121 -0.0073 -0.4698  0.0489
 5154TIP3    H137097   5.046   1.990   3.125 -0.8935 -1.2899  4.4031
 5154TIP3    H237098   5.193   1.967   3.148  0.1273 -0.4978 -0.3020
 5155TIP3   OH237099   2.403   4.200   1.777  0.2479 -0.8380  0.2014
 5155TIP3    H137100   2.328   4.259   1.776  0.5408 -0.4457  0.7088
 5155TIP3    H237101   2.418   4.182   1.870  0.8326 -0.8451  0.1110
 5156TIP3   OH237102   3.876   6.072   1.794 -0.0621  0.0605  0.5392
 5156TIP3    H137103   3.839   6.050   1.709 -0.6022  1.8348  0.2864
 5156TIP3    H237104   3.948   6.010   1.806 -0.7946 -1.0459 -0.6101
 5157TIP3   OH237105   2.505   0.170   8.012  0.6314  0.1913 -0.2500
 5157TIP3    H137106   2.571   0.110   7.978 -0.9161 -1.2895 -0.8381
 5157TIP3    H237107   2.533   0.256   7.982  1.2427 -0.6367 -2.2529
 5158TIP3   OH237108   4.414   0.405   8.041 -0.3856 -0.3909  0.0522
 5158TIP3    H137109   4.442   0.325   7.997 -0.6343 -0.6333  0.3287
 5158TIP3    H237110   4.323   0.389   8.064 -0.2499 -0.2902  0.6925
 5159TIP3   OH237111   5.177   6.647   0.530 -0.1641 -0.2487 -0.0585
 5159TIP3    H137112   5.258   6.648   0.581 -0.6111  0.0915  0.6616
 5159TIP3    H237113   5.109   6.626   0.594 -0.9058  1.3789 -0.2618
 5160TIP3   OH237114   6.111   0.995   1.912 -0.0868  0.3633 -0.6322
 5160TIP3    H137115   6.165   0.931   1.958 -0.0167  1.1712  0.4363
 5160TIP3    H237116   6.031   0.947   1.890 -0.3679  0.0874  0.8459
 5161TIP3   OH237117   6.788   4.755   0.459  0.0273  0.1050  0.2172
 5161TIP3    H137118   6.801   4.834   0.510 -0.5259 -1.1218  2.3666
 5161TIP3    H237119   6.876   4.728   0.432  0.5529 -0.1978  2.1200
 5162TIP3   OH237120   5.064   1.145   2.289  0.3889 -0.9665 -0.1816
 5162TIP3    H137121   4.984   1.163   2.338  0.7251 -0.4922  0.2019
 5162TIP3    H237122   5.126   1.213   2.317  1.2524 -1.9180  0.2806
 5163TIP3   OH237123   4.546   0.008   7.452  0.0119  0.2861 -0.2091
 5163TIP3    H137124   4.552   0.016   7.547 -1.6693 -2.3345  0.2154
 5163TIP3    H237125   4.623  -0.044   7.428  1.0408  1.8659 -0.5029
 5164TIP3   OH237126   3.176   0.198   0.207  0.5387  0.5520 -0.0127
 5164TIP3    H137127   3.124   0.215   0.129 -1.1205  2.0774  1.3523
 5164TIP3    H237128   3.141   0.117   0.242 -0.8340  1.4417  0.7632
 5165TIP3   OH237129   2.554   4.805   7.098 -0.4445 -0.4458 -0.0694
 5165TIP3    H137130   2.510   4.738   7.046  1.3232 -0.8388 -1.0989
 5165TIP3    H237131   2.639   4.818   7.056  0.4641  0.2852  1.8709
 5166TIP3   OH237132   2.791   6.470   6.523  0.0487 -0.0031  0.1679
 5166TIP3    H137133   2.819   6.379   6.531 -0.5582 -0.2012  0.1647
 5166TIP3    H237134   2.860   6.512   6.472 -0.6040 -0.9504 -1.6119
 5167TIP3   OH237135   6.532   5.146   0.786 -0.0931  0.4017 -0.2064
 5167TIP3    H137136   6.526   5.200   0.707  0.8283  0.9499  0.0793
 5167TIP3    H237137   6.446   5.106   0.795  0.5546 -2.1382 -3.2342
 5168TIP3   OH237138   5.778   5.764   8.066 -0.1103 -0.4904  0.5349
 5168TIP3    H137139   5.815   5.832   8.122  0.1511 -0.9296  0.9088
 5168TIP3    H237140   5.743   5.699   8.127 -2.2168  0.2674  0.2083
 5169TIP3   OH237141   3.521   3.512   1.608  0.7823  0.1020 -0.0230
 5169TIP3    H137142   3.606   3.554   1.611  0.7723  0.0805  0.9670
 5169TIP3    H237143   3.540   3.418   1.607  0.7738  0.1007 -0.0495
 5170TIP3   OH237144   6.812   1.423   7.341  0.3506 -0.0038  0.2365
 5170TIP3    H137145   6.767   1.477   7.276  0.7226  0.6483  0.5108
 5170TIP3    H237146   6.798   1.469   7.424  2.1987  0.6590  0.2086
 5171TIP3   OH237147   4.668   2.872   0.706  0.3550 -0.8730  0.2190
 5171TIP3    H137148   4.680   2.835   0.618  0.4430 -0.7485  0.1779
 5171TIP3    H237149   4.738   2.937   0.714 -1.3362  1.2369 -0.7688
 5172TIP3   OH237150   2.213   4.897   8.444 -0.0300  0.1408  0.6337
 5172TIP3    H137151   2.168   4.979   8.423  0.1393  0.3243  0.9620
 5172TIP3    H237152   2.234   4.905   8.537  2.3110  0.8807  0.1076
 5173TIP3   OH237153   6.111   5.846   0.011  0.1527 -0.0430 -0.1087
 5173TIP3    H137154   6.188   5.880   0.057  0.7240  1.6803 -2.1799
 5173TIP3    H237155   6.073   5.923  -0.033 -0.8847 -1.3926 -1.7149
 5174TIP3   OH237156   5.476   4.228   8.436  0.1604 -0.5680 -0.5479
 5174TIP3    H137157   5.473   4.220   8.341 -1.9979 -2.1025 -0.4040
 5174TIP3    H237158   5.540   4.298   8.452 -0.7085  0.9539 -3.1763
 5175TIP3   OH237159   6.485   6.431   7.448 -0.0672 -0.5351 -0.3893
 5175TIP3    H137160   6.473   6.479   7.366 -1.5055 -2.3469 -1.3239
 5175TIP3    H237161   6.409   6.456   7.502 -0.0198 -0.6129 -0.2862
 5176TIP3   OH237162   2.106   4.612   0.397 -0.6382  0.2238  0.0173
 5176TIP3    H137163   2.180   4.552   0.396 -0.5951  0.2725 -0.7831
 5176TIP3    H237164   2.058   4.591   0.477 -0.8032 -1.1119 -0.4083
 5177TIP3   OH237165   4.157   5.008   8.117 -0.1885  0.1033 -0.5517
 5177TIP3    H137166   4.182   5.035   8.028 -3.2504  0.2468 -1.4653
 5177TIP3    H237167   4.129   5.089   8.160 -1.4332 -0.3575 -0.4593
 5178TIP3   OH237168   3.028   1.563   7.557 -0.0242 -0.4294 -0.2052
 5178TIP3    H137169   3.057   1.603   7.474  0.5994 -0.4096  0.0176
 5178TIP3    H237170   3.030   1.635   7.620 -2.9005  0.1876 -0.6660
 5179TIP3   OH237171   4.569   5.031   0.319  0.0184  0.0595  0.6235
 5179TIP3    H137172   4.608   4.958   0.271 -1.8934 -1.5609  1.3962
 5179TIP3    H237173   4.516   5.077   0.254  0.3597  0.1050  0.3751
 5180TIP3   OH237174   3.722   1.575   6.967 -0.3254  0.4368  0.1254
 5180TIP3    H137175   3.637   1.600   6.930  0.4429  0.9932 -1.3520
 5180TIP3    H237176   3.725   1.480   6.960 -0.6089  0.4613 -0.3448
 5181TIP3   OH237177   6.199   2.934   7.916  0.1185 -0.2106 -0.2108
 5181TIP3    H137178   6.124   2.898   7.964  0.6016  0.1642  0.8602
 5181TIP3    H237179   6.184   2.908   7.825 -0.8390 -0.9205  0.1315
 5182TIP3   OH237180   4.459   2.910   8.473 -0.3163 -0.6456  0.5189
 5182TIP3    H137181   4.532   2.908   8.412 -0.3822 -2.8755  0.4356
 5182TIP3    H237182   4.480   2.843   8.538 -2.9410 -2.4884 -0.3669
 5183TIP3   OH237183   6.134   4.922   1.648 -0.2310 -0.5214  0.3503
 5183TIP3    H137184   6.098   4.912   1.735 -3.1056 -0.3113 -0.7152
 5183TIP3    H237185   6.106   5.009   1.619  2.4662  0.3195 -0.0718
 5184TIP3   OH237186   2.955   5.439   0.571  0.4205 -0.2772 -0.0448
 5184TIP3    H137187   2.981   5.359   0.525 -0.6516 -1.1484  0.8333
 5184TIP3    H237188   2.862   5.428   0.590 -0.6863  2.6058 -2.7822
 5185TIP3   OH237189   3.781   5.887   7.382 -0.5248 -0.3445  0.0700
 5185TIP3    H137190   3.830   5.814   7.421  4.0818  1.9664 -0.7088
 5185TIP3    H237191   3.793   5.876   7.288 -0.3726  0.9705 -0.0773
 5186TIP3   OH237192   0.981   6.715   0.291  0.6874 -0.1295 -0.2179
 5186TIP3    H137193   0.905   6.768   0.264  1.2654  0.1773 -1.2648
 5186TIP3    H237194   1.056   6.761   0.255  1.4515 -0.0605  1.3901
 5187TIP3   OH237195   4.580   0.004   7.726  0.3941 -0.1214 -0.3730
 5187TIP3    H137196   4.649   0.045   7.778 -1.4313  0.4051  1.7920
 5187TIP3    H237197   4.616  -0.082   7.703  2.0313  0.3990  0.0598
 5188TIP3   OH237198   5.746   3.442   1.127 -0.2567 -0.8558 -0.0638
 5188TIP3    H137199   5.815   3.380   1.152 -0.9410 -1.6380 -0.0926
 5188TIP3    H237200   5.792   3.508   1.075  0.4459 -1.4431 -0.2098
 5189TIP3   OH237201   4.556   1.997   2.172 -0.1001 -0.3186 -0.0747
 5189TIP3    H137202   4.595   1.937   2.108  1.2281  1.6234 -1.2009
 5189TIP3    H237203   4.593   1.970   2.256  0.8262 -0.7910 -0.6165
 5190TIP3   OH237204   3.569   5.802   0.490  0.3607  0.1983  0.1522
 5190TIP3    H137205   3.513   5.853   0.549 -1.1819  0.8283 -1.7679
 5190TIP3    H237206   3.509   5.749   0.439  1.7774 -1.5891  0.2443
 5191TIP3   OH237207   4.870   2.990   1.516  0.1391  0.2215  0.0070
 5191TIP3    H137208   4.893   3.081   1.499  1.6862 -0.1794 -0.1857
 5191TIP3    H237209   4.937   2.939   1.471 -1.5953 -1.0752 -1.2157
 5192TIP3   OH237210   4.792   1.721   6.768 -0.1319  0.2153 -0.0376
 5192TIP3    H137211   4.730   1.655   6.738 -1.3550  0.0681  2.5675
 5192TIP3    H237212   4.739   1.785   6.815  1.4465  1.1555  0.5553
 5193TIP3   OH237213   4.452   3.038   1.865  0.3712  0.0276 -0.0643
 5193TIP3    H137214   4.474   3.008   1.777  0.6677  1.0029 -0.3293
 5193TIP3    H237215   4.523   3.004   1.920 -0.6765 -2.0137  0.1048
 5194TIP3   OH237216   6.457   3.712   1.260 -0.4915  0.9329  0.7084
 5194TIP3    H137217   6.483   3.689   1.171 -2.3142  0.2231  0.3139
 5194TIP3    H237218   6.498   3.645   1.315 -0.3472  0.6514  0.2648
 5195TIP3   OH237219   6.708   5.780   7.467 -0.2518  0.5488  0.3829
 5195TIP3    H137220   6.768   5.854   7.466  0.0823  0.2881  0.6531
 5195TIP3    H237221   6.641   5.804   7.531 -0.1105  0.5946  0.5156
 5196TIP3   OH237222   3.829   0.477   8.051  0.3126 -0.1360 -0.1595
 5196TIP3    H137223   3.752   0.454   7.999 -0.9647 -1.4052  2.1576
 5196TIP3    H237224   3.903   0.462   7.992 -1.0147 -2.2295 -1.3990
 5197TIP3   OH237225   5.314   5.233   0.261 -0.0627  0.5451  0.3285
 5197TIP3    H137226   5.233   5.280   0.282  0.7212  1.5276  1.2542
 5197TIP3    H237227   5.382   5.278   0.311  1.3456  0.7916 -1.7061
 5198TIP3   OH237228   4.587   3.595   7.518 -0.0657  0.1711  0.6038
 5198TIP3    H137229   4.572   3.633   7.432  0.0779  0.5116  0.7280
 5198TIP3    H237230   4.521   3.526   7.526  0.0887 -0.0334  0.1198
 5199TIP3   OH237231   5.784   2.612   0.906  0.7361  0.0803 -0.0944
 5199TIP3    H137232   5.706   2.615   0.961 -0.2836 -0.7081 -1.4254
 5199TIP3    H237233   5.810   2.703   0.895 -0.5124  0.4331 -0.3051
 5200TIP3   OH237234   1.904   4.306   1.352  0.1036 -0.4148 -0.4343
 5200TIP3    H137235   1.939   4.227   1.311 -0.3259 -0.4408 -0.7603
 5200TIP3    H237236   1.960   4.321   1.428 -0.3384 -1.5303  0.1374
 5201TIP3   OH237237   5.559   1.184   7.090  0.1299  0.1158 -0.7762
 5201TIP3    H137238   5.475   1.184   7.045  0.3946 -3.2398 -1.5368
 5201TIP3    H237239   5.535   1.184   7.183 -0.7481 -0.4211 -0.9798
 5202TIP3   OH237240   4.294   5.904   7.384 -0.3531  0.4798 -0.3413
 5202TIP3    H137241   4.222   5.864   7.433  0.0113  0.0113 -0.1734
 5202TIP3    H237242   4.279   5.878   7.293  0.0761 -0.3563 -0.1834
 5203TIP3   OH237243   1.254   4.457   1.954 -0.2501  0.5522 -0.1922
 5203TIP3    H137244   1.204   4.405   1.891 -0.0164  1.0375 -0.7848
 5203TIP3    H237245   1.319   4.396   1.989  1.3212  0.8988 -2.3198
 5204TIP3   OH237246   6.511   0.431   2.675 -0.5704 -0.7280 -0.5281
 5204TIP3    H137247   6.438   0.405   2.732 -0.6061 -2.8408 -1.4417
 5204TIP3    H237248   6.479   0.509   2.629 -2.2411 -1.5278 -0.8155
 5205TIP3   OH237249   5.599   2.642   1.976 -0.3151 -0.4231 -0.1106
 5205TIP3    H137250   5.532   2.677   1.917 -0.2425  0.4675  0.3046
 5205TIP3    H237251   5.602   2.706   2.048  1.1034 -0.3414 -0.2135
 5206TIP3   OH237252   1.191   5.139   6.894 -0.2519 -0.1519 -0.1309
 5206TIP3    H137253   1.277   5.140   6.937 -1.1833  0.9972  1.8448
 5206TIP3    H237254   1.130   5.169   6.961 -2.2333 -0.9459 -1.4704
 5207TIP3   OH237255   4.042   4.305   2.015  0.3150  0.1427 -0.1995
 5207TIP3    H137256   4.050   4.224   1.963 -1.5563 -0.1063 -0.1818
 5207TIP3    H237257   3.991   4.364   1.960  0.4796  0.8078  0.3475
 5208TIP3   OH237258   4.844   3.503   0.265  0.1201 -0.2461 -0.0684
 5208TIP3    H137259   4.826   3.588   0.306 -1.6909 -1.3927  1.6760
 5208TIP3    H237260   4.922   3.519   0.211  1.6229  1.8188  2.4554
 5209TIP3   OH237261   3.712   6.525   2.139  0.8236  0.0949 -0.4436
 5209TIP3    H137262   3.743   6.602   2.187 -2.4860  0.3740  1.5718
 5209TIP3    H237263   3.759   6.452   2.180  1.9514  0.7771 -0.4724
 5210TIP3   OH237264   5.329   1.609   8.148  0.4118 -0.1915  0.1303
 5210TIP3    H137265   5.292   1.690   8.182  0.4186 -0.3786  0.5971
 5210TIP3    H237266   5.278   1.589   8.070  0.8691  0.6334 -0.3895
 5211TIP3   OH237267   0.152   3.687   1.249 -0.0537 -0.2911  0.0222
 5211TIP3    H137268   0.210   3.662   1.178  0.6480  0.2286  0.4052
 5211TIP3    H237269   0.089   3.747   1.209  0.0743 -0.3396 -0.2508
 5212TIP3   OH237270   6.917   3.707   7.826 -0.1780 -0.0807 -0.1587
 5212TIP3    H137271   6.993   3.739   7.876  0.8963 -0.5704 -1.4192
 5212TIP3    H237272   6.946   3.623   7.790 -1.6543 -0.7135  0.0584
 5213TIP3   OH237273   0.291   5.365   1.375 -0.1500  0.6155  0.1960
 5213TIP3    H137274   0.236   5.379   1.451  1.6793 -0.9789  1.9412
 5213TIP3    H237275   0.300   5.270   1.369 -1.3349  0.5661 -2.9266
 5214TIP3   OH237276   3.668   3.187   8.211  0.0252  0.0884 -0.2812
 5214TIP3    H137277   3.688   3.238   8.132 -2.2924  0.3891 -0.7292
 5214TIP3    H237278   3.665   3.096   8.179  3.7296 -0.4839  0.4397
 5215TIP3   OH237279   0.317   0.642   1.959 -0.1492  0.4370  0.3381
 5215TIP3    H137280   0.334   0.575   2.025 -1.3723 -0.0267  0.2138
 5215TIP3    H237281   0.391   0.702   1.965  1.6662 -1.5828 -0.3804
 5216TIP3   OH237282   2.234   4.853   0.182 -0.0321 -0.1276 -0.5435
 5216TIP3    H137283   2.281   4.892   0.255  0.6717  0.1708 -1.1472
 5216TIP3    H237284   2.245   4.759   0.194  1.1380 -0.0573 -0.9279
 5217TIP3   OH237285   6.789   1.484   1.807 -0.3398 -0.3003  0.2522
 5217TIP3    H137286   6.712   1.528   1.771  1.2838  3.1933  0.5655
 5217TIP3    H237287   6.841   1.460   1.730 -0.0573  0.8114  0.0792
 5218TIP3   OH237288   6.168   5.095   7.403 -0.0477 -0.4028  0.3357
 5218TIP3    H137289   6.107   5.053   7.342 -0.0217 -1.6681  1.1304
 5218TIP3    H237290   6.249   5.044   7.395 -0.7792 -2.2326  3.1334
 5219TIP3   OH237291   1.985   3.612   0.409 -0.0333 -0.0416 -0.4641
 5219TIP3    H137292   2.016   3.648   0.326  1.4534  1.6317  0.7221
 5219TIP3    H237293   2.064   3.576   0.450 -0.8660 -1.4504 -0.0340
 5220TIP3   OH237294   1.291   6.084   8.318  0.2437 -0.2440 -0.1292
 5220TIP3    H137295   1.374   6.060   8.277 -0.1577  1.1733 -1.9245
 5220TIP3    H237296   1.310   6.167   8.362 -0.4402  0.7402 -1.5895
 5221TIP3   OH237297   2.351   5.926   7.586  0.2842  0.4106 -0.1587
 5221TIP3    H137298   2.361   6.022   7.590 -0.1115  0.4207  1.6978
 5221TIP3    H237299   2.282   5.912   7.522 -1.7624  1.5993  1.6465
 5222TIP3   OH237300   6.351   0.298   8.444 -0.3720  0.3644  0.1344
 5222TIP3    H137301   6.399   0.304   8.361 -1.7243 -1.4671 -0.8688
 5222TIP3    H237302   6.273   0.352   8.430 -1.2984 -1.0478 -0.3660
 5223TIP3   OH237303   6.711   2.210   7.233  0.3432 -0.0182  0.7508
 5223TIP3    H137304   6.725   2.116   7.222 -1.3414 -0.0912 -1.5552
 5223TIP3    H237305   6.797   2.245   7.256  1.8390 -1.7088 -1.7795
 5224TIP3   OH237306   5.484   6.411   6.680 -0.0967 -1.0541  0.1135
 5224TIP3    H137307   5.458   6.401   6.589 -0.6761 -0.4771  0.2087
 5224TIP3    H237308   5.436   6.488   6.711  1.9323  0.2289  0.2224
 5225TIP3   OH237309   5.389   4.744   1.308  0.8067 -0.3911 -0.3558
 5225TIP3    H137310   5.395   4.785   1.394 -0.9737  0.1221 -0.4333
 5225TIP3    H237311   5.359   4.814   1.250  1.3463 -0.8947 -1.2605
 5226TIP3   OH237312   5.135   6.407   7.911 -0.9396 -0.0202  0.3957
 5226TIP3    H137313   5.164   6.316   7.906  0.1554  0.3617 -0.6735
 5226TIP3    H237314   5.050   6.407   7.868 -0.6482 -0.4227 -0.1900
 5227TIP3   OH237315   6.179   2.101   0.363  0.4646  0.0785 -0.3351
 5227TIP3    H137316   6.224   2.067   0.285  1.3575 -0.3238  0.3373
 5227TIP3    H237317   6.096   2.134   0.330 -0.1950 -2.1937 -1.1303
 5228TIP3   OH237318   1.215   0.883   2.329  0.0852  0.2613 -0.7400
 5228TIP3    H137319   1.284   0.938   2.292  1.0514  0.4812  1.2525
 5228TIP3    H237320   1.249   0.794   2.323 -0.0288  0.2303 -0.9350
 5229TIP3   OH237321   2.403   1.282   2.314 -0.2140  0.2100 -0.0666
 5229TIP3    H137322   2.428   1.374   2.306 -0.6956  0.2858 -0.7470
 5229TIP3    H237323   2.325   1.283   2.369 -0.9700  0.3428 -1.1059
 5230TIP3   OH237324   3.087   0.404   0.607 -0.2499 -0.5069 -0.1467
 5230TIP3    H137325   3.049   0.446   0.530 -2.1747  0.1820  1.1181
 5230TIP3    H237326   3.113   0.318   0.576  1.5569  0.6642 -2.2101
 5231TIP3   OH237327   5.613   4.556   1.614  0.1024 -0.1039 -0.6057
 5231TIP3    H137328   5.668   4.613   1.560  0.8043 -1.1036 -0.9754
 5231TIP3    H237329   5.673   4.516   1.677 -0.7413  1.2380  1.1483
 5232TIP3   OH237330   1.037   1.972   8.505 -0.5942  0.1914  0.4432
 5232TIP3    H137331   1.079   2.057   8.523 -1.2496  0.5971  0.1040
 5232TIP3    H237332   0.948   1.982   8.540 -0.3412 -0.7537  1.4010
 5233TIP3   OH237333   2.801   2.721   2.339  0.1278 -0.2271 -0.6169
 5233TIP3    H137334   2.814   2.677   2.255  0.9963  1.2441 -1.2738
 5233TIP3    H237335   2.743   2.794   2.319  0.1308 -0.0125  0.1331
 5234TIP3   OH237336   3.382   3.037   8.069  0.0845  0.4696  0.1624
 5234TIP3    H137337   3.408   3.122   8.033  0.4710  0.9171  1.4629
 5234TIP3    H237338   3.464   2.992   8.087 -0.0499  0.7826  1.6875
 5235TIP3   OH237339   6.355   0.646   1.529 -0.2112 -0.2837 -0.1530
 5235TIP3    H137340   6.318   0.560   1.548 -2.0331  0.2677 -1.0513
 5235TIP3    H237341   6.329   0.700   1.604  1.1501 -0.5092  0.5396
 5236TIP3   OH237342   3.817   5.097   1.417  0.1062 -0.9299 -0.4093
 5236TIP3    H137343   3.822   5.112   1.511  1.7591  0.0399 -0.6075
 5236TIP3    H237344   3.739   5.146   1.389 -1.6527 -2.9406  0.6968
 5237TIP3   OH237345   0.461   5.146   1.164  0.0278  0.0020  0.2372
 5237TIP3    H137346   0.529   5.084   1.136  2.0153  0.9618  2.5884
 5237TIP3    H237347   0.449   5.204   1.088  1.9348 -0.1515 -0.2358
 5238TIP3   OH237348   3.538   2.364   7.666 -0.0741 -0.2751 -0.6057
 5238TIP3    H137349   3.485   2.285   7.657 -0.9111  0.4315 -2.5837
 5238TIP3    H237350   3.475   2.434   7.682  0.6678  0.0143  1.2655
 5239TIP3   OH237351   5.632   3.933   7.372  0.0131 -0.1633 -0.3519
 5239TIP3    H137352   5.553   3.984   7.389 -0.3461 -0.5955 -0.7062
 5239TIP3    H237353   5.604   3.863   7.313  0.3604 -1.1769  0.6662
 5240TIP3   OH237354   2.737   6.441   2.359 -0.3820 -0.1074  0.5480
 5240TIP3    H137355   2.655   6.401   2.331 -1.5423  1.2260  1.8663
 5240TIP3    H237356   2.758   6.504   2.290 -0.0712 -0.9159 -0.1202
 5241TIP3   OH237357   0.547   5.396   7.703  0.0911 -0.0043 -0.5799
 5241TIP3    H137358   0.545   5.469   7.765 -0.9663  0.5062 -1.1796
 5241TIP3    H237359   0.635   5.398   7.666  0.0358  1.0607 -0.6798
 5242TIP3   OH237360   5.555   0.049   7.049  0.3901  0.0160 -0.2712
 5242TIP3    H137361   5.588  -0.030   7.006 -1.2194 -0.0818 -1.3978
 5242TIP3    H237362   5.467   0.026   7.078  0.8102  0.6238  1.6494
 5243TIP3   OH237363   2.559   5.285   0.580 -0.0268 -0.0576  0.0172
 5243TIP3    H137364   2.602   5.200   0.565 -1.1285 -0.7565  0.6871
 5243TIP3    H237365   2.605   5.322   0.655 -1.3552 -1.3951  1.5671
 5244TIP3   OH237366   2.409   6.676   6.871 -0.2437 -0.3330  0.2583
 5244TIP3    H137367   2.478   6.659   6.807 -3.4218 -1.6548 -3.2196
 5244TIP3    H237368   2.386   6.589   6.904 -1.0470 -0.0824  0.3790
 5245TIP3   OH237369   5.194   3.782   0.407  0.2593  0.1106 -0.1095
 5245TIP3    H137370   5.137   3.724   0.458 -0.5970  2.9487  2.4159
 5245TIP3    H237371   5.150   3.791   0.323  0.1121 -2.3265 -0.3633
 5246TIP3   OH237372   0.035   5.598   0.885 -0.2068 -0.5256 -0.0886
 5246TIP3    H137373   0.027   5.508   0.855  0.2339 -0.6057  0.0345
 5246TIP3    H237374   0.052   5.648   0.805  2.8200 -0.9686  0.1749
 5247TIP3   OH237375   5.706   2.743   8.167 -0.0763  0.3402 -0.3200
 5247TIP3    H137376   5.653   2.777   8.095 -2.3992 -0.4613  0.9446
 5247TIP3    H237377   5.644   2.720   8.235  1.7179 -2.3001  0.5934
 5248TIP3   OH237378   1.827   6.257   8.520 -0.5375 -0.7055  0.3132
 5248TIP3    H137379   1.803   6.171   8.487  0.4969 -0.8698 -0.0716
 5248TIP3    H237380   1.905   6.242   8.573  0.5906  0.1637 -1.0152
 5249TIP3   OH237381   2.792   4.856   0.728 -0.3660 -0.7913  0.4671
 5249TIP3    H137382   2.697   4.871   0.727 -0.2120  0.5945 -2.2921
 5249TIP3    H237383   2.808   4.816   0.814 -3.6310 -2.4655  0.4983
 5250TIP3   OH237384   5.105   1.434   0.383 -0.4454  0.0419  0.3564
 5250TIP3    H137385   5.197   1.417   0.403 -0.2780 -0.3551 -0.6717
 5250TIP3    H237386   5.063   1.348   0.385 -0.8695  0.2521  1.1096
 5251TIP3   OH237387   6.146   2.412   1.763 -0.4523 -0.4576 -0.3498
 5251TIP3    H137388   6.061   2.419   1.719 -1.1728 -0.9586  0.9051
 5251TIP3    H237389   6.125   2.380   1.851  1.0552 -0.7390 -0.0623
 5252TIP3   OH237390   4.089   2.957   8.302  0.1139  0.2479 -0.4946
 5252TIP3    H137391   4.123   3.023   8.362 -2.1257  0.9211  0.1313
 5252TIP3    H237392   4.003   2.934   8.337 -0.2679 -1.0943 -2.1561
 5253TIP3   OH237393   1.332   2.594   1.102  0.1666 -0.0446  0.4517
 5253TIP3    H137394   1.408   2.580   1.046 -0.1954  0.4011 -0.1637
 5253TIP3    H237395   1.359   2.561   1.188 -0.0581 -2.8664 -0.4675
 5254TIP3   OH237396   0.048   2.124   2.709 -0.0507  0.3466  0.2560
 5254TIP3    H137397   0.092   2.107   2.792 -0.6283 -1.2547  0.2768
 5254TIP3    H237398  -0.042   2.146   2.732 -0.0160  0.6721  0.0881
 5255TIP3   OH237399   3.230   5.233   1.105  0.2080 -0.0192  0.1933
 5255TIP3    H137400   3.268   5.166   1.162 -1.0916 -1.0898 -0.1331
 5255TIP3    H237401   3.234   5.196   1.017 -1.4481 -0.1528  0.1374
 5256TIP3   OH237402   4.307   6.086   0.145 -0.2944 -0.2376  0.1986
 5256TIP3    H137403   4.394   6.083   0.186  0.4358  1.0126 -1.1421
 5256TIP3    H237404   4.297   6.001   0.104  0.4341 -0.2965  0.1174
 5257TIP3   OH237405   3.007   1.139   2.095 -0.3503  0.3350 -0.2670
 5257TIP3    H137406   2.912   1.150   2.099 -0.3937  0.0672 -0.4962
 5257TIP3    H237407   3.027   1.080   2.168 -0.6859 -1.6256 -1.6579
 5258TIP3   OH237408   4.691   3.826   7.947 -0.4472 -0.1854  0.1371
 5258TIP3    H137409   4.622   3.870   7.897  0.6582  0.7155 -0.6560
 5258TIP3    H237410   4.723   3.758   7.888 -0.2641 -0.2031  0.2559
 5259TIP3   OH237411   5.378   5.095   1.256  0.0009  0.1841  0.4933
 5259TIP3    H137412   5.351   5.109   1.165  0.0801  0.6141  0.5327
 5259TIP3    H237413   5.298   5.110   1.307 -0.1135 -0.3567  0.4701
 5260TIP3   OH237414   1.982   1.175   7.203  0.4107 -0.1845  0.2646
 5260TIP3    H137415   1.984   1.252   7.146 -1.5919  0.1119  0.5179
 5260TIP3    H237416   2.006   1.103   7.145 -3.2748 -0.1675 -1.5866
 5261TIP3   OH237417   3.141   0.509   1.219 -0.6826 -0.1439  0.5777
 5261TIP3    H137418   3.066   0.563   1.241  0.0126  1.8916 -1.6565
 5261TIP3    H237419   3.120   0.473   1.132  0.0372 -1.2495  0.8465
 5262TIP3   OH237420   4.448   6.870   1.809 -0.5903  0.0728 -0.5901
 5262TIP3    H137421   4.400   6.952   1.799  0.4003  1.0974  2.1114
 5262TIP3    H237422   4.520   6.891   1.869  1.3299 -2.1465 -1.9430
 5263TIP3   OH237423   2.999   4.303   7.703 -0.4987 -0.2912  0.9056
 5263TIP3    H137424   3.079   4.341   7.666  0.8803 -0.0024  3.8757
 5263TIP3    H237425   2.974   4.235   7.640  1.5398  0.2388 -0.6044
 5264TIP3   OH237426   5.618   3.003   1.654 -0.0664 -0.3599 -0.0728
 5264TIP3    H137427   5.524   3.016   1.664 -0.1635 -0.5800 -0.6257
 5264TIP3    H237428   5.657   3.087   1.675 -0.4257 -0.1398 -0.2841
 5265TIP3   OH237429   2.591   0.434   7.964 -0.2302  0.2457 -0.0100
 5265TIP3    H137430   2.530   0.439   7.890 -0.5715  0.7173  0.2976
 5265TIP3    H237431   2.561   0.501   8.025  0.2306  0.0665  0.4263
 5266TIP3   OH237432   0.430   1.595   2.332  0.0230 -0.4168 -0.0962
 5266TIP3    H137433   0.473   1.654   2.394 -0.5958  2.1202 -1.9557
 5266TIP3    H237434   0.358   1.557   2.382 -0.6773  1.8298  0.7186
 5267TIP3   OH237435   3.555   0.009   0.871 -0.3027 -0.4121  0.4639
 5267TIP3    H137436   3.469  -0.009   0.833 -0.8423 -0.4294  1.6356
 5267TIP3    H237437   3.572   0.101   0.850 -1.6381  0.2608  2.0616
 5268TIP3   OH237438   2.712   5.457   2.102 -0.8501 -0.1283 -0.4455
 5268TIP3    H137439   2.752   5.462   2.015  2.1021 -1.4196  0.6935
 5268TIP3    H237440   2.753   5.528   2.151 -2.2220  0.3637  0.0422
 5269TIP3   OH237441   2.872   4.418   1.537 -0.0839 -0.4973 -0.5345
 5269TIP3    H137442   2.956   4.373   1.530  0.0756 -0.3840  0.4354
 5269TIP3    H237443   2.807   4.352   1.512  0.2052 -1.0339  0.0866
 5270TIP3   OH237444   0.638   4.913   7.791  0.4812 -0.6122 -0.0361
 5270TIP3    H137445   0.651   4.994   7.840  1.2637  0.0419 -1.2582
 5270TIP3    H237446   0.561   4.873   7.830  0.9659 -0.0368  1.5781
 5271TIP3   OH237447   6.765   4.072   1.662 -0.3683 -0.7191 -0.3041
 5271TIP3    H137448   6.734   4.032   1.744  0.7205 -0.2649  0.3453
 5271TIP3    H237449   6.816   4.148   1.690 -2.7413  1.4916 -1.5133
 5272TIP3   OH237450   0.997   4.259   7.152  0.2010  0.4389 -0.0167
 5272TIP3    H137451   1.043   4.335   7.116 -2.4291  1.5206 -1.2898
 5272TIP3    H237452   0.935   4.296   7.214  1.3172 -1.0439  2.1328
 5273TIP3   OH237453   4.181   2.858   0.104  0.0383 -1.0144  0.7820
 5273TIP3    H137454   4.259   2.897   0.063 -0.6580  1.7793  1.8839
 5273TIP3    H237455   4.210   2.837   0.193 -0.3906 -0.0794  1.1566
 5274TIP3   OH237456   4.813   2.511   7.240  0.6348 -0.0238 -0.5923
 5274TIP3    H137457   4.723   2.525   7.210  1.0643  0.6803 -1.6166
 5274TIP3    H237458   4.835   2.423   7.210  0.4640  0.0088 -0.8145
 5275TIP3   OH237459   0.544   1.610   2.076 -0.1002 -0.0048 -0.4262
 5275TIP3    H137460   0.616   1.673   2.074  0.8975 -1.0359  0.4669
 5275TIP3    H237461   0.496   1.631   2.156 -1.2043  1.0893 -1.3579
 5276TIP3   OH237462   3.714   6.520   0.565  0.5487  0.3716  0.6918
 5276TIP3    H137463   3.708   6.597   0.508  0.8971 -1.7197 -2.4104
 5276TIP3    H237464   3.623   6.502   0.590  0.0925  0.2466 -0.8964
 5277TIP3   OH237465   1.254   1.680   1.018  0.4731  0.0210 -0.1659
 5277TIP3    H137466   1.320   1.645   0.958  0.8270 -0.1434  0.3171
 5277TIP3    H237467   1.244   1.771   0.992 -1.3194 -0.6754 -2.2287
 5278TIP3   OH237468   2.955   3.301   1.947  0.0043  0.3187 -0.4389
 5278TIP3    H137469   2.999   3.239   1.889 -0.6043 -1.0919  0.5562
 5278TIP3    H237470   3.023   3.362   1.973  0.2243  1.2509 -2.8972
 5279TIP3   OH237471   1.306   3.455   0.771 -0.3021  0.0586 -0.0785
 5279TIP3    H137472   1.221   3.464   0.814 -0.5205  0.4994 -0.5983
 5279TIP3    H237473   1.298   3.377   0.717 -0.3567  0.0696 -0.0858
 5280TIP3   OH237474   2.759   3.308   1.380 -0.0013 -0.1489 -0.4133
 5280TIP3    H137475   2.786   3.400   1.375  0.5659 -0.3334 -0.8863
 5280TIP3    H237476   2.767   3.276   1.290  0.6466 -0.8893 -0.1051
 5281TIP3   OH237477   2.711   3.452   0.219  0.3522 -0.2961  0.4263
 5281TIP3    H137478   2.719   3.449   0.123  0.4568  0.1276  0.4213
 5281TIP3    H237479   2.729   3.543   0.242 -0.7947 -0.1449  0.7497
 5282TIP3   OH237480   2.692   1.947   8.487  0.1688 -0.0091  0.3153
 5282TIP3    H137481   2.638   1.909   8.417  0.6518 -1.3418  0.6483
 5282TIP3    H237482   2.769   1.981   8.441  0.2537 -0.4347  0.1358
 5283TIP3   OH237483   2.188   1.529   7.574 -0.6311 -0.3776 -0.0460
 5283TIP3    H137484   2.257   1.485   7.524 -1.6678 -0.4350 -1.5053
 5283TIP3    H237485   2.110   1.476   7.558 -0.9158 -0.6561  2.0733
 5284TIP3   OH237486   1.092   0.127   1.430  0.2738 -0.0814 -0.3485
 5284TIP3    H137487   1.073   0.065   1.359  2.2424  0.2069 -1.1774
 5284TIP3    H237488   1.024   0.194   1.421 -0.9767 -1.3113 -0.3815
 5285TIP3   OH237489   6.224   1.847   8.134  0.2044 -0.1237 -0.0851
 5285TIP3    H137490   6.158   1.779   8.149 -0.4235  0.0800 -1.7664
 5285TIP3    H237491   6.284   1.838   8.208 -1.1293 -0.9891  0.9444
 5286TIP3   OH237492   3.431   3.696   7.199  1.1148  0.3192  0.0487
 5286TIP3    H137493   3.521   3.726   7.208  1.1471  0.5441 -0.9489
 5286TIP3    H237494   3.405   3.723   7.111 -0.0612  0.5995  0.4633
 5287TIP3   OH237495   1.669   6.497   8.522 -0.0814  0.1383 -0.0987
 5287TIP3    H137496   1.741   6.433   8.526 -1.0693 -1.1962 -2.0666
 5287TIP3    H237497   1.629   6.482   8.437 -0.7915  2.9922 -0.3426
 5288TIP3   OH237498   4.026   3.520   7.980  0.0002 -0.5474  0.6126
 5288TIP3    H137499   4.036   3.449   8.043  0.4680  0.3632  1.5991
 5288TIP3    H237500   3.988   3.479   7.902  0.0840 -1.8257  1.2320
 5289TIP3   OH237501   3.582   4.388   0.884  0.2029  0.6570  0.6267
 5289TIP3    H137502   3.674   4.400   0.859 -0.0766  0.4833 -0.5629
 5289TIP3    H237503   3.535   4.453   0.832 -0.2269  1.7151  2.2827
 5290TIP3   OH237504   3.763   5.697   1.305  0.6136  0.3360 -0.2632
 5290TIP3    H137505   3.823   5.628   1.336  0.2884  0.8862  1.7398
 5290TIP3    H237506   3.746   5.674   1.214  1.1202 -1.8058  0.1134
 5291TIP3   OH237507   1.447   3.062   0.451  0.6248  0.5703  0.4696
 5291TIP3    H137508   1.542   3.048   0.458  1.0775  1.5351 -2.5142
 5291TIP3    H237509   1.437   3.157   0.446 -0.6429  0.5415  1.6615
 5292TIP3   OH237510   1.062   6.911   3.161 -0.0641  0.5538  0.5302
 5292TIP3    H137511   1.047   6.819   3.182 -2.8178 -0.0546 -3.0089
 5292TIP3    H237512   1.013   6.959   3.227 -0.4723 -0.6459  1.1328
 5293TIP3   OH237513   2.228   6.567   1.891 -0.8969 -0.5283 -0.4985
 5293TIP3    H137514   2.306   6.541   1.940 -0.1210 -1.4140 -2.1138
 5293TIP3    H237515   2.250   6.652   1.853 -0.8446 -0.6504 -0.7356
 5294TIP3   OH237516   1.974   0.362   8.378 -0.1008  0.8351  0.0697
 5294TIP3    H137517   2.041   0.306   8.418 -0.5768  0.7325  0.7360
 5294TIP3    H237518   1.954   0.320   8.295 -0.9622 -0.3898  0.8738
 5295TIP3   OH237519   6.891   3.631   2.133 -0.2115 -0.4144 -0.0123
 5295TIP3    H137520   6.972   3.677   2.153  0.0709 -1.2269  0.7751
 5295TIP3    H237521   6.837   3.640   2.212 -0.2220 -1.2508  0.0917
 5296TIP3   OH237522   3.560   5.486   0.433  0.6783 -0.1267  0.2970
 5296TIP3    H137523   3.617   5.550   0.475  1.1079  0.5390 -1.2284
 5296TIP3    H237524   3.514   5.536   0.366  1.6100 -1.5307 -1.4684
 5297TIP3   OH237525   1.735   2.569   1.590 -0.4092  0.3450 -0.3754
 5297TIP3    H137526   1.646   2.584   1.559 -0.6853 -1.1550 -0.4040
 5297TIP3    H237527   1.779   2.654   1.581 -2.0752  1.3463  0.4906
 5298TIP3   OH237528   0.099   2.583   0.062  0.3220  0.1527 -0.3554
 5298TIP3    H137529   0.115   2.519   0.131 -2.0161  0.7257  0.7981
 5298TIP3    H237530   0.116   2.535  -0.019 -1.9668 -2.2019  0.4451
 5299TIP3   OH237531   6.499   4.704   0.506 -0.2025  0.8878  0.4668
 5299TIP3    H137532   6.593   4.704   0.522 -0.1274  0.9962  0.0262
 5299TIP3    H237533   6.466   4.779   0.554  0.1410  1.7176 -0.5576
 5300TIP3   OH237534   1.331   2.849   6.743  0.4397  0.0196  0.7172
 5300TIP3    H137535   1.365   2.797   6.671  2.0315  0.6595  0.9568
 5300TIP3    H237536   1.366   2.937   6.729 -1.5052  0.8614  0.7760
 5301TIP3   OH237537   1.934   2.039   8.063 -0.1180  0.2570 -0.3252
 5301TIP3    H137538   1.866   2.022   7.998 -1.0019  0.3448  0.5587
 5301TIP3    H237539   1.887   2.056   8.144  0.9578  0.3942  0.2972
 5302TIP3   OH237540   3.385   6.798   0.449  0.1966 -0.5295  0.3114
 5302TIP3    H137541   3.391   6.890   0.476  1.3926 -0.7729  0.9577
 5302TIP3    H237542   3.357   6.802   0.358  0.4331  0.4959  0.2685
 5303TIP3   OH237543   3.089   1.466   7.006 -0.6486 -0.5660 -0.4699
 5303TIP3    H137544   3.010   1.498   6.962 -0.8599 -0.1790  0.1824
 5303TIP3    H237545   3.131   1.544   7.041 -0.0256 -0.7825 -0.7136
 5304TIP3   OH237546   0.550   3.174   0.817  0.3737 -0.6815 -0.0014
 5304TIP3    H137547   0.556   3.251   0.873  0.0306 -0.6740  0.0316
 5304TIP3    H237548   0.480   3.196   0.755 -0.7979 -1.5689  0.9633
 5305TIP3   OH237549   6.538   6.324   2.033  0.2630  0.1626 -0.2489
 5305TIP3    H137550   6.522   6.416   2.054 -0.0034  0.2415 -0.7793
 5305TIP3    H237551   6.511   6.277   2.112 -0.4622  0.4750 -0.2961
 5306TIP3   OH237552   4.625   0.357   6.790  0.6804  0.6849  0.2602
 5306TIP3    H137553   4.690   0.298   6.826  0.6956  1.1319  0.9796
 5306TIP3    H237554   4.541   0.316   6.810  0.6844 -1.3826 -3.1544
 5307TIP3   OH237555   2.890   5.897   0.033  0.5019  0.0826  0.0207
 5307TIP3    H137556   2.804   5.929   0.006  1.2384  0.7816 -1.5706
 5307TIP3    H237557   2.913   5.832  -0.033  0.9974 -0.4810  0.7306
 5308TIP3   OH237558   3.861   6.005   1.469  0.2042 -0.3585 -0.7013
 5308TIP3    H137559   3.845   6.001   1.375 -1.3876  0.0644 -0.4779
 5308TIP3    H237560   3.920   6.081   1.480  1.8469 -1.4597 -1.4820
 5309TIP3   OH237561   1.505   5.868   1.529  0.6605  0.5653  0.1774
 5309TIP3    H137562   1.599   5.879   1.515  0.9113  0.4467  1.6062
 5309TIP3    H237563   1.499   5.799   1.595 -0.3253  2.0686  1.7411
 5310TIP3   OH237564   3.689   6.666   1.324  0.8224 -0.4631 -0.1252
 5310TIP3    H137565   3.646   6.743   1.286 -0.7605  0.0914  2.5145
 5310TIP3    H237566   3.665   6.594   1.266 -2.4127  0.1210  0.2967
 5311TIP3   OH237567   6.374   2.325   2.599  0.2165  0.8749  0.2014
 5311TIP3    H137568   6.358   2.252   2.658  2.6124 -0.1884 -0.3859
 5311TIP3    H237569   6.422   2.389   2.651 -1.0439  1.6622  0.4426
 5312TIP3   OH237570   2.330   6.003   2.057 -0.0425 -0.2840  0.1995
 5312TIP3    H137571   2.324   5.908   2.070  1.1324 -0.4361 -0.2054
 5312TIP3    H237572   2.421   6.024   2.079 -0.3941  0.8228  0.6828
 5313TIP3   OH237573   2.490   2.861   0.089 -1.0318 -0.1577 -0.3886
 5313TIP3    H137574   2.545   2.890   0.162 -1.6114 -2.6797  1.1765
 5313TIP3    H237575   2.531   2.781   0.059 -0.9368  0.7271 -2.7833
 5314TIP3   OH237576   2.662   2.478   1.775 -0.2357  0.3251  0.8365
 5314TIP3    H137577   2.570   2.456   1.792  0.2616 -1.1535  1.8290
 5314TIP3    H237578   2.711   2.420   1.832  1.3176  1.8036  1.0897
 5315TIP3   OH237579   3.092   5.810   0.542 -0.6581  0.2204  0.4043
 5315TIP3    H137580   3.048   5.794   0.458  0.0170  0.6987 -0.0526
 5315TIP3    H237581   3.155   5.739   0.549  0.8027  1.3747 -0.5610
 5316TIP3   OH237582   2.389   3.168   1.206  0.0853 -0.2206 -0.0089
 5316TIP3    H137583   2.353   3.232   1.267 -1.7451  0.8584 -2.1092
 5316TIP3    H237584   2.447   3.114   1.260 -0.5305  1.3874  2.4134
 5317TIP3   OH237585   3.295   3.321   7.841  0.1396  0.2031  0.1726
 5317TIP3    H137586   3.225   3.355   7.896  0.1058 -0.2273  0.3964
 5317TIP3    H237587   3.308   3.389   7.774 -0.3593  0.3659  0.2389
 5318TIP3   OH237588   5.468   3.598   0.005 -0.2583 -0.5384 -0.7024
 5318TIP3    H137589   5.474   3.555   0.090 -0.1837  1.1086  0.1807
 5318TIP3    H237590   5.547   3.651  -0.000 -2.0386  2.4407  0.0363
 5319TIP3   OH237591   5.116   3.192   0.322  0.4482  0.0102  0.5746
 5319TIP3    H137592   5.134   3.280   0.355  2.9775 -0.3884  0.4691
 5319TIP3    H237593   5.059   3.206   0.246  0.7384  1.5449  0.6151
 5320TIP3   OH237594   2.243   5.813   7.341  0.1526  0.0920  0.1363
 5320TIP3    H137595   2.297   5.748   7.386 -0.3090 -1.0024 -0.8364
 5320TIP3    H237596   2.298   5.845   7.270 -0.2381 -0.5888 -0.4917
 5321TIP3   OH237597   2.391   2.583   0.771  0.1393  0.8165 -0.3328
 5321TIP3    H137598   2.388   2.679   0.768 -0.5285  0.9446  2.2671
 5321TIP3    H237599   2.482   2.563   0.793 -0.0966  0.9637  0.8254
 5322TIP3   OH237600   2.680   2.607   0.722 -0.3201 -0.3282  0.0684
 5322TIP3    H137601   2.754   2.633   0.777 -0.2582 -0.7514  0.1948
 5322TIP3    H237602   2.718   2.594   0.635 -0.5410  0.9872 -0.2342
 5323TIP3   OH237603   6.582   0.979   6.575  0.3678  0.3177  0.1147
 5323TIP3    H137604   6.653   1.021   6.623  0.1619  0.7934  0.0037
 5323TIP3    H237605   6.502   1.012   6.617  0.1987  0.2419 -0.1467
 5324TIP3   OH237606   5.315   0.764   2.291  0.5024 -0.1571 -0.2540
 5324TIP3    H137607   5.279   0.783   2.204  0.8675  1.7279 -0.0327
 5324TIP3    H237608   5.378   0.835   2.307 -0.2719  0.1010  1.9594
 5325TIP3   OH237609   2.795   4.353   0.468  0.1575 -0.3478  0.0277
 5325TIP3    H137610   2.835   4.423   0.417  0.7093 -1.8704 -1.7236
 5325TIP3    H237611   2.854   4.341   0.542  0.7588  0.1457 -0.3585
 5326TIP3   OH237612   3.251   4.361   7.988 -0.3633 -0.6164 -0.0674
 5326TIP3    H137613   3.257   4.358   8.084 -0.7556  0.0564 -0.0191
 5326TIP3    H237614   3.240   4.270   7.962  0.6115 -0.9056  0.4693
 5327TIP3   OH237615   5.049   4.428   2.318 -0.1428  0.7612  0.3165
 5327TIP3    H137616   5.141   4.405   2.302  0.5268  4.2975 -1.8867
 5327TIP3    H237617   5.001   4.384   2.248  0.5044  2.3242 -1.1517
 5328TIP3   OH237618   5.028   3.216   0.945 -0.0082 -0.3503 -0.3159
 5328TIP3    H137619   5.068   3.269   1.015 -2.0342 -0.1349  0.7619
 5328TIP3    H237620   5.077   3.239   0.867  1.9786 -0.1540  0.9211
 5329TIP3   OH237621   5.209   4.213   2.030 -0.9361 -0.5116  0.4360
 5329TIP3    H137622   5.209   4.271   1.954 -1.9964  0.6005  1.2443
 5329TIP3    H237623   5.118   4.214   2.062 -1.1436 -3.0924  0.1594
 5330TIP3   OH237624   2.376   2.247   7.219 -0.2595 -0.2764  0.5324
 5330TIP3    H137625   2.309   2.261   7.286 -0.1966 -2.6899  1.1675
 5330TIP3    H237626   2.326   2.248   7.137 -0.7620 -0.1290  0.8310
 5331TIP3   OH237627   0.641   1.165   0.642 -0.1957 -0.1185  0.5571
 5331TIP3    H137628   0.697   1.235   0.675  0.6960 -0.3857 -0.3461
 5331TIP3    H237629   0.602   1.126   0.720  0.3812  0.4895  1.1548
 5332TIP3   OH237630   1.000   5.307   1.355  0.1536  0.6424  0.0131
 5332TIP3    H137631   1.072   5.363   1.327  0.1549  0.5254 -0.2171
 5332TIP3    H237632   1.023   5.220   1.322  0.0744  0.5358  0.2340
 5333TIP3   OH237633   6.860   1.204   8.193 -0.2708 -0.3619  0.4656
 5333TIP3    H137634   6.800   1.129   8.186 -0.6856 -0.0933  1.0666
 5333TIP3    H237635   6.851   1.250   8.110  0.1825 -1.1193 -0.0164
 5334TIP3   OH237636   2.131   0.058   0.667  0.1311  0.0872  0.4067
 5334TIP3    H137637   2.154  -0.001   0.739  1.4482  0.9990  0.7607
 5334TIP3    H237638   2.123   0.144   0.707 -1.0282  0.3005 -0.2332
 5335TIP3   OH237639   0.679   1.463   6.971  0.4131  0.2855  0.6489
 5335TIP3    H137640   0.743   1.423   7.029  1.8297  2.3616  0.6335
 5335TIP3    H237641   0.681   1.556   6.994 -0.8685  0.7636 -0.9819
 5336TIP3   OH237642   1.995   4.646   2.392 -1.0304  0.2841  0.1206
 5336TIP3    H137643   1.936   4.711   2.429  0.2454  0.9444  1.0771
 5336TIP3    H237644   2.082   4.685   2.400 -0.1943 -1.6390  1.0157
 5337TIP3   OH237645   1.731   3.479   8.136  0.1490  0.7671 -0.2808
 5337TIP3    H137646   1.759   3.549   8.195  0.3508  2.0711 -1.8568
 5337TIP3    H237647   1.777   3.496   8.054  0.6632 -1.5874 -0.5540
 5338TIP3   OH237648   1.969   6.438   7.425 -0.5096 -0.0463 -0.2917
 5338TIP3    H137649   1.925   6.495   7.362  1.6488  0.9370 -0.9993
 5338TIP3    H237650   2.005   6.367   7.372  1.2282  0.7317 -0.2339
 5339TIP3   OH237651   6.765   6.143   0.450 -0.2610 -0.0699 -0.2524
 5339TIP3    H137652   6.829   6.091   0.498  0.2812  0.7893 -0.0200
 5339TIP3    H237653   6.815   6.182   0.378 -0.4096  0.9462  0.1751
 5340TIP3   OH237654   6.343   4.447   7.045 -0.3068  0.4676 -0.4799
 5340TIP3    H137655   6.361   4.359   7.010  1.2687  0.4628  0.2545
 5340TIP3    H237656   6.384   4.447   7.132 -2.3028  1.1737  0.5360
 5341TIP3   OH237657   0.129   5.551   0.293  0.5741  0.5103  0.5170
 5341TIP3    H137658   0.169   5.468   0.268  0.8419  1.1438 -1.2390
 5341TIP3    H237659   0.036   5.538   0.278  0.3962 -0.0175  1.9057
 5342TIP3   OH237660   5.764   0.197   2.516  0.3717  0.0752  0.1152
 5342TIP3    H137661   5.799   0.237   2.596  0.5122  0.5182 -0.1609
 5342TIP3    H237662   5.820   0.121   2.501 -1.1900 -1.4982  1.8045
 5343TIP3   OH237663   0.349   4.286   7.538  0.2490 -0.0931 -0.0941
 5343TIP3    H137664   0.327   4.338   7.461  0.2532 -0.1648 -0.1442
 5343TIP3    H237665   0.444   4.280   7.538  0.2132 -0.7341 -0.5099
 5344TIP3   OH237666   2.464   3.848   6.923  0.6161 -0.0698 -0.1980
 5344TIP3    H137667   2.400   3.900   6.971  1.0686  0.3993 -0.0850
 5344TIP3    H237668   2.416   3.813   6.848 -0.4339 -1.8582  1.2419
 5345TIP3   OH237669   2.831   3.551   6.725 -0.2809  0.5055  0.3399
 5345TIP3    H137670   2.908   3.582   6.679 -1.5458  0.9408 -1.6000
 5345TIP3    H237671   2.805   3.471   6.679 -0.4266 -0.1980  1.5975
 5346TIP3   OH237672   2.125   3.089   1.887 -0.5985 -0.1354  0.0945
 5346TIP3    H137673   2.049   3.033   1.870  0.1977 -1.5642  1.0346
 5346TIP3    H237674   2.158   3.059   1.972  0.6602  0.8659 -0.0139
 5347TIP3   OH237675   6.651   0.402   1.042  0.0198  1.0411 -0.8117
 5347TIP3    H137676   6.615   0.471   1.097  0.6443 -0.7209  2.0102
 5347TIP3    H237677   6.590   0.328   1.054  0.5670  0.3785 -1.9535
 5348TIP3   OH237678   5.662   2.275   1.459  0.0130 -0.1810  0.2184
 5348TIP3    H137679   5.688   2.307   1.373 -2.8907  1.5792 -0.1363
 5348TIP3    H237680   5.618   2.350   1.500 -1.0677 -1.7747  2.1452
 5349TIP3   OH237681   2.427   3.278   0.948 -0.2332  0.3187 -0.2837
 5349TIP3    H137682   2.363   3.235   0.890 -0.1767  0.5094 -0.4886
 5349TIP3    H237683   2.423   3.228   1.029 -0.7372  0.4097 -0.2518
 5350TIP3   OH237684   2.768   5.108   0.483  0.0770 -0.0479  0.1597
 5350TIP3    H137685   2.858   5.119   0.455  0.1064  0.5784  0.4906
 5350TIP3    H237686   2.773   5.048   0.558  0.3315  0.7681  0.8086
 5351TIP3   OH237687   6.498   1.588   8.238  0.0438 -0.4004 -0.2790
 5351TIP3    H137688   6.554   1.549   8.306 -0.8958  1.1313  1.4703
 5351TIP3    H237689   6.476   1.514   8.181  0.5210 -1.8624  1.3172
 5352TIP3   OH237690   6.329   2.536   3.257  0.1945  0.0704  0.7570
 5352TIP3    H137691   6.424   2.526   3.263  0.1711 -0.2222  0.6710
 5352TIP3    H237692   6.316   2.596   3.184  0.2130 -2.6265 -1.6482
 5353TIP3   OH237693   4.996   0.387   1.259  0.3144  0.2372  0.4096
 5353TIP3    H137694   5.024   0.428   1.340  1.9807 -0.4076  0.2127
 5353TIP3    H237695   5.014   0.294   1.272  0.2143  0.0770 -0.5290
 5354TIP3   OH237696   2.455   6.870   2.233 -0.1000 -0.3478 -0.6349
 5354TIP3    H137697   2.453   6.963   2.211  1.2727 -0.5721 -1.8245
 5354TIP3    H237698   2.458   6.869   2.329 -1.3868  0.7783 -0.5491
 5355TIP3   OH237699   1.569   2.453   0.040 -0.1687  0.6345  0.3581
 5355TIP3    H137700   1.564   2.410  -0.046  0.0480 -0.7897  1.0347
 5355TIP3    H237701   1.503   2.522   0.036 -1.1686 -0.3337 -0.4516
 5356TIP3   OH237702   0.420   5.023   1.410  0.6106  0.1740 -0.0333
 5356TIP3    H137703   0.440   5.052   1.321 -0.6425 -1.2192 -0.8174
 5356TIP3    H237704   0.501   5.035   1.458  1.5451  0.2366 -1.5568
 5357TIP3   OH237705   3.231   6.055   0.608 -0.2090 -0.2693  0.6535
 5357TIP3    H137706   3.175   5.987   0.569  0.0162  0.3102 -0.7657
 5357TIP3    H237707   3.224   6.129   0.547  1.9093 -0.0895  0.5500
 5358TIP3   OH237708   1.909   5.352   1.874  0.1827 -0.0358  0.0426
 5358TIP3    H137709   1.904   5.294   1.798  0.4168 -2.5179  1.7793
 5358TIP3    H237710   1.821   5.387   1.885  0.4970  1.6757 -2.2330
 5359TIP3   OH237711   2.683   6.390   0.804 -0.0616  0.0004  0.2874
 5359TIP3    H137712   2.748   6.460   0.795 -0.7226  0.5290 -0.7309
 5359TIP3    H237713   2.641   6.407   0.888 -0.3988  1.0286 -0.0634
 5360TIP3   OH237714   0.975   6.168   2.985  0.0265 -0.3412  0.0204
 5360TIP3    H137715   1.026   6.087   2.974 -0.5044 -0.6563 -0.1468
 5360TIP3    H237716   0.923   6.174   2.905 -0.4872 -0.2307  0.3559
 5361TIP3   OH237717   5.488   6.153   7.274  0.8039  0.2434  0.5465
 5361TIP3    H137718   5.517   6.145   7.365  0.8037  0.8745  0.6076
 5361TIP3    H237719   5.549   6.215   7.235  1.1549 -0.4639 -0.0429
 5362TIP3   OH237720   2.896   4.068   7.068 -0.0203  0.6949  0.0081
 5362TIP3    H137721   2.916   4.117   6.988 -0.1185 -0.0414 -0.4695
 5362TIP3    H237722   2.970   4.008   7.078 -0.0634  0.7098  0.4086
 5363TIP3   OH237723   1.892   5.197   8.075 -0.0887 -0.1292 -0.1744
 5363TIP3    H137724   1.877   5.248   8.154  3.0259  0.7366 -0.0148
 5363TIP3    H237725   1.820   5.221   8.016  0.2827  3.1927  0.5243
 5364TIP3   OH237726   5.600   3.180   0.649 -0.7773 -0.0247  0.0841
 5364TIP3    H137727   5.621   3.251   0.710 -0.7648 -0.7255  0.9220
 5364TIP3    H237728   5.667   3.114   0.666 -0.5795 -0.1016 -0.9320
 5365TIP3   OH237729   5.967   0.983   1.119  0.2738 -0.4391 -0.1821
 5365TIP3    H137730   5.993   1.075   1.127  0.1693 -0.3301 -1.0112
 5365TIP3    H237731   5.903   0.982   1.048  1.3141 -1.3518 -1.1501
 5366TIP3   OH237732   4.836   3.121   1.194 -0.7468 -0.0743 -0.7585
 5366TIP3    H137733   4.843   3.212   1.163  1.3096 -0.3004 -1.1255
 5366TIP3    H237734   4.883   3.121   1.277 -0.3005 -0.8911 -1.0016
 5367TIP3   OH237735   2.691   3.142   1.763  0.2812 -0.6906 -0.7969
 5367TIP3    H137736   2.645   3.219   1.729 -0.1842 -0.0529  1.1296
 5367TIP3    H237737   2.772   3.176   1.800  1.2419 -1.4999 -2.0665
 5368TIP3   OH237738   1.822   5.547   8.261 -0.0448  0.0383 -0.4663
 5368TIP3    H137739   1.907   5.560   8.302  1.1657 -1.2082 -2.4270
 5368TIP3    H237740   1.764   5.610   8.305  1.8110  0.7742  1.0530
 5369TIP3   OH237741   4.825   5.058   8.112 -0.1202  0.5287 -0.7714
 5369TIP3    H137742   4.751   5.012   8.072  0.1533 -1.9175  1.2914
 5369TIP3    H237743   4.902   5.012   8.078  0.4171  1.8277 -1.4037
 5370TIP3   OH237744   5.776   6.274   0.736  0.0394  0.4453  0.1461
 5370TIP3    H137745   5.847   6.279   0.672 -0.1689  0.2272 -0.1000
 5370TIP3    H237746   5.716   6.343   0.710 -0.3181 -0.0006 -0.2242
 5371TIP3   OH237747   6.183   2.850   2.858  0.3196  0.0769 -0.0793
 5371TIP3    H137748   6.119   2.797   2.811 -1.0173  0.1020  1.5711
 5371TIP3    H237749   6.248   2.788   2.889 -0.7239 -0.5152  1.0238
 5372TIP3   OH237750   4.198   3.374   2.566 -0.3799  0.7876 -0.6211
 5372TIP3    H137751   4.118   3.423   2.587  0.8309  2.1340  1.1564
 5372TIP3    H237752   4.203   3.306   2.632  1.1681  2.2671  0.8756
 5373TIP3   OH237753   0.307   4.010   2.114  0.0612  0.4998 -0.6209
 5373TIP3    H137754   0.353   4.092   2.129  3.1406 -0.8642 -1.7270
 5373TIP3    H237755   0.279   4.014   2.022 -0.3787  0.5666 -0.4859
 5374TIP3   OH237756   0.902   5.084   8.379 -0.6700 -0.7561 -0.4087
 5374TIP3    H137757   0.897   5.030   8.458  1.7758  0.0526  0.3868
 5374TIP3    H237758   0.990   5.068   8.345 -0.5711  1.2652 -1.2274
 5375TIP3   OH237759   6.201   6.071   0.939  0.3128  0.7965  0.4588
 5375TIP3    H137760   6.277   6.125   0.917 -0.3009  1.5084  0.0178
 5375TIP3    H237761   6.165   6.046   0.854  0.7968 -0.6399  0.6518
 5376TIP3   OH237762   3.470   0.411   7.351 -0.2477  0.2195  0.1079
 5376TIP3    H137763   3.426   0.487   7.388 -0.7513  0.8935 -1.7377
 5376TIP3    H237764   3.512   0.368   7.426 -1.5557  1.2254  1.4758
 5377TIP3   OH237765   6.481   2.618   0.987 -0.2170  0.4770 -0.1507
 5377TIP3    H137766   6.454   2.697   0.941 -1.1899  0.0775 -0.2748
 5377TIP3    H237767   6.564   2.594   0.945 -1.1573  0.0182 -1.8664
 5378TIP3   OH237768   6.285   0.084   7.562  0.0290 -0.2449 -0.9714
 5378TIP3    H137769   6.352   0.110   7.499  1.0607 -1.0841 -0.2641
 5378TIP3    H237770   6.268  -0.008   7.542 -1.1190  0.0254 -1.3026
 5379TIP3   OH237771   0.950   0.391   2.208 -0.1482  0.1168 -0.0791
 5379TIP3    H137772   0.933   0.468   2.261  0.8946  1.4261 -1.5317
 5379TIP3    H237773   0.996   0.331   2.266 -0.6410  0.7477  0.9828
 5380TIP3   OH237774   2.324   0.992   0.244  0.9272 -0.1952 -0.2635
 5380TIP3    H137775   2.321   1.084   0.216 -0.8915 -0.5057 -1.2392
 5380TIP3    H237776   2.393   0.990   0.310 -0.0659  2.2082  0.9905
 5381TIP3   OH237777   2.929   0.243   2.773  0.3992  0.2295  0.1236
 5381TIP3    H137778   3.021   0.258   2.797  0.4815 -0.8332  0.5213
 5381TIP3    H237779   2.878   0.281   2.844  0.6114 -1.6053  1.3282
 5382TIP3   OH237780   4.871   6.429   7.351 -0.5200  0.1610 -0.1144
 5382TIP3    H137781   4.965   6.421   7.336 -0.2393  2.1018  0.2714
 5382TIP3    H237782   4.833   6.351   7.311  1.1945 -0.3622 -0.8071
 5383TIP3   OH237783   5.939   3.178   0.385  0.0651  0.1436  0.3586
 5383TIP3    H137784   5.969   3.115   0.319 -1.4766 -0.8614  0.5712
 5383TIP3    H237785   6.012   3.240   0.394  1.7854 -1.7652  0.3467
 5384TIP3   OH237786   0.562   0.539   1.757  0.2435  0.2300 -0.3878
 5384TIP3    H137787   0.622   0.543   1.832  0.0164 -0.2405 -0.1783
 5384TIP3    H237788   0.580   0.620   1.708 -0.2350  0.9882  0.6478
 5385TIP3   OH237789   2.300   0.219   7.561 -0.3338 -0.1170 -0.1394
 5385TIP3    H137790   2.383   0.226   7.609 -1.7469 -1.1158  2.6584
 5385TIP3    H237791   2.293   0.301   7.513  1.9263  0.2814  0.0759
 5386TIP3   OH237792   5.135   5.455   0.264  0.2407  0.3093 -0.0412
 5386TIP3    H137793   5.043   5.458   0.239 -0.2115  1.9939  1.6125
 5386TIP3    H237794   5.179   5.514   0.202  0.5127 -1.5072 -1.6881
 5387TIP3   OH237795   4.891   3.397   0.682 -0.2150  0.0810 -0.5863
 5387TIP3    H137796   4.809   3.348   0.693 -1.1645  1.7892  0.3043
 5387TIP3    H237797   4.887   3.466   0.748  1.0849  1.3706 -1.7915
 5388TIP3   OH237798   0.862   4.112   7.478 -0.2912 -0.6416  0.0374
 5388TIP3    H137799   0.807   4.097   7.401  0.8147  1.6174 -1.2874
 5388TIP3    H237800   0.815   4.179   7.528 -0.2649 -1.0199  0.5818
 5389TIP3   OH237801   6.040   3.391   8.371  0.0447  0.0185  0.7290
 5389TIP3    H137802   6.121   3.342   8.386  0.8344  1.4026  1.0848
 5389TIP3    H237803   6.068   3.473   8.332 -1.2439  0.3163  0.3947
 5390TIP3   OH237804   1.936   5.628   2.095  0.1821 -0.4080  0.0892
 5390TIP3    H137805   2.031   5.616   2.108  0.3948  1.5095  0.5444
 5390TIP3    H237806   1.907   5.677   2.172 -1.1127 -0.5686 -0.2772
 5391TIP3   OH237807   4.647   4.209   8.022  0.7042 -0.8601 -0.7270
 5391TIP3    H137808   4.674   4.274   8.087  1.5624  0.4670 -2.3336
 5391TIP3    H237809   4.704   4.134   8.038 -0.5875 -1.4533  1.4271
 5392TIP3   OH237810   5.046   3.632   7.757 -0.4611 -0.3323 -0.2836
 5392TIP3    H137811   5.057   3.573   7.682  0.1430  0.2663 -0.6720
 5392TIP3    H237812   4.951   3.643   7.764 -0.6579 -2.1117  0.4095
 5393TIP3   OH237813   0.617   5.431   0.909 -0.4543 -0.6062  0.0239
 5393TIP3    H137814   0.654   5.343   0.902 -0.3130 -0.5302 -0.1908
 5393TIP3    H237815   0.687   5.483   0.946 -0.4391 -0.5207 -0.1242
 5394TIP3   OH237816   2.119   1.701   1.655 -0.3688  0.2622  0.0897
 5394TIP3    H137817   2.115   1.761   1.581 -1.3999  1.3616  0.9951
 5394TIP3    H237818   2.070   1.745   1.724 -1.0014 -1.5573  0.8507
 5395TIP3   OH237819   6.725   2.361   1.138  0.5711  0.8273  0.2186
 5395TIP3    H137820   6.741   2.435   1.196  0.0793  0.6344  0.6153
 5395TIP3    H237821   6.711   2.400   1.052  3.2415  0.9999 -0.2198
 5396TIP3   OH237822   6.507   6.648   6.698 -0.2614 -0.4479 -0.2613
 5396TIP3    H137823   6.502   6.622   6.790  0.6860 -0.1564 -0.1168
 5396TIP3    H237824   6.590   6.695   6.690 -0.8010  0.4361 -1.0401
 5397TIP3   OH237825   0.029   2.164   1.775  0.5127 -0.2316 -0.4932
 5397TIP3    H137826  -0.034   2.093   1.759  2.0951 -1.7331 -0.4103
 5397TIP3    H237827  -0.012   2.241   1.736 -1.7193 -0.9511  0.2516
 5398TIP3   OH237828   0.395   2.592   6.897  0.6090 -0.2512 -0.2705
 5398TIP3    H137829   0.449   2.516   6.878  0.0095 -0.6800 -0.2861
 5398TIP3    H237830   0.453   2.667   6.886  1.6512 -0.7734  1.3693
 5399TIP3   OH237831   1.742   1.720   0.950 -0.2071  0.2746  0.3228
 5399TIP3    H137832   1.692   1.644   0.981  0.6123 -0.8875 -1.0936
 5399TIP3    H237833   1.825   1.715   0.999 -0.6929  1.1179  1.2793
 5400TIP3   OH237834   2.139   0.922   8.179  0.8686 -0.1991  0.4968
 5400TIP3    H137835   2.131   0.859   8.250  0.1184 -1.9562 -1.0686
 5400TIP3    H237836   2.232   0.920   8.156  1.3806  1.2999  2.1276
 5401TIP3   OH237837   1.974   0.926   7.041 -0.3806 -0.2309 -0.3866
 5401TIP3    H137838   1.954   1.001   6.985  0.0457 -0.0156 -0.2545
 5401TIP3    H237839   2.062   0.898   7.014 -0.1983 -0.1630  0.1325
 5402TIP3   OH237840   3.310   1.324   6.684  0.5118  0.2389  0.1944
 5402TIP3    H137841   3.326   1.328   6.590 -0.9379 -0.1025 -0.0862
 5402TIP3    H237842   3.394   1.295   6.721  0.2518 -2.8996 -1.3100
 5403TIP3   OH237843   6.837   1.634   0.902 -0.5544 -0.2125  0.5624
 5403TIP3    H137844   6.776   1.593   0.962  0.8101 -0.3591  1.8885
 5403TIP3    H237845   6.839   1.726   0.928 -0.0525 -0.2510  0.6835
 5404TIP3   OH237846   3.373   5.617   7.878 -0.3370 -0.1906 -0.7824
 5404TIP3    H137847   3.388   5.704   7.840  2.2283  0.1892  0.8174
 5404TIP3    H237848   3.295   5.627   7.932 -1.1969  0.5671 -2.1366
 5405TIP3   OH237849   4.349   3.070   0.834  0.1036 -0.2065  0.0899
 5405TIP3    H137850   4.353   3.147   0.890  1.2033 -0.6442  0.6353
 5405TIP3    H237851   4.401   3.004   0.879 -0.0309 -0.9702 -0.8308
 5406TIP3   OH237852   4.090   3.453   1.992 -0.0950 -0.2502 -0.2057
 5406TIP3    H137853   4.160   3.389   2.000  0.9336  0.7141 -1.1524
 5406TIP3    H237854   4.125   3.533   2.033 -0.5107  0.3352 -0.9566
 5407TIP3   OH237855   5.071   0.580   2.154 -0.1308  0.2376 -0.2782
 5407TIP3    H137856   4.999   0.579   2.091 -0.8451  2.2625  0.4316
 5407TIP3    H237857   5.037   0.533   2.230  0.1944 -0.8803 -0.7946
 5408TIP3   OH237858   3.014   6.932   0.240  0.4432 -0.1405 -0.2849
 5408TIP3    H137859   2.983   6.878   0.168 -1.0325  0.0667  0.1549
 5408TIP3    H237860   3.026   6.871   0.312 -3.4126  0.2371  0.9158
 5409TIP3   OH237861   6.844   1.911   1.009 -0.7600 -0.8453 -0.9681
 5409TIP3    H137862   6.921   1.963   1.034 -0.3033 -0.6147 -2.6839
 5409TIP3    H237863   6.773   1.975   1.004 -0.0113 -0.1064 -3.9461
 5410TIP3   OH237864   2.701   5.179   2.158 -0.3194  0.1045  0.0279
 5410TIP3    H137865   2.772   5.145   2.105 -2.8269 -0.4895 -3.3193
 5410TIP3    H237866   2.708   5.275   2.149  0.7320  0.1072  0.7695
 5411TIP3   OH237867   2.225   6.360   1.472 -0.3485 -0.1310 -0.1249
 5411TIP3    H137868   2.238   6.443   1.426 -1.8362 -0.2289 -0.7481
 5411TIP3    H237869   2.174   6.383   1.550  1.0322 -0.1715  0.8422
 5412TIP3   OH237870   5.358   5.268   8.301 -0.0720  0.3998  0.1813
 5412TIP3    H137871   5.354   5.261   8.206  2.0062 -1.5062  0.1492
 5412TIP3    H237872   5.399   5.353   8.317  0.0089  0.5244 -0.6413
 5413TIP3   OH237873   4.820   1.974   1.361  0.2229 -0.4412 -0.0885
 5413TIP3    H137874   4.786   2.036   1.296 -1.0715  1.9775  2.6616
 5413TIP3    H237875   4.911   1.959   1.336  1.1213  3.9005 -0.1445
 5414TIP3   OH237876   2.268   1.243   0.161 -0.1074 -0.5834  0.2740
 5414TIP3    H137877   2.326   1.308   0.121 -1.6388 -0.2297 -1.4763
 5414TIP3    H237878   2.244   1.184   0.090  0.7927 -2.8330  1.7024
 5415TIP3   OH237879   1.765   5.262   0.304  0.4240  0.2055 -0.2812
 5415TIP3    H137880   1.839   5.258   0.243  0.9948  0.1387  0.4029
 5415TIP3    H237881   1.719   5.179   0.290  0.4385  0.2711 -0.7504
 5416TIP3   OH237882   0.599   4.784   0.035 -0.1325  0.0940 -0.1443
 5416TIP3    H137883   0.608   4.699  -0.007 -3.1427  0.0593 -0.9710
 5416TIP3    H237884   0.542   4.768   0.110 -0.8857  1.3854 -0.4070
 5417TIP3   OH237885   4.585   1.384   1.361 -0.4136  0.1345 -0.1188
 5417TIP3    H137886   4.655   1.338   1.406  0.4333 -0.0489 -1.5520
 5417TIP3    H237887   4.609   1.477   1.367 -0.2596  0.1036 -0.2444
 5418TIP3   OH237888   5.269   5.732   0.739  0.2028  0.2867 -0.8234
 5418TIP3    H137889   5.195   5.788   0.766  0.4785  0.2330  0.0916
 5418TIP3    H237890   5.342   5.793   0.729  0.2679  0.2175 -0.7677
 5419TIP3   OH237891   6.845   3.886   0.245 -0.0675  0.0369  0.3990
 5419TIP3    H137892   6.938   3.869   0.231  0.2729  0.8286  1.5645
 5419TIP3    H237893   6.837   3.981   0.240 -0.8170 -0.0257  0.3082
 5420TIP3   OH237894   3.387   1.311   2.454  0.2839 -0.0244  0.6318
 5420TIP3    H137895   3.467   1.263   2.476 -0.4656 -1.3095  0.6780
 5420TIP3    H237896   3.394   1.328   2.360 -0.1791 -1.7333  0.2561
 5421TIP3   OH237897   5.467   6.024   8.291 -0.4159 -0.4153 -0.1049
 5421TIP3    H137898   5.562   6.013   8.291 -0.4120 -0.3869  0.5791
 5421TIP3    H237899   5.453   6.116   8.313 -0.5352  0.3715 -2.9650
 5422TIP3   OH237900   2.186   3.442   6.871  0.2589 -0.0428 -0.1379
 5422TIP3    H137901   2.121   3.509   6.846 -0.5127 -0.1546  1.4529
 5422TIP3    H237902   2.270   3.481   6.848 -0.3050  0.5169 -1.3490
 5423TIP3   OH237903   1.639   1.728   7.033  0.5431 -0.0392  1.4431
 5423TIP3    H137904   1.618   1.732   6.940 -0.7491 -0.5352  1.6856
 5423TIP3    H237905   1.699   1.655   7.041 -0.6291 -1.0660  1.1897
 5424TIP3   OH237906   2.910   3.022   7.265  0.2346 -0.1417 -0.5951
 5424TIP3    H137907   2.901   2.970   7.185  2.0253  0.3610 -1.1569
 5424TIP3    H237908   2.956   3.101   7.238  0.8048  0.0816  0.9216
 5425TIP3   OH237909   6.804   6.442   2.191 -0.2450 -0.2131 -0.2162
 5425TIP3    H137910   6.828   6.380   2.260 -2.2196 -0.0410  0.7114
 5425TIP3    H237911   6.728   6.489   2.227 -0.8878  0.3849 -2.2261
 5426TIP3   OH237912   1.339   5.014   1.007  0.9967  0.2251 -0.1615
 5426TIP3    H137913   1.399   4.942   1.023  1.4483  0.2033 -1.7635
 5426TIP3    H237914   1.346   5.070   1.085  1.4015 -0.9165  0.6392
 5427TIP3   OH237915   2.119   3.575   7.787  0.0600 -0.0040 -0.1223
 5427TIP3    H137916   2.114   3.668   7.808 -1.5151 -0.0829  0.0080
 5427TIP3    H237917   2.192   3.567   7.726  0.6705  1.2010  0.4243
 5428TIP3   OH237918   4.359   4.932   1.315  0.3697  0.1746  0.4483
 5428TIP3    H137919   4.447   4.923   1.281  1.3215  1.7477  2.3167
 5428TIP3    H237920   4.327   4.842   1.323  1.4257 -0.3768 -1.0753
 5429TIP3   OH237921   0.861   0.688   1.521 -0.0488 -0.1154  0.1969
 5429TIP3    H137922   0.911   0.612   1.549 -1.4891 -1.5444 -0.9539
 5429TIP3    H237923   0.927   0.749   1.487  1.0392 -1.3660 -0.0211
 5430TIP3   OH237924   1.605   2.876   1.806 -0.1776  0.6484 -0.1843
 5430TIP3    H137925   1.625   2.805   1.866 -0.3643  0.5201 -0.2731
 5430TIP3    H237926   1.545   2.838   1.742 -1.8392  1.3902  0.8714
 5431TIP3   OH237927   6.278   5.002   7.769 -0.5961 -0.0725 -0.8865
 5431TIP3    H137928   6.303   5.091   7.742 -1.3195 -0.1671 -1.9335
 5431TIP3    H237929   6.361   4.962   7.796 -0.4554  1.3467  0.9823
 5432TIP3   OH237930   1.974   2.404   7.286 -0.5510 -0.2645 -0.4024
 5432TIP3    H137931   1.989   2.319   7.327 -0.8278 -1.0045 -1.7979
 5432TIP3    H237932   1.915   2.386   7.213 -3.3982  1.6310  1.2393
 5433TIP3   OH237933   2.498   5.427   7.696  1.0589 -0.1102  0.1906
 5433TIP3    H137934   2.564   5.496   7.693 -0.4655  1.4171 -0.3143
 5433TIP3    H237935   2.420   5.471   7.729 -0.1268 -1.4659 -0.6834
 5434TIP3   OH237936   4.886   4.847   1.432 -0.2267 -0.2417  0.5954
 5434TIP3    H137937   4.819   4.794   1.389 -0.7624  0.0134  1.1002
 5434TIP3    H237938   4.837   4.915   1.478  0.1580 -1.4841  3.0281
 5435TIP3   OH237939   4.223   4.311   0.622  0.3853 -0.2803  0.3062
 5435TIP3    H137940   4.295   4.252   0.644  1.5704  1.0487  0.0864
 5435TIP3    H237941   4.254   4.362   0.547 -0.9498  0.0319 -0.0728
 5436TIP3   OH237942   4.970   1.348   7.544  0.6617  1.0530 -0.4815
 5436TIP3    H137943   5.026   1.399   7.486  0.0206  2.6177  0.2187
 5436TIP3    H237944   4.884   1.348   7.502  0.5135  1.0537 -0.1815
 5437TIP3   OH237945   3.414   2.568   2.089 -0.3746  0.7496  0.3470
 5437TIP3    H137946   3.371   2.653   2.076  0.6157  1.2177 -0.0507
 5437TIP3    H237947   3.360   2.506   2.041 -1.3439  1.0789  0.9881
 5438TIP3   OH237948   6.953   0.894   0.506  0.2397  0.6114  0.1632
 5438TIP3    H137949   7.026   0.847   0.466 -1.1404 -1.8778  0.3827
 5438TIP3    H237950   6.907   0.934   0.432  0.4883  0.1876 -0.2271
 5439TIP3   OH237951   3.719   0.201   7.844  0.2852 -0.2243  0.0320
 5439TIP3    H137952   3.662   0.250   7.903 -0.4366 -1.8587  0.7530
 5439TIP3    H237953   3.671   0.121   7.825  0.6549  0.0664 -2.5288
 5440TIP3   OH237954   6.559   1.219   8.394 -0.2581  0.1932  0.0179
 5440TIP3    H137955   6.535   1.134   8.356  0.0249  0.6129 -1.1354
 5440TIP3    H237956   6.574   1.276   8.318  0.0687  1.1338  0.7702
 5441TIP3   OH237957   2.890   5.353   8.443 -0.0325  0.5315 -0.0017
 5441TIP3    H137958   2.810   5.391   8.481 -0.3022  1.4715 -1.4417
 5441TIP3    H237959   2.858   5.298   8.371  0.5541 -0.2000  0.2822
 5442TIP3   OH237960   0.401   0.612   2.648  0.3155 -0.1023  0.1428
 5442TIP3    H137961   0.333   0.662   2.601  0.6566 -0.2516 -0.5123
 5442TIP3    H237962   0.365   0.602   2.737 -0.7879 -0.6763 -0.3432
 5443TIP3   OH237963   1.772   2.048   8.318 -0.0978  0.4002  0.4350
 5443TIP3    H137964   1.829   2.116   8.353  2.0465  0.4627 -2.7144
 5443TIP3    H237965   1.788   1.972   8.374  1.9453  0.8904  0.5993
 5444TIP3   OH237966   3.772   1.860   7.040 -0.1738  0.0848  0.2379
 5444TIP3    H137967   3.729   1.790   6.991 -2.5226  1.6451 -0.0638
 5444TIP3    H237968   3.847   1.817   7.082 -0.5717 -2.2192 -1.2421
 5445TIP3   OH237969   1.362   2.942   2.016  0.1970  0.9672 -0.4037
 5445TIP3    H137970   1.316   2.967   2.096  3.2377  1.0507  1.4975
 5445TIP3    H237971   1.390   2.852   2.032  0.2056  0.7106 -1.7388
 5446TIP3   OH237972   2.316   4.744   1.269  0.3091  0.1347  0.0392
 5446TIP3    H137973   2.405   4.775   1.254  0.4158 -0.9695 -1.9069
 5446TIP3    H237974   2.292   4.700   1.187 -0.8775 -2.3446  1.6072
 5447TIP3   OH237975   4.623   6.702   0.960 -0.1687 -0.2519 -0.1498
 5447TIP3    H137976   4.629   6.613   0.925  0.7661 -0.3339  0.1797
 5447TIP3    H237977   4.550   6.741   0.912 -0.5638 -1.1724 -0.3379
 5448TIP3   OH237978   4.379   5.187   1.228  0.2882  0.2432  0.0368
 5448TIP3    H137979   4.401   5.218   1.316  1.2667  0.0944 -0.1458
 5448TIP3    H237980   4.367   5.092   1.239 -1.2057  0.4419  0.3064
 5449TIP3   OH237981   2.781   2.254   7.029  0.2849 -0.0380  0.2532
 5449TIP3    H137982   2.782   2.233   7.123  1.0009 -0.4919  0.1603
 5449TIP3    H237983   2.866   2.221   6.998 -0.4922 -1.0874 -0.8049
 5450TIP3   OH237984   1.288   1.843   0.257 -0.5014 -0.5118 -0.3302
 5450TIP3    H137985   1.268   1.752   0.277  1.6030 -0.8583  0.4884
 5450TIP3    H237986   1.358   1.866   0.318 -1.5629  1.9486  0.0688
 5451TIP3   OH237987   0.360   6.141   7.169 -0.1754  0.2556 -0.4732
 5451TIP3    H137988   0.377   6.216   7.113 -2.0145  1.1548  0.0943
 5451TIP3    H237989   0.337   6.070   7.108 -0.1922  0.6559 -0.9359
 5452TIP3   OH237990   6.037   1.501   1.294 -0.0193 -0.8926  0.1103
 5452TIP3    H137991   6.099   1.485   1.366  1.6274 -0.5456 -1.1829
 5452TIP3    H237992   5.956   1.526   1.338  1.1079 -0.0991  1.8549
 5453TIP3   OH237993   6.285   4.019   1.482 -0.0892  0.2071 -0.6933
 5453TIP3    H137994   6.290   3.971   1.399  0.8203 -0.1761 -0.4271
 5453TIP3    H237995   6.346   4.091   1.471  0.4015 -0.1220 -0.1877
 5454TIP3   OH237996   5.318   3.756   7.158 -0.0583  0.2460  0.1454
 5454TIP3    H137997   5.252   3.733   7.223 -0.9368  0.6472 -0.5721
 5454TIP3    H237998   5.311   3.852   7.150 -0.8565  0.0874 -1.4204
 5455TIP3   OH237999   5.080   4.605   0.469 -0.2103 -0.1554  0.3712
 5455TIP3    H138000   5.080   4.586   0.376  0.2996 -1.8471  0.6689
 5455TIP3    H238001   5.148   4.672   0.480  0.2549 -0.4918 -0.3747
 5456TIP3   OH238002   1.299   1.356   2.845  0.2415 -0.2641  0.4245
 5456TIP3    H138003   1.223   1.348   2.788  0.7377 -1.7027 -0.0835
 5456TIP3    H238004   1.374   1.357   2.785  0.7032 -0.3917  0.9912
 5457TIP3   OH238005   5.577   1.601   2.037 -0.2614 -0.4596 -0.2395
 5457TIP3    H138006   5.565   1.616   2.131 -0.8506 -0.6132 -0.2908
 5457TIP3    H238007   5.546   1.681   1.996  0.9554  0.0275 -0.2579
 5458TIP3   OH238008   5.354   1.484   1.394 -0.0005 -0.4718  0.0409
 5458TIP3    H138009   5.413   1.496   1.468  0.0633 -2.8374  0.4483
 5458TIP3    H238010   5.325   1.393   1.400 -2.1902  0.0468 -1.2589
 5459TIP3   OH238011   4.785   6.780   1.635 -0.1000 -0.2338  0.0341
 5459TIP3    H138012   4.811   6.752   1.547 -1.4911 -0.9199 -0.1872
 5459TIP3    H238013   4.729   6.856   1.621  0.3670  0.1805  0.3872
 5460TIP3   OH238014   3.045   1.903   1.361  0.3591 -0.1501 -0.0994
 5460TIP3    H138015   3.084   1.884   1.276 -0.0919  0.0813 -0.3649
 5460TIP3    H238016   3.117   1.898   1.423  0.2510 -2.9956 -0.0857
 5461TIP3   OH238017   1.878   0.717   7.691 -0.2338  0.0008  0.1556
 5461TIP3    H138018   1.880   0.633   7.737 -0.7357  0.3312  0.7902
 5461TIP3    H238019   1.906   0.781   7.756 -1.0675  0.4865  0.0499
 5462TIP3   OH238020   2.079   6.022   0.594 -0.2449  0.3335 -0.4875
 5462TIP3    H138021   2.118   6.021   0.507 -1.0876 -1.8250 -0.8998
 5462TIP3    H238022   2.007   6.086   0.587  0.5541  1.2065 -0.9304
 5463TIP3   OH238023   2.747   0.724   8.052  0.1211  0.1974 -0.4742
 5463TIP3    H138024   2.683   0.681   7.995 -0.2146 -0.1837  0.1808
 5463TIP3    H238025   2.743   0.676   8.134 -0.2870  1.4850  0.2901
 5464TIP3   OH238026   4.456   4.435   1.826  0.1935 -0.7292  0.0635
 5464TIP3    H138027   4.447   4.530   1.830 -1.3268 -0.7768 -1.1881
 5464TIP3    H238028   4.549   4.419   1.841  0.2731  0.8472  1.5693
 5465TIP3   OH238029   0.017   6.359   7.624  0.2454  0.0851 -0.1622
 5465TIP3    H138030  -0.064   6.355   7.574 -0.8427 -0.3845  1.5640
 5465TIP3    H238031  -0.011   6.361   7.715  2.1902 -1.9866  0.5746
 5466TIP3   OH238032   6.157   0.003   6.599 -0.1973 -0.2374 -0.3494
 5466TIP3    H138033   6.226  -0.063   6.601  1.9654  1.8149 -1.9002
 5466TIP3    H238034   6.203   0.085   6.585 -2.4670  2.1192  4.1081
 5467TIP3   OH238035   4.570   0.008   8.077  0.0727  0.4603  0.1096
 5467TIP3    H138036   4.503   0.062   8.036  1.1280  1.1595 -0.7416
 5467TIP3    H238037   4.532  -0.080   8.081 -0.5565  0.6604 -1.1560
 5468TIP3   OH238038   3.782   0.673   0.515  0.0791  0.2124  0.0375
 5468TIP3    H138039   3.847   0.664   0.445 -0.1766  0.1488 -0.1897
 5468TIP3    H238040   3.699   0.651   0.474  0.1237 -1.4422  0.7487
 5469TIP3   OH238041   5.800   1.617   8.109  0.3059  0.0612 -1.0618
 5469TIP3    H138042   5.747   1.561   8.053  0.2800 -0.3712 -0.6142
 5469TIP3    H238043   5.737   1.660   8.167  0.3853  0.0409 -0.9591
 5470TIP3   OH238044   4.934   0.448   2.348 -0.6110  0.0384  0.5047
 5470TIP3    H138045   4.929   0.353   2.355 -1.5260 -0.1278 -1.6509
 5470TIP3    H238046   4.910   0.480   2.435 -2.1358 -1.6922  0.7830
 5471TIP3   OH238047   2.184   0.010   2.208  0.5051 -0.2773 -0.1058
 5471TIP3    H138048   2.266   0.060   2.209  0.7165 -0.5422 -1.4872
 5471TIP3    H238049   2.212  -0.081   2.221  0.2747 -0.2193  0.8491
 5472TIP3   OH238050   1.047   0.174   1.769  0.2531  0.5136 -0.3993
 5472TIP3    H138051   1.003   0.217   1.696 -0.2932  0.7820  0.0840
 5472TIP3    H238052   1.026   0.081   1.758  0.3754  0.5248 -0.7235
 5473TIP3   OH238053   1.189   0.634   1.219 -0.0418  0.3150 -0.1721
 5473TIP3    H138054   1.185   0.650   1.125 -1.9379  3.2624  0.3032
 5473TIP3    H238055   1.120   0.569   1.235  0.6525 -0.6175 -0.8236
 5474TIP3   OH238056   6.801   2.389   2.052 -0.1253  0.2465 -0.0497
 5474TIP3    H138057   6.756   2.397   1.968 -2.7666  0.8093  1.2973
 5474TIP3    H238058   6.783   2.472   2.097  0.4394 -0.3868  1.4133
 5475TIP3   OH238059   1.281   4.160   1.380 -0.4319 -0.1878  0.0305
 5475TIP3    H138060   1.297   4.193   1.468  1.7163  0.8252 -0.6540
 5475TIP3    H238061   1.321   4.225   1.323 -2.9549 -0.1180 -1.8150
 5476TIP3   OH238062   5.402   5.597   0.511  0.8078 -0.1481 -0.0938
 5476TIP3    H138063   5.404   5.679   0.463 -1.8264  0.1182  0.1336
 5476TIP3    H238064   5.377   5.621   0.600 -0.7438 -1.2364 -0.2047
 5477TIP3   OH238065   0.454   0.918   0.335 -0.6241 -0.5065 -0.2177
 5477TIP3    H138066   0.422   0.997   0.378 -2.6028 -0.3156 -1.8933
 5477TIP3    H238067   0.485   0.947   0.250  3.4098 -0.8545  0.9314
 5478TIP3   OH238068   0.778   1.468   1.170  0.1151  0.1193  0.2831
 5478TIP3    H138069   0.809   1.443   1.083 -1.0770 -0.2164 -0.0737
 5478TIP3    H238070   0.753   1.560   1.161 -0.9857 -0.1882 -0.0504
 5479TIP3   OH238071   3.800   2.828   7.781  0.0710 -0.0886  0.8032
 5479TIP3    H138072   3.707   2.832   7.801 -0.7978  0.4730 -2.6749
 5479TIP3    H238073   3.816   2.904   7.725  2.5941 -0.2674  1.1778
 5480TIP3   OH238074   6.789   3.245   2.967  0.5953 -0.4584 -0.5522
 5480TIP3    H138075   6.870   3.207   2.932  0.4124 -1.5806  0.1896
 5480TIP3    H238076   6.812   3.336   2.985  0.5235  0.4121 -4.0982
 5481TIP3   OH238077   0.173   5.358   0.779 -0.5271  0.1420  0.3271
 5481TIP3    H138078   0.221   5.371   0.697  1.3881 -0.7194  1.2570
 5481TIP3    H238079   0.091   5.317   0.752  0.5255 -1.1618 -1.0771
 5482TIP3   OH238080   1.531   4.831   1.850 -0.8074  0.2485  0.3922
 5482TIP3    H138081   1.468   4.876   1.907  1.6135  1.4029  2.3324
 5482TIP3    H238082   1.564   4.758   1.903  2.6376  2.2397  1.3035
 5483TIP3   OH238083   4.103   1.429   1.165 -0.1740 -0.4554 -0.8205
 5483TIP3    H138084   4.107   1.357   1.228  0.8775  0.3361  0.0531
 5483TIP3    H238085   4.071   1.503   1.215 -2.4386 -0.5542 -2.0007
 5484TIP3   OH238086   3.102   4.880   1.007 -0.4553  0.1237 -0.0129
 5484TIP3    H138087   3.138   4.961   0.970  0.6621 -0.4136 -0.1647
 5484TIP3    H238088   3.180   4.830   1.031 -1.1445 -0.8009  0.2999
 5485TIP3   OH238089   6.216   0.199   0.234 -0.2630  0.2774 -0.0630
 5485TIP3    H138090   6.279   0.257   0.277 -1.8799  0.5367  2.1218
 5485TIP3    H238091   6.268   0.151   0.169  2.2559  0.2553  1.8224
 5486TIP3   OH238092   3.508   3.444   1.163 -0.0505  0.7086  0.4182
 5486TIP3    H138093   3.577   3.428   1.099  0.4959 -0.0496  1.1731
 5486TIP3    H238094   3.538   3.519   1.214 -0.6342  1.5173 -0.3913
 5487TIP3   OH238095   3.671   2.962   0.394  0.1885  0.1815  0.0155
 5487TIP3    H138096   3.735   2.891   0.385 -0.6656 -0.6947  0.6708
 5487TIP3    H238097   3.661   2.973   0.488  0.2325  1.1173 -0.0847
 5488TIP3   OH238098   1.710   2.635   7.093  0.2153 -0.6351  0.1578
 5488TIP3    H138099   1.625   2.674   7.112 -0.3610 -2.3068  1.2139
 5488TIP3    H238100   1.767   2.709   7.072 -0.9243  0.7177  1.6814
 5489TIP3   OH238101   6.024   4.173   7.477  0.3183 -0.0999 -0.1928
 5489TIP3    H138102   5.962   4.241   7.451 -0.2728 -0.6476 -0.2402
 5489TIP3    H238103   6.042   4.191   7.570 -1.1344 -0.8370  0.2662
 5490TIP3   OH238104   6.374   5.602   1.871 -0.2646  0.0640  0.1818
 5490TIP3    H138105   6.393   5.508   1.871  2.3183  0.5028  0.4023
 5490TIP3    H238106   6.396   5.630   1.960  0.1106  1.0576 -0.2094
 5491TIP3   OH238107   5.414   2.648   6.931  0.2493  0.1726  0.3513
 5491TIP3    H138108   5.363   2.582   6.977 -0.0934  0.6329  0.6465
 5491TIP3    H238109   5.504   2.636   6.962 -0.0079  0.6007  1.2926
 5492TIP3   OH238110   6.657   0.313   0.551  0.1878  0.3596 -0.4407
 5492TIP3    H138111   6.600   0.295   0.626  1.4845  0.8832  0.7144
 5492TIP3    H238112   6.720   0.377   0.583 -0.3215  2.0255 -2.5299
 5493TIP3   OH238113   3.695   2.415   8.205 -0.3012  0.1504 -0.1777
 5493TIP3    H138114   3.700   2.444   8.296  2.1464  0.8241 -0.4455
 5493TIP3    H238115   3.735   2.328   8.205 -0.2977  0.1495 -0.5880
 5494TIP3   OH238116   3.006   0.145   1.878  0.0015  0.1573 -0.6091
 5494TIP3    H138117   3.066   0.176   1.811 -0.0999  0.1466 -0.7058
 5494TIP3    H238118   3.050   0.069   1.918  0.4053  0.6352 -0.1311
 5495TIP3   OH238119   2.296   6.757   8.102 -0.2008  0.0380 -0.3119
 5495TIP3    H138120   2.251   6.842   8.108 -0.4613  0.1550 -2.8091
 5495TIP3    H238121   2.364   6.770   8.036  1.1999 -1.1529  0.8155
 5496TIP3   OH238122   5.502   4.599   0.538  0.6075  0.2263  0.2439
 5496TIP3    H138123   5.427   4.540   0.529  2.2775 -1.9565 -0.2773
 5496TIP3    H238124   5.530   4.614   0.448 -0.4349  2.8348  0.2756
 5497TIP3   OH238125   1.938   1.422   7.536  0.0199 -0.3899  0.0364
 5497TIP3    H138126   1.858   1.436   7.485 -0.4332 -0.4784  0.7010
 5497TIP3    H238127   1.952   1.328   7.534 -1.0144 -0.6246  1.5169
 5498TIP3   OH238128   4.607   3.008   1.594  0.2310 -0.2877  0.5134
 5498TIP3    H138129   4.552   3.021   1.517 -1.8523 -1.8091  1.6342
 5498TIP3    H238130   4.696   3.005   1.560 -0.6749 -1.9533 -2.0147
 5499TIP3   OH238131   1.633   5.018   7.242 -0.2620  0.8247  0.7905
 5499TIP3    H138132   1.669   4.999   7.329 -2.9244 -0.3703  1.7470
 5499TIP3    H238133   1.602   5.108   7.249 -1.3578  0.4177  1.4669
 5500TIP3   OH238134   2.650   5.520   8.465 -0.2800  0.1199 -0.8118
 5500TIP3    H138135   2.574   5.485   8.512  0.5544 -1.0938 -0.3137
 5500TIP3    H238136   2.688   5.584   8.525 -1.7239  1.8605 -1.6625
 5501TIP3   OH238137   3.397   1.875   6.361 -0.0709 -0.5009  0.1941
 5501TIP3    H138138   3.387   1.898   6.453 -1.9348  0.6657 -0.2429
 5501TIP3    H238139   3.363   1.786   6.354 -0.7009 -0.2862  0.4999
 5502TIP3   OH238140   4.406   1.488   0.401 -0.2176  0.4914 -0.2300
 5502TIP3    H138141   4.313   1.465   0.397  0.2594 -1.5777 -0.5049
 5502TIP3    H238142   4.419   1.519   0.491 -1.0823  0.3847 -0.0570
 5503TIP3   OH238143   6.632   4.501   1.768  0.2765 -0.2575 -0.4742
 5503TIP3    H138144   6.595   4.578   1.812  0.2893 -1.3345  1.5446
 5503TIP3    H238145   6.559   4.440   1.761  0.0349  0.2067 -2.9160
 5504TIP3   OH238146   2.790   5.124   8.218  0.2732 -0.6653  0.0742
 5504TIP3    H138147   2.708   5.172   8.207 -0.3013 -0.9286  2.6814
 5504TIP3    H238148   2.805   5.082   8.133 -2.7966 -1.4113 -0.2032
 5505TIP3   OH238149   2.916   4.192   2.960  0.0354 -0.0076  0.1908
 5505TIP3    H138150   2.846   4.189   3.026 -0.2710 -1.5347 -0.1771
 5505TIP3    H238151   2.886   4.134   2.891  1.1046  0.3141 -0.5601
 5506TIP3   OH238152   6.000   5.699   2.949 -0.6177  0.5779 -0.1622
 5506TIP3    H138153   5.988   5.606   2.969  0.7727  0.6722  1.2636
 5506TIP3    H238154   5.911   5.732   2.934 -1.4011 -0.4044  2.0068
 5507TIP3   OH238155   0.458   6.625   6.670  0.0579  0.0296  0.0723
 5507TIP3    H138156   0.413   6.584   6.744  2.9653 -1.9847  0.8788
 5507TIP3    H238157   0.507   6.697   6.709  0.3961 -0.0734 -0.1586
 5508TIP3   OH238158   0.057   0.022   8.172  0.0397  0.3411  0.1051
 5508TIP3    H138159  -0.034   0.011   8.143  0.1586 -2.1229  0.5019
 5508TIP3    H238160   0.057   0.106   8.219 -1.6758  1.0841 -1.1046
 5509TIP3   OH238161   6.833   0.602   7.497  0.9247 -0.2766 -0.3230
 5509TIP3    H138162   6.879   0.527   7.457 -1.7058 -1.3820 -1.4867
 5509TIP3    H238163   6.889   0.677   7.478  2.3488 -1.5553 -1.4806
 5510TIP3   OH238164   3.031   6.641   0.275 -0.2466  1.0209  0.0993
 5510TIP3    H138165   2.950   6.623   0.227 -0.5281  0.4138  0.7888
 5510TIP3    H238166   3.011   6.619   0.366  1.8347 -3.1948 -0.1854
 5511TIP3   OH238167   3.231   0.716   8.172 -0.4456 -0.0777  0.3439
 5511TIP3    H138168   3.244   0.769   8.251  1.7636 -0.2089  0.1543
 5511TIP3    H238169   3.149   0.747   8.134  0.2814  2.5669  0.7506
 5512TIP3   OH238170   4.052   5.009   2.151 -0.1228 -0.0610  0.5273
 5512TIP3    H138171   4.130   4.958   2.171 -0.0105  0.4417  1.4460
 5512TIP3    H238172   4.051   5.078   2.217 -1.1597  0.1456  0.3178
 5513TIP3   OH238173   6.233   6.773   7.527  0.3447 -0.4282 -0.2603
 5513TIP3    H138174   6.159   6.730   7.484  0.2029 -0.3203 -0.1257
 5513TIP3    H238175   6.256   6.716   7.600 -2.2467  1.4634  2.2709
 5514TIP3   OH238176   5.299   6.214   0.446  0.0513  0.4797 -0.5597
 5514TIP3    H138177   5.358   6.179   0.380  1.9613 -0.5768  1.5854
 5514TIP3    H238178   5.248   6.139   0.475 -0.5461  0.8713 -0.5827
 5515TIP3   OH238179   0.770   2.591   8.341  0.1146 -0.1041  0.2591
 5515TIP3    H138180   0.705   2.661   8.336 -1.0576 -1.1163  0.8197
 5515TIP3    H238181   0.769   2.552   8.254  0.2074  0.0921  0.1704
 5516TIP3   OH238182   0.086   1.898   7.563 -0.2431 -0.4720 -0.3943
 5516TIP3    H138183   0.103   1.811   7.529 -0.2775 -0.6290 -0.0108
 5516TIP3    H238184   0.164   1.921   7.613 -0.8631 -0.9191  0.7990
 5517TIP3   OH238185   1.545   0.044   1.917  0.3083 -0.2271  0.2558
 5517TIP3    H138186   1.590   0.124   1.941 -2.7811  1.4204  1.1945
 5517TIP3    H238187   1.452   0.066   1.926 -0.7031 -3.5604 -0.6755
 5518TIP3   OH238188   2.344   3.627   8.280 -0.2724 -0.0328 -0.5199
 5518TIP3    H138189   2.321   3.719   8.285 -3.0902 -0.7019  1.6233
 5518TIP3    H238190   2.278   3.589   8.222  0.3158 -0.8337 -0.6776
 5519TIP3   OH238191   1.076   3.480   1.705 -0.4125  0.3966 -0.1050
 5519TIP3    H138192   1.003   3.418   1.717 -0.0060 -0.1109 -0.2270
 5519TIP3    H238193   1.068   3.509   1.614  1.2159 -1.8656 -1.0571
 5520TIP3   OH238194   4.875   6.677   7.868  0.4239 -0.9948 -0.5553
 5520TIP3    H138195   4.960   6.714   7.841  0.6788  0.1182  1.5582
 5520TIP3    H238196   4.811   6.723   7.813  1.1440 -2.1025 -2.4274
 5521TIP3   OH238197   1.211   0.402   7.423 -0.2998 -0.2606 -0.0263
 5521TIP3    H138198   1.116   0.388   7.420 -0.0964 -1.8884  0.2568
 5521TIP3    H238199   1.248   0.317   7.401  1.1019  0.1748  0.5890
 5522TIP3   OH238200   3.283   3.009   7.720  0.1249  0.7018 -0.3359
 5522TIP3    H138201   3.250   3.097   7.744 -0.8651  0.6010 -1.2542
 5522TIP3    H238202   3.300   3.015   7.626  0.8353  0.1360 -0.2445
 5523TIP3   OH238203   1.027   3.518   0.096 -0.2685 -0.4169 -0.5999
 5523TIP3    H138204   1.098   3.562   0.049 -0.2635  1.2364  0.8559
 5523TIP3    H238205   1.066   3.438   0.129  0.2805 -0.6183 -1.6874
 5524TIP3   OH238206   1.256   0.452   8.213 -0.0907 -0.6810 -0.7132
 5524TIP3    H138207   1.332   0.439   8.269  0.1034  0.1535 -0.7678
 5524TIP3    H238208   1.181   0.435   8.270  0.1063  0.2101 -0.1729
 5525TIP3   OH238209   3.279   1.335   7.584  0.5059 -0.2752 -0.1585
 5525TIP3    H138210   3.295   1.366   7.495  2.3579  0.2725  0.3135
 5525TIP3    H238211   3.211   1.269   7.574 -1.4466  1.7943 -1.5854
 5526TIP3   OH238212   4.530   1.900   1.763  0.0883  0.2436  0.3003
 5526TIP3    H138213   4.435   1.913   1.771  0.0453  0.0508  0.1013
 5526TIP3    H238214   4.541   1.854   1.680  0.3644  0.3438  0.2809
 5527TIP3   OH238215   3.572   5.939   7.145 -0.5285  0.2344  0.1079
 5527TIP3    H138216   3.491   5.970   7.184 -0.2190 -0.2210  1.1386
 5527TIP3    H238217   3.547   5.860   7.097 -1.4992  2.3840 -3.2933
 5528TIP3   OH238218   0.102   2.052   7.837 -0.5378  0.0553  0.3975
 5528TIP3    H138219   0.160   2.075   7.764 -2.2372 -1.0518 -1.4025
 5528TIP3    H238220   0.129   1.965   7.863 -1.8516 -0.8379 -1.0420
 5529TIP3   OH238221   2.628   0.605   2.900  0.1393  0.0737 -1.3011
 5529TIP3    H138222   2.546   0.637   2.937  0.0088 -1.0587 -0.5775
 5529TIP3    H238223   2.635   0.650   2.816  0.7489  3.1877  0.2749
 5530TIP3   OH238224   1.300   0.927   1.959 -0.1103  0.0866  0.4261
 5530TIP3    H138225   1.381   0.973   1.935 -0.6133  0.3879 -0.7564
 5530TIP3    H238226   1.252   0.919   1.877 -0.5869 -1.4929  0.8212
 5531TIP3   OH238227   2.348   6.624   7.263  0.3030  0.0196 -0.5002
 5531TIP3    H138228   2.391   6.708   7.282 -1.3254  1.1644 -1.6086
 5531TIP3    H238229   2.285   6.613   7.334  0.2556 -0.0744 -0.5573
 5532TIP3   OH238230   4.826   1.217   7.036 -0.3006  0.9368 -0.1068
 5532TIP3    H138231   4.755   1.281   7.021 -1.7728 -0.3383  1.0923
 5532TIP3    H238232   4.823   1.161   6.959 -1.5783  0.0617  0.5309
 5533TIP3   OH238233   5.738   5.942   8.334 -0.3674 -0.0188  0.5224
 5533TIP3    H138234   5.734   5.938   8.430  0.0631  0.3787  0.5598
 5533TIP3    H238235   5.819   5.990   8.316  0.6559 -1.8753 -0.0691
 5534TIP3   OH238236   5.635   0.064   1.825 -0.5538  0.0568  0.0941
 5534TIP3    H138237   5.543   0.068   1.851 -0.3399  1.3391  0.7549
 5534TIP3    H238238   5.634   0.027   1.737 -1.8605  1.4482 -0.5187
 5535TIP3   OH238239   1.177   0.707   2.070  0.1847  0.3925  0.5352
 5535TIP3    H138240   1.239   0.764   2.024 -1.9774  1.0173 -1.7890
 5535TIP3    H238241   1.185   0.622   2.026  0.3219  0.0928  1.1242
 5536TIP3   OH238242   6.848   3.608   8.206  1.0453 -0.4404  0.8692
 5536TIP3    H138243   6.908   3.547   8.164  1.4058 -0.8539  1.9550
 5536TIP3    H238244   6.814   3.561   8.281  0.0533  0.1184  0.7905
 5537TIP3   OH238245   2.704   1.259   8.474 -0.7041 -0.0602 -0.1085
 5537TIP3    H138246   2.690   1.192   8.541  0.8790 -0.5984 -0.2519
 5537TIP3    H238247   2.779   1.309   8.506 -0.6422  0.3976 -0.9402
 5538TIP3   OH238248   5.481   6.017   6.781 -0.0886 -0.1980  0.1170
 5538TIP3    H138249   5.406   5.977   6.738  0.4055 -1.1488  0.1142
 5538TIP3    H238250   5.534   5.943   6.810 -0.2186  0.3956  2.0365
 5539TIP3   OH238251   6.061   1.207   0.810  0.1267  0.0796 -0.4263
 5539TIP3    H138252   6.109   1.266   0.868  0.5456 -0.7629  0.0924
 5539TIP3    H238253   6.105   1.123   0.818 -0.0142 -0.1406 -1.7247
 5540TIP3   OH238254   5.305   5.262   7.450  0.4651  0.2562  0.0562
 5540TIP3    H138255   5.318   5.349   7.412  0.1385  0.8007  1.1558
 5540TIP3    H238256   5.289   5.206   7.375  0.4044  1.1929 -0.6556
 5541TIP3   OH238257   4.453   0.781   2.027  0.2019  0.5140 -0.0007
 5541TIP3    H138258   4.393   0.709   2.009  0.2085  0.8858 -1.6746
 5541TIP3    H238259   4.540   0.743   2.014  0.3777  0.1212  1.8932
 5542TIP3   OH238260   0.051   0.131   0.585  0.2496 -0.6279 -0.4316
 5542TIP3    H138261   0.120   0.108   0.647 -1.8744 -3.3620  1.1549
 5542TIP3    H238262  -0.008   0.188   0.635  0.6306  0.5665 -1.3234
 5543TIP3   OH238263   1.934   6.092   2.085 -0.1257 -0.3419 -0.1545
 5543TIP3    H138264   1.895   6.075   1.999  1.4125  0.9560 -1.1672
 5543TIP3    H238265   2.020   6.131   2.065 -0.5537  1.9271  1.9398
 5544TIP3   OH238266   3.671   5.186   8.310  0.1400  0.9288  0.4250
 5544TIP3    H138267   3.716   5.271   8.310  0.8241  0.6205 -1.4125
 5544TIP3    H238268   3.737   5.124   8.339  0.0448  0.8512  0.4737
 5545TIP3   OH238269   2.847   4.889   8.337 -0.1382  0.0997 -0.3439
 5545TIP3    H138270   2.786   4.821   8.307 -3.1289  1.6597  1.7543
 5545TIP3    H238271   2.811   4.971   8.304  0.9904  1.0606  0.6955
 5546TIP3   OH238272   3.403   5.667   0.308  0.0053  0.3750 -0.1789
 5546TIP3    H138273   3.360   5.716   0.239 -1.2193  1.6553  1.4250
 5546TIP3    H238274   3.339   5.662   0.379  1.5061 -0.1213  1.2208
 5547TIP3   OH238275   4.393   1.580   1.754  0.6764 -0.2128 -0.2269
 5547TIP3    H138276   4.383   1.627   1.836 -0.7153 -1.9673  0.6749
 5547TIP3    H238277   4.471   1.527   1.765 -0.2314 -1.4354  0.5165
 5548TIP3   OH238278   3.259   5.163   2.010  0.0965  0.6144  1.0798
 5548TIP3    H138279   3.218   5.238   1.966 -2.6045 -0.7088  1.1166
 5548TIP3    H238280   3.300   5.201   2.088  2.9535  2.6553 -1.2176
 5549TIP3   OH238281   1.409   1.253   0.728  0.4112  0.1055  0.4432
 5549TIP3    H138282   1.329   1.271   0.777 -1.0873 -0.2620 -1.7341
 5549TIP3    H238283   1.454   1.186   0.780 -0.9885 -0.1088  1.4280
 5550TIP3   OH238284   1.322   3.813   6.738 -0.6619 -0.5213 -0.0704
 5550TIP3    H138285   1.371   3.870   6.678 -0.9625  0.2146  0.3707
 5550TIP3    H238286   1.375   3.810   6.817 -0.9592 -0.3248  0.1401
 5551TIP3   OH238287   6.529   5.034   1.106 -0.3856 -0.3423  0.1720
 5551TIP3    H138288   6.520   5.118   1.060  1.6160 -0.2596 -0.1582
 5551TIP3    H238289   6.580   5.055   1.184 -3.1141 -0.6129  2.1982
 5552TIP3   OH238290   3.079   0.501   7.408 -0.7772 -0.4399  0.0427
 5552TIP3    H138291   2.988   0.484   7.432 -0.4127 -2.8266 -0.0080
 5552TIP3    H238292   3.079   0.505   7.312 -0.7790 -1.0184  0.0115
 5553TIP3   OH238293   3.480   0.588   8.501  0.1514 -0.2384  0.4806
 5553TIP3    H138294   3.428   0.668   8.509 -0.1615 -0.3896 -0.0228
 5553TIP3    H238295   3.418   0.518   8.519  0.1795 -0.4204 -0.1116
 5554TIP3   OH238296   4.966   5.444   0.953 -0.4689 -0.3074 -0.9187
 5554TIP3    H138297   5.042   5.443   1.011  0.4506  0.6051 -2.0806
 5554TIP3    H238298   4.997   5.407   0.871 -0.9160  1.2572 -1.8262
 5555TIP3   OH238299   1.467   4.038   6.613  0.1182  0.4591 -0.4041
 5555TIP3    H138300   1.491   4.099   6.543  0.1022 -1.0378 -1.7665
 5555TIP3    H238301   1.440   4.094   6.685 -1.2023  2.0810 -2.0606
 5556TIP3   OH238302   0.086   4.173   2.310  0.5012  0.3642  0.3037
 5556TIP3    H138303   0.166   4.212   2.277 -0.2569  1.4687 -0.2797
 5556TIP3    H238304   0.108   4.144   2.399  1.5374  0.6528  0.1458
 5557TIP3   OH238305   1.411   6.620   0.635  0.0433  0.0767 -0.6593
 5557TIP3    H138306   1.452   6.698   0.674  1.0132 -0.9164  0.3720
 5557TIP3    H238307   1.429   6.628   0.541  0.2178  1.0333 -0.5613
 5558TIP3   OH238308   5.775   5.531   2.175 -0.7247 -0.2561  0.5863
 5558TIP3    H138309   5.783   5.450   2.125  0.3762 -0.0752  0.4550
 5558TIP3    H238310   5.754   5.598   2.110  0.5833 -0.0434  0.3646
 5559TIP3   OH238311   5.398   3.160   1.800 -0.2934 -0.3039  0.0910
 5559TIP3    H138312   5.487   3.195   1.795 -0.7260  0.6821 -1.2272
 5559TIP3    H238313   5.353   3.215   1.864 -0.6326  0.8342 -1.0908
 5560TIP3   OH238314   1.900   6.651   2.765  0.2790 -0.4248  0.7443
 5560TIP3    H138315   1.855   6.685   2.688 -0.5870 -0.2841  1.2957
 5560TIP3    H238316   1.956   6.581   2.732 -0.0579 -0.3468 -0.0090
 5561TIP3   OH238317   1.906   5.802   6.828 -0.1391 -0.6547  0.1528
 5561TIP3    H138318   1.988   5.834   6.790 -0.2296 -0.3470  0.2167
 5561TIP3    H238319   1.838   5.830   6.766 -0.2133 -0.7619  0.1861
 5562TIP3   OH238320   2.359   6.092   1.497 -0.7835  0.5192  0.5055
 5562TIP3    H138321   2.371   6.043   1.578 -0.2651  2.0626  1.4099
 5562TIP3    H238322   2.302   6.165   1.521 -0.3426  1.1998 -0.4423
 5563TIP3   OH238323   1.938   0.816   0.970 -0.3644 -0.3744 -0.3276
 5563TIP3    H138324   1.925   0.765   0.890  0.4700  0.2256 -0.8573
 5563TIP3    H238325   1.975   0.899   0.941  4.9360 -1.9021  0.9346
 5564TIP3   OH238326   0.590   3.228   6.921  0.1852 -0.3007  0.0292
 5564TIP3    H138327   0.624   3.256   7.006  1.6748  0.3329 -0.7435
 5564TIP3    H238328   0.504   3.190   6.941 -0.4188  1.6883  1.5651
 5565TIP3   OH238329   1.560   2.153   2.582  0.1833  0.0210  0.6146
 5565TIP3    H138330   1.544   2.235   2.628  1.0374 -0.0521  1.0649
 5565TIP3    H238331   1.527   2.086   2.641  0.5295 -0.0215  0.7651
 5566TIP3   OH238332   1.120   1.489   1.790  0.1890 -0.1901 -0.5267
 5566TIP3    H138333   1.164   1.405   1.788 -0.3658 -0.6396  1.9493
 5566TIP3    H238334   1.165   1.538   1.859 -2.4090 -0.3252  1.4557
 5567TIP3   OH238335   4.193   0.516   1.693  0.3368  0.1808 -0.4745
 5567TIP3    H138336   4.168   0.491   1.604  0.9775  0.1278 -0.6413
 5567TIP3    H238337   4.284   0.545   1.685  0.4699 -0.0417  0.2039
 5568TIP3   OH238338   0.362   4.173   1.313  0.6506 -0.3707  0.0156
 5568TIP3    H138339   0.383   4.099   1.371 -1.2663  0.1033  1.3959
 5568TIP3    H238340   0.406   4.248   1.353 -0.9158  0.0146  1.1106
 5569TIP3   OH238341   0.478   1.590   1.107 -0.1264  0.0114  0.2285
 5569TIP3    H138342   0.453   1.524   1.042 -0.3208  0.3142 -0.0060
 5569TIP3    H238343   0.550   1.638   1.067  1.0047 -0.9896  0.9845
 5570TIP3   OH238344   5.565   2.758   1.129  0.1601 -0.1542  0.1531
 5570TIP3    H138345   5.607   2.843   1.142 -0.7966  0.1228  1.6966
 5570TIP3    H238346   5.581   2.711   1.211  0.4579 -1.3801 -0.5820
 5571TIP3   OH238347   0.116   1.346   7.344 -0.9857  0.0231 -0.7590
 5571TIP3    H138348   0.156   1.429   7.319 -0.3190 -0.1655 -0.3542
 5571TIP3    H238349   0.023   1.365   7.354 -0.9425  0.5599 -1.3513
 5572TIP3   OH238350   4.900   6.334   7.795  0.1877  0.3089 -0.0419
 5572TIP3    H138351   4.845   6.396   7.747 -0.5333 -0.0729  0.2775
 5572TIP3    H238352   4.840   6.291   7.856  0.6381 -0.8088 -0.3625
 5573TIP3   OH238353   2.841   2.679   1.624 -0.2741 -0.0136  0.8826
 5573TIP3    H138354   2.783   2.752   1.604 -0.0121 -0.1913 -0.5967
 5573TIP3    H238355   2.783   2.608   1.651 -0.9026 -0.5163 -1.5417
 5574TIP3   OH238356   5.195   5.521   7.547  0.6970 -0.2635  0.1347
 5574TIP3    H138357   5.266   5.551   7.603 -1.1124  0.0761  2.3908
 5574TIP3    H238358   5.155   5.601   7.513  1.0242 -0.4273 -0.6403
 5575TIP3   OH238359   5.000   5.835   0.648  0.0362 -0.1363 -0.1216
 5575TIP3    H138360   4.995   5.748   0.609  0.1799  0.2145 -0.9630
 5575TIP3    H238361   4.911   5.869   0.642  0.1260  0.0486 -0.4838
 5576TIP3   OH238362   3.726   2.606   1.933  1.3800  0.1423 -0.7882
 5576TIP3    H138363   3.681   2.581   1.852  0.5890  0.0268 -0.3183
 5576TIP3    H238364   3.745   2.700   1.922  1.6480  0.0373 -1.2722
 5577TIP3   OH238365   1.494   5.337   2.754  0.1174 -0.1694 -0.7183
 5577TIP3    H138366   1.434   5.393   2.705 -1.6934 -1.9874 -0.7038
 5577TIP3    H238367   1.494   5.254   2.707  0.8145 -0.9574  0.5953
 5578TIP3   OH238368   5.410   1.663   0.398  0.3310  0.0101  0.4168
 5578TIP3    H138369   5.387   1.608   0.472 -1.3157  1.3906  0.9875
 5578TIP3    H238370   5.358   1.743   0.410  3.3007  2.1439  0.1658
 5579TIP3   OH238371   5.153   0.652   1.205 -0.0378 -0.1908 -0.1989
 5579TIP3    H138372   5.201   0.587   1.256 -0.7841 -1.8191 -1.4760
 5579TIP3    H238373   5.165   0.734   1.253 -0.0617 -1.4746  2.1411
 5580TIP3   OH238374   0.112   5.609   6.646 -0.1016  0.1538  0.1106
 5580TIP3    H138375   0.161   5.678   6.601  0.4453 -0.7920 -0.7697
 5580TIP3    H238376   0.028   5.650   6.667  0.9880  1.7872  1.5866
 5581TIP3   OH238377   5.097   3.324   7.611  0.0929 -0.3676 -0.0365
 5581TIP3    H138378   5.129   3.362   7.529 -0.5658 -0.5792 -0.3959
 5581TIP3    H238379   5.163   3.348   7.676  0.3066  0.3295 -0.5062
 5582TIP3   OH238380   4.472   3.313   7.579  0.0109 -0.1359  0.3321
 5582TIP3    H138381   4.544   3.251   7.593 -1.0042 -1.2981  0.6183
 5582TIP3    H238382   4.431   3.321   7.665 -0.5085  0.1184  0.0637
 5583TIP3   OH238383   3.816   5.889   0.735 -0.6599  1.0006 -0.2906
 5583TIP3    H138384   3.732   5.910   0.695 -0.3455  2.8573 -0.0555
 5583TIP3    H238385   3.880   5.940   0.685  0.4163 -0.7590 -0.7761
 5584TIP3   OH238386   1.715   2.717   7.833  0.1973 -0.6928  0.6619
 5584TIP3    H138387   1.807   2.694   7.816  0.1925  0.4337 -1.1127
 5584TIP3    H238388   1.706   2.806   7.798 -2.0092 -1.4448 -0.9062
 5585TIP3   OH238389   4.326   5.880   0.447  0.2861 -0.2196 -0.3987
 5585TIP3    H138390   4.296   5.971   0.444  0.1069 -0.3049 -1.9135
 5585TIP3    H238391   4.396   5.876   0.382  1.3514 -0.8107  0.7599
 5586TIP3   OH238392   4.514   6.397   7.399 -0.2402 -1.2861 -0.3226
 5586TIP3    H138393   4.433   6.429   7.437 -0.9504 -2.2370 -0.9853
 5586TIP3    H238394   4.510   6.302   7.409 -0.2404 -1.5402 -2.2803
 5587TIP3   OH238395   4.429   6.482   7.742 -0.1972 -0.3964 -0.4264
 5587TIP3    H138396   4.353   6.495   7.686  0.1437 -1.3603 -1.1568
 5587TIP3    H238397   4.503   6.511   7.689 -0.0989  1.4818  0.6410
 5588TIP3   OH238398   6.721   0.212   2.443  0.4144  0.0733  0.3621
 5588TIP3    H138399   6.749   0.278   2.380 -0.2271  0.4044  0.4151
 5588TIP3    H238400   6.783   0.220   2.515  0.7697  0.1309  0.0500
 5589TIP3   OH238401   5.494   1.232   6.724 -0.4290 -0.1556  0.2052
 5589TIP3    H138402   5.455   1.161   6.775 -1.9267 -0.1678 -0.8834
 5589TIP3    H238403   5.536   1.188   6.650  2.0744 -0.1712  1.5522
 5590TIP3   OH238404   5.704   1.732   2.321  0.4200  0.1068 -0.2666
 5590TIP3    H138405   5.655   1.798   2.272  0.8546  0.0232 -0.8148
 5590TIP3    H238406   5.789   1.773   2.338  0.5308 -0.1461 -0.2142
 5591TIP3   OH238407   4.564   2.695   1.506 -0.2128 -0.2543 -0.0729
 5591TIP3    H138408   4.535   2.614   1.465 -1.1600  0.4361 -0.8552
 5591TIP3    H238409   4.632   2.729   1.447  0.6937 -0.8229  0.6327
 5592TIP3   OH238410   6.046   1.394   2.749  0.4158  0.6724  0.6053
 5592TIP3    H138411   6.070   1.335   2.678 -1.2764 -3.4993  3.0825
 5592TIP3    H238412   6.105   1.469   2.740  2.1292 -0.8924 -3.4387
 5593TIP3   OH238413   6.312   6.393   1.176 -0.0910  0.7222 -0.0856
 5593TIP3    H138414   6.250   6.377   1.105  0.3858  1.8018 -0.7745
 5593TIP3    H238415   6.398   6.392   1.134  0.2969  0.1270  0.7041
 5594TIP3   OH238416   6.308   1.386   0.648  0.4274  0.2367  0.1761
 5594TIP3    H138417   6.230   1.433   0.620  0.9325 -0.1145 -2.0090
 5594TIP3    H238418   6.329   1.328   0.575  2.5468  0.0826  0.8385
 5595TIP3   OH238419   0.740   0.096   8.207  0.0557  0.0722  0.0014
 5595TIP3    H138420   0.815   0.053   8.249 -0.2228  0.2341  0.6827
 5595TIP3    H238421   0.752   0.189   8.226  0.4843  0.2765 -1.1929
 5596TIP3   OH238422   6.951   0.032   1.317 -0.1871  0.4182  0.1558
 5596TIP3    H138423   7.045   0.013   1.309  0.4131  2.5255  1.1936
 5596TIP3    H238424   6.930   0.081   1.237 -0.7498 -1.1555 -0.6834
 5597TIP3   OH238425   1.378   3.906   2.019  0.1316  0.1867 -0.0869
 5597TIP3    H138426   1.364   3.867   1.933 -0.5044  0.2412 -0.0102
 5597TIP3    H238427   1.453   3.858   2.055  0.4776  0.2499 -0.7167
 5598TIP3   OH238428   3.430   0.368   6.851  0.3680 -0.2182 -0.3030
 5598TIP3    H138429   3.362   0.301   6.855 -1.4179  1.2743 -2.5962
 5598TIP3    H238430   3.507   0.322   6.815 -1.0920 -0.9387 -2.7143
 5599TIP3   OH238431   5.682   5.789   7.388  0.3449  0.0761 -0.2179
 5599TIP3    H138432   5.599   5.790   7.341 -0.3420  0.3043  0.9565
 5599TIP3    H238433   5.678   5.866   7.445  0.1511 -1.3775  1.8551
 5600TIP3   OH238434   0.959   6.271   0.560  0.2188  0.5925  0.0995
 5600TIP3    H138435   1.031   6.329   0.584  0.6539  0.0356  0.1600
 5600TIP3    H238436   0.929   6.233   0.643  2.5070 -2.2556 -0.2171
 5601TIP3   OH238437   0.381   2.575   7.398  0.9356  0.4416  0.2112
 5601TIP3    H138438   0.442   2.564   7.325  2.5445  3.0334  1.0523
 5601TIP3    H238439   0.421   2.524   7.469  0.2485 -0.7093 -0.2091
 5602TIP3   OH238440   0.336   4.336   8.445 -0.2701  0.0175 -0.1753
 5602TIP3    H138441   0.302   4.314   8.358  1.6534 -0.4946 -0.8534
 5602TIP3    H238442   0.428   4.309   8.442  0.7930  3.0916  0.8511
 5603TIP3   OH238443   0.768   5.601   0.088  0.0159  0.6570  0.0160
 5603TIP3    H138444   0.853   5.644   0.084  0.1863  0.3442  0.2612
 5603TIP3    H238445   0.787   5.508   0.076 -0.3447  0.6400 -0.4573
 5604TIP3   OH238446   3.704   5.935   7.650 -0.0499  0.1428  0.2892
 5604TIP3    H138447   3.625   5.885   7.668 -0.4848  0.2824 -1.1752
 5604TIP3    H238448   3.718   5.926   7.556  0.8173  1.3753  0.2757
 5605TIP3   OH238449   2.230   5.771   1.663 -0.0304  0.5346 -0.0781
 5605TIP3    H138450   2.316   5.772   1.619 -0.2670 -1.7280 -0.7468
 5605TIP3    H238451   2.249   5.796   1.753  1.4100 -0.1557 -0.1515
 5606TIP3   OH238452   6.938   3.759   1.905 -0.0414  0.3434 -0.3741
 5606TIP3    H138453   7.033   3.749   1.900 -0.0370  0.6339 -1.0544
 5606TIP3    H238454   6.910   3.699   1.973  0.7069  0.7438  0.3009
 5607TIP3   OH238455   6.217   2.939   0.644  0.3724 -0.0642  0.2490
 5607TIP3    H138456   6.230   3.027   0.681  2.2076 -0.8557  1.6670
 5607TIP3    H238457   6.250   2.946   0.555  1.5307  0.4352  0.6981
 5608TIP3   OH238458   1.059   1.194   8.219 -0.4882 -0.0967 -0.2696
 5608TIP3    H138459   1.021   1.108   8.201  1.1914 -0.9662  0.0830
 5608TIP3    H238460   1.119   1.178   8.292 -0.5269  1.4923  0.1290
 5609TIP3   OH238461   3.999   2.009   0.735 -0.1782 -0.1055 -0.0704
 5609TIP3    H138462   4.038   2.083   0.781  0.2497 -0.9938  1.0362
 5609TIP3    H238463   4.074   1.962   0.698 -0.4993  0.5087 -1.6110
 5610TIP3   OH238464   5.121   3.197   7.858 -0.4391 -0.9313 -0.0355
 5610TIP3    H138465   5.181   3.269   7.840 -2.9521  1.0043 -1.3650
 5610TIP3    H238466   5.157   3.123   7.809  0.9214  0.1058 -0.6757
 5611TIP3   OH238467   3.405   1.915   0.333 -0.1591  0.2759 -0.0104
 5611TIP3    H138468   3.413   2.007   0.358  0.0757  0.3445 -0.3248
 5611TIP3    H238469   3.482   1.873   0.373  0.6092  0.5167 -1.1701
 5612TIP3   OH238470   2.787   6.837   6.752  0.0732 -0.0439 -0.0304
 5612TIP3    H138471   2.741   6.762   6.714 -1.6230  1.5784 -1.3796
 5612TIP3    H238472   2.878   6.808   6.761 -0.3059 -1.8650 -1.5884
 5613TIP3   OH238473   1.934   3.731   7.579 -0.2304  0.1067  0.6527
 5613TIP3    H138474   2.023   3.712   7.550 -0.9716  0.4003 -2.0554
 5613TIP3    H238475   1.944   3.806   7.638  1.4011 -0.6038  1.3307
 5614TIP3   OH238476   5.809   2.595   8.429  0.1307  0.2292  0.0915
 5614TIP3    H138477   5.851   2.673   8.391 -1.5039  0.6087 -1.0271
 5614TIP3    H238478   5.733   2.629   8.475 -0.7220 -0.7160 -0.5912
 5615TIP3   OH238479   5.235   4.985   0.814  0.5015  0.0455 -0.3736
 5615TIP3    H138480   5.297   4.914   0.797  1.7463  0.9669  0.2085
 5615TIP3    H238481   5.288   5.056   0.850 -0.1556  2.4207 -3.6544
 5616TIP3   OH238482   5.976   4.676   1.187 -0.0312  0.2580  0.7777
 5616TIP3    H138483   6.020   4.622   1.122  0.7200  1.7418  0.0206
 5616TIP3    H238484   6.041   4.690   1.255  1.1266  3.2286 -0.7791
 5617TIP3   OH238485   2.187   6.273   0.382  0.0503  0.1126 -0.1400
 5617TIP3    H138486   2.219   6.347   0.331 -0.9330  0.0936 -0.8128
 5617TIP3    H238487   2.258   6.209   0.381  1.1546  1.2792  0.9703
 5618TIP3   OH238488   5.314   4.398   0.494  0.5113 -0.0659  0.5976
 5618TIP3    H138489   5.242   4.376   0.434  0.0375 -0.4499  1.2854
 5618TIP3    H238490   5.271   4.414   0.578  1.3901 -2.6854  1.6543
 5619TIP3   OH238491   5.866   5.293   1.414  0.4496 -1.0684 -0.1491
 5619TIP3    H138492   5.797   5.228   1.405 -1.2904  0.7387 -0.7898
 5619TIP3    H238493   5.864   5.342   1.331  2.7703 -1.1469 -0.3322
 5620TIP3   OH238494   3.253   3.672   1.777 -0.3376 -0.2093 -0.2911
 5620TIP3    H138495   3.173   3.648   1.824 -1.0887  1.5815 -0.5617
 5620TIP3    H238496   3.319   3.685   1.845 -0.8550  0.3374  0.1087
 5621TIP3   OH238497   5.854   6.839   8.483 -0.1430 -0.2172  0.2947
 5621TIP3    H138498   5.802   6.863   8.559 -0.8802 -0.2775 -0.1779
 5621TIP3    H238499   5.894   6.921   8.454 -0.8062  0.0280  0.0518
 5622TIP3   OH238500   6.613   1.292   2.058 -0.4897 -0.1887  0.2573
 5622TIP3    H138501   6.703   1.312   2.034 -1.1596  1.4698 -1.0850
 5622TIP3    H238502   6.566   1.294   1.975 -1.8609 -0.5087  1.0020
 5623TIP3   OH238503   5.221   1.164   8.415  0.4179  0.2070  0.2028
 5623TIP3    H138504   5.272   1.110   8.355 -1.2605 -0.3711 -0.7758
 5623TIP3    H238505   5.144   1.190   8.364  0.5156  2.4226  1.0911
 5624TIP3   OH238506   1.762   1.199   1.336  0.0050 -0.3093 -0.0423
 5624TIP3    H138507   1.770   1.294   1.323 -0.6721 -0.6232 -3.6570
 5624TIP3    H238508   1.830   1.161   1.280 -0.8906 -1.9935 -0.0485
 5625TIP3   OH238509   1.344   5.926   7.589  0.6066 -0.1647  0.6524
 5625TIP3    H138510   1.356   5.889   7.676  0.3330  0.2279  0.8595
 5625TIP3    H238511   1.262   5.887   7.557 -0.7859  1.7121  1.6688
 5626TIP3   OH238512   4.467   3.889   7.501  0.2125 -0.7409  0.4119
 5626TIP3    H138513   4.401   3.836   7.455  0.2813 -0.6600  0.2209
 5626TIP3    H238514   4.472   3.970   7.451 -0.8433 -0.0098  1.4465
 5627TIP3   OH238515   6.295   6.612   1.354  0.0122  0.0893  0.5658
 5627TIP3    H138516   6.276   6.551   1.284  1.3847  0.4458 -0.1560
 5627TIP3    H238517   6.231   6.592   1.423 -1.3308 -0.2850 -0.7533
 5628TIP3   OH238518   1.781   0.696   1.283 -0.2111 -0.2376  0.3647
 5628TIP3    H138519   1.793   0.731   1.372 -0.2253  0.4373  0.1079
 5628TIP3    H238520   1.869   0.698   1.245 -0.3311  0.2132  0.1019
 5629TIP3   OH238521   1.826   3.761   6.924 -0.1452  0.1148  0.1212
 5629TIP3    H138522   1.833   3.830   6.989  0.6102  1.3396 -1.1887
 5629TIP3    H238523   1.746   3.781   6.876 -1.8994 -2.0281  1.9776
 5630TIP3   OH238524   6.315   4.612   7.480  0.5768  0.1491  0.1281
 5630TIP3    H138525   6.379   4.558   7.433  0.2521  0.8616 -1.2030
 5630TIP3    H238526   6.257   4.645   7.411  0.2619  1.5153  1.0089
 5631TIP3   OH238527   5.187   1.344   1.677  0.1447 -0.0632  0.3586
 5631TIP3    H138528   5.252   1.409   1.705 -1.0866  1.5702 -0.4276
 5631TIP3    H238529   5.132   1.331   1.755 -0.3128  0.7657  0.1922
 5632TIP3   OH238530   0.718   3.951   6.744 -0.2331 -0.4106 -0.6081
 5632TIP3    H138531   0.687   3.870   6.783 -1.3190  0.3744  0.2039
 5632TIP3    H238532   0.780   3.987   6.807  0.5890 -0.8130 -1.1693
 5633TIP3   OH238533   0.068   1.170   0.257  0.2255  0.2206 -0.6981
 5633TIP3    H138534   0.034   1.162   0.168  0.4213  0.1185 -0.7650
 5633TIP3    H238535   0.022   1.245   0.294 -0.2711 -0.0819 -0.6939
 5634TIP3   OH238536   4.890   3.089   2.430  0.0058 -0.1322  0.1711
 5634TIP3    H138537   4.849   3.162   2.385 -1.0991 -0.9473 -0.2082
 5634TIP3    H238538   4.839   3.012   2.403  1.3877 -1.1084  0.2076
 5635TIP3   OH238539   0.154   6.585   0.023  0.8784  0.4821  0.0282
 5635TIP3    H138540   0.111   6.621   0.101  0.3078  0.2743 -0.1872
 5635TIP3    H238541   0.247   6.587   0.045  0.9110  2.3684 -0.0945
 5636TIP3   OH238542   4.434   0.692   1.714 -0.3332 -0.0789  0.0932
 5636TIP3    H138543   4.513   0.727   1.757 -0.8964 -0.5744  1.5978
 5636TIP3    H238544   4.447   0.711   1.621  1.0235  0.8893  0.4479
 5637TIP3   OH238545   4.337   0.290   6.842 -0.2556  0.2222 -0.2096
 5637TIP3    H138546   4.303   0.201   6.856 -0.1996 -0.0068 -1.4046
 5637TIP3    H238547   4.293   0.321   6.763  1.0861  0.5257 -0.8828
 5638TIP3   OH238548   1.684   1.132   7.844  0.2568  0.2261  0.2786
 5638TIP3    H138549   1.718   1.221   7.842 -1.5296  0.9925  1.5989
 5638TIP3    H238550   1.686   1.108   7.937 -3.8127  0.8378  0.7053
 5639TIP3   OH238551   6.345   2.385   0.294  0.1575  0.3677 -0.1721
 5639TIP3    H138552   6.401   2.453   0.332  0.5754  1.0642 -1.9546
 5639TIP3    H238553   6.385   2.366   0.209 -1.3488 -0.3484 -0.7483
 5640TIP3   OH238554   5.409   5.823   0.376 -0.5335  0.1012 -0.3233
 5640TIP3    H138555   5.489   5.874   0.392 -0.7526  0.3377  0.0254
 5640TIP3    H238556   5.404   5.816   0.280 -0.2848  0.3869 -0.3598
 5641TIP3   OH238557   2.721   2.919   0.883 -0.7501  0.5454  0.0787
 5641TIP3    H138558   2.762   2.915   0.796  0.4133  3.2833  0.3822
 5641TIP3    H238559   2.707   3.013   0.897 -0.3203  0.2374  3.1103
 5642TIP3   OH238560   1.851   0.909   0.314  0.2163  0.3914  0.0515
 5642TIP3    H138561   1.845   0.824   0.357  0.0805 -0.1792 -1.0509
 5642TIP3    H238562   1.905   0.962   0.372 -1.1879  0.1510  1.6717
 5643TIP3   OH238563   1.500   0.370   0.848 -0.6986 -0.6099  0.6047
 5643TIP3    H138564   1.410   0.355   0.878 -0.6058 -0.2610  1.0760
 5643TIP3    H238565   1.545   0.404   0.925 -0.6357  1.0143 -0.1136
 5644TIP3   OH238566   4.192   3.738   7.910 -0.1643  0.5547 -0.1245
 5644TIP3    H138567   4.114   3.700   7.951  0.4077  0.4667  0.9161
 5644TIP3    H238568   4.265   3.695   7.954  0.4830  0.7987 -0.9329
 5645TIP3   OH238569   5.672   5.243   0.704 -0.3518  0.3143  0.1677
 5645TIP3    H138570   5.653   5.222   0.613  0.7718  0.2606 -0.0631
 5645TIP3    H238571   5.641   5.333   0.714  0.4344  0.6819 -0.5617
 5646TIP3   OH238572   2.862   1.131   7.909  0.6526  0.7528 -0.1417
 5646TIP3    H138573   2.908   1.130   7.825  0.3913  0.7809 -0.2846
 5646TIP3    H238574   2.930   1.152   7.973  1.7089 -2.8219  0.1591
 5647TIP3   OH238575   2.441   0.243   1.725  0.3929 -0.1323 -0.0838
 5647TIP3    H138576   2.515   0.293   1.692  1.9033 -1.5692  1.0081
 5647TIP3    H238577   2.469   0.152   1.721 -1.0464 -0.6617  1.0074
 5648TIP3   OH238578   5.933   0.144   0.299 -0.0521  0.1451 -0.7561
 5648TIP3    H138579   5.898   0.233   0.301 -1.4423 -0.3811  0.3087
 5648TIP3    H238580   6.027   0.155   0.284 -0.1174  1.8131 -0.1350
 5649TIP3   OH238581   6.219   1.479   1.496  0.0635  0.6108  0.1172
 5649TIP3    H138582   6.275   1.549   1.460  2.6535 -0.7461  1.2823
 5649TIP3    H238583   6.206   1.503   1.588 -1.2679  0.8421 -0.1020
 5650TIP3   OH238584   3.065   6.361   7.033 -0.0366  1.1174 -0.0011
 5650TIP3    H138585   3.046   6.364   6.939  0.5275 -0.7215 -0.2141
 5650TIP3    H238586   3.102   6.274   7.047 -3.3638 -0.0782  2.5575
 5651TIP3   OH238587   6.070   2.685   0.547 -0.5384 -0.7931 -0.4665
 5651TIP3    H138588   6.113   2.756   0.595 -1.0615  1.4514 -3.0103
 5651TIP3    H238589   6.130   2.611   0.553  1.7928  0.9704 -0.5956
 5652TIP3   OH238590   6.020   1.878   0.552 -0.3254  0.3046 -0.2148
 5652TIP3    H138591   6.051   1.866   0.463 -0.3324  1.4874 -0.3909
 5652TIP3    H238592   5.934   1.918   0.543 -0.2655  0.5695  0.3275
 5653TIP3   OH238593   4.464   1.114   7.355 -0.4355  0.0837  0.9068
 5653TIP3    H138594   4.479   1.144   7.265 -0.0104 -0.8929  0.6367
 5653TIP3    H238595   4.470   1.194   7.408 -3.1391  1.1288 -0.1438
 5654TIP3   OH238596   3.989   4.395   0.512  0.6344  1.0460 -0.1214
 5654TIP3    H138597   4.027   4.308   0.519 -1.9525 -0.2822 -1.3705
 5654TIP3    H238598   4.062   4.454   0.532  2.3258 -1.3567  1.3856
 5655TIP3   OH238599   5.844   3.284   1.476  0.2471  0.0666 -0.9500
 5655TIP3    H138600   5.917   3.279   1.414 -0.1539 -0.2030 -1.4045
 5655TIP3    H238601   5.843   3.199   1.520  1.0519  0.5494  0.0320
 5656TIP3   OH238602   5.861   1.770   7.255  0.7762  0.2309  0.4328
 5656TIP3    H138603   5.949   1.740   7.229  0.0828 -0.1467 -1.6638
 5656TIP3    H238604   5.809   1.763   7.175 -1.3223 -0.0604  1.7611
 5657TIP3   OH238605   2.087   3.138   7.605  0.1170 -0.0888  0.4368
 5657TIP3    H138606   2.167   3.106   7.648  0.4416  1.6960  1.2854
 5657TIP3    H238607   2.117   3.215   7.556 -0.4950 -1.3392 -2.0404
 5658TIP3   OH238608   5.719   3.384   0.781  0.0128 -0.0664  0.4389
 5658TIP3    H138609   5.659   3.458   0.795 -1.4234 -1.3141  1.1858
 5658TIP3    H238610   5.782   3.416   0.716 -0.8566  1.6452  0.3898
 5659TIP3   OH238611   1.529   2.113   6.710  0.1093  0.1936  0.4457
 5659TIP3    H138612   1.449   2.062   6.721 -0.0010  0.0564 -0.7993
 5659TIP3    H238613   1.550   2.105   6.617  1.8854 -0.2253  0.8331
 5660TIP3   OH238614   0.767   2.653   2.136  0.4190 -0.5179  0.7478
 5660TIP3    H138615   0.829   2.601   2.085  0.3112  1.0795 -1.1424
 5660TIP3    H238616   0.742   2.596   2.209  0.0778 -3.2146 -1.3156
 5661TIP3   OH238617   2.373   5.671   0.826 -0.0706 -0.5137 -0.0628
 5661TIP3    H138618   2.328   5.714   0.754  0.1537  0.1053  0.1587
 5661TIP3    H238619   2.373   5.578   0.803 -1.4735 -0.5335 -0.0597
 5662TIP3   OH238620   1.974   0.428   0.428 -0.1753  0.2208  0.2716
 5662TIP3    H138621   2.048   0.406   0.485  0.5607  0.2988 -0.6459
 5662TIP3    H238622   2.012   0.443   0.342 -1.3512 -0.5516 -0.4205
 5663TIP3   OH238623   2.996   4.510   0.374 -0.5667  0.2076 -0.1187
 5663TIP3    H138624   2.961   4.591   0.410  1.0974  1.1928 -0.6314
 5663TIP3    H238625   3.082   4.533   0.341 -0.0623 -1.7742 -0.3230
 5664TIP3   OH238626   6.880   5.307   0.640 -0.3915 -0.1847 -0.3204
 5664TIP3    H138627   6.858   5.396   0.614 -0.9511 -0.3214 -0.3274
 5664TIP3    H238628   6.853   5.253   0.565 -0.8217 -0.4405  0.0125
 5665TIP3   OH238629   5.609   4.462   8.454 -0.1543  0.4923 -0.0259
 5665TIP3    H138630   5.691   4.510   8.462  0.2983 -0.4325  1.1895
 5665TIP3    H238631   5.545   4.528   8.427  0.5278  1.7075  1.1849
 5666TIP3   OH238632   2.857   5.809   7.740  0.0704 -0.1400 -0.5317
 5666TIP3    H138633   2.842   5.755   7.818 -1.1418 -0.9811 -1.3060
 5666TIP3    H238634   2.952   5.817   7.734  0.2375 -1.3562  0.1843
 5667TIP3   OH238635   6.678   4.104   0.564 -0.0896 -0.7582 -0.0799
 5667TIP3    H138636   6.595   4.077   0.602 -0.1457 -0.6717 -0.1418
 5667TIP3    H238637   6.661   4.112   0.470 -0.0139 -0.7335 -0.0920
 5668TIP3   OH238638   3.142   6.061   6.722 -0.2633 -0.7003  0.1526
 5668TIP3    H138639   3.216   6.092   6.774 -0.7434  0.2855  0.2720
 5668TIP3    H238640   3.136   6.123   6.649 -1.6922 -0.0496  0.7834
 5669TIP3   OH238641   0.226   3.832   7.158 -0.5677  0.2734  0.2102
 5669TIP3    H138642   0.297   3.769   7.145 -0.2938  0.0524  2.4716
 5669TIP3    H238643   0.176   3.829   7.076  2.1489  0.6572 -1.5958
 5670TIP3   OH238644   4.912   1.687   3.152 -0.2337  0.8470  0.1091
 5670TIP3    H138645   4.959   1.766   3.127 -1.0467  1.9179  1.8083
 5670TIP3    H238646   4.980   1.624   3.173  0.4253  1.0685 -1.2330
 5671TIP3   OH238647   6.481   4.477   7.290  0.6903 -0.1360 -0.3576
 5671TIP3    H138648   6.540   4.552   7.282  0.0455  0.3423 -0.7342
 5671TIP3    H238649   6.529   4.404   7.250  1.6230 -0.1096  0.6720
 5672TIP3   OH238650   6.628   1.239   2.325  0.7682  0.0752 -0.1725
 5672TIP3    H138651   6.656   1.324   2.358 -0.9654  0.4539  0.3839
 5672TIP3    H238652   6.633   1.247   2.230 -0.7068  1.2849 -0.1695
 5673TIP3   OH238653   6.861   1.902   1.305  0.0207 -0.0228 -0.1664
 5673TIP3    H138654   6.878   1.992   1.330  1.9711 -0.1863 -0.6969
 5673TIP3    H238655   6.876   1.900   1.210  1.0394 -1.0926 -0.0082
 5674TIP3   OH238656   3.402   4.317   7.401 -0.2893  0.4729 -0.2406
 5674TIP3    H138657   3.473   4.381   7.392  1.1783 -0.3408  3.5465
 5674TIP3    H238658   3.438   4.236   7.363 -0.2726  0.7230 -0.7622
 5675TIP3   OH238659   0.653   6.441   7.900 -0.0032  0.0262  0.1105
 5675TIP3    H138660   0.651   6.421   7.807  0.1990 -0.3829  0.1950
 5675TIP3    H238661   0.622   6.362   7.943 -0.4798  0.3512  0.3721
 5676TIP3   OH238662   0.481   6.784   0.484  0.2187 -0.4233 -0.4071
 5676TIP3    H138663   0.538   6.739   0.421  3.2745  1.3820  0.8664
 5676TIP3    H238664   0.472   6.721   0.556 -1.0995 -1.4680 -1.4308
 5677TIP3   OH238665   6.587   0.527   2.168 -0.3475 -0.1378 -0.2861
 5677TIP3    H138666   6.511   0.567   2.126 -0.5803  0.7249  0.9055
 5677TIP3    H238667   6.551   0.455   2.220 -0.1523 -0.6981 -0.9077
 5678TIP3   OH238668   4.856   0.739   0.280 -0.2555 -0.1155 -0.6321
 5678TIP3    H138669   4.867   0.725   0.374 -2.5704 -1.7172 -0.5150
 5678TIP3    H238670   4.769   0.777   0.271  0.9317  2.5743 -2.0289
 5679TIP3   OH238671   4.541   2.787   7.559 -0.2786  0.4336 -0.0999
 5679TIP3    H138672   4.626   2.826   7.580  0.2179 -0.7352  0.1540
 5679TIP3    H238673   4.561   2.722   7.492 -0.9493  0.0278  0.0864
 5680TIP3   OH238674   4.702   6.456   8.414 -0.7400  0.3574 -0.3543
 5680TIP3    H138675   4.657   6.481   8.333  0.3719  1.0562 -0.7781
 5680TIP3    H238676   4.634   6.415   8.467 -1.4348 -0.4203 -1.7670
 5681TIP3   OH238677   1.698   1.958   1.820  0.0331  0.1361 -0.5466
 5681TIP3    H138678   1.614   1.936   1.779 -1.0058 -1.5553  2.2198
 5681TIP3    H238679   1.690   2.051   1.842 -1.0501  0.0462 -0.4929
 5682TIP3   OH238680   1.792   0.428   0.158  1.0030 -0.4012 -0.4977
 5682TIP3    H138681   1.844   0.348   0.154 -0.0801 -1.1708  0.1233
 5682TIP3    H238682   1.743   0.421   0.240  1.8161  1.5033  0.2252
 5683TIP3   OH238683   1.567   5.688   7.667  0.0871 -0.3666 -0.3174
 5683TIP3    H138684   1.484   5.680   7.620 -1.4896 -4.7977  2.6354
 5683TIP3    H238685   1.618   5.613   7.637  1.6608  0.3717  0.4207
 5684TIP3   OH238686   4.493   5.874   7.818 -0.4516 -0.2326  0.1070
 5684TIP3    H138687   4.406   5.884   7.857 -0.6476  1.1143 -0.6053
 5684TIP3    H238688   4.484   5.800   7.757 -0.3017 -1.9617  2.0625
 5685TIP3   OH238689   4.783   1.802   0.695 -0.9462  0.5865  0.2563
 5685TIP3    H138690   4.696   1.842   0.686 -0.5730  1.5348  0.7134
 5685TIP3    H238691   4.766   1.708   0.699 -1.9149  0.7348 -0.1121
 5686TIP3   OH238692   5.398   6.380   0.946 -0.2101 -0.1031 -0.0673
 5686TIP3    H138693   5.391   6.401   0.853 -0.8371 -1.9372 -0.4800
 5686TIP3    H238694   5.326   6.428   0.987 -0.8452 -0.4372 -0.7654
 5687TIP3   OH238695   3.978   4.530   7.704  0.4862 -0.7060 -0.5270
 5687TIP3    H138696   3.950   4.498   7.618  0.0126  0.0407 -0.6601
 5687TIP3    H238697   3.943   4.467   7.766  0.8233 -1.2475 -0.8840
 5688TIP3   OH238698   6.667   0.490   0.773 -0.4743 -0.7899 -0.2014
 5688TIP3    H138699   6.680   0.449   0.858 -0.8270 -1.2352 -0.3586
 5688TIP3    H238700   6.583   0.534   0.779  1.1428  2.5114  0.9781
 5689TIP3   OH238701   5.327   6.910   2.321  0.5941 -0.2560  0.4431
 5689TIP3    H138702   5.310   6.896   2.228  0.1507  1.9309  0.1337
 5689TIP3    H238703   5.251   6.960   2.352  1.5479  0.5823  1.5335
 5690TIP3   OH238704   5.318   0.447   8.255  1.0098 -0.4586  0.2118
 5690TIP3    H138705   5.357   0.433   8.168 -0.7529 -0.4082 -0.6440
 5690TIP3    H238706   5.258   0.373   8.266 -0.0565  0.4394  0.6212
 5691TIP3   OH238707   4.632   6.302   2.337  0.4463  0.2044  0.5032
 5691TIP3    H138708   4.682   6.296   2.418  1.3189  0.7558  0.0178
 5691TIP3    H238709   4.558   6.358   2.360  0.2085 -0.3520  1.1404
 5692TIP3   OH238710   5.142   1.895   0.888  0.2097  0.2023  0.2578
 5692TIP3    H138711   5.142   1.946   0.969  0.9139  1.9504 -0.7891
 5692TIP3    H238712   5.071   1.832   0.899 -0.4755  1.1774  1.7504
 5693TIP3   OH238713   6.630   3.157   8.293  0.2372  0.1288  0.0814
 5693TIP3    H138714   6.552   3.187   8.245  1.2187 -1.8882 -3.0840
 5693TIP3    H238715   6.601   3.077   8.337  0.4310 -0.5130 -0.9324
 5694TIP3   OH238716   5.488   0.777   0.643 -0.3438 -0.5547  0.1205
 5694TIP3    H138717   5.547   0.812   0.577  0.6065 -0.4666  0.9925
 5694TIP3    H238718   5.546   0.735   0.707 -1.2887 -1.2971  0.5089
 5695TIP3   OH238719   2.750   5.589   0.198  0.9594 -0.3305 -0.2816
 5695TIP3    H138720   2.831   5.543   0.221  1.3050  0.1020 -0.6193
 5695TIP3    H238721   2.701   5.594   0.280  2.1126  1.0912  0.3581
 5696TIP3   OH238722   5.387   6.380   0.660 -0.2057 -0.1963  0.2120
 5696TIP3    H138723   5.356   6.337   0.580 -1.1723 -0.3308  0.6482
 5696TIP3    H238724   5.479   6.399   0.642 -0.0646 -1.3881 -0.4386
 5697TIP3   OH238725   3.354   3.479   2.001  0.2622 -0.1038  0.0872
 5697TIP3    H138726   3.277   3.448   1.954 -1.9698  1.6823  2.2946
 5697TIP3    H238727   3.367   3.414   2.071 -0.3139  0.4546  0.7247
 5698TIP3   OH238728   1.140   3.033   2.198  0.1316  0.0605  0.2033
 5698TIP3    H138729   1.142   3.070   2.286  0.8118  0.4990  0.0113
 5698TIP3    H238730   1.100   2.946   2.209  1.5751 -0.5144  1.1919
 5699TIP3   OH238731   3.643   3.301   7.631  0.4126  0.7847 -0.3629
 5699TIP3    H138732   3.567   3.248   7.655  0.2797  1.0743 -0.1357
 5699TIP3    H238733   3.633   3.316   7.538  1.0103 -0.4769 -0.6560
 5700TIP3   OH238734   3.570   2.675   8.258  0.2843  0.7916  0.3255
 5700TIP3    H138735   3.586   2.674   8.353 -0.2045  0.7810  0.4119
 5700TIP3    H238736   3.598   2.589   8.228  0.1886  0.6958  0.5072
 5701TIP3   OH238737   2.620   6.439   7.139  0.0330  0.2996  0.3391
 5701TIP3    H138738   2.653   6.427   7.050  1.4636 -0.1124  0.8927
 5701TIP3    H238739   2.638   6.531   7.159 -1.9668  0.9089 -0.4115
 5702TIP3   OH238740   1.180   0.471   1.968 -0.1574  0.2325  0.1573
 5702TIP3    H138741   1.094   0.431   1.962 -0.8380  1.6694 -0.3061
 5702TIP3    H238742   1.210   0.478   1.878 -0.3282  1.2837  0.1695
 5703TIP3   OH238743   0.594   6.642   2.148 -0.1293 -0.3123  0.3395
 5703TIP3    H138744   0.616   6.573   2.211 -0.8651  0.9799  2.0966
 5703TIP3    H238745   0.513   6.612   2.107  1.1196 -1.8649 -1.1748
 5704TIP3   OH238746   0.517   3.539   1.492 -0.2568  0.5680 -0.6269
 5704TIP3    H138747   0.605   3.569   1.515  0.2421 -0.8445 -0.5579
 5704TIP3    H238748   0.530   3.481   1.417 -0.7477 -1.6413  0.8939
 5705TIP3   OH238749   1.955   4.844   8.275  0.1196  0.1493  0.2017
 5705TIP3    H138750   1.870   4.801   8.270 -0.4413  1.3848 -1.4726
 5705TIP3    H238751   2.019   4.774   8.258 -0.5029 -0.8023  1.5623
 5706TIP3   OH238752   6.089   1.379   8.103  0.1586 -0.1984  0.0820
 5706TIP3    H138753   6.056   1.350   8.018 -1.3501  1.5160  0.0187
 5706TIP3    H238754   6.032   1.335   8.166 -0.5321  0.6827  0.0816
 5707TIP3   OH238755   4.788   2.097   7.954  0.1260 -0.0876 -0.5908
 5707TIP3    H138756   4.732   2.033   7.910 -1.3671  1.2582 -0.7351
 5707TIP3    H238757   4.730   2.139   8.017  1.1029  1.0652 -0.4451
 5708TIP3   OH238758   4.118   1.480   0.337 -0.2007 -0.2919 -0.0117
 5708TIP3    H138759   4.024   1.469   0.350  0.0767 -2.9517  0.3146
 5708TIP3    H238760   4.127   1.508   0.246 -1.3261  1.3660  0.3509
 5709TIP3   OH238761   5.308   5.119   1.959  0.3836 -0.0135 -0.3770
 5709TIP3    H138762   5.392   5.165   1.955 -0.8064  2.4562  1.1779
 5709TIP3    H238763   5.277   5.118   1.869  0.2807  2.7059 -0.4513
 5710TIP3   OH238764   6.283   3.998   1.923 -0.0947 -0.2994 -0.3123
 5710TIP3    H138765   6.202   3.979   1.971  0.8872 -1.3795  1.0252
 5710TIP3    H238766   6.328   4.063   1.977 -0.7027  1.3940 -1.7945
 5711TIP3   OH238767   3.002   3.022   6.838  0.1423  0.3611 -0.2609
 5711TIP3    H138768   2.942   3.021   6.914 -0.2015 -1.5240 -0.4885
 5711TIP3    H238769   3.013   3.114   6.817 -1.9277  0.8290  0.4139
 5712TIP3   OH238770   6.219   1.745   0.404 -0.1653  0.2893  0.2909
 5712TIP3    H138771   6.297   1.772   0.452 -1.2596  0.2336  2.2190
 5712TIP3    H238772   6.237   1.768   0.313  2.4368 -0.5122  0.5054
 5713TIP3   OH238773   1.032   1.706   0.138 -0.1240  0.4019 -0.0914
 5713TIP3    H138774   1.070   1.793   0.121 -0.1293  0.4415  0.0933
 5713TIP3    H238775   1.100   1.660   0.188 -0.5309  0.6614  0.7168
 5714TIP3   OH238776   2.264   3.106   1.663 -0.6224 -0.0603 -0.1954
 5714TIP3    H138777   2.302   3.194   1.664 -0.2238 -0.2319 -0.1717
 5714TIP3    H238778   2.201   3.106   1.736 -0.4256  0.1169 -0.0253
 5715TIP3   OH238779   4.697   1.603   1.105  0.0154  0.2121 -0.2031
 5715TIP3    H138780   4.609   1.630   1.133  0.4028 -0.1568  1.4547
 5715TIP3    H238781   4.710   1.518   1.146  1.0249  0.1090 -0.7137
 5716TIP3   OH238782   3.552   4.832   0.134  0.2943  0.0237 -0.0327
 5716TIP3    H138783   3.489   4.870   0.072 -0.4123 -1.4592 -0.2437
 5716TIP3    H238784   3.618   4.901   0.145 -2.1540  2.3238  1.4808
 5717TIP3   OH238785   0.239   0.820   7.720  0.7213  0.2594  0.0626
 5717TIP3    H138786   0.166   0.759   7.710  0.4267  0.4881  0.7847
 5717TIP3    H238787   0.283   0.792   7.800 -0.5687  2.1614  1.5196
 5718TIP3   OH238788   4.475   5.618   1.502 -0.0372  0.2626  0.4606
 5718TIP3    H138789   4.502   5.597   1.413 -0.8049  0.7795  0.0932
 5718TIP3    H238790   4.556   5.642   1.547  0.1393  1.7046 -0.5861
 5719TIP3   OH238791   0.251   0.986   1.775  0.5412 -0.2700 -0.2290
 5719TIP3    H138792   0.181   1.048   1.793  1.7677  0.4014  3.0481
 5719TIP3    H238793   0.210   0.900   1.790 -0.3604 -0.1337 -1.6931
 5720TIP3   OH238794   0.216   2.231   1.568 -0.1940  0.0230  0.3879
 5720TIP3    H138795   0.278   2.288   1.613  0.7726  0.0798 -0.9535
 5720TIP3    H238796   0.186   2.170   1.636  2.8303 -1.2930  0.7086
 5721TIP3   OH238797   4.778   0.482   0.082  0.1384  0.1927  0.5405
 5721TIP3    H138798   4.750   0.435   0.160  0.6278 -0.5410  0.2790
 5721TIP3    H238799   4.708   0.546   0.067  0.7627  1.4308  2.4562
 5722TIP3   OH238800   0.596   5.177   7.902 -0.4543 -0.2239 -0.1090
 5722TIP3    H138801   0.669   5.196   7.961  0.1256  0.3926 -1.0008
 5722TIP3    H238802   0.586   5.256   7.849 -2.1090 -0.1186  0.3258
 5723TIP3   OH238803   2.608   5.984   0.990  0.0486 -0.1763  0.1118
 5723TIP3    H138804   2.590   5.972   1.084  0.6858 -1.6330  0.0737
 5723TIP3    H238805   2.530   6.027   0.956  0.8609  2.9354  1.7829
 5724TIP3   OH238806   2.609   5.497   7.365  0.1503  0.2993 -0.6795
 5724TIP3    H138807   2.656   5.413   7.358  1.4293  0.8479  0.8395
 5724TIP3    H238808   2.603   5.528   7.274  0.6307 -0.9226 -1.1526
 5725TIP3   OH238809   4.836   0.136   8.120 -0.1687  0.3369  0.0624
 5725TIP3    H138810   4.753   0.099   8.150 -0.8508  0.8978 -1.0745
 5725TIP3    H238811   4.834   0.125   8.025  0.6027  1.2912 -0.0793
 5726TIP3   OH238812   3.508   3.427   0.111  0.0349  0.1376 -0.1081
 5726TIP3    H138813   3.518   3.364   0.040  1.2317  0.5686 -0.3349
 5726TIP3    H238814   3.490   3.510   0.068 -0.1783  0.2213  0.1368
 5727TIP3   OH238815   3.030   0.833   1.682 -0.5346 -0.0256  0.2519
 5727TIP3    H138816   3.009   0.740   1.683 -1.4940  0.1863  0.1937
 5727TIP3    H238817   3.082   0.847   1.762  2.9015 -1.3137 -1.5453
 5728TIP3   OH238818   0.176   6.637   7.761 -0.0268  0.3770  0.6280
 5728TIP3    H138819   0.209   6.549   7.781 -0.3580 -0.0112 -0.4902
 5728TIP3    H238820   0.156   6.674   7.847  0.6835 -0.4132  1.1527
 5729TIP3   OH238821   0.528   1.849   7.573  0.1006 -0.2911 -0.3358
 5729TIP3    H138822   0.553   1.876   7.485  2.6912  1.3959  0.7552
 5729TIP3    H238823   0.510   1.756   7.566 -0.3218 -0.0855 -2.7267
 5730TIP3   OH238824   2.590   3.063   2.006  0.0765  0.1337 -0.0042
 5730TIP3    H138825   2.613   3.100   1.920 -0.5195 -0.2064 -0.3184
 5730TIP3    H238826   2.501   3.094   2.022  0.7922  1.6121  1.2921
 5731TIP3   OH238827   4.853   5.823   1.075 -0.2396  0.0245 -0.2820
 5731TIP3    H138828   4.836   5.757   1.007  0.7257  0.6982 -1.2013
 5731TIP3    H238829   4.874   5.771   1.153 -1.6873 -0.7663 -0.3786
 5732TIP3   OH238830   0.329   1.858   1.479  0.0078  0.1583 -0.0091
 5732TIP3    H138831   0.343   1.829   1.569 -1.1820 -1.6763 -0.3434
 5732TIP3    H238832   0.338   1.778   1.427  1.9578  1.4083 -1.7040
 5733TIP3   OH238833   3.137   1.552   1.234  0.2227 -0.6954  0.1115
 5733TIP3    H138834   3.161   1.514   1.150 -0.3788 -0.1152 -0.3361
 5733TIP3    H238835   3.205   1.616   1.252 -0.5369  0.4072 -0.7863
 5734TIP3   OH238836   3.542   1.864   2.094 -0.0914 -0.5624 -0.2479
 5734TIP3    H138837   3.511   1.952   2.114 -0.6952 -0.9063  0.3457
 5734TIP3    H238838   3.634   1.864   2.122 -0.1232 -0.1679 -0.1371
 5735TIP3   OH238839   4.564   0.840   7.418 -0.1025 -0.0365  0.0488
 5735TIP3    H138840   4.623   0.843   7.342 -0.8754 -0.5645 -0.5948
 5735TIP3    H238841   4.532   0.930   7.427 -1.6187 -0.3478 -1.5929
 5736TIP3   OH238842   3.721   4.289   1.896  0.5059  0.6518 -0.4460
 5736TIP3    H138843   3.778   4.364   1.880  2.8595 -1.2822 -1.6506
 5736TIP3    H238844   3.684   4.268   1.810  0.9949 -0.4093 -0.4110
 5737TIP3   OH238845   3.633   1.289   1.854  0.2764 -0.9002  0.1323
 5737TIP3    H138846   3.663   1.379   1.864 -0.0029 -0.5420 -1.7568
 5737TIP3    H238847   3.543   1.297   1.824 -0.2311 -1.8602  1.3363
 5738TIP3   OH238848   1.190   2.748   7.818  0.0982  0.2240 -0.7820
 5738TIP3    H138849   1.208   2.658   7.791 -2.1841 -0.0563 -1.5657
 5738TIP3    H238850   1.193   2.799   7.736  1.1873  0.8667 -0.3714
 5739TIP3   OH238851   5.357   4.012   0.356  0.6844  0.3725 -0.0028
 5739TIP3    H138852   5.306   3.934   0.377  1.4061 -0.3984 -0.9910
 5739TIP3    H238853   5.304   4.059   0.293  0.4202  0.4808  0.2980
 5740TIP3   OH238854   2.652   5.618   0.459  0.4628  0.2926 -0.1581
 5740TIP3    H138855   2.661   5.648   0.550 -1.0531  0.0951  0.0800
 5740TIP3    H238856   2.637   5.523   0.467  0.5006  0.2458 -0.6242
 5741TIP3   OH238857   1.032   4.261   3.051 -0.3470 -0.1889 -0.0344
 5741TIP3    H138858   1.003   4.243   3.141 -0.3434  0.9338  0.2100
 5741TIP3    H238859   0.988   4.195   2.998 -2.4980  0.7620  0.4474
 5742TIP3   OH238860   1.099   6.416   7.292 -0.3237 -0.2655 -0.5718
 5742TIP3    H138861   1.121   6.495   7.341 -0.8542  0.3075 -1.2378
 5742TIP3    H238862   1.089   6.348   7.360  1.4606 -0.1011 -0.1026
 5743TIP3   OH238863   2.609   1.414   7.094 -0.7192 -0.3507 -0.1211
 5743TIP3    H138864   2.540   1.430   7.030  0.1666  3.0583 -0.3816
 5743TIP3    H238865   2.688   1.400   7.042  0.0500  2.6646  0.0858
 5744TIP3   OH238866   0.088   2.382   6.837 -0.2338  0.7426  0.5054
 5744TIP3    H138867  -0.000   2.396   6.871 -0.5950 -0.4542  0.1400
 5744TIP3    H238868   0.075   2.375   6.742  0.4346  1.7701  0.3282
 5745TIP3   OH238869   3.817   0.815   8.092  0.4852  0.3397  0.2441
 5745TIP3    H138870   3.773   0.760   8.026 -0.7540  1.4294  0.1199
 5745TIP3    H238871   3.800   0.770   8.175  0.6651 -0.1932 -0.0018
 5746TIP3   OH238872   2.166   4.662   8.341 -0.5815  0.2850 -0.4134
 5746TIP3    H138873   2.251   4.652   8.297 -1.3580  0.2213 -1.9628
 5746TIP3    H238874   2.169   4.749   8.380 -0.3407  0.8981 -1.7392
 5747TIP3   OH238875   4.708   4.241   0.362 -0.1835 -0.5663  0.0440
 5747TIP3    H138876   4.787   4.273   0.406 -0.0188  0.6099 -1.0722
 5747TIP3    H238877   4.636   4.278   0.413 -0.0270 -0.8317  0.4722
 5748TIP3   OH238878   2.730   3.310   7.894 -0.2157  0.8754 -0.4169
 5748TIP3    H138879   2.745   3.359   7.974 -0.2729  1.1458 -0.5700
 5748TIP3    H238880   2.635   3.309   7.883 -0.2971 -0.3584  0.2554
 5749TIP3   OH238881   4.766   3.401   2.929  0.0671  0.1417 -0.4001
 5749TIP3    H138882   4.739   3.493   2.925 -0.9634 -0.1128  0.3200
 5749TIP3    H238883   4.684   3.352   2.937  0.5781 -0.8726 -1.0384
 5750TIP3   OH238884   2.688   3.162   6.743  0.4710  0.4234 -0.3219
 5750TIP3    H138885   2.727   3.092   6.692  0.3447 -0.2992  0.5590
 5750TIP3    H238886   2.706   3.140   6.834  2.2593  2.6182 -0.0558
 5751TIP3   OH238887   2.431   2.491   1.094 -0.5611  0.2915 -0.0094
 5751TIP3    H138888   2.438   2.529   1.181  0.2053 -0.2753  0.1847
 5751TIP3    H238889   2.479   2.551   1.037  1.2250 -0.6717  0.4037
 5752TIP3   OH238890   4.455   5.723   0.664  0.0237  0.1947  0.6835
 5752TIP3    H138891   4.388   5.791   0.662 -0.4971 -0.3070 -1.2175
 5752TIP3    H238892   4.410   5.644   0.634  0.6279 -1.0137  2.7835
 5753TIP3   OH238893   2.756   5.501   1.028  0.0641  0.2205  0.0476
 5753TIP3    H138894   2.663   5.513   1.050  0.0450  0.8767 -0.3716
 5753TIP3    H238895   2.792   5.589   1.031  1.1473 -0.2247  2.2302
 5754TIP3   OH238896   0.278   1.466   2.521  0.8622 -0.0511 -0.7518
 5754TIP3    H138897   0.293   1.494   2.611 -2.7230 -1.7709  0.5783
 5754TIP3    H238898   0.309   1.375   2.519 -0.9630 -0.7141 -0.5430
 5755TIP3   OH238899   0.326   5.442   7.945  0.0612  0.4153  0.2029
 5755TIP3    H138900   0.417   5.472   7.950 -0.5019  2.1942  0.5271
 5755TIP3    H238901   0.278   5.499   8.005 -1.3611 -0.1210 -0.3717
 5756TIP3   OH238902   5.869   2.409   7.026  0.5007 -0.7326 -0.1376
 5756TIP3    H138903   5.818   2.340   6.984 -1.0593  1.2116 -1.6628
 5756TIP3    H238904   5.812   2.443   7.095  0.8778 -0.3439 -0.0095
 5757TIP3   OH238905   4.791   0.149   7.847  0.2721  0.0220 -0.1207
 5757TIP3    H138906   4.876   0.136   7.805 -1.5719 -0.4381 -4.2031
 5757TIP3    H238907   4.769   0.240   7.827  0.4362  0.6888  2.4173
 5758TIP3   OH238908   4.787   5.923   7.768  0.3302 -0.1057  0.5623
 5758TIP3    H138909   4.722   5.986   7.799  0.7562  1.3644 -1.3542
 5758TIP3    H238910   4.736   5.852   7.729 -0.1343 -0.6009  1.9906
 5759TIP3   OH238911   4.316   0.883   0.233 -0.5305  0.2244  0.0348
 5759TIP3    H138912   4.263   0.856   0.158 -0.4108 -0.8919  0.3422
 5759TIP3    H238913   4.252   0.898   0.303 -0.5403  0.0148  0.0718
 5760TIP3   OH238914   1.810   3.682   1.283  0.2401  0.3117 -0.0546
 5760TIP3    H138915   1.717   3.666   1.267  0.7212 -2.6817 -0.5340
 5760TIP3    H238916   1.813   3.768   1.325 -2.5565  1.2067 -1.4574
 5761TIP3   OH238917   2.898   2.003   2.079 -0.5486 -0.6603 -0.6329
 5761TIP3    H138918   2.828   2.068   2.085 -1.2969 -1.5103  0.0659
 5761TIP3    H238919   2.899   1.978   1.987 -0.0816  0.4983 -0.9659
 5762TIP3   OH238920   0.535   1.417   0.840 -0.4978  0.4816  0.0321
 5762TIP3    H138921   0.475   1.480   0.800 -0.1811  0.5132 -0.4045
 5762TIP3    H238922   0.492   1.332   0.828 -1.7019  0.7505  2.0621
 5763TIP3   OH238923   1.043   3.651   1.485  0.1961 -0.4484  0.4187
 5763TIP3    H138924   1.089   3.670   1.403  1.8645  0.5034  1.5245
 5763TIP3    H238925   1.049   3.732   1.535 -2.7218 -0.2905  0.6751
 5764TIP3   OH238926   3.875   6.038   6.846  0.1030  0.5567 -0.5371
 5764TIP3    H138927   3.916   6.124   6.846  1.7911 -0.1937 -1.5757
 5764TIP3    H238928   3.881   6.009   6.755 -0.9038 -0.4427 -0.2967
 5765TIP3   OH238929   1.902   3.560   0.132 -0.2228  0.2571  0.3057
 5765TIP3    H138930   1.846   3.536   0.206  0.0208  0.9857  0.7395
 5765TIP3    H238931   1.882   3.653   0.117  0.0381  0.2232 -0.2750
 5766TIP3   OH238932   6.518   1.330   0.874 -0.1201  0.4599  0.1404
 5766TIP3    H138933   6.478   1.335   0.787 -0.0493 -0.9374  0.0082
 5766TIP3    H238934   6.464   1.387   0.929 -0.5211  0.8859 -0.6835
 5767TIP3   OH238935   1.038   2.590   0.984 -0.3270 -0.0541  0.2681
 5767TIP3    H138936   1.082   2.532   0.922 -1.0067  0.0302 -0.3069
 5767TIP3    H238937   1.104   2.656   1.006  0.1520 -0.5082  0.2036
 5768TIP3   OH238938   4.162   3.993   3.014  0.4273 -0.4633 -0.0542
 5768TIP3    H138939   4.163   4.087   3.031  0.5312 -0.1826 -1.4566
 5768TIP3    H238940   4.077   3.963   3.046  0.9881 -0.1967  1.7761
 5769TIP3   OH238941   2.263   3.884   1.027 -0.4170  0.1690  0.2778
 5769TIP3    H138942   2.297   3.846   1.107 -1.6709  0.9997  1.2392
 5769TIP3    H238943   2.176   3.844   1.016 -1.1377  1.6000  0.5166
 5770TIP3   OH238944   0.505   0.831   2.045 -0.3420  0.2552 -0.3770
 5770TIP3    H138945   0.547   0.917   2.049  0.3851 -0.1406  2.4160
 5770TIP3    H238946   0.577   0.769   2.053 -0.9717 -0.6341 -1.3111
 5771TIP3   OH238947   0.250   4.998   1.893  0.0013 -0.3192  0.7569
 5771TIP3    H138948   0.171   4.944   1.892 -0.7158  0.6847  0.0247
 5771TIP3    H238949   0.304   4.964   1.822  0.1485 -0.8961  1.1434
 5772TIP3   OH238950   4.683   2.513   7.480 -0.7912 -0.3896 -0.3281
 5772TIP3    H138951   4.730   2.525   7.562 -1.4123 -3.0866  0.5363
 5772TIP3    H238952   4.751   2.521   7.412  0.7274 -2.5582  0.7794
 5773TIP3   OH238953   1.785   4.646   0.648  0.0063 -0.1670  0.5270
 5773TIP3    H138954   1.856   4.666   0.708  1.0683 -0.3760 -0.6265
 5773TIP3    H238955   1.794   4.709   0.577  0.3407 -1.5093 -0.6620
 5774TIP3   OH238956   1.339   2.503   1.428  0.0209 -0.4177  0.1980
 5774TIP3    H138957   1.384   2.427   1.391  1.1883  1.8239 -3.5001
 5774TIP3    H238958   1.396   2.532   1.500  1.4184 -1.0450 -0.6227
 5775TIP3   OH238959   1.183   6.617   7.463  0.3234  0.3894 -0.0729
 5775TIP3    H138960   1.156   6.641   7.551 -0.2872 -1.3373  0.2317
 5775TIP3    H238961   1.234   6.693   7.432 -0.0162  1.2835  1.4884
 5776TIP3   OH238962   2.212   2.568   7.242 -0.1399 -0.7282 -0.1188
 5776TIP3    H138963   2.174   2.656   7.237 -1.5022 -1.1939  1.4546
 5776TIP3    H238964   2.158   2.515   7.184  0.7377 -0.5578 -1.1383
 5777TIP3   OH238965   1.386   3.255   2.304 -0.2622 -0.0695  0.0875
 5777TIP3    H138966   1.302   3.210   2.304  0.0774 -0.7334  0.6380
 5777TIP3    H238967   1.404   3.273   2.396  1.2133 -1.9515  0.2293
 5778TIP3   OH238968   5.675   0.503   0.745  0.0400  0.1688  0.9598
 5778TIP3    H138969   5.744   0.569   0.751  0.2430 -0.0815  1.3816
 5778TIP3    H238970   5.718   0.427   0.707 -0.0286  0.0480  1.1236
 5779TIP3   OH238971   6.822   5.982   1.037  0.2663  0.1559  0.6565
 5779TIP3    H138972   6.848   6.017   0.952 -1.1678  1.4724  0.7306
 5779TIP3    H238973   6.901   5.990   1.091  0.6123  1.2325  0.0224
 5780TIP3   OH238974   4.881   4.891   0.463 -0.0154  0.5629 -0.1856
 5780TIP3    H138975   4.864   4.808   0.507 -0.4510  2.1197  2.8540
 5780TIP3    H238976   4.842   4.881   0.376  0.7131 -2.6488 -0.2536
 5781TIP3   OH238977   3.954   6.797   0.721 -0.3202  0.3848  0.0108
 5781TIP3    H138978   3.998   6.733   0.778  1.4079  2.2379  0.8532
 5781TIP3    H238979   3.979   6.771   0.633  1.6258  0.7438  0.4229
 5782TIP3   OH238980   1.123   3.087   1.689 -0.0015 -0.0104 -0.2352
 5782TIP3    H138981   1.083   3.000   1.687 -0.5602  0.2132  0.6908
 5782TIP3    H238982   1.125   3.110   1.781  1.2678  0.4570 -0.3585
 5783TIP3   OH238983   4.036   4.835   7.310 -0.4645  0.7225 -0.4295
 5783TIP3    H138984   4.072   4.787   7.384  1.7110  0.4790 -1.5962
 5783TIP3    H238985   4.112   4.866   7.261 -1.8407  1.0948 -2.4477
 5784TIP3   OH238986   6.173   5.203   0.912  0.2557  0.4713 -0.5776
 5784TIP3    H138987   6.078   5.206   0.922  0.3731 -0.1936  0.9097
 5784TIP3    H238988   6.206   5.269   0.972  0.7488  0.5546 -0.9317
 5785TIP3   OH238989   5.814   6.225   1.818 -0.6475 -0.0923 -0.0688
 5785TIP3    H138990   5.910   6.230   1.815 -0.5191 -1.6217 -3.2251
 5785TIP3    H238991   5.793   6.216   1.911  2.3970 -1.3434  0.6216
 5786TIP3   OH238992   6.429   6.681   0.255  0.3276  0.9341  0.3048
 5786TIP3    H138993   6.500   6.663   0.317 -0.0091  0.6521  0.6095
 5786TIP3    H238994   6.352   6.641   0.294  0.2588  0.0836 -0.6761
 5787TIP3   OH238995   0.228   4.811   2.153  0.1135 -0.1102 -0.0704
 5787TIP3    H138996   0.156   4.872   2.166  0.4698  0.1684  0.6409
 5787TIP3    H238997   0.307   4.865   2.157  0.3515 -0.3038 -1.5337
 5788TIP3   OH238998   1.203   1.348   7.255  0.0851  0.0097 -0.4881
 5788TIP3    H138999   1.209   1.434   7.298  0.7425  0.0124 -0.5721
 5788TIP3    H239000   1.142   1.362   7.182 -1.6284 -0.1754  0.8466
 5789TIP3   OH239001   5.104   4.888   7.295 -0.1776 -0.4232  0.2244
 5789TIP3    H139002   5.058   4.807   7.318 -0.7475  0.1665  1.2229
 5789TIP3    H239003   5.173   4.860   7.235 -0.7270 -1.5722  0.0966
 5790TIP3   OH239004   3.136   6.040   7.488 -0.6302  0.2362 -0.8774
 5790TIP3    H139005   3.226   6.026   7.457 -0.1847  2.4331 -0.6969
 5790TIP3    H239006   3.112   6.127   7.455 -1.1874  1.4715  2.4357
 5791TIP3   OH239007   5.141   4.758   8.426 -0.2264  0.2848  0.0616
 5791TIP3    H139008   5.134   4.738   8.333 -0.1261 -1.7082  0.4534
 5791TIP3    H239009   5.167   4.851   8.428  1.3586 -0.0461 -1.9361
 5792TIP3   OH239010   5.605   2.425   7.799 -0.5004 -0.4448  0.1235
 5792TIP3    H139011   5.678   2.447   7.741 -2.0423  0.6668 -1.5065
 5792TIP3    H239012   5.646   2.409   7.883  1.6842 -0.4610 -0.8664
 5793TIP3   OH239013   5.348   3.795   2.181 -0.3650  0.2704  0.0325
 5793TIP3    H139014   5.329   3.889   2.175 -0.6592  0.2311  0.3035
 5793TIP3    H239015   5.317   3.770   2.268 -0.5910 -0.1432 -0.1628
 5794TIP3   OH239016   2.613   6.716   0.320  0.5365 -0.5449 -0.3485
 5794TIP3    H139017   2.679   6.733   0.252 -0.6343  1.5414 -1.0641
 5794TIP3    H239018   2.601   6.621   0.319  0.7630 -0.6141 -2.8731
 5795TIP3   OH239019   1.845   6.574   8.130  0.2247 -0.3280  0.0889
 5795TIP3    H139020   1.861   6.669   8.127 -0.8227  0.0391  2.8713
 5795TIP3    H239021   1.788   6.557   8.055 -0.3178  1.4406  0.0536
 5796TIP3   OH239022   4.282   1.215   1.583  1.0358  0.1221  0.1676
 5796TIP3    H139023   4.252   1.303   1.607 -0.6442 -1.0906  3.0753
 5796TIP3    H239024   4.296   1.171   1.667  2.4886 -2.1962 -1.1939
 5797TIP3   OH239025   2.008   4.418   0.871 -0.5402 -0.0087 -0.1438
 5797TIP3    H139026   1.962   4.419   0.955 -1.4774  1.5145 -0.6353
 5797TIP3    H239027   2.005   4.509   0.841 -0.7725 -0.6301 -2.1152
 5798TIP3   OH239028   3.858   6.901   7.867 -0.2876  0.0949 -0.0248
 5798TIP3    H139029   3.926   6.908   7.935 -1.4427 -0.2638  1.2135
 5798TIP3    H239030   3.824   6.990   7.859 -0.5433  0.0300  0.3036
 5799TIP3   OH239031   1.101   0.119   1.060  0.1584 -0.5680  0.5901
 5799TIP3    H139032   1.152   0.045   1.092 -2.5281 -2.8052  0.0698
 5799TIP3    H239033   1.111   0.116   0.965 -1.1778 -1.2936  0.4480
 5800TIP3   OH239034   0.358   0.641   1.081 -0.6218 -0.2333  0.0569
 5800TIP3    H139035   0.371   0.734   1.100  0.4965 -0.3347 -0.1913
 5800TIP3    H239036   0.426   0.597   1.131 -0.3061 -0.8217 -0.8762
 5801TIP3   OH239037   2.459   0.955   2.734  0.0178 -0.1417 -0.2042
 5801TIP3    H139038   2.372   0.967   2.695  0.3201 -0.4417 -0.9896
 5801TIP3    H239039   2.478   0.862   2.721  0.4461 -0.0852 -0.0063
 5802TIP3   OH239040   0.741   2.797   2.478  0.0737  0.7264  0.1050
 5802TIP3    H139041   0.746   2.879   2.527 -2.0023  0.4974  0.8056
 5802TIP3    H239042   0.830   2.761   2.484  0.5731  2.0279  1.3582
 5803TIP3   OH239043   4.610   6.763   1.220 -0.1932  0.1635 -0.3998
 5803TIP3    H139044   4.609   6.739   1.127  0.8432 -0.1181 -0.3505
 5803TIP3    H239045   4.596   6.857   1.221 -2.0925 -0.0759 -0.7229
 5804TIP3   OH239046   3.443   2.862   1.884  0.4839  0.2704 -0.3728
 5804TIP3    H139047   3.382   2.794   1.857  2.5731 -0.9672 -2.3407
 5804TIP3    H239048   3.511   2.815   1.932  1.1634  1.2011 -0.3945
 5805TIP3   OH239049   5.934   1.449   8.376 -0.5025 -0.4849  0.2147
 5805TIP3    H139050   5.867   1.443   8.308  2.5345 -0.3702 -3.0710
 5805TIP3    H239051   5.935   1.542   8.401 -1.0472 -0.3606 -0.2073
 5806TIP3   OH239052   4.869   0.912   1.900 -0.3549  0.1823  0.6455
 5806TIP3    H139053   4.877   0.912   1.995 -0.4551 -0.6841  0.6584
 5806TIP3    H239054   4.959   0.912   1.868 -0.3128 -0.3085  0.7501
 5807TIP3   OH239055   2.242   4.502   1.826 -0.6769 -0.1908  0.1219
 5807TIP3    H139056   2.266   4.541   1.742 -0.9935  0.1319  0.1766
 5807TIP3    H239057   2.294   4.550   1.891 -0.0199 -0.8133  0.0642
 5808TIP3   OH239058   2.358   3.968   7.829 -0.3578  0.5061 -0.5205
 5808TIP3    H139059   2.323   4.019   7.901  1.6236  1.6097 -0.2796
 5808TIP3    H239060   2.407   4.031   7.776 -0.6062 -0.5456 -2.0713
 5809TIP3   OH239061   0.052   6.369   0.918  0.0051 -0.1189 -0.3869
 5809TIP3    H139062   0.065   6.277   0.893  1.5306 -0.5594  1.7071
 5809TIP3    H239063  -0.037   6.372   0.954 -0.4725 -0.5046 -1.5155
 5810TIP3   OH239064   6.253   6.666   6.900 -0.2914  0.0126 -0.2780
 5810TIP3    H139065   6.204   6.585   6.916 -1.2046  0.3776 -1.1964
 5810TIP3    H239066   6.273   6.664   6.807  0.1771  0.5946 -0.1970
 5811TIP3   OH239067   4.678   2.935   8.291 -0.1809 -0.9672 -0.3040
 5811TIP3    H139068   4.771   2.953   8.309 -0.2288 -1.9443  1.0823
 5811TIP3    H239069   4.677   2.909   8.199  0.8445 -0.4566 -0.4832
 5812TIP3   OH239070   3.055   4.633   2.078 -0.4489  0.7986  0.1634
 5812TIP3    H139071   3.029   4.652   1.988  0.5226 -0.1672 -0.3331
 5812TIP3    H239072   3.143   4.597   2.071 -1.8639 -3.3768  1.0312
 5813TIP3   OH239073   0.954   1.149   6.762 -0.0030  0.3186 -0.6547
 5813TIP3    H139074   1.018   1.114   6.824 -0.6038 -0.6988 -0.5812
 5813TIP3    H239075   0.905   1.073   6.732 -3.1440  1.2749  1.5111
 5814TIP3   OH239076   5.815   2.863   1.557 -0.5998  0.3716  0.2010
 5814TIP3    H139077   5.841   2.798   1.622 -3.7604 -0.5479  0.7243
 5814TIP3    H239078   5.753   2.920   1.604 -0.4832  1.6876 -1.1759
 5815TIP3   OH239079   5.043   5.108   0.238  0.8022  0.5026 -0.3302
 5815TIP3    H139080   5.089   5.091   0.321  1.1203  1.1723 -0.3625
 5815TIP3    H239081   4.954   5.129   0.264  0.7134  0.0020 -0.2116
 5816TIP3   OH239082   0.228   3.950   6.859 -0.4289 -0.2814 -0.0835
 5816TIP3    H139083   0.307   3.965   6.807 -0.7359  0.0659 -0.4616
 5816TIP3    H239084   0.160   4.001   6.814 -0.7759 -0.2475  0.4688
 5817TIP3   OH239085   3.319   5.865   6.888  0.5488  0.8098  0.2503
 5817TIP3    H139086   3.223   5.867   6.888  0.5226  0.2675 -0.8725
 5817TIP3    H239087   3.345   5.956   6.873  0.2480  1.1754  1.7707
 5818TIP3   OH239088   0.079   4.154   1.256  0.4205 -0.2676 -0.4921
 5818TIP3    H139089   0.057   4.077   1.309  2.7545  0.5225  1.8248
 5818TIP3    H239090   0.174   4.150   1.246  0.3734  1.2838 -2.0441
 5819TIP3   OH239091   2.544   3.421   0.753 -0.1729 -0.1341  0.2360
 5819TIP3    H139092   2.570   3.501   0.798  0.0772  0.2873 -0.6210
 5819TIP3    H239093   2.544   3.353   0.821  3.3857 -0.2275  0.3645
 5820TIP3   OH239094   4.302   4.282   7.454  0.4736 -0.2213 -0.1660
 5820TIP3    H139095   4.328   4.272   7.546  1.3725  1.3894 -0.2009
 5820TIP3    H239096   4.326   4.198   7.413  0.3936 -0.8270  0.9848
 5821TIP3   OH239097   5.166   4.058   1.709 -0.2120 -0.2741  0.0485
 5821TIP3    H139098   5.242   4.081   1.762  1.4355 -0.4084 -2.1413
 5821TIP3    H239099   5.092   4.100   1.754  0.8981 -1.0521  2.8634
 5822TIP3   OH239100   6.065   6.010   0.690  0.8973 -0.0169  0.3018
 5822TIP3    H139101   6.016   6.075   0.638 -1.0003  1.7900  3.9747
 5822TIP3    H239102   6.020   5.928   0.672  0.5086  0.4676 -1.0999
 5823TIP3   OH239103   3.652   4.572   7.643 -0.4351 -0.0656 -0.1690
 5823TIP3    H139104   3.663   4.622   7.724  0.6742 -1.4500  0.5809
 5823TIP3    H239105   3.649   4.480   7.672 -0.5111 -0.5520 -1.6551
 5824TIP3   OH239106   5.272   4.690   0.958 -0.3731  0.5916 -0.1275
 5824TIP3    H139107   5.233   4.665   0.874  0.1017  2.8933 -1.1031
 5824TIP3    H239108   5.366   4.693   0.941 -0.2876  1.2630  0.4353
 5825TIP3   OH239109   2.026   6.617   0.121  0.0099  0.2251  0.0397
 5825TIP3    H139110   1.994   6.568   0.046  0.9377 -0.7093  0.2276
 5825TIP3    H239111   2.010   6.709   0.099 -1.2754 -0.1232 -0.5427
 5826TIP3   OH239112   0.448   1.955   1.865 -0.2831  0.2339  0.1758
 5826TIP3    H139113   0.372   2.012   1.875 -0.4249  0.3431 -1.2859
 5826TIP3    H239114   0.415   1.877   1.822 -0.0712 -0.9796  2.0683
 5827TIP3   OH239115   1.449   2.488   0.698  0.1842 -0.7452  0.3864
 5827TIP3    H139116   1.490   2.551   0.758 -1.2450  2.9540 -2.1475
 5827TIP3    H239117   1.367   2.530   0.672  0.4093 -2.3665 -3.5777
 5828TIP3   OH239118   6.311   0.792   8.480 -0.0703 -0.2506 -0.0583
 5828TIP3    H139119   6.231   0.761   8.522  0.7380  0.5972  2.2337
 5828TIP3    H239120   6.310   0.886   8.493  1.7775 -0.3306  0.9234
 5829TIP3   OH239121   3.428   1.017   8.435 -0.3498  0.1348  0.3013
 5829TIP3    H139122   3.451   1.056   8.520 -1.6740  3.1289 -0.5833
 5829TIP3    H239123   3.507   1.026   8.383 -0.2905  0.6649  0.4689
 5830TIP3   OH239124   1.528   1.998   1.042 -0.2557 -0.0244  0.3653
 5830TIP3    H139125   1.577   1.931   1.089 -0.5901 -0.1657  0.5213
 5830TIP3    H239126   1.571   2.081   1.064  0.1552 -0.1871  0.1754
 5831TIP3   OH239127   0.702   1.350   2.521  0.8168  0.1613  0.1166
 5831TIP3    H139128   0.759   1.424   2.501 -2.0722  2.5418 -0.0033
 5831TIP3    H239129   0.644   1.383   2.589  0.0519 -2.3677  0.7662
 5832TIP3   OH239130   5.425   0.071   2.084 -0.0647  0.0198 -0.4552
 5832TIP3    H139131   5.365   0.088   2.011 -0.9406  0.5199  0.3497
 5832TIP3    H239132   5.474  -0.006   2.057 -2.3379 -1.5375 -0.4360
 5833TIP3   OH239133   4.306   5.335   7.780  0.1067 -0.0599  1.1058
 5833TIP3    H139134   4.394   5.327   7.815  1.2446 -0.9878 -1.6211
 5833TIP3    H239135   4.285   5.428   7.785  2.0673  0.4797  0.1265
 5834TIP3   OH239136   5.361   2.074   1.306  0.4510 -0.0761 -0.1553
 5834TIP3    H139137   5.393   1.992   1.346  1.0224  0.1151 -0.2126
 5834TIP3    H239138   5.432   2.103   1.250 -0.8233 -1.0140 -2.3790
 5835TIP3   OH239139   5.499   6.776   2.480  0.3295 -0.1869  0.0516
 5835TIP3    H139140   5.516   6.847   2.541 -0.1259  0.1706 -0.2353
 5835TIP3    H239141   5.456   6.817   2.406 -0.1295 -0.7932 -0.0267
 5836TIP3   OH239142   0.735   0.633   6.722  0.3491 -0.0934 -0.0197
 5836TIP3    H139143   0.669   0.701   6.709 -0.2807 -0.3247  1.6625
 5836TIP3    H239144   0.684   0.555   6.744  1.1737 -0.0835  2.1084
 5837TIP3   OH239145   1.879   3.284   6.689  0.3802 -0.7246  0.1056
 5837TIP3    H139146   1.854   3.301   6.779 -2.4457 -0.6908 -0.5771
 5837TIP3    H239147   1.848   3.195   6.672  1.5635 -1.0151 -0.6301
 5838TIP3   OH239148   1.541   0.521   1.082 -0.2521  0.3050 -0.2443
 5838TIP3    H139149   1.469   0.462   1.101  1.3312 -2.0801 -1.1342
 5838TIP3    H239150   1.586   0.532   1.166  0.0787 -0.7107 -0.2769
 5839TIP3   OH239151   1.717   4.510   0.405 -0.8082  0.3091  0.5769
 5839TIP3    H139152   1.718   4.527   0.499  0.3397  3.1477  0.1584
 5839TIP3    H239153   1.806   4.530   0.376 -1.1958 -0.2983 -1.1818
 5840TIP3   OH239154   5.990   6.795   8.076  0.3764 -0.0117 -0.2186
 5840TIP3    H139155   6.062   6.753   8.124 -0.7457 -0.0465  1.5329
 5840TIP3    H239156   5.913   6.782   8.132 -0.7353  1.2124 -1.3798
 5841TIP3   OH239157   2.256   4.546   0.105  0.2450  0.0306  0.6353
 5841TIP3    H139158   2.175   4.596   0.098  0.3229 -0.0324 -1.1017
 5841TIP3    H239159   2.242   4.469   0.050  1.7779  0.4764 -0.4611
 5842TIP3   OH239160   1.299   5.499   2.611  0.5241 -0.1505 -0.0866
 5842TIP3    H139161   1.207   5.508   2.632  0.6615 -1.3960  1.2164
 5842TIP3    H239162   1.302   5.430   2.544  0.4148  0.8432 -1.1265
 5843TIP3   OH239163   1.206   0.899   8.022 -0.6164  0.0794 -0.1883
 5843TIP3    H139164   1.279   0.957   7.998 -0.9750  0.5405 -0.1916
 5843TIP3    H239165   1.233   0.859   8.105  0.3690 -1.0588 -1.0357
 5844TIP3   OH239166   0.456   5.359   7.211 -0.3777  0.2037 -0.0727
 5844TIP3    H139167   0.442   5.284   7.269  2.1813 -2.4333 -2.5097
 5844TIP3    H239168   0.404   5.340   7.133 -0.6365  1.6290 -0.2809
 5845TIP3   OH239169   1.701   6.623   7.888  0.1059 -0.5589 -0.1022
 5845TIP3    H139170   1.616   6.632   7.845  0.0424 -0.2276  0.0826
 5845TIP3    H239171   1.759   6.590   7.820 -0.4241 -1.8787  0.0722
 5846TIP3   OH239172   4.656   4.071   1.111 -0.4082 -0.1529  0.2510
 5846TIP3    H139173   4.720   4.113   1.053 -1.4582 -0.2541 -1.0142
 5846TIP3    H239174   4.580   4.128   1.111 -0.2330  0.1520  2.0484
 5847TIP3   OH239175   1.914   5.044   8.478  0.0226 -0.6229  0.6194
 5847TIP3    H139176   1.868   5.120   8.442  0.8627  0.2133  1.2694
 5847TIP3    H239177   1.917   4.981   8.405  0.4930  0.4920 -0.3468
 5848TIP3   OH239178   1.096   4.164   0.089  0.0264 -0.1951 -0.2091
 5848TIP3    H139179   1.050   4.215   0.023  0.9388  1.4979  0.3858
 5848TIP3    H239180   1.026   4.121   0.139 -0.7613  0.1087 -1.0225
 5849TIP3   OH239181   0.301   4.473   7.332 -0.0058 -0.6294 -0.6737
 5849TIP3    H139182   0.254   4.540   7.381 -2.7624 -3.6153  1.2328
 5849TIP3    H239183   0.237   4.438   7.270  1.5467 -1.0571 -2.1023
 5850TIP3   OH239184   3.020   5.736   2.003  0.0221  0.0995 -0.1369
 5850TIP3    H139185   3.071   5.682   2.063  0.8510 -0.5985 -1.4180
 5850TIP3    H239186   3.053   5.712   1.916  0.2637  2.4846 -0.7779
 5851TIP3   OH239187   6.486   0.270   8.187  0.0635  0.0498  0.5099
 5851TIP3    H139188   6.470   0.328   8.112 -1.7986  0.8246  1.4548
 5851TIP3    H239189   6.557   0.312   8.235  1.1873 -0.3811 -0.6684
 5852TIP3   OH239190   3.784   2.163   6.834 -0.6263 -0.1659  0.1899
 5852TIP3    H139191   3.768   2.082   6.786 -0.0170 -0.1032 -0.1249
 5852TIP3    H239192   3.702   2.180   6.880 -0.5566 -1.3080  0.7785
 5853TIP3   OH239193   2.834   3.610   1.158 -0.2823  0.9990  0.1290
 5853TIP3    H139194   2.854   3.609   1.252  0.6315 -1.4995 -0.0212
 5853TIP3    H239195   2.891   3.677   1.122  1.8766 -0.2938  0.9503
 5854TIP3   OH239196   4.997   3.561   1.100  0.2364  0.4287  0.2495
 5854TIP3    H139197   5.068   3.500   1.121  2.0600  1.9370 -1.1568
 5854TIP3    H239198   5.034   3.648   1.117 -2.4135  1.2577  2.6109
 5855TIP3   OH239199   0.868   2.134   7.402  0.0058 -0.2377 -0.3379
 5855TIP3    H139200   0.912   2.106   7.322  0.2203 -0.4074 -0.1602
 5855TIP3    H239201   0.778   2.101   7.393 -0.5039  1.2750 -1.3324
 5856TIP3   OH239202   0.203   1.585   7.256 -0.0927  0.0115  0.6719
 5856TIP3    H139203   0.119   1.631   7.257  0.3853  0.9363 -0.4049
 5856TIP3    H239204   0.262   1.641   7.206  1.2938 -0.4458  1.7155
 5857TIP3   OH239205   5.681   0.642   7.532  0.1027  0.4436  0.4484
 5857TIP3    H139206   5.742   0.592   7.478  1.1491  1.4909  0.5892
 5857TIP3    H239207   5.607   0.660   7.475  0.5071  0.2404 -0.1536
 5858TIP3   OH239208   4.930   4.590   7.117  0.3700  0.5864  0.8922
 5858TIP3    H139209   4.864   4.657   7.098  0.7595  0.3355 -1.8029
 5858TIP3    H239210   5.013   4.631   7.093  0.4971 -1.1906 -2.4330
 5859TIP3   OH239211   2.575   6.734   2.003  0.0091 -0.2904 -0.2006
 5859TIP3    H139212   2.546   6.783   2.080  0.7943 -0.4705  0.2188
 5859TIP3    H239213   2.528   6.651   2.007 -0.4101 -0.0602 -0.2570
 5860TIP3   OH239214   5.869   6.600   7.876  0.6266 -0.5397  0.0487
 5860TIP3    H139215   5.896   6.677   7.927  1.8882 -0.5414 -0.5734
 5860TIP3    H239216   5.933   6.533   7.900  0.4618 -0.9241 -0.5806
 5861TIP3   OH239217   4.636   2.878   7.234 -0.0080  0.4740  0.7108
 5861TIP3    H139218   4.702   2.843   7.173  1.1089  0.6604  1.7685
 5861TIP3    H239219   4.567   2.912   7.177  0.7616  0.2028 -0.4360
 5862TIP3   OH239220   4.881   0.779   0.566  0.2475  0.0417 -0.4110
 5862TIP3    H139221   4.928   0.802   0.646  0.4704  0.1513 -0.5746
 5862TIP3    H239222   4.799   0.829   0.571 -0.1899 -0.7210  0.2348
 5863TIP3   OH239223   2.058   6.562   7.044 -0.0407  0.2679 -0.3456
 5863TIP3    H139224   2.071   6.656   7.056  0.0025  0.1874  0.2626
 5863TIP3    H239225   1.963   6.550   7.054  0.0705  0.1136  0.5496
 5864TIP3   OH239226   5.084   1.506   0.078  0.3464  0.4892  0.5715
 5864TIP3    H139227   5.143   1.461   0.139  0.6501  1.7464  1.2471
 5864TIP3    H239228   4.997   1.471   0.099  0.6886 -0.4644  0.4288
 5865TIP3   OH239229   0.879   6.569   0.631 -0.3186 -0.6017  0.1912
 5865TIP3    H139230   0.902   6.636   0.695 -0.6209  0.4600 -0.7887
 5865TIP3    H239231   0.961   6.523   0.614 -0.0616 -0.3391  0.7107
 5866TIP3   OH239232   5.441   2.159   2.295 -0.0801  0.3006 -0.6283
 5866TIP3    H139233   5.451   2.191   2.384  2.6919 -0.7630 -0.4386
 5866TIP3    H239234   5.357   2.194   2.266 -1.3403  0.2656  2.5355
 5867TIP3   OH239235   0.860   1.996   7.131  0.3574  0.6359 -0.4316
 5867TIP3    H139236   0.781   2.031   7.173  0.0403  1.1923 -1.4497
 5867TIP3    H239237   0.915   2.073   7.118  0.7386  0.3624 -0.4350
 5868TIP3   OH239238   6.157   0.162   1.521  0.3250  0.3984  0.0240
 5868TIP3    H139239   6.131   0.143   1.431  0.8558 -0.8667  0.1207
 5868TIP3    H239240   6.238   0.114   1.533 -0.7746 -1.1248  1.8117
 5869TIP3   OH239241   1.992   4.393   1.849  0.0143  0.5353 -1.1357
 5869TIP3    H139242   2.081   4.425   1.866 -0.1245  0.1726  0.5483
 5869TIP3    H239243   1.991   4.372   1.756  2.0124 -0.3565 -1.0225
 5870TIP3   OH239244   0.612   4.269   8.451 -0.0211 -0.0225  0.0805
 5870TIP3    H139245   0.583   4.198   8.508  1.1364 -0.0106  0.7200
 5870TIP3    H239246   0.692   4.235   8.409  0.0573  0.5776 -0.2649
 5871TIP3   OH239247   1.435   4.608   8.320 -0.3056  0.8779  0.0145
 5871TIP3    H139248   1.501   4.539   8.320 -1.0088  0.1679  1.1972
 5871TIP3    H239249   1.439   4.645   8.232 -0.6112 -1.3489 -0.9986
 5872TIP3   OH239250   6.118   3.083   3.040  0.0260 -0.2160 -0.7982
 5872TIP3    H139251   6.212   3.083   3.022  0.2985 -1.6276  0.5040
 5872TIP3    H239252   6.084   3.007   2.993  0.0394 -1.4048  1.0452
 5873TIP3   OH239253   3.705   4.363   0.468  0.5611  0.0844 -0.2515
 5873TIP3    H139254   3.799   4.348   0.475  0.3390 -0.8277  1.3540
 5873TIP3    H239255   3.687   4.434   0.529  0.4020  1.3169 -1.6970
 5874TIP3   OH239256   4.882   3.015   8.517  0.7058  0.0114 -0.2427
 5874TIP3    H139257   4.863   3.033   8.609  1.1621 -0.6203 -0.0161
 5874TIP3    H239258   4.953   3.075   8.495  0.6973  0.0607 -0.1361
 5875TIP3   OH239259   0.567   3.453   0.880  0.7516 -0.3652  0.3393
 5875TIP3    H139260   0.634   3.495   0.826 -0.1495  1.3710  0.5056
 5875TIP3    H239261   0.597   3.464   0.970 -0.5052  1.9983  0.5544
 5876TIP3   OH239262   6.144   0.733   7.252  0.0475  0.2396 -0.3459
 5876TIP3    H139263   6.076   0.763   7.313 -0.8480  0.4398 -1.4172
 5876TIP3    H239264   6.104   0.658   7.207  0.8696 -0.1842 -0.3866
 5877TIP3   OH239265   1.548   4.322   0.257  0.2900 -0.8223 -0.2056
 5877TIP3    H139266   1.625   4.361   0.298  1.0502 -1.6789 -0.7806
 5877TIP3    H239267   1.547   4.232   0.287 -1.2107 -0.5075  0.7710
 5878TIP3   OH239268   1.007   2.954   1.175  0.4262  0.4174 -0.4361
 5878TIP3    H139269   1.015   3.030   1.117 -0.2901 -0.3986 -1.6406
 5878TIP3    H239270   1.073   2.893   1.142  1.1210  0.5628  0.6391
 5879TIP3   OH239271   3.125   3.393   0.274  0.0932 -0.2721 -0.2946
 5879TIP3    H139272   3.177   3.389   0.354  1.6314 -1.4268 -1.2868
 5879TIP3    H239273   3.034   3.402   0.304  0.6357 -0.6250  1.5613
 5880TIP3   OH239274   3.359   6.581   7.438  0.1401 -0.0588  0.1150
 5880TIP3    H139275   3.437   6.524   7.438  0.2829  0.1381 -0.0705
 5880TIP3    H239276   3.307   6.549   7.365  0.2475  0.0877 -0.0248
 5881TIP3   OH239277   4.618   5.220   7.456  0.5516  0.3398  0.3427
 5881TIP3    H139278   4.699   5.171   7.436 -0.9609 -2.5503  0.7278
 5881TIP3    H239279   4.619   5.228   7.551  0.4261  0.3466  0.3433
 5882TIP3   OH239280   4.277   3.652   7.305 -0.6684 -0.0726  0.1998
 5882TIP3    H139281   4.293   3.585   7.239  1.3150  0.4883  0.0572
 5882TIP3    H239282   4.267   3.604   7.387 -0.9607 -0.6332 -0.1597
 5883TIP3   OH239283   2.633   0.329   2.700 -0.6463 -0.1504 -0.0037
 5883TIP3    H139284   2.603   0.420   2.699 -3.2017 -0.8619  1.1621
 5883TIP3    H239285   2.681   0.320   2.783  0.3606  0.3151 -0.5251
 5884TIP3   OH239286   3.763   3.067   1.567  0.1660 -0.0550  0.3322
 5884TIP3    H139287   3.726   2.980   1.549  1.5310 -0.8296  1.0747
 5884TIP3    H239288   3.705   3.105   1.633  0.8732 -1.4438  1.8384
 5885TIP3   OH239289   3.413   5.678   0.759  0.4303  0.0397  0.3246
 5885TIP3    H139290   3.472   5.618   0.714 -0.6059 -0.6263 -0.1995
 5885TIP3    H239291   3.334   5.626   0.776 -0.1279  0.9821  0.7218
 5886TIP3   OH239292   5.785   6.275   8.346 -0.2386  0.3386  0.5503
 5886TIP3    H139293   5.784   6.348   8.284  3.2814 -1.1655 -1.5605
 5886TIP3    H239294   5.735   6.206   8.303  0.4578 -0.0209  0.2984
 5887TIP3   OH239295   6.764   2.157   2.180  0.0097  0.2464 -0.3422
 5887TIP3    H139296   6.745   2.248   2.157 -0.6320  0.7676  1.9602
 5887TIP3    H239297   6.720   2.105   2.113  1.5123  1.5801 -2.5010
 5888TIP3   OH239298   5.317   4.566   7.835  0.2586  0.4915  0.0507
 5888TIP3    H139299   5.299   4.623   7.760  0.8243 -2.5586 -2.5807
 5888TIP3    H239300   5.232   4.530   7.860  0.4282 -0.9388 -1.3056
 5889TIP3   OH239301   1.830   3.403   0.550 -0.2272  0.6830 -0.6831
 5889TIP3    H139302   1.805   3.436   0.464 -0.6757  1.2187 -0.3513
 5889TIP3    H239303   1.919   3.435   0.563 -0.5144  1.4346 -0.5352
 5890TIP3   OH239304   3.834   0.790   8.476  0.9307  0.4333 -0.0726
 5890TIP3    H139305   3.768   0.747   8.423  2.5925 -0.5769 -1.4248
 5890TIP3    H239306   3.903   0.724   8.487  2.2123  1.7778  0.3335
 5891TIP3   OH239307   3.059   6.575   7.773 -0.5406  0.2830  0.0527
 5891TIP3    H139308   2.994   6.533   7.830 -1.8831 -0.9071 -2.1778
 5891TIP3    H239309   3.122   6.506   7.755  0.1994  0.8229  0.5466
 5892TIP3   OH239310   5.205   5.133   7.196 -0.3377 -0.3248  0.0005
 5892TIP3    H139311   5.138   5.068   7.216 -1.6838  0.6737 -1.0229
 5892TIP3    H239312   5.175   5.173   7.114  0.4922  1.4824  0.5308
 5893TIP3   OH239313   3.485   4.661   6.720  0.0387 -0.1432  0.3133
 5893TIP3    H139314   3.574   4.635   6.699 -0.1870 -0.8424  0.1967
 5893TIP3    H239315   3.465   4.730   6.656  1.3667  1.8808  1.9441
 5894TIP3   OH239316   6.546   3.047   0.716  0.6394 -0.5069 -0.3888
 5894TIP3    H139317   6.470   3.094   0.682 -0.0903 -0.9680  0.5611
 5894TIP3    H239318   6.591   3.110   0.772  1.1696 -0.1238 -1.2282
 5895TIP3   OH239319   5.970   4.440   7.946 -0.3334  0.4083  0.6678
 5895TIP3    H139320   6.010   4.425   8.032 -2.3353  1.0066  1.7663
 5895TIP3    H239321   5.983   4.534   7.930  2.8966 -0.2034 -1.3008
 5896TIP3   OH239322   2.821   0.353   7.841 -0.6853 -0.1435 -0.3859
 5896TIP3    H139323   2.786   0.383   7.757  0.4096  4.0947  0.4563
 5896TIP3    H239324   2.748   0.362   7.901 -0.2536  1.4104 -0.0571
 5897TIP3   OH239325   5.476   4.404   0.892 -0.1670  0.3403 -0.4769
 5897TIP3    H139326   5.532   4.429   0.966  0.5918 -0.4012 -0.7797
 5897TIP3    H239327   5.518   4.445   0.816 -0.7470  0.8130 -0.5448
 5898TIP3   OH239328   5.668   2.728   0.329 -0.2353 -0.4952 -0.2364
 5898TIP3    H139329   5.608   2.670   0.376  0.8097 -1.8631 -0.4975
 5898TIP3    H239330   5.755   2.692   0.348  0.5636  1.6261  0.4183
 5899TIP3   OH239331   1.223   4.702   2.038  0.4482  0.2187 -0.3036
 5899TIP3    H139332   1.286   4.730   2.105 -0.2949  1.4923 -0.1147
 5899TIP3    H239333   1.247   4.611   2.021  0.2200 -0.4126  2.2479
 5900TIP3   OH239334   3.106   4.699   7.929  0.5880 -0.4013  0.4225
 5900TIP3    H139335   3.070   4.714   8.016  0.0254  1.3387 -0.0780
 5900TIP3    H239336   3.051   4.630   7.892 -1.4519  1.2833  0.1624
 5901TIP3   OH239337   3.115   5.399   1.903 -0.2528 -0.8483  0.3344
 5901TIP3    H139338   3.104   5.433   1.992 -2.1407  0.0778 -0.1939
 5901TIP3    H239339   3.061   5.457   1.848  0.4944 -1.6730 -1.3542
 5902TIP3   OH239340   3.682   6.542   7.072  0.6090 -0.9648  0.2720
 5902TIP3    H139341   3.611   6.492   7.032 -1.3896  0.7139  1.4859
 5902TIP3    H239342   3.700   6.613   7.010 -0.6783  0.1199  1.0634
 5903TIP3   OH239343   1.889   4.780   0.977  0.4426 -0.3498  0.0837
 5903TIP3    H139344   1.959   4.842   0.957  0.6956 -0.7066 -0.1572
 5903TIP3    H239345   1.898   4.762   1.070  0.9243 -0.6958 -0.0251
 5904TIP3   OH239346   4.969   1.959   7.648 -0.2538  0.2779 -0.2763
 5904TIP3    H139347   5.027   1.934   7.720 -0.3788 -1.2927 -0.6970
 5904TIP3    H239348   5.021   2.023   7.597  0.5208  0.0478  0.2051
 5905TIP3   OH239349   1.861   3.278   7.288  0.4146  0.0984 -0.1166
 5905TIP3    H139350   1.815   3.319   7.215 -0.4387  2.0049  1.4121
 5905TIP3    H239351   1.880   3.350   7.348 -0.5946 -1.6329  2.4187
 5906TIP3   OH239352   3.132   2.253   0.378  0.4342  0.5053 -0.7844
 5906TIP3    H139353   3.093   2.279   0.462  1.2684  1.1905 -0.5917
 5906TIP3    H239354   3.220   2.223   0.400  0.5513  0.3958 -1.3794
 5907TIP3   OH239355   1.836   4.863   0.465 -0.0211 -0.0248  0.4043
 5907TIP3    H139356   1.753   4.908   0.454  0.2469  0.4229  0.1558
 5907TIP3    H239357   1.892   4.898   0.395  0.3472 -0.3790  0.5147
 5908TIP3   OH239358   4.693   4.128   2.009  0.2235  0.1160  0.1093
 5908TIP3    H139359   4.623   4.124   2.073  0.9601 -0.3296  0.9056
 5908TIP3    H239360   4.724   4.038   2.001 -0.1191  0.0942 -1.1828
 5909TIP3   OH239361   5.860   6.436   1.248 -0.2246 -0.3146 -0.7142
 5909TIP3    H139362   5.781   6.435   1.193 -1.3996 -0.1470  0.8869
 5909TIP3    H239363   5.918   6.372   1.207 -0.8655  0.0874 -2.3604
 5910TIP3   OH239364   6.431   3.832   8.204  0.3629 -0.3803 -0.5918
 5910TIP3    H139365   6.354   3.888   8.215  2.0674  1.8324  1.0132
 5910TIP3    H239366   6.471   3.863   8.123  0.0130 -0.9897 -1.0044
 5911TIP3   OH239367   3.203   3.493   7.521  0.1070 -0.3739 -0.3110
 5911TIP3    H139368   3.179   3.571   7.473  0.2868 -0.5028 -0.6132
 5911TIP3    H239369   3.298   3.487   7.512 -0.0249 -1.2881 -1.3142
 5912TIP3   OH239370   1.735   6.591   2.962  0.0419 -0.0102  0.1134
 5912TIP3    H139371   1.799   6.598   2.891 -0.2970 -0.0279 -0.1959
 5912TIP3    H239372   1.663   6.540   2.925  0.1286 -0.5460  0.6655
 5913TIP3   OH239373   2.579   4.737   2.212 -0.0836  0.2582 -0.1849
 5913TIP3    H139374   2.668   4.770   2.223 -0.2305  0.3744  0.7572
 5913TIP3    H239375   2.533   4.765   2.291 -1.5322  1.9921 -1.5455
 5914TIP3   OH239376   4.439   6.876   6.860  0.2888  0.5455 -0.0358
 5914TIP3    H139377   4.479   6.860   6.774  0.5846 -0.1344  0.2152
 5914TIP3    H239378   4.513   6.894   6.918  0.2624 -0.6678  0.4209
 5915TIP3   OH239379   1.164   5.466   0.540 -0.1424 -0.0691 -0.2586
 5915TIP3    H139380   1.089   5.450   0.597 -0.4625  0.1632 -0.6086
 5915TIP3    H239381   1.211   5.538   0.582  0.0944 -0.4669  0.1616
 5916TIP3   OH239382   6.629   3.949   1.394  1.2622 -0.3303  0.0062
 5916TIP3    H139383   6.583   3.864   1.397 -0.5631  0.6175  1.7824
 5916TIP3    H239384   6.647   3.969   1.486  0.6959  1.6679 -0.2651
 5917TIP3   OH239385   6.315   2.642   1.803  0.5011  0.0928  0.3081
 5917TIP3    H139386   6.327   2.624   1.710  1.1764 -1.9962  0.7338
 5917TIP3    H239387   6.251   2.577   1.832 -0.7044  1.5638  1.0783
 5918TIP3   OH239388   3.516   5.505   8.244 -0.1335 -0.1613 -0.0127
 5918TIP3    H139389   3.601   5.469   8.272 -0.2119 -1.1954 -1.0285
 5918TIP3    H239390   3.482   5.440   8.182  0.1869  2.1483 -2.8061
 5919TIP3   OH239391   3.613   1.356   8.420 -0.1476  0.2811  0.3226
 5919TIP3    H139392   3.673   1.429   8.408 -1.0632  0.6865 -2.3805
 5919TIP3    H239393   3.666   1.278   8.408  0.4350  0.5112  1.2654
 5920TIP3   OH239394   2.201   2.124   8.234 -0.4275 -0.1511 -0.2135
 5920TIP3    H139395   2.190   2.219   8.244 -0.5057  0.1534 -2.5686
 5920TIP3    H239396   2.113   2.091   8.218 -0.1821 -0.3198 -1.2931
 5921TIP3   OH239397   4.073   0.041   8.341  0.5297 -0.3631 -0.0193
 5921TIP3    H139398   4.097  -0.023   8.274 -0.1064 -1.1408  0.4809
 5921TIP3    H239399   4.002   0.092   8.300 -0.0543 -1.0225  0.1470
 5922TIP3   OH239400   3.290   2.320   0.128  0.5265 -0.5182 -0.3550
 5922TIP3    H139401   3.290   2.414   0.114  1.5530 -0.4437  0.1013
 5922TIP3    H239402   3.301   2.309   0.222 -2.7272 -1.0692  0.0855
 5923TIP3   OH239403   4.137   6.892   2.842 -0.0676 -0.2034 -0.6625
 5923TIP3    H139404   4.059   6.943   2.863  0.3595 -0.7414  2.9142
 5923TIP3    H239405   4.121   6.858   2.754 -3.1246  0.9501 -0.6631
 5924TIP3   OH239406   3.039   0.547   0.107 -0.4819 -0.5058  0.0553
 5924TIP3    H139407   3.044   0.510   0.195  1.9576  0.5728  0.4593
 5924TIP3    H239408   2.948   0.533   0.080 -1.2546 -1.0441  2.6460
 5925TIP3   OH239409   1.353   5.184   0.788  0.3228  0.3401  0.1413
 5925TIP3    H139410   1.387   5.126   0.856 -1.5823  0.7179  1.4768
 5925TIP3    H239411   1.408   5.262   0.793  0.7415  0.0180  0.6445
 5926TIP3   OH239412   1.768   6.459   6.424  0.1063  0.1104  0.6524
 5926TIP3    H139413   1.686   6.458   6.375  0.0493 -0.4213  0.7564
 5926TIP3    H239414   1.774   6.372   6.463  1.9619 -0.7431 -1.3926
 5927TIP3   OH239415   1.008   4.115   0.417 -0.1736  0.2779 -0.0151
 5927TIP3    H139416   0.944   4.080   0.355  1.1463 -1.2260 -0.6067
 5927TIP3    H239417   1.053   4.037   0.451 -0.5294  1.0883  2.4945
 5928TIP3   OH239418   1.987   5.425   3.181  0.6651 -0.2166  0.0533
 5928TIP3    H139419   2.000   5.512   3.220  1.2152 -1.5094  3.0156
 5928TIP3    H239420   1.995   5.440   3.086  1.7703  2.7630  0.5027
 5929TIP3   OH239421   2.498   0.559   1.419 -0.1210  0.4359 -0.5155
 5929TIP3    H139422   2.524   0.490   1.479  1.6980  1.8666  0.4400
 5929TIP3    H239423   2.505   0.519   1.332  1.0772 -0.5416  0.0023
 5930TIP3   OH239424   5.744   0.503   2.756  0.2474  0.2770 -0.8887
 5930TIP3    H139425   5.680   0.573   2.749 -0.1480 -0.1171 -1.2503
 5930TIP3    H239426   5.700   0.435   2.807  1.3578  1.1144  1.3191
 5931TIP3   OH239427   3.351   4.657   0.329  0.4715 -0.1351  0.9925
 5931TIP3    H139428   3.362   4.749   0.354  1.0270  0.0322  0.1654
 5931TIP3    H239429   3.305   4.661   0.245 -0.4539 -0.6542  1.4651
 5932TIP3   OH239430   5.250   3.089   1.262 -0.7141 -0.7951  0.0209
 5932TIP3    H139431   5.287   3.001   1.253 -1.5448 -1.2689  0.9883
 5932TIP3    H239432   5.183   3.079   1.329 -0.5486  0.6743  0.4238
 5933TIP3   OH239433   5.086   4.391   0.264  0.4697  0.2395 -0.3553
 5933TIP3    H139434   5.131   4.472   0.243  0.0551  1.0883  1.7549
 5933TIP3    H239435   5.016   4.384   0.199  2.5275 -0.2529 -2.6460
 5934TIP3   OH239436   0.405   2.143   7.990 -0.1428  0.2275  0.6981
 5934TIP3    H139437   0.492   2.179   8.006  0.1147 -0.6818  1.3857
 5934TIP3    H239438   0.400   2.135   7.895  0.7011 -0.1443  0.6783
 5935TIP3   OH239439   0.776   1.146   0.149 -0.7197  0.4540  0.3577
 5935TIP3    H139440   0.849   1.084   0.148  0.6348  1.9809  0.2341
 5935TIP3    H239441   0.796   1.207   0.078 -1.3401  1.7521  1.2612
 5936TIP3   OH239442   1.498   1.083   1.830  0.1957 -0.2711 -0.7460
 5936TIP3    H139443   1.575   1.086   1.886  0.6831  1.9308 -1.4276
 5936TIP3    H239444   1.532   1.057   1.744  0.0078 -0.3357 -0.8008
 5937TIP3   OH239445   3.678   1.271   7.161 -0.8663  0.1595 -0.0128
 5937TIP3    H139446   3.746   1.286   7.096  0.0067 -0.3529  0.7547
 5937TIP3    H239447   3.602   1.318   7.128 -0.7408 -0.8753 -1.8676
 5938TIP3   OH239448   2.769   4.966   7.293  0.8235  0.0890 -0.5255
 5938TIP3    H139449   2.686   4.923   7.274  1.5081 -0.7167 -1.8304
 5938TIP3    H239450   2.790   4.939   7.383 -0.0802 -0.0904 -0.3579
 5939TIP3   OH239451   1.235   1.868   1.240  0.3119  0.1250  0.0187
 5939TIP3    H139452   1.157   1.842   1.288  0.7915 -0.8700  0.2867
 5939TIP3    H239453   1.308   1.828   1.288  0.6700 -3.0196 -2.7651
 5940TIP3   OH239454   6.801   3.048   8.098 -0.4783  0.1140  0.0787
 5940TIP3    H139455   6.887   3.090   8.109  0.9404 -2.3640 -0.7117
 5940TIP3    H239456   6.744   3.094   8.160  0.6613  3.6185 -1.1951
 5941TIP3   OH239457   4.931   6.303   8.244  0.2902  0.6001 -0.1281
 5941TIP3    H139458   4.999   6.238   8.227  0.7871  1.5856 -2.1582
 5941TIP3    H239459   4.958   6.345   8.326  0.6603 -0.7947  0.5062
 5942TIP3   OH239460   0.627   1.145   6.639 -0.1676 -0.3186  0.2049
 5942TIP3    H139461   0.540   1.105   6.642 -0.8783  0.9762 -1.4933
 5942TIP3    H239462   0.687   1.070   6.644 -1.4157 -1.4184 -0.4423
 5943TIP3   OH239463   4.565   0.624   7.864 -0.0476  0.3578  0.0954
 5943TIP3    H139464   4.527   0.584   7.942 -1.4398  0.5418 -0.4584
 5943TIP3    H239465   4.655   0.644   7.888 -0.0665 -0.7983  1.2091
 5944TIP3   OH239466   1.305   2.001   0.627  0.7639 -0.0863 -0.9265
 5944TIP3    H139467   1.283   1.997   0.720 -0.7854 -0.3864 -1.2876
 5944TIP3    H239468   1.394   2.038   0.625  0.6925  0.2251  0.6443
 5945TIP3   OH239469   1.193   1.457   2.200 -0.1427  0.7285  0.3483
 5945TIP3    H139470   1.264   1.393   2.189 -1.9092 -1.1218 -1.1078
 5945TIP3    H239471   1.129   1.411   2.254 -1.8278  0.8855 -1.4363
 5946TIP3   OH239472   3.024   0.718   1.417 -0.0478  0.5985 -0.1473
 5946TIP3    H139473   3.000   0.771   1.493 -0.2933 -2.9962  2.5602
 5946TIP3    H239474   2.944   0.713   1.365 -0.5194  1.3990  0.4782
 5947TIP3   OH239475   3.593   2.501   2.278  0.6886  0.3443  0.7306
 5947TIP3    H139476   3.549   2.544   2.351  0.0395 -0.3568  0.7581
 5947TIP3    H239477   3.554   2.541   2.200 -0.1815 -0.4472  0.7525
 5948TIP3   OH239478   2.551   6.346   1.409  0.7043  0.0630  0.0157
 5948TIP3    H139479   2.500   6.423   1.432 -0.6732 -1.2646  1.6720
 5948TIP3    H239480   2.487   6.275   1.407  1.6852 -0.8781 -2.8113
 5949TIP3   OH239481   1.955   5.207   1.407  0.4491 -0.0774 -0.0816
 5949TIP3    H139482   1.980   5.281   1.353 -0.1447  0.6396  0.6046
 5949TIP3    H239483   2.006   5.133   1.372  1.6512  0.8065 -0.2604
 5950TIP3   OH239484   1.714   2.893   6.824  0.1922 -0.4160  0.4260
 5950TIP3    H139485   1.645   2.923   6.884  0.2293  1.7980 -0.5593
 5950TIP3    H239486   1.790   2.946   6.846  0.2342  0.3598 -1.4830
 5951TIP3   OH239487   4.997   3.773   0.207  0.6082  0.3710  0.3614
 5951TIP3    H139488   5.039   3.784   0.122  0.5874  0.3963  0.3547
 5951TIP3    H239489   4.925   3.836   0.207  0.1093 -0.1895  0.0767
 5952TIP3   OH239490   0.096   5.847   8.247  0.2465 -0.6957 -0.5067
 5952TIP3    H139491   0.118   5.914   8.312  1.1950  1.4637 -2.8686
 5952TIP3    H239492   0.165   5.782   8.255 -0.6777 -1.4904  1.8324
 5953TIP3   OH239493   1.398   5.738   2.501  0.2014 -0.0161  0.0551
 5953TIP3    H139494   1.374   5.653   2.536  0.9557 -0.2315  0.0525
 5953TIP3    H239495   1.480   5.724   2.455  0.4098  0.7417  0.1732
 5954TIP3   OH239496   3.404   5.148   8.274  0.0779  0.3074  0.2545
 5954TIP3    H139497   3.498   5.150   8.258  0.2891  1.3719  1.4894
 5954TIP3    H239498   3.365   5.159   8.187  1.0321 -1.8361 -0.5210
 5955TIP3   OH239499   1.106   4.057   0.749  0.1212 -0.5384  0.3527
 5955TIP3    H139500   1.149   4.033   0.667 -0.1405  2.9294 -0.9637
 5955TIP3    H239501   1.016   4.076   0.725 -0.4769 -1.3057  1.8563
 5956TIP3   OH239502   2.353   1.945   7.628  0.2851 -0.2670  0.1864
 5956TIP3    H139503   2.334   1.950   7.534  2.2155 -0.4591 -0.2569
 5956TIP3    H239504   2.400   1.863   7.638  0.0574 -0.2687  1.3557
 5957TIP3   OH239505   2.340   6.418   7.039  0.1381 -0.4413 -0.5655
 5957TIP3    H139506   2.305   6.479   7.105 -0.1010  0.0322 -1.1204
 5957TIP3    H239507   2.406   6.367   7.086  1.2480  1.1025 -0.3770
 5958TIP3   OH239508   1.097   5.865   1.011  0.4127  1.0763 -0.5123
 5958TIP3    H139509   1.190   5.861   1.033  0.4716  2.8129 -0.2911
 5958TIP3    H239510   1.086   5.951   0.970 -0.8201  0.2920 -1.9301
 5959TIP3   OH239511   5.464   0.453   1.511  0.1177 -0.2579 -0.0916
 5959TIP3    H139512   5.499   0.524   1.458 -0.4639 -1.2383 -1.8801
 5959TIP3    H239513   5.531   0.385   1.508  0.2915 -0.1434  0.8690
 5960TIP3   OH239514   1.599   3.629   1.826 -0.4907  0.2885 -0.5457
 5960TIP3    H139515   1.510   3.601   1.848 -0.5681 -0.1859 -1.4276
 5960TIP3    H239516   1.594   3.656   1.735  0.4544 -0.5785 -0.8807
 5961TIP3   OH239517   1.153   6.456   0.623 -0.3550  0.0183  0.2148
 5961TIP3    H139518   1.209   6.457   0.700  0.9548  2.3197 -0.6763
 5961TIP3    H239519   1.176   6.535   0.575 -2.0537 -0.6618 -1.8982
 5962TIP3   OH239520   5.257   2.120   1.714 -0.6583 -0.0412 -0.4481
 5962TIP3    H139521   5.210   2.078   1.642 -2.1702  2.5064 -1.0775
 5962TIP3    H239522   5.346   2.130   1.682 -0.9682 -0.2414 -1.3972
 5963TIP3   OH239523   0.646   0.669   7.425  0.1525 -0.9743  0.4256
 5963TIP3    H139524   0.649   0.757   7.386  2.1268 -0.5936  1.2829
 5963TIP3    H239525   0.581   0.622   7.373  0.7717  0.2838 -1.6347
 5964TIP3   OH239526   0.735   2.479   0.075  0.1275 -0.1164  0.6550
 5964TIP3    H139527   0.745   2.383   0.073  1.2768  0.0110 -0.2296
 5964TIP3    H239528   0.755   2.507  -0.014 -1.5138  0.8539  0.5532
 5965TIP3   OH239529   1.073   0.295   7.703 -0.4616  0.4099 -0.7590
 5965TIP3    H139530   1.031   0.372   7.666  0.2873  0.5223 -1.4143
 5965TIP3    H239531   1.159   0.325   7.732 -0.2904 -0.1013 -0.7124
 5966TIP3   OH239532   4.836   4.968   7.392  0.1151  0.3040 -0.3651
 5966TIP3    H139533   4.780   4.890   7.387 -0.2785  0.5535  0.0148
 5966TIP3    H239534   4.924   4.936   7.373  0.0307 -0.3289  0.2453
 5967TIP3   OH239535   1.025   6.924   8.335 -0.3032 -0.0615 -0.1056
 5967TIP3    H139536   1.020   6.833   8.306 -1.2997  0.2321 -0.9027
 5967TIP3    H239537   1.118   6.940   8.349  0.0146 -0.7982 -1.2654
 5968TIP3   OH239538   5.718   6.916   2.307 -0.1096 -0.0879 -0.2658
 5968TIP3    H139539   5.756   6.849   2.364  0.5083  0.1111 -0.4440
 5968TIP3    H239540   5.663   6.866   2.246  1.7505 -0.6333 -1.5537
 5969TIP3   OH239541   4.223   4.388   1.382  0.5544  0.8227  0.0676
 5969TIP3    H139542   4.128   4.384   1.369  0.5618  1.8151 -0.4462
 5969TIP3    H239543   4.259   4.326   1.319  0.3018  1.5092 -0.7760
 5970TIP3   OH239544   2.302   0.044   1.965  0.6187  0.0143 -0.3082
 5970TIP3    H139545   2.372   0.084   2.018  0.3445 -0.7833  0.6782
 5970TIP3    H239546   2.224   0.050   2.020 -0.3184  1.5886 -1.6921
 5971TIP3   OH239547   3.867   3.247   7.133  0.5235 -0.2092 -0.0446
 5971TIP3    H139548   3.787   3.236   7.081  1.0339 -2.2941 -0.4658
 5971TIP3    H239549   3.925   3.298   7.077 -0.1780  0.5951 -0.0714
 5972TIP3   OH239550   1.786   5.645   8.025  0.7103  0.2217  0.2129
 5972TIP3    H139551   1.808   5.598   8.105  2.0691 -2.5361 -1.6310
 5972TIP3    H239552   1.844   5.608   7.958 -0.4991  2.2403 -2.1342
 5973TIP3   OH239553   5.202   0.452   1.440  0.1924  0.3567 -0.4514
 5973TIP3    H139554   5.295   0.462   1.460  0.5357  1.0930 -2.1968
 5973TIP3    H239555   5.159   0.515   1.498  0.6537 -0.6494  1.0424
 5974TIP3   OH239556   0.554   4.478   7.236  0.0527 -0.0675  0.1985
 5974TIP3    H139557   0.466   4.474   7.274  0.2007 -1.4516  0.4415
 5974TIP3    H239558   0.545   4.535   7.160 -0.7624  0.8366  0.9418
 5975TIP3   OH239559   2.361   1.868   0.609  0.3784 -0.0476 -0.8764
 5975TIP3    H139560   2.367   1.773   0.601  0.7631 -0.1364  0.3060
 5975TIP3    H239561   2.377   1.901   0.520  0.4896 -1.0702 -1.2434
 5976TIP3   OH239562   0.807   4.552   7.990 -0.2352  0.4402  0.7295
 5976TIP3    H139563   0.867   4.606   8.042 -1.8699  1.6626  1.4262
 5976TIP3    H239564   0.764   4.496   8.055  0.5607 -0.8845  0.1594
 5977TIP3   OH239565   0.887   0.905   2.289  0.4484  0.1975  0.1651
 5977TIP3    H139566   0.836   0.980   2.259  0.0074 -0.3582 -0.5019
 5977TIP3    H239567   0.939   0.939   2.362 -0.4285  0.9193  0.4700
 5978TIP3   OH239568   3.613   3.722   8.114  0.3348  0.0345  0.2144
 5978TIP3    H139569   3.556   3.754   8.044  0.4156  2.6515  1.2453
 5978TIP3    H239570   3.697   3.767   8.100  0.1695  1.1249  2.2873
 5979TIP3   OH239571   1.742   2.372   0.820 -0.2355 -0.0141 -0.4661
 5979TIP3    H139572   1.776   2.327   0.898  0.2237 -0.3211 -0.8407
 5979TIP3    H239573   1.803   2.348   0.750 -0.3237  0.7088 -0.7997
 5980TIP3   OH239574   5.006   3.832   8.234 -0.3114  0.0901  0.0399
 5980TIP3    H139575   5.094   3.845   8.269  0.1869 -0.5937 -0.9098
 5980TIP3    H239576   4.962   3.778   8.300 -0.0872  0.5690  0.5973
 5981TIP3   OH239577   3.163   6.809   7.225 -0.0111 -0.2894 -0.2671
 5981TIP3    H139578   3.107   6.808   7.148  0.1537  1.2593 -0.4271
 5981TIP3    H239579   3.139   6.889   7.272  1.7379  0.1802 -0.1132
 5982TIP3   OH239580   5.648   5.706   2.362  0.0725  0.5545 -0.4577
 5982TIP3    H139581   5.696   5.778   2.320  0.7463  0.5074  0.2042
 5982TIP3    H239582   5.683   5.628   2.319  1.2740  0.4566  0.6333
 5983TIP3   OH239583   0.234   6.479   1.360 -1.0701 -0.2397  0.0334
 5983TIP3    H139584   0.250   6.509   1.270  0.0347  0.2897  0.3806
 5983TIP3    H239585   0.147   6.511   1.381 -0.9014  0.5968 -0.4737
 5984TIP3   OH239586   6.276   2.025   0.118  0.4107  0.3940  0.4664
 5984TIP3    H139587   6.309   2.059   0.035  1.0202 -1.4119 -0.0742
 5984TIP3    H239588   6.258   1.933   0.101 -1.3765  0.4370  1.8118
 5985TIP3   OH239589   5.135   5.343   8.504  0.0978  0.1467 -0.2002
 5985TIP3    H139590   5.135   5.330   8.409 -0.4724 -0.4849 -0.1207
 5985TIP3    H239591   5.214   5.298   8.534 -0.3017 -0.5905 -0.2550
 5986TIP3   OH239592   2.215   5.854   1.294 -0.3715  0.1552  0.3287
 5986TIP3    H139593   2.281   5.845   1.363 -1.6553 -1.4906  1.3905
 5986TIP3    H239594   2.262   5.830   1.214  0.7361  0.6244  0.8079
 5987TIP3   OH239595   5.618   4.181   0.231  0.7196  0.3494  1.0036
 5987TIP3    H139596   5.541   4.222   0.192  0.8001 -0.1377  0.3191
 5987TIP3    H239597   5.621   4.215   0.320  0.5563  1.5144  0.5761
 5988TIP3   OH239598   4.312   5.475   6.987  0.5976  0.2987  0.1404
 5988TIP3    H139599   4.286   5.567   6.985 -0.9732 -0.1221 -0.0467
 5988TIP3    H239600   4.384   5.469   6.924  1.3406  1.5575  0.8419
 5989TIP3   OH239601   4.908   1.495   2.866  1.1772 -0.2836  0.5653
 5989TIP3    H139602   4.874   1.407   2.850 -0.2502  0.2267  0.6141
 5989TIP3    H239603   4.963   1.514   2.789 -0.3301 -0.3678 -0.5914
 5990TIP3   OH239604   6.707   0.011   8.459 -0.4482  0.4661 -0.4249
 5990TIP3    H139605   6.795  -0.024   8.466 -1.0623 -1.1462 -0.2849
 5990TIP3    H239606   6.665  -0.043   8.391 -1.3120  1.2198 -0.5171
 5991TIP3   OH239607   2.591   6.206   1.894 -0.0460  0.6264 -0.5708
 5991TIP3    H139608   2.674   6.252   1.891  0.8034 -0.6282  1.4658
 5991TIP3    H239609   2.584   6.174   1.984 -3.1039  1.3256 -0.4465
 5992TIP3   OH239610   5.290   1.024   7.847 -0.0442  0.4043 -0.2827
 5992TIP3    H139611   5.214   0.980   7.885 -0.3746 -0.2536 -1.6436
 5992TIP3    H239612   5.258   1.061   7.764  1.2066 -0.3336 -1.1373
 5993TIP3   OH239613   1.854   3.141   2.099 -0.9946 -0.0705 -0.5155
 5993TIP3    H139614   1.932   3.125   2.153 -1.6721  0.4029  0.6215
 5993TIP3    H239615   1.781   3.115   2.154 -1.7144  0.5122 -1.1740
 5994TIP3   OH239616   0.778   5.455   7.586 -0.0011 -0.1189  0.2725
 5994TIP3    H139617   0.868   5.423   7.594  0.1537 -0.0784 -1.0546
 5994TIP3    H239618   0.786   5.550   7.591  0.1991 -0.0491 -1.0347
 5995TIP3   OH239619   3.734   4.514   3.042  0.0762 -0.5662 -0.0955
 5995TIP3    H139620   3.658   4.559   3.080  0.8560  0.7129  0.0117
 5995TIP3    H239621   3.738   4.546   2.952  0.5823 -0.4966 -0.0496
 5996TIP3   OH239622   2.130   6.251   7.624 -0.6297  0.2412  0.0363
 5996TIP3    H139623   2.111   6.167   7.666 -3.4436  0.6523 -0.2245
 5996TIP3    H239624   2.120   6.316   7.693 -1.1850  0.5860 -0.3630
 5997TIP3   OH239625   6.148   2.883   1.424  0.1168 -0.4239  0.6486
 5997TIP3    H139626   6.175   2.798   1.389  1.1895 -0.1221  0.6966
 5997TIP3    H239627   6.162   2.876   1.518 -0.8249 -0.5522  0.7834
 5998TIP3   OH239628   5.866   2.576   0.438 -0.4213 -0.0797 -0.1714
 5998TIP3    H139629   5.953   2.607   0.463  0.7805 -2.0368 -1.5717
 5998TIP3    H239630   5.825   2.549   0.520  1.1460 -1.0902  0.3260
 5999TIP3   OH239631   5.802   3.603   0.399  0.0337  0.1637 -0.4897
 5999TIP3    H139632   5.733   3.537   0.389  0.4084 -0.1467 -1.0594
 5999TIP3    H239633   5.870   3.560   0.449 -0.1851  0.4781  0.0919
 6000TIP3   OH239634   3.353   3.148   0.634 -0.0863  0.1711  0.3631
 6000TIP3    H139635   3.429   3.196   0.600 -0.2899  0.4356  0.2705
 6000TIP3    H239636   3.279   3.206   0.616 -0.0452  0.9986  2.5645
 6001TIP3   OH239637   3.245   1.618   6.394  0.9311  0.3177 -0.4197
 6001TIP3    H139638   3.201   1.606   6.478 -1.8381 -1.2781 -1.9398
 6001TIP3    H239639   3.325   1.566   6.400  0.1850 -0.7238  0.8198
 6002TIP3   OH239640   0.007   4.149   0.522 -0.1538  0.3415 -0.1138
 6002TIP3    H139641  -0.088   4.138   0.524 -0.2259  0.9820  1.3295
 6002TIP3    H239642   0.021   4.227   0.468 -0.3157 -0.6700 -1.6718
 6003TIP3   OH239643   4.884   1.647   0.332 -0.2595  0.5466  0.4326
 6003TIP3    H139644   4.948   1.578   0.315  0.7384  1.6951 -0.7101
 6003TIP3    H239645   4.800   1.602   0.337  0.0527 -0.5316 -2.4906
 6004TIP3   OH239646   6.573   1.259   6.798  0.0857  0.9953 -0.1952
 6004TIP3    H139647   6.632   1.204   6.746 -0.3131  0.9952 -0.6528
 6004TIP3    H239648   6.606   1.250   6.887 -0.0639 -0.1235 -0.2341
 6005TIP3   OH239649   5.496   3.515   2.702  0.3226 -0.1899 -0.1883
 6005TIP3    H139650   5.557   3.459   2.750 -1.3212 -0.1941  2.0741
 6005TIP3    H239651   5.488   3.474   2.616  1.4447 -1.6994  0.3904
 6006TIP3   OH239652   5.990   6.467   2.884  0.0211 -0.1815 -0.0345
 6006TIP3    H139653   5.928   6.395   2.888 -1.3076  0.7409 -2.3930
 6006TIP3    H239654   6.032   6.459   2.799 -0.9286  2.3690 -0.8448
 6007TIP3   OH239655   6.238   0.844   7.931  0.1383  0.7917 -0.1100
 6007TIP3    H139656   6.185   0.764   7.926  0.2894  0.6923 -0.1222
 6007TIP3    H239657   6.196   0.895   8.000  1.3848 -0.2990  1.5333
 6008TIP3   OH239658   0.521   0.051   7.057  0.0855 -0.0156 -0.0828
 6008TIP3    H139659   0.478  -0.030   7.083  1.1945 -0.8079 -0.6446
 6008TIP3    H239660   0.488   0.117   7.118 -0.1075 -1.0790  0.9812
 6009TIP3   OH239661   2.373   6.928   0.294 -0.2053 -0.0611  0.6140
 6009TIP3    H139662   2.372   6.907   0.200 -1.5762  0.1915  0.5542
 6009TIP3    H239663   2.444   6.875   0.329  0.5838  0.1236 -0.6258
 6010TIP3   OH239664   0.467   2.601   2.236 -0.1577 -0.3877 -0.2283
 6010TIP3    H139665   0.536   2.536   2.245 -1.0152 -1.2490  0.2347
 6010TIP3    H239666   0.404   2.562   2.175 -0.5165  0.1498 -0.2098
 6011TIP3   OH239667   2.401   0.178   6.966  0.0328 -0.2507  0.1228
 6011TIP3    H139668   2.486   0.223   6.965  0.8566 -1.6552  1.9909
 6011TIP3    H239669   2.343   0.238   7.011  0.1528  0.4812 -0.6646
 6012TIP3   OH239670   5.925   0.222   2.765 -0.0743  0.0222  0.5044
 6012TIP3    H139671   6.016   0.192   2.767 -0.0399 -0.0080 -0.9778
 6012TIP3    H239672   5.929   0.314   2.792  0.1656 -0.4104  2.0934
 6013TIP3   OH239673   4.371   1.887   8.464 -0.1189  0.1974  0.2210
 6013TIP3    H139674   4.303   1.919   8.522  0.3789 -1.2949  1.6936
 6013TIP3    H239675   4.331   1.813   8.418  0.6782 -1.1489  1.6242
 6014TIP3   OH239676   2.886   5.432   7.951  0.1191 -0.2713 -0.4592
 6014TIP3    H139677   2.799   5.395   7.968  0.3129 -1.0092 -1.0407
 6014TIP3    H239678   2.872   5.527   7.952 -0.4700 -0.3457  0.6211
 6015TIP3   OH239679   5.032   1.292   1.889 -0.3380 -0.5871 -0.0978
 6015TIP3    H139680   5.083   1.302   1.969 -1.6493  0.3151  0.6541
 6015TIP3    H239681   4.943   1.316   1.914 -0.6216  0.5477 -2.0296
 6016TIP3   OH239682   2.167   1.652   2.003  0.0841  0.3546  0.1494
 6016TIP3    H139683   2.210   1.702   1.934 -2.3474  1.2372 -0.8411
 6016TIP3    H239684   2.147   1.716   2.071 -1.9076  0.5625 -0.5663
 6017TIP3   OH239685   1.523   6.718   0.928  0.1320  0.5425 -0.1098
 6017TIP3    H139686   1.430   6.727   0.909  0.2129 -0.0520 -0.8295
 6017TIP3    H239687   1.530   6.727   1.023 -0.6325  0.7592 -0.0710
 6018TIP3   OH239688   4.665   4.076   8.313 -0.2530 -0.5349 -0.0737
 6018TIP3    H139689   4.719   4.155   8.313 -0.9830 -0.0264 -0.3167
 6018TIP3    H239690   4.701   4.023   8.242  0.6705 -0.7364  0.5194
 6019TIP3   OH239691   1.577   0.402   7.433 -0.1454  0.3777  0.2532
 6019TIP3    H139692   1.627   0.454   7.370  2.0620 -0.2077  1.4422
 6019TIP3    H239693   1.535   0.335   7.379  1.9946 -0.3475 -0.6226
 6020TIP3   OH239694   2.727   0.908   2.382 -0.1264  0.0398 -0.4494
 6020TIP3    H139695   2.772   0.850   2.443  0.2700  0.3019 -0.4930
 6020TIP3    H239696   2.797   0.958   2.339 -0.4941  0.9490 -0.0170
 6021TIP3   OH239697   4.950   2.519   0.591 -0.2130 -0.0366 -0.0215
 6021TIP3    H139698   4.983   2.512   0.501  0.5535 -1.7850  0.3604
 6021TIP3    H239699   4.980   2.605   0.620  1.0862 -0.1775 -0.8470
 6022TIP3   OH239700   3.937   0.123   0.788 -0.0735  0.4027 -0.6466
 6022TIP3    H139701   3.922   0.029   0.778 -2.8374  0.6984  0.0192
 6022TIP3    H239702   3.998   0.145   0.717 -0.5573 -1.6093 -1.7578
 6023TIP3   OH239703   6.930   0.512   8.507  0.2590  0.2134  0.1784
 6023TIP3    H139704   6.940   0.423   8.473 -0.4514 -0.5083  1.7484
 6023TIP3    H239705   6.839   0.517   8.534  0.0504  1.7503 -0.6907
 6024TIP3   OH239706   2.247   6.311   0.829  0.0116  0.3491  0.0366
 6024TIP3    H139707   2.275   6.241   0.888  1.7890  1.3887  0.5159
 6024TIP3    H239708   2.224   6.265   0.748 -0.9930 -0.9611  1.0202
 6025TIP3   OH239709   5.003   4.842   2.877 -0.0529  0.5416 -0.7077
 6025TIP3    H139710   5.077   4.886   2.835 -1.3507  0.9199 -2.7666
 6025TIP3    H239711   5.033   4.752   2.888  1.4172  1.1194  0.4132
 6026TIP3   OH239712   1.003   4.963   7.042 -0.1071 -0.0847 -0.6082
 6026TIP3    H139713   0.993   5.058   7.040  0.2270 -0.0567 -2.1251
 6026TIP3    H239714   1.018   4.938   6.950  1.8988 -1.3627  0.0021
 6027TIP3   OH239715   6.049   1.274   7.868 -0.0204  0.6261  0.0035
 6027TIP3    H139716   6.009   1.333   7.805 -0.5939 -1.1368 -1.3729
 6027TIP3    H239717   6.091   1.206   7.815  0.8933 -0.0554  1.4987
 6028TIP3   OH239718   6.325   2.710   2.524 -0.4246 -0.0296  0.6737
 6028TIP3    H139719   6.370   2.749   2.449 -1.3854  2.0358  1.0857
 6028TIP3    H239720   6.395   2.675   2.579  0.3371 -0.9094 -0.7806
 6029TIP3   OH239721   1.967   0.992   0.552  0.5375  0.1406  0.3196
 6029TIP3    H139722   2.045   0.941   0.574  2.1511  2.0318 -0.6790
 6029TIP3    H239723   1.974   1.070   0.607  0.6340  1.4133 -1.4312
 6030TIP3   OH239724   2.496   1.657   0.179  0.4031 -0.1148 -0.2485
 6030TIP3    H139725   2.420   1.663   0.237 -0.1118 -1.0189 -0.8074
 6030TIP3    H239726   2.494   1.738   0.128 -0.1060 -0.0652 -0.1507
 6031TIP3   OH239727   2.166   3.453   0.140  0.0784 -0.2716 -0.2527
 6031TIP3    H139728   2.094   3.509   0.108  0.5990  0.7310  0.2818
 6031TIP3    H239729   2.190   3.400   0.064 -1.3267 -0.7558 -0.3996
 6032TIP3   OH239730   4.274   6.634   7.076  0.1477 -0.2794  0.9862
 6032TIP3    H139731   4.337   6.670   7.139 -0.0257 -1.5726  1.9359
 6032TIP3    H239732   4.329   6.594   7.008  0.3515 -0.2041  1.1037
 6033TIP3   OH239733   3.388   5.234   1.635  0.1562  0.1258 -0.0868
 6033TIP3    H139734   3.406   5.328   1.624  0.5586 -0.1767 -2.7867
 6033TIP3    H239735   3.295   5.229   1.654 -0.3529  1.0207 -2.1164
 6034TIP3   OH239736   0.590   4.461   1.285  0.1893  1.0534  0.6974
 6034TIP3    H139737   0.604   4.478   1.192 -1.1896  2.5247  0.7155
 6034TIP3    H239738   0.650   4.521   1.330 -0.5796  1.8009  0.7458
 6035TIP3   OH239739   0.385   3.238   8.154  0.4087  0.2750 -1.0969
 6035TIP3    H139740   0.370   3.300   8.083 -0.3022  0.2132 -1.0070
 6035TIP3    H239741   0.380   3.152   8.112 -0.9633  0.2038 -0.8209
 6036TIP3   OH239742   3.961   3.033   0.106 -0.4613  0.6184 -0.1296
 6036TIP3    H139743   3.908   3.034   0.186  0.9393  1.6236  0.8183
 6036TIP3    H239744   4.046   3.001   0.135 -0.0613  0.5760 -1.3266
 6037TIP3   OH239745   4.802   2.117   1.145 -0.4092  0.6598 -0.2704
 6037TIP3    H139746   4.763   2.180   1.084 -0.2941  0.5726 -0.4346
 6037TIP3    H239747   4.884   2.091   1.103 -1.1560 -0.7372 -0.9179
 6038TIP3   OH239748   0.657   2.188   7.696  0.6586 -1.0409  0.7354
 6038TIP3    H139749   0.740   2.229   7.720  1.1663 -0.2272 -2.0925
 6038TIP3    H239750   0.682   2.113   7.641 -0.4546 -0.5929 -0.4250
 6039TIP3   OH239751   4.658   4.157   7.718 -0.0427  0.0365 -0.2195
 6039TIP3    H139752   4.677   4.244   7.683  1.6259  0.0486  0.6352
 6039TIP3    H239753   4.636   4.172   7.810 -0.6302 -0.3629 -0.2913
 6040TIP3   OH239754   3.366   3.628   1.380  0.1592 -0.3990  0.1266
 6040TIP3    H139755   3.399   3.587   1.460  0.6157  0.2991  0.3006
 6040TIP3    H239756   3.442   3.674   1.344  0.2486 -1.5975 -1.2886
 6041TIP3   OH239757   6.790   5.222   0.386  0.0884 -0.4567 -0.1986
 6041TIP3    H139758   6.782   5.309   0.345 -0.8045 -0.4712 -0.0748
 6041TIP3    H239759   6.704   5.182   0.374  0.2485 -1.0135  0.4620
 6042TIP3   OH239760   5.672   0.330   1.857  0.2439  0.0668  0.1248
 6042TIP3    H139761   5.706   0.376   1.780 -0.4983  1.4583  0.5753
 6042TIP3    H239762   5.698   0.239   1.845 -0.2696  0.1447 -2.0074
 6043TIP3   OH239763   5.190   5.194   7.981  0.1810  0.4023  0.6127
 6043TIP3    H139764   5.231   5.197   7.894  1.5015 -0.4784  1.1692
 6043TIP3    H239765   5.169   5.101   7.994  0.2679  0.4832  1.3577
 6044TIP3   OH239766   3.253   0.597   0.322  0.0794  0.1971  0.0805
 6044TIP3    H139767   3.227   0.678   0.278  0.6845 -0.1782 -1.0008
 6044TIP3    H239768   3.209   0.601   0.407 -2.0459  0.4062 -0.9642
 6045TIP3   OH239769   3.148   1.684   7.837  0.2231  0.0348  0.4594
 6045TIP3    H139770   3.181   1.594   7.841 -0.2530 -0.2403 -1.1846
 6045TIP3    H239771   3.193   1.723   7.762 -1.0301  0.5440 -0.0551
 6046TIP3   OH239772   4.642   5.551   2.238  0.0101  0.0298 -0.7180
 6046TIP3    H139773   4.692   5.567   2.158  0.6570 -1.0672 -0.5632
 6046TIP3    H239774   4.697   5.586   2.308 -0.4310  0.7433 -0.7176
 6047TIP3   OH239775   3.983   4.747   0.988 -0.7432 -0.2878  0.2022
 6047TIP3    H139776   4.026   4.675   1.035 -0.8849 -1.6995 -1.7203
 6047TIP3    H239777   4.055   4.790   0.941 -0.5287  1.4149  1.9709
 6048TIP3   OH239778   6.684   1.265   1.090 -0.5408  0.1047 -0.0538
 6048TIP3    H139779   6.738   1.186   1.083  0.1176  0.1137  3.2081
 6048TIP3    H239780   6.612   1.251   1.028 -1.0631 -3.6342  1.1684
 6049TIP3   OH239781   1.147   4.509   2.249  0.4274  0.2314  0.0178
 6049TIP3    H139782   1.185   4.579   2.300 -2.6246  0.5710  2.1090
 6049TIP3    H239783   1.207   4.436   2.258  1.3972  1.1946  1.6783
 6050TIP3   OH239784   1.528   1.855   7.989 -0.5682  1.0234  0.5715
 6050TIP3    H139785   1.436   1.835   8.004 -0.2575  0.4283  1.7895
 6050TIP3    H239786   1.537   1.857   7.893 -1.3317 -1.5361  0.3729
 6051TIP3   OH239787   1.030   1.855   1.407  0.5275  0.4305 -0.1977
 6051TIP3    H139788   0.940   1.886   1.400 -0.1042 -0.8585  1.6584
 6051TIP3    H239789   1.042   1.833   1.499  2.2695 -0.8238 -0.6552
 6052TIP3   OH239790   2.023   2.193   7.447  0.1514 -0.5605  0.3895
 6052TIP3    H139791   2.032   2.099   7.432 -1.4872 -0.4623 -1.6516
 6052TIP3    H239792   1.963   2.199   7.521  1.0815 -1.0966  1.2106
 6053TIP3   OH239793   2.642   4.148   7.208  0.2483 -0.3472  0.8626
 6053TIP3    H139794   2.725   4.194   7.199  1.1501 -1.1847  3.7503
 6053TIP3    H239795   2.644   4.081   7.140  1.3928  0.3818  0.1451
 6054TIP3   OH239796   6.769   3.500   1.893 -0.4059 -0.1733 -0.3345
 6054TIP3    H139797   6.789   3.561   1.964 -1.8261  0.6584 -0.6037
 6054TIP3    H239798   6.853   3.462   1.869  0.4612  1.3437  0.1497
 6055TIP3   OH239799   0.899   4.987   8.001 -0.3103 -0.3219 -0.2411
 6055TIP3    H139800   0.841   4.933   8.055  0.3233 -0.6502  0.1163
 6055TIP3    H239801   0.877   5.077   8.026  0.1985 -0.4720  0.8214
 6056TIP3   OH239802   6.106   5.308   1.843  0.5337  0.9235 -0.2570
 6056TIP3    H139803   6.030   5.299   1.900  0.5754  1.4434 -0.1101
 6056TIP3    H239804   6.079   5.266   1.761  0.2800  0.6454 -0.0356
 6057TIP3   OH239805   3.007   3.954   8.048  0.5043 -0.1229  0.2460
 6057TIP3    H139806   3.011   3.891   7.976 -0.8759 -1.2422  1.0888
 6057TIP3    H239807   3.022   3.902   8.126  0.6615  0.8406  0.8762
 6058TIP3   OH239808   0.852   3.134   0.761 -0.1621 -0.0580  0.1693
 6058TIP3    H139809   0.890   3.163   0.844 -1.4558 -1.3634  1.2711
 6058TIP3    H239810   0.765   3.175   0.759  0.1611  0.6192 -0.9624
 6059TIP3   OH239811   5.186   2.166   8.428  0.1525  0.1469  0.0724
 6059TIP3    H139812   5.232   2.212   8.498  2.1286 -0.5378 -0.6896
 6059TIP3    H239813   5.102   2.141   8.466 -0.6681  3.4823  0.8143
 6060TIP3   OH239814   1.895   5.628   1.757 -0.2434  0.5564 -0.1833
 6060TIP3    H139815   1.934   5.611   1.843 -0.4428 -1.0822 -0.3854
 6060TIP3    H239816   1.922   5.554   1.703 -0.4772  1.3421 -1.4273
 6061TIP3   OH239817   4.642   0.490   7.589 -0.3237  0.0367  0.7383
 6061TIP3    H139818   4.551   0.494   7.617  0.0358 -0.4976  2.0408
 6061TIP3    H239819   4.687   0.445   7.660  0.6844 -1.1734 -0.6200
 6062TIP3   OH239820   3.689   4.836   1.463  0.3383  0.1294  1.0097
 6062TIP3    H139821   3.699   4.753   1.417 -0.6435 -0.0194  1.0380
 6062TIP3    H239822   3.745   4.897   1.415 -0.8693  0.0511 -0.5881
 6063TIP3   OH239823   2.333   2.272   1.202  0.0763 -0.0437 -0.0922
 6063TIP3    H139824   2.376   2.340   1.150 -2.0491  1.7055  0.2729
 6063TIP3    H239825   2.405   2.224   1.243  1.7008  1.7684 -0.6306
 6064TIP3   OH239826   6.110   4.846   7.628  0.0553 -0.2778 -0.7741
 6064TIP3    H139827   6.168   4.903   7.679 -0.2171  0.2979 -1.0963
 6064TIP3    H239828   6.169   4.796   7.572  0.3118 -0.4684 -0.3371
 6065TIP3   OH239829   0.081   5.617   0.597 -0.6272 -0.3881  0.8111
 6065TIP3    H139830   0.099   5.564   0.519 -1.2991 -0.9175  1.0002
 6065TIP3    H239831   0.167   5.635   0.635 -0.2369  0.4960 -0.4477
 6066TIP3   OH239832   5.323   3.202   8.169  0.0914  0.0925 -0.0776
 6066TIP3    H139833   5.341   3.255   8.247 -0.2876 -0.6211  0.5099
 6066TIP3    H239834   5.290   3.265   8.105  0.5151  0.7100  0.2947
 6067TIP3   OH239835   0.154   3.049   1.016 -0.1869 -0.0808  0.1522
 6067TIP3    H139836   0.100   2.996   0.958 -1.3608  2.2308 -0.9845
 6067TIP3    H239837   0.100   3.064   1.093  1.0878 -2.5142  1.6173
 6068TIP3   OH239838   3.582   4.292   7.190 -0.3218  0.1623  0.2660
 6068TIP3    H139839   3.659   4.249   7.227 -0.4044 -0.8462 -0.6892
 6068TIP3    H239840   3.615   4.372   7.151  0.1495  0.0273  0.3781
 6069TIP3   OH239841   1.609   4.990   0.354 -0.5778  0.3147  0.8092
 6069TIP3    H139842   1.575   4.900   0.358 -0.7977  0.3439 -0.0685
 6069TIP3    H239843   1.536   5.042   0.320 -0.1810  0.6655  0.4744
 6070TIP3   OH239844   5.489   5.053   1.003 -0.0448 -0.2198  0.0120
 6070TIP3    H139845   5.563   5.043   0.944  1.5085 -0.0033  1.8398
 6070TIP3    H239846   5.513   5.004   1.081 -1.0764  1.2052  1.3005
 6071TIP3   OH239847   4.810   3.537   1.865  0.3408  0.1719 -0.1125
 6071TIP3    H139848   4.792   3.616   1.813  1.8027  0.5494 -0.0867
 6071TIP3    H239849   4.751   3.471   1.829  0.0152  0.9272 -1.0148
 6072TIP3   OH239850   3.146   6.423   1.658  1.0530  0.3003  0.1275
 6072TIP3    H139851   3.176   6.436   1.568 -0.4883 -1.1724 -0.6535
 6072TIP3    H239852   3.141   6.328   1.668  0.7485  0.4577  1.6118
 6073TIP3   OH239853   3.996   5.754   1.537 -0.3232  0.2039 -0.3851
 6073TIP3    H139854   4.081   5.760   1.492 -0.1829 -2.7377 -0.7316
 6073TIP3    H239855   3.933   5.790   1.475  0.0973 -2.2368 -2.3917
 6074TIP3   OH239856   1.692   4.468   8.386 -0.2987 -0.2443 -0.0225
 6074TIP3    H139857   1.705   4.414   8.463  1.7651 -0.6843 -0.6137
 6074TIP3    H239858   1.736   4.420   8.315  0.6656  1.6328 -0.7877
 6075TIP3   OH239859   3.058   5.189   0.450  0.3836  0.3589 -0.1219
 6075TIP3    H139860   3.131   5.134   0.422 -0.3150 -1.1152  0.8154
 6075TIP3    H239861   3.038   5.159   0.539 -1.0664  1.0178 -0.1909
 6076TIP3   OH239862   0.360   6.828   1.068  0.2527  0.0328  0.1641
 6076TIP3    H139863   0.428   6.887   1.037 -1.2516  1.0877 -1.3062
 6076TIP3    H239864   0.314   6.801   0.988 -0.7212 -1.0715  1.0598
 6077TIP3   OH239865   4.800   1.634   1.740  0.3090 -0.7156  0.2282
 6077TIP3    H139866   4.792   1.639   1.645  0.7274 -0.7506  0.1898
 6077TIP3    H239867   4.725   1.582   1.768  0.0755 -0.5361 -0.0648
 6078TIP3   OH239868   2.318   5.158   8.326  0.0062  0.0781 -0.3553
 6078TIP3    H139869   2.261   5.110   8.267 -0.2269 -0.8729  0.6150
 6078TIP3    H239870   2.272   5.241   8.341 -1.4332 -0.8856  0.8395
 6079TIP3   OH239871   6.495   5.114   0.300 -0.3309  0.5407  0.3809
 6079TIP3    H139872   6.488   5.168   0.221  0.8942  0.8290  0.4430
 6079TIP3    H239873   6.417   5.059   0.299 -0.4339  0.6899 -0.9228
 6080TIP3   OH239874   4.450   6.089   1.635  0.1092  0.4083 -0.2122
 6080TIP3    H139875   4.482   6.017   1.689  2.3770 -1.1996 -3.3904
 6080TIP3    H239876   4.523   6.150   1.630 -0.1095  0.5939 -1.3307
 6081TIP3   OH239877   1.714   4.914   7.487 -0.5145 -0.0957 -0.7680
 6081TIP3    H139878   1.781   4.848   7.505  0.9378  1.7064  0.8874
 6081TIP3    H239879   1.640   4.890   7.543  0.4758  0.3284  0.7713
 6082TIP3   OH239880   2.166   4.048   0.107 -0.8671 -0.8044  0.2613
 6082TIP3    H139881   2.253   4.007   0.106 -0.2951  0.3531  0.3805
 6082TIP3    H239882   2.158   4.088   0.020 -0.8671 -0.0880  0.5848
 6083TIP3   OH239883   6.066   1.716   0.773  0.0459 -0.1069 -0.2272
 6083TIP3    H139884   6.051   1.791   0.715 -1.0162 -0.7762 -0.8490
 6083TIP3    H239885   6.052   1.639   0.717  1.5908 -0.7943  0.2769
 6084TIP3   OH239886   5.512   0.011   7.331  0.1069 -0.3250  0.1208
 6084TIP3    H139887   5.567  -0.009   7.407  0.2930 -1.3470 -0.2616
 6084TIP3    H239888   5.524  -0.064   7.272  1.2265  1.1448 -1.6473
 6085TIP3   OH239889   2.368   1.430   6.937  0.7404 -0.0027 -0.5086
 6085TIP3    H139890   2.393   1.469   6.854  0.5089  0.6098 -0.2903
 6085TIP3    H239891   2.305   1.491   6.975  0.8807 -0.2518  0.1387
 6086TIP3   OH239892   1.730   0.194   8.089 -0.1076  0.6963 -0.5283
 6086TIP3    H139893   1.713   0.151   8.172 -1.5893  0.5713 -0.8783
 6086TIP3    H239894   1.746   0.122   8.027  1.8514  0.8007 -0.2222
 6087TIP3   OH239895   2.308   0.431   6.906  0.2302 -1.0059 -0.3644
 6087TIP3    H139896   2.302   0.356   6.845  1.3904 -0.2289 -1.4755
 6087TIP3    H239897   2.369   0.491   6.864 -1.7123  1.2383 -0.1902
 6088TIP3   OH239898   0.864   6.200   0.813 -0.0827 -0.3386 -0.2221
 6088TIP3    H139899   0.941   6.217   0.867 -0.2128 -0.7698  0.1084
 6088TIP3    H239900   0.808   6.145   0.868 -0.4683 -0.3216 -0.5907
 6089TIP3   OH239901   0.582   0.032   0.985  0.4160 -0.6021  0.3497
 6089TIP3    H139902   0.609   0.010   0.896 -0.8615 -0.5571 -0.0720
 6089TIP3    H239903   0.663   0.059   1.029  0.9945 -0.1800 -0.9268
 6090TIP3   OH239904   4.200   1.206   8.437  0.6662 -0.9863 -0.3239
 6090TIP3    H139905   4.168   1.124   8.399 -0.4148 -0.9664  0.5077
 6090TIP3    H239906   4.258   1.178   8.508 -1.0636 -1.0965  1.1198
 6091TIP3   OH239907   5.965   0.735   1.208  0.6950 -0.3334 -0.1841
 6091TIP3    H139908   6.040   0.714   1.263  0.8326 -2.0091 -0.9413
 6091TIP3    H239909   5.991   0.813   1.159  2.4194 -1.5091 -1.2592
 6092TIP3   OH239910   0.226   4.961   7.730 -0.5307 -0.5852  0.5360
 6092TIP3    H139911   0.244   5.031   7.793 -1.2855  0.7635 -0.6610
 6092TIP3    H239912   0.277   4.887   7.760 -1.1707 -0.1380  2.9546
 6093TIP3   OH239913   2.800   5.777   0.958 -0.0961 -0.2015 -0.3869
 6093TIP3    H139914   2.746   5.853   0.978  1.2004  0.4011  0.9176
 6093TIP3    H239915   2.885   5.813   0.932 -0.4314 -1.1088 -3.0672
 6094TIP3   OH239916   5.602   2.427   7.485  0.1116 -0.6365 -0.1398
 6094TIP3    H139917   5.616   2.428   7.390  1.0789 -1.3943 -0.0219
 6094TIP3    H239918   5.689   2.413   7.522 -0.1674  0.2205  0.8913
 6095TIP3   OH239919   6.311   3.182   1.690 -0.2350  0.1658 -0.4239
 6095TIP3    H139920   6.290   3.275   1.695  0.7296  0.3632  0.0552
 6095TIP3    H239921   6.406   3.177   1.699 -0.4837 -1.0551  2.4274
 6096TIP3   OH239922   6.150   3.934   7.309 -0.3150  0.5004  0.4661
 6096TIP3    H139923   6.058   3.954   7.292 -0.5335 -0.7794  0.0144
 6096TIP3    H239924   6.184   3.905   7.224  0.1686 -0.2242  0.8999
 6097TIP3   OH239925   2.500   3.777   7.522  0.5125 -0.1128  0.4585
 6097TIP3    H139926   2.494   3.804   7.430  1.8343  1.1781  0.7207
 6097TIP3    H239927   2.474   3.854   7.572 -0.3882 -0.8728  1.1946
 6098TIP3   OH239928   5.898   0.121   2.179  0.1298 -0.1632 -0.6444
 6098TIP3    H139929   5.818   0.069   2.187  0.2800 -0.4199 -0.8043
 6098TIP3    H239930   5.938   0.117   2.266  0.0810 -0.2157 -0.6245
 6099TIP3   OH239931   0.667   1.958   8.009 -0.0513 -0.5453  0.3062
 6099TIP3    H139932   0.744   1.997   7.968  0.5567 -0.4884  1.4693
 6099TIP3    H239933   0.647   1.881   7.954 -0.6641  0.7829 -1.4249
 6100TIP3   OH239934   3.403   6.202   1.399  0.3646  0.3360  0.3013
 6100TIP3    H139935   3.385   6.159   1.315 -2.4961  0.3693  0.8014
 6100TIP3    H239936   3.419   6.129   1.460 -0.7181  0.1168  0.3505
 6101TIP3   OH239937   2.379   1.576   0.836 -0.5074  0.1628 -0.4697
 6101TIP3    H139938   2.373   1.588   0.741  0.5707 -0.9291 -0.6975
 6101TIP3    H239939   2.465   1.610   0.860 -1.1026  1.2258  0.2795
 6102TIP3   OH239940   3.118   5.513   8.526  0.1138  0.0927  0.1194
 6102TIP3    H139941   3.201   5.470   8.503  0.0009  0.4077 -0.9245
 6102TIP3    H239942   3.051   5.457   8.487 -0.1226  0.2781  0.2598
 6103TIP3   OH239943   5.962   6.067   2.201 -0.0506 -0.8203 -0.1575
 6103TIP3    H139944   5.936   6.086   2.291 -0.8576  0.6172 -0.6457
 6103TIP3    H239945   6.057   6.067   2.202  0.0559  2.1752  0.2299
 6104TIP3   OH239946   2.037   0.375   7.619  0.0560 -0.2110 -0.1558
 6104TIP3    H139947   2.048   0.288   7.656  1.1456 -1.2937 -2.7549
 6104TIP3    H239948   2.105   0.382   7.553 -1.0459  1.9700 -1.1833
 6105TIP3   OH239949   1.764   4.603   8.001 -0.2479  0.4868  0.8096
 6105TIP3    H139950   1.732   4.646   8.081  0.1418  1.4850  0.4379
 6105TIP3    H239951   1.756   4.670   7.933  1.1516  0.2479  0.3867
 6106TIP3   OH239952   1.511   4.090   1.190 -0.1713 -0.0633 -0.2071
 6106TIP3    H139953   1.572   4.117   1.122  0.3159  0.3033  0.3652
 6106TIP3    H239954   1.451   4.165   1.200  0.0608  0.0862  0.1025
 6107TIP3   OH239955   6.219   3.795   7.530 -1.6271  0.2223 -0.6842
 6107TIP3    H139956   6.205   3.844   7.449  0.8540  0.2991 -1.1470
 6107TIP3    H239957   6.297   3.742   7.512 -2.8664 -2.1803  0.5962
 6108TIP3   OH239958   2.104   0.355   2.139 -0.0809 -0.1540 -0.2449
 6108TIP3    H139959   2.098   0.310   2.223  1.1605 -1.0217 -0.5951
 6108TIP3    H239960   2.195   0.343   2.112 -0.7393 -0.9607 -2.2914
 6109TIP3   OH239961   6.244   2.448   1.072 -0.0701 -0.4038 -0.5533
 6109TIP3    H139962   6.313   2.483   1.015 -0.6468  1.9046  0.0656
 6109TIP3    H239963   6.174   2.422   1.012 -0.4342  1.4472 -0.9809
 6110TIP3   OH239964   0.608   3.545   0.467 -0.3491 -0.1366 -0.0818
 6110TIP3    H139965   0.608   3.605   0.392 -1.9078 -1.9627 -1.6425
 6110TIP3    H239966   0.604   3.458   0.428 -0.2888 -1.1993  2.1484
 6111TIP3   OH239967   3.231   3.218   8.470  0.0408 -0.1564 -0.1065
 6111TIP3    H139968   3.231   3.163   8.392  2.3997 -0.0852 -0.2178
 6111TIP3    H239969   3.320   3.252   8.476 -0.7187  1.7938  1.2710
 6112TIP3   OH239970   0.331   3.400   7.914  0.3298  0.1998  0.2586
 6112TIP3    H139971   0.338   3.351   7.832 -1.9384  1.2369 -0.6255
 6112TIP3    H239972   0.407   3.459   7.913  0.2481  0.3232 -1.1898
 6113TIP3   OH239973   5.164   5.662   1.096  0.0110  0.0074  0.1380
 6113TIP3    H139974   5.200   5.573   1.092 -0.3583 -0.1261 -0.5683
 6113TIP3    H239975   5.081   5.652   1.142 -0.3266 -0.1317 -0.4835
 6114TIP3   OH239976   0.552   6.158   8.524  0.1721  0.5677  0.2527
 6114TIP3    H139977   0.631   6.105   8.531 -0.7832 -0.8040  1.2774
 6114TIP3    H239978   0.573   6.240   8.570  1.5038  0.9049 -0.9008
 6115TIP3   OH239979   3.315   4.695   1.057 -0.1658 -0.0558 -0.4876
 6115TIP3    H139980   3.293   4.633   1.127  0.6891  0.4431  0.2449
 6115TIP3    H239981   3.411   4.695   1.055 -0.1283  1.8215  0.0563
 6116TIP3   OH239982   6.734   1.156   7.746 -0.1571  0.2975 -0.5827
 6116TIP3    H139983   6.747   1.067   7.778 -2.2130  0.2359  0.2789
 6116TIP3    H239984   6.760   1.153   7.655 -1.3911 -1.5711 -0.9421
 6117TIP3   OH239985   6.844   3.154   0.583  0.0502 -0.2604  0.5432
 6117TIP3    H139986   6.913   3.185   0.640  0.3991 -0.7319  0.3908
 6117TIP3    H239987   6.853   3.058   0.584 -2.0295 -0.5063  2.3207
 6118TIP3   OH239988   1.468   3.920   7.563  0.3157 -0.3222 -0.1417
 6118TIP3    H139989   1.469   3.997   7.506 -0.4439 -0.1273  0.0995
 6118TIP3    H239990   1.433   3.850   7.508 -0.6968 -0.0657  0.1535
 6119TIP3   OH239991   2.800   3.712   7.553 -0.1115  0.3421  0.0555
 6119TIP3    H139992   2.833   3.753   7.473 -1.3979  1.4332  0.0494
 6119TIP3    H239993   2.705   3.717   7.545 -0.2842 -1.4422  0.7064
 6120TIP3   OH239994   5.768   3.375   8.039  0.3902  0.0353  0.1218
 6120TIP3    H139995   5.795   3.402   8.126  0.5374 -0.7402  0.3241
 6120TIP3    H239996   5.719   3.450   8.004 -0.6941 -0.0751  1.3333
 6121TIP3   OH239997   6.375   3.157   7.932 -0.4798  0.0777  0.1763
 6121TIP3    H139998   6.466   3.140   7.907 -0.3122 -1.1571  1.4900
 6121TIP3    H239999   6.336   3.070   7.938 -2.4813  0.6544 -2.7985
 6122TIP3   OH240000   1.406   6.404   7.045  0.2328 -0.0724 -0.2784
 6122TIP3    H140001   1.468   6.448   7.102 -0.5220 -1.0559  1.3659
 6122TIP3    H240002   1.450   6.323   7.018  0.1269 -0.1803 -0.1248
 6123TIP3   OH240003   2.662   6.141   2.523 -0.0404 -0.2707  0.1737
 6123TIP3    H140004   2.609   6.063   2.538  1.3265 -1.5853 -1.4833
 6123TIP3    H240005   2.703   6.159   2.607 -2.4701  0.3641  1.3117
 6124TIP3   OH240006   2.619   2.189   8.228  0.8075  0.3102  0.2034
 6124TIP3    H140007   2.584   2.125   8.290  0.7568 -0.5049 -0.6342
 6124TIP3    H240008   2.651   2.136   8.155  1.0817  1.2302 -0.3585
 6125TIP3   OH240009   4.209   3.153   2.710 -0.0181  0.7039  0.2510
 6125TIP3    H140010   4.138   3.104   2.751 -0.6746  1.8842  0.5532
 6125TIP3    H240011   4.288   3.117   2.749 -0.3806 -0.9964 -0.4750
 6126TIP3   OH240012   1.340   3.281   7.537  0.1339  0.2599 -0.8891
 6126TIP3    H140013   1.399   3.353   7.517  0.5350 -0.0680 -0.9084
 6126TIP3    H240014   1.392   3.202   7.517  0.2358 -0.0602  0.5576
 6127TIP3   OH240015   2.679   0.068   1.147 -0.2519 -0.1036 -0.3315
 6127TIP3    H140016   2.775   0.062   1.154 -0.4371 -1.8526  2.6083
 6127TIP3    H240017   2.664   0.140   1.086  2.9158 -0.0857 -1.2995
 6128TIP3   OH240018   5.713   5.127   8.100 -0.4153  0.3684  0.1568
 6128TIP3    H140019   5.644   5.189   8.123 -1.3334 -0.2959 -0.7118
 6128TIP3    H240020   5.767   5.172   8.035 -1.5924 -0.0257 -1.1279
 6129TIP3   OH240021   3.965   6.932   7.613 -0.2773  0.4235  0.3053
 6129TIP3    H140022   3.892   6.976   7.570  1.3254  2.3880 -0.5808
 6129TIP3    H240023   3.929   6.902   7.697 -2.7662 -1.1570 -1.2073
 6130TIP3   OH240024   6.114   2.610   7.361  0.0117 -0.4081 -0.6613
 6130TIP3    H140025   6.169   2.683   7.333 -1.6441  1.1401 -0.0397
 6130TIP3    H240026   6.094   2.562   7.281 -0.9047  1.3003 -1.5097
 6131TIP3   OH240027   1.824   5.586   0.319  0.0692  0.0889  0.4464
 6131TIP3    H140028   1.881   5.509   0.313 -0.0187  0.1033 -0.6201
 6131TIP3    H240029   1.884   5.657   0.345  0.3180 -0.1370  0.4981
 6132TIP3   OH240030   4.780   6.562   2.008 -0.4110  0.3429  0.1108
 6132TIP3    H140031   4.785   6.656   1.991  2.2607  0.2076 -0.3025
 6132TIP3    H240032   4.704   6.552   2.066 -1.3010  2.6085 -0.5365
 6133TIP3   OH240033   3.388   1.754   0.950 -0.3775 -0.4080  0.1954
 6133TIP3    H140034   3.464   1.696   0.943 -1.4126 -1.6308 -2.2033
 6133TIP3    H240035   3.425   1.842   0.952  1.2100 -1.0167  3.0954
 6134TIP3   OH240036   4.002   5.396   1.987  0.3052 -0.3508 -0.0772
 6134TIP3    H140037   3.961   5.482   1.975  0.8196 -0.3034 -1.8315
 6134TIP3    H240038   4.064   5.408   2.058 -2.0651 -0.2108  2.1024
 6135TIP3   OH240039   1.382   4.685   8.057  0.1764 -0.0933  0.1522
 6135TIP3    H140040   1.341   4.757   8.010 -0.3281  0.5986  1.5915
 6135TIP3    H240041   1.370   4.609   8.000  0.4873  0.8925 -1.2662
 6136TIP3   OH240042   2.292   4.159   1.037 -0.4260  0.0532 -0.0916
 6136TIP3    H140043   2.289   4.063   1.041 -0.8088  0.0906  0.7617
 6136TIP3    H240044   2.378   4.179   1.000 -0.0272 -0.6067  0.4491
 6137TIP3   OH240045   1.912   1.060   8.236 -0.7290 -0.5716  0.3472
 6137TIP3    H140046   1.976   0.995   8.208 -1.1148 -0.4656 -0.8350
 6137TIP3    H240047   1.860   1.015   8.303 -0.3785 -1.1579  0.2258
 6138TIP3   OH240048   3.096   1.690   1.835  0.3378 -0.0399 -0.1200
 6138TIP3    H140049   3.040   1.628   1.789  1.7987 -0.2168 -1.8053
 6138TIP3    H240050   3.069   1.776   1.802  0.1162 -0.0107  0.1401
 6139TIP3   OH240051   6.481   4.019   0.762  0.1109 -0.0858 -0.5248
 6139TIP3    H140052   6.395   3.978   0.755 -0.3774  0.5507  1.0476
 6139TIP3    H240053   6.463   4.113   0.755  0.6684  0.0552 -0.1493
 6140TIP3   OH240054   3.122   5.393   2.444  0.1071  0.0421 -0.1533
 6140TIP3    H140055   3.138   5.299   2.447 -0.1985 -0.0831 -1.7326
 6140TIP3    H240056   3.192   5.432   2.497  0.0052 -1.0910  0.8298
 6141TIP3   OH240057   4.420   4.561   0.746  0.5787  0.6096 -0.3304
 6141TIP3    H140058   4.433   4.641   0.695  1.1167  0.2766 -0.7254
 6141TIP3    H240059   4.496   4.558   0.805  0.2615  0.6863  0.0897
 6142TIP3   OH240060   2.932   0.000   7.571 -0.2874 -0.1493 -0.3654
 6142TIP3    H140061   2.967  -0.038   7.652  0.3735  2.8920  0.9230
 6142TIP3    H240062   3.007   0.002   7.511  0.8117  2.5056  0.9375
 6143TIP3   OH240063   5.742   0.606   8.283 -0.0060  0.4929  0.5421
 6143TIP3    H140064   5.757   0.535   8.221 -0.1098  0.5865  0.4104
 6143TIP3    H240065   5.713   0.680   8.229  1.8452  1.2004  0.4615
 6144TIP3   OH240066   4.341   2.412   1.521 -0.0027 -0.0456 -0.2856
 6144TIP3    H140067   4.320   2.320   1.536  0.1037  0.0410  0.4012
 6144TIP3    H240068   4.435   2.418   1.537 -0.0528  0.2309 -0.0907
 6145TIP3   OH240069   6.905   5.130   8.475  0.1715 -0.1299  0.1745
 6145TIP3    H140070   6.833   5.069   8.493 -0.0813  0.2708  0.5439
 6145TIP3    H240071   6.862   5.208   8.439  0.5320 -0.3274 -0.6956
 6146TIP3   OH240072   1.398   2.564   7.449  0.1517  0.0350 -0.4272
 6146TIP3    H140073   1.414   2.648   7.492 -1.6916 -0.7650  2.0942
 6146TIP3    H240074   1.484   2.526   7.435  0.8920  0.7776  1.8131
 6147TIP3   OH240075   2.110   5.525   1.583 -0.2180 -0.1962  0.3665
 6147TIP3    H140076   2.120   5.494   1.493 -0.0521  0.2669  0.2228
 6147TIP3    H240077   2.136   5.617   1.580 -2.2372  0.4153  0.4752
 6148TIP3   OH240078   2.060   0.652   7.464 -0.4974  0.1192  0.1286
 6148TIP3    H140079   2.125   0.589   7.497  1.1905  2.5635  1.8064
 6148TIP3    H240080   1.991   0.651   7.530 -0.3708  0.1876  0.2624
 6149TIP3   OH240081   1.202   4.981   1.545 -0.7537  0.6145 -0.1076
 6149TIP3    H140082   1.293   4.949   1.540 -1.2906 -0.8325 -1.8348
 6149TIP3    H240083   1.205   5.052   1.609  2.0526  2.0862 -1.6722
 6150TIP3   OH240084   1.820   0.070   6.585 -0.4962 -0.2522  0.2878
 6150TIP3    H140085   1.875   0.038   6.657 -2.3631  0.3294  2.0786
 6150TIP3    H240086   1.855   0.157   6.566 -0.0484 -0.3674  0.5618
 6151TIP3   OH240087   1.410   6.825   1.399 -0.3906  0.3821  0.2699
 6151TIP3    H140088   1.363   6.752   1.439 -1.7879  1.0130 -0.1753
 6151TIP3    H240089   1.394   6.899   1.458  0.8642  0.4059  0.6187
 6152TIP3   OH240090   2.265   2.002   0.092 -0.3924 -0.1980 -0.1742
 6152TIP3    H140091   2.307   1.975   0.010  1.0726  2.5644 -0.4600
 6152TIP3    H240092   2.230   2.089   0.073  0.3100  0.6737  2.2227
 6153TIP3   OH240093   1.999   5.688   7.699  0.5341  0.1932  0.3859
 6153TIP3    H140094   1.937   5.729   7.640 -0.2213 -2.7890 -1.0603
 6153TIP3    H240095   2.069   5.655   7.642 -0.1575 -2.6547  1.0272
 6154TIP3   OH240096   3.684   1.579   7.813  0.7641  0.0990 -0.4241
 6154TIP3    H140097   3.677   1.511   7.879  0.1426 -0.5316 -1.1274
 6154TIP3    H240098   3.653   1.539   7.732 -0.9962  1.6206 -0.5690
 6155TIP3   OH240099   0.604   3.614   1.971 -0.1162  0.2387  0.7446
 6155TIP3    H140100   0.612   3.693   2.024  1.1219  2.0725 -1.9598
 6155TIP3    H240101   0.688   3.605   1.928 -1.4367 -0.2903 -1.9337
 6156TIP3   OH240102   1.871   1.412   1.606  0.1130 -0.6298 -0.1516
 6156TIP3    H140103   1.799   1.398   1.544  1.0644 -1.4031 -1.1197
 6156TIP3    H240104   1.887   1.325   1.643  1.3060 -0.7132 -0.8253
 6157TIP3   OH240105   1.810   3.497   7.798  0.3920  0.9767  0.0465
 6157TIP3    H140106   1.758   3.571   7.830 -0.8813  0.0118  0.2888
 6157TIP3    H240107   1.882   3.538   7.750 -0.4225  2.3662 -0.0522
 6158TIP3   OH240108   0.239   4.583   7.666  0.0941 -0.1856 -0.3797
 6158TIP3    H140109   0.197   4.629   7.594 -0.0493 -0.0496 -0.2083
 6158TIP3    H240110   0.196   4.497   7.668  1.1006 -0.7510 -1.3944
 6159TIP3   OH240111   0.080   2.691   1.799  0.9005 -0.3611 -0.1416
 6159TIP3    H140112   0.152   2.656   1.747 -1.3715 -1.0067 -3.1161
 6159TIP3    H240113   0.108   2.781   1.821  3.1696 -1.0734  0.1602
 6160TIP3   OH240114   5.423   2.427   8.360  0.0963  0.1585  0.1202
 6160TIP3    H140115   5.428   2.353   8.422  0.1407 -0.4555 -0.6052
 6160TIP3    H240116   5.338   2.466   8.378 -0.1956 -0.4474  0.0951
 6161TIP3   OH240117   4.800   3.289   8.262  0.1586 -0.7069 -0.2492
 6161TIP3    H140118   4.802   3.269   8.356  2.0452  0.0911 -0.0806
 6161TIP3    H240119   4.835   3.210   8.220 -1.0036 -1.1958 -0.3372
 6162TIP3   OH240120   0.286   1.412   0.257 -0.6060 -0.0822  0.0647
 6162TIP3    H140121   0.364   1.411   0.313  0.0723 -0.4533 -0.8538
 6162TIP3    H240122   0.243   1.328   0.274 -0.3941 -0.1988  0.0310
 6163TIP3   OH240123   6.373   2.210   0.553  0.2692  0.3444  0.1500
 6163TIP3    H140124   6.373   2.286   0.496 -1.6380  1.0325  0.9899
 6163TIP3    H240125   6.340   2.139   0.498 -0.7208  0.8041  0.1337
 6164TIP3   OH240126   6.198   3.436   0.131 -0.0805  0.1937 -0.4983
 6164TIP3    H140127   6.209   3.531   0.121 -0.4822  0.0863 -2.1785
 6164TIP3    H240128   6.247   3.398   0.059  0.4721 -0.9327  0.4314
 6165TIP3   OH240129   0.328   6.203   2.285 -0.1308  0.7379  0.6798
 6165TIP3    H140130   0.287   6.117   2.299  3.5708 -1.4374 -0.2440
 6165TIP3    H240131   0.330   6.243   2.372  1.0864 -1.7700  1.9358
 6166TIP3   OH240132   6.517   5.787   7.708  0.0018  0.8389 -0.0056
 6166TIP3    H140133   6.561   5.766   7.791 -0.1103  2.9835  0.6642
 6166TIP3    H240134   6.434   5.738   7.712  1.6175 -2.2014 -0.6994
 6167TIP3   OH240135   2.715   1.544   7.819 -0.9106  0.2293 -0.4343
 6167TIP3    H140136   2.742   1.481   7.886  1.7280  0.3811 -1.2425
 6167TIP3    H240137   2.640   1.503   7.776  0.6734 -2.4010 -0.9021
 6168TIP3   OH240138   4.820   6.667   1.380  0.0216  0.1351  0.3765
 6168TIP3    H140139   4.751   6.679   1.315 -0.2576 -0.2803  0.5899
 6168TIP3    H240140   4.814   6.574   1.403 -0.2353  0.3945  1.3872
 6169TIP3   OH240141   4.826   4.696   2.029 -0.7033 -0.9828  0.3654
 6169TIP3    H140142   4.815   4.732   1.941  0.9699 -5.0105 -1.7639
 6169TIP3    H240143   4.914   4.724   2.055  0.2809 -2.6408 -0.9443
 6170TIP3   OH240144   2.696   0.824   0.595 -0.5227 -0.1007  0.4877
 6170TIP3    H140145   2.780   0.831   0.641  0.0975  1.7294 -0.7890
 6170TIP3    H240146   2.631   0.843   0.663  0.2537  0.8108  1.0182
 6171TIP3   OH240147   1.522   4.014   0.580  0.1252  0.1864  0.2855
 6171TIP3    H140148   1.546   4.073   0.651  0.8181  0.6382 -0.3127
 6171TIP3    H240149   1.546   3.927   0.612 -1.1172  0.1757  1.2626
 6172TIP3   OH240150   5.671   0.246   1.502  0.7632  0.2166  0.2369
 6172TIP3    H140151   5.753   0.265   1.546  0.5593  0.1869  0.6397
 6172TIP3    H240152   5.694   0.236   1.410  0.8651  2.7108 -0.0905
 6173TIP3   OH240153   0.468   4.356   0.257 -0.0397 -0.2843 -0.0559
 6173TIP3    H140154   0.441   4.419   0.324  1.0215 -0.5318  0.6276
 6173TIP3    H240155   0.417   4.277   0.277 -2.9294  0.8983 -2.1516
 6174TIP3   OH240156   1.797   5.808   1.573 -0.0119  0.5180 -0.4848
 6174TIP3    H140157   1.851   5.884   1.549 -0.1432  0.6404 -0.3937
 6174TIP3    H240158   1.844   5.766   1.645 -0.5345  1.1861  0.2545
 6175TIP3   OH240159   4.712   5.762   1.591 -0.0323 -0.6195 -0.0545
 6175TIP3    H140160   4.753   5.676   1.603  1.0488 -0.1511 -0.2414
 6175TIP3    H240161   4.767   5.805   1.526 -0.5428  0.2354  0.0736
 6176TIP3   OH240162   3.793   2.614   1.090  0.0646  0.2567 -0.0877
 6176TIP3    H140163   3.843   2.563   1.027  0.0890  0.8604 -0.5717
 6176TIP3    H240164   3.724   2.655   1.038 -0.4333  0.0919  0.4291
 6177TIP3   OH240165   1.582   0.860   1.158  0.3508 -0.0088  0.8870
 6177TIP3    H140166   1.511   0.796   1.164  0.7951 -0.5082  0.8586
 6177TIP3    H240167   1.661   0.811   1.181  0.9744  0.0181 -1.0024
 6178TIP3   OH240168   6.757   6.153   7.147  0.0508 -0.3756  0.7718
 6178TIP3    H140169   6.844   6.191   7.137  0.0743  0.0164  2.1900
 6178TIP3    H240170   6.745   6.146   7.242 -1.3012 -0.8005  0.5913
 6179TIP3   OH240171   4.262   6.908   7.765 -0.1019  0.1317  0.1575
 6179TIP3    H140172   4.238   6.816   7.772  0.2230 -0.1638 -1.9329
 6179TIP3    H240173   4.326   6.921   7.835  0.3815 -1.4299  0.0497
 6180TIP3   OH240174   0.890   4.232   7.789 -0.1277  0.2078  0.1197
 6180TIP3    H140175   0.819   4.288   7.759 -1.0446 -0.4643  0.9916
 6180TIP3    H240176   0.966   4.290   7.794 -0.8089  1.1271 -0.0206
 6181TIP3   OH240177   6.652   2.507   3.268 -0.1237 -0.2264 -0.5287
 6181TIP3    H140178   6.644   2.411   3.272 -0.1464 -0.2185 -0.3484
 6181TIP3    H240179   6.742   2.522   3.240  0.0550 -0.2993 -0.0180
 6182TIP3   OH240180   4.685   3.613   7.243 -0.9108  0.6160  0.1318
 6182TIP3    H140181   4.695   3.569   7.159 -0.5830  0.6070  0.1725
 6182TIP3    H240182   4.758   3.581   7.296 -0.7831  1.0491  0.2288
 6183TIP3   OH240183   3.761   2.770   7.404  0.2279  0.3016  0.7189
 6183TIP3    H140184   3.731   2.781   7.314  0.2882 -0.7836  0.5560
 6183TIP3    H240185   3.727   2.847   7.450  1.2918  1.5404 -0.4919
 6184TIP3   OH240186   1.999   2.173   2.358  0.0165  0.4422  0.0206
 6184TIP3    H140187   1.964   2.128   2.435 -0.8987 -3.2547 -2.2809
 6184TIP3    H240188   2.094   2.162   2.366 -0.0378  0.4726  0.8186
 6185TIP3   OH240189   0.478   0.029   8.272  0.2008  0.0236 -0.6329
 6185TIP3    H140190   0.554   0.063   8.225  0.2550 -0.1072 -0.6431
 6185TIP3    H240191   0.485  -0.066   8.261  0.3260 -0.0196 -0.1887
 6186TIP3   OH240192   4.711   5.612   7.516 -0.0930 -0.5724  0.2345
 6186TIP3    H140193   4.704   5.546   7.447 -2.6346  0.6297 -0.7869
 6186TIP3    H240194   4.742   5.563   7.593 -1.5822 -2.8929 -0.5398
 6187TIP3   OH240195   0.422   2.722   8.506 -0.2857  0.2032 -0.0516
 6187TIP3    H140196   0.334   2.750   8.530 -1.1066 -1.7529 -0.5523
 6187TIP3    H240197   0.430   2.634   8.543  1.2994  0.1588 -0.4190
 6188TIP3   OH240198   5.413   2.288   1.915 -0.0745 -0.2936  0.2355
 6188TIP3    H140199   5.354   2.214   1.899 -0.0734 -0.1510 -0.4359
 6188TIP3    H240200   5.399   2.347   1.842  2.5066 -1.2989 -1.2315
 6189TIP3   OH240201   4.880   0.776   2.446  0.0760  0.7064 -0.1465
 6189TIP3    H140202   4.841   0.709   2.502 -0.9545 -0.4601 -2.1730
 6189TIP3    H240203   4.959   0.803   2.494  0.4304 -1.7820  0.8465
 6190TIP3   OH240204   3.007   6.560   0.554 -0.7518  0.2493  0.4241
 6190TIP3    H140205   2.971   6.487   0.605  0.5177 -1.3346 -0.8302
 6190TIP3    H240206   3.031   6.625   0.620  0.1977 -1.4311  1.8482
 6191TIP3   OH240207   6.826   5.470   2.028 -0.1365  0.3709  0.2685
 6191TIP3    H140208   6.920   5.453   2.029 -0.3771 -1.1139  2.2059
 6191TIP3    H240209   6.794   5.440   2.113 -2.6036 -0.5966 -0.8860
 6192TIP3   OH240210   0.998   3.664   0.575 -0.3759  0.2882  0.2224
 6192TIP3    H140211   0.997   3.707   0.489 -0.1761 -0.3080 -0.0874
 6192TIP3    H240212   1.028   3.575   0.556  0.8299  0.4939  1.0755
 6193TIP3   OH240213   0.448   0.922   7.511  0.2872  0.5867 -0.1655
 6193TIP3    H140214   0.458   1.014   7.535  0.0743  0.7105 -0.5354
 6193TIP3    H240215   0.369   0.893   7.556 -0.7973  1.1470 -1.6199
 6194TIP3   OH240216   5.622   1.188   1.324  0.1029 -0.5442  0.3995
 6194TIP3    H140217   5.618   1.277   1.358  0.4663  0.1853 -1.3848
 6194TIP3    H240218   5.710   1.157   1.347  1.0098  0.5940 -1.3790
 6195TIP3   OH240219   4.578   0.686   0.022  0.3786  0.1137 -0.2650
 6195TIP3    H140220   4.552   0.741   0.096 -0.9720  1.0941 -1.4252
 6195TIP3    H240221   4.496   0.647  -0.009  1.0710 -1.1118 -0.6239
 6196TIP3   OH240222   6.657   4.709   7.513 -0.2817  0.3715  0.9804
 6196TIP3    H140223   6.674   4.720   7.420  0.1493  0.5137  1.0762
 6196TIP3    H240224   6.600   4.783   7.536 -1.8564 -0.6327  0.4570
 6197TIP3   OH240225   5.546   0.034   2.648 -0.7066  0.3546  0.0474
 6197TIP3    H140226   5.622   0.076   2.607 -0.1938 -0.7072 -0.1086
 6197TIP3    H240227   5.582  -0.015   2.722 -1.0639 -1.1360 -0.7350
 6198TIP3   OH240228   2.945   2.666   0.759 -0.4053  0.0056  0.5026
 6198TIP3    H140229   2.945   2.653   0.664  0.0586 -2.1254  0.7423
 6198TIP3    H240230   3.022   2.720   0.776 -0.6788  0.6814 -0.3523
 6199TIP3   OH240231   1.699   6.523   1.772  0.1850 -0.2275  0.1217
 6199TIP3    H140232   1.775   6.491   1.822  0.4729 -0.9146 -0.7242
 6199TIP3    H240233   1.711   6.618   1.769  1.8533 -0.4108 -1.2309
 6200TIP3   OH240234   4.732   0.383   0.330 -0.1468  0.3588  0.2058
 6200TIP3    H140235   4.704   0.321   0.397  1.7825 -0.0210  0.7265
 6200TIP3    H240236   4.788   0.445   0.376  2.6365 -0.8799 -1.2366
 6201TIP3   OH240237   6.905   4.428   2.272 -0.5769 -0.9127  0.3290
 6201TIP3    H140238   6.989   4.428   2.317 -0.0750 -2.3060 -0.5332
 6201TIP3    H240239   6.855   4.359   2.314 -0.6586 -1.2203 -0.2698
 6202TIP3   OH240240   5.000   5.708   7.465  0.3346 -1.0800 -0.1199
 6202TIP3    H140241   4.997   5.785   7.521  0.7627 -0.3343 -1.1059
 6202TIP3    H240242   4.912   5.670   7.472  0.1420 -0.5522  0.4257
 6203TIP3   OH240243   1.617   5.037   7.885  1.0055  0.3580 -0.6262
 6203TIP3    H140244   1.522   5.029   7.880  1.1095 -1.2296 -0.5830
 6203TIP3    H240245   1.635   5.126   7.856 -0.5670  1.0888  0.4985
 6204TIP3   OH240246   1.783   1.853   7.327  0.4594  0.9548 -0.5954
 6204TIP3    H140247   1.734   1.890   7.400  0.5136  2.2678 -1.1976
 6204TIP3    H240248   1.786   1.923   7.262  2.6053  0.6930 -0.8410
 6205TIP3   OH240249   1.182   1.420   8.153  0.0699  0.6353  0.1877
 6205TIP3    H140250   1.142   1.340   8.188 -3.9631  2.0635 -0.6396
 6205TIP3    H240251   1.188   1.479   8.229  1.0999  0.2931  0.3890
 6206TIP3   OH240252   1.598   5.420   0.876 -0.0697  0.2699 -0.2389
 6206TIP3    H140253   1.531   5.392   0.938 -0.0094  0.2987 -0.1603
 6206TIP3    H240254   1.678   5.429   0.929 -0.6917  3.4170  0.3624
 6207TIP3   OH240255   4.072   0.762   7.601  0.4745  0.1960  0.1855
 6207TIP3    H140256   4.104   0.843   7.643 -1.3391  1.0178  0.0669
 6207TIP3    H240257   4.078   0.779   7.508 -2.1406  1.2277  0.1133
 6208TIP3   OH240258   6.640   6.383   7.051  0.3932  0.3325 -0.9365
 6208TIP3    H140259   6.574   6.362   6.985  0.5120  0.3735 -1.0672
 6208TIP3    H240260   6.670   6.298   7.082 -1.5096  0.2538  0.9243
 6209TIP3   OH240261   2.750   4.550   7.182  0.4127  0.1646 -0.3715
 6209TIP3    H140262   2.659   4.527   7.199 -0.4863  3.1717 -0.5167
 6209TIP3    H240263   2.756   4.557   7.087  0.7665  0.0520 -0.3591
 6210TIP3   OH240264   3.742   5.133   2.124  0.3870  0.1419  0.0555
 6210TIP3    H140265   3.733   5.178   2.040 -0.9670  0.4627  0.3477
 6210TIP3    H240266   3.829   5.158   2.156  1.5919 -1.2489 -1.9512
 6211TIP3   OH240267   5.742   3.383   8.327  0.1387  0.0907  0.3055
 6211TIP3    H140268   5.824   3.335   8.338 -0.3131 -0.5967  0.7764
 6211TIP3    H240269   5.759   3.469   8.366  1.2857  0.7280 -1.4418
 6212TIP3   OH240270   2.542   2.302   0.246 -0.3091  0.0034  0.3103
 6212TIP3    H140271   2.594   2.298   0.166  0.4985  1.6531  0.7107
 6212TIP3    H240272   2.531   2.210   0.272 -1.8247 -0.6700 -2.4143
 6213TIP3   OH240273   5.983   5.807   2.588 -0.2344  0.4827  0.4957
 6213TIP3    H140274   5.911   5.867   2.572 -0.1503  0.3100 -0.6777
 6213TIP3    H240275   6.042   5.820   2.513  0.4059 -0.1556  0.8695
 6214TIP3   OH240276   3.359   6.824   1.879 -1.2236  0.2886 -0.2628
 6214TIP3    H140277   3.425   6.893   1.876  0.3140 -1.1407 -0.9543
 6214TIP3    H240278   3.389   6.759   1.815 -1.6825 -1.8117  1.5434
 6215TIP3   OH240279   2.223   0.428   7.813 -0.0018 -0.0397  0.1706
 6215TIP3    H140280   2.157   0.417   7.744  0.3271 -1.2940  0.0387
 6215TIP3    H240281   2.297   0.469   7.769  0.0596 -0.4757 -0.1310
 6216TIP3   OH240282   2.679   0.192   0.682  0.7312  0.0505  0.5829
 6216TIP3    H140283   2.681   0.268   0.624 -0.3902  0.3914  0.9817
 6216TIP3    H240284   2.590   0.158   0.675  0.7337 -0.2133  1.7146
 6217TIP3   OH240285   6.814   5.444   1.123  0.0461 -0.6353 -0.0786
 6217TIP3    H140286   6.880   5.420   1.058 -1.6836 -0.7922 -1.8297
 6217TIP3    H240287   6.822   5.377   1.191  1.0297 -1.2147 -0.7381
 6218TIP3   OH240288   2.984   0.643   7.633  0.0677  0.4178 -0.7870
 6218TIP3    H140289   3.025   0.594   7.561  0.6750 -1.4590  0.7525
 6218TIP3    H240290   2.893   0.654   7.606 -0.0317 -1.3672 -1.3307
 6219TIP3   OH240291   0.755   2.179   2.180  0.1475  0.0303  0.1122
 6219TIP3    H140292   0.686   2.120   2.149  0.4604  0.0897 -0.7369
 6219TIP3    H240293   0.797   2.131   2.251  0.6642 -0.9681 -0.8275
 6220TIP3   OH240294   1.656   6.799   1.784 -0.4954 -0.1823 -0.0166
 6220TIP3    H140295   1.600   6.861   1.830 -0.1700 -0.9951  1.5282
 6220TIP3    H240296   1.738   6.847   1.770 -0.4412 -0.0624  0.6621
 6221TIP3   OH240297   3.399   1.654   7.352 -0.1124  0.6271  0.3098
 6221TIP3    H140298   3.494   1.658   7.338 -0.2036  1.4913 -0.1606
 6221TIP3    H240299   3.369   1.587   7.290  0.0554  1.2204 -0.4365
 6222TIP3   OH240300   6.677   4.980   6.783  0.2269 -0.3597 -0.9812
 6222TIP3    H140301   6.766   4.977   6.749  0.3076  0.1919 -0.8383
 6222TIP3    H240302   6.654   5.073   6.779 -1.9057 -0.8638 -4.9612
 6223TIP3   OH240303   2.830   0.276   2.483  0.0225 -0.2407  0.0718
 6223TIP3    H140304   2.853   0.357   2.438  1.0670 -0.6165 -0.1021
 6223TIP3    H240305   2.862   0.288   2.572 -0.1233 -0.3358  0.1382
 6224TIP3   OH240306   1.151   4.560   7.297 -0.7850 -0.3486 -0.6859
 6224TIP3    H140307   1.063   4.597   7.290 -0.4389  0.5790 -0.2737
 6224TIP3    H240308   1.150   4.485   7.237 -1.2843  0.7746 -2.1411
 6225TIP3   OH240309   6.387   2.453   8.195  0.0343  0.4919 -0.1861
 6225TIP3    H140310   6.356   2.362   8.191  0.7134  0.2254  0.3814
 6225TIP3    H240311   6.331   2.493   8.262 -1.0207  0.8144 -1.2200
 6226TIP3   OH240312   6.499   2.940   1.900 -0.4266 -0.1121  0.1291
 6226TIP3    H140313   6.530   2.851   1.880  1.9741  0.6269  0.2477
 6226TIP3    H240314   6.547   2.996   1.840 -2.9318  1.0702 -0.9136
 6227TIP3   OH240315   3.456   1.498   1.165 -0.0331  0.5086  0.1230
 6227TIP3    H140316   3.476   1.580   1.210 -0.4466  1.1942 -0.8989
 6227TIP3    H240317   3.419   1.441   1.232  1.3530  0.7228  1.1070
 6228TIP3   OH240318   1.565   0.434   7.705  0.0590  0.0470  0.3818
 6228TIP3    H140319   1.502   0.370   7.737 -0.1988 -0.6563 -1.4288
 6228TIP3    H240320   1.559   0.428   7.610  1.5388  1.2878  0.1749
 6229TIP3   OH240321   6.588   6.925   2.406 -0.0950 -0.4822  0.0474
 6229TIP3    H140322   6.632   7.010   2.418  1.2166 -0.9998 -0.8970
 6229TIP3    H240323   6.620   6.872   2.479  0.2649 -0.6130 -0.1996
 6230TIP3   OH240324   6.656   0.821   0.899 -0.5810 -0.2120  0.3372
 6230TIP3    H140325   6.746   0.802   0.873 -0.6029 -0.5289  0.4844
 6230TIP3    H240326   6.608   0.828   0.816 -0.7619 -1.7837  0.2717
 6231TIP3   OH240327   0.352   2.557   1.291 -0.1317 -0.1452 -0.6679
 6231TIP3    H140328   0.280   2.606   1.250 -0.0482 -1.0276 -1.9344
 6231TIP3    H240329   0.416   2.624   1.314 -1.3923  0.6738  0.6204
 6232TIP3   OH240330   3.682   5.097   0.146 -0.8948 -0.0801 -0.2944
 6232TIP3    H140331   3.735   5.064   0.073  0.8925  1.3999  0.2553
 6232TIP3    H240332   3.615   5.152   0.104 -1.8604 -1.7082 -0.9751
 6233TIP3   OH240333   2.084   0.217   7.114 -0.6425  0.1919  0.0185
 6233TIP3    H140334   2.073   0.222   7.019 -1.1938  0.3521  0.0820
 6233TIP3    H240335   2.083   0.308   7.143  1.4821  0.2505 -0.0069
 6234TIP3   OH240336   2.801   1.790   1.790 -0.5607  0.2250  0.2782
 6234TIP3    H140337   2.784   1.774   1.697 -0.1487  0.1874  0.2074
 6234TIP3    H240338   2.763   1.876   1.807 -0.2099  0.4471 -0.0462
 6235TIP3   OH240339   6.424   4.919   7.300  0.5919 -0.2946 -0.0287
 6235TIP3    H140340   6.459   4.912   7.389 -0.5284  0.9583  0.5287
 6235TIP3    H240341   6.388   4.832   7.281 -0.1322 -0.2726  1.1654
 6236TIP3   OH240342   4.590   4.369   0.569  0.1060  0.5237  0.0497
 6236TIP3    H140343   4.539   4.389   0.647 -1.1061 -0.8932 -0.3425
 6236TIP3    H240344   4.681   4.389   0.594 -0.3555  0.9239  1.5116
 6237TIP3   OH240345   1.655   6.262   1.653  0.7023  0.7259 -0.2482
 6237TIP3    H140346   1.648   6.208   1.731 -2.0206 -0.3620 -1.1520
 6237TIP3    H240347   1.672   6.350   1.686 -0.5933  0.3252  1.5913
 6238TIP3   OH240348   1.335   4.395   7.961 -0.0374 -0.5440  0.1554
 6238TIP3    H140349   1.409   4.395   7.901 -0.2416  0.6012 -0.1370
 6238TIP3    H240350   1.366   4.350   8.039 -0.1132 -3.0724 -1.1968
 6239TIP3   OH240351   1.095   1.192   0.826 -0.1014  0.2958 -0.3055
 6239TIP3    H140352   1.105   1.286   0.841 -0.3848  0.4289 -0.9362
 6239TIP3    H240353   1.086   1.155   0.914  1.2359  0.7023  0.0298
 6240TIP3   OH240354   0.373   0.492   7.789 -0.0001 -0.5067  0.2671
 6240TIP3    H140355   0.459   0.497   7.747  0.5193  0.7738  1.3784
 6240TIP3    H240356   0.356   0.399   7.798  1.0940 -0.7845 -0.3202
 6241TIP3   OH240357   5.920   2.015   0.030  0.0192 -0.1152  0.6498
 6241TIP3    H140358   5.945   1.961   0.105  1.2982  1.1236  1.1606
 6241TIP3    H240359   5.994   2.007  -0.030 -0.2256  0.2838  0.2936
 6242TIP3   OH240360   0.309   4.612   8.470  0.3458 -0.0187  0.0207
 6242TIP3    H140361   0.261   4.597   8.551 -2.1472  1.6007 -1.0303
 6242TIP3    H240362   0.361   4.532   8.457  0.0898 -0.6956  2.6611
 6243TIP3   OH240363   2.047   1.555   0.653 -0.1422 -0.0318  0.4796
 6243TIP3    H140364   1.954   1.542   0.671  0.4116 -0.9550  3.2245
 6243TIP3    H240365   2.080   1.467   0.637  0.1301  0.3971 -1.5136
 6244TIP3   OH240366   0.723   4.169   1.723 -0.5202  0.3285 -0.2287
 6244TIP3    H140367   0.785   4.157   1.652  2.5890  0.3870  2.2816
 6244TIP3    H240368   0.714   4.264   1.732 -0.6153  0.3236 -0.2621
 6245TIP3   OH240369   3.894   6.192   0.118  0.4360 -0.1172  0.0048
 6245TIP3    H140370   3.923   6.281   0.138  0.0164 -0.0935  0.5281
 6245TIP3    H240371   3.945   6.136   0.178  1.5860 -0.3445 -1.1566
 6246TIP3   OH240372   0.609   6.330   7.535  0.4348 -0.6464  0.3225
 6246TIP3    H140373   0.549   6.266   7.496  1.0951 -1.0940  0.0194
 6246TIP3    H240374   0.679   6.277   7.573  0.3267 -0.1561  1.2105
 6247TIP3   OH240375   4.423   0.781   1.132  0.8181  0.1384  0.1106
 6247TIP3    H140376   4.334   0.801   1.101  0.9161 -1.5583 -1.4754
 6247TIP3    H240377   4.459   0.866   1.157 -0.2832  1.2974 -1.9298
 6248TIP3   OH240378   6.875   3.494   0.049  0.9072 -0.1269  0.1092
 6248TIP3    H140379   6.821   3.447  -0.015 -0.7760 -1.8689  2.6080
 6248TIP3    H240380   6.815   3.558   0.088  0.0092 -2.8503  3.7360
 6249TIP3   OH240381   2.657   1.480   1.140  0.4492 -0.1518 -0.2973
 6249TIP3    H140382   2.613   1.415   1.194 -0.3349 -0.0677 -0.8106
 6249TIP3    H240383   2.707   1.533   1.202  0.4127 -0.7120  0.2178
 6250TIP3   OH240384   2.520   0.303   8.311  0.2242 -0.5907 -0.1462
 6250TIP3    H140385   2.615   0.312   8.323  0.1611 -0.7054  0.4886
 6250TIP3    H240386   2.499   0.366   8.242  0.8412 -0.9666 -0.6841
 6251TIP3   OH240387   1.165   6.245   7.856  0.6522 -0.0520  0.8324
 6251TIP3    H140388   1.193   6.312   7.794 -0.0643 -0.9122 -0.4567
 6251TIP3    H240389   1.146   6.168   7.802 -0.9818 -0.5260  2.0106
 6252TIP3   OH240390   2.996   4.669   2.585 -0.1989  0.7382 -0.3446
 6252TIP3    H140391   3.036   4.746   2.626 -1.9750  1.5291 -0.0122
 6252TIP3    H240392   2.909   4.663   2.624  0.2948 -2.2266  0.6146
 6253TIP3   OH240393   3.061   6.778   6.758 -0.1768 -0.0533 -0.1774
 6253TIP3    H140394   3.101   6.859   6.727  0.2124  0.3122  1.1815
 6253TIP3    H240395   3.134   6.728   6.796 -0.9718  0.7907  2.6891
 6254TIP3   OH240396   6.554   3.582   2.961 -0.3405 -0.4161  0.2300
 6254TIP3    H140397   6.600   3.508   3.001  0.9267 -0.4570 -1.2221
 6254TIP3    H240398   6.496   3.614   3.030 -0.0489 -2.0137  1.2698
 6255TIP3   OH240399   4.414   0.930   0.839 -0.2371  0.2013  0.0318
 6255TIP3    H140400   4.458   0.846   0.853 -1.0530 -0.5380 -1.6007
 6255TIP3    H240401   4.344   0.931   0.904 -0.1879 -0.3610  0.1020
 6256TIP3   OH240402   3.195   6.307   0.860 -0.3565  0.0754 -0.2480
 6256TIP3    H140403   3.131   6.266   0.801 -1.9558  0.6205  1.0182
 6256TIP3    H240404   3.179   6.266   0.945  1.5252 -0.3043 -0.0465
 6257TIP3   OH240405   6.470   0.820   7.792 -0.2804  0.6257 -0.9700
 6257TIP3    H140406   6.404   0.842   7.858  0.6920 -0.3344  0.3863
 6257TIP3    H240407   6.428   0.754   7.737 -0.0012 -1.2251  0.8806
 6258TIP3   OH240408   5.523   0.764   0.335 -0.0156  0.0558 -0.0020
 6258TIP3    H140409   5.518   0.670   0.353  0.6115  0.0752  0.2750
 6258TIP3    H240410   5.438   0.785   0.296 -0.6577 -0.3627  1.1407
 6259TIP3   OH240411   1.808   1.501   7.082 -0.0193  0.1914 -0.1391
 6259TIP3    H140412   1.738   1.438   7.101  1.5918 -1.4958  0.4958
 6259TIP3    H240413   1.873   1.450   7.033  1.9898  0.9429  1.5845
 6260TIP3   OH240414   5.079   1.078   7.386 -0.6035 -0.3273 -0.1263
 6260TIP3    H140415   5.099   0.993   7.348 -0.9159  0.0468 -1.1515
 6260TIP3    H240416   4.989   1.096   7.359 -0.1733  0.8169 -0.8605
 6261TIP3   OH240417   4.678   0.632   1.213 -0.2560  0.0979  0.2646
 6261TIP3    H140418   4.762   0.630   1.167 -0.1490  0.0082  0.4643
 6261TIP3    H240419   4.616   0.666   1.148  0.0115  0.5451  0.2439
 6262TIP3   OH240420   4.641   5.585   1.302  0.1424 -0.5303  0.0427
 6262TIP3    H140421   4.623   5.522   1.232 -3.6326  0.6184 -0.2957
 6262TIP3    H240422   4.642   5.670   1.257  3.3226 -0.1007  0.7287
 6263TIP3   OH240423   5.648   1.578   2.774 -0.7614 -0.5702  0.1391
 6263TIP3    H140424   5.632   1.555   2.682 -0.6147 -0.1320  0.0029
 6263TIP3    H240425   5.616   1.502   2.823  0.5937 -1.5130 -0.3588
 6264TIP3   OH240426   4.979   3.886   1.350 -0.4972 -0.0793  0.6272
 6264TIP3    H140427   5.015   3.838   1.425  1.6041 -2.0181 -1.4598
 6264TIP3    H240428   4.994   3.978   1.371  1.5936 -0.6507  1.9049
 6265TIP3   OH240429   4.990   3.629   0.542  0.3596  0.2765 -0.0014
 6265TIP3    H140430   4.957   3.554   0.592  1.9201 -0.0063  0.6925
 6265TIP3    H240431   4.913   3.681   0.521 -0.5451 -0.5781  1.1082
 6266TIP3   OH240432   6.337   6.471   7.965 -0.5127  0.4450  0.6151
 6266TIP3    H140433   6.276   6.413   8.011 -0.6813 -0.7692 -1.0323
 6266TIP3    H240434   6.326   6.556   8.007 -1.9669 -0.1799  1.5847
 6267TIP3   OH240435   4.326   4.637   1.373 -0.5365 -0.1865  0.9631
 6267TIP3    H140436   4.296   4.546   1.381  0.0210 -0.3495  1.2280
 6267TIP3    H240437   4.413   4.637   1.413 -0.9993  0.7136  2.0008
 6268TIP3   OH240438   3.262   3.900   7.823  0.0744  0.2587  0.4418
 6268TIP3    H140439   3.237   3.992   7.827 -1.3327 -0.1199  3.7038
 6268TIP3    H240440   3.275   3.875   7.915 -0.6828 -3.0660 -0.2316
 6269TIP3   OH240441   5.704   0.234   7.730 -0.1461  0.0933  0.2057
 6269TIP3    H140442   5.774   0.183   7.771 -0.7600 -1.4620 -0.5896
 6269TIP3    H240443   5.623   0.188   7.754 -0.8759  1.5419  0.6456
 6270TIP3   OH240444   6.921   3.055   1.232  0.4585  0.3860  0.0856
 6270TIP3    H140445   6.826   3.056   1.247  0.8225  0.4889  3.0285
 6270TIP3    H240446   6.951   3.140   1.265  1.8873 -0.8991  2.3052
 6271TIP3   OH240447   6.171   5.349   7.957 -0.3951 -0.0551 -0.0204
 6271TIP3    H140448   6.257   5.314   7.983 -0.3207  0.7593  0.8704
 6271TIP3    H240449   6.142   5.400   8.032 -0.2550  2.2626 -1.4287
 6272TIP3   OH240450   3.766   3.789   0.788 -0.3659 -0.0469  0.0931
 6272TIP3    H140451   3.799   3.776   0.877 -0.6253  0.1622  0.2227
 6272TIP3    H240452   3.744   3.701   0.757  3.5536 -0.7048 -1.3213
 6273TIP3   OH240453   4.320   6.374   0.058  0.4241 -0.5182 -0.1148
 6273TIP3    H140454   4.319   6.291   0.106 -0.2520 -2.5497 -3.3037
 6273TIP3    H240455   4.231   6.408   0.066 -0.0410 -1.5075 -0.9289
 6274TIP3   OH240456   1.428   1.148   7.758  0.2063 -0.5217  0.0613
 6274TIP3    H140457   1.416   1.054   7.740  1.9373 -0.6425 -0.6946
 6274TIP3    H240458   1.523   1.158   7.767  0.0154  1.1203  0.4296
 6275TIP3   OH240459   6.387   4.286   0.790  0.2616  0.3206  0.2467
 6275TIP3    H140460   6.294   4.270   0.803  0.4866 -0.5734  0.8486
 6275TIP3    H240461   6.398   4.380   0.807 -0.5683  0.4916 -0.1203
 6276TIP3   OH240462   4.472   1.341   7.578 -0.0489  0.0314 -0.0860
 6276TIP3    H140463   4.426   1.322   7.659  0.4197 -0.8701 -0.0161
 6276TIP3    H240464   4.414   1.400   7.530 -0.3207  0.5931  0.9083
 6277TIP3   OH240465   0.369   0.058   1.925  0.4837 -0.0663 -0.2827
 6277TIP3    H140466   0.459   0.056   1.957  0.1334  1.0045  0.8635
 6277TIP3    H240467   0.353   0.151   1.906 -0.0722 -0.3775 -1.4200
 6278TIP3   OH240468   0.307   5.308   6.986  0.8020  0.0036 -0.2494
 6278TIP3    H140469   0.219   5.318   6.952  0.8172  0.2870 -0.2134
 6278TIP3    H240470   0.360   5.366   6.931  1.2550 -1.3794 -1.3317
 6279TIP3   OH240471   4.245   3.164   2.224 -0.6170  0.0251  0.2944
 6279TIP3    H140472   4.281   3.247   2.192  0.7697 -0.5451  0.3312
 6279TIP3    H240473   4.226   3.114   2.144 -0.9958  0.1721  0.2871
 6280TIP3   OH240474   1.250   6.298   1.874  0.5102  0.4975 -0.3143
 6280TIP3    H140475   1.246   6.246   1.954 -0.8694  0.4135 -0.4159
 6280TIP3    H240476   1.297   6.242   1.812 -0.0793 -0.2372 -0.1203
 6281TIP3   OH240477   6.726   1.520   2.237  0.1135  0.3311 -0.0875
 6281TIP3    H140478   6.783   1.484   2.169  0.8913  1.9783 -0.3645
 6281TIP3    H240479   6.745   1.614   2.237  0.0309  0.4119  2.3202
 6282TIP3   OH240480   2.474   5.958   7.820 -0.0793  0.5560 -0.2506
 6282TIP3    H140481   2.399   6.017   7.823 -1.2603 -0.9037  0.1833
 6282TIP3    H240482   2.462   5.907   7.740 -0.6548 -1.0139  0.7810
 6283TIP3   OH240483   5.519   4.715   0.793 -0.0676  0.5182  0.1208
 6283TIP3    H140484   5.539   4.807   0.777  0.3510  0.1417 -1.7570
 6283TIP3    H240485   5.512   4.676   0.705  2.4297 -1.7942  0.8209
 6284TIP3   OH240486   3.651   2.531   1.659 -0.1216 -0.3156  0.2441
 6284TIP3    H140487   3.560   2.536   1.630 -0.6358 -0.2985  1.7643
 6284TIP3    H240488   3.693   2.473   1.597 -0.8523  0.6768 -1.2327
 6285TIP3   OH240489   6.451   6.391   2.583 -1.0317 -0.5910 -0.2838
 6285TIP3    H140490   6.438   6.444   2.662 -1.6884 -0.1941 -0.6552
 6285TIP3    H240491   6.530   6.340   2.602 -0.9703 -0.2288  0.4830
 6286TIP3   OH240492   6.629   3.895   2.679  0.1447 -0.1518  0.3880
 6286TIP3    H140493   6.708   3.865   2.723 -0.2737 -0.3145  1.0473
 6286TIP3    H240494   6.567   3.823   2.689 -0.5650  0.5444  1.1826
 6287TIP3   OH240495   6.902   6.519   7.008  0.0366  0.0927 -0.2802
 6287TIP3    H140496   6.986   6.476   7.026 -0.4692 -0.2279  1.4287
 6287TIP3    H240497   6.838   6.447   7.006 -0.2713  0.3730 -1.2620
 6288TIP3   OH240498   3.016   3.307   6.749  0.4034 -0.1975 -0.4141
 6288TIP3    H140499   3.070   3.376   6.787  1.1015 -1.2682  0.6492
 6288TIP3    H240500   3.075   3.261   6.688  0.7109 -1.2945  0.6596
 6289TIP3   OH240501   4.998   4.319   1.835  0.0094  0.5259  0.0055
 6289TIP3    H140502   5.088   4.346   1.817  0.2995 -0.8912 -0.8746
 6289TIP3    H240503   4.961   4.300   1.748 -1.1549  1.1117  0.3488
 6290TIP3   OH240504   6.920   4.992   6.672 -0.3724 -0.2254  0.4454
 6290TIP3    H140505   6.911   5.053   6.598  0.1757  0.8019  1.2120
 6290TIP3    H240506   6.979   4.925   6.640 -0.4930 -0.0312 -0.2050
 6291TIP3   OH240507   4.936   4.166   6.522 -0.1531 -0.0980 -0.5252
 6291TIP3    H140508   4.861   4.119   6.558 -0.0167  0.7587  0.9803
 6291TIP3    H240509   5.009   4.139   6.576  0.2109  0.6819 -0.6124
 6292TIP3   OH240510   6.285   3.664   0.028  0.3954 -0.0329  0.8429
 6292TIP3    H140511   6.282   3.638  -0.064  1.1602 -0.9857  1.0655
 6292TIP3    H240512   6.357   3.728   0.032  1.3563 -1.0908  1.0117
 6293TIP3   OH240513   5.013   1.494   2.170 -0.4818  0.4568 -0.1510
 6293TIP3    H140514   5.044   1.582   2.149  2.2607  0.0118  1.5741
 6293TIP3    H240515   5.022   1.487   2.265 -0.3580 -1.7742 -0.2731
 6294TIP3   OH240516   6.332   0.966   2.242 -0.0427  0.0167  0.2466
 6294TIP3    H140517   6.236   0.967   2.250  0.0742 -1.1502  2.8426
 6294TIP3    H240518   6.358   1.055   2.266 -0.4565  0.2380 -0.1044
 6295TIP3   OH240519   3.982   1.783   8.333 -0.1155  0.1316  0.0382
 6295TIP3    H140520   3.964   1.698   8.293 -0.2833  1.2475 -2.4653
 6295TIP3    H240521   4.025   1.833   8.264 -1.0444  2.4562  1.0460
 6296TIP3   OH240522   1.420   5.297   8.178  0.2977 -0.7860  0.4183
 6296TIP3    H140523   1.446   5.347   8.256  0.2137  0.3142 -0.2298
 6296TIP3    H240524   1.474   5.219   8.181 -1.3626 -1.9658  2.8356
 6297TIP3   OH240525   4.517   5.540   6.444 -0.5616  0.0045 -0.6403
 6297TIP3    H140526   4.589   5.483   6.468  0.2531  0.3539 -2.1309
 6297TIP3    H240527   4.476   5.564   6.527  0.1020 -1.3961  0.1196
 6298TIP3   OH240528   0.534   2.710   2.643 -0.6039  0.6408 -0.1066
 6298TIP3    H140529   0.598   2.745   2.580  0.6968  1.1739  1.4349
 6298TIP3    H240530   0.525   2.779   2.709  0.5707 -1.0936  2.0137
 6299TIP3   OH240531   5.912   3.883   2.635 -0.5095 -0.0872  0.0912
 6299TIP3    H140532   5.970   3.865   2.709  0.3216 -1.0259 -0.7620
 6299TIP3    H240533   5.871   3.799   2.615  1.4971 -0.6245 -2.3351
 6300TIP3   OH240534   1.867   4.145   0.377 -0.7611  0.3844 -0.2814
 6300TIP3    H140535   1.892   4.208   0.310 -0.6691 -0.1133 -0.7198
 6300TIP3    H240536   1.790   4.101   0.341 -0.5679 -0.0527 -0.1723
 6301TIP3   OH240537   6.471   0.842   1.378 -0.2222 -0.0326 -0.4330
 6301TIP3    H140538   6.446   0.773   1.440  0.2440  1.8776  2.0169
 6301TIP3    H240539   6.555   0.874   1.409  1.0815 -0.3205 -3.3199
 6302TIP3   OH240540   4.044   3.459   1.262  0.3480  0.5949 -0.3310
 6302TIP3    H140541   3.972   3.424   1.209 -0.0698  0.9176  0.0103
 6302TIP3    H240542   4.035   3.416   1.347  0.3414  0.9027 -0.1752
 6303TIP3   OH240543   0.914   3.782   6.610 -0.0914 -0.2692 -0.0957
 6303TIP3    H140544   0.920   3.863   6.558 -1.1439 -0.1015  0.0318
 6303TIP3    H240545   0.850   3.802   6.678  1.4158 -0.4059  1.4370
 6304TIP3   OH240546   0.992   2.778   2.532  0.4338 -0.8357 -0.1307
 6304TIP3    H140547   1.045   2.815   2.603 -0.5948 -0.2109  0.3235
 6304TIP3    H240548   1.018   2.686   2.529  1.5508 -0.5429  0.0781
 6305TIP3   OH240549   1.464   6.156   0.590 -0.0737 -0.5431 -0.1337
 6305TIP3    H140550   1.424   6.105   0.659 -0.7802  0.3774  0.1588
 6305TIP3    H240551   1.558   6.155   0.610 -0.0266 -2.0019 -0.3516
 6306TIP3   OH240552   4.776   3.109   7.283 -0.7088 -0.2759  1.0304
 6306TIP3    H140553   4.732   3.025   7.276  3.4061 -2.6244 -0.2738
 6306TIP3    H240554   4.761   3.152   7.198 -0.3558 -1.1420  0.5203
 6307TIP3   OH240555   6.772   0.138   7.470 -0.0077  0.3724 -0.4394
 6307TIP3    H140556   6.750   0.118   7.379 -0.6146 -1.4475  0.0595
 6307TIP3    H240557   6.703   0.199   7.499 -0.8317 -0.4166 -0.7066
 6308TIP3   OH240558   1.982   2.387   0.664 -0.0976 -0.2893 -1.0041
 6308TIP3    H140559   2.012   2.462   0.613  0.0613  1.2767  1.2078
 6308TIP3    H240560   2.059   2.360   0.714 -0.9354  0.2407  0.6521
 6309TIP3   OH240561   1.748   4.566   6.993  0.1959 -0.0164  0.3346
 6309TIP3    H140562   1.789   4.602   6.914 -1.2154  2.2041  0.5277
 6309TIP3    H240563   1.796   4.606   7.065 -0.3204  0.1743  0.5761
 6310TIP3   OH240564   6.608   3.924   0.966  0.0406  0.4038  0.3541
 6310TIP3    H140565   6.573   3.978   0.896 -0.3661  0.4597  0.5977
 6310TIP3    H240566   6.564   3.955   1.045  1.0623  0.8612  0.7632
 6311TIP3   OH240567   4.122   3.756   2.064  0.2985  0.0150 -0.4099
 6311TIP3    H140568   4.208   3.780   2.098  0.4853 -0.9801 -0.1531
 6311TIP3    H240569   4.060   3.786   2.131  0.5753 -0.8115  0.2245
 6312TIP3   OH240570   3.904   2.249   7.938  0.4367 -0.2233  0.4297
 6312TIP3    H140571   3.970   2.302   7.894 -1.2752  1.4174 -0.2727
 6312TIP3    H240572   3.821   2.292   7.919 -0.6271 -0.6173  3.5518
 6313TIP3   OH240573   3.170   3.581   0.045  0.0366  0.3445  0.2141
 6313TIP3    H140574   3.261   3.609   0.034 -0.0664  0.6417  0.0739
 6313TIP3    H240575   3.167   3.538   0.130  0.1507  1.0156  0.5700
 6314TIP3   OH240576   1.201   3.070   8.190  0.0197 -0.0416  0.4419
 6314TIP3    H140577   1.124   3.013   8.188  1.3552 -1.9890  1.6014
 6314TIP3    H240578   1.241   3.053   8.275  1.5048  1.2430  0.0387
 6315TIP3   OH240579   3.860   0.313   0.009  0.2108 -0.5067  0.3216
 6315TIP3    H140580   3.946   0.272  -0.004 -0.4485 -2.9583  2.6525
 6315TIP3    H240581   3.799   0.251  -0.030 -0.6196  0.4757  0.0247
 6316TIP3   OH240582   6.132   0.629   8.059  0.7912  0.0010 -0.3964
 6316TIP3    H140583   6.121   0.682   8.139  0.9488  1.7307 -1.4600
 6316TIP3    H240584   6.195   0.562   8.083  0.4315  0.1480  1.0887
 6317TIP3   OH240585   3.700   2.366   7.399 -0.8738  0.0770 -0.1772
 6317TIP3    H140586   3.705   2.340   7.307  0.0699  0.1793 -0.1597
 6317TIP3    H240587   3.679   2.285   7.446  1.0423 -0.4872 -0.2295
 6318TIP3   OH240588   2.911   1.604   0.916 -0.2772  0.1869  0.3860
 6318TIP3    H140589   2.882   1.532   0.859 -0.8140 -0.5052  1.5139
 6318TIP3    H240590   3.003   1.586   0.932 -0.2888  0.0260  0.2749
 6319TIP3   OH240591   2.919   3.994   2.778 -0.8341  0.2884  0.0849
 6319TIP3    H140592   2.888   3.925   2.837  0.4316 -0.2254  0.1768
 6319TIP3    H240593   3.006   3.966   2.751 -0.4355  1.6731 -0.1727
 6320TIP3   OH240594   4.096   6.567   8.500  0.4331  0.1390  0.2309
 6320TIP3    H140595   4.041   6.572   8.578  0.2252  2.3353  0.0197
 6320TIP3    H240596   4.155   6.642   8.509  1.1402 -0.2275 -1.1904
 6321TIP3   OH240597   1.520   4.021   7.831  0.0086 -0.0179  0.9719
 6321TIP3    H140598   1.517   3.983   7.744  2.6718  2.1562 -0.2310
 6321TIP3    H240599   1.428   4.037   7.854 -0.7502  1.2700 -2.3957
 6322TIP3   OH240600   0.898   4.561   7.544  0.4438  0.2430 -0.3511
 6322TIP3    H140601   0.852   4.482   7.573 -1.7863  1.1706 -1.1448
 6322TIP3    H240602   0.835   4.631   7.558  2.5846  2.0473  0.9329
 6323TIP3   OH240603   2.300   3.235   0.693  0.1905  0.0645  0.8018
 6323TIP3    H140604   2.350   3.312   0.668  0.8385 -1.2692 -2.5888
 6323TIP3    H240605   2.215   3.247   0.653  0.9878 -1.8065 -1.7168
 6324TIP3   OH240606   3.718   0.694   1.669  0.3357 -0.4247  0.1419
 6324TIP3    H140607   3.689   0.759   1.732  0.1609 -1.0863  0.7624
 6324TIP3    H240608   3.662   0.708   1.592 -0.3236 -0.4271  0.6112
 6325TIP3   OH240609   2.042   0.405   6.301  0.3125 -0.5341 -0.3489
 6325TIP3    H140610   2.115   0.344   6.292  0.9111  0.2346 -0.9136
 6325TIP3    H240611   1.982   0.383   6.230  0.0598 -1.0721  0.0266
 6326TIP3   OH240612   5.749   5.401   1.642  0.2212 -0.4143 -0.1812
 6326TIP3    H140613   5.806   5.392   1.566 -1.4724  0.6640 -1.6742
 6326TIP3    H240614   5.707   5.316   1.651 -1.7699  0.1998 -2.4218
 6327TIP3   OH240615   3.834   1.807   0.765  0.5454 -0.2592  0.0975
 6327TIP3    H140616   3.761   1.830   0.823  1.0309 -1.9622  1.5089
 6327TIP3    H240617   3.891   1.883   0.767 -0.9233  0.9092 -0.6332
 6328TIP3   OH240618   4.038   3.973   1.363 -0.2023 -0.1458 -0.9301
 6328TIP3    H140619   3.943   3.977   1.368 -0.1522  0.8037 -0.6120
 6328TIP3    H240620   4.063   3.910   1.431 -0.4987  0.9363  0.2077
 6329TIP3   OH240621   1.006   5.360   8.260  0.1420  0.2204  0.4973
 6329TIP3    H140622   0.949   5.312   8.320 -0.7879  0.3329 -0.2798
 6329TIP3    H240623   1.052   5.423   8.315 -0.7927  0.4095  1.0737
 6330TIP3   OH240624   6.401   5.256   7.749  0.1663 -0.0306 -0.2759
 6330TIP3    H140625   6.494   5.269   7.730  0.0677  1.2227  0.0020
 6330TIP3    H240626   6.393   5.276   7.843 -0.4921  0.6128 -0.4596
 6331TIP3   OH240627   4.438   0.283   7.093  0.0757 -0.1433  0.4582
 6331TIP3    H140628   4.415   0.271   7.000 -0.0974  1.2582  0.2933
 6331TIP3    H240629   4.449   0.378   7.102  0.6141 -0.3167  1.7602
 6332TIP3   OH240630   3.614   2.675   0.539  0.4255 -0.4260 -0.2275
 6332TIP3    H140631   3.618   2.582   0.563  2.0319 -0.6545 -1.2327
 6332TIP3    H240632   3.703   2.696   0.510  0.0393  1.3915 -0.2006
 6333TIP3   OH240633   4.475   6.701   7.262 -0.2939 -0.2348  0.2344
 6333TIP3    H140634   4.499   6.696   7.354  0.4603  0.8671  0.1114
 6333TIP3    H240635   4.544   6.653   7.216  2.0324  3.1681 -0.1455
 6334TIP3   OH240636   6.196   6.922   0.625  0.0005 -0.0582 -0.2162
 6334TIP3    H140637   6.238   6.958   0.548 -1.1237  0.2254 -0.7226
 6334TIP3    H240638   6.192   6.827   0.608  0.0384 -0.0345 -0.3574
 6335TIP3   OH240639   1.300   3.952   0.081  0.5531 -0.3481  0.1487
 6335TIP3    H140640   1.289   4.037   0.122 -0.7674 -0.8239  0.8394
 6335TIP3    H240641   1.263   3.962  -0.007  2.1642  0.2981 -0.4914
 6336TIP3   OH240642   0.953   0.002   0.100  0.0749 -0.0326  0.1440
 6336TIP3    H140643   0.934   0.049   0.019 -1.3247 -1.0564 -0.1638
 6336TIP3    H240644   1.040  -0.035   0.086  0.7102  1.4839 -0.0545
 6337TIP3   OH240645   5.026   0.136   0.111 -0.2106 -0.2473 -0.0320
 6337TIP3    H140646   5.014   0.130   0.206  0.2462 -1.5833 -0.0501
 6337TIP3    H240647   5.078   0.060   0.088 -2.2783 -1.2691 -1.6791
 6338TIP3   OH240648   5.100   6.821   6.991 -0.0949  0.2495 -0.0113
 6338TIP3    H140649   5.026   6.879   7.009 -1.2755 -1.5000  1.0330
 6338TIP3    H240650   5.090   6.795   6.900  0.2168  1.3280 -0.3679
 6339TIP3   OH240651   4.638   0.910   1.586  0.1663 -0.3605  0.0437
 6339TIP3    H140652   4.706   0.845   1.566 -0.0076 -0.7988  0.8483
 6339TIP3    H240653   4.670   0.991   1.546  0.4914 -0.8807 -0.7826
 6340TIP3   OH240654   2.543   5.890   2.287  0.3275 -0.2562 -0.3346
 6340TIP3    H140655   2.477   5.829   2.253 -0.0116 -2.1004  3.1032
 6340TIP3    H240656   2.626   5.857   2.253 -0.2144  0.4088 -2.4521
 6341TIP3   OH240657   0.143   2.101   7.270 -0.2906 -0.2370 -0.1208
 6341TIP3    H140658   0.193   2.124   7.192 -2.1763 -1.6336 -1.8614
 6341TIP3    H240659   0.148   2.006   7.274 -0.5387 -0.2089  1.2815
 6342TIP3   OH240660   3.916   5.696   0.251  0.0514 -0.4888 -0.3616
 6342TIP3    H140661   3.829   5.732   0.231  0.4395  0.6389 -0.1198
 6342TIP3    H240662   3.899   5.622   0.308 -0.7150  0.3920  0.5922
 6343TIP3   OH240663   6.192   5.258   0.166  0.2916 -0.1857  0.1280
 6343TIP3    H140664   6.114   5.311   0.183  0.3685 -0.2276  0.6138
 6343TIP3    H240665   6.218   5.224   0.251  0.5653 -0.5620 -0.0994
 6344TIP3   OH240666   3.157   2.808   1.073 -0.1574 -0.6324  0.2546
 6344TIP3    H140667   3.177   2.876   1.008 -1.7807  0.7170  1.0637
 6344TIP3    H240668   3.143   2.729   1.022 -1.3572  0.3792 -1.1057
 6345TIP3   OH240669   3.981   2.477   0.115  0.6618  0.2423 -0.4284
 6345TIP3    H140670   4.076   2.483   0.109  0.6438  1.7307  0.2607
 6345TIP3    H240671   3.950   2.566   0.095 -0.4512  0.3084  1.3859
 6346TIP3   OH240672   2.249   4.604   3.099 -0.1972  0.3891 -0.4373
 6346TIP3    H140673   2.338   4.598   3.133 -0.4451  1.7444  0.5570
 6346TIP3    H240674   2.257   4.588   3.005  1.0504  0.1970 -0.3072
 6347TIP3   OH240675   4.664   6.952   7.123 -0.0937 -0.2320 -0.1962
 6347TIP3    H140676   4.727   7.001   7.070 -1.5147 -0.0857 -1.8601
 6347TIP3    H240677   4.701   6.864   7.128  1.8748  0.6231  1.7750
 6348TIP3   OH240678   5.032   1.480   8.238  0.3998  0.4441  0.0800
 6348TIP3    H140679   5.118   1.490   8.280  0.9394  0.0957 -0.8917
 6348TIP3    H240680   5.037   1.533   8.159  0.3315 -0.8384 -0.8316
 6349TIP3   OH240681   6.704   5.319   7.951 -0.2386 -0.4898  0.3621
 6349TIP3    H140682   6.674   5.389   8.010 -0.9827 -1.9053  1.7114
 6349TIP3    H240683   6.691   5.238   8.001  2.4886 -1.4850 -0.3734
 6350TIP3   OH240684   1.263   2.393   7.238 -0.0092  0.0964 -0.5017
 6350TIP3    H140685   1.306   2.456   7.295 -2.2770  1.1233  0.1649
 6350TIP3    H240686   1.260   2.436   7.152 -0.7473  0.5418 -0.2609
 6351TIP3   OH240687   3.565   0.616   1.455 -0.0345  0.8053 -0.4598
 6351TIP3    H140688   3.615   0.550   1.407 -1.5198 -0.7216 -0.0130
 6351TIP3    H240689   3.477   0.611   1.418 -0.1731  2.6401 -0.4682
 6352TIP3   OH240690   1.659   3.730   7.503  0.1087  0.5347  0.0544
 6352TIP3    H140691   1.753   3.737   7.519 -0.0784  1.5240  0.8341
 6352TIP3    H240692   1.620   3.795   7.561 -1.0386  0.3447 -0.4751
 6353TIP3   OH240693   0.320   3.147   0.550 -0.4747  0.1047  0.2435
 6353TIP3    H140694   0.262   3.210   0.592 -0.1629 -0.3669  1.4285
 6353TIP3    H240695   0.308   3.066   0.601 -1.1115 -0.9029 -1.4293
 6354TIP3   OH240696   4.732   6.947   0.877 -0.4141 -0.3114  0.1974
 6354TIP3    H140697   4.698   6.858   0.868  0.4740 -0.5674 -0.7311
 6354TIP3    H240698   4.790   6.943   0.953 -0.0098 -0.6475 -0.1244
 6355TIP3   OH240699   5.851   3.010   0.649 -0.0364 -0.5783 -0.1106
 6355TIP3    H140700   5.841   2.965   0.733  1.0607 -0.4695  0.0894
 6355TIP3    H240701   5.938   3.049   0.653  0.2787 -1.0805 -1.5475
 6356TIP3   OH240702   6.936   6.254   1.296  0.3557 -0.7971 -0.4283
 6356TIP3    H140703   6.940   6.334   1.349 -0.0128 -2.3611  2.1674
 6356TIP3    H240704   6.862   6.267   1.238 -0.5510  0.2429  0.8891
 6357TIP3   OH240705   2.637   2.645   8.505  0.8007 -0.0637 -0.1320
 6357TIP3    H140706   2.701   2.655   8.576  2.6049 -0.4733 -1.6187
 6357TIP3    H240707   2.668   2.568   8.456  0.1201  0.7156 -1.8463
 6358TIP3   OH240708   3.514   3.806   8.359  0.6411 -0.6284 -0.5121
 6358TIP3    H140709   3.576   3.799   8.286  0.6602 -0.3934 -0.5186
 6358TIP3    H240710   3.451   3.873   8.330  1.5821  0.6762  0.3670
 6359TIP3   OH240711   5.598   5.765   6.802  0.3393  0.3631  0.0239
 6359TIP3    H140712   5.694   5.766   6.807  0.3598 -0.3960 -0.1680
 6359TIP3    H240713   5.570   5.747   6.892  0.4368 -1.5492 -0.2978
 6360TIP3   OH240714   1.166   0.465   6.244  0.0108  0.9234 -0.4239
 6360TIP3    H140715   1.232   0.403   6.274 -1.0111  0.1118  0.2413
 6360TIP3    H240716   1.111   0.414   6.184 -0.1170  1.5298 -0.8372
 6361TIP3   OH240717   6.722   2.540   1.328  0.1604  0.6112 -0.6771
 6361TIP3    H140718   6.715   2.632   1.355  0.8710  0.3387  0.4909
 6361TIP3    H240719   6.633   2.505   1.341  0.3968  0.5694  1.1216
 6362TIP3   OH240720   0.371   2.840   7.877  1.0626  0.1564  0.5422
 6362TIP3    H140721   0.461   2.867   7.859  0.8451  1.3294  1.1101
 6362TIP3    H240722   0.337   2.810   7.793  1.6795  0.6450  0.1166
 6363TIP3   OH240723   4.368   4.534   2.482 -0.0173 -0.0961  0.1431
 6363TIP3    H140724   4.360   4.460   2.543  0.6082  0.8906  1.4856
 6363TIP3    H240725   4.463   4.546   2.473 -0.1056  1.0251  0.5757
 6364TIP3   OH240726   3.699   4.065   0.816  0.3446  0.0265 -0.3826
 6364TIP3    H140727   3.740   3.979   0.821  1.2313  0.3542 -1.5743
 6364TIP3    H240728   3.760   4.118   0.765 -0.5220  1.1599 -0.2786
 6365TIP3   OH240729   6.426   6.846   0.984  0.0624 -0.2040 -0.3677
 6365TIP3    H140730   6.464   6.853   0.896  1.4832 -1.2794  0.1219
 6365TIP3    H240731   6.334   6.869   0.972  0.6482  1.6540 -1.7687
 6366TIP3   OH240732   0.558   0.263   8.514 -0.8423  0.6888 -0.1850
 6366TIP3    H140733   0.647   0.290   8.538 -0.3642 -0.5061 -0.4901
 6366TIP3    H240734   0.564   0.167   8.509 -2.2625  0.5645  0.2179
 6367TIP3   OH240735   2.322   1.933   1.446  0.0683 -0.0961  0.1808
 6367TIP3    H140736   2.252   1.883   1.404 -0.5546 -0.2608  1.3666
 6367TIP3    H240737   2.396   1.927   1.385 -0.6814 -0.6267 -0.7022
 6368TIP3   OH240738   6.173   2.395   1.466 -0.5499  0.2758 -0.2731
 6368TIP3    H140739   6.108   2.346   1.416 -0.6363  0.0768  0.0318
 6368TIP3    H240740   6.172   2.355   1.553 -2.1164  2.1174  0.6301
 6369TIP3   OH240741   3.543   4.723   1.977  0.2602  0.0389  0.4589
 6369TIP3    H140742   3.533   4.777   1.898 -1.6631 -0.6227  0.1827
 6369TIP3    H240743   3.637   4.712   1.987  0.5722  0.3643 -1.6044
 6370TIP3   OH240744   2.262   4.345   7.443  0.5555  0.7824 -0.0537
 6370TIP3    H140745   2.204   4.421   7.447 -0.4023  0.2456 -2.3330
 6370TIP3    H240746   2.323   4.365   7.372  1.1021 -0.0612  0.1607
 6371TIP3   OH240747   3.975   5.540   7.329  0.1314  0.0220  0.2237
 6371TIP3    H140748   3.958   5.447   7.346  0.1573  0.6057  4.6168
 6371TIP3    H240749   4.070   5.546   7.322  0.1593 -0.2475  0.3430
 6372TIP3   OH240750   6.344   5.917   0.120  0.2970  0.1107  0.1725
 6372TIP3    H140751   6.360   6.007   0.091  1.2322  0.0158  0.3579
 6372TIP3    H240752   6.339   5.922   0.215 -1.6687  0.2527  0.0966
 6373TIP3   OH240753   4.668   5.207   6.850  0.1800  0.4753  0.2792
 6373TIP3    H140754   4.740   5.186   6.910 -0.1103 -0.8524  0.2029
 6373TIP3    H240755   4.624   5.123   6.836 -1.4865  1.2916  0.4436
 6374TIP3   OH240756   3.832   3.130   7.706  0.3380  0.1641 -0.2155
 6374TIP3    H140757   3.852   3.183   7.628 -1.0633 -0.3709 -0.9934
 6374TIP3    H240758   3.782   3.189   7.762  0.5070  0.2621 -0.1679
 6375TIP3   OH240759   1.655   2.953   7.759 -0.3312  0.2780  0.1933
 6375TIP3    H140760   1.577   3.010   7.759  0.4008  1.3152 -0.2336
 6375TIP3    H240761   1.728   3.014   7.764  0.4448 -0.7245  2.0284
 6376TIP3   OH240762   0.726   5.070   1.096 -0.0351 -0.1002 -0.2683
 6376TIP3    H140763   0.752   4.983   1.066  3.0804  0.7018 -0.2790
 6376TIP3    H240764   0.730   5.124   1.017 -0.1731  0.4126  0.0718
 6377TIP3   OH240765   6.321   2.346   7.896  0.2320 -0.3149 -0.2740
 6377TIP3    H140766   6.401   2.321   7.851  0.4290  2.2016 -1.4826
 6377TIP3    H240767   6.350   2.392   7.974 -0.0120  0.6351 -0.7321
 6378TIP3   OH240768   1.938   2.783   7.070 -0.2632  0.0407  0.2984
 6378TIP3    H140769   1.940   2.872   7.033 -1.4319  0.2014  0.5969
 6378TIP3    H240770   1.983   2.791   7.154 -0.6417  0.4220  0.4674
 6379TIP3   OH240771   5.966   6.499   1.938 -0.3512 -0.4891 -0.1897
 6379TIP3    H140772   6.042   6.441   1.931  1.3228  1.4721  0.6179
 6379TIP3    H240773   5.990   6.575   1.884 -1.4897  0.4237  0.5662
 6380TIP3   OH240774   0.023   2.576   7.612 -0.6799  1.0036  0.1999
 6380TIP3    H140775   0.080   2.547   7.541 -1.6345  1.0741 -0.6335
 6380TIP3    H240776   0.006   2.497   7.663  2.2622  1.4428  2.0976
 6381TIP3   OH240777   4.267   4.566   8.151  0.1442  0.1713  0.6417
 6381TIP3    H140778   4.231   4.647   8.189  2.3801  0.4042  2.5295
 6381TIP3    H240779   4.269   4.505   8.225 -0.6171 -1.3272 -0.5379
 6382TIP3   OH240780   1.636   3.308   2.212 -0.2503  0.4326 -0.6887
 6382TIP3    H140781   1.686   3.320   2.293 -2.1970 -1.4179  0.9104
 6382TIP3    H240782   1.578   3.234   2.231 -0.7640 -0.0836 -3.8233
 6383TIP3   OH240783   0.121   0.908   0.932 -0.2713 -0.2018  0.2445
 6383TIP3    H140784   0.037   0.862   0.927 -0.4658  0.2452 -1.6967
 6383TIP3    H240785   0.181   0.846   0.972 -1.5354 -0.4905  1.7570
 6384TIP3   OH240786   1.106   3.573   8.273  0.3248  0.0651  0.4766
 6384TIP3    H140787   1.138   3.518   8.202  0.7824 -0.3877  1.0233
 6384TIP3    H240788   1.011   3.576   8.260  0.2476 -1.1412  0.6258
 6385TIP3   OH240789   3.966   3.024   2.715  0.4227  0.0063  0.6557
 6385TIP3    H140790   4.012   2.957   2.664  0.6983  0.9111 -0.3210
 6385TIP3    H240791   3.914   2.974   2.778  0.9746 -1.1098  0.2654
 6386TIP3   OH240792   1.805   2.843   1.544  0.2527 -0.3132 -0.1573
 6386TIP3    H140793   1.747   2.919   1.537  0.6775  0.1981  1.3894
 6386TIP3    H240794   1.879   2.874   1.598 -0.0333 -2.0548  1.3474
 6387TIP3   OH240795   2.339   0.425   0.478  0.1239 -0.3426 -0.0603
 6387TIP3    H140796   2.276   0.355   0.461  0.7503 -1.4454  1.8658
 6387TIP3    H240797   2.291   0.505   0.459 -0.6670 -1.2383 -2.1609
 6388TIP3   OH240798   5.684   6.184   7.776  0.1073  0.0503  0.1656
 6388TIP3    H140799   5.718   6.149   7.859  0.8759 -1.9472 -0.9214
 6388TIP3    H240800   5.594   6.211   7.797  0.5481  0.3534  1.8186
 6389TIP3   OH240801   6.816   1.063   3.065  0.9859 -0.8123 -0.4743
 6389TIP3    H140802   6.829   0.973   3.094  2.0455 -0.2134  1.0180
 6389TIP3    H240803   6.888   1.112   3.105 -0.6111  1.0425  0.3217
 6390TIP3   OH240804   0.275   0.470   1.700  0.5763 -0.1048 -0.3756
 6390TIP3    H140805   0.333   0.529   1.748 -2.3926  1.4405  1.5854
 6390TIP3    H240806   0.257   0.398   1.761  1.2518 -1.1877 -1.3931
 6391TIP3   OH240807   2.323   5.411   0.751 -0.2369 -0.0839  0.5055
 6391TIP3    H140808   2.376   5.333   0.758 -0.8843 -0.6184 -0.3261
 6391TIP3    H240809   2.259   5.404   0.822 -0.5373 -0.5055  0.1947
 6392TIP3   OH240810   4.299   6.594   0.608 -0.1012 -0.2144 -0.0541
 6392TIP3    H140811   4.285   6.534   0.535 -0.8801 -2.2478  1.6875
 6392TIP3    H240812   4.238   6.566   0.675 -0.0085  2.1289  1.1165
 6393TIP3   OH240813   5.292   5.605   8.006  0.4444 -0.4255 -0.0751
 6393TIP3    H140814   5.285   5.698   8.025 -0.3620  0.0178 -2.3046
 6393TIP3    H240815   5.342   5.569   8.080  1.5522  1.9035  0.3938
 6394TIP3   OH240816   0.195   2.225   0.937  0.4034 -0.4483 -0.5484
 6394TIP3    H140817   0.249   2.304   0.938 -2.2265  1.4862 -0.6400
 6394TIP3    H240818   0.195   2.196   0.846 -0.4186  0.8328 -0.9747
 6395TIP3   OH240819   2.438   4.104   2.530  0.5383  0.4549 -0.7076
 6395TIP3    H140820   2.382   4.094   2.607  0.1159  1.1619 -0.9105
 6395TIP3    H240821   2.517   4.146   2.563 -0.1495  1.9133 -0.8425
 6396TIP3   OH240822   5.880   0.961   2.134  0.0251  0.2556 -0.4959
 6396TIP3    H140823   5.832   0.886   2.099 -1.8102  0.7649  0.7275
 6396TIP3    H240824   5.850   1.036   2.082  0.6718  0.3600 -0.7204
 6397TIP3   OH240825   1.247   0.049   7.789 -0.3303  0.2769 -0.9039
 6397TIP3    H140826   1.160   0.027   7.757  0.1517 -0.8337 -1.5077
 6397TIP3    H240827   1.307   0.002   7.730  0.5916 -2.1112  1.7037
 6398TIP3   OH240828   3.528   1.120   7.555  0.0924 -0.6119  0.0424
 6398TIP3    H140829   3.509   1.075   7.473  0.9149  0.2987 -0.6731
 6398TIP3    H240830   3.497   1.210   7.541 -0.5486 -0.6581  1.0520
 6399TIP3   OH240831   6.001   1.706   1.939  0.2953  0.0174 -0.3084
 6399TIP3    H140832   6.011   1.621   1.982  0.6339 -0.2750 -0.9441
 6399TIP3    H240833   6.029   1.770   2.005 -0.1056 -0.3508  0.2238
 6400TIP3   OH240834   2.885   3.278   0.317 -0.4093  0.2780 -0.2000
 6400TIP3    H140835   2.888   3.209   0.251 -1.8544 -0.1572  0.1536
 6400TIP3    H240836   2.838   3.350   0.275  0.3153  0.7341 -0.2603
 6401TIP3   OH240837   2.937   3.896   1.149 -0.0549  0.4450  0.5104
 6401TIP3    H140838   2.999   3.947   1.201 -0.5513  1.7345 -0.1050
 6401TIP3    H240839   2.873   3.961   1.118 -1.0040 -0.6412  0.1075
 6402TIP3   OH240840   0.007   2.214   1.387  0.4521 -0.4356  0.0602
 6402TIP3    H140841  -0.055   2.266   1.438 -1.9148 -3.6707  0.8110
 6402TIP3    H240842   0.080   2.199   1.446  0.5616  0.8652  0.2880
 6403TIP3   OH240843   2.883   0.849   0.111  0.6572 -0.1455  0.0788
 6403TIP3    H140844   2.870   0.944   0.102  0.6578 -0.3492 -3.1390
 6403TIP3    H240845   2.976   0.840   0.133  0.6105  0.5899  0.6291
 6404TIP3   OH240846   2.663   4.267   8.026  0.3684  0.2618 -0.0955
 6404TIP3    H140847   2.737   4.308   8.069 -0.5494  0.2704  1.5350
 6404TIP3    H240848   2.619   4.338   7.979 -0.2254  0.8310  1.2898
 6405TIP3   OH240849   3.762   4.529   1.110 -0.5745 -0.7309  0.2989
 6405TIP3    H140850   3.853   4.552   1.089 -0.4820 -0.0406  1.3908
 6405TIP3    H240851   3.753   4.439   1.081  0.5365 -0.8929  0.4001
 6406TIP3   OH240852   1.011   2.957   0.000  0.6943 -0.1470  0.1431
 6406TIP3    H140853   1.009   2.868  -0.034 -0.6921  0.2176 -0.7712
 6406TIP3    H240854   1.072   3.003  -0.058 -0.9201  0.2289 -1.3448
 6407TIP3   OH240855   3.030   0.345   8.275 -0.1853  1.1438 -0.1685
 6407TIP3    H140856   3.029   0.397   8.195  1.4051 -0.8892 -1.6293
 6407TIP3    H240857   2.968   0.273   8.258  2.7830 -1.3707 -1.2241
 6408TIP3   OH240858   5.262   4.420   7.189  0.4441  0.0182  0.3497
 6408TIP3    H140859   5.193   4.354   7.194 -1.2515  1.7949  1.9586
 6408TIP3    H240860   5.216   4.501   7.168  2.1492  1.1636  0.8217
 6409TIP3   OH240861   1.362   6.249   2.306 -0.1244  0.5059 -0.6820
 6409TIP3    H140862   1.331   6.191   2.376 -0.9519 -0.8575 -2.1009
 6409TIP3    H240863   1.364   6.336   2.346 -0.5181 -0.2303  1.0359
 6410TIP3   OH240864   0.526   2.081   2.834 -1.0728 -0.1144 -0.5118
 6410TIP3    H140865   0.578   2.147   2.789 -1.8915  1.0196  0.1268
 6410TIP3    H240866   0.561   2.079   2.923 -2.5988  1.3040  0.1853
 6411TIP3   OH240867   1.860   6.836   2.267 -0.5807 -0.0466 -0.3792
 6411TIP3    H140868   1.885   6.793   2.349 -1.4842  2.5645  1.3830
 6411TIP3    H240869   1.768   6.813   2.255 -0.5077 -0.2539 -0.5377
 6412TIP3   OH240870   5.176   6.139   8.245 -0.2314  0.3173  0.2561
 6412TIP3    H140871   5.250   6.091   8.282 -0.2988 -1.1263 -1.3495
 6412TIP3    H240872   5.188   6.132   8.150 -2.5565 -0.2108 -0.0632
 6413TIP3   OH240873   5.991   1.614   2.441 -0.0752  0.1828  0.3801
 6413TIP3    H140874   5.916   1.555   2.448  0.7327 -1.1195 -1.3462
 6413TIP3    H240875   6.065   1.563   2.474  0.3439  0.8975  0.5799
 6414TIP3   OH240876   4.054   0.438   0.716 -0.0385 -0.4409 -0.3544
 6414TIP3    H140877   4.118   0.508   0.709  1.1649 -1.5593 -1.2696
 6414TIP3    H240878   4.105   0.358   0.703 -1.2228 -1.5603  1.4001
 6415TIP3   OH240879   5.163   6.584   7.469  0.3079 -0.6531 -0.2934
 6415TIP3    H140880   5.196   6.638   7.397  1.3883 -0.2867  0.4534
 6415TIP3    H240881   5.111   6.644   7.522 -0.7225 -0.9878 -0.8939
 6416TIP3   OH240882   5.720   5.591   7.100  0.2987  1.1159  0.2291
 6416TIP3    H140883   5.815   5.592   7.113  0.3492  0.5715 -0.0618
 6416TIP3    H240884   5.691   5.676   7.131  0.8331  1.1283  0.7218
 6417TIP3   OH240885   6.205   0.570   2.175 -0.5663  0.4017  0.4268
 6417TIP3    H140886   6.135   0.585   2.239 -2.9753 -0.2981 -1.8933
 6417TIP3    H240887   6.198   0.478   2.152  1.1334  0.3202  0.0950
 6418TIP3   OH240888   2.523   5.430   8.077 -0.0126  0.1148 -0.2216
 6418TIP3    H140889   2.436   5.460   8.051 -0.5934 -2.7302 -2.0775
 6418TIP3    H240890   2.563   5.505   8.122 -2.7924  2.0337 -0.7333
 6419TIP3   OH240891   3.500   5.217   7.833 -0.1032  0.8264  0.3363
 6419TIP3    H140892   3.480   5.127   7.808 -3.3409  1.5787 -0.1777
 6419TIP3    H240893   3.587   5.233   7.796 -0.4561 -1.3022 -1.6797
 6420TIP3   OH240894   4.313   3.469   1.118  0.4963  0.0482  0.0263
 6420TIP3    H140895   4.317   3.505   1.029  3.6440  2.1020  0.8227
 6420TIP3    H240896   4.243   3.518   1.161  0.1369  0.2814 -0.8100
 6421TIP3   OH240897   0.936   6.322   0.008 -0.2945 -0.0872  0.1823
 6421TIP3    H140898   0.964   6.345  -0.081 -1.3226 -0.0859 -0.1542
 6421TIP3    H240899   0.936   6.226   0.009  2.6266 -0.1984  1.1512
 6422TIP3   OH240900   1.753   0.079   7.689  0.3500  0.1103  0.2965
 6422TIP3    H140901   1.717   0.055   7.774 -0.1749  3.4290  1.1479
 6422TIP3    H240902   1.684   0.130   7.647  2.1789  2.3932 -0.1266
 6423TIP3   OH240903   6.226   3.887   0.782  0.0474  0.2987  0.9454
 6423TIP3    H140904   6.160   3.955   0.795  0.9267  1.1009  1.3238
 6423TIP3    H240905   6.181   3.806   0.803 -1.5668  0.5374 -1.2959
 6424TIP3   OH240906   1.017   4.810   1.175 -0.0800  0.5951 -0.2628
 6424TIP3    H140907   1.044   4.769   1.093  0.4816 -1.5017  0.9189
 6424TIP3    H240908   0.979   4.739   1.227  0.4964  1.6495  1.7009
 6425TIP3   OH240909   2.467   6.695   2.461  0.3397  0.1256 -0.4444
 6425TIP3    H140910   2.542   6.646   2.493 -0.3809 -1.4164 -1.0125
 6425TIP3    H240911   2.400   6.629   2.443 -0.8086  1.3497 -0.9239
 6426TIP3   OH240912   1.631   1.037   0.259 -0.0496  0.3914  0.7840
 6426TIP3    H140913   1.719   1.001   0.271  0.8248  2.2216  0.2042
 6426TIP3    H240914   1.607   1.071   0.346 -0.4412 -0.6170  1.0796
 6427TIP3   OH240915   1.882   1.122   1.080 -1.2472 -0.5258  0.2186
 6427TIP3    H140916   1.866   1.049   1.020 -3.1973  0.4588 -0.5542
 6427TIP3    H240917   1.865   1.200   1.028 -0.3182  0.4713  1.3417
 6428TIP3   OH240918   2.474   3.336   7.303  0.3216  0.4309 -0.0761
 6428TIP3    H140919   2.450   3.394   7.231  0.5062  0.8910  0.2270
 6428TIP3    H240920   2.538   3.276   7.265  0.8763  1.0548 -0.1539
 6429TIP3   OH240921   2.476   5.933   2.601 -0.2456 -0.2735  0.1132
 6429TIP3    H140922   2.471   5.955   2.694 -2.2214 -1.0110  0.2290
 6429TIP3    H240923   2.518   5.847   2.599  0.1008 -0.1086  0.2971
 6430TIP3   OH240924   5.363   6.919   0.901 -0.4107  0.0970  0.0861
 6430TIP3    H140925   5.284   6.866   0.905  0.2998 -1.0673 -0.8887
 6430TIP3    H240926   5.406   6.893   0.819  0.1699  1.8836 -0.2325
 6431TIP3   OH240927   6.928   4.355   8.132 -0.5736 -0.0097  0.0861
 6431TIP3    H140928   6.842   4.324   8.160 -0.2233  0.2160  1.5071
 6431TIP3    H240929   6.914   4.447   8.108 -1.1289 -0.5499 -1.7562
 6432TIP3   OH240930   2.131   5.517   1.294 -0.3922 -0.0722  0.1378
 6432TIP3    H140931   2.221   5.484   1.304 -0.8635 -1.5506 -0.2630
 6432TIP3    H240932   2.129   5.555   1.206  0.0482  0.6784  0.4457
 6433TIP3   OH240933   1.836   1.681   0.297  0.1177  0.3313  1.1089
 6433TIP3    H140934   1.763   1.648   0.349 -1.0066 -1.6674 -1.5232
 6433TIP3    H240935   1.867   1.605   0.248  1.1615  2.0420 -1.0393
 6434TIP3   OH240936   0.947   6.537   2.408  0.5352  0.3331  0.1811
 6434TIP3    H140937   1.034   6.497   2.416  0.5957  0.6149  1.0595
 6434TIP3    H240938   0.886   6.467   2.432  0.5022  0.1252 -0.4677
 6435TIP3   OH240939   5.662   3.938   0.526  0.0465  0.7546 -0.2143
 6435TIP3    H140940   5.708   3.944   0.442 -0.2804  0.7181 -0.4020
 6435TIP3    H240941   5.594   4.005   0.520  0.6118  1.3843  0.4054
 6436TIP3   OH240942   2.667   0.673   0.184 -0.3166 -0.2710 -0.8263
 6436TIP3    H140943   2.731   0.734   0.148 -2.1237  2.6614  0.5446
 6436TIP3    H240944   2.593   0.677   0.124 -1.0535  0.1131  0.0887
 6437TIP3   OH240945   6.745   5.629   7.235  1.1745 -0.1182 -0.1870
 6437TIP3    H140946   6.766   5.692   7.303  0.4524  0.9233 -0.8907
 6437TIP3    H240947   6.769   5.673   7.153 -1.0777  0.0215 -0.8229
 6438TIP3   OH240948   3.032   6.584   7.474  0.2699 -0.3927  0.5363
 6438TIP3    H140949   3.089   6.580   7.397  0.4630  0.2661  0.6384
 6438TIP3    H240950   3.093   6.589   7.548  0.0847 -0.9158  0.7284
 6439TIP3   OH240951   0.263   1.432   1.785 -0.0068 -0.4874 -0.7602
 6439TIP3    H140952   0.186   1.402   1.737 -0.9108  1.2684 -0.5131
 6439TIP3    H240953   0.336   1.385   1.746 -1.1165 -1.6324 -1.5220
 6440TIP3   OH240954   2.891   3.787   6.885 -0.1219 -0.2239 -0.5395
 6440TIP3    H140955   2.980   3.816   6.868 -0.8762  2.2062 -0.6916
 6440TIP3    H240956   2.868   3.734   6.808  0.3359  1.2745 -1.7555
 6441TIP3   OH240957   4.470   0.430   2.016 -0.2601  0.3201  0.0663
 6441TIP3    H140958   4.543   0.456   1.960  0.9130 -1.4183  0.6699
 6441TIP3    H240959   4.505   0.436   2.105  0.3223 -3.4311  0.2747
 6442TIP3   OH240960   3.522   1.964   7.452 -0.1150  0.2785 -0.0428
 6442TIP3    H140961   3.616   1.953   7.461 -0.3155 -1.3086  0.4162
 6442TIP3    H240962   3.509   1.988   7.360  0.5192 -2.7860 -1.0288
 6443TIP3   OH240963   1.411   4.917   1.334 -0.0497 -0.6813 -0.0512
 6443TIP3    H140964   1.387   4.825   1.348 -0.6539 -0.3689  1.0651
 6443TIP3    H240965   1.464   4.940   1.410 -0.6162  0.1386  0.1021
 6444TIP3   OH240966   5.387   2.590   0.942 -0.5033  0.6944 -0.0533
 6444TIP3    H140967   5.443   2.594   1.020  0.8659  0.9773 -1.0052
 6444TIP3    H240968   5.300   2.612   0.974 -0.3535 -0.9895  1.7335
 6445TIP3   OH240969   0.557   2.669   7.698  0.5885 -0.4676 -0.0855
 6445TIP3    H140970   0.521   2.587   7.663 -0.6071 -1.4176  3.0588
 6445TIP3    H240971   0.622   2.641   7.762 -0.5068  0.9317  1.7352
 6446TIP3   OH240972   1.617   1.707   8.326 -0.5284  0.7859 -0.1630
 6446TIP3    H140973   1.543   1.750   8.369  1.0539  1.6591  1.8887
 6446TIP3    H240974   1.630   1.626   8.375 -0.3729  0.4111 -0.8051
 6447TIP3   OH240975   6.710   0.940   1.601  0.1996 -0.1174  0.3533
 6447TIP3    H140976   6.701   1.035   1.593 -1.7555 -0.2275  0.7852
 6447TIP3    H240977   6.726   0.925   1.695 -0.2356 -0.2583  0.4056
 6448TIP3   OH240978   5.194   3.457   1.441 -0.1341  0.0692  0.4164
 6448TIP3    H140979   5.184   3.520   1.513 -0.9665 -2.2483  2.4364
 6448TIP3    H240980   5.252   3.389   1.476 -1.7944 -1.9128 -0.4822
 6449TIP3   OH240981   6.534   0.444   7.420 -0.2520 -0.4370  0.3140
 6449TIP3    H140982   6.474   0.515   7.440 -0.3272 -0.2122 -0.6622
 6449TIP3    H240983   6.613   0.488   7.388  0.7431 -0.6867  2.2583
 6450TIP3   OH240984   2.630   4.938   8.086  0.1267 -0.0106 -0.2683
 6450TIP3    H140985   2.585   4.890   8.155  0.9658  0.8273  0.9191
 6450TIP3    H240986   2.602   5.029   8.098  1.0957  0.3126 -0.3310
 6451TIP3   OH240987   6.847   0.880   0.239  0.2858  0.3745  0.0444
 6451TIP3    H140988   6.928   0.882   0.188 -0.1696 -1.5280 -0.8492
 6451TIP3    H240989   6.790   0.945   0.197  0.5242  0.0346 -0.8257
 6452TIP3   OH240990   5.872   5.416   8.137 -0.0062 -0.0635  0.4488
 6452TIP3    H140991   5.852   5.479   8.206 -0.2785  1.4607 -0.9586
 6452TIP3    H240992   5.787   5.384   8.107  0.0872 -0.2740  0.4019
 6453TIP3   OH240993   3.735   6.461   7.860 -0.1291  0.4060  0.7553
 6453TIP3    H140994   3.698   6.517   7.792  0.8062  1.1176  0.8036
 6453TIP3    H240995   3.698   6.495   7.942  1.7802  2.1856  0.9720
 6454TIP3   OH240996   0.260   6.313   8.421  0.1262 -0.6333 -0.0534
 6454TIP3    H140997   0.270   6.238   8.480  1.5913 -0.7082 -0.3728
 6454TIP3    H240998   0.349   6.335   8.394 -0.5345 -1.0234 -2.7954
 6455TIP3   OH240999   0.958   0.349   0.455 -0.1119  0.2268 -0.1748
 6455TIP3    H141000   0.890   0.345   0.523 -0.0876 -1.7593 -0.1855
 6455TIP3    H241001   0.941   0.271   0.401  2.1016 -0.2782 -0.2259
 6456TIP3   OH241002   0.887   3.600   1.927  0.7226  0.0280  0.2628
 6456TIP3    H141003   0.911   3.512   1.897 -0.6985  0.2088 -1.6264
 6456TIP3    H241004   0.938   3.659   1.872 -0.0176  0.3667 -0.0799
 6457TIP3   OH241005   2.614   4.853   1.764  0.2180  0.0706  0.2957
 6457TIP3    H141006   2.575   4.822   1.846 -0.6407 -2.4508 -0.9957
 6457TIP3    H241007   2.685   4.791   1.746 -1.3010 -1.1116 -2.1732
 6458TIP3   OH241008   0.961   2.217   7.635 -0.4340  0.4768  0.1293
 6458TIP3    H141009   0.899   2.186   7.569  0.2039  1.6881 -1.0784
 6458TIP3    H241010   1.011   2.139   7.658 -0.2406  0.1376 -1.3134
 6459TIP3   OH241011   0.808   6.390   1.417 -0.3113  0.6233  0.0310
 6459TIP3    H141012   0.860   6.333   1.473 -0.9797  0.0129  0.0368
 6459TIP3    H241013   0.871   6.455   1.385  0.7902 -0.9238 -1.0950
 6460TIP3   OH241014   3.310   0.794   2.150 -0.1810  0.1351 -0.2433
 6460TIP3    H141015   3.274   0.764   2.233  0.5014 -0.5220 -0.1808
 6460TIP3    H241016   3.348   0.880   2.170  0.6379 -0.3465  0.2951
 6461TIP3   OH241017   3.561   4.610   1.334 -0.4120 -0.2007 -0.1492
 6461TIP3    H141018   3.478   4.569   1.308  0.1990 -2.8005  1.5522
 6461TIP3    H241019   3.625   4.572   1.275 -0.2052  0.6670 -0.4953
 6462TIP3   OH241020   4.098   0.647   0.404 -0.0188  0.3318 -0.1882
 6462TIP3    H141021   4.030   0.674   0.342  0.4788 -1.2270 -1.4972
 6462TIP3    H241022   4.117   0.725   0.454 -2.2534  1.0078 -0.2766
 6463TIP3   OH241023   6.126   5.681   0.915  0.2516  0.3790  0.4482
 6463TIP3    H141024   6.141   5.756   0.972  0.3535  2.1898 -1.8309
 6463TIP3    H241025   6.214   5.649   0.894  0.2052 -0.6281  1.6215
 6464TIP3   OH241026   6.162   2.627   2.159 -0.5642  0.3577  0.1698
 6464TIP3    H141027   6.225   2.698   2.146 -0.6719  0.4967  0.4097
 6464TIP3    H241028   6.191   2.559   2.098 -1.5552  1.3214 -1.4320
 6465TIP3   OH241029   4.299   3.583   1.785  0.3541  0.0272  0.2079
 6465TIP3    H141030   4.354   3.509   1.759  0.8539  0.1305  0.9611
 6465TIP3    H241031   4.333   3.657   1.735  0.0782 -0.1737 -0.2826
 6466TIP3   OH241032   0.730   3.037   8.488 -0.0980 -0.6458 -0.1263
 6466TIP3    H141033   0.713   3.095   8.562 -1.1570 -0.3902 -0.5444
 6466TIP3    H241034   0.822   3.051   8.467 -0.2071  0.5167  0.1005
 6467TIP3   OH241035   1.074   5.973   7.232 -0.4705  0.3730 -0.2309
 6467TIP3    H141036   1.106   5.904   7.174 -1.0453 -1.3385  1.4044
 6467TIP3    H241037   1.149   6.032   7.244  0.4419 -0.6846 -0.6204
 6468TIP3   OH241038   2.398   2.047   2.093 -0.0601  0.4708  0.3559
 6468TIP3    H141039   2.405   1.952   2.082  1.1547  0.5064  0.6059
 6468TIP3    H241040   2.489   2.077   2.098 -0.4091  1.4220  2.0622
 6469TIP3   OH241041   6.520   5.461   0.758 -0.1414 -0.4223  0.1687
 6469TIP3    H141042   6.514   5.394   0.691  0.1944 -0.3990  0.1094
 6469TIP3    H241043   6.579   5.527   0.721 -0.8898  0.1721  0.0091
 6470TIP3   OH241044   3.493   5.139   7.210  0.4149 -0.7177 -0.7334
 6470TIP3    H141045   3.494   5.076   7.282 -0.2370  0.4918  0.3744
 6470TIP3    H241046   3.400   5.150   7.189  0.3795  0.9132  0.0799
 6471TIP3   OH241047   1.481   1.769   7.255  0.1986 -0.6041 -0.0126
 6471TIP3    H141048   1.553   1.772   7.193  0.2344 -1.5700 -0.0359
 6471TIP3    H241049   1.435   1.687   7.235 -1.0144  0.0650 -0.1160
 6472TIP3   OH241050   0.280   3.164   1.480  0.3095  0.3577  0.5575
 6472TIP3    H141051   0.276   3.216   1.399  2.2803  1.0041  0.8335
 6472TIP3    H241052   0.207   3.197   1.533 -0.3476  0.6764 -0.5071
 6473TIP3   OH241053   3.841   6.400   1.198 -0.1141 -0.2397 -0.1524
 6473TIP3    H141054   3.777   6.447   1.145 -0.8506 -0.0219  0.8902
 6473TIP3    H241055   3.883   6.468   1.251 -0.4175 -0.6035  0.5792
 6474TIP3   OH241056   4.411   6.450   1.931 -0.0858 -0.6871 -0.2468
 6474TIP3    H141057   4.429   6.505   1.855  1.3375  1.5423  1.5314
 6474TIP3    H241058   4.486   6.391   1.937  0.6908  0.3221  0.3399
 6475TIP3   OH241059   1.137   3.371   8.091 -0.2934  0.2265 -0.3491
 6475TIP3    H141060   1.216   3.333   8.130 -1.0899 -0.7461  0.3883
 6475TIP3    H241061   1.153   3.368   7.997 -0.2939 -1.9849 -0.3350
 6476TIP3   OH241062   2.925   3.200   8.357  0.1902  0.1487  0.6716
 6476TIP3    H141063   2.888   3.134   8.415 -1.9541 -0.3639 -1.1300
 6476TIP3    H241064   2.885   3.282   8.384 -1.5500 -0.2344 -0.5689
 6477TIP3   OH241065   0.779   6.663   6.604  0.5290 -0.4297  0.2995
 6477TIP3    H141066   0.788   6.753   6.634 -0.2271 -0.3497  0.2944
 6477TIP3    H241067   0.833   6.658   6.525 -1.2963  0.6748 -1.0868
 6478TIP3   OH241068   3.685   0.374   1.990  0.0254 -0.2868 -0.1676
 6478TIP3    H141069   3.759   0.417   2.032 -0.0217 -0.6313  0.2665
 6478TIP3    H241070   3.633   0.446   1.954  1.6414 -0.0909 -2.3248
 6479TIP3   OH241071   1.409   4.417   7.204 -0.2421  0.1885 -0.1181
 6479TIP3    H141072   1.430   4.325   7.216 -0.5420 -0.0605 -1.3391
 6479TIP3    H241073   1.334   4.417   7.144  0.9270  1.2456 -1.6652
 6480TIP3   OH241074   6.740   4.539   0.633  0.2306  0.2803  0.5789
 6480TIP3    H141075   6.735   4.612   0.572  0.8654 -0.6807 -0.6589
 6480TIP3    H241076   6.726   4.461   0.580  0.7875 -0.5932  1.6547
 6481TIP3   OH241077   5.067   3.220   8.441  0.2976  0.4924 -0.7347
 6481TIP3    H141078   5.152   3.178   8.429  1.0439  1.8205 -0.2919
 6481TIP3    H241079   5.067   3.293   8.379 -0.0869  1.1227 -0.0074
 6482TIP3   OH241080   6.569   5.878   0.712 -0.2741 -0.2381 -0.2257
 6482TIP3    H141081   6.585   5.956   0.765 -1.9622 -0.7706  1.1442
 6482TIP3    H241082   6.641   5.877   0.649 -0.2840  2.4949 -0.3794
 6483TIP3   OH241083   6.372   5.725   8.126  0.1289  0.5607  0.0728
 6483TIP3    H141084   6.415   5.801   8.087  1.4181  0.0145  0.3975
 6483TIP3    H241085   6.417   5.712   8.209 -1.6494  0.8483  1.1222
 6484TIP3   OH241086   0.189   0.242   0.915  0.0045 -0.4990  0.4070
 6484TIP3    H141087   0.111   0.291   0.889  0.9330  0.0937 -1.4046
 6484TIP3    H241088   0.239   0.303   0.969  1.5595  1.0318 -2.5033
 6485TIP3   OH241089   6.285   2.049   1.906 -0.5198  0.4309 -0.1350
 6485TIP3    H141090   6.369   2.092   1.919 -0.0511 -0.8425  1.3408
 6485TIP3    H241091   6.290   1.969   1.958 -2.4530  0.0603 -0.4228
 6486TIP3   OH241092   2.463   6.433   2.248 -0.3976 -0.4869  0.4139
 6486TIP3    H141093   2.387   6.467   2.294  0.1170 -0.5243  1.3066
 6486TIP3    H241094   2.457   6.471   2.160 -0.2888  1.2626  1.1300
 6487TIP3   OH241095   0.512   5.282   8.448 -0.2407 -0.0290 -0.2307
 6487TIP3    H141096   0.548   5.194   8.452  0.0747 -0.0258 -2.0989
 6487TIP3    H241097   0.418   5.271   8.460 -0.1551 -0.5560 -0.0247
 6488TIP3   OH241098   5.538   1.174   7.360 -0.1875  0.3285  0.1703
 6488TIP3    H141099   5.463   1.211   7.407 -0.6063  1.3885 -1.2654
 6488TIP3    H241100   5.609   1.235   7.376 -0.2731  0.5766 -0.3590
 6489TIP3   OH241101   2.059   0.889   0.132 -0.2729  0.0457 -0.5255
 6489TIP3    H141102   1.964   0.896   0.127 -0.3476  0.3228  0.8637
 6489TIP3    H241103   2.084   0.951   0.201  0.7276 -1.3529  0.4270
 6490TIP3   OH241104   4.142   6.145   7.048  0.4373 -1.3486 -0.6733
 6490TIP3    H141105   4.179   6.202   7.116 -0.5812 -2.5332  0.9373
 6490TIP3    H241106   4.081   6.202   7.000 -1.3471 -1.2510  1.5711
 6491TIP3   OH241107   5.152   2.975   2.431 -0.3673 -0.0736  0.1241
 6491TIP3    H141108   5.082   3.040   2.438 -0.7691 -0.3190 -1.2821
 6491TIP3    H241109   5.232   3.028   2.424 -0.6144  0.2639 -0.2163
 6492TIP3   OH241110   2.506   0.225   0.337 -0.3844 -0.3823 -0.0959
 6492TIP3    H141111   2.470   0.138   0.354 -2.1290 -0.1689 -2.2673
 6492TIP3    H241112   2.447   0.285   0.382 -0.5615 -0.2080 -0.5583
 6493TIP3   OH241113   1.884   2.014   7.661 -0.4017 -0.7356 -0.2852
 6493TIP3    H141114   1.940   2.076   7.709 -0.1457  0.2122 -1.7557
 6493TIP3    H241115   1.835   1.969   7.730  0.8851 -0.3444  0.9454
 6494TIP3   OH241116   4.437   4.804   0.647 -0.4907  0.1540  0.6189
 6494TIP3    H141117   4.419   4.839   0.560  0.1227  1.1161  0.8698
 6494TIP3    H241118   4.531   4.817   0.659 -0.1978 -1.6854  0.6838
 6495TIP3   OH241119   4.795   0.978   7.837 -0.4284  0.1187 -0.1930
 6495TIP3    H141120   4.778   1.057   7.786 -0.8814 -1.6687 -2.9827
 6495TIP3    H241121   4.738   0.912   7.800  1.7525 -2.2119  0.3018
 6496TIP3   OH241122   1.861   3.493   7.455 -0.2745  0.1603 -0.3252
 6496TIP3    H141123   1.897   3.571   7.495 -0.5477 -0.2857  0.8305
 6496TIP3    H241124   1.769   3.492   7.483 -0.0533 -1.0416  0.4636
 6497TIP3   OH241125   2.778   6.419   7.497 -0.4292  0.1596  0.0444
 6497TIP3    H141126   2.815   6.389   7.414 -1.1304  1.9287 -0.9651
 6497TIP3    H241127   2.836   6.383   7.563  0.8117 -0.3720 -1.2678
 6498TIP3   OH241128   5.632   0.498   7.775 -0.0248 -0.0147  0.1246
 6498TIP3    H141129   5.678   0.418   7.752 -1.2903 -0.0142 -2.9866
 6498TIP3    H241130   5.645   0.555   7.699 -1.8488  1.4500  0.8311
 6499TIP3   OH241131   6.804   4.640   0.890 -0.4733 -0.1493  0.5405
 6499TIP3    H141132   6.752   4.620   0.811 -1.9410  1.3870  1.0419
 6499TIP3    H241133   6.770   4.724   0.919 -0.2831 -0.8820  3.0913
 6500TIP3   OH241134   1.568   2.575   8.144  0.2153  0.3852 -0.2338
 6500TIP3    H141135   1.634   2.586   8.212  0.2872  0.7572 -0.3607
 6500TIP3    H241136   1.514   2.655   8.150  0.2504  0.4390 -0.6402
 6501TIP3   OH241137   4.773   2.343   8.346  0.2087  0.0207  0.5918
 6501TIP3    H141138   4.811   2.277   8.405  1.8682 -0.5533 -1.0199
 6501TIP3    H241139   4.837   2.351   8.275 -1.3607  1.2390 -0.7558
 6502TIP3   OH241140   4.253   4.900   7.135 -0.0501  0.0958  0.1450
 6502TIP3    H141141   4.220   4.915   7.047  1.3499  2.7082 -0.0225
 6502TIP3    H241142   4.335   4.852   7.123 -1.0815 -1.7869  0.2491
 6503TIP3   OH241143   5.962   6.718   2.992 -0.3080  0.2512 -0.2678
 6503TIP3    H141144   5.882   6.760   2.960 -1.2313 -0.8336  0.5479
 6503TIP3    H241145   5.966   6.635   2.945  0.8247  0.6633 -0.9382
 6504TIP3   OH241146   1.579   3.350   7.760 -0.4827  0.6929  0.7029
 6504TIP3    H141147   1.641   3.420   7.782  2.3142 -1.4865  0.3655
 6504TIP3    H241148   1.553   3.313   7.844  0.8288 -0.0447  0.8152
 6505TIP3   OH241149   1.586   1.270   6.793  0.3771  0.1487 -0.6314
 6505TIP3    H141150   1.562   1.347   6.844 -1.2577 -1.4724  1.2174
 6505TIP3    H241151   1.528   1.274   6.717 -0.5135  0.1678  0.0340
 6506TIP3   OH241152   1.602   1.764   6.486 -1.0462  0.0023 -0.4613
 6506TIP3    H141153   1.541   1.702   6.525 -1.0673  0.5885  0.4650
 6506TIP3    H241154   1.689   1.733   6.511 -1.1029  2.0211  2.7712
 6507TIP3   OH241155   4.403   2.518   0.319 -0.4100 -0.5003  0.2059
 6507TIP3    H141156   4.386   2.442   0.263 -1.3578 -0.3162  0.2295
 6507TIP3    H241157   4.323   2.529   0.370 -0.3988  0.7060 -0.0060
 6508TIP3   OH241158   4.351   6.791   0.886  0.2737 -0.3548  0.2198
 6508TIP3    H141159   4.270   6.760   0.928  0.8167 -0.4491  1.2414
 6508TIP3    H241160   4.331   6.791   0.793 -0.2127 -2.4350  0.2784
 6509TIP3   OH241161   4.972   4.208   2.163 -0.0984  0.4134 -0.2194
 6509TIP3    H141162   4.994   4.214   2.256  0.5622  0.8041 -0.3927
 6509TIP3    H241163   4.958   4.114   2.147  1.2610  0.1589 -0.0404
 6510TIP3   OH241164   4.763   4.385   1.284  0.0883 -0.1378  0.6804
 6510TIP3    H141165   4.847   4.347   1.259  0.0504 -0.0297  0.3800
 6510TIP3    H241166   4.717   4.315   1.330 -0.9334 -1.2760 -1.8754
 6511TIP3   OH241167   4.576   0.821   0.313  0.4065 -0.1828  0.7049
 6511TIP3    H141168   4.606   0.852   0.398  0.8441 -0.3253  0.6032
 6511TIP3    H241169   4.481   0.831   0.316  0.3776 -0.6296  1.3849
 6512TIP3   OH241170   0.236   4.802   1.311  0.9967 -0.0681 -0.5419
 6512TIP3    H141171   0.315   4.834   1.354  0.7311  1.3822 -1.0590
 6512TIP3    H241172   0.203   4.734   1.369  3.1697 -1.4658 -0.8543
 6513TIP3   OH241173   2.518   6.438   1.045  0.1487  0.0094 -0.2134
 6513TIP3    H141174   2.444   6.384   1.019  0.5225 -0.5621 -0.1165
 6513TIP3    H241175   2.479   6.520   1.076 -0.4415 -0.2904 -0.1529
 6514TIP3   OH241176   4.163   3.852   0.210  0.8380  0.3689  0.6206
 6514TIP3    H141177   4.174   3.760   0.187  1.3918  0.4168  0.6632
 6514TIP3    H241178   4.159   3.852   0.306 -0.0363  0.3078  0.5899
 6515TIP3   OH241179   1.090   6.029   7.704 -0.2447  0.1161  0.0499
 6515TIP3    H141180   1.135   5.960   7.752 -1.6447 -0.4306  0.6397
 6515TIP3    H241181   1.081   5.995   7.615 -2.5671 -1.3522  0.7557
 6516TIP3   OH241182   1.791   6.738   7.625  0.6628 -0.0528  0.0623
 6516TIP3    H141183   1.787   6.750   7.530 -2.1373  1.1655  0.2209
 6516TIP3    H241184   1.759   6.821   7.661 -0.2328 -1.1518  1.9846
 6517TIP3   OH241185   0.939   0.494   0.738  0.2897  0.0028 -0.0266
 6517TIP3    H141186   1.020   0.508   0.688  0.7146  0.8306  0.8604
 6517TIP3    H241187   0.871   0.490   0.671  1.1372 -1.5260 -0.8515
 6518TIP3   OH241188   0.243   2.064   2.886 -0.0024  0.0818 -0.6651
 6518TIP3    H141189   0.240   1.968   2.888  0.1743  0.0750 -0.6841
 6518TIP3    H241190   0.326   2.084   2.843  1.3323  0.2584  1.8055
 6519TIP3   OH241191   0.034   5.496   8.297  0.2553 -0.6712 -0.0350
 6519TIP3    H141192   0.126   5.483   8.320  0.7619  1.2818 -0.7258
 6519TIP3    H241193  -0.004   5.537   8.375  0.0343 -1.1571  0.1190
 6520TIP3   OH241194   1.971   0.597   8.166 -0.1602 -0.3077 -0.1686
 6520TIP3    H141195   2.011   0.662   8.223 -1.6449 -0.1779  0.7779
 6520TIP3    H241196   1.878   0.600   8.188 -0.6952 -0.7171 -2.1443
 6521TIP3   OH241197   3.801   4.650   8.483  0.3095 -0.1737  0.0447
 6521TIP3    H141198   3.770   4.638   8.393  0.9396  2.3589 -0.5934
 6521TIP3    H241199   3.722   4.658   8.535 -0.0941  0.7120 -0.6858
 6522TIP3   OH241200   3.092   1.431   8.136  0.4565 -0.6861 -0.9350
 6522TIP3    H141201   3.098   1.454   8.043  0.4269 -1.0499 -1.0272
 6522TIP3    H241202   2.998   1.439   8.156  0.3361 -1.4547 -1.1589
 6523TIP3   OH241203   4.771   1.317   1.019 -0.4788 -0.1816  0.7549
 6523TIP3    H141204   4.681   1.287   1.006 -0.0307 -1.2472 -0.0882
 6523TIP3    H241205   4.819   1.238   1.043  0.2436  0.3624  1.1301
 6524TIP3   OH241206   4.673   6.402   1.351  0.1586  0.1530 -0.2129
 6524TIP3    H141207   4.599   6.371   1.299  1.0819  0.8699 -2.0648
 6524TIP3    H241208   4.639   6.412   1.439 -1.9315  0.4301 -1.0075
 6525TIP3   OH241209   4.707   4.921   0.701  0.2815  0.3856  0.1783
 6525TIP3    H141210   4.767   4.915   0.627 -0.7567 -1.5999 -0.5866
 6525TIP3    H241211   4.663   5.005   0.691 -0.0570  0.0236 -1.6616
 6526TIP3   OH241212   6.513   5.161   1.712  0.3735  0.1858 -0.8180
 6526TIP3    H141213   6.609   5.159   1.721  0.3038 -0.3658 -0.0820
 6526TIP3    H241214   6.487   5.070   1.719 -0.2614  0.3990 -0.3117
 6527TIP3   OH241215   5.644   5.758   0.086 -0.1228 -0.0032 -0.1862
 6527TIP3    H141216   5.709   5.774   0.154 -0.4291  0.9839 -0.1175
 6527TIP3    H241217   5.559   5.773   0.129 -0.3059  0.9956 -0.8631
 6528TIP3   OH241218   5.732   2.959   2.760 -0.1309  0.0424 -0.3511
 6528TIP3    H141219   5.755   2.866   2.756  0.6239  0.1903  0.4636
 6528TIP3    H241220   5.742   2.983   2.852 -1.4169  0.6634 -0.3432
 6529TIP3   OH241221   1.458   4.481   1.736  0.0241  0.6245 -0.3454
 6529TIP3    H141222   1.382   4.532   1.765 -0.9354 -0.8802 -0.0997
 6529TIP3    H241223   1.512   4.472   1.815  0.1293  1.1224 -0.3567
 6530TIP3   OH241224   4.747   6.335   1.819  0.4016 -0.2006 -0.4856
 6530TIP3    H141225   4.774   6.403   1.880 -0.4748  0.1366 -0.4620
 6530TIP3    H241226   4.673   6.292   1.862  0.8063 -1.0235 -0.6016
 6531TIP3   OH241227   0.586   0.508   1.182  0.3839 -0.0352  0.2532
 6531TIP3    H141228   0.550   0.419   1.178 -0.4300  0.2590  0.7395
 6531TIP3    H241229   0.635   0.518   1.101  0.3768 -0.8820  0.1354
 6532TIP3   OH241230   5.136   0.448   6.886 -0.3248  0.5836  0.1871
 6532TIP3    H141231   5.090   0.525   6.920 -1.8199 -0.3205  0.3014
 6532TIP3    H241232   5.129   0.455   6.791 -1.1122  0.2255  0.2123
 6533TIP3   OH241233   0.820   3.324   1.742 -0.3109  0.2216  0.1797
 6533TIP3    H141234   0.866   3.269   1.805 -0.4796  0.5748  0.6232
 6533TIP3    H241235   0.741   3.274   1.720 -0.9698  0.6937  1.3432
 6534TIP3   OH241236   1.941   4.014   8.277  0.1473  0.1779 -0.3340
 6534TIP3    H141237   1.934   4.068   8.198  1.4122 -0.7888 -1.1456
 6534TIP3    H241238   2.024   4.040   8.317  0.9087 -1.2913 -0.8767
 6535TIP3   OH241239   5.682   2.198   0.102  0.2283 -0.0908  0.2108
 6535TIP3    H141240   5.711   2.270   0.158  0.6306 -0.0229 -0.0767
 6535TIP3    H241241   5.747   2.195   0.031 -1.8688  1.8742 -2.0003
 6536TIP3   OH241242   1.627   0.939   1.623 -0.0927 -0.0646  0.8600
 6536TIP3    H141243   1.620   0.877   1.696  1.4179 -1.0362  0.2128
 6536TIP3    H241244   1.717   0.929   1.591 -0.4020  1.1088 -0.4731
 6537TIP3   OH241245   3.629   4.319   0.047 -0.3050  0.5058  0.2806
 6537TIP3    H141246   3.604   4.237   0.088 -2.2380  1.4963  1.2066
 6537TIP3    H241247   3.608   4.386   0.112  1.5813  1.7458 -0.2916
 6538TIP3   OH241248   0.334   5.293   1.667  0.3840  0.1951 -0.0415
 6538TIP3    H141249   0.386   5.356   1.715  0.0627  1.0966 -0.8504
 6538TIP3    H241250   0.390   5.215   1.661  1.0672  0.6534  0.3216
 6539TIP3   OH241251   2.231   1.535   0.010 -0.0545 -0.2326  0.3020
 6539TIP3    H141252   2.318   1.496   0.013 -0.1414 -0.4330  0.1546
 6539TIP3    H241253   2.213   1.558   0.102  0.4641  0.4948  0.2277
 6540TIP3   OH241254   5.588   0.754   1.620  0.3351  0.0647 -0.3952
 6540TIP3    H141255   5.493   0.756   1.613  0.3832  0.2997 -1.0504
 6540TIP3    H241256   5.617   0.704   1.544  0.7604  0.4448 -0.4885
 6541TIP3   OH241257   4.764   2.890   7.648 -0.0493 -0.3858 -0.3409
 6541TIP3    H141258   4.775   2.932   7.733 -1.7700 -0.1174 -0.2041
 6541TIP3    H241259   4.801   2.803   7.659 -0.9220 -0.6228  0.9316
 6542TIP3   OH241260   0.475   0.257   2.283  0.0612  0.1063 -0.3040
 6542TIP3    H141261   0.531   0.188   2.319 -0.5890 -0.7193 -0.8384
 6542TIP3    H241262   0.423   0.287   2.358 -1.4405 -1.7488 -0.5483
 6543TIP3   OH241263   4.093   1.172   7.475  0.2540  0.0802  0.1799
 6543TIP3    H141264   4.163   1.147   7.415 -0.0934 -0.3609 -0.0482
 6543TIP3    H241265   4.019   1.117   7.449  0.1733 -0.3027  1.1775
 6544TIP3   OH241266   0.093   4.663   0.277 -0.1611 -0.1745  0.0604
 6544TIP3    H141267   0.104   4.755   0.253  0.7755 -0.3102 -0.0719
 6544TIP3    H241268   0.181   4.627   0.276 -0.5553 -1.1745 -0.2610
 6545TIP3   OH241269   1.376   0.494   0.318 -0.1006 -0.5022  0.6814
 6545TIP3    H141270   1.384   0.404   0.350 -3.8642 -1.6389 -1.1073
 6545TIP3    H241271   1.291   0.524   0.349  0.5202  2.0447  0.1750
 6546TIP3   OH241272   0.789   1.916   7.632 -0.4200  0.3276 -0.5730
 6546TIP3    H141273   0.701   1.890   7.603  0.1126 -0.6044 -1.4028
 6546TIP3    H241274   0.799   1.874   7.717  0.1673 -1.7360 -1.5969
 6547TIP3   OH241275   5.300   3.524   0.888 -0.6823  0.0434  0.0561
 6547TIP3    H141276   5.285   3.601   0.943 -0.0654  0.0232  0.2565
 6547TIP3    H241277   5.332   3.458   0.949 -0.2619 -0.0649 -0.2868
 6548TIP3   OH241278   2.803   5.708   8.012 -0.6617 -0.3377  0.1657
 6548TIP3    H141279   2.807   5.655   8.092  0.3673  0.8760  0.9617
 6548TIP3    H241280   2.785   5.796   8.044  0.1498  0.2306 -0.9163
 6549TIP3   OH241281   6.735   0.036   1.024 -0.1572 -0.4352 -0.1161
 6549TIP3    H141282   6.695   0.061   0.941 -1.1930 -0.4752  0.3615
 6549TIP3    H241283   6.822   0.003   0.999 -0.5918 -0.8101 -1.2248
 6550TIP3   OH241284   5.905   2.574   2.119  0.5307 -0.2375 -0.5398
 6550TIP3    H141285   5.992   2.611   2.108  0.1080  0.9075 -0.0951
 6550TIP3    H241286   5.845   2.641   2.086 -0.1443 -1.5777 -2.2547
 6551TIP3   OH241287   4.258   1.508   6.394  0.8027 -0.4503 -0.4354
 6551TIP3    H141288   4.171   1.544   6.414  0.6088  0.8212 -3.1294
 6551TIP3    H241289   4.319   1.574   6.429  0.7493 -1.2362  1.2566
 6552TIP3   OH241290   2.307   4.390   0.315 -0.6076 -0.1072 -0.1227
 6552TIP3    H141291   2.391   4.353   0.343 -0.8369 -2.1605 -1.8971
 6552TIP3    H241292   2.330   4.452   0.245 -0.5156  0.1099  0.0966
 6553TIP3   OH241293   5.224   6.414   0.280  0.0138 -0.0531  0.6912
 6553TIP3    H141294   5.162   6.482   0.308 -0.3325  0.4092 -1.0812
 6553TIP3    H241295   5.225   6.352   0.353  2.1391  2.9249  3.4737
 6554TIP3   OH241296   1.145   1.726   6.868  0.8893 -0.1493  0.0552
 6554TIP3    H141297   1.213   1.701   6.805  0.1109 -2.0394 -0.0971
 6554TIP3    H241298   1.163   1.818   6.888  1.2995  0.4799 -2.7791
 6555TIP3   OH241299   6.423   3.352   7.523 -0.8416  0.2528 -0.1464
 6555TIP3    H141300   6.337   3.315   7.504 -1.1467  0.7171  0.2757
 6555TIP3    H241301   6.484   3.279   7.514 -1.1483  0.1419 -1.4229
 6556TIP3   OH241302   2.905   2.910   1.195  0.4715  0.3145 -0.2328
 6556TIP3    H141303   2.995   2.930   1.169  0.9613 -0.8359  0.4856
 6556TIP3    H241304   2.877   2.986   1.245  0.2908  1.5826 -2.1597
 6557TIP3   OH241305   1.676   0.495   7.195  0.7538 -0.3344  0.4024
 6557TIP3    H141306   1.752   0.545   7.222  0.5538  0.0938  0.1851
 6557TIP3    H241307   1.711   0.412   7.163  1.1223 -0.1691  0.3761
 6558TIP3   OH241308   3.307   2.359   8.298 -0.3274  0.0437 -0.2388
 6558TIP3    H141309   3.231   2.368   8.241  0.0346 -0.3326 -0.7864
 6558TIP3    H241310   3.327   2.448   8.327  0.2966  0.4238 -1.7648
 6559TIP3   OH241311   1.594   3.094   0.099 -0.1119 -0.0221 -0.1722
 6559TIP3    H141312   1.644   3.015   0.080 -0.5253 -0.7370  1.5406
 6559TIP3    H241313   1.507   3.062   0.123 -0.4431  0.9817  0.0098
 6560TIP3   OH241314   2.233   5.162   2.208 -0.4648 -0.1770  0.1219
 6560TIP3    H141315   2.304   5.099   2.198 -0.2084  0.3036 -1.4670
 6560TIP3    H241316   2.156   5.109   2.228 -0.2440 -1.0106 -1.1171
 6561TIP3   OH241317   3.425   2.474   1.062  0.4100  0.3660 -0.4537
 6561TIP3    H141318   3.425   2.454   0.968  0.9034  0.8105 -0.5522
 6561TIP3    H241319   3.475   2.403   1.102  1.9381  1.2344 -0.7716
 6562TIP3   OH241320   0.124   4.726   6.951 -0.1473 -0.0291  0.0565
 6562TIP3    H141321   0.169   4.641   6.960 -0.3994 -0.2878 -0.9517
 6562TIP3    H241322   0.031   4.705   6.961 -0.1227  0.3427  1.1063
 6563TIP3   OH241323   1.038   0.989   2.865 -0.2523 -0.2288  0.0135
 6563TIP3    H141324   1.055   1.072   2.909 -0.0154 -0.9483  1.3110
 6563TIP3    H241325   1.087   0.996   2.782  0.2139  0.7053  0.3537
 6564TIP3   OH241326   2.182   5.432   1.979  0.3528  0.0308 -0.0178
 6564TIP3    H141327   2.162   5.453   2.071  0.9968 -0.3003  0.2035
 6564TIP3    H241328   2.276   5.448   1.971  0.0881  1.2176 -0.9482
 6565TIP3   OH241329   5.100   6.721   1.321  0.4258  0.2897  0.0157
 6565TIP3    H141330   5.012   6.696   1.350 -0.4048  1.5789 -1.2837
 6565TIP3    H241331   5.137   6.640   1.287 -0.2758 -0.2595  0.5207
 6566TIP3   OH241332   4.743   2.187   7.176  0.5560 -0.6193 -1.0184
 6566TIP3    H141333   4.685   2.262   7.162  0.6222  0.1139  1.9371
 6566TIP3    H241334   4.698   2.114   7.132 -0.7977  0.6166 -1.7950
 6567TIP3   OH241335   4.210   6.065   8.297 -0.2691  0.1514 -0.0676
 6567TIP3    H141336   4.136   6.086   8.240 -0.0399  0.4037 -0.2726
 6567TIP3    H241337   4.169   6.035   8.379 -0.6553  2.6096  0.7371
 6568TIP3   OH241338   1.399   5.101   0.231 -0.1397  0.4749 -0.1478
 6568TIP3    H141339   1.387   5.184   0.277 -0.5301  0.5327 -0.3586
 6568TIP3    H241340   1.311   5.066   0.219  0.0199  0.0311 -0.0656
 6569TIP3   OH241341   4.364   2.028   1.403  0.8479 -0.3973  0.3877
 6569TIP3    H141342   4.452   2.063   1.418 -0.5479  3.4762  0.4929
 6569TIP3    H241343   4.354   2.030   1.308  0.6668 -0.2319  0.4102
 6570TIP3   OH241344   1.551   2.234   2.139  0.3754 -0.1360  0.0667
 6570TIP3    H141345   1.561   2.318   2.183  0.6009  0.1159 -0.4659
 6570TIP3    H241346   1.459   2.210   2.154  0.3518  0.1257  0.3519
 6571TIP3   OH241347   3.400   1.062   2.144  1.0550 -0.2001  0.2588
 6571TIP3    H141348   3.494   1.055   2.131  0.7665 -0.8584 -1.9341
 6571TIP3    H241349   3.375   1.141   2.096  0.5814  0.4906  1.5902
 6572TIP3   OH241350   0.845   6.382   6.758  0.1349  0.3566  0.7880
 6572TIP3    H141351   0.917   6.372   6.697  1.3484 -2.2867  2.4451
 6572TIP3    H241352   0.786   6.445   6.717  3.5327  3.0351 -0.4480
 6573TIP3   OH241353   5.645   5.935   2.178  0.2050  0.6025 -0.1849
 6573TIP3    H141354   5.655   6.021   2.137  1.6572  0.5847  0.0778
 6573TIP3    H241355   5.608   5.954   2.265 -1.2373  0.7746 -0.7959
 6574TIP3   OH241356   2.320   1.087   1.194 -0.3788  0.0552  0.1925
 6574TIP3    H141357   2.387   1.055   1.255 -1.0744 -0.4779  0.6885
 6574TIP3    H241358   2.365   1.154   1.142  0.6361 -0.5206  0.2960
 6575TIP3   OH241359   3.089   2.656   1.491  0.0180 -0.7565 -0.7884
 6575TIP3    H141360   3.021   2.667   1.557  0.2879 -1.7347 -0.3329
 6575TIP3    H241361   3.052   2.696   1.412 -0.5460 -0.1002 -0.2058
 6576TIP3   OH241362   5.271   5.873   7.760  0.1577  0.0092  0.5570
 6576TIP3    H141363   5.188   5.904   7.724  0.0587 -0.5764  0.2687
 6576TIP3    H241364   5.335   5.893   7.693  0.0586 -0.5992  0.2771
 6577TIP3   OH241365   4.807   6.819   1.921 -0.2259 -0.4746  0.4367
 6577TIP3    H141366   4.816   6.816   1.826 -1.5638  0.3631  0.2555
 6577TIP3    H241367   4.742   6.888   1.937  0.1346 -0.4449  1.9695
 6578TIP3   OH241368   6.866   2.713   0.239  0.0018  0.2763 -0.2043
 6578TIP3    H141369   6.863   2.660   0.318  0.4588  1.1109  0.3933
 6578TIP3    H241370   6.923   2.664   0.179  0.1241 -0.0844  0.2000
 6579TIP3   OH241371   2.095   2.877   1.546 -0.0704  0.3265 -0.3743
 6579TIP3    H141372   2.164   2.927   1.590  0.2334 -0.7883  0.4785
 6579TIP3    H241373   2.142   2.821   1.484 -0.0843 -1.0903  0.8442
 6580TIP3   OH241374   3.654   3.152   1.818  0.0840 -0.0019  0.4064
 6580TIP3    H141375   3.657   3.239   1.858  0.4851  0.5793 -0.8356
 6580TIP3    H241376   3.563   3.125   1.826 -0.2215  0.8937  0.0682
 6581TIP3   OH241377   2.462   3.248   6.628 -0.6098 -0.1468 -0.3670
 6581TIP3    H141378   2.545   3.230   6.672 -0.0210  2.0549 -0.4528
 6581TIP3    H241379   2.474   3.213   6.540  0.1919  0.0028 -0.3248
 6582TIP3   OH241380   0.695   2.573   8.046 -0.8124 -0.0693 -0.5752
 6582TIP3    H141381   0.768   2.622   8.008 -1.1485  0.4126 -0.6101
 6582TIP3    H241382   0.625   2.638   8.056 -0.7116 -0.1420  0.9451
 6583TIP3   OH241383   3.697   0.262   0.830 -0.3569 -0.0871  0.6905
 6583TIP3    H141384   3.688   0.329   0.763  1.4821 -1.2926 -0.8753
 6583TIP3    H241385   3.789   0.235   0.825 -1.2798 -3.6744  0.2354
 6584TIP3   OH241386   3.539   3.344   0.523  0.4478  0.3249 -0.4086
 6584TIP3    H141387   3.520   3.428   0.483 -1.7809 -0.8818 -2.1344
 6584TIP3    H241388   3.632   3.348   0.545  0.4472  3.1141 -0.6172
 6585TIP3   OH241389   2.888   0.193   0.103 -0.1934 -0.2180 -0.2885
 6585TIP3    H141390   2.937   0.167   0.026  0.6362 -1.1656  0.5275
 6585TIP3    H241391   2.924   0.139   0.174 -1.2177  0.3167  0.6758
 6586TIP3   OH241392   3.065   0.960   0.445  0.0558 -0.1987 -1.2792
 6586TIP3    H141393   3.019   0.876   0.447  2.7572 -1.7887 -0.2550
 6586TIP3    H241394   3.016   1.013   0.383 -1.6355 -2.6229 -2.1696
 6587TIP3   OH241395   2.449   1.407   6.618  0.1174 -0.3786  0.1620
 6587TIP3    H141396   2.527   1.379   6.569  1.0279  0.3214  1.1811
 6587TIP3    H241397   2.478   1.483   6.668 -0.7375 -1.1281  1.8776
 6588TIP3   OH241398   5.465   3.985   0.047 -0.4390 -0.4121  0.2795
 6588TIP3    H141399   5.454   4.066  -0.005  0.1533 -0.3335  0.2712
 6588TIP3    H241400   5.471   4.015   0.137 -0.4122 -0.4642  0.2951
 6589TIP3   OH241401   2.836   6.396   1.912  0.0475 -0.5364  0.0259
 6589TIP3    H141402   2.829   6.455   1.987 -1.8629  0.5245 -0.9148
 6589TIP3    H241403   2.845   6.454   1.837 -0.3226 -1.4925 -0.7713
 6590TIP3   OH241404   6.187   2.617   1.286 -0.2371  0.0734 -0.3027
 6590TIP3    H141405   6.150   2.550   1.344  1.3309 -0.2506  0.3816
 6590TIP3    H241406   6.174   2.583   1.198 -0.0364 -0.8232  0.0062
 6591TIP3   OH241407   3.250   2.780   2.205  0.0883 -0.3472  0.0312
 6591TIP3    H141408   3.319   2.788   2.271 -0.8860 -0.0459  1.0529
 6591TIP3    H241409   3.272   2.844   2.138  0.5116  0.1110  0.6048
 6592TIP3   OH241410   6.482   0.324   2.335 -0.0066 -0.0307 -0.0706
 6592TIP3    H141411   6.403   0.301   2.383  0.1800  1.8755  1.2588
 6592TIP3    H241412   6.550   0.268   2.374 -0.2171  0.1552  0.5767
 6593TIP3   OH241413   1.559   6.806   2.760  0.1549 -0.1917 -0.2316
 6593TIP3    H141414   1.549   6.722   2.716  3.0978 -1.1127  0.6185
 6593TIP3    H241415   1.546   6.871   2.690 -1.1652 -1.3637 -1.1140
 6594TIP3   OH241416   4.075   4.485   1.626 -0.3039 -0.3833 -0.0566
 6594TIP3    H141417   4.136   4.482   1.553 -0.2425  0.0744 -0.0259
 6594TIP3    H241418   4.062   4.393   1.650  0.1043 -0.5030 -0.2845
 6595TIP3   OH241419   5.884   0.931   0.416 -0.1076  0.1373  0.0423
 6595TIP3    H141420   5.933   0.882   0.482 -0.9425 -0.7844  0.0027
 6595TIP3    H241421   5.850   0.864   0.357  0.2044  0.9093 -1.0370
 6596TIP3   OH241422   3.742   0.009   8.150 -0.3380 -0.2295  0.7247
 6596TIP3    H141423   3.648   0.007   8.134  0.1580 -1.3369 -3.1210
 6596TIP3    H241424   3.766  -0.083   8.167  0.0619  0.0497  1.7346
 6597TIP3   OH241425   0.559   1.719   1.552  0.0902 -0.6628 -0.3347
 6597TIP3    H141426   0.526   1.676   1.631 -0.1702 -0.5604 -0.3877
 6597TIP3    H241427   0.507   1.681   1.481 -1.2763  0.8921 -0.2273
 6598TIP3   OH241428   2.984   1.045   7.003  0.3336  0.2767  0.2107
 6598TIP3    H141429   3.060   1.060   6.948 -0.9701  1.0058 -1.4645
 6598TIP3    H241430   2.941   0.969   6.964  0.0980 -0.0349  1.0541
 6599TIP3   OH241431   3.353   4.502   0.552 -0.1896  0.1774  0.4558
 6599TIP3    H141432   3.374   4.548   0.471 -1.8572 -0.2515 -0.2623
 6599TIP3    H241433   3.413   4.539   0.617  0.1797  1.5913 -0.6430
 6600TIP3   OH241434   0.955   1.775   1.083  0.2084 -0.4317 -0.2106
 6600TIP3    H141435   1.018   1.748   1.150 -0.0738  0.1401  0.2941
 6600TIP3    H241436   0.994   1.745   1.001  0.2713 -1.6801  0.2461
 6601TIP3   OH241437   6.792   6.230   1.936  0.1122  0.2299  0.1097
 6601TIP3    H141438   6.802   6.188   1.850  0.7132  0.2892  0.1463
 6601TIP3    H241439   6.752   6.315   1.916  0.7973  0.4933 -0.1831
 6602TIP3   OH241440   1.604   1.438   7.485  0.1087  0.0555  0.1428
 6602TIP3    H141441   1.639   1.349   7.495  1.1556  0.3300 -0.8274
 6602TIP3    H241442   1.670   1.483   7.433 -0.2875  1.4895  0.8361
 6603TIP3   OH241443   5.783   5.272   7.870 -0.1987 -0.2744 -0.4593
 6603TIP3    H141444   5.764   5.365   7.853  0.9245 -0.3453 -2.3757
 6603TIP3    H241445   5.879   5.268   7.873 -0.2531 -1.3039  0.2071
 6604TIP3   OH241446   2.569   2.646   0.303 -0.1970 -0.0634  0.0685
 6604TIP3    H141447   2.662   2.634   0.284 -0.1139 -0.0617  0.4796
 6604TIP3    H241448   2.567   2.695   0.385 -0.5754 -2.2748  1.4530
 6605TIP3   OH241449   0.349   1.944   0.857  0.1337 -1.0011  0.4256
 6605TIP3    H141450   0.330   1.927   0.949 -0.4844 -0.2001  0.4531
 6605TIP3    H241451   0.289   2.014   0.832  0.1791 -1.3120 -0.6308
 6606TIP3   OH241452   1.402   6.804   2.216 -0.3403  0.0653  0.3617
 6606TIP3    H141453   1.329   6.803   2.154 -0.5756  2.1555  0.5601
 6606TIP3    H241454   1.364   6.770   2.297 -0.1640 -2.1744 -0.3953
 6607TIP3   OH241455   1.437   1.492   7.206 -0.2072  0.0869 -0.2361
 6607TIP3    H141456   1.360   1.442   7.180 -0.9634 -0.0445  2.0675
 6607TIP3    H241457   1.474   1.444   7.280 -0.5375  2.4794  1.6176
 6608TIP3   OH241458   2.162   5.573   0.565  0.0475 -0.3582  0.1765
 6608TIP3    H141459   2.114   5.501   0.523 -0.9033  0.5164 -0.2740
 6608TIP3    H241460   2.211   5.530   0.636 -1.4528 -1.2933  0.7003
 6609TIP3   OH241461   1.132   2.052   0.391 -0.4160 -0.1116  0.2269
 6609TIP3    H141462   1.193   2.079   0.459 -0.5857  1.2354 -0.1208
 6609TIP3    H241463   1.177   1.981   0.344 -0.3150 -1.0906  1.7291
 6610TIP3   OH241464   5.577   5.978   7.979  0.5913  0.1709  0.1301
 6610TIP3    H141465   5.665   5.978   8.017  0.2306 -0.8450  1.0157
 6610TIP3    H241466   5.539   6.062   8.005  1.6990  1.1642 -1.2921
 6611TIP3   OH241467   0.077   1.915   7.046 -0.1947  0.2872 -0.0211
 6611TIP3    H141468   0.138   1.908   6.972 -0.4432  1.5435 -0.3659
 6611TIP3    H241469   0.089   1.833   7.094  0.5228 -0.2254 -1.0276
 6612TIP3   OH241470   5.950   1.789   8.381 -0.3952  0.4614  0.2459
 6612TIP3    H141471   5.914   1.766   8.296 -0.5191  1.6114 -0.0321
 6612TIP3    H241472   6.005   1.866   8.364 -0.3978  0.6899  1.1915
 6613TIP3   OH241473   4.427   1.008   1.833 -0.0464  0.2125 -0.2362
 6613TIP3    H141474   4.449   0.936   1.893 -0.0433  1.1034  0.8681
 6613TIP3    H241475   4.445   0.973   1.746  1.1457 -0.7142  0.3485
 6614TIP3   OH241476   5.542   6.049   1.424 -0.1541  0.2589  0.3511
 6614TIP3    H141477   5.551   6.127   1.478 -0.0733 -0.1089  0.8757
 6614TIP3    H241478   5.571   6.076   1.337 -1.7992  1.3020  0.0842
 6615TIP3   OH241479   1.877   1.862   0.621  0.5913 -0.0255 -0.0547
 6615TIP3    H141480   1.917   1.946   0.597 -0.6745  0.7975  0.5847
 6615TIP3    H241481   1.795   1.886   0.665 -0.4593 -1.6181 -1.0301
 6616TIP3   OH241482   4.977   4.930   1.800 -0.5162 -0.2722 -0.2834
 6616TIP3    H141483   5.044   4.866   1.824  0.1274 -0.2969 -2.0092
 6616TIP3    H241484   5.027   5.010   1.780 -1.0808 -0.0221 -0.7079
 6617TIP3   OH241485   0.680   2.619   1.430  0.5996  0.0542  0.8394
 6617TIP3    H141486   0.721   2.533   1.432  1.8999  0.6477  0.6633
 6617TIP3    H241487   0.708   2.657   1.347 -0.5007  0.4060  0.6156
 6618TIP3   OH241488   0.233   2.400   0.229 -0.1022 -0.2566  0.2912
 6618TIP3    H141489   0.323   2.372   0.210 -0.3768 -2.4748  1.8743
 6618TIP3    H241490   0.192   2.323   0.269 -2.1916  1.2648  1.2494
 6619TIP3   OH241491   2.742   4.243   1.324  0.4525  0.2698 -0.4956
 6619TIP3    H141492   2.685   4.316   1.299 -1.2961 -0.4550  1.1251
 6619TIP3    H241493   2.775   4.209   1.241 -3.0323 -0.4692 -1.7627
 6620TIP3   OH241494   5.024   4.016   0.438  0.0798  0.0976 -0.3234
 6620TIP3    H141495   5.045   4.080   0.506  1.9461  0.8930 -1.5449
 6620TIP3    H241496   5.090   3.947   0.448  1.3096  0.9292 -2.1293
 6621TIP3   OH241497   0.566   6.761   7.782  0.4261  0.8259  0.1332
 6621TIP3    H141498   0.634   6.823   7.810  0.6347  0.3089  0.7899
 6621TIP3    H241499   0.503   6.760   7.855  1.6643 -1.5644  1.2802
 6622TIP3   OH241500   6.242   4.678   1.676 -0.5924  0.0761  0.1657
 6622TIP3    H141501   6.227   4.617   1.604 -1.4362  0.3797  0.0771
 6622TIP3    H241502   6.191   4.756   1.653 -0.6260  0.2964  0.9408
 6623TIP3   OH241503   0.320   5.681   1.949  0.4227  0.2857  0.2065
 6623TIP3    H141504   0.251   5.716   2.005  1.9111  3.4662  0.3233
 6623TIP3    H241505   0.275   5.653   1.869 -1.0952  1.8548  0.4428
 6624TIP3   OH241506   3.336   0.282   0.809 -0.0090 -0.0366  0.0206
 6624TIP3    H141507   3.289   0.199   0.815  0.2055 -0.2001 -0.5093
 6624TIP3    H241508   3.348   0.297   0.715 -0.3768  0.7882  0.0958
 6625TIP3   OH241509   3.289   3.601   0.562  0.1796 -0.3621 -0.0332
 6625TIP3    H141510   3.363   3.585   0.503  0.6900 -0.7381  0.6899
 6625TIP3    H241511   3.249   3.681   0.529  0.1067 -0.8673 -1.2350
 6626TIP3   OH241512   3.420   0.502   8.179 -0.7615  0.1646 -0.1917
 6626TIP3    H141513   3.444   0.591   8.154 -0.5402  0.1159 -0.1531
 6626TIP3    H241514   3.328   0.508   8.203 -0.3759  0.6802  1.2468
 6627TIP3   OH241515   5.780   0.746   0.251  0.4727  0.8538  0.0618
 6627TIP3    H141516   5.686   0.740   0.268  0.4500  0.4992 -0.1740
 6627TIP3    H241517   5.796   0.679   0.184  1.1246 -0.0344  1.0800
 6628TIP3   OH241518   6.845   0.420   7.143  0.4675 -0.0475 -0.0079
 6628TIP3    H141519   6.868   0.338   7.099  2.3400  1.6069 -2.2912
 6628TIP3    H241520   6.905   0.425   7.218  3.0100  0.8779 -1.9590
 6629TIP3   OH241521   3.739   0.631   1.175  0.7371  0.3421 -0.0683
 6629TIP3    H141522   3.667   0.663   1.121 -0.3049 -1.5232  0.1440
 6629TIP3    H241523   3.708   0.548   1.210  2.2500  0.4299  1.6261
 6630TIP3   OH241524   3.062   0.473   0.915  0.0909  0.3831  0.1630
 6630TIP3    H141525   3.091   0.442   0.830 -0.5862  1.7985 -0.6240
 6630TIP3    H241526   2.966   0.469   0.910 -0.0039  2.0206  0.2172
 6631TIP3   OH241527   5.072   2.098   2.177  0.1545 -0.6207 -0.2768
 6631TIP3    H141528   4.998   2.038   2.177  0.3032 -0.8281 -1.1657
 6631TIP3    H241529   5.056   2.158   2.250  0.6965 -2.5808  1.5694
 6632TIP3   OH241530   2.141   2.953   0.682  0.0056  0.4081  0.2552
 6632TIP3    H141531   2.117   3.017   0.615  1.6828  1.1516  0.3100
 6632TIP3    H241532   2.058   2.921   0.716 -0.9186  0.0894 -2.0830
 6633TIP3   OH241533   6.761   3.813   1.190 -0.2229  1.2185  0.3084
 6633TIP3    H141534   6.714   3.864   1.256 -1.6559  0.0031  0.2830
 6633TIP3    H241535   6.732   3.849   1.106 -0.7973  0.7725  0.3041
 6634TIP3   OH241536   0.896   5.274   7.953  0.0307  0.3301  0.4908
 6634TIP3    H141537   0.876   5.273   8.047  0.3191  0.5406  0.5527
 6634TIP3    H241538   0.949   5.352   7.940 -0.9069  0.9027 -0.0322
 6635TIP3   OH241539   1.376   2.826   0.813 -0.1466 -0.1569  0.1144
 6635TIP3    H141540   1.469   2.823   0.835 -0.9318  0.7343  4.5282
 6635TIP3    H241541   1.368   2.898   0.751  1.7370  2.6006  2.8194
 6636TIP3   OH241542   5.827   4.716   1.477  0.1687  0.0574  0.1313
 6636TIP3    H141543   5.840   4.810   1.467 -1.9024  0.2912 -0.9594
 6636TIP3    H241544   5.857   4.678   1.394 -0.6283 -0.0139 -0.1380
 6637TIP3   OH241545   2.239   1.888   6.501 -0.1492 -0.0158 -0.6616
 6637TIP3    H141546   2.197   1.889   6.415  0.7672 -2.0124 -1.1764
 6637TIP3    H241547   2.202   1.812   6.545  2.4839 -1.5917 -0.9667
 6638TIP3   OH241548   5.877   4.895   0.269 -0.1179 -0.6346  0.5470
 6638TIP3    H141549   5.791   4.875   0.305 -0.1066 -1.2055  0.2763
 6638TIP3    H241550   5.934   4.827   0.304 -0.0444 -1.0134 -0.2755
 6639TIP3   OH241551   1.885   4.465   1.123  0.3932  0.0818  0.0123
 6639TIP3    H141552   1.859   4.417   1.202 -0.4380 -0.0785 -0.3491
 6639TIP3    H241553   1.945   4.532   1.155  2.2857 -1.7176  0.4248
 6640TIP3   OH241554   3.654   3.814   2.767 -0.0117  0.1483  0.3493
 6640TIP3    H141555   3.750   3.814   2.762  0.1980 -0.7033  3.0713
 6640TIP3    H241556   3.630   3.721   2.772 -0.9053  0.3911  0.7441
 6641TIP3   OH241557   1.850   3.128   7.767  0.5658  0.4888  0.2540
 6641TIP3    H141558   1.901   3.150   7.689  1.7770  0.3308  0.9752
 6641TIP3    H241559   1.824   3.213   7.804  1.1385  0.6002  0.4083
 6642TIP3   OH241560   3.556   0.068   1.896  0.0434 -0.0529  0.4321
 6642TIP3    H141561   3.617   0.122   1.846 -0.9469  0.9179  0.2402
 6642TIP3    H241562   3.573   0.091   1.987  0.1043  0.0567  0.3933
 6643TIP3   OH241563   1.538   6.274   7.358 -0.3934  0.1525  0.0219
 6643TIP3    H141564   1.611   6.216   7.337  0.5733  0.6388  1.8281
 6643TIP3    H241565   1.552   6.351   7.302  1.7512  1.1508  1.7628
 6644TIP3   OH241566   5.023   6.102   0.191  0.6932 -0.1958 -0.2546
 6644TIP3    H141567   5.020   6.027   0.131 -1.0149  1.3252 -2.2557
 6644TIP3    H241568   5.103   6.148   0.167  1.6257 -1.1993  0.8221
 6645TIP3   OH241569   1.869   4.080   8.018  0.6300  0.3322 -0.8630
 6645TIP3    H141570   1.963   4.097   8.010  0.5152  0.4177 -2.2283
 6645TIP3    H241571   1.830   4.123   7.942 -0.6592  1.2364  0.2626
 6646TIP3   OH241572   3.813   1.151   7.996 -0.3310 -0.2173  0.1456
 6646TIP3    H141573   3.752   1.188   7.933 -0.3541 -0.1576  0.2037
 6646TIP3    H241574   3.849   1.074   7.952 -1.2437 -0.8826  0.5046
 6647TIP3   OH241575   1.383   0.493   0.002 -0.0805 -0.0417  0.7244
 6647TIP3    H141576   1.421   0.420  -0.046 -0.2033  1.4009 -1.7471
 6647TIP3    H241577   1.397   0.472   0.094  0.1272 -3.0036  0.1042
 6648TIP3   OH241578   4.069   5.273   1.403  0.0009  0.4420 -0.0768
 6648TIP3    H141579   4.102   5.359   1.378  0.4733  0.1795 -0.3627
 6648TIP3    H241580   4.131   5.241   1.468  0.0109  0.1749 -0.2149
 6649TIP3   OH241581   0.939   1.397   7.993  0.2043  0.2701  0.2530
 6649TIP3    H141582   0.882   1.332   8.033 -0.8249  0.5680 -0.6971
 6649TIP3    H241583   1.007   1.413   8.059 -1.2025  0.4529  1.7076
 6650TIP3   OH241584   2.425   6.070   0.223 -0.1090  0.3245 -0.1690
 6650TIP3    H141585   2.491   6.090   0.289 -0.2329  1.9284 -0.4820
 6650TIP3    H241586   2.408   6.154   0.181 -0.9431 -0.4359 -1.3975
 6651TIP3   OH241587   3.558   4.382   8.029 -0.3959 -0.4744  0.3516
 6651TIP3    H141588   3.554   4.296   8.072  0.5184 -0.5218  0.3541
 6651TIP3    H241589   3.591   4.442   8.097 -1.9095  0.0807  0.6298
 6652TIP3   OH241590   6.824   3.230   0.317 -0.4387  1.1091 -0.4288
 6652TIP3    H141591   6.861   3.204   0.401 -0.1691 -0.5864 -1.0425
 6652TIP3    H241592   6.866   3.314   0.297 -0.4125  1.4692  1.0522
 6653TIP3   OH241593   4.512   4.554   8.012  0.0356  0.9623 -0.5701
 6653TIP3    H141594   4.438   4.565   8.071 -0.1024 -2.4657  0.0797
 6653TIP3    H241595   4.589   4.562   8.069 -0.0874 -1.7599  0.1290
 6654TIP3   OH241596   4.195   0.801   8.019  0.0209  0.2558 -0.2488
 6654TIP3    H141597   4.174   0.747   8.095  2.0782 -0.5601 -0.1981
 6654TIP3    H241598   4.221   0.738   7.951  2.6443  1.1054 -0.1448
 6655TIP3   OH241599   3.322   6.069   8.423 -0.2630 -0.1718  0.0543
 6655TIP3    H141600   3.398   6.081   8.366 -1.9799  1.4434 -2.0705
 6655TIP3    H241601   3.347   6.113   8.505  0.4016  2.1515 -1.2987
 6656TIP3   OH241602   6.008   5.073   0.052  0.4458  0.2403  0.1652
 6656TIP3    H141603   6.010   5.008   0.122  0.6510  0.9733  0.8592
 6656TIP3    H241604   6.071   5.140   0.079  1.4638 -0.0676 -1.3410
 6657TIP3   OH241605   0.900   2.560   0.303 -0.3203  0.0390  0.0691
 6657TIP3    H141606   0.955   2.482   0.299  1.3665  1.1648 -0.0624
 6657TIP3    H241607   0.852   2.560   0.220 -0.5228 -0.9635  0.1776
 6658TIP3   OH241608   5.647   6.167   1.199  0.2724 -0.0780 -0.7725
 6658TIP3    H141609   5.734   6.129   1.189  1.2120  1.1646  1.8777
 6658TIP3    H241610   5.656   6.256   1.165 -0.3704 -0.3474 -1.6982
 6659TIP3   OH241611   4.829   3.346   7.695 -0.0813  0.4061  0.7443
 6659TIP3    H141612   4.912   3.303   7.716 -0.4251 -0.3326  0.6178
 6659TIP3    H241613   4.805   3.312   7.609 -0.0186  1.3946  0.3125
 6660TIP3   OH241614   3.316   4.480   1.758  0.1648 -0.0340  0.4356
 6660TIP3    H141615   3.382   4.521   1.702  0.2716 -1.3285 -0.4277
 6660TIP3    H241616   3.308   4.391   1.724 -0.9923 -0.3358  1.4424
 6661TIP3   OH241617   0.977   4.880   1.841 -0.4624  0.2314  1.0481
 6661TIP3    H141618   0.931   4.939   1.782  0.5354  0.6446  0.6530
 6661TIP3    H241619   0.995   4.931   1.919 -1.0079 -0.0494  1.3636
 6662TIP3   OH241620   4.062   6.407   0.271  0.0106  0.3641 -0.4097
 6662TIP3    H141621   4.152   6.392   0.298  0.8830  2.2458 -2.0682
 6662TIP3    H241622   4.010   6.380   0.347  1.7746 -2.6092 -0.0816
 6663TIP3   OH241623   1.564   3.616   0.957  0.3660  0.1257 -0.0663
 6663TIP3    H141624   1.640   3.588   0.906 -0.4469  0.4005 -1.4777
 6663TIP3    H241625   1.517   3.676   0.900  0.3462  1.8865  1.6863
 6664TIP3   OH241626   5.876   5.051   0.559 -0.2836 -0.0592 -0.4130
 6664TIP3    H141627   5.808   5.118   0.548  0.4931  0.5868 -1.4467
 6664TIP3    H241628   5.853   4.983   0.496 -0.7860 -0.5452  0.2803
 6665TIP3   OH241629   5.951   2.217   0.271 -0.4018 -0.3088 -0.2337
 6665TIP3    H141630   5.896   2.164   0.214 -0.4991  0.0545 -0.4780
 6665TIP3    H241631   5.938   2.307   0.241  1.5561 -0.3440 -1.3666
 6666TIP3   OH241632   4.845   3.993   8.092 -0.2174 -0.1871  0.0266
 6666TIP3    H141633   4.899   3.931   8.141  0.3442 -1.6663 -2.2751
 6666TIP3    H241634   4.790   3.937   8.037 -0.2129  1.3509 -1.6172
 6667TIP3   OH241635   0.763   3.916   2.512  0.1165 -0.5101  0.3066
 6667TIP3    H141636   0.837   3.961   2.553  0.1343  0.9228 -1.2247
 6667TIP3    H241637   0.740   3.970   2.437  0.8259 -3.5519 -2.3030
 6668TIP3   OH241638   1.887   6.853   0.391 -0.5952 -0.4159  0.2550
 6668TIP3    H141639   1.948   6.822   0.459 -0.9360 -0.6297  0.4676
 6668TIP3    H241640   1.944   6.880   0.319  0.1393  4.1307  2.2197
 6669TIP3   OH241641   0.474   3.872   0.971  0.2896 -0.4154  0.3317
 6669TIP3    H141642   0.477   3.967   0.978  0.9141 -0.3802 -0.2718
 6669TIP3    H241643   0.425   3.843   1.047 -0.3286  0.4235  0.2588
 6670TIP3   OH241644   1.972   3.347   1.882 -0.2083 -0.4215 -0.1250
 6670TIP3    H141645   1.890   3.338   1.929 -1.5413  1.3549 -1.9290
 6670TIP3    H241646   2.000   3.258   1.863  1.1021 -1.3914  4.8654
 6671TIP3   OH241647   1.272   3.973   2.340 -0.0108  0.1610 -0.0782
 6671TIP3    H141648   1.365   3.974   2.362 -0.0778  0.8171  0.2063
 6671TIP3    H241649   1.245   3.882   2.353  0.2063  0.2973  1.4986
 6672TIP3   OH241650   2.342   4.379   8.420 -0.3334  0.4317 -0.2590
 6672TIP3    H141651   2.374   4.324   8.349 -1.2879  1.1799 -1.2954
 6672TIP3    H241652   2.420   4.399   8.472  0.4095 -0.0080 -1.1755
 6673TIP3   OH241653   0.845   1.576   1.810 -0.3376 -0.1318  0.2292
 6673TIP3    H141654   0.940   1.569   1.813 -0.4213 -1.2022  0.8191
 6673TIP3    H241655   0.825   1.589   1.717  0.3691 -0.0780  0.0805
 6674TIP3   OH241656   2.681   2.857   6.485  0.4786 -0.0267  0.6633
 6674TIP3    H141657   2.746   2.824   6.547  0.5188  1.8931  1.7259
 6674TIP3    H241658   2.601   2.810   6.507  1.2961 -2.0196 -0.2996
 6675TIP3   OH241659   3.925   4.842   0.186  0.2083 -0.0327 -0.1231
 6675TIP3    H141660   3.914   4.747   0.186 -0.0430 -0.0043 -0.2774
 6675TIP3    H241661   3.901   4.869   0.097  0.1252  0.1945 -0.0324
 6676TIP3   OH241662   6.049   4.714   7.876 -0.6064 -0.3557  0.5490
 6676TIP3    H141663   6.002   4.751   7.801 -1.0014 -0.1079  0.9117
 6676TIP3    H241664   6.131   4.682   7.840  0.2770  1.9084  0.4036
 6677TIP3   OH241665   2.406   5.526   7.015  0.3321  0.0785  0.0534
 6677TIP3    H141666   2.460   5.593   7.057 -0.5447  0.8267  0.0127
 6677TIP3    H241667   2.419   5.540   6.921 -0.7509  0.9716  0.0176
 6678TIP3   OH241668   4.689   4.193   1.492  0.2029  0.1067 -0.2603
 6678TIP3    H141669   4.646   4.111   1.467 -1.6645  0.6616  0.9116
 6678TIP3    H241670   4.679   4.198   1.587  2.4224  0.5821  0.0193
 6679TIP3   OH241671   5.513   6.494   1.691 -0.4549 -0.4993 -0.0549
 6679TIP3    H141672   5.503   6.399   1.679 -1.6011 -0.2021 -1.7056
 6679TIP3    H241673   5.565   6.502   1.771  1.0014 -2.5501 -0.7076
 6680TIP3   OH241674   4.373   2.069   8.232  0.4277 -0.0046  0.7079
 6680TIP3    H141675   4.308   2.133   8.202 -0.0523 -0.5783  0.5083
 6680TIP3    H241676   4.357   2.061   8.326 -0.8183 -1.2699  0.4155
 6681TIP3   OH241677   4.057   1.678   1.268 -0.1410 -0.6481 -0.2742
 6681TIP3    H141678   4.059   1.701   1.175 -1.4917  0.2430 -0.1045
 6681TIP3    H241679   3.991   1.737   1.306 -1.3920 -2.6173  0.7818
 6682TIP3   OH241680   0.577   4.057   0.101  0.3417  0.3516 -0.2741
 6682TIP3    H141681   0.565   3.976   0.052  1.7078  0.7537 -1.3102
 6682TIP3    H241682   0.670   4.059   0.123  0.0887  1.0447  0.8233
 6683TIP3   OH241683   1.518   1.431   1.777 -0.3775 -0.3265 -0.3999
 6683TIP3    H141684   1.567   1.405   1.855  0.3641 -1.5633 -1.2560
 6683TIP3    H241685   1.560   1.385   1.705 -1.0989  0.7297 -1.5446
 6684TIP3   OH241686   3.492   4.448   0.261 -0.0058 -0.0481  0.7493
 6684TIP3    H141687   3.535   4.412   0.339  1.5652 -0.5063 -0.2904
 6684TIP3    H241688   3.452   4.529   0.292 -1.4224 -1.3214  2.5500
 6685TIP3   OH241689   1.577   1.975   0.731  0.0017 -1.0503  0.3124
 6685TIP3    H141690   1.516   2.033   0.777 -1.7235 -1.3483 -1.4429
 6685TIP3    H241691   1.618   2.032   0.665  0.6520 -1.1487  0.6266
 6686TIP3   OH241692   2.059   6.106   1.719 -0.3085  0.1144  0.2669
 6686TIP3    H141693   2.065   6.059   1.636  0.9289  1.6021 -0.5349
 6686TIP3    H241694   1.998   6.054   1.772  0.0536 -1.6816 -1.0049
 6687TIP3   OH241695   6.654   5.547   1.769  0.1027 -0.3108 -0.0097
 6687TIP3    H141696   6.688   5.535   1.858 -0.7417  0.8930  0.5073
 6687TIP3    H241697   6.566   5.510   1.772 -0.1797  0.3332 -0.1425
 6688TIP3   OH241698   4.816   5.559   0.617  0.1805 -0.2583  0.3842
 6688TIP3    H141699   4.855   5.614   0.549 -0.0518 -0.9964 -0.3639
 6688TIP3    H241700   4.750   5.508   0.570  0.5590 -1.3369  1.0195
 6689TIP3   OH241701   6.866   3.756   1.633 -0.2118 -0.2674 -0.4986
 6689TIP3    H141702   6.905   3.760   1.720 -0.3181 -0.5822 -0.4349
 6689TIP3    H241703   6.840   3.846   1.615  1.1131  0.0775 -0.8113
 6690TIP3   OH241704   5.179   3.829   0.008  0.3450  0.0734  0.1259
 6690TIP3    H141705   5.207   3.774  -0.065  0.1417 -0.6326  0.5694
 6690TIP3    H241706   5.249   3.893   0.018 -0.7481  1.7856 -2.2864
 6691TIP3   OH241707   0.289   2.318   8.454  0.0176  0.1106 -0.0979
 6691TIP3    H141708   0.283   2.226   8.427 -0.2634 -0.4027  1.6086
 6691TIP3    H241709   0.256   2.367   8.378 -2.3711 -1.3351 -0.1065
 6692TIP3   OH241710   3.377   4.909   0.398 -0.3986  0.2753  0.4866
 6692TIP3    H141711   3.321   4.970   0.350 -1.2471 -0.8649 -0.0120
 6692TIP3    H241712   3.464   4.949   0.394 -0.4933  0.3947 -1.7401
 6693TIP3   OH241713   5.594   5.760   2.646  0.2053 -0.1742 -0.3623
 6693TIP3    H141714   5.627   5.709   2.572  0.9449  1.0067 -0.8707
 6693TIP3    H241715   5.571   5.845   2.609 -0.6458  0.0088  0.5380
 6694TIP3   OH241716   5.090   5.079   0.517 -0.1086 -0.0639  0.1756
 6694TIP3    H141717   5.030   5.007   0.502 -0.6959  0.7358 -1.6147
 6694TIP3    H241718   5.065   5.115   0.602 -1.4358 -0.4368 -0.0430
 6695TIP3   OH241719   5.120   1.638   7.659 -0.2073 -0.1806  0.6674
 6695TIP3    H141720   5.026   1.645   7.643  0.2378  0.8498 -1.9925
 6695TIP3    H241721   5.138   1.705   7.725 -1.0328  1.3145 -0.5487
 6696TIP3   OH241722   3.433   4.946   8.453 -0.6865 -0.4836  0.4604
 6696TIP3    H141723   3.368   4.890   8.411 -0.3351 -0.5010 -0.0700
 6696TIP3    H241724   3.437   5.024   8.398  0.3707 -0.8531 -0.0251
 6697TIP3   OH241725   1.859   6.020   8.399 -0.6663 -0.4703 -0.0858
 6697TIP3    H141726   1.908   6.035   8.318  1.5865 -0.8349  1.1181
 6697TIP3    H241727   1.851   5.925   8.405  0.6735 -0.5475  0.8987
 6698TIP3   OH241728   3.347   6.139   6.874 -0.9060  0.1344 -0.3074
 6698TIP3    H141729   3.442   6.128   6.877 -0.9371 -0.3500 -0.8201
 6698TIP3    H241730   3.328   6.205   6.940 -0.1686  0.5255 -0.4768
 6699TIP3   OH241731   2.715   6.316   1.173  0.3380 -0.3562  0.2446
 6699TIP3    H141732   2.631   6.346   1.136  0.4206  0.3961  0.6577
 6699TIP3    H241733   2.702   6.319   1.268  0.6060 -0.9236  0.3066
 6700TIP3   OH241734   6.536   3.978   2.338  0.4476  0.4472 -0.2193
 6700TIP3    H141735   6.554   4.033   2.415  2.6478 -1.2269  0.5743
 6700TIP3    H241736   6.458   3.928   2.362  0.3597  0.8630  0.3940
 6701TIP3   OH241737   3.581   5.914   1.339  0.2411 -0.1306 -0.2462
 6701TIP3    H141738   3.628   5.995   1.320  1.6724 -1.1443 -1.2947
 6701TIP3    H241739   3.649   5.846   1.338 -0.6696 -1.1749  2.1148
 6702TIP3   OH241740   3.266   2.661   8.350  0.0417  0.1382  0.8587
 6702TIP3    H141741   3.347   2.675   8.301 -0.2516 -0.3735  0.2140
 6702TIP3    H241742   3.271   2.724   8.422 -0.1214  1.8887 -0.5775
 6703TIP3   OH241743   5.624   2.150   1.130 -0.0871 -0.4072 -0.1636
 6703TIP3    H141744   5.583   2.232   1.102  0.6533  0.3567  0.8719
 6703TIP3    H241745   5.700   2.140   1.072  0.4638  0.2595  0.4153
 6704TIP3   OH241746   2.587   4.161   2.015 -0.0788 -0.5016  0.5923
 6704TIP3    H141747   2.595   4.076   1.972 -0.0065 -0.8141  1.2212
 6704TIP3    H241748   2.495   4.167   2.040 -0.0550 -0.4506  0.6665
 6705TIP3   OH241749   0.304   5.764   7.826  0.1791 -0.9249  0.1325
 6705TIP3    H141750   0.216   5.728   7.829  0.3190 -1.3485 -0.5698
 6705TIP3    H241751   0.343   5.741   7.910 -0.0942 -1.4667  0.1101
 6706TIP3   OH241752   1.852   4.902   0.171 -0.0818  0.6491 -0.0069
 6706TIP3    H141753   1.771   4.953   0.169  0.1926  1.1677  1.2234
 6706TIP3    H241754   1.906   4.941   0.102  0.1023  2.0108  0.8798
 6707TIP3   OH241755   2.717   0.675   7.523  0.0853 -0.9372  0.2271
 6707TIP3    H141756   2.663   0.632   7.589 -0.4031  0.4272  0.7733
 6707TIP3    H241757   2.658   0.740   7.484  0.8853 -0.4953 -0.2712
 6708TIP3   OH241758   5.651   3.739   2.516 -0.0774  0.1622 -0.6993
 6708TIP3    H141759   5.660   3.651   2.478  0.4141  0.2676 -0.8375
 6708TIP3    H241760   5.592   3.727   2.591  1.9228 -0.7760  0.8235
 6709TIP3   OH241761   5.202   3.340   1.129 -0.1806 -0.0238 -0.1100
 6709TIP3    H141762   5.253   3.406   1.176 -0.7080  0.8185 -0.6855
 6709TIP3    H241763   5.232   3.256   1.165  0.8753  0.4946  0.2694
 6710TIP3   OH241764   2.010   5.179   0.178 -0.2575 -0.1421  0.0623
 6710TIP3    H141765   2.025   5.114   0.247 -1.0004 -0.3837  0.0063
 6710TIP3    H241766   1.994   5.127   0.099  0.9434  0.1328 -0.3906
 6711TIP3   OH241767   1.445   2.282   2.369  0.7751  0.6061 -0.2324
 6711TIP3    H141768   1.404   2.208   2.324  0.7947 -0.7532  1.8575
 6711TIP3    H241769   1.488   2.243   2.445  0.7016  2.7818  1.0057
 6712TIP3   OH241770   5.868   0.690   7.999  0.3758  0.1674 -0.2041
 6712TIP3    H141771   5.846   0.773   8.040 -0.1722 -0.5131  0.9033
 6712TIP3    H241772   5.957   0.671   8.030 -0.2485 -0.6262  1.1842
 6713TIP3   OH241773   5.751   4.470   1.329 -0.5534 -0.0196 -0.1048
 6713TIP3    H141774   5.720   4.501   1.414 -0.3988 -1.0712  0.3521
 6713TIP3    H241775   5.846   4.477   1.334 -0.5497  0.0036 -0.2158
 6714TIP3   OH241776   1.488   0.230   1.566  0.3385  0.2471  0.2450
 6714TIP3    H141777   1.500   0.248   1.659  2.1723 -0.3929  0.1681
 6714TIP3    H241778   1.429   0.154   1.564  1.8882 -1.0480  1.0034
 6715TIP3   OH241779   5.254   1.024   1.049 -0.3381  0.0236  0.3530
 6715TIP3    H141780   5.272   0.938   1.011 -0.0774  0.1505  0.1876
 6715TIP3    H241781   5.292   1.020   1.137  1.1547  0.5227 -0.2306
 6716TIP3   OH241782   3.314   0.188   1.141 -0.2655  0.3118 -0.2614
 6716TIP3    H141783   3.368   0.262   1.114 -0.5602  0.6767  0.1508
 6716TIP3    H241784   3.310   0.132   1.063  0.6387  0.3109 -0.3273
 6717TIP3   OH241785   4.469   1.140   0.350  0.0816 -0.1546  0.1185
 6717TIP3    H141786   4.452   1.119   0.442 -0.5321  0.2245  0.0966
 6717TIP3    H241787   4.382   1.148   0.311  0.3156  0.9483 -0.2043
 6718TIP3   OH241788   4.808   5.230   1.000  0.2770 -0.0506  0.4044
 6718TIP3    H141789   4.866   5.305   0.992  0.2520 -0.1116 -0.4878
 6718TIP3    H241790   4.729   5.264   1.043 -0.7784  1.0514 -2.2234
 6719TIP3   OH241791   4.661   0.914   0.583  0.3831  0.0445  0.8787
 6719TIP3    H141792   4.676   1.007   0.599  1.7263  0.0657 -0.2849
 6719TIP3    H241793   4.624   0.881   0.665 -3.7304  2.2793  0.2178
 6720TIP3   OH241794   0.982   1.585   7.154 -0.0247 -0.1750  0.6179
 6720TIP3    H141795   0.947   1.672   7.134  1.7695  0.7804  1.4798
 6720TIP3    H241796   1.004   1.548   7.068  1.2816  1.1560  0.3402
 6721TIP3   OH241797   4.862   2.087   0.828  0.7151  0.7788  0.4282
 6721TIP3    H141798   4.864   2.177   0.795  0.8283  1.2217  1.5989
 6721TIP3    H241799   4.944   2.049   0.799  2.1879  2.0750  2.6357
 6722TIP3   OH241800   5.851   0.986   1.392  0.3287 -0.0574  0.0168
 6722TIP3    H141801   5.846   0.927   1.467  0.7001  0.1545  0.2164
 6722TIP3    H241802   5.906   0.939   1.328  0.0393 -0.2241 -0.1111
 6723TIP3   OH241803   4.089   6.368   0.952 -0.5634  0.1385  0.2271
 6723TIP3    H141804   4.145   6.433   0.992  1.5152 -0.8683 -0.8843
 6723TIP3    H241805   4.083   6.297   1.016 -0.6726  0.3110  0.4056
 6724TIP3   OH241806   2.098   6.762   0.525  0.1912  0.0639 -0.0436
 6724TIP3    H141807   2.159   6.836   0.528  1.1934 -0.7432 -0.0458
 6724TIP3    H241808   2.139   6.695   0.580  0.3973 -1.2995 -1.7691
 6725TIP3   OH241809   2.221   2.723   1.354  0.7471 -0.1854  0.2689
 6725TIP3    H141810   2.262   2.793   1.303  0.8148 -0.4936 -0.1049
 6725TIP3    H241811   2.279   2.647   1.341  1.8469  0.2218  2.3710
 6726TIP3   OH241812   2.130   3.314   7.109 -0.7471 -0.2858  0.2038
 6726TIP3    H141813   2.042   3.351   7.113 -0.8383 -0.1768 -1.7578
 6726TIP3    H241814   2.169   3.353   7.030  1.0865 -0.3030  1.0329
 6727TIP3   OH241815   6.028   5.089   7.968 -0.3922  0.4173 -0.2886
 6727TIP3    H141816   6.077   5.170   7.982  0.7286  0.0247 -1.7069
 6727TIP3    H241817   6.095   5.021   7.966 -1.4357 -0.8875  2.6955
 6728TIP3   OH241818   4.231   6.929   0.531 -0.2310 -0.6317 -0.2481
 6728TIP3    H141819   4.317   6.970   0.532 -0.2231 -0.6459 -0.5007
 6728TIP3    H241820   4.243   6.846   0.486 -0.6232 -0.0832 -1.4064
 6729TIP3   OH241821   6.602   6.602   2.354  0.0141  0.5406  0.3411
 6729TIP3    H141822   6.518   6.558   2.372  0.1969  0.3543  0.7545
 6729TIP3    H241823   6.621   6.651   2.434  1.3858 -1.1720  1.1364
 6730TIP3   OH241824   6.478   5.495   0.357  0.1455 -0.5651 -0.4281
 6730TIP3    H141825   6.461   5.585   0.384  0.3714 -0.2524 -1.2844
 6730TIP3    H241826   6.564   5.499   0.313  0.2058 -1.2135 -0.3812
 6731TIP3   OH241827   3.014   1.092   6.318 -0.1531  0.5515 -0.9008
 6731TIP3    H141828   2.973   1.149   6.253  0.1881  0.0560 -1.5640
 6731TIP3    H241829   3.065   1.029   6.266 -0.6826 -0.4923 -0.2026
 6732TIP3   OH241830   1.882   6.313   8.097 -0.0311 -0.4320 -0.3409
 6732TIP3    H141831   1.853   6.404   8.101  0.9232 -0.1304 -0.0607
 6732TIP3    H241832   1.818   6.270   8.041 -0.0443  0.5850 -1.1275
 6733TIP3   OH241833   1.917   4.628   0.222  0.0559 -0.2463 -0.3000
 6733TIP3    H141834   1.896   4.719   0.201  0.2567 -0.2200 -0.3907
 6733TIP3    H241835   1.994   4.634   0.279  2.4450 -0.4855 -3.2761
 6734TIP3   OH241836   1.269   4.149   7.801 -0.2286  0.0212  0.2689
 6734TIP3    H141837   1.265   4.226   7.858  0.0116  0.1065  0.1726
 6734TIP3    H241838   1.292   4.184   7.715  1.0076 -0.2613  0.4587
 6735TIP3   OH241839   2.137   3.590   7.235  0.1583 -0.0839 -0.1083
 6735TIP3    H141840   2.147   3.495   7.233  1.4137  0.0372 -2.0917
 6735TIP3    H241841   2.188   3.619   7.311  1.3793 -0.8586 -0.6103
 6736TIP3   OH241842   1.998   4.350   2.474 -0.4418 -0.1550 -0.2513
 6736TIP3    H141843   1.927   4.291   2.449 -0.5703  0.7684 -2.3081
 6736TIP3    H241844   1.974   4.434   2.434  1.9263  0.0899 -1.3322
 6737TIP3   OH241845   5.842   6.891   1.558  0.8857  0.5523 -0.0703
 6737TIP3    H141846   5.761   6.839   1.565 -0.5046  2.5859 -0.1209
 6737TIP3    H241847   5.871   6.878   1.468 -0.3291  1.0686 -0.5638
 6738TIP3   OH241848   4.117   0.510   0.997 -0.6928  0.0272  0.2074
 6738TIP3    H141849   4.083   0.471   0.916 -1.3067  0.1315  0.4067
 6738TIP3    H241850   4.075   0.596   1.001 -1.1991 -0.2452  0.9779
 6739TIP3   OH241851   2.821   2.652   7.274  0.1104 -0.3625 -0.2607
 6739TIP3    H141852   2.873   2.732   7.276 -0.8037  0.2797 -1.3955
 6739TIP3    H241853   2.878   2.587   7.232  1.0158 -0.4699  1.0505
 6740TIP3   OH241854   6.458   2.827   7.996  0.2412 -0.0971  0.5461
 6740TIP3    H141855   6.486   2.771   8.069 -0.4462 -0.8096  0.2832
 6740TIP3    H241856   6.363   2.815   7.993  0.0504  1.2214  0.5758
 6741TIP3   OH241857   2.942   2.549   2.513 -0.4468  0.4122  0.1515
 6741TIP3    H141858   2.890   2.595   2.447 -2.1182 -0.8100  0.5596
 6741TIP3    H241859   2.904   2.461   2.516  1.0562 -0.2409  1.1580
 6742TIP3   OH241860   1.717   0.158   6.934 -0.0586  0.0042 -0.2649
 6742TIP3    H141861   1.793   0.111   6.899 -1.7616 -3.0977 -0.1836
 6742TIP3    H241862   1.643   0.126   6.882 -1.5962  1.2676  1.0524
 6743TIP3   OH241863   4.187   5.869   7.080  0.3916  0.8105 -0.0268
 6743TIP3    H141864   4.196   5.809   7.006 -0.7166 -0.4690  0.8320
 6743TIP3    H241865   4.185   5.956   7.040  0.7130  0.2077 -1.4152
 6744TIP3   OH241866   4.114   2.832   0.814 -0.6905  0.1303 -0.3442
 6744TIP3    H141867   4.137   2.871   0.898 -2.4318 -0.7219  0.5732
 6744TIP3    H241868   4.022   2.854   0.801 -0.3454  0.5865 -2.2494
 6745TIP3   OH241869   4.178   2.364   0.415  0.0575  0.1185  0.1524
 6745TIP3    H141870   4.243   2.294   0.412  0.0608  0.1077  0.4355
 6745TIP3    H241871   4.098   2.325   0.380  0.0800 -0.0029  0.2379
 6746TIP3   OH241872   5.927   2.614   7.802  0.3813 -0.8656 -0.6781
 6746TIP3    H141873   5.930   2.704   7.770  0.3747 -0.6481 -0.0755
 6746TIP3    H241874   5.909   2.562   7.724  0.4050 -0.3475 -1.0353
 6747TIP3   OH241875   5.374   1.318   0.422 -0.4894 -0.0696  0.4675
 6747TIP3    H141876   5.470   1.324   0.421 -0.4829  0.3614  1.8023
 6747TIP3    H241877   5.350   1.312   0.330  0.6022  3.3894 -0.1675
 6748TIP3   OH241878   4.548   1.432   6.395  0.1715 -0.2046 -0.0840
 6748TIP3    H141879   4.509   1.519   6.400  0.5520 -0.0052 -0.5490
 6748TIP3    H241880   4.477   1.375   6.366  0.1821  0.1294 -0.7838
 6749TIP3   OH241881   6.184   0.237   2.383  0.5490  0.1038  0.1650
 6749TIP3    H141882   6.114   0.173   2.396  1.2776 -0.8261 -0.2958
 6749TIP3    H241883   6.186   0.252   2.289  0.2712  0.9541  0.2870
 6750TIP3   OH241884   5.960   2.874   0.391 -0.4616 -0.0296 -0.3083
 6750TIP3    H141885   5.992   2.791   0.427 -3.8509 -1.4019 -0.0812
 6750TIP3    H241886   5.949   2.930   0.468  0.8965  0.3299 -0.3513
 6751TIP3   OH241887   5.570   4.543   0.258 -0.1235  0.5312  0.1899
 6751TIP3    H141888   5.645   4.509   0.210  0.2555  0.1898  1.0063
 6751TIP3    H241889   5.495   4.493   0.224  0.3796 -0.9552  1.1505
 6752TIP3   OH241890   6.545   4.221   1.411  0.5532 -0.0283 -0.2671
 6752TIP3    H141891   6.505   4.259   1.333  1.0679  0.7316 -0.1767
 6752TIP3    H241892   6.604   4.154   1.378  2.4963  1.7901 -0.7584
 6753TIP3   OH241893   5.235   0.574   1.859 -0.7273 -0.3112 -0.2779
 6753TIP3    H141894   5.231   0.488   1.900  0.9247  0.4115  1.6015
 6753TIP3    H241895   5.322   0.579   1.820 -0.1763  1.0128  1.0052
 6754TIP3   OH241896   3.872   2.458   0.394  0.0283 -0.5614  0.4171
 6754TIP3    H141897   3.852   2.434   0.303 -0.0251 -1.1026  0.5712
 6754TIP3    H241898   3.897   2.550   0.389 -0.7902 -0.3508 -0.0336
 6755TIP3   OH241899   6.038   1.227   1.217  0.2920 -0.3394 -0.0834
 6755TIP3    H141900   6.033   1.313   1.258 -2.8985 -0.5775  0.3330
 6755TIP3    H241901   6.069   1.169   1.285 -1.5278 -0.1303  1.0003
 6756TIP3   OH241902   3.008   2.345   0.628 -0.3425 -0.0398 -0.3472
 6756TIP3    H141903   2.929   2.304   0.665 -0.0161 -0.0160  0.3976
 6756TIP3    H241904   2.974   2.419   0.577 -0.7017  1.8441  2.4025
 6757TIP3   OH241905   3.983   1.024   8.254  0.0885  1.1933  0.3195
 6757TIP3    H141906   4.000   0.941   8.210 -2.6091 -0.1216  1.5349
 6757TIP3    H241907   3.936   1.077   8.190  0.9998  1.4706 -0.1433
 6758TIP3   OH241908   2.688   4.085   0.550 -0.3113 -0.1073 -0.3681
 6758TIP3    H141909   2.745   4.109   0.478 -0.8726  1.4572 -0.3160
 6758TIP3    H241910   2.696   3.989   0.555  1.6342 -0.0110 -0.8770
 6759TIP3   OH241911   3.406   5.803   8.337 -0.1645 -0.4742  0.7458
 6759TIP3    H141912   3.386   5.888   8.298 -0.5815 -0.7928  0.2479
 6759TIP3    H241913   3.395   5.741   8.265  0.9347 -0.8650  0.8915
 6760TIP3   OH241914   4.751   0.560   7.150 -0.0142  0.3016 -0.2633
 6760TIP3    H141915   4.798   0.605   7.220 -0.5448  0.0634  0.2497
 6760TIP3    H241916   4.801   0.580   7.071  2.7563 -2.3561  0.6043
 6761TIP3   OH241917   1.383   6.403   0.802  1.1329  1.9103 -0.2766
 6761TIP3    H141918   1.400   6.323   0.752  2.3986 -0.0629  2.9532
 6761TIP3    H241919   1.411   6.474   0.745  3.3761 -0.1841 -2.0146
 6762TIP3   OH241920   6.796   2.957   2.043  0.5552 -0.2158  0.2308
 6762TIP3    H141921   6.790   3.033   1.986 -0.1323 -1.1319 -0.9753
 6762TIP3    H241922   6.729   2.971   2.109 -0.2413 -0.2188 -0.5564
 6763TIP3   OH241923   1.056   2.504   1.370  0.5850  0.0220  0.2447
 6763TIP3    H141924   1.136   2.467   1.407  1.8556  2.7302  0.4774
 6763TIP3    H241925   1.073   2.598   1.368 -1.6002  0.4606 -2.1454
 6764TIP3   OH241926   5.961   4.047   7.838 -0.8696 -0.2802  0.1976
 6764TIP3    H141927   5.991   3.971   7.788 -0.4542  0.4144 -0.6380
 6764TIP3    H241928   5.969   4.020   7.929  1.8829 -0.3025  0.0136
 6765TIP3   OH241929   0.710   4.537   0.508  0.4435 -0.4468  0.2007
 6765TIP3    H141930   0.670   4.476   0.570 -0.3348  0.5974  0.7621
 6765TIP3    H241931   0.743   4.608   0.564  1.4940 -0.4277 -0.4191
 6766TIP3   OH241932   5.999   2.334   7.993 -0.0798  0.4746  0.1086
 6766TIP3    H141933   6.070   2.309   7.934 -1.8526 -0.1404 -1.9139
 6766TIP3    H241934   5.968   2.417   7.959 -1.3931 -0.0853 -0.1291
 6767TIP3   OH241935   0.617   5.209   2.187  0.4888  0.2139 -0.6575
 6767TIP3    H141936   0.697   5.261   2.192  0.4146  0.2079  1.3848
 6767TIP3    H241937   0.632   5.135   2.245 -0.5552 -0.4161 -1.1628
 6768TIP3   OH241938   3.002   0.482   8.044  0.2144  0.0627  0.7196
 6768TIP3    H141939   3.060   0.550   8.009 -0.3420  0.7348  1.0849
 6768TIP3    H241940   2.965   0.441   7.967  1.3765 -0.5630  0.4673
 6769TIP3   OH241941   1.902   3.038   6.999 -0.4435 -0.1635  0.4698
 6769TIP3    H141942   1.842   3.058   7.071  1.0165  0.0864  1.6538
 6769TIP3    H241943   1.935   3.124   6.972  0.8501 -0.4309  1.1470
 6770TIP3   OH241944   1.454   0.408   1.342  0.1439  0.4084 -0.7319
 6770TIP3    H141945   1.451   0.359   1.424  0.6283  1.0434 -0.3214
 6770TIP3    H241946   1.404   0.355   1.280  0.6053 -0.5664 -0.2915
 6771TIP3   OH241947   6.498   2.590   0.401 -0.4856 -0.0754  0.2703
 6771TIP3    H141948   6.521   2.682   0.384  0.9142 -0.1596  1.4614
 6771TIP3    H241949   6.581   2.543   0.394 -1.2330 -1.3192 -0.5992
 6772TIP3   OH241950   2.632   2.880   2.211 -0.3462  0.0609  0.2601
 6772TIP3    H141951   2.608   2.902   2.121  0.3008 -2.3762 -0.5920
 6772TIP3    H241952   2.579   2.938   2.265 -1.2828  1.1057 -1.6649
 6773TIP3   OH241953   1.035   3.058   1.946  0.2878 -0.0672 -0.2395
 6773TIP3    H141954   1.081   3.048   2.029  0.6580  1.1828 -0.2728
 6773TIP3    H241955   0.973   2.985   1.943 -0.9585  0.8142  1.9248
 6774TIP3   OH241956   4.526   1.607   0.681 -0.0612  0.2054  0.6955
 6774TIP3    H141957   4.486   1.649   0.757 -0.1942  1.1501  0.1242
 6774TIP3    H241958   4.513   1.513   0.695 -1.0682  0.4231  1.2954
 6775TIP3   OH241959   4.366   3.553   2.054  0.5884  0.2978  0.6127
 6775TIP3    H141960   4.401   3.640   2.073 -0.5554  0.7301  0.7582
 6775TIP3    H241961   4.339   3.558   1.962 -0.6728  0.5101  0.9858
 6776TIP3   OH241962   5.439   4.997   2.460  0.3390  0.3068  0.4142
 6776TIP3    H141963   5.417   5.090   2.463  1.4807  0.5826  0.8948
 6776TIP3    H241964   5.498   4.984   2.535  1.1005 -0.5567 -0.3139
 6777TIP3   OH241965   3.339   5.389   8.417  0.2317 -0.3129  0.6228
 6777TIP3    H141966   3.320   5.315   8.360  0.5048  0.3247 -0.3169
 6777TIP3    H241967   3.381   5.453   8.360  2.3407 -0.4275  1.9446
 6778TIP3   OH241968   1.283   5.728   1.814  0.4820  0.5280  0.2346
 6778TIP3    H141969   1.191   5.744   1.797  0.8459  1.5050 -0.8890
 6778TIP3    H241970   1.284   5.673   1.893 -1.1190 -1.0031 -0.7376
 6779TIP3   OH241971   2.725   0.845   8.418 -0.0529  0.8400 -0.0124
 6779TIP3    H141972   2.768   0.873   8.498  0.3594  1.3961 -0.4194
 6779TIP3    H241973   2.777   0.884   8.347  0.7421 -1.2127 -0.6214
 6780TIP3   OH241974   2.878   2.826   6.675 -0.0046 -0.0565 -0.0344
 6780TIP3    H141975   2.916   2.747   6.714  0.7784  0.4643  0.2909
 6780TIP3    H241976   2.928   2.898   6.714 -1.7369  0.7157  0.8791
 6781TIP3   OH241977   5.845   2.914   0.927  0.5920  0.1334 -0.0336
 6781TIP3    H141978   5.795   2.927   1.007 -0.2904 -0.4422 -0.4856
 6781TIP3    H241979   5.936   2.913   0.956  0.2846 -0.0827  0.9576
 6782TIP3   OH241980   1.139   0.612   6.590 -0.3023  0.1194  0.4496
 6782TIP3    H141981   1.224   0.567   6.591 -0.6335 -0.6334 -1.5635
 6782TIP3    H241982   1.145   0.671   6.515 -1.0333  1.1860  1.2061
 6783TIP3   OH241983   4.616   6.607   2.234 -0.4083 -0.4682  0.9901
 6783TIP3    H141984   4.557   6.653   2.174  0.8200 -0.8192 -0.5682
 6783TIP3    H241985   4.558   6.563   2.296 -1.7973 -0.5987 -0.3246
 6784TIP3   OH241986   5.922   0.167   1.667  0.3604  0.4012  0.2529
 6784TIP3    H141987   5.881   0.090   1.629 -0.9354  1.2274 -0.1094
 6784TIP3    H241988   5.997   0.185   1.610  1.0739 -0.9519  0.7317
 6785TIP3   OH241989   1.412   0.395   6.856  0.6652  0.4804  0.0792
 6785TIP3    H141990   1.493   0.372   6.811  0.5240 -0.6595  0.3842
 6785TIP3    H241991   1.404   0.490   6.844  2.3828  0.7147  0.6225
 6786TIP3   OH241992   3.063   2.549   2.269 -0.0287 -0.4743  0.2283
 6786TIP3    H141993   3.138   2.608   2.258 -1.5522  1.6979  0.8118
 6786TIP3    H241994   3.045   2.549   2.363 -0.1490 -1.8027  0.2242
 6787TIP3   OH241995   1.258   0.541   0.702  0.3288 -1.1688 -0.0218
 6787TIP3    H141996   1.264   0.446   0.691  0.8321 -1.1398  0.0161
 6787TIP3    H241997   1.348   0.571   0.703  0.1925 -0.7587  0.5952
 6788TIP3   OH241998   1.036   6.074   1.699 -0.1694 -0.1712 -0.2062
 6788TIP3    H141999   1.001   6.020   1.629  1.0321  0.5894 -1.4571
 6788TIP3    H242000   1.130   6.056   1.699 -0.3369 -1.5414  2.4904
 6789TIP3   OH242001   5.819   1.480   1.788 -0.3357 -0.1708  0.6763
 6789TIP3    H142002   5.732   1.501   1.821  0.2823  0.3938  2.0018
 6789TIP3    H242003   5.840   1.395   1.827 -0.7408 -0.8556 -0.5569
 6790TIP3   OH242004   5.193   6.179   7.475  0.3518 -0.7123  0.4398
 6790TIP3    H142005   5.147   6.190   7.392 -0.8469  0.6959  1.2521
 6790TIP3    H242006   5.260   6.248   7.474 -0.1232 -0.2305  0.9150
 6791TIP3   OH242007   1.511   5.687   7.973  0.7453 -0.2891 -0.1224
 6791TIP3    H142008   1.527   5.698   7.879 -1.5247  0.4655 -0.4715
 6791TIP3    H242009   1.599   5.689   8.012  1.6428  1.2201 -2.0370
 6792TIP3   OH242010   0.531   1.746   2.529  0.2724 -0.2128 -0.7198
 6792TIP3    H142011   0.547   1.752   2.623 -1.5268  0.8559 -0.4306
 6792TIP3    H242012   0.615   1.767   2.489  0.7723  0.5348  0.6559
 6793TIP3   OH242013   4.675   5.944   7.018 -0.3821  0.1178 -0.4153
 6793TIP3    H142014   4.614   5.897   7.076 -0.1725 -1.4032 -1.3742
 6793TIP3    H242015   4.729   5.875   6.979  1.7571  1.3867  0.1369
 6794TIP3   OH242016   2.223   3.564   0.505 -0.6006  0.1974  0.3625
 6794TIP3    H142017   2.281   3.503   0.460 -1.0115  0.0941 -0.0324
 6794TIP3    H242018   2.269   3.648   0.501  1.1275 -0.4828  3.0160
 6795TIP3   OH242019   0.233   2.906   1.502 -0.2047  0.1042 -0.0778
 6795TIP3    H142020   0.305   2.875   1.557 -0.8960  0.5854  1.1242
 6795TIP3    H242021   0.255   2.997   1.481  0.3790 -0.2679 -1.1771
 6796TIP3   OH242022   3.656   6.730   0.391 -0.2357  0.0303 -0.1436
 6796TIP3    H142023   3.561   6.740   0.398 -0.3086  1.6084 -2.2555
 6796TIP3    H242024   3.691   6.814   0.421  0.4661 -0.3397  0.0956
 6797TIP3   OH242025   4.255   6.719   6.568 -0.2251  0.2887  0.5460
 6797TIP3    H142026   4.330   6.778   6.568 -0.0503  0.0680  1.2471
 6797TIP3    H242027   4.293   6.631   6.575 -0.3098 -0.1707 -2.8127
 6798TIP3   OH242028   3.018   2.910   7.523  0.2922  0.0786 -0.9866
 6798TIP3    H142029   3.018   2.992   7.572 -0.2691 -1.1054  1.1525
 6798TIP3    H242030   2.955   2.924   7.452 -0.3552  1.2486 -0.2081
 6799TIP3   OH242031   4.580   3.013   3.079 -0.2733 -0.3598  0.6917
 6799TIP3    H142032   4.644   3.008   3.150 -0.5085 -1.3231  0.8481
 6799TIP3    H242033   4.518   2.942   3.097 -0.1853 -0.8043 -0.6149
 6800TIP3   OH242034   1.756   5.882   7.693  0.1940  0.5892 -0.3755
 6800TIP3    H142035   1.757   5.939   7.616 -1.9608 -0.3990 -1.2249
 6800TIP3    H242036   1.677   5.828   7.682  0.0251  0.1323  2.3353
 6801TIP3   OH242037   3.757   0.976   0.142 -0.3398 -0.0812  0.1723
 6801TIP3    H142038   3.774   0.925   0.064 -2.7289 -1.2210  0.2997
 6801TIP3    H242039   3.672   1.017   0.126  1.0036  3.1344  0.4916
 6802TIP3   OH242040   4.288   0.585   7.772 -0.1815 -0.0013  0.5907
 6802TIP3    H142041   4.277   0.528   7.696 -3.9092  0.0530  0.8797
 6802TIP3    H242042   4.382   0.585   7.789  0.3606 -3.2395 -1.5176
 6803TIP3   OH242043   1.067   3.790   2.357  0.1501  0.0945 -0.8547
 6803TIP3    H142044   1.050   3.785   2.451 -0.6648 -1.0898 -1.0516
 6803TIP3    H242045   1.110   3.708   2.336 -0.3969  0.0057 -1.6613
 6804TIP3   OH242046   3.897   0.542   7.580 -0.0937  0.0895 -0.3242
 6804TIP3    H142047   3.956   0.616   7.590  0.0757 -0.2167  1.3739
 6804TIP3    H242048   3.953   0.465   7.590 -0.2439 -0.3053 -2.2151
 6805TIP3   OH242049   3.304   3.801   7.558 -0.7474  0.1425 -0.3797
 6805TIP3    H142050   3.395   3.792   7.587 -1.1170  1.1590  1.2291
 6805TIP3    H242051   3.267   3.868   7.616 -1.9597  1.2941 -2.3529
 6806TIP3   OH242052   3.538   0.975   1.636 -0.3691  0.0501  0.2488
 6806TIP3    H142053   3.479   1.039   1.595  0.1779  1.8570  2.1125
 6806TIP3    H242054   3.610   0.967   1.574 -0.6582  0.9174 -0.2322
 6807TIP3   OH242055   0.174   4.847   1.053 -0.6187 -0.1229  0.8582
 6807TIP3    H142056   0.182   4.841   1.148 -1.3323  0.5456  0.9685
 6807TIP3    H242057   0.094   4.897   1.039 -0.6297 -0.3934 -0.0990
 6808TIP3   OH242058   0.430   5.645   0.314  0.2917 -0.1457 -0.0592
 6808TIP3    H142059   0.430   5.736   0.282  1.6170 -0.6226 -1.5140
 6808TIP3    H242060   0.337   5.620   0.313 -0.0622  1.0574  0.0336
 6809TIP3   OH242061   6.620   2.171   8.003  0.2176  0.3085 -0.2238
 6809TIP3    H142062   6.536   2.138   8.036  0.4773  1.1567  1.3405
 6809TIP3    H242063   6.669   2.091   7.981  0.5220 -0.4396  2.7295
 6810TIP3   OH242064   0.131   3.870   8.025  0.0481 -0.4552  0.5496
 6810TIP3    H142065   0.177   3.945   7.989  0.3754 -0.4822  0.9076
 6810TIP3    H242066   0.176   3.850   8.107  0.4781 -1.5440  0.0737
 6811TIP3   OH242067   4.293   6.225   7.556 -0.4486  0.1054  0.0874
 6811TIP3    H142068   4.267   6.186   7.639 -0.8641 -2.0934 -1.0238
 6811TIP3    H242069   4.216   6.273   7.527 -1.3407 -1.5623 -0.3975
 6812TIP3   OH242070   3.179   1.167   1.231 -0.1855  0.3424  0.2201
 6812TIP3    H142071   3.123   1.107   1.182 -0.3578  0.8452 -0.1983
 6812TIP3    H242072   3.172   1.137   1.322 -0.2605 -0.2749  0.0169
 6813TIP3   OH242073   6.149   0.503   8.358 -0.4323  0.0075 -0.1442
 6813TIP3    H142074   6.094   0.441   8.310  0.5147 -0.9198 -0.0484
 6813TIP3    H242075   6.107   0.510   8.444 -0.5666 -0.4669 -0.1700
 6814TIP3   OH242076   2.966   6.798   2.440  0.1007 -0.4549  0.1830
 6814TIP3    H142077   2.914   6.876   2.421  2.3791  0.8417 -1.2196
 6814TIP3    H242078   2.925   6.760   2.518 -1.0788  2.1603  0.9473
 6815TIP3   OH242079   3.017   5.485   1.341  0.1814 -0.2902  0.2963
 6815TIP3    H142080   3.088   5.422   1.355 -0.1433 -0.8193 -0.3637
 6815TIP3    H242081   2.937   5.434   1.355 -0.0897  0.5087  1.9141
 6816TIP3   OH242082   2.678   3.906   1.306 -0.4407 -0.3349 -0.0451
 6816TIP3    H142083   2.765   3.889   1.269 -0.2888  1.2038 -0.4756
 6816TIP3    H242084   2.633   3.822   1.300  0.3045 -0.6667 -1.7797
 6817TIP3   OH242085   3.085   2.430   0.927 -0.4807 -0.7893  0.1394
 6817TIP3    H142086   3.000   2.403   0.891 -0.1730  0.2600 -1.5095
 6817TIP3    H242087   3.145   2.424   0.853  0.3492  0.8481  0.6417
 6818TIP3   OH242088   2.247   1.249   7.780  0.0530 -0.1872 -0.3483
 6818TIP3    H142089   2.246   1.187   7.708 -0.5955  0.1925 -0.6713
 6818TIP3    H242090   2.207   1.202   7.853 -0.9221  0.0111 -0.7389
 6819TIP3   OH242091   6.045   3.645   0.831  0.2000 -0.5272  0.1390
 6819TIP3    H142092   5.963   3.634   0.880 -0.3143 -1.7492 -0.9537
 6819TIP3    H242093   6.101   3.573   0.861  0.2145 -0.7454 -0.4012
 6820TIP3   OH242094   0.202   3.819   0.817  0.5535  0.0013  0.6868
 6820TIP3    H142095   0.290   3.838   0.850  1.0320  0.5481 -0.8209
 6820TIP3    H242096   0.217   3.758   0.745 -0.3839 -0.5036  0.9116
 6821TIP3   OH242097   5.046   6.146   1.446  0.2193 -0.0504  0.2298
 6821TIP3    H142098   5.136   6.180   1.443  0.6113 -1.0278  0.5095
 6821TIP3    H242099   5.012   6.177   1.529  0.2144  0.5184  0.0199
 6822TIP3   OH242100   2.315   6.475   8.088 -0.0685 -0.2574  0.2639
 6822TIP3    H142101   2.256   6.550   8.094 -2.0781 -1.7904  1.5226
 6822TIP3    H242102   2.398   6.505   8.124 -1.4798  0.7884  2.8767
 6823TIP3   OH242103   2.238   4.814   1.810  0.8351  0.5226  0.1647
 6823TIP3    H142104   2.316   4.807   1.865  0.7118 -4.4249  0.1790
 6823TIP3    H242105   2.166   4.821   1.872  0.9272 -1.7450  0.6187
 6824TIP3   OH242106   5.457   3.662   1.326 -0.5137 -0.0035 -0.4336
 6824TIP3    H142107   5.433   3.578   1.366  1.1577 -0.1080  0.4024
 6824TIP3    H242108   5.434   3.728   1.392  0.5524 -0.0300 -0.0188
 6825TIP3   OH242109   0.246   5.173   7.900 -0.0342 -0.1543  0.4334
 6825TIP3    H142110   0.261   5.267   7.900  2.3248 -0.4540  1.8904
 6825TIP3    H242111   0.199   5.155   7.981  1.2313 -0.4031  1.1411
 6826TIP3   OH242112   5.405   0.677   7.475  0.2756 -0.4902 -0.4184
 6826TIP3    H142113   5.371   0.726   7.550  1.1079  0.1464 -0.4397
 6826TIP3    H242114   5.416   0.743   7.406 -1.5876 -1.2633 -1.5056
 6827TIP3   OH242115   1.496   5.268   1.975  0.5260 -0.6066  0.3650
 6827TIP3    H142116   1.526   5.359   1.974 -1.9625  0.2829  0.3479
 6827TIP3    H242117   1.508   5.239   1.884 -0.4607  0.3944 -0.1216
 6828TIP3   OH242118   1.747   1.981   7.880 -0.3247  0.4633 -0.0015
 6828TIP3    H142119   1.685   1.941   7.941  1.7573 -0.2905  1.7184
 6828TIP3    H242120   1.697   2.052   7.838 -3.5938 -2.5442 -1.7666
 6829TIP3   OH242121   2.123   0.647   2.139 -0.2410 -0.5847  0.1107
 6829TIP3    H142122   2.159   0.561   2.115 -2.3226 -1.6145  0.4615
 6829TIP3    H242123   2.058   0.627   2.207 -1.0262  1.2309 -0.0685
 6830TIP3   OH242124   5.373   6.834   7.728  0.5346  0.0569 -0.0078
 6830TIP3    H142125   5.417   6.792   7.654 -1.2840  1.4396 -1.9922
 6830TIP3    H242126   5.357   6.924   7.700 -1.7717  0.1605  1.3348
 6831TIP3   OH242127   1.052   4.718   0.927 -0.0662  0.1813  0.5189
 6831TIP3    H142128   0.968   4.738   0.884  0.1960 -2.2189 -1.3169
 6831TIP3    H242129   1.054   4.622   0.932  2.3009  0.2044  1.1250
 6832TIP3   OH242130   0.307   0.336   8.445  0.2246  0.5974 -0.5221
 6832TIP3    H142131   0.315   0.426   8.478  1.6271 -0.0590  1.0398
 6832TIP3    H242132   0.395   0.299   8.453 -0.8582 -1.8245  1.6345
 6833TIP3   OH242133   4.383   1.071   1.381 -0.1686 -0.3439  0.3702
 6833TIP3    H142134   4.375   0.979   1.405 -0.6649 -0.5883 -0.6471
 6833TIP3    H242135   4.332   1.118   1.447 -0.5388 -0.8691  0.4635
 6834TIP3   OH242136   1.688   0.516   1.683  0.3102 -0.1012  0.4691
 6834TIP3    H142137   1.601   0.479   1.667  0.3697  0.2928 -0.8179
 6834TIP3    H242138   1.749   0.451   1.647  0.4142  1.1883 -1.8151
 6835TIP3   OH242139   3.649   4.751   7.132  0.6679 -0.1730 -0.5458
 6835TIP3    H142140   3.602   4.733   7.051  2.4990 -2.3411 -1.2186
 6835TIP3    H242141   3.719   4.811   7.106 -0.9711  2.2614  0.2688
 6836TIP3   OH242142   5.917   1.801   0.201 -0.3808  0.4518  0.4469
 6836TIP3    H142143   5.900   1.725   0.145  1.8237 -1.5499  2.2429
 6836TIP3    H242144   5.871   1.781   0.282  1.3870  0.2618  1.4489
 6837TIP3   OH242145   4.182   6.396   7.168 -0.2082 -0.1787 -0.0140
 6837TIP3    H142146   4.221   6.480   7.145  1.3307 -0.9725 -0.4667
 6837TIP3    H242147   4.089   6.406   7.149  0.2520  0.7860 -2.0041
 6838TIP3   OH242148   2.213   0.797   6.998 -0.3596 -0.2175  0.8851
 6838TIP3    H142149   2.213   0.775   6.905  0.6306  1.8496  0.3427
 6838TIP3    H242150   2.294   0.758   7.032 -0.3702 -0.3681  0.7378
 6839TIP3   OH242151   0.328   5.389   8.255 -0.1490  0.3366  0.1559
 6839TIP3    H142152   0.287   5.347   8.330  2.1201 -0.2470  1.1663
 6839TIP3    H242153   0.357   5.316   8.199 -0.5256  0.7200 -0.5567
 6840TIP3   OH242154   3.964   1.562   7.313 -0.2416 -0.2045  0.3641
 6840TIP3    H142155   3.970   1.649   7.274 -0.8713  0.1087  0.9541
 6840TIP3    H242156   3.943   1.578   7.405  1.9872 -0.8893  1.0741
 6841TIP3   OH242157   3.529   2.724   0.254 -0.7107  0.5445  0.1286
 6841TIP3    H142158   3.529   2.807   0.206  0.3073  0.5911  0.1895
 6841TIP3    H242159   3.552   2.748   0.344  0.1629  0.1305  0.0205
 6842TIP3   OH242160   3.607   6.431   8.492 -0.2566 -0.0690 -0.0639
 6842TIP3    H142161   3.604   6.508   8.549 -1.8611 -0.2869  0.1823
 6842TIP3    H242162   3.632   6.466   8.406  0.4509  0.5011  0.3595
 6843TIP3   OH242163   6.079   6.213   7.341  0.1295 -0.0659  0.0812
 6843TIP3    H142164   6.116   6.195   7.428 -0.1930 -1.4560 -0.0446
 6843TIP3    H242165   6.038   6.130   7.315  0.4338  0.2550 -1.4993
 6844TIP3   OH242166   6.523   3.811   8.505  0.1135 -0.5982 -0.3326
 6844TIP3    H142167   6.492   3.793   8.416 -0.8947  0.3653 -0.1982
 6844TIP3    H242168   6.602   3.863   8.492 -0.3449  0.0307 -0.6773
 6845TIP3   OH242169   3.703   1.414   8.022  0.8830  0.2548  0.1509
 6845TIP3    H142170   3.760   1.347   8.062  0.0209  1.7675  4.4754
 6845TIP3    H242171   3.614   1.385   8.043  0.1854  0.2931 -2.4279
 6846TIP3   OH242172   6.227   1.039   0.006 -0.5927  0.5044  0.5089
 6846TIP3    H142173   6.133   1.035  -0.014 -0.3934  0.1993 -0.3879
 6846TIP3    H242174   6.249   1.132  -0.002 -1.0063  0.7367  1.6993
 6847TIP3   OH242175   3.822   6.865   6.419  0.5827 -0.4460 -0.4289
 6847TIP3    H142176   3.788   6.777   6.434 -0.1104 -0.7784 -3.2949
 6847TIP3    H242177   3.751   6.923   6.447  1.8969 -0.5254  3.6943
 6848TIP3   OH242178   5.408   0.922   1.826 -0.2849  0.2474 -0.0793
 6848TIP3    H142179   5.456   0.984   1.881  1.4122 -0.1692 -1.0021
 6848TIP3    H242180   5.463   0.844   1.826 -1.1123 -0.3464 -0.9803
 6849TIP3   OH242181   3.906   6.374   7.128  0.4213  0.2982  0.1156
 6849TIP3    H142182   3.839   6.443   7.137 -1.6961 -1.7062  0.6407
 6849TIP3    H242183   3.893   6.341   7.039  0.2235 -0.5524  0.4497
 6850TIP3   OH242184   0.038   1.095   1.919  0.6972  0.4254 -0.1587
 6850TIP3    H142185  -0.040   1.054   1.882  0.6873  0.7455 -0.5016
 6850TIP3    H242186   0.050   1.052   2.004 -0.2301  0.8192  0.1892
 6851TIP3   OH242187   1.901   6.620   2.012  0.5583  0.6237  0.4842
 6851TIP3    H142188   1.821   6.667   2.036  0.4357  1.5384 -1.5499
 6851TIP3    H242189   1.972   6.674   2.046  0.3576  1.1429  0.0933
 6852TIP3   OH242190   6.081   1.189   0.505 -0.0078  0.0471 -0.2010
 6852TIP3    H142191   6.121   1.258   0.451  1.0136  0.7495  1.4044
 6852TIP3    H242192   6.095   1.217   0.595 -1.4186 -1.2572  0.4669
 6853TIP3   OH242193   5.082   6.458   2.123  0.0874  0.0842  0.1802
 6853TIP3    H142194   5.002   6.497   2.086 -0.8835 -1.4744  0.5379
 6853TIP3    H242195   5.115   6.524   2.184 -0.5203  1.0473 -0.4969
 6854TIP3   OH242196   5.933   1.625   2.904 -0.0269  0.1055 -1.0586
 6854TIP3    H142197   5.843   1.633   2.872 -0.3303  0.4653 -0.1506
 6854TIP3    H242198   5.987   1.632   2.826 -0.6950  2.1244 -1.4084
 6855TIP3   OH242199   0.097   3.875   1.041 -0.0337  0.1652  0.5490
 6855TIP3    H142200   0.012   3.907   1.010  0.1687  1.3585  1.1623
 6855TIP3    H242201   0.131   3.822   0.969 -1.1092  0.0166  0.1348
 6856TIP3   OH242202   1.338   0.792   0.360 -0.0746  0.1786  0.0961
 6856TIP3    H142203   1.282   0.715   0.372 -1.1722  0.8201 -0.6938
 6856TIP3    H242204   1.392   0.770   0.285 -0.7177  0.3389 -0.4283
 6857TIP3   OH242205   4.013   2.544   1.777  0.1263  0.4919  0.0480
 6857TIP3    H142206   4.008   2.622   1.721  1.2303 -0.0790 -0.8645
 6857TIP3    H242207   4.012   2.579   1.866 -0.1853  1.4991 -0.3367
 6858TIP3   OH242208   1.306   6.147   7.238  0.6851 -0.6460 -0.1756
 6858TIP3    H142209   1.374   6.192   7.289  0.7001  0.2424 -0.9605
 6858TIP3    H242210   1.351   6.116   7.160  0.4016 -0.9450 -0.2221
 6859TIP3   OH242211   5.805   2.125   0.935  0.7682 -0.1830 -0.2420
 6859TIP3    H142212   5.858   2.096   1.010  1.6783  1.2332 -0.3007
 6859TIP3    H242213   5.857   2.194   0.894 -1.4412  1.8870  0.1932
 6860TIP3   OH242214   5.444   4.069   2.026  1.0631  0.0397  0.1708
 6860TIP3    H142215   5.506   4.090   2.095 -0.3616  1.3707  1.1066
 6860TIP3    H242216   5.361   4.106   2.055  0.0504 -0.7263 -1.5389
 6861TIP3   OH242217   2.516   4.867   7.351  0.0047  0.0739 -0.1875
 6861TIP3    H142218   2.518   4.854   7.256 -3.6339  0.3751 -0.4443
 6861TIP3    H242219   2.449   4.806   7.383  1.5281 -0.4502  2.3385
 6862TIP3   OH242220   4.187   2.234   0.645 -0.7023  0.4159  0.0076
 6862TIP3    H142221   4.202   2.154   0.594  1.5612  0.7208  0.1098
 6862TIP3    H242222   4.145   2.294   0.583 -0.1370 -0.0209 -0.8152
 6863TIP3   OH242223   0.448   3.690   7.065  0.0198  0.7243 -0.4095
 6863TIP3    H142224   0.443   3.674   6.971 -0.1354 -0.5603 -0.2013
 6863TIP3    H242225   0.431   3.605   7.105  3.7111  0.3168  0.7360
 6864TIP3   OH242226   2.718   0.838   1.662 -0.2368  0.1650  0.0716
 6864TIP3    H142227   2.693   0.830   1.754  0.5320 -0.6563  0.2307
 6864TIP3    H242228   2.814   0.831   1.664 -0.1627  0.8702 -0.7253
 6865TIP3   OH242229   2.502   6.466   7.473 -0.1166  0.2338  0.3709
 6865TIP3    H142230   2.592   6.437   7.489 -0.7753 -1.3670  1.3725
 6865TIP3    H242231   2.484   6.442   7.383  0.6609  1.1892 -0.0601
 6866TIP3   OH242232   1.694   5.505   1.999  0.1154 -0.1384  0.6181
 6866TIP3    H142233   1.783   5.526   2.030 -0.1143  2.8258 -0.4464
 6866TIP3    H242234   1.638   5.566   2.046 -1.0631 -0.3568 -0.4667
 6867TIP3   OH242235   2.361   3.762   2.350 -0.3025 -0.5917 -0.1975
 6867TIP3    H142236   2.348   3.755   2.445  0.5916 -0.6014 -0.0676
 6867TIP3    H242237   2.431   3.699   2.331 -0.2026 -0.3066 -0.8010
 6868TIP3   OH242238   3.002   1.193   2.458 -0.1995 -0.1492  0.0889
 6868TIP3    H142239   3.068   1.232   2.516 -0.0657 -1.3582  0.7739
 6868TIP3    H242240   3.052   1.150   2.389 -0.3437  0.5868 -0.4965
 6869TIP3   OH242241   0.425   0.844   2.322 -0.2834 -0.5981  0.3618
 6869TIP3    H142242   0.473   0.910   2.372 -3.3638  1.1045  1.3726
 6869TIP3    H242243   0.453   0.858   2.231  2.2746 -0.9078  1.0103
 6870TIP3   OH242244   2.095   4.157   1.909 -0.1704  0.1870 -0.2927
 6870TIP3    H142245   2.045   4.118   1.981  1.6644 -0.0287  0.9298
 6870TIP3    H242246   2.073   4.250   1.914 -0.8161  0.0333 -0.0924
 6871TIP3   OH242247   3.066   6.806   0.697 -0.3768 -0.0414  0.2728
 6871TIP3    H142248   3.155   6.840   0.685  0.0790 -0.7659  1.5277
 6871TIP3    H242249   3.020   6.875   0.745 -0.2813  0.0212  0.2734
 6872TIP3   OH242250   0.833   1.617   2.435  0.2732 -0.2384  1.1373
 6872TIP3    H142251   0.880   1.668   2.501 -0.1771  1.6990  0.0456
 6872TIP3    H242252   0.789   1.682   2.381  1.0639 -1.6974 -1.4350
 6873TIP3   OH242253   3.757   3.557   8.273 -0.2766  0.4212 -0.0691
 6873TIP3    H142254   3.700   3.615   8.222 -0.4904 -0.2994 -0.6728
 6873TIP3    H242255   3.744   3.470   8.234  0.0096 -0.0421  0.8388
 6874TIP3   OH242256   5.303   1.323   1.152 -0.4194  0.1940  0.3649
 6874TIP3    H142257   5.241   1.287   1.216 -1.8417  1.8119 -0.0053
 6874TIP3    H242258   5.351   1.390   1.201 -1.4310  1.3532 -0.1612
 6875TIP3   OH242259   3.808   1.148   7.363  0.0865 -0.8477 -0.4724
 6875TIP3    H142260   3.804   1.211   7.435 -1.6078 -0.2490 -1.0395
 6875TIP3    H242261   3.766   1.193   7.289  2.8063 -0.9794 -2.2351
 6876TIP3   OH242262   6.167   1.276   0.256  0.0374  0.2222 -0.2348
 6876TIP3    H142263   6.160   1.331   0.178  0.6716  0.1807 -0.3261
 6876TIP3    H242264   6.256   1.290   0.287 -0.0215 -0.2209  0.1443
 6877TIP3   OH242265   1.162   6.726   0.517  0.2559  0.1662 -0.3782
 6877TIP3    H142266   1.115   6.705   0.436 -1.9367  2.4494  0.1888
 6877TIP3    H242267   1.254   6.736   0.489 -0.2918  0.0797 -2.4142
 6878TIP3   OH242268   3.709   5.947   2.086 -0.5710  0.0638 -0.0014
 6878TIP3    H142269   3.795   5.943   2.043  0.7222 -0.4125  2.4258
 6878TIP3    H242270   3.665   5.867   2.057  0.1692 -0.1556 -0.5736
 6879TIP3   OH242271   0.593   5.627   2.021 -0.4967  0.3542  0.4280
 6879TIP3    H142272   0.622   5.637   2.112 -0.8827 -0.4798  0.6477
 6879TIP3    H242273   0.503   5.660   2.022  0.4903  3.4483 -0.3618
 6880TIP3   OH242274   1.808   2.439   2.366  0.2227  0.1771  0.1905
 6880TIP3    H142275   1.874   2.370   2.371 -1.1088 -1.0683  1.7895
 6880TIP3    H242276   1.811   2.480   2.453 -0.3714  0.8376 -0.0919
 6881TIP3   OH242277   2.291   3.829   6.682  0.4353 -0.2913  0.3341
 6881TIP3    H142278   2.344   3.756   6.651  0.0810  0.1520 -1.4308
 6881TIP3    H242279   2.200   3.799   6.671  0.3008 -0.0527  0.7767
 6882TIP3   OH242280   6.053   5.181   1.566 -0.5172 -0.3357  0.2059
 6882TIP3    H142281   5.990   5.222   1.508 -0.1963  0.2201  0.2428
 6882TIP3    H242282   6.129   5.239   1.564  0.2839 -1.3580 -0.4054
 6883TIP3   OH242283   2.723   0.490   1.224  0.1331 -0.5985 -0.1835
 6883TIP3    H142284   2.781   0.451   1.289  0.5619 -1.6333 -1.1583
 6883TIP3    H242285   2.758   0.579   1.212  0.6930 -0.7580  0.2086
 6884TIP3   OH242286   1.182   2.105   1.340  0.5200 -0.1744 -0.4966
 6884TIP3    H142287   1.174   2.074   1.430  1.2649  1.5138  0.2012
 6884TIP3    H242288   1.176   2.026   1.286 -0.3955 -1.1744  0.9914
 6885TIP3   OH242289   6.046   0.333   0.055  0.2882  0.2782  0.0463
 6885TIP3    H142290   6.005   0.413   0.089 -0.7752 -0.7682  1.3481
 6885TIP3    H242291   6.099   0.301   0.128  0.2037 -0.5300 -0.2379
 6886TIP3   OH242292   5.908   3.007   1.351  0.1440 -0.3142  0.8362
 6886TIP3    H142293   5.889   2.954   1.428  0.4417  0.5557  1.5362
 6886TIP3    H242294   5.999   2.987   1.330 -0.3842 -1.6719 -0.2164
 6887TIP3   OH242295   0.809   1.061   2.575 -0.2061  0.0900 -0.0569
 6887TIP3    H142296   0.904   1.046   2.576 -0.4383 -1.5227  1.1107
 6887TIP3    H242297   0.800   1.156   2.573  1.4131  0.2765 -1.9758
 6888TIP3   OH242298   4.595   5.415   0.449 -0.2523 -0.3068 -0.0856
 6888TIP3    H142299   4.500   5.423   0.444 -0.3045 -0.9713 -0.2503
 6888TIP3    H242300   4.628   5.467   0.375 -0.4100  1.0544  0.7571
 6889TIP3   OH242301   5.078   4.923   8.031 -0.1129 -0.9561 -0.3404
 6889TIP3    H142302   5.139   4.873   8.085  2.2851  1.1606 -0.9147
 6889TIP3    H242303   5.074   4.875   7.948  0.6023 -1.2233 -0.2219
 6890TIP3   OH242304   5.814   2.746   1.838 -0.4485 -0.1221  0.4347
 6890TIP3    H142305   5.835   2.805   1.910  0.9797  0.8849 -0.7511
 6890TIP3    H242306   5.749   2.686   1.874  1.9664 -1.2468  3.3446
 6891TIP3   OH242307   4.848   4.738   0.872  0.3380  0.2206 -0.1453
 6891TIP3    H142308   4.922   4.788   0.906 -0.2488  1.5271 -0.6990
 6891TIP3    H242309   4.792   4.804   0.832 -0.5865 -0.8819 -0.7130
 6892TIP3   OH242310   0.861   1.924   0.732 -0.0131 -0.4746  0.5473
 6892TIP3    H142311   0.942   1.941   0.780  0.5542 -0.8324 -0.2468
 6892TIP3    H242312   0.820   2.010   0.723  0.0736 -0.3466  1.3017
 6893TIP3   OH242313   4.794   5.466   2.495 -0.4329  0.0810  0.5013
 6893TIP3    H142314   4.752   5.440   2.577 -0.3732 -0.3585  0.3938
 6893TIP3    H242315   4.769   5.558   2.484  0.8021  0.6178  1.7930
 6894TIP3   OH242316   4.194   1.436   0.914  0.1589  0.1054  0.5197
 6894TIP3    H142317   4.161   1.406   0.999  1.9626  0.3789  1.3523
 6894TIP3    H242318   4.254   1.368   0.886 -1.3239 -0.5826 -1.1787
 6895TIP3   OH242319   3.375   5.315   2.627 -0.0384  0.4348 -0.4483
 6895TIP3    H142320   3.307   5.281   2.685  0.2938 -0.2969 -0.4813
 6895TIP3    H242321   3.421   5.238   2.595  0.9810  0.9268 -0.2168
 6896TIP3   OH242322   5.059   1.289   1.261 -0.0395 -0.3098  0.0659
 6896TIP3    H142323   5.013   1.331   1.334  3.4350  0.9143  1.7490
 6896TIP3    H242324   5.086   1.361   1.205 -0.4960 -1.0340 -1.1183
 6897TIP3   OH242325   4.804   4.703   7.948 -0.0767  0.3326 -0.2504
 6897TIP3    H142326   4.792   4.689   7.854 -1.6395  0.1561 -0.0548
 6897TIP3    H242327   4.726   4.752   7.975 -0.6682 -1.3254  1.2825
 6898TIP3   OH242328   2.470   3.126   8.162 -0.6339  0.0444 -0.4848
 6898TIP3    H142329   2.389   3.075   8.172 -0.8756  0.6686  0.8917
 6898TIP3    H242330   2.461   3.168   8.076 -1.9996  0.4829 -0.1564
 6899TIP3   OH242331   5.758   6.243   2.828  0.5565 -0.0411  0.4092
 6899TIP3    H142332   5.673   6.216   2.862  0.2229  0.0564 -0.3327
 6899TIP3    H242333   5.808   6.162   2.822  1.6525  0.1993  3.7760
 6900TIP3   OH242334   1.320   4.161   0.329 -0.1140  0.2353  0.0527
 6900TIP3    H142335   1.361   4.214   0.397 -0.2263 -0.1984  0.4600
 6900TIP3    H242336   1.234   4.138   0.364 -0.1031 -0.1413 -0.1594
 6901TIP3   OH242337   6.332   1.015   6.698 -0.2061  0.1172 -0.1205
 6901TIP3    H142338   6.270   1.055   6.637  0.7869 -1.1094 -2.0386
 6901TIP3    H242339   6.290   0.933   6.725  0.5905 -0.8372 -1.6151
 6902TIP3   OH242340   3.717   1.509   0.360  0.7923  0.7676  0.3076
 6902TIP3    H142341   3.665   1.552   0.292  0.1843 -0.0923  0.2028
 6902TIP3    H242342   3.681   1.541   0.442 -1.7982 -1.7875  0.3261
 6903TIP3   OH242343   6.709   0.606   1.677 -0.2675 -0.2323  0.1709
 6903TIP3    H142344   6.713   0.645   1.590 -1.1296 -0.7110 -0.0959
 6903TIP3    H242345   6.726   0.678   1.737  0.5370  0.0596 -0.3981
 6904TIP3   OH242346   1.373   2.542   8.373  0.2454  0.2322 -0.1733
 6904TIP3    H142347   1.443   2.493   8.330 -0.0643  0.1665 -0.6119
 6904TIP3    H242348   1.298   2.533   8.314 -0.1064  0.3761  0.2481
 6905TIP3   OH242349   5.540   1.899   8.173  0.4582  0.3206  0.5612
 6905TIP3    H142350   5.445   1.903   8.158  0.9387  3.5194 -3.1334
 6905TIP3    H242351   5.551   1.930   8.263 -1.9467  2.7488  0.1529
 6906TIP3   OH242352   6.092   2.129   7.111 -0.4705 -0.6145 -0.1910
 6906TIP3    H142353   6.156   2.086   7.168  0.8541  0.8439 -0.5180
 6906TIP3    H242354   6.035   2.058   7.081  0.5809 -1.8468  0.6426
 6907TIP3   OH242355   2.763   2.296   0.481 -0.3139  0.1169  0.0271
 6907TIP3    H142356   2.694   2.276   0.418  0.2256 -2.2109  0.0918
 6907TIP3    H242357   2.771   2.391   0.478 -2.1577  0.2858 -1.4151
 6908TIP3   OH242358   0.871   4.060   6.980  0.4040 -0.4572  0.3448
 6908TIP3    H142359   0.901   4.101   6.899  1.5686 -1.5888  0.1784
 6908TIP3    H242360   0.929   4.094   7.048 -1.1308  1.1887  0.9104
 6909TIP3   OH242361   2.718   4.510   0.756 -0.0922  0.0686 -0.8676
 6909TIP3    H142362   2.794   4.472   0.712 -0.7635 -0.6072 -1.4577
 6909TIP3    H242363   2.756   4.565   0.825  0.8989 -1.6150 -0.0136
 6910TIP3   OH242364   1.695   0.987   6.763 -0.3221 -0.5645 -0.2462
 6910TIP3    H142365   1.675   0.947   6.847 -3.2580  0.3318 -0.3964
 6910TIP3    H242366   1.618   0.969   6.709 -0.5869  2.7456 -1.2106
 6911TIP3   OH242367   4.912   3.659   8.435  0.2957 -0.0097  0.0266
 6911TIP3    H142368   4.867   3.615   8.363  0.8670  0.3217 -0.5423
 6911TIP3    H242369   4.844   3.710   8.479  0.2131  1.0620 -1.2594
 6912TIP3   OH242370   1.802   4.539   1.682  0.1222  0.0980 -0.1085
 6912TIP3    H142371   1.837   4.626   1.659  0.2286  0.5982  1.8019
 6912TIP3    H242372   1.832   4.524   1.771 -1.5061 -1.0924  0.2744
 6913TIP3   OH242373   3.491   0.716   7.254  0.0281 -1.1419  0.3250
 6913TIP3    H142374   3.516   0.697   7.164  0.4349 -1.9580  0.5956
 6913TIP3    H242375   3.555   0.668   7.307  0.1439 -0.2061  1.0469
 6914TIP3   OH242376   6.711   0.138   1.546 -0.5982 -0.1907  0.2417
 6914TIP3    H142377   6.735   0.047   1.566  1.4942  0.4910  1.0810
 6914TIP3    H242378   6.768   0.162   1.473 -0.2296  0.8279  0.8539
 6915TIP3   OH242379   5.837   2.898   7.753  0.3010  0.3266  0.1645
 6915TIP3    H142380   5.866   2.988   7.769 -1.1028  0.5833  1.6088
 6915TIP3    H242381   5.817   2.895   7.660  0.9263  1.3340 -0.0201
 6916TIP3   OH242382   1.116   0.629   7.117  0.0404 -0.1520 -0.3272
 6916TIP3    H142383   1.211   0.618   7.108  0.1644  0.7204 -0.1743
 6916TIP3    H242384   1.081   0.609   7.031  0.3239 -0.8107 -0.2980
 6917TIP3   OH242385   4.543   0.839   7.707 -0.3514  0.1698 -0.2313
 6917TIP3    H142386   4.463   0.850   7.655 -1.0060  2.0666  1.0850
 6917TIP3    H242387   4.518   0.779   7.777 -0.5721  0.6370  0.0889
 6918TIP3   OH242388   4.293   3.195   1.072 -0.1248 -0.0411  0.5395
 6918TIP3    H142389   4.285   3.285   1.104 -1.0577 -0.1549  0.6531
 6918TIP3    H242390   4.382   3.169   1.097 -0.1523  0.5396  1.3045
 6919TIP3   OH242391   2.457   4.027   0.035  0.3851 -0.0914  0.6631
 6919TIP3    H142392   2.423   3.994  -0.048  0.3582  0.3954  0.4767
 6919TIP3    H242393   2.531   4.083   0.010  1.2965 -1.0974  1.0639
 6920TIP3   OH242394   4.544   5.277   1.671  0.2977  0.4468  0.4849
 6920TIP3    H142395   4.584   5.211   1.726 -0.2397  0.7155  1.2192
 6920TIP3    H242396   4.524   5.349   1.730 -0.0462  0.8560 -0.1111
 6921TIP3   OH242397   0.004   2.314   7.318  0.5192  0.1148 -0.3175
 6921TIP3    H142398   0.070   2.245   7.308  0.2248 -0.1326 -0.5872
 6921TIP3    H242399   0.054   2.395   7.320  0.8094 -0.0474 -0.8752
 6922TIP3   OH242400   5.435   1.844   1.671 -0.3440  0.4549  0.6870
 6922TIP3    H142401   5.340   1.845   1.657 -0.1172 -0.0755 -1.2704
 6922TIP3    H242402   5.466   1.922   1.624  0.3038 -0.1203  0.1426
 6923TIP3   OH242403   4.538   0.979   0.043  0.7351 -0.4339  0.3780
 6923TIP3    H142404   4.492   0.973   0.127 -0.3493 -0.6142 -0.2081
 6923TIP3    H242405   4.473   0.951  -0.022  2.0600 -1.9347 -0.3693
 6924TIP3   OH242406   0.043   4.088   0.792  0.1760 -0.2026  0.0756
 6924TIP3    H142407   0.027   4.111   0.700 -1.0400 -0.4946  0.1848
 6924TIP3    H242408   0.103   4.014   0.788  1.6738  0.9927 -0.3907
 6925TIP3   OH242409   1.081   3.702   6.818  0.0559  0.1742  0.5659
 6925TIP3    H142410   1.024   3.737   6.749  0.5003 -1.4215 -0.6725
 6925TIP3    H242411   1.170   3.722   6.789  0.3705 -2.4249 -0.5468
 6926TIP3   OH242412   1.903   5.470   7.843  0.4782  0.1586  0.4897
 6926TIP3    H142413   1.911   5.417   7.764  0.4363 -0.5485  0.9588
 6926TIP3    H242414   1.920   5.560   7.813  1.0279 -0.1727 -0.2188
 6927TIP3   OH242415   6.549   4.293   7.735  0.3283  0.0653  0.0498
 6927TIP3    H142416   6.461   4.330   7.730  0.0429 -0.6554 -0.4331
 6927TIP3    H242417   6.563   4.277   7.829  0.5781  1.6272  0.3108
 6928TIP3   OH242418   2.354   6.042   8.109  0.4193 -0.2314  0.3697
 6928TIP3    H142419   2.345   6.107   8.178 -0.7367 -0.2853  0.2840
 6928TIP3    H242420   2.311   6.081   8.033 -1.5198 -1.6147  0.6892
 6929TIP3   OH242421   5.509   4.277   8.161  0.0845 -0.0153  0.1635
 6929TIP3    H142422   5.589   4.299   8.113 -0.8964  1.8732 -0.7416
 6929TIP3    H242423   5.457   4.357   8.157 -1.9021 -1.2274  0.6403
 6930TIP3   OH242424   6.846   6.340   8.495 -0.2885 -0.4938 -0.6693
 6930TIP3    H142425   6.786   6.266   8.492 -0.5262 -0.4263  1.2661
 6930TIP3    H242426   6.793   6.413   8.525  0.8787 -0.6269  1.9558
 6931TIP3   OH242427   5.216   4.022   2.296 -0.2727 -0.6619 -0.2040
 6931TIP3    H142428   5.166   4.103   2.289 -0.6758 -1.0320 -2.0632
 6931TIP3    H242429   5.173   3.961   2.235  0.8037 -1.8590  0.1691
 6932TIP3   OH242430   0.350   3.559   2.079 -0.3182 -0.3874  0.4203
 6932TIP3    H142431   0.314   3.642   2.111  0.6899  0.4606 -0.5508
 6932TIP3    H242432   0.430   3.584   2.032  0.6840 -2.0519  1.1546
 6933TIP3   OH242433   5.938   3.803   7.675  0.3932  0.2740 -0.3324
 6933TIP3    H142434   6.029   3.797   7.647  0.2944 -1.1434 -0.4202
 6933TIP3    H242435   5.915   3.713   7.701 -1.2381  0.4349 -1.1313
 6934TIP3   OH242436   4.728   1.181   0.391  1.0706 -0.0796 -0.1495
 6934TIP3    H142437   4.739   1.127   0.313 -0.2623  0.1773 -0.5388
 6934TIP3    H242438   4.633   1.189   0.401  1.1917  2.5950 -0.4184
 6935TIP3   OH242439   4.259   0.971   6.770  0.2376 -0.4816 -0.3699
 6935TIP3    H142440   4.281   0.912   6.697 -0.3674 -0.0168 -0.9382
 6935TIP3    H242441   4.199   1.035   6.732  1.3420  0.8652  0.0941
 6936TIP3   OH242442   6.631   2.964   1.119  0.5149 -0.3287  0.8970
 6936TIP3    H142443   6.672   2.879   1.106  1.7002  0.1341  1.4528
 6936TIP3    H242444   6.659   3.016   1.044 -0.3909 -0.4798  0.4402
 6937TIP3   OH242445   6.751   4.035   2.163  0.0601  0.6884 -0.3023
 6937TIP3    H142446   6.703   3.986   2.230  0.4536 -1.5088 -1.5282
 6937TIP3    H242447   6.825   4.074   2.210  0.0259 -0.3371  0.6349
 6938TIP3   OH242448   1.623   0.736   1.826 -0.1251 -0.1645  0.3071
 6938TIP3    H142449   1.613   0.719   1.919  0.5471 -1.9714  0.0762
 6938TIP3    H242450   1.645   0.651   1.787  1.7871  0.9130 -1.1857
 6939TIP3   OH242451   4.406   3.234   0.359  0.1480  0.2274  0.4948
 6939TIP3    H142452   4.350   3.243   0.283  1.3843 -0.6175 -0.5732
 6939TIP3    H242453   4.462   3.159   0.339 -0.0638 -0.5798  2.6210
 6940TIP3   OH242454   3.863   4.310   7.836  0.3474  0.2276  0.0071
 6940TIP3    H142455   3.786   4.312   7.780  1.4704 -0.0893 -1.6471
 6940TIP3    H242456   3.844   4.244   7.902 -0.7175  0.0014 -0.5099
 6941TIP3   OH242457   0.570   3.240   0.457  0.0272  0.0775 -0.0916
 6941TIP3    H142458   0.650   3.198   0.488  1.2132  1.8142 -0.6723
 6941TIP3    H242459   0.500   3.179   0.482  1.4612 -1.2701  0.8316
 6942TIP3   OH242460   0.732   0.626   1.979  0.5805 -0.1988 -0.3500
 6942TIP3    H142461   0.745   0.697   1.916  2.8115  0.5866  0.8880
 6942TIP3    H242462   0.815   0.578   1.979  1.2428  0.6987  2.9602
 6943TIP3   OH242463   1.113   4.199   8.233 -0.2533 -0.3167  0.5138
 6943TIP3    H142464   1.120   4.155   8.148 -0.5330  2.2861 -0.9729
 6943TIP3    H242465   1.196   4.179   8.277  1.1817  0.5748 -1.6026
 6944TIP3   OH242466   0.699   3.150   2.109  0.0145  0.3608  0.4634
 6944TIP3    H142467   0.723   3.077   2.165  1.4411  0.2675 -0.2216
 6944TIP3    H242468   0.763   3.218   2.129  1.0239  0.0678 -1.5054
 6945TIP3   OH242469   0.652   1.379   8.271 -0.3279  0.2359 -0.2440
 6945TIP3    H142470   0.649   1.283   8.280 -2.8190  0.1766 -0.9611
 6945TIP3    H242471   0.635   1.412   8.360 -1.1215 -0.0349 -0.2853
 6946TIP3   OH242472   6.076   4.173   8.202  0.1062  0.2365 -0.4604
 6946TIP3    H142473   6.081   4.145   8.293  1.2044  0.2891 -0.4942
 6946TIP3    H242474   5.987   4.209   8.193 -0.5280 -1.0845  0.1867
 6947TIP3   OH242475   5.332   3.833   1.510  0.4111 -0.3470 -0.1139
 6947TIP3    H142476   5.246   3.867   1.536  1.0439  2.7048 -1.5484
 6947TIP3    H242477   5.391   3.857   1.581  0.7937  1.4063 -0.9745
 6948TIP3   OH242478   0.641   1.355   1.410 -0.1822  0.2286  0.0776
 6948TIP3    H142479   0.654   1.260   1.408 -3.0177 -0.2325 -0.3750
 6948TIP3    H242480   0.691   1.387   1.335 -1.8486 -1.3684 -1.8226
 6949TIP3   OH242481   1.111   5.067   1.261 -0.6897  0.1929 -0.0883
 6949TIP3    H142482   1.169   5.034   1.329 -0.8028 -0.3177 -0.2356
 6949TIP3    H242483   1.067   4.989   1.227  0.1743  0.2966 -1.5007
 6950TIP3   OH242484   4.940   6.008   1.866  0.5003 -0.4909 -0.5318
 6950TIP3    H142485   4.894   6.044   1.789 -0.5527 -0.4159  0.1071
 6950TIP3    H242486   5.000   6.077   1.892 -0.1011  0.0337 -0.4928
 6951TIP3   OH242487   3.867   4.382   0.861  0.2169  0.0348 -0.3193
 6951TIP3    H142488   3.917   4.301   0.847 -1.7186 -0.9566 -2.0989
 6951TIP3    H242489   3.914   4.448   0.810  1.1188 -0.2457  0.1287
 6952TIP3   OH242490   6.414   6.885   1.275  0.6983 -0.3873  0.4121
 6952TIP3    H142491   6.451   6.871   1.188  1.0229 -1.0106  0.6420
 6952TIP3    H242492   6.382   6.799   1.301 -0.7360  0.1010  0.3121
 6953TIP3   OH242493   2.918   6.573   1.701  0.4693 -0.0660 -0.2733
 6953TIP3    H142494   2.979   6.500   1.695 -0.1239 -0.8362  2.0745
 6953TIP3    H242495   2.968   6.643   1.742  0.1887 -0.2067  0.3147
 6954TIP3   OH242496   1.273   1.944   0.986  0.0678  0.0055  0.0992
 6954TIP3    H142497   1.247   1.901   1.068  0.3848  0.5284  0.4845
 6954TIP3    H242498   1.367   1.959   0.996 -0.2676  2.1365  0.6511
 6955TIP3   OH242499   1.541   2.051   8.169 -0.4923 -0.1998  0.4679
 6955TIP3    H142500   1.511   1.973   8.123 -1.6883  0.3089  0.3506
 6955TIP3    H242501   1.622   2.024   8.213 -0.4443 -1.2551 -0.2586
 6956TIP3   OH242502   4.213   1.349   2.055  0.2030 -0.0583 -0.1209
 6956TIP3    H142503   4.269   1.277   2.081 -1.6149 -0.9149  1.7199
 6956TIP3    H242504   4.158   1.313   1.986  2.1194  0.9272 -2.2840
 6957TIP3   OH242505   3.078   6.772   1.808  0.2686 -0.2484 -0.0451
 6957TIP3    H142506   3.166   6.734   1.816  0.7639  0.4402 -1.6015
 6957TIP3    H242507   3.068   6.827   1.886  1.9802  1.0455 -0.6682
 6958TIP3   OH242508   5.420   5.752   7.276  0.4974  0.3282  0.5055
 6958TIP3    H142509   5.427   5.790   7.189  0.5725  0.3504  0.5215
 6958TIP3    H242510   5.354   5.806   7.320 -0.4588 -0.4519  0.0603
 6959TIP3   OH242511   1.988   5.828   7.447 -0.0413  0.1773  0.4908
 6959TIP3    H142512   2.080   5.818   7.421 -0.0331  0.6949  0.3032
 6959TIP3    H242513   1.971   5.922   7.438 -0.7147  0.0231  0.1057
 6960TIP3   OH242514   5.876   5.598   0.942 -0.0631 -0.3139  0.2406
 6960TIP3    H142515   5.824   5.673   0.914 -0.4815 -0.6617  0.0806
 6960TIP3    H242516   5.967   5.623   0.925  0.0578  1.2459  2.6287
 6961TIP3   OH242517   0.571   6.852   1.263 -0.4487  0.1155  0.1136
 6961TIP3    H142518   0.490   6.857   1.212 -0.1544  0.4481 -0.3328
 6961TIP3    H242519   0.592   6.759   1.267 -1.4160 -0.0677  1.1364
 6962TIP3   OH242520   6.407   3.345   1.210  0.3125  0.2605 -0.4021
 6962TIP3    H142521   6.312   3.355   1.200  0.1146 -1.2792 -0.3980
 6962TIP3    H242522   6.444   3.407   1.148 -0.7245  0.0121 -1.3057
 6963TIP3   OH242523   4.694   3.158   7.521  0.4481 -0.1706  0.3441
 6963TIP3    H142524   4.738   3.136   7.439  1.5521  1.2503  0.5135
 6963TIP3    H242525   4.709   3.083   7.578 -0.3761 -1.1990 -0.7303
 6964TIP3   OH242526   1.151   2.115   2.532  0.3298  0.4897  0.8960
 6964TIP3    H142527   1.069   2.113   2.483  0.9789  1.3040 -0.2573
 6964TIP3    H242528   1.213   2.067   2.478 -0.0756 -2.9614  3.2134
 6965TIP3   OH242529   2.491   5.212   1.641 -0.2497 -0.4713 -0.1948
 6965TIP3    H142530   2.556   5.283   1.642  0.1291 -0.8115  1.1621
 6965TIP3    H242531   2.499   5.175   1.553 -0.5050  1.1913 -0.9622
 6966TIP3   OH242532   0.435   4.733   0.238 -0.7241 -0.4145 -0.5793
 6966TIP3    H142533   0.377   4.794   0.284 -0.6783  0.5132 -1.6892
 6966TIP3    H242534   0.513   4.728   0.293 -0.0671  1.8192 -1.1915
 6967TIP3   OH242535   0.496   6.714   8.498 -0.5105 -0.0329 -0.4461
 6967TIP3    H142536   0.520   6.639   8.553 -0.2241  1.8648  2.2251
 6967TIP3    H242537   0.426   6.758   8.546 -1.0932  1.1226 -2.2379
 6968TIP3   OH242538   1.226   4.715   1.360  0.3819 -0.2145  0.0674
 6968TIP3    H142539   1.189   4.786   1.308  0.6709 -1.3178 -1.7131
 6968TIP3    H242540   1.176   4.638   1.334 -0.5154 -0.5891  2.6044
 6969TIP3   OH242541   0.898   3.690   7.249 -0.2799  0.0585  0.1719
 6969TIP3    H142542   0.986   3.727   7.253 -0.3442  0.3611 -0.8830
 6969TIP3    H242543   0.884   3.650   7.335  1.0679 -0.4109  0.1883
 6970TIP3   OH242544   5.436   1.355   8.186 -0.0001 -0.2286  0.6265
 6970TIP3    H142545   5.364   1.291   8.189 -0.0912 -0.1186  0.8328
 6970TIP3    H242546   5.393   1.439   8.170  0.2297 -0.3794 -0.9071
 6971TIP3   OH242547   2.923   4.040   1.459 -0.0588  0.3675 -0.8321
 6971TIP3    H142548   3.006   4.010   1.495  0.5659  3.4046  0.5831
 6971TIP3    H242549   2.947   4.092   1.383 -0.7310  0.5449 -0.9296
 6972TIP3   OH242550   4.680   0.816   8.347  0.1577 -0.2684 -0.8607
 6972TIP3    H142551   4.691   0.790   8.439 -1.3132  1.8213 -0.0255
 6972TIP3    H242552   4.635   0.742   8.306  1.3260 -1.4620 -0.0813
 6973TIP3   OH242553   2.124   1.671   7.286 -0.6285  0.3650 -0.0933
 6973TIP3    H142554   2.133   1.767   7.286  1.6822  0.2024 -0.2721
 6973TIP3    H242555   2.136   1.646   7.378  2.5289  0.0588 -0.4788
 6974TIP3   OH242556   2.341   6.224   8.355  0.3523  0.8938 -0.0351
 6974TIP3    H142557   2.248   6.228   8.376  0.4424 -0.6146  0.8133
 6974TIP3    H242558   2.368   6.315   8.346 -1.2245  1.3521 -0.4365
 6975TIP3   OH242559   3.876   3.208   7.417  0.1047  0.3631  0.0207
 6975TIP3    H142560   3.894   3.204   7.323  0.4890  0.3540  0.0942
 6975TIP3    H242561   3.781   3.210   7.423  0.0822  0.6528 -0.3817
 6976TIP3   OH242562   3.447   4.153   0.872  0.1384  0.3592 -0.4273
 6976TIP3    H142563   3.512   4.084   0.860 -0.9085 -0.9957  1.0748
 6976TIP3    H242564   3.498   4.232   0.888  1.4591 -0.7493  1.1780
 6977TIP3   OH242565   4.878   1.834   0.118  0.0131  0.0399  0.0619
 6977TIP3    H142566   4.786   1.856   0.107 -0.0758 -0.1969  0.3464
 6977TIP3    H242567   4.879   1.757   0.174  0.3252 -0.7102 -0.9450
 6978TIP3   OH242568   1.362   1.639   8.103 -0.0039 -0.0067 -0.2912
 6978TIP3    H142569   1.324   1.655   8.189  0.7380  0.1870  0.0079
 6978TIP3    H242570   1.313   1.564   8.068  0.0946 -0.4766  0.5591
 6979TIP3   OH242571   3.646   4.093   2.392 -0.4303 -0.2402  0.7986
 6979TIP3    H142572   3.734   4.093   2.431 -0.2715 -3.4839  0.7183
 6979TIP3    H242573   3.650   4.160   2.324  1.9953 -0.2828  0.8016
 6980TIP3   OH242574   2.488   1.847   8.124 -0.2362  0.4475  0.2471
 6980TIP3    H142575   2.452   1.763   8.096 -1.6688  0.8552  0.7719
 6980TIP3    H242576   2.570   1.855   8.076  0.8146 -2.0285  1.4244
 6981TIP3   OH242577   1.268   5.457   2.005 -0.1801 -0.4019 -0.3749
 6981TIP3    H142578   1.178   5.449   2.036  0.6330 -0.7938  2.0812
 6981TIP3    H242579   1.303   5.368   2.009  0.2111 -0.3272 -1.7346
 6982TIP3   OH242580   0.774   6.134   1.842 -0.2908 -0.6258  0.7583
 6982TIP3    H142581   0.727   6.116   1.761 -2.8781  0.0096  1.9821
 6982TIP3    H242582   0.858   6.170   1.815 -2.4790  3.3770 -1.8400
 6983TIP3   OH242583   6.013   6.436   6.953 -0.4917  0.4635  0.7058
 6983TIP3    H142584   6.022   6.432   6.858 -2.4765 -0.9086  0.5027
 6983TIP3    H242585   5.958   6.513   6.969 -0.0733  0.7536  0.7657
 6984TIP3   OH242586   3.782   3.030   1.165 -0.0668 -0.2389 -0.3668
 6984TIP3    H142587   3.714   2.980   1.210  0.2616 -0.8274 -0.5206
 6984TIP3    H242588   3.860   2.976   1.172  0.6274  0.8275  0.5825
 6985TIP3   OH242589   5.504   4.713   1.851 -0.1821  0.0834 -0.3886
 6985TIP3    H142590   5.503   4.628   1.895 -0.6571  0.6207  0.6540
 6985TIP3    H242591   5.580   4.709   1.793 -0.3423 -1.1371 -0.5345
 6986TIP3   OH242592   6.888   6.594   8.258 -0.6523  0.4673 -0.4005
 6986TIP3    H142593   6.941   6.630   8.187 -1.7300  1.7686 -0.5977
 6986TIP3    H242594   6.804   6.639   8.250 -1.2724 -0.3962  0.8463
 6987TIP3   OH242595   0.716   6.082   0.239  0.0876  0.1921  0.3080
 6987TIP3    H142596   0.786   6.065   0.175  0.2277  1.0343  0.2269
 6987TIP3    H242597   0.733   6.020   0.310  1.5284  1.0557  0.7573
 6988TIP3   OH242598   5.353   3.273   0.126  0.0360 -0.0414  0.0410
 6988TIP3    H142599   5.442   3.271   0.162 -0.2011  1.8702  0.8469
 6988TIP3    H242600   5.312   3.194   0.160  1.4416 -1.0220 -0.4508
 6989TIP3   OH242601   3.089   1.140   7.522  0.4424  0.6156 -0.3043
 6989TIP3    H142602   3.088   1.068   7.458  0.6150  0.3256  0.0183
 6989TIP3    H242603   3.021   1.200   7.492 -2.7162 -1.6761  1.7270
 6990TIP3   OH242604   2.261   4.576   1.019  0.0403 -0.0389 -0.5828
 6990TIP3    H142605   2.336   4.609   0.970  0.4542  0.7822  0.5599
 6990TIP3    H242606   2.187   4.583   0.957  0.8118 -0.5123 -1.5903
 6991TIP3   OH242607   6.318   2.627   1.533 -0.3732  0.0422  0.1516
 6991TIP3    H142608   6.385   2.631   1.464  0.2970  0.7633  0.8289
 6991TIP3    H242609   6.259   2.558   1.504 -0.6410  0.9585 -1.6302
 6992TIP3   OH242610   2.864   3.698   2.910 -0.0790  0.0878  0.5762
 6992TIP3    H142611   2.904   3.665   2.991  0.6536 -1.1455 -0.2587
 6992TIP3    H242612   2.937   3.717   2.852 -0.5656  1.6927  0.4338
 6993TIP3   OH242613   1.967   4.699   1.223 -0.5708 -0.3673  0.0752
 6993TIP3    H142614   2.017   4.659   1.294 -1.1515  0.5660  1.0279
 6993TIP3    H242615   1.912   4.764   1.265 -0.1312  1.0022 -1.3478
 6994TIP3   OH242616   0.296   6.019   1.755  0.6165  0.1692  0.3887
 6994TIP3    H142617   0.342   5.937   1.739  0.8701 -0.0524  2.1274
 6994TIP3    H242618   0.270   6.015   1.847 -0.8063  1.3329  0.0770
 6995TIP3   OH242619   0.391   6.571   1.994 -0.1702  0.5374 -0.3719
 6995TIP3    H142620   0.380   6.477   2.014 -2.2952  0.6810 -0.6580
 6995TIP3    H242621   0.380   6.576   1.899 -0.9887  1.1739 -0.2489
 6996TIP3   OH242622   6.837   5.765   7.748 -0.3185  0.1116  0.2317
 6996TIP3    H142623   6.769   5.715   7.704 -1.0653 -0.4554  1.9491
 6996TIP3    H242624   6.909   5.703   7.759 -0.3378  0.0951  0.2686
 6997TIP3   OH242625   6.110   1.172   6.882 -0.0379 -0.1623 -1.0956
 6997TIP3    H142626   6.150   1.115   6.947 -0.9303  0.2920 -0.1023
 6997TIP3    H242627   6.055   1.114   6.829  0.3397 -0.4642 -1.1595
 6998TIP3   OH242628   1.709   4.739   7.227 -0.2933  0.6523 -0.5315
 6998TIP3    H142629   1.797   4.759   7.194  0.4468 -0.2387  0.8415
 6998TIP3    H242630   1.674   4.824   7.253  1.4098  0.7052  1.8384
 6999TIP3   OH242631   1.646   1.831   1.239  0.0166 -0.2693 -0.4849
 6999TIP3    H142632   1.720   1.774   1.217  0.8111  0.6078 -0.1206
 6999TIP3    H242633   1.591   1.776   1.295  1.6080 -0.1958  1.2653
 7000TIP3   OH242634   4.200   4.205   8.518  0.0402 -0.2207 -0.1426
 7000TIP3    H142635   4.108   4.180   8.530  0.2492 -0.2166  1.7648
 7000TIP3    H242636   4.247   4.123   8.508  0.1576 -0.4377  1.7572
 7001TIP3   OH242637   4.040   0.456   7.866  0.3314  0.3510  0.7875
 7001TIP3    H142638   4.036   0.397   7.791  1.3324  0.4886  0.6106
 7001TIP3    H242639   4.109   0.519   7.843  0.8826  0.1945  1.9563
 7002TIP3   OH242640   3.105   1.039   1.453  0.8550 -0.1999 -0.1315
 7002TIP3    H142641   3.016   1.019   1.426 -0.3312  2.7238  1.1333
 7002TIP3    H242642   3.125   0.975   1.521 -0.3378 -0.8189 -0.3438
 7003TIP3   OH242643   3.863   2.590   8.076  0.1458  0.4141 -0.3959
 7003TIP3    H142644   3.946   2.594   8.124 -0.5544  1.1529  0.8243
 7003TIP3    H242645   3.811   2.526   8.125 -0.1528  0.2664 -0.9055
 7004TIP3   OH242646   0.144   2.682   7.985  0.4086 -0.0835  0.8069
 7004TIP3    H142647   0.196   2.730   7.921  1.3656 -1.3512  0.6082
 7004TIP3    H242648   0.184   2.595   7.989 -1.3865 -0.9456  1.0110
 7005TIP3   OH242649   4.234   6.930   7.498 -0.4356 -0.4519  0.1967
 7005TIP3    H142650   4.293   6.942   7.572 -1.4794  2.3417  0.6774
 7005TIP3    H242651   4.148   6.954   7.531 -1.2859 -1.1512 -1.3912
 7006TIP3   OH242652   1.124   6.901   2.355 -0.5416  0.7264 -0.4184
 7006TIP3    H142653   1.038   6.914   2.395 -1.1624 -1.8309 -0.7707
 7006TIP3    H242654   1.173   6.851   2.421  0.0400  0.5856 -0.9584
 7007TIP3   OH242655   5.313   2.852   1.157  0.4683 -0.3234  0.0778
 7007TIP3    H142656   5.249   2.784   1.136  0.4623 -0.2664 -0.0885
 7007TIP3    H242657   5.398   2.811   1.140  0.4676 -0.3149  0.0535
 7008TIP3   OH242658   5.541   3.143   8.384 -0.4066 -1.3151  0.2314
 7008TIP3    H142659   5.629   3.162   8.351 -1.2897 -1.7902 -2.6382
 7008TIP3    H242660   5.519   3.219   8.438  0.1009  1.0594 -2.6355
 7009TIP3   OH242661   2.468   1.154   7.483 -0.3053 -0.3261 -0.4571
 7009TIP3    H142662   2.468   1.118   7.394  1.2710  1.7419 -1.3727
 7009TIP3    H242663   2.558   1.148   7.512  0.0174  2.4766 -0.5771
 7010TIP3   OH242664   2.552   6.706   7.601 -0.3019 -0.1450 -0.3479
 7010TIP3    H142665   2.491   6.640   7.566 -1.3846  0.1489  0.8976
 7010TIP3    H242666   2.637   6.683   7.564 -1.1850 -0.4672 -2.3043
 7011TIP3   OH242667   1.781   4.339   8.165  0.7358 -0.0570 -0.1034
 7011TIP3    H142668   1.872   4.335   8.196  0.2669  1.1536  1.5318
 7011TIP3    H242669   1.781   4.410   8.101  0.2849  2.6477  2.6414
 7012TIP3   OH242670   1.188   2.383   2.395 -0.0506  0.1159  0.2736
 7012TIP3    H142671   1.268   2.405   2.443  0.2842  1.7820 -0.9744
 7012TIP3    H242672   1.152   2.308   2.443  1.2176  0.5460  2.0187
 7013TIP3   OH242673   2.062   3.985   3.055 -0.0430  0.7789 -0.0998
 7013TIP3    H142674   2.130   3.921   3.034  2.5758  2.9654  1.0784
 7013TIP3    H242675   2.110   4.065   3.077 -3.0466  2.5850  0.5283
 7014TIP3   OH242676   0.121   5.973   1.144  0.6403 -0.1023  0.1466
 7014TIP3    H142677   0.128   5.910   1.216  0.5543  1.7161  1.8233
 7014TIP3    H242678   0.212   5.989   1.118  0.6063 -1.8725 -1.2216
 7015TIP3   OH242679   1.844   5.526   6.806  0.1208  0.0036  0.4195
 7015TIP3    H142680   1.879   5.615   6.813 -1.1842  0.8500 -2.4022
 7015TIP3    H242681   1.790   5.527   6.728 -0.3637 -3.1806  0.5590
 7016TIP3   OH242682   6.952   5.792   7.075  0.4673 -0.0855 -0.5604
 7016TIP3    H142683   7.009   5.727   7.035 -0.1027 -0.0516 -1.4417
 7016TIP3    H242684   6.991   5.808   7.161  2.5700  0.9650 -1.6583
 7017TIP3   OH242685   4.903   0.936   2.185 -0.4928  0.6849  0.6608
 7017TIP3    H142686   4.877   0.865   2.243  0.4247  0.2869  0.6096
 7017TIP3    H242687   4.958   0.992   2.240 -0.1860  0.6732  0.3730
 7018TIP3   OH242688   1.335   1.780   1.484 -0.0741  0.7047  0.0928
 7018TIP3    H142689   1.290   1.858   1.516 -0.5964  0.5624 -0.2976
 7018TIP3    H242690   1.376   1.743   1.562 -0.5644  0.8773  0.4343
 7019TIP3   OH242691   3.763   0.357   0.371 -0.5411  0.0392 -0.6741
 7019TIP3    H142692   3.694   0.386   0.312  0.0154 -1.4609 -2.1340
 7019TIP3    H242693   3.842   0.352   0.317  1.3809  3.7775  1.3778
 7020TIP3   OH242694   2.040   1.878   1.373 -0.0556 -0.1473  0.0204
 7020TIP3    H142695   2.007   1.917   1.454 -0.5201  0.0781 -0.2773
 7020TIP3    H242696   2.035   1.948   1.309  0.3093 -0.3266 -0.2071
 7021TIP3   OH242697   0.897   4.605   7.209 -0.4732 -0.1083 -0.4536
 7021TIP3    H142698   0.854   4.640   7.132  0.4928 -1.7169 -1.7974
 7021TIP3    H242699   0.872   4.512   7.211  1.0802 -0.5480  0.0064
 7022TIP3   OH242700   2.300   0.298   0.870 -0.6664 -0.0867 -0.0669
 7022TIP3    H142701   2.283   0.205   0.883 -1.3767  0.1073  0.5018
 7022TIP3    H242702   2.370   0.319   0.932  2.8870 -1.1720 -3.3224
 7023TIP3   OH242703   3.072   4.387   1.285  0.2733 -0.3009 -0.3200
 7023TIP3    H142704   2.986   4.424   1.300  1.5994  3.5115 -1.0875
 7023TIP3    H242705   3.096   4.345   1.368 -1.5234  0.2166  0.4992
 7024TIP3   OH242706   1.458   2.539   2.313  0.0831 -0.3754 -0.2474
 7024TIP3    H142707   1.483   2.459   2.361  0.3420 -0.3621 -0.3566
 7024TIP3    H242708   1.398   2.584   2.372  1.4478  0.3130  0.6664
 7025TIP3   OH242709   6.949   0.684   7.900 -0.3389  0.6162  0.8149
 7025TIP3    H142710   6.953   0.632   7.820 -0.3198  0.0087  1.2038
 7025TIP3    H242711   6.948   0.619   7.970  1.3019  1.1576  1.3880
 7026TIP3   OH242712   4.757   4.878   6.983 -0.2646 -0.1014  0.7813
 7026TIP3    H142713   4.803   4.957   6.956 -1.5956  0.0942 -1.0890
 7026TIP3    H242714   4.685   4.910   7.037 -0.5124 -0.0646  0.4333
 7027TIP3   OH242715   1.292   4.371   0.031 -0.1920  0.7710  0.2643
 7027TIP3    H142716   1.349   4.337   0.100 -0.9208  0.0222  0.5051
 7027TIP3    H242717   1.250   4.294  -0.007  1.1918  1.0147 -1.9672
 7028TIP3   OH242718   6.748   5.407   7.434 -0.2482 -0.4859 -0.3312
 7028TIP3    H142719   6.733   5.428   7.526  2.1827  0.3960 -0.0715
 7028TIP3    H242720   6.726   5.487   7.387  0.3240 -0.3027 -0.2968
 7029TIP3   OH242721   2.089   4.633   2.677 -0.1439  0.1433 -0.0065
 7029TIP3    H142722   1.997   4.657   2.672  0.2212  2.0826  1.4418
 7029TIP3    H242723   2.126   4.657   2.592 -0.1785  3.3288  0.7743
 7030TIP3   OH242724   0.524   2.069   1.397  0.1255  0.3046  0.6399
 7030TIP3    H142725   0.508   2.151   1.349  1.0775  0.6382  0.8557
 7030TIP3    H242726   0.439   2.026   1.400 -0.0468  0.4500 -1.0231
 7031TIP3   OH242727   0.585   1.717   7.893  0.2795 -0.1516 -0.0753
 7031TIP3    H142728   0.629   1.653   7.948 -1.0906 -0.2269  0.9680
 7031TIP3    H242729   0.602   1.686   7.803 -0.0727 -1.8023  0.3863
 7032TIP3   OH242730   4.766   0.971   2.815 -0.2982  0.4416  0.1504
 7032TIP3    H142731   4.732   0.904   2.755  0.1361 -0.1029  0.4983
 7032TIP3    H242732   4.860   0.954   2.819 -0.1919  1.0450  0.2807
 7033TIP3   OH242733   0.153   1.491   0.934 -0.0597  0.0688  0.0962
 7033TIP3    H142734   0.063   1.517   0.913  0.3045  1.4343  0.1376
 7033TIP3    H242735   0.154   1.481   1.029  0.0011  0.7637  0.1724
 7034TIP3   OH242736   1.945   2.675   0.205 -0.2239 -0.6885  0.3782
 7034TIP3    H142737   1.927   2.609   0.139  2.2937 -0.7486 -0.3515
 7034TIP3    H242738   1.931   2.631   0.289 -0.0370 -1.6640 -0.1003
 7035TIP3   OH242739   1.129   3.566   2.921  1.1626  0.0395  0.1511
 7035TIP3    H142740   1.148   3.496   2.858  1.0381 -0.1143  0.2841
 7035TIP3    H242741   1.039   3.591   2.903  1.1030 -0.0544  0.3137
 7036TIP3   OH242742   2.964   4.622   0.025  0.0061  0.3521  0.0395
 7036TIP3    H142743   2.875   4.657   0.018  0.3387  1.2790  0.3594
 7036TIP3    H242744   2.953   4.541   0.075 -0.6048  0.6903  0.4733
 7037TIP3   OH242745   4.192   2.979   1.522 -0.3398  0.2302 -0.0164
 7037TIP3    H142746   4.254   2.909   1.543 -1.8735 -0.6812  1.8661
 7037TIP3    H242747   4.142   2.991   1.603 -0.8926  2.7405 -0.6479
 7038TIP3   OH242748   6.011   4.454   7.268  0.1705  0.4058  0.1558
 7038TIP3    H142749   6.067   4.530   7.281 -0.3335  0.7006  0.6450
 7038TIP3    H242750   6.072   4.380   7.262  0.6665  0.8471 -0.3779
 7039TIP3   OH242751   2.126   1.050   2.278  0.1108 -0.5594 -0.0837
 7039TIP3    H142752   2.086   0.968   2.308 -0.9609  0.1926  0.6564
 7039TIP3    H242753   2.206   1.023   2.233 -1.0880 -2.1438 -1.4116
 7040TIP3   OH242754   4.492   1.331   0.683  0.6588  0.1834 -0.4236
 7040TIP3    H142755   4.416   1.289   0.642  1.4898  0.1462 -2.0055
 7040TIP3    H242756   4.547   1.259   0.711 -0.7152  0.1417  2.5659
 7041TIP3   OH242757   6.396   6.475   8.395  0.0210 -0.4817 -0.2923
 7041TIP3    H142758   6.481   6.455   8.433 -0.1081  0.7689  0.7263
 7041TIP3    H242759   6.415   6.503   8.306  0.7272  0.1421  0.0443
 7042TIP3   OH242760   5.474   3.475   1.128 -0.4257  0.3684 -0.7354
 7042TIP3    H142761   5.569   3.466   1.123 -0.5254 -1.7099  0.2712
 7042TIP3    H242762   5.459   3.555   1.178  0.8074  0.2664 -0.1923
 7043TIP3   OH242763   3.282   2.659   1.806  0.2644 -0.3593  0.5977
 7043TIP3    H142764   3.263   2.575   1.848 -0.2285  0.3320  1.8370
 7043TIP3    H242765   3.197   2.701   1.796  0.5976  0.4841  1.1191
 7044TIP3   OH242766   5.474   1.122   1.620 -0.2868  0.2830 -0.5048
 7044TIP3    H142767   5.557   1.113   1.667  0.6764  0.3840 -2.1061
 7044TIP3    H242768   5.408   1.085   1.680  0.7391  1.1134  1.2161
 7045TIP3   OH242769   3.435   3.732   1.961 -0.2609 -0.2444 -0.1594
 7045TIP3    H142770   3.407   3.785   2.035 -0.0771 -1.0904  0.5350
 7045TIP3    H242771   3.417   3.642   1.988  0.0893 -0.5835 -1.0206
 7046TIP3   OH242772   6.033   0.713   7.712  0.0357  0.2325  0.2691
 7046TIP3    H142773   6.118   0.668   7.706 -0.7434 -1.2717  0.0394
 7046TIP3    H242774   6.021   0.752   7.625 -0.1084 -0.7293 -0.1630
 7047TIP3   OH242775   1.823   5.324   1.599  0.2117  0.2780  0.0256
 7047TIP3    H142776   1.794   5.414   1.581 -0.2552  0.0774 -0.2302
 7047TIP3    H242777   1.877   5.301   1.523  1.1052  0.6727  0.5292
 7048TIP3   OH242778   1.838   5.039   1.613 -0.4902  0.7380  0.2553
 7048TIP3    H142779   1.812   5.111   1.670  0.2628  0.1317  1.4113
 7048TIP3    H242780   1.871   5.082   1.534 -2.2754  1.5749 -0.0688
 7049TIP3   OH242781   1.320   3.122   0.767  0.3609 -0.3853  0.0226
 7049TIP3    H142782   1.304   3.167   0.850  1.7110 -0.5737  0.4046
 7049TIP3    H242783   1.392   3.171   0.727 -0.3323 -0.2370 -1.0995
 7050TIP3   OH242784   5.857   3.741   8.107 -0.0839 -0.0587 -0.9296
 7050TIP3    H142785   5.922   3.708   8.045 -0.7603 -0.1311 -1.6151
 7050TIP3    H242786   5.860   3.678   8.179 -0.9901 -1.3625 -1.9909
 7051TIP3   OH242787   0.365   3.445   1.690 -0.4183  0.1721  0.1138
 7051TIP3    H142788   0.349   3.506   1.762  0.6004 -1.7220  2.0679
 7051TIP3    H242789   0.443   3.479   1.646 -1.0957  1.3906 -0.1678
 7052TIP3   OH242790   5.306   1.224   1.431 -0.0259  0.1069 -0.2048
 7052TIP3    H142791   5.371   1.179   1.485 -0.4546  0.1026  0.3129
 7052TIP3    H242792   5.238   1.251   1.492 -0.2419  0.6073 -0.6592
 7053TIP3   OH242793   2.804   6.106   6.950 -0.2162  0.0282 -0.2279
 7053TIP3    H142794   2.758   6.036   6.995  0.1944 -0.4515 -0.5449
 7053TIP3    H242795   2.824   6.070   6.863  0.6914  0.2474 -0.1189
 7054TIP3   OH242796   0.690   0.324   7.308 -0.0337  0.1150 -0.0090
 7054TIP3    H142797   0.605   0.354   7.340  0.0806  1.9619 -1.2834
 7054TIP3    H242798   0.685   0.334   7.213  0.7588 -2.1808 -0.3641
 7055TIP3   OH242799   1.233   6.563   0.067 -0.2705 -0.2143  0.0964
 7055TIP3    H142800   1.249   6.473   0.095 -2.3835 -1.0385 -1.0765
 7055TIP3    H242801   1.144   6.582   0.098 -0.8853  0.4691 -1.9102
 7056TIP3   OH242802   1.239   1.126   2.678  0.3747  0.0109  0.0323
 7056TIP3    H142803   1.198   1.209   2.652  1.5351  0.6993  0.3418
 7056TIP3    H242804   1.330   1.135   2.651  0.6144 -0.9958  0.4687
 7057TIP3   OH242805   5.410   2.243   0.082 -0.2963 -0.3595  0.7693
 7057TIP3    H142806   5.503   2.224   0.081  0.2563  2.0354  0.5560
 7057TIP3    H242807   5.391   2.269   0.172 -0.9926 -1.7278  1.0407
 7058TIP3   OH242808   6.510   4.813   0.772  0.2483  0.0763 -0.2367
 7058TIP3    H142809   6.589   4.833   0.822  0.8872  1.7349 -1.7827
 7058TIP3    H242810   6.449   4.883   0.796 -0.4693 -0.7309  0.3313
 7059TIP3   OH242811   2.021   3.064   7.296 -0.3153 -0.0567 -0.1416
 7059TIP3    H142812   1.986   3.150   7.272  0.8191  0.9671  1.6613
 7059TIP3    H242813   1.957   3.028   7.357 -0.4474 -0.2089 -0.3660
 7060TIP3   OH242814   2.972   6.105   2.343 -0.3786  0.2781  0.3713
 7060TIP3    H142815   3.063   6.131   2.359 -1.0705  3.3877 -0.2014
 7060TIP3    H242816   2.921   6.151   2.409 -1.8080  1.2583 -1.3170
 7061TIP3   OH242817   5.184   3.906   0.676 -1.0105 -0.9800 -0.0688
 7061TIP3    H142818   5.213   3.859   0.597  1.4329  1.2623 -0.6188
 7061TIP3    H242819   5.261   3.909   0.732 -1.5482  0.9253  0.6427
 7062TIP3   OH242820   6.604   6.290   1.338  0.0392  0.5709 -0.2300
 7062TIP3    H142821   6.559   6.221   1.290  0.0704  0.8910 -0.7305
 7062TIP3    H242822   6.583   6.274   1.430 -1.1813  0.7627 -0.4553
 7063TIP3   OH242823   3.787   1.904   7.470  0.0167  0.1291 -0.1691
 7063TIP3    H142824   3.777   1.810   7.482  1.2577  0.1177  0.9749
 7063TIP3    H242825   3.863   1.913   7.413  0.9118  0.4504  1.0359
 7064TIP3   OH242826   6.788   6.918   0.562 -0.4096 -0.1724 -0.0250
 7064TIP3    H142827   6.872   6.962   0.574 -0.8134  0.1737  1.7279
 7064TIP3    H242828   6.770   6.928   0.468  0.6738  1.2401 -0.1226
 7065TIP3   OH242829   2.002   5.730   0.444 -0.1222  0.0543 -0.1895
 7065TIP3    H142830   2.062   5.683   0.503 -0.9282  1.3648  1.7990
 7065TIP3    H242831   2.055   5.803   0.411 -0.0493  0.0891 -0.0006
 7066TIP3   OH242832   1.011   5.128   2.418 -0.2959  0.0464 -0.2052
 7066TIP3    H142833   0.944   5.178   2.371  0.0121  0.8580  0.1859
 7066TIP3    H242834   0.961   5.076   2.482 -0.6359 -0.2780 -0.7284
 7067TIP3   OH242835   2.920   2.221   1.806  0.3105 -0.3373 -0.1519
 7067TIP3    H142836   2.886   2.257   1.888 -1.0343  0.4406 -1.0255
 7067TIP3    H242837   3.010   2.253   1.802 -0.3285  1.5980 -0.0907
 7068TIP3   OH242838   4.701   2.763   2.609 -0.2218  0.5101 -0.5438
 7068TIP3    H142839   4.725   2.815   2.685  0.2140  1.8027 -1.5368
 7068TIP3    H242840   4.721   2.673   2.634  0.4814  0.9779  0.6376
 7069TIP3   OH242841   2.825   1.746   8.231 -0.0047  0.0058  0.0999
 7069TIP3    H142842   2.772   1.778   8.159 -0.4039 -1.0391 -0.0825
 7069TIP3    H242843   2.800   1.654   8.242  2.0251 -0.6583 -0.2582
 7070TIP3   OH242844   1.822   2.368   7.071  0.0714  0.4836  0.2845
 7070TIP3    H142845   1.772   2.289   7.051 -0.6778  0.2717  2.6287
 7070TIP3    H242846   1.767   2.440   7.039  0.6074  0.1380 -1.5583
 7071TIP3   OH242847   6.867   0.626   1.324 -0.2571  0.5569  0.5597
 7071TIP3    H142848   6.869   0.657   1.233  3.1473 -0.9273 -0.0315
 7071TIP3    H242849   6.827   0.539   1.319  1.9556 -0.4882  0.0164
 7072TIP3   OH242850   2.436   6.724   7.869 -0.3765 -0.0930  0.8524
 7072TIP3    H142851   2.470   6.639   7.842  1.5001  1.0389 -0.5374
 7072TIP3    H242852   2.360   6.738   7.813 -0.7055 -0.8274  1.1002
 7073TIP3   OH242853   4.283   2.578   0.052 -0.2930 -0.2569  0.4859
 7073TIP3    H142854   4.298   2.483   0.057 -0.3416 -0.2521  0.6928
 7073TIP3    H242855   4.349   2.616   0.109 -2.4712 -0.3429  3.2986
 7074TIP3   OH242856   4.233   0.387   0.385 -0.6055  0.0772  0.6273
 7074TIP3    H142857   4.202   0.476   0.397 -0.8160 -0.1103  1.6535
 7074TIP3    H242858   4.157   0.339   0.353 -0.1105  0.5366 -1.3387
 7075TIP3   OH242859   2.273   2.776   0.459  0.0725 -0.6431  0.2314
 7075TIP3    H142860   2.364   2.785   0.484 -0.0658  0.7051  0.3194
 7075TIP3    H242861   2.275   2.725   0.378  1.0192  0.4027 -0.4327
 7076TIP3   OH242862   1.616   5.215   0.649  0.0671 -0.0667 -0.2593
 7076TIP3    H142863   1.579   5.235   0.563 -0.9448  1.1086  0.4180
 7076TIP3    H242864   1.617   5.119   0.652 -1.8353 -0.1459 -0.7861
 7077TIP3   OH242865   2.131   1.714   0.947 -0.0389  0.1885  0.2462
 7077TIP3    H142866   2.115   1.807   0.963  0.7140  0.3177  0.2720
 7077TIP3    H242867   2.204   1.712   0.885  0.2894 -0.3888  0.6437
 7078TIP3   OH242868   0.714   3.851   0.850 -0.2390  0.0343 -0.1517
 7078TIP3    H142869   0.627   3.858   0.887 -0.6516  0.6732 -1.1983
 7078TIP3    H242870   0.718   3.761   0.816 -0.2453 -0.2011  0.4509
 7079TIP3   OH242871   1.561   1.791   7.721  0.8188 -0.3544  0.0786
 7079TIP3    H142872   1.654   1.774   7.706  0.9175  0.1397  0.1228
 7079TIP3    H242873   1.527   1.814   7.634  1.4767  2.9251  0.5474
 7080TIP3   OH242874   0.648   0.247   1.604  0.0476  0.3159  0.1975
 7080TIP3    H142875   0.672   0.166   1.558  3.4253  0.6593  1.0774
 7080TIP3    H242876   0.636   0.220   1.695  0.2498  0.6544  0.3258
 7081TIP3   OH242877   6.293   3.381   2.201 -0.2254  0.1533 -0.6244
 7081TIP3    H142878   6.361   3.449   2.204 -2.7536  2.8424  1.7793
 7081TIP3    H242879   6.229   3.415   2.138 -0.2056 -1.5148 -1.5860
 7082TIP3   OH242880   2.151   1.440   2.209  0.0919 -0.3311 -0.0861
 7082TIP3    H142881   2.145   1.508   2.142 -0.3878  0.2685  0.5442
 7082TIP3    H242882   2.216   1.474   2.271  2.5525 -2.0785 -1.5592
 7083TIP3   OH242883   2.929   2.035   0.448  0.2939  0.7835 -0.2217
 7083TIP3    H142884   2.963   2.034   0.358  0.8816  2.2626 -0.0378
 7083TIP3    H242885   2.880   2.117   0.455 -1.1715 -0.1058  0.3254
 7084TIP3   OH242886   5.797   1.996   2.759 -0.2667  0.5972  0.5495
 7084TIP3    H142887   5.886   2.000   2.723 -0.6972  0.6831 -0.5263
 7084TIP3    H242888   5.740   2.016   2.685 -1.1174  2.5738  1.6402
 7085TIP3   OH242889   4.396   5.070   7.445 -0.0916  0.1153  0.3905
 7085TIP3    H142890   4.414   5.003   7.511 -0.3754  0.5825  0.9522
 7085TIP3    H242891   4.480   5.114   7.432  0.3577 -1.0067 -0.7549
 7086TIP3   OH242892   3.312   6.035   7.218  0.9817  0.3420  0.0253
 7086TIP3    H142893   3.233   5.993   7.186  1.1519 -1.6561  1.9989
 7086TIP3    H242894   3.305   6.126   7.189 -2.2758  0.3521  0.5476
 7087TIP3   OH242895   5.732   1.331   7.463 -0.6782 -0.0868 -0.5390
 7087TIP3    H142896   5.715   1.377   7.545 -0.5152 -4.1436  2.0664
 7087TIP3    H242897   5.808   1.376   7.426  0.3554  0.9224  2.4950
 7088TIP3   OH242898   6.070   4.058   7.042 -0.0223  0.4517 -0.2045
 7088TIP3    H142899   6.125   4.029   6.969 -3.1816 -0.7628 -2.3176
 7088TIP3    H242900   6.021   4.132   7.007 -0.1059  1.2269  1.4550
 7089TIP3   OH242901   3.402   5.876   7.532  0.8372  0.2191  0.0719
 7089TIP3    H142902   3.355   5.799   7.500 -2.0156  2.0268 -0.4624
 7089TIP3    H242903   3.427   5.923   7.452  0.5462  0.9409  0.3958
 7090TIP3   OH242904   1.753   0.976   8.444  0.3787 -0.0076 -0.5502
 7090TIP3    H142905   1.688   1.025   8.494  0.7239 -0.9574  0.8593
 7090TIP3    H242906   1.761   0.892   8.489 -0.6818 -1.7143 -3.2914
 7091TIP3   OH242907   3.660   4.034   0.115  0.1390 -0.5068 -0.4380
 7091TIP3    H142908   3.698   3.983   0.044  0.3111 -0.9696 -0.0230
 7091TIP3    H242909   3.608   3.970   0.165  0.9651 -0.4582  0.5253
 7092TIP3   OH242910   3.933   6.201   0.762 -0.2510  0.2234  0.1841
 7092TIP3    H142911   3.981   6.124   0.731 -0.1980  0.4845 -0.4013
 7092TIP3    H242912   3.987   6.236   0.832  0.0036  0.0482  0.0780
 7093TIP3   OH242913   0.699   1.747   1.160  0.3317  0.0219 -0.1957
 7093TIP3    H142914   0.713   1.762   1.254  1.3988 -2.5626  0.1444
 7093TIP3    H242915   0.787   1.748   1.123 -0.1256  1.6851 -1.3541
 7094TIP3   OH242916   5.608   2.862   7.919  0.3116  0.2719 -0.6601
 7094TIP3    H142917   5.692   2.876   7.876  0.8479  0.1188  0.3116
 7094TIP3    H242918   5.595   2.939   7.974 -0.0323  0.1414 -0.5519
 7095TIP3   OH242919   1.063   4.272   1.805 -0.3843 -0.1185  0.0904
 7095TIP3    H142920   1.029   4.193   1.763 -1.3580  0.2506  0.1568
 7095TIP3    H242921   1.044   4.343   1.743  1.0936 -0.0045 -0.2794
 7096TIP3   OH242922   0.863   1.966   0.409 -0.2139  0.9197  0.0282
 7096TIP3    H142923   0.842   1.942   0.499 -0.7994 -0.0951 -0.3610
 7096TIP3    H242924   0.958   1.955   0.403 -0.3679 -0.6021  0.0850
 7097TIP3   OH242925   5.140   6.765   0.916  0.4912 -0.2364 -0.9808
 7097TIP3    H142926   5.106   6.716   0.991 -0.5846  0.2678 -1.1199
 7097TIP3    H242927   5.063   6.786   0.864  1.0482  0.7578 -1.4351
 7098TIP3   OH242928   5.944   1.112   8.164 -0.0695  0.3296 -0.6441
 7098TIP3    H142929   5.899   1.165   8.229  1.7022  0.9395  0.1527
 7098TIP3    H242930   5.876   1.088   8.101 -1.6729  0.3629  0.9990
 7099TIP3   OH242931   2.024   0.716   1.755 -1.0006  0.2299  0.6535
 7099TIP3    H142932   2.067   0.784   1.806 -1.3621  0.1286  1.0954
 7099TIP3    H242933   2.095   0.677   1.703 -1.0389  2.0158 -0.8609
 7100TIP3   OH242934   2.741   0.551   8.299  0.1675  0.1913  0.3283
 7100TIP3    H142935   2.755   0.506   8.382 -1.5281  0.0742  0.5759
 7100TIP3    H242936   2.806   0.621   8.299  0.3567  0.0446  1.6404
 7101TIP3   OH242937   1.780   4.880   1.360 -0.7067 -0.2861  0.2500
 7101TIP3    H142938   1.754   4.953   1.303  0.8664 -0.5216 -0.8369
 7101TIP3    H242939   1.769   4.914   1.449 -2.4749  0.3595 -0.1780
 7102TIP3   OH242940   0.437   4.052   1.579 -0.3418  0.1823 -0.2893
 7102TIP3    H142941   0.443   3.960   1.551 -0.7982 -0.0906  0.4887
 7102TIP3    H242942   0.514   4.094   1.541  2.2696 -1.4254  2.8173
 7103TIP3   OH242943   0.390   5.556   1.210  0.2617 -0.0553 -0.5644
 7103TIP3    H142944   0.359   5.505   1.285  0.5136 -1.8250 -1.6076
 7103TIP3    H242945   0.405   5.491   1.142  0.4062  1.4705 -2.0426
 7104TIP3   OH242946   2.736   2.118   7.357  0.0902  0.3510 -0.9819
 7104TIP3    H142947   2.708   2.026   7.355  1.0777  0.0213 -0.2560
 7104TIP3    H242948   2.831   2.114   7.350  0.2452  1.2462  0.3760
 7105TIP3   OH242949   0.651   5.503   7.939 -0.0950 -0.4672  0.0622
 7105TIP3    H142950   0.614   5.487   8.026 -0.6552 -1.7742 -0.3937
 7105TIP3    H242951   0.717   5.571   7.953 -0.8031 -0.0182  1.3507
 7106TIP3   OH242952   4.837   4.652   0.569  0.6567  0.4229 -0.2306
 7106TIP3    H142953   4.812   4.584   0.631 -0.5677 -0.2339 -1.4075
 7106TIP3    H242954   4.901   4.611   0.512 -0.2844  0.1371 -1.1124
 7107TIP3   OH242955   2.413   0.017   8.349 -0.5066 -0.4642  0.2476
 7107TIP3    H142956   2.341   0.027   8.287 -0.4041 -0.0439  0.1954
 7107TIP3    H242957   2.439   0.106   8.371  0.5650 -0.5927 -0.4102
 7108TIP3   OH242958   2.376   3.236   1.951 -0.7846 -0.0657 -0.2861
 7108TIP3    H142959   2.314   3.166   1.975 -1.8667  1.1006  0.4528
 7108TIP3    H242960   2.321   3.306   1.917  0.1871  0.8033 -0.1060
 7109TIP3   OH242961   5.377   0.365   0.314  0.2042  0.0999  0.0436
 7109TIP3    H142962   5.296   0.366   0.365  0.3124  0.4957  0.2085
 7109TIP3    H242963   5.353   0.407   0.231  0.3834  0.7306  0.3107
 7110TIP3   OH242964   2.260   0.692   6.765  0.2523  0.1373 -0.1270
 7110TIP3    H142965   2.229   0.717   6.677 -0.9280 -1.0331 -0.0763
 7110TIP3    H242966   2.338   0.638   6.748  0.0832 -0.0082 -0.4571
 7111TIP3   OH242967   6.182   6.362   8.148 -0.7717 -0.7969 -0.1746
 7111TIP3    H142968   6.179   6.429   8.216  1.4883  0.8814 -1.5931
 7111TIP3    H242969   6.259   6.308   8.171 -0.1161 -0.3429 -1.2364
 7112TIP3   OH242970   2.113   6.091   7.329  0.1192  0.2126 -0.2622
 7112TIP3    H142971   2.136   6.170   7.280 -0.0774  0.3197 -0.1830
 7112TIP3    H242972   2.129   6.019   7.267 -1.1679  0.4256 -0.8695
 7113TIP3   OH242973   2.248   0.690   1.595  0.6552 -0.1634  0.4442
 7113TIP3    H142974   2.194   0.741   1.534 -0.9923 -0.8332  1.2970
 7113TIP3    H242975   2.304   0.637   1.538  0.3689  0.4778 -0.4612
 7114TIP3   OH242976   0.455   4.360   1.509 -0.4422 -0.2360  0.0504
 7114TIP3    H142977   0.504   4.398   1.582 -2.3551  3.5004 -0.3629
 7114TIP3    H242978   0.487   4.406   1.432 -0.3193 -2.2228 -1.1533
 7115TIP3   OH242979   6.652   1.970   1.504  0.6176  0.5839 -0.0374
 7115TIP3    H142980   6.718   2.012   1.448  2.6299 -2.2028  0.0911
 7115TIP3    H242981   6.592   1.928   1.442  1.8810 -1.0664 -0.2107
 7116TIP3   OH242982   0.702   1.660   8.461  0.1042  0.0930  0.1755
 7116TIP3    H142983   0.722   1.620   8.546  2.0560  2.0872  0.7576
 7116TIP3    H242984   0.610   1.684   8.467 -0.0297 -0.6128  1.3668
 7117TIP3   OH242985   3.511   3.286   8.404 -0.2052 -0.2115 -0.1185
 7117TIP3    H142986   3.480   3.369   8.367  1.1421  0.8074  0.9131
 7117TIP3    H242987   3.560   3.245   8.333 -0.8047 -0.0812 -0.6128
 7118TIP3   OH242988   5.672   6.489   0.608  0.2248  0.2257  0.4613
 7118TIP3    H142989   5.671   6.569   0.661 -0.5229 -0.4219  1.4639
 7118TIP3    H242990   5.699   6.518   0.521  0.9092  1.4159  1.0446
 7119TIP3   OH242991   5.392   4.859   7.872 -0.0328 -0.6486 -0.2975
 7119TIP3    H142992   5.296   4.865   7.869  0.0270  1.3578  0.3693
 7119TIP3    H242993   5.413   4.854   7.965  0.5193 -0.7734 -0.4263
 7120TIP3   OH242994   2.192   3.837   8.153 -0.2130 -0.3291  0.1299
 7120TIP3    H142995   2.232   3.830   8.066  1.6364  0.8781  0.8277
 7120TIP3    H242996   2.160   3.927   8.158  0.0962 -0.2526  0.8554
 7121TIP3   OH242997   6.600   1.025   7.275 -0.2337 -0.0686  0.0231
 7121TIP3    H142998   6.609   1.004   7.368 -0.6675  0.9830  0.3182
 7121TIP3    H242999   6.595   0.939   7.232  0.3901 -0.5729  0.9170
 7122TIP3   OH243000   0.932   5.805   0.634  0.1596 -0.2306  0.2576
 7122TIP3    H143001   0.842   5.785   0.608  0.4815 -1.3917 -0.0278
 7122TIP3    H243002   0.949   5.747   0.708  1.3974 -1.7142 -1.1072
 7123TIP3   OH243003   2.102   1.080   6.533 -0.2058 -0.0366 -0.0526
 7123TIP3    H143004   2.181   1.121   6.568 -0.6738 -0.9666  2.2759
 7123TIP3    H243005   2.124   0.987   6.525 -1.2077 -0.4187  1.2383
 7124TIP3   OH243006   4.627   3.835   6.771 -0.0910  0.6308  0.1691
 7124TIP3    H143007   4.600   3.845   6.862 -0.7073 -0.8777  0.1832
 7124TIP3    H243008   4.692   3.764   6.773  1.0931  1.6669 -0.3721
 7125TIP3   OH243009   3.804   0.926   7.727  0.2094 -0.3015 -0.4596
 7125TIP3    H143010   3.886   0.924   7.777 -0.2947 -1.1853  0.3613
 7125TIP3    H243011   3.737   0.903   7.791 -0.5938 -0.3154 -1.2970
 7126TIP3   OH243012   4.633   4.960   8.419 -0.0257 -0.0780 -0.1255
 7126TIP3    H143013   4.704   5.024   8.429 -0.1177 -0.1428  0.9635
 7126TIP3    H243014   4.602   4.943   8.508  0.7759 -2.5328 -0.2365
 7127TIP3   OH243015   3.933   2.739   0.125 -0.2627  0.2959  0.6531
 7127TIP3    H143016   3.912   2.742   0.219  2.0699  1.0207  1.2275
 7127TIP3    H243017   4.013   2.791   0.117 -0.7274  0.7515 -1.8726
 7128TIP3   OH243018   6.373   1.690   1.410 -0.0911 -0.5182 -1.0088
 7128TIP3    H143019   6.415   1.688   1.324 -0.6106  0.0394 -1.2861
 7128TIP3    H243020   6.398   1.775   1.447 -1.7374  0.2599 -1.5851
 7129TIP3   OH243021   5.225   3.749   7.437  0.3423  0.2795  0.3586
 7129TIP3    H143022   5.221   3.653   7.445  0.1585  0.4517  3.4609
 7129TIP3    H243023   5.285   3.776   7.506  0.5863  2.4300 -0.6345
 7130TIP3   OH243024   6.682   2.350   7.465  0.1878  0.0109  0.0149
 7130TIP3    H143025   6.664   2.444   7.460  1.0856  0.2564  0.8670
 7130TIP3    H243026   6.733   2.331   7.387  0.3117  0.3200  0.0186
 7131TIP3   OH243027   5.382   4.582   2.213 -0.0097  0.3702  0.6757
 7131TIP3    H143028   5.467   4.621   2.236 -0.0155  0.5660  0.3734
 7131TIP3    H243029   5.320   4.622   2.273  0.2453 -0.4481  1.5133
 7132TIP3   OH243030   4.294   5.911   0.865 -0.5816  0.2386 -0.0593
 7132TIP3    H143031   4.385   5.913   0.897 -0.4508  0.6654 -0.4481
 7132TIP3    H243032   4.243   5.884   0.941 -0.1325  0.0148  0.1727
 7133TIP3   OH243033   1.182   5.017   8.028 -0.2717 -0.2162 -0.7990
 7133TIP3    H143034   1.088   5.002   8.030 -0.3146  0.1468  0.6855
 7133TIP3    H243035   1.191   5.113   8.029  0.1167 -0.2454 -1.1041
 7134TIP3   OH243036   2.705   4.400   2.048  0.0849 -0.1718  0.3472
 7134TIP3    H143037   2.641   4.328   2.051 -0.4361  0.3165  2.1840
 7134TIP3    H243038   2.775   4.367   1.992 -1.1723 -1.2298 -0.6629
 7135TIP3   OH243039   6.743   2.514   0.895 -0.1370  0.0175 -0.2931
 7135TIP3    H143040   6.719   2.438   0.842 -0.6564  0.4988 -0.7510
 7135TIP3    H243041   6.836   2.527   0.876 -0.4473  0.5230 -1.5303
 7136TIP3   OH243042   4.676   6.042   1.055  0.0527 -0.0410  0.1364
 7136TIP3    H143043   4.720   6.119   1.092  0.7712  0.7805 -2.2873
 7136TIP3    H243044   4.746   5.980   1.039 -0.5424 -1.3668  2.2175
 7137TIP3   OH243045   4.608   2.178   0.093  0.7525  0.6809  0.6658
 7137TIP3    H143046   4.670   2.227   0.148  1.8030 -1.9689  2.0354
 7137TIP3    H243047   4.587   2.100   0.144  1.4670 -1.7948 -2.5094
 7138TIP3   OH243048   6.370   1.789   2.089  0.0777 -0.3364  0.2456
 7138TIP3    H143049   6.387   1.761   1.999 -0.7893  0.0076 -0.0397
 7138TIP3    H243050   6.376   1.710   2.141 -2.3407 -1.1477 -0.5372
 7139TIP3   OH243051   3.164   3.469   1.249 -0.4176 -0.2898  0.1578
 7139TIP3    H143052   3.253   3.485   1.280 -0.6789 -1.4921  1.6021
 7139TIP3    H243053   3.168   3.488   1.155  1.2286  0.1551  0.2855
 7140TIP3   OH243054   3.119   6.918   8.178  0.5325 -0.1643  0.2403
 7140TIP3    H143055   3.072   7.001   8.167  1.1693  0.3585  1.2384
 7140TIP3    H243056   3.199   6.942   8.225  0.5425 -1.3999  0.9155
 7141TIP3   OH243057   2.131   4.647   1.456 -0.2346 -0.3213 -0.3838
 7141TIP3    H143058   2.201   4.688   1.405 -0.2163 -0.0655 -0.1473
 7141TIP3    H243059   2.104   4.713   1.519 -0.3445 -0.5965 -0.1393
 7142TIP3   OH243060   4.910   0.666   1.069 -0.7949  0.0146 -0.0830
 7142TIP3    H143061   4.989   0.668   1.122 -0.0931 -0.9329 -1.0601
 7142TIP3    H243062   4.919   0.588   1.014 -3.1840 -1.0739  0.9499
 7143TIP3   OH243063   2.887   3.700   0.037 -0.4519  0.3422  0.0325
 7143TIP3    H143064   2.980   3.690   0.057 -0.2207  0.1325 -1.0492
 7143TIP3    H243065   2.858   3.770   0.094 -0.1936 -1.1202  2.0520
 7144TIP3   OH243066   1.905   1.297   0.291 -0.3554  1.0178 -0.2143
 7144TIP3    H143067   1.898   1.361   0.220  0.1701  3.1632  1.5414
 7144TIP3    H243068   1.998   1.297   0.313 -0.3999 -0.1690  0.0070
 7145TIP3   OH243069   1.836   4.351   2.237  0.3748 -1.2320 -0.5645
 7145TIP3    H143070   1.749   4.315   2.220 -0.3457  0.7357 -1.3103
 7145TIP3    H243071   1.894   4.275   2.236 -0.9567 -2.3248 -2.7120
 7146TIP3   OH243072   6.550   6.357   0.322  0.3687 -0.9445 -0.1662
 7146TIP3    H143073   6.616   6.300   0.361  0.0758  0.1175  2.0814
 7146TIP3    H243074   6.593   6.442   0.315  0.0494 -0.8537 -1.1693
 7147TIP3   OH243075   6.767   4.243   2.401 -0.4699  0.1738 -0.3963
 7147TIP3    H143076   6.698   4.213   2.460  0.6677 -0.8078  0.4875
 7147TIP3    H243077   6.830   4.171   2.399 -0.2291  0.3716 -2.4549
 7148TIP3   OH243078   5.080   4.254   0.971  0.1937  0.5750 -0.3602
 7148TIP3    H143079   5.135   4.301   1.034  1.3429  1.4177 -1.9083
 7148TIP3    H243080   5.079   4.164   1.003  2.6381  0.4914 -0.3021
 7149TIP3   OH243081   4.245   5.213   0.417 -0.0952  0.1869  0.4167
 7149TIP3    H143082   4.246   5.249   0.328  0.4415  4.0719  1.8033
 7149TIP3    H243083   4.155   5.223   0.445 -0.1816 -0.6976  0.4921
 7150TIP3   OH243084   3.927   5.289   7.439  0.2229 -0.3196  0.1111
 7150TIP3    H143085   3.849   5.251   7.400 -0.0107  0.1835  0.0828
 7150TIP3    H243086   3.996   5.226   7.420  0.2394  0.1619 -1.6241
 7151TIP3   OH243087   2.153   1.956   7.168 -0.0185 -0.3290 -0.0586
 7151TIP3    H143088   2.073   2.003   7.192 -1.6287 -1.9496 -1.9239
 7151TIP3    H243089   2.172   1.984   7.079  1.3522 -0.2303  0.2418
 7152TIP3   OH243090   6.840   1.018   1.099 -0.1797  0.4856  0.2233
 7152TIP3    H143091   6.901   1.065   1.156 -0.5861  1.0702  0.1834
 7152TIP3    H243092   6.801   0.951   1.155 -0.0652  0.6041  0.4458
 7153TIP3   OH243093   5.776   4.689   0.927 -0.3554  0.6301 -0.6472
 7153TIP3    H143094   5.770   4.743   1.006 -0.8289  1.4180 -1.1966
 7153TIP3    H243095   5.686   4.662   0.910 -0.2218  0.2701 -0.7865
 7154TIP3   OH243096   6.661   0.463   6.584 -0.3192  0.4481 -0.2489
 7154TIP3    H143097   6.654   0.533   6.648  2.0662  0.7515 -0.2368
 7154TIP3    H243098   6.618   0.498   6.506 -0.2138  1.4522  0.1296
 7155TIP3   OH243099   4.336   2.620   2.149 -0.4073  0.1172 -0.4240
 7155TIP3    H143100   4.294   2.614   2.064  0.2002 -1.1360 -0.6585
 7155TIP3    H243101   4.430   2.615   2.130 -0.2869 -2.5108  0.4268
 7156TIP3   OH243102   5.230   4.911   0.343 -0.0267 -0.1992  0.5693
 7156TIP3    H143103   5.219   4.982   0.406 -0.8554  0.5216 -0.3453
 7156TIP3    H243104   5.313   4.930   0.299  0.1521 -0.2481  0.8852
 7157TIP3   OH243105   0.958   3.193   8.019 -0.0511  0.4576  0.3280
 7157TIP3    H143106   1.026   3.251   8.053 -2.4790  2.7654  1.5618
 7157TIP3    H243107   0.945   3.128   8.088  1.0937 -0.2343 -0.0765
 7158TIP3   OH243108   5.625   3.328   2.911 -0.2220 -0.2378 -0.0152
 7158TIP3    H143109   5.623   3.233   2.901  0.6603 -0.2420 -0.2399
 7158TIP3    H243110   5.587   3.344   2.998  1.2214 -0.9215  0.7670
 7159TIP3   OH243111   6.221   3.911   1.232 -0.4087  0.5150  0.1629
 7159TIP3    H143112   6.279   3.968   1.182  0.2292  1.0182  1.4305
 7159TIP3    H243113   6.262   3.825   1.228  1.0237  1.0787  1.9128
 7160TIP3   OH243114   3.795   3.561   1.638  0.7570  0.7150  0.5246
 7160TIP3    H143115   3.837   3.529   1.558  0.2105  0.0692  0.4843
 7160TIP3    H243116   3.866   3.573   1.700  0.9393 -0.9777  0.6681
 7161TIP3   OH243117   3.235   2.969   8.303  0.0998 -1.0831 -0.3686
 7161TIP3    H143118   3.299   2.970   8.232  1.2117 -2.3653  0.5738
 7161TIP3    H243119   3.151   2.958   8.259  0.5896 -0.2594 -1.5745
 7162TIP3   OH243120   3.522   5.702   6.977  0.1301 -0.0940  0.4970
 7162TIP3    H143121   3.448   5.742   6.931 -0.3600 -0.7843  0.6527
 7162TIP3    H243122   3.574   5.661   6.908 -1.0683 -1.8781  0.5746
 7163TIP3   OH243123   6.341   3.068   1.019 -0.6149 -0.2860  0.2756
 7163TIP3    H143124   6.389   3.136   1.066 -1.5554 -0.3757  1.4117
 7163TIP3    H243125   6.370   2.986   1.060  0.2136 -0.5585 -0.8158
 7164TIP3   OH243126   0.384   6.701   8.005  0.0470  0.3271 -0.5299
 7164TIP3    H143127   0.334   6.642   8.061 -1.0124  1.1355 -0.5868
 7164TIP3    H243128   0.448   6.741   8.063 -0.1159  0.1149 -0.2013
 7165TIP3   OH243129   0.956   1.274   1.256 -0.3420 -0.3942  0.1153
 7165TIP3    H143130   1.025   1.333   1.284 -0.4139  0.6440 -1.7144
 7165TIP3    H243131   0.897   1.329   1.204  0.5122 -2.3017 -3.2169
 7166TIP3   OH243132   2.680   6.702   7.165  0.4250  0.0124  0.0643
 7166TIP3    H143133   2.610   6.764   7.144  2.3544  1.9008 -1.1849
 7166TIP3    H243134   2.713   6.731   7.250  0.5053 -0.1026  0.0719
 7167TIP3   OH243135   1.519   4.842   0.676 -0.3873 -0.1139 -0.2258
 7167TIP3    H143136   1.492   4.793   0.598 -1.3209  1.0629 -0.6690
 7167TIP3    H243137   1.448   4.828   0.739 -0.8196  0.9012 -0.4702
 7168TIP3   OH243138   5.875   2.316   1.766  0.0557  0.1225 -0.1729
 7168TIP3    H143139   5.890   2.222   1.765  0.2067  0.1078  1.2345
 7168TIP3    H243140   5.812   2.330   1.837  0.3164  1.1132 -0.1090
 7169TIP3   OH243141   0.215   4.368   7.923  0.1840  0.8676 -0.0457
 7169TIP3    H143142   0.200   4.415   7.841 -0.1956  0.2017 -0.3706
 7169TIP3    H243143   0.135   4.317   7.936  0.8319 -0.1804 -0.0561
 7170TIP3   OH243144   4.065   3.327   6.965  0.3023 -0.1640 -0.6292
 7170TIP3    H143145   4.039   3.330   6.872 -1.0755 -1.8207 -0.3385
 7170TIP3    H243146   4.106   3.242   6.976  2.1723  0.7576 -0.0879
 7171TIP3   OH243147   3.680   5.936   8.073 -0.2339  0.8517  0.7415
 7171TIP3    H143148   3.764   5.899   8.100 -0.7120 -0.3568  0.6389
 7171TIP3    H243149   3.621   5.861   8.070 -1.6432  1.8420  2.0008
 7172TIP3   OH243150   3.262   0.854   7.134 -0.8122  0.5554  0.0965
 7172TIP3    H143151   3.305   0.937   7.115 -1.7627  0.5165 -2.6863
 7172TIP3    H243152   3.329   0.800   7.175 -0.3521  2.8391  2.6444
 7173TIP3   OH243153   5.404   2.940   2.902 -0.0759 -0.0229 -0.0805
 7173TIP3    H143154   5.320   2.897   2.919  0.1014 -0.3759 -0.0748
 7173TIP3    H243155   5.457   2.872   2.860 -0.0100  0.3916 -0.6705
 7174TIP3   OH243156   6.434   5.750   8.425  0.0557  0.8479 -0.0573
 7174TIP3    H143157   6.401   5.813   8.488  0.9504 -0.3246  1.6530
 7174TIP3    H243158   6.357   5.697   8.403 -0.1005  0.7600  0.6744
 7175TIP3   OH243159   2.076   4.728   7.966  0.0570 -0.3943 -0.7128
 7175TIP3    H143160   2.009   4.788   7.934 -0.5457 -0.4318  0.4293
 7175TIP3    H243161   2.077   4.657   7.903 -1.8598 -1.0007 -0.1284
 7176TIP3   OH243162   2.582   0.551   2.090  0.3772 -0.4343 -0.0597
 7176TIP3    H143163   2.511   0.488   2.103  0.3162 -0.4673 -0.5323
 7176TIP3    H243164   2.558   0.626   2.144 -0.8450  0.2227 -1.4347
 7177LIG     O143165   1.682   1.370   5.956 -0.1753  0.2217 -0.2568
 7177LIG     O243166   1.727   1.303   6.419 -0.3815  0.3420  0.6068
 7177LIG     N143167   1.683   1.121   6.283 -0.2105  0.7668 -0.1186
 7177LIG     N243168   1.640   1.072   5.931  0.1565 -0.7306  0.5250
 7177LIG     N343169   1.696   1.341   6.188 -0.8076 -0.2844 -0.6017
 7177LIG     N443170   1.610   0.946   6.115 -0.0302  0.0438 -0.2215
 7177LIG     C143171   1.660   1.157   6.042 -0.0739  0.6923  0.1875
 7177LIG     C243172   1.645   1.075   6.155 -0.4186 -0.9390 -0.5770
 7177LIG     C343173   1.680   1.294   6.053 -0.5230 -0.4932 -0.3180
 7177LIG     C443174   1.706   1.255   6.303  0.3675 -0.9847 -0.4488
 7177LIG     C543175   1.606   0.950   5.980 -0.3118 -0.5428 -0.8440
 7177LIG     C643176   1.682   1.035   6.404  0.0120 -0.4760 -0.1976
 7177LIG     C743177   1.664   1.113   5.789 -0.1746  0.4619 -0.1499
 7177LIG     C843178   1.714   1.483   6.222  0.5813 -0.0609  0.0940
 7177LIG     H143179   1.587   0.863   5.919  0.4316 -2.0329  0.9386
 7177LIG     H243180   1.663   1.088   6.499  0.8371 -0.2772 -0.1350
 7177LIG     H343181   1.778   0.984   6.426  0.3633  0.8262  1.4790
 7177LIG     H443182   1.600   0.960   6.402 -2.6568  2.2277 -0.3105
 7177LIG     H543183   1.757   1.173   5.790 -1.5983  3.0220 -3.2411
 7177LIG     H643184   1.581   1.185   5.767  2.0519  3.0946 -0.4835
 7177LIG     H743185   1.664   1.024   5.723  0.7743 -0.1089  0.6068
 7177LIG     H843186   1.754   1.552   6.145  1.9798  0.7033  1.4605
 7177LIG     H943187   1.800   1.497   6.291  0.7456  1.4811 -0.3923
 7177LIG    H1043188   1.629   1.537   6.267  1.2173  1.0995 -0.0689
   6.95464   6.95464   8.52691
